Protein in INSANE! Membrane UpperLeaflet>POPC=1.0 LowerLeaflet>POPC=1.0
238905
   85AUC    AUC    1  25.317  20.089   7.503
   86AUC    AUC    2  25.562  20.089   7.351
   87AUC    AUC    3  25.562  20.089   7.654
   88AUC    AUC    4  25.072  20.089   7.351
   89AUC    AUC    5  25.072  20.089   7.654
   90AUC    AUC    6  25.165  20.335   7.503
   91AUC    AUC    7  25.469  20.335   7.503
   92AUC    AUC    8  25.165  19.844   7.503
   93AUC    AUC    9  25.469  19.844   7.503
   94AUC    AUC   10  25.317  19.938   7.748
   95AUC    AUC   11  25.317  20.241   7.748
   96AUC    AUC   12  25.317  19.938   7.257
   97AUC    AUC   13  25.317  20.241   7.257
   98AUC    AUC   14  25.808  20.089   7.199
   99AUC    AUC   15  25.808  20.089   7.503
  100AUC    AUC   16  25.808  20.089   7.806
  101AUC    AUC   17  24.826  20.089   7.199
  102AUC    AUC   18  24.826  20.089   7.503
  103AUC    AUC   19  24.826  20.089   7.806
  104AUC    AUC   20  25.014  20.580   7.503
  105AUC    AUC   21  25.317  20.580   7.503
  106AUC    AUC   22  25.620  20.580   7.503
  107AUC    AUC   23  25.014  19.599   7.503
  108AUC    AUC   24  25.317  19.599   7.503
  109AUC    AUC   25  25.620  19.599   7.503
  110AUC    AUC   26  25.317  19.786   7.993
  111AUC    AUC   27  25.317  20.089   7.993
  112AUC    AUC   28  25.317  20.393   7.993
  113AUC    AUC   29  25.317  19.786   7.012
  114AUC    AUC   30  25.317  20.089   7.012
  115AUC    AUC   31  25.317  20.393   7.012
  116AUC    AUC   32  25.562  19.938   7.900
  117AUC    AUC   33  25.562  20.241   7.900
  118AUC    AUC   34  25.562  19.938   7.106
  119AUC    AUC   35  25.562  20.241   7.106
  120AUC    AUC   36  25.072  19.938   7.900
  121AUC    AUC   37  25.072  20.241   7.900
  122AUC    AUC   38  25.072  19.938   7.106
  123AUC    AUC   39  25.072  20.241   7.106
  124AUC    AUC   40  25.714  20.335   7.351
  125AUC    AUC   41  25.714  20.335   7.654
  126AUC    AUC   42  24.920  20.335   7.351
  127AUC    AUC   43  24.920  20.335   7.654
  128AUC    AUC   44  25.714  19.844   7.351
  129AUC    AUC   45  25.714  19.844   7.654
  130AUC    AUC   46  24.920  19.844   7.351
  131AUC    AUC   47  24.920  19.844   7.654
  132AUC    AUC   48  25.165  20.487   7.748
  133AUC    AUC   49  25.469  20.487   7.748
  134AUC    AUC   50  25.165  19.692   7.748
  135AUC    AUC   51  25.469  19.692   7.748
  136AUC    AUC   52  25.165  20.487   7.257
  137AUC    AUC   53  25.469  20.487   7.257
  138AUC    AUC   54  25.165  19.692   7.257
  139AUC    AUC   55  25.469  19.692   7.257
  140AUSL   AUS   56  25.726  20.089   8.083
  141AUSL   AUS   57  25.582  19.673   8.013
  142AUL    AUL   58  25.808  19.786   8.297
  143THSLK    S   59  25.692  19.486   8.153
  144ETHY    C1   60  25.728  19.087   8.368
  145ETHY    C1   61  25.838  18.657   8.665
  146ETHY    C1   62  26.016  18.293   9.000
  147ETHY    C1   63  26.250  17.997   9.364
  148ETHY    C1   64  26.536  17.780   9.752
  149ETHY    C1   65  26.867  17.647  10.156
  150THSLK    S   66  25.819  20.037   8.324
  151ETHY    C1   67  26.023  19.817   8.665
  152ETHY    C1   68  26.287  19.640   9.094
  153ETHY    C1   69  26.563  19.564   9.535
  154ETHY    C1   70  26.840  19.581   9.980
  155ETHY    C1   71  27.110  19.694  10.419
  156ETHY    C1   72  27.369  19.903  10.845
  157AUSL   AUS   73  25.481  19.938   8.176
  158AUSL   AUS   74  25.153  20.241   8.176
  159AUL    AUL   75  25.317  20.089   8.484
  160THSLK    S   76  25.556  19.883   8.413
  161ETHY    C1   77  25.620  19.603   8.765
  162ETHY    C1   78  25.723  19.348   9.223
  163ETHY    C1   79  25.850  19.189   9.708
  164ETHY    C1   80  25.992  19.120  10.208
  165ETHY    C1   81  26.146  19.148  10.713
  166ETHY    C1   82  26.306  19.272  11.212
  167THSLK    S   83  25.068  20.195   8.428
  168ETHY    C1   84  24.994  20.045   8.850
  169ETHY    C1   85  24.889  19.957   9.367
  170ETHY    C1   86  24.767  19.969   9.878
  171ETHY    C1   87  24.629  20.070  10.373
  172ETHY    C1   88  24.474  20.263  10.840
  173ETHY    C1   89  24.305  20.544  11.268
  174AUSL   AUS   90  25.481  20.241   8.176
  175AUSL   AUS   91  25.827  20.354   7.919
  176AUL    AUL   92  25.808  20.393   8.297
  177THSLK    S   93  25.566  20.297   8.410
  178ETHY    C1   94  25.640  20.578   8.759
  179ETHY    C1   95  25.745  20.833   9.217
  180ETHY    C1   96  25.867  20.992   9.703
  181ETHY    C1   97  26.006  21.061  10.204
  182ETHY    C1   98  26.160  21.034  10.708
  183ETHY    C1   99  26.329  20.910  11.206
  184THSLK    S  100  25.999  20.452   8.080
  185ETHY    C1  101  26.362  20.423   8.350
  186ETHY    C1  102  26.784  20.479   8.673
  187ETHY    C1  103  27.176  20.633   8.989
  188ETHY    C1  104  27.530  20.871   9.293
  189ETHY    C1  105  27.837  21.192   9.580
  190ETHY    C1  106  28.088  21.589   9.844
  191AUSL   AUS  107  25.726  20.089   6.923
  192AUSL   AUS  108  25.582  20.506   6.992
  193AUL    AUL  109  25.808  20.393   6.708
  194THSLK    S  110  25.828  20.037   6.687
  195ETHY    C1  111  26.041  19.817   6.351
  196ETHY    C1  112  26.306  19.640   5.923
  197ETHY    C1  113  26.578  19.564   5.479
  198ETHY    C1  114  26.852  19.581   5.033
  199ETHY    C1  115  27.123  19.694   4.594
  200ETHY    C1  116  27.388  19.903   4.173
  201THSLK    S  117  25.760  20.617   6.829
  202ETHY    C1  118  26.062  20.685   6.497
  203ETHY    C1  119  26.381  20.848   6.100
  204ETHY    C1  120  26.646  21.095   5.719
  205ETHY    C1  121  26.858  21.415   5.362
  206ETHY    C1  122  27.011  21.805   5.039
  207ETHY    C1  123  27.102  22.257   4.759
  208AUSL   AUS  124  25.481  19.938   6.829
  209AUSL   AUS  125  25.827  19.825   7.086
  210AUL    AUL  126  25.808  19.786   6.708
  211THSLK    S  127  25.960  19.633   6.949
  212ETHY    C1  128  26.143  19.266   6.752
  213ETHY    C1  129  26.415  18.894   6.483
  214ETHY    C1  130  26.740  18.605   6.186
  215ETHY    C1  131  27.106  18.398   5.874
  216ETHY    C1  132  27.510  18.279   5.555
  217ETHY    C1  133  27.943  18.254   5.235
  218THSLK    S  134  25.566  19.882   6.596
  219ETHY    C1  135  25.640  19.601   6.246
  220ETHY    C1  136  25.745  19.345   5.788
  221ETHY    C1  137  25.867  19.187   5.302
  222ETHY    C1  138  26.006  19.118   4.801
  223ETHY    C1  139  26.160  19.145   4.297
  224ETHY    C1  140  26.329  19.269   3.799
  225AUSL   AUS  141  25.481  20.241   6.829
  226AUSL   AUS  142  25.153  19.938   6.829
  227AUL    AUL  143  25.317  20.089   6.521
  228THSLK    S  144  25.061  19.882   6.597
  229ETHY    C1  145  24.926  19.604   6.264
  230ETHY    C1  146  24.765  19.351   5.822
  231ETHY    C1  147  24.613  19.194   5.343
  232ETHY    C1  148  24.477  19.125   4.842
  233ETHY    C1  149  24.360  19.151   4.328
  234ETHY    C1  150  24.267  19.270   3.810
  235THSLK    S  151  25.583  20.195   6.583
  236ETHY    C1  152  25.729  20.045   6.179
  237ETHY    C1  153  25.891  19.954   5.678
  238ETHY    C1  154  26.038  19.964   5.173
  239ETHY    C1  155  26.171  20.065   4.677
  240ETHY    C1  156  26.288  20.260   4.200
  241ETHY    C1  157  26.389  20.546   3.754
  242AUSL   AUS  158  24.908  20.089   8.083
  243AUSL   AUS  159  25.052  20.506   8.013
  244AUL    AUL  160  24.826  20.393   8.297
  245THSLK    S  161  24.806  20.037   8.319
  246ETHY    C1  162  24.594  19.817   8.654
  247ETHY    C1  163  24.328  19.640   9.082
  248ETHY    C1  164  24.056  19.564   9.526
  249ETHY    C1  165  23.782  19.581   9.973
  250ETHY    C1  166  23.511  19.694  10.411
  251ETHY    C1  167  23.246  19.903  10.832
  252THSLK    S  168  24.935  20.630   8.202
  253ETHY    C1  169  24.892  20.773   8.632
  254ETHY    C1  170  24.781  20.998   9.104
  255ETHY    C1  171  24.605  21.275   9.515
  256ETHY    C1  172  24.374  21.591   9.863
  257ETHY    C1  173  24.088  21.939  10.138
  258ETHY    C1  174  23.751  22.312  10.334
  259AUSL   AUS  175  25.153  19.938   8.176
  260AUSL   AUS  176  24.807  19.825   7.919
  261AUL    AUL  177  24.826  19.786   8.297
  262THSLK    S  178  24.630  19.662   8.026
  263ETHY    C1  179  24.259  19.405   8.082
  264ETHY    C1  180  23.837  19.117   8.237
  265ETHY    C1  181  23.447  18.862   8.482
  266ETHY    C1  182  23.095  18.645   8.803
  267ETHY    C1  183  22.789  18.474   9.198
  268ETHY    C1  184  22.532  18.353   9.657
  269THSLK    S  185  25.051  19.884   8.406
  270ETHY    C1  186  24.905  19.608   8.736
  271ETHY    C1  187  24.743  19.356   9.178
  272ETHY    C1  188  24.596  19.198   9.658
  273ETHY    C1  189  24.463  19.128  10.160
  274ETHY    C1  190  24.346  19.154  10.674
  275ETHY    C1  191  24.245  19.275  11.190
  276AUSL   AUS  192  24.908  20.089   6.923
  277AUSL   AUS  193  25.052  19.673   6.992
  278AUL    AUL  194  24.826  19.786   6.708
  279THSLK    S  195  24.815  20.037   6.681
  280ETHY    C1  196  24.611  19.817   6.341
  281ETHY    C1  197  24.347  19.640   5.911
  282ETHY    C1  198  24.071  19.564   5.470
  283ETHY    C1  199  23.794  19.581   5.025
  284ETHY    C1  200  23.524  19.694   4.586
  285ETHY    C1  201  23.265  19.903   4.161
  286THSLK    S  202  24.881  19.500   6.878
  287ETHY    C1  203  24.586  19.174   6.760
  288ETHY    C1  204  24.268  18.807   6.538
  289ETHY    C1  205  24.000  18.472   6.233
  290ETHY    C1  206  23.786  18.172   5.861
  291ETHY    C1  207  23.634  17.914   5.426
  292ETHY    C1  208  23.548  17.702   4.937
  293AUSL   AUS  209  25.153  20.241   6.829
  294AUSL   AUS  210  24.807  20.354   7.086
  295AUL    AUL  211  24.826  20.393   6.708
  296THSLK    S  212  24.680  20.481   6.895
  297ETHY    C1  213  24.503  20.562   6.484
  298ETHY    C1  214  24.232  20.702   6.046
  299ETHY    C1  215  23.905  20.890   5.679
  300ETHY    C1  216  23.536  21.119   5.385
  301ETHY    C1  217  23.134  21.386   5.173
  302ETHY    C1  218  22.705  21.688   5.047
  303THSLK    S  219  25.078  20.197   6.576
  304ETHY    C1  220  25.014  20.050   6.150
  305ETHY    C1  221  24.911  19.961   5.634
  306ETHY    C1  222  24.784  19.972   5.123
  307ETHY    C1  223  24.642  20.073   4.629
  308ETHY    C1  224  24.489  20.266   4.162
  309ETHY    C1  225  24.328  20.549   3.732
  310AUSL   AUS  226  25.897  20.498   7.503
  311AUSL   AUS  227  25.827  20.354   7.086
  312AUL    AUL  228  26.111  20.580   7.199
  313THSLK    S  229  26.005  20.453   6.934
  314ETHY    C1  230  26.375  20.426   6.671
  315ETHY    C1  231  26.797  20.482   6.349
  316ETHY    C1  232  27.187  20.636   6.030
  317ETHY    C1  233  27.539  20.873   5.724
  318ETHY    C1  234  27.846  21.194   5.438
  319ETHY    C1  235  28.102  21.593   5.179
  320THSLK    S  236  26.163  20.551   7.508
  321ETHY    C1  237  26.617  20.573   7.513
  322ETHY    C1  238  27.139  20.687   7.514
  323ETHY    C1  239  27.622  20.896   7.511
  324ETHY    C1  240  28.058  21.186   7.510
  325ETHY    C1  241  28.437  21.553   7.510
  326ETHY    C1  242  28.751  21.993   7.514
  327AUSL   AUS  243  25.991  20.253   7.351
  328AUSL   AUS  244  25.991  19.926   7.654
  329AUL    AUL  245  26.299  20.089   7.503
  330THSLK    S  246  26.247  20.292   7.350
  331ETHY    C1  247  26.683  20.184   7.286
  332ETHY    C1  248  27.209  20.146   7.201
  333ETHY    C1  249  27.724  20.210   7.113
  334ETHY    C1  250  28.218  20.364   7.026
  335ETHY    C1  251  28.678  20.609   6.945
  336ETHY    C1  252  29.097  20.941   6.873
  337THSLK    S  253  26.218  19.786   7.663
  338ETHY    C1  254  26.537  19.470   7.728
  339ETHY    C1  255  26.970  19.166   7.807
  340ETHY    C1  256  27.445  18.956   7.887
  341ETHY    C1  257  27.948  18.835   7.971
  342ETHY    C1  258  28.468  18.809   8.058
  343ETHY    C1  259  28.996  18.879   8.147
  344AUSL   AUS  260  25.991  20.253   7.654
  345AUSL   AUS  261  25.733  20.600   7.767
  346AUL    AUL  262  26.111  20.580   7.806
  347THSLK    S  263  25.916  20.714   7.926
  348ETHY    C1  264  26.299  20.832   8.140
  349ETHY    C1  265  26.717  21.055   8.388
  350ETHY    C1  266  27.076  21.360   8.622
  351ETHY    C1  267  27.373  21.733   8.840
  352ETHY    C1  268  27.598  22.167   9.038
  353ETHY    C1  269  27.745  22.655   9.215
  354THSLK    S  270  26.245  20.292   7.665
  355ETHY    C1  271  26.680  20.184   7.740
  356ETHY    C1  272  27.206  20.146   7.826
  357ETHY    C1  273  27.721  20.209   7.910
  358ETHY    C1  274  28.215  20.363   7.993
  359ETHY    C1  275  28.676  20.608   8.075
  360ETHY    C1  276  29.093  20.940   8.155
  361AUSL   AUS  277  24.737  20.498   7.503
  362AUSL   AUS  278  24.807  20.354   7.919
  363AUL    AUL  279  24.523  20.580   7.806
  364THSLK    S  280  24.674  20.473   8.109
  365ETHY    C1  281  24.491  20.545   8.519
  366ETHY    C1  282  24.219  20.685   8.957
  367ETHY    C1  283  23.894  20.876   9.324
  368ETHY    C1  284  23.528  21.107   9.619
  369ETHY    C1  285  23.125  21.374   9.831
  370ETHY    C1  286  22.691  21.670   9.956
  371THSLK    S  287  24.526  20.639   7.508
  372ETHY    C1  288  24.304  21.036   7.513
  373ETHY    C1  289  23.968  21.451   7.514
  374ETHY    C1  290  23.565  21.790   7.511
  375ETHY    C1  291  23.111  22.051   7.510
  376ETHY    C1  292  22.612  22.225   7.510
  377ETHY    C1  293  22.079  22.309   7.514
  378AUSL   AUS  294  24.643  20.253   7.351
  379AUSL   AUS  295  24.901  20.600   7.238
  380AUL    AUL  296  24.523  20.580   7.199
  381THSLK    S  297  24.416  20.368   7.303
  382ETHY    C1  298  24.097  20.568   7.049
  383ETHY    C1  299  23.664  20.774   6.813
  384ETHY    C1  300  23.189  20.940   6.661
  385ETHY    C1  301  22.686  21.069   6.590
  386ETHY    C1  302  22.166  21.159   6.605
  387ETHY    C1  303  21.638  21.207   6.708
  388THSLK    S  304  24.789  20.763   7.060
  389ETHY    C1  305  24.710  21.073   6.737
  390ETHY    C1  306  24.535  21.447   6.397
  391ETHY    C1  307  24.281  21.815   6.120
  392ETHY    C1  308  23.961  22.172   5.909
  393ETHY    C1  309  23.580  22.510   5.770
  394ETHY    C1  310  23.145  22.824   5.709
  395AUSL   AUS  311  24.643  20.253   7.654
  396AUSL   AUS  312  24.643  19.926   7.351
  397AUL    AUL  313  24.335  20.089   7.503
  398THSLK    S  314  24.389  19.853   7.394
  399ETHY    C1  315  23.954  19.835   7.524
  400ETHY    C1  316  23.428  19.775   7.597
  401ETHY    C1  317  22.913  19.671   7.578
  402ETHY    C1  318  22.419  19.528   7.477
  403ETHY    C1  319  21.959  19.345   7.294
  404ETHY    C1  320  21.541  19.125   7.034
  405THSLK    S  321  24.415  20.359   7.707
  406ETHY    C1  322  24.094  20.550   7.966
  407ETHY    C1  323  23.661  20.754   8.202
  408ETHY    C1  324  23.186  20.925   8.352
  409ETHY    C1  325  22.684  21.057   8.422
  410ETHY    C1  326  22.164  21.145   8.407
  411ETHY    C1  327  21.635  21.186   8.308
  412AUSL   AUS  328  25.897  19.680   7.503
  413AUSL   AUS  329  25.827  19.825   7.919
  414AUL    AUL  330  26.111  19.599   7.806
  415THSLK    S  331  26.108  19.539   7.508
  416ETHY    C1  332  26.330  19.143   7.513
  417ETHY    C1  333  26.666  18.728   7.514
  418ETHY    C1  334  27.069  18.389   7.511
  419ETHY    C1  335  27.523  18.128   7.510
  420ETHY    C1  336  28.022  17.954   7.510
  421ETHY    C1  337  28.555  17.870   7.514
  422THSLK    S  338  25.954  19.634   8.064
  423ETHY    C1  339  26.131  19.269   8.270
  424ETHY    C1  340  26.402  18.897   8.540
  425ETHY    C1  341  26.729  18.608   8.834
  426ETHY    C1  342  27.098  18.400   9.142
  427ETHY    C1  343  27.500  18.282   9.462
  428ETHY    C1  344  27.929  18.257   9.789
  429AUSL   AUS  345  25.991  19.926   7.351
  430AUSL   AUS  346  25.733  19.579   7.238
  431AUL    AUL  347  26.111  19.599   7.199
  432THSLK    S  348  26.219  19.786   7.353
  433ETHY    C1  349  26.540  19.469   7.298
  434ETHY    C1  350  26.973  19.166   7.221
  435ETHY    C1  351  27.448  18.956   7.136
  436ETHY    C1  352  27.950  18.835   7.048
  437ETHY    C1  353  28.470  18.808   6.963
  438ETHY    C1  354  28.999  18.879   6.881
  439THSLK    S  355  25.849  19.390   7.108
  440ETHY    C1  356  25.933  18.961   6.984
  441ETHY    C1  357  26.108  18.489   6.803
  442ETHY    C1  358  26.361  18.078   6.593
  443ETHY    C1  359  26.679  17.730   6.366
  444ETHY    C1  360  27.061  17.455   6.126
  445ETHY    C1  361  27.499  17.258   5.880
  446AUSL   AUS  362  24.737  19.680   7.503
  447AUSL   AUS  363  24.807  19.825   7.086
  448AUL    AUL  364  24.523  19.599   7.199
  449THSLK    S  365  24.636  19.654   6.978
  450ETHY    C1  366  24.272  19.389   6.921
  451ETHY    C1  367  23.850  19.099   6.766
  452ETHY    C1  368  23.458  18.847   6.521
  453ETHY    C1  369  23.104  18.634   6.200
  454ETHY    C1  370  22.797  18.461   5.806
  455ETHY    C1  371  22.546  18.334   5.346
  456THSLK    S  372  24.471  19.628   7.508
  457ETHY    C1  373  24.017  19.606   7.513
  458ETHY    C1  374  23.495  19.492   7.514
  459ETHY    C1  375  23.013  19.283   7.511
  460ETHY    C1  376  22.576  18.993   7.510
  461ETHY    C1  377  22.197  18.626   7.510
  462ETHY    C1  378  21.884  18.186   7.514
  463AUSL   AUS  379  24.643  19.926   7.654
  464AUSL   AUS  380  24.901  19.579   7.767
  465AUL    AUL  381  24.523  19.599   7.806
  466THSLK    S  382  24.713  19.439   7.878
  467ETHY    C1  383  24.326  19.202   7.893
  468ETHY    C1  384  23.908  18.882   7.982
  469ETHY    C1  385  23.550  18.533   8.149
  470ETHY    C1  386  23.255  18.169   8.382
  471ETHY    C1  387  23.030  17.798   8.683
  472ETHY    C1  388  22.879  17.427   9.045
  473THSLK    S  389  24.387  19.863   7.616
  474ETHY    C1  390  23.951  19.853   7.491
  475ETHY    C1  391  23.425  19.794   7.419
  476ETHY    C1  392  22.910  19.687   7.436
  477ETHY    C1  393  22.416  19.541   7.535
  478ETHY    C1  394  21.956  19.359   7.718
  479ETHY    C1  395  21.537  19.146   7.983
  480AUSL   AUS  396  25.317  20.669   7.912
  481AUSL   AUS  397  24.901  20.600   7.767
  482AUL    AUL  398  25.014  20.884   7.993
  483THSLK    S  399  24.785  20.756   7.952
  484ETHY    C1  400  24.701  21.058   8.280
  485ETHY    C1  401  24.526  21.431   8.621
  486ETHY    C1  402  24.273  21.802   8.895
  487ETHY    C1  403  23.955  22.161   9.105
  488ETHY    C1  404  23.573  22.499   9.244
  489ETHY    C1  405  23.135  22.807   9.309
  490THSLK    S  406  25.359  20.891   8.035
  491ETHY    C1  407  25.543  21.166   8.347
  492ETHY    C1  408  25.693  21.546   8.691
  493ETHY    C1  409  25.759  21.969   8.998
  494ETHY    C1  410  25.746  22.420   9.264
  495ETHY    C1  411  25.649  22.889   9.485
  496ETHY    C1  412  25.469  23.368   9.656
  497AUSL   AUS  413  25.165  20.763   7.666
  498AUSL   AUS  414  25.469  20.763   7.339
  499AUL    AUL  415  25.317  21.071   7.503
  500THSLK    S  416  25.208  21.007   7.776
  501ETHY    C1  417  25.352  21.401   7.951
  502ETHY    C1  418  25.439  21.895   8.137
  503ETHY    C1  419  25.427  22.396   8.294
  504ETHY    C1  420  25.326  22.894   8.425
  505ETHY    C1  421  25.134  23.375   8.527
  506ETHY    C1  422  24.854  23.830   8.600
  507THSLK    S  423  25.524  20.994   7.243
  508ETHY    C1  424  25.800  21.324   7.096
  509ETHY    C1  425  26.050  21.765   6.927
  510ETHY    C1  426  26.206  22.242   6.771
  511ETHY    C1  427  26.275  22.744   6.635
  512ETHY    C1  428  26.251  23.260   6.525
  513ETHY    C1  429  26.134  23.780   6.443
  514AUSL   AUS  430  25.469  20.763   7.666
  515AUSL   AUS  431  25.582  20.506   8.013
  516AUL    AUL  432  25.620  20.884   7.993
  517THSLK    S  433  25.753  20.614   8.183
  518ETHY    C1  434  26.048  20.679   8.523
  519ETHY    C1  435  26.366  20.841   8.920
  520ETHY    C1  436  26.634  21.090   9.298
  521ETHY    C1  437  26.848  21.412   9.653
  522ETHY    C1  438  27.000  21.800   9.976
  523ETHY    C1  439  27.086  22.250  10.262
  524THSLK    S  440  25.522  20.992   7.772
  525ETHY    C1  441  25.794  21.320   7.929
  526ETHY    C1  442  26.044  21.760   8.100
  527ETHY    C1  443  26.202  22.239   8.251
  528ETHY    C1  444  26.271  22.741   8.383
  529ETHY    C1  445  26.247  23.256   8.494
  530ETHY    C1  446  26.128  23.775   8.585
  531AUSL   AUS  447  25.317  19.509   7.912
  532AUSL   AUS  448  25.733  19.579   7.767
  533AUL    AUL  449  25.620  19.295   7.993
  534THSLK    S  450  25.270  19.259   7.989
  535ETHY    C1  451  25.080  18.863   8.103
  536ETHY    C1  452  24.929  18.385   8.289
  537ETHY    C1  453  24.866  17.920   8.528
  538ETHY    C1  454  24.881  17.478   8.809
  539ETHY    C1  455  24.977  17.071   9.132
  540ETHY    C1  456  25.152  16.708   9.489
  541THSLK    S  457  25.845  19.392   7.907
  542ETHY    C1  458  25.924  18.964   8.040
  543ETHY    C1  459  26.099  18.494   8.222
  544ETHY    C1  460  26.353  18.082   8.428
  545ETHY    C1  461  26.673  17.733   8.652
  546ETHY    C1  462  27.054  17.458   8.893
  547ETHY    C1  463  27.489  17.262   9.147
  548AUSL   AUS  464  25.165  19.416   7.666
  549AUSL   AUS  465  25.052  19.673   8.013
  550AUL    AUL  466  25.014  19.295   7.993
  551THSLK    S  467  25.110  19.180   7.745
  552ETHY    C1  468  24.835  18.821   7.788
  553ETHY    C1  469  24.584  18.356   7.869
  554ETHY    C1  470  24.428  17.866   7.981
  555ETHY    C1  471  24.359  17.367   8.122
  556ETHY    C1  472  24.383  16.867   8.292
  557ETHY    C1  473  24.500  16.379   8.489
  558THSLK    S  474  24.874  19.507   8.129
  559ETHY    C1  475  24.572  19.189   8.248
  560ETHY    C1  476  24.253  18.822   8.471
  561ETHY    C1  477  23.988  18.485   8.776
  562ETHY    C1  478  23.776  18.183   9.147
  563ETHY    C1  479  23.623  17.925   9.582
  564ETHY    C1  480  23.532  17.718  10.072
  565AUSL   AUS  481  25.469  19.416   7.666
  566AUSL   AUS  482  25.165  19.416   7.339
  567AUL    AUL  483  25.317  19.108   7.503
  568THSLK    S  484  25.112  19.177   7.270
  569ETHY    C1  485  24.840  18.815   7.236
  570ETHY    C1  486  24.590  18.350   7.157
  571ETHY    C1  487  24.433  17.861   7.041
  572ETHY    C1  488  24.363  17.362   6.896
  573ETHY    C1  489  24.387  16.863   6.727
  574ETHY    C1  490  24.506  16.372   6.538
  575THSLK    S  491  25.423  19.164   7.749
  576ETHY    C1  492  25.276  18.738   7.811
  577ETHY    C1  493  25.190  18.220   7.906
  578ETHY    C1  494  25.202  17.707   8.025
  579ETHY    C1  495  25.304  17.212   8.165
  580ETHY    C1  496  25.496  16.747   8.325
  581ETHY    C1  497  25.774  16.321   8.504
  582AUSL   AUS  498  25.317  20.669   7.094
  583AUSL   AUS  499  25.733  20.600   7.238
  584AUL    AUL  500  25.620  20.884   7.012
  585THSLK    S  501  25.364  20.896   6.977
  586ETHY    C1  502  25.554  21.175   6.674
  587ETHY    C1  503  25.705  21.556   6.330
  588ETHY    C1  504  25.769  21.976   6.021
  589ETHY    C1  505  25.753  22.426   5.752
  590ETHY    C1  506  25.657  22.896   5.532
  591ETHY    C1  507  25.482  23.379   5.366
  592THSLK    S  508  25.921  20.716   7.089
  593ETHY    C1  509  26.308  20.836   6.883
  594ETHY    C1  510  26.726  21.059   6.637
  595ETHY    C1  511  27.084  21.363   6.400
  596ETHY    C1  512  27.379  21.735   6.178
  597ETHY    C1  513  27.604  22.170   5.981
  598ETHY    C1  514  27.755  22.659   5.811
  599AUSL   AUS  515  25.165  20.763   7.339
  600AUSL   AUS  516  25.052  20.506   6.992
  601AUL    AUL  517  25.014  20.884   7.012
  602THSLK    S  518  25.211  21.010   7.239
  603ETHY    C1  519  25.358  21.407   7.074
  604ETHY    C1  520  25.444  21.901   6.889
  605ETHY    C1  521  25.432  22.402   6.727
  606ETHY    C1  522  25.330  22.898   6.593
  607ETHY    C1  523  25.138  23.379   6.492
  608ETHY    C1  524  24.860  23.837   6.427
  609THSLK    S  525  24.942  20.638   6.805
  610ETHY    C1  526  24.906  20.787   6.377
  611ETHY    C1  527  24.796  21.013   5.906
  612ETHY    C1  528  24.618  21.288   5.494
  613ETHY    C1  529  24.384  21.601   5.145
  614ETHY    C1  530  24.098  21.950   4.870
  615ETHY    C1  531  23.767  22.328   4.675
  616AUSL   AUS  532  25.317  19.509   7.094
  617AUSL   AUS  533  24.901  19.579   7.238
  618AUL    AUL  534  25.014  19.295   7.012
  619THSLK    S  535  24.718  19.431   7.134
  620ETHY    C1  536  24.335  19.187   7.124
  621ETHY    C1  537  23.917  18.866   7.035
  622ETHY    C1  538  23.558  18.520   6.866
  623ETHY    C1  539  23.261  18.159   6.631
  624ETHY    C1  540  23.036  17.787   6.331
  625ETHY    C1  541  22.889  17.410   5.974
  626THSLK    S  542  25.275  19.254   7.024
  627ETHY    C1  543  25.091  18.853   6.917
  628ETHY    C1  544  24.941  18.375   6.732
  629ETHY    C1  545  24.875  17.912   6.491
  630ETHY    C1  546  24.888  17.472   6.206
  631ETHY    C1  547  24.985  17.065   5.885
  632ETHY    C1  548  25.165  16.697   5.533
  633AUSL   AUS  549  25.469  19.416   7.339
  634AUSL   AUS  550  25.582  19.673   6.992
  635AUL    AUL  551  25.620  19.295   7.012
  636THSLK    S  552  25.426  19.162   7.266
  637ETHY    C1  553  25.282  18.734   7.213
  638ETHY    C1  554  25.195  18.215   7.120
  639ETHY    C1  555  25.207  17.703   6.997
  640ETHY    C1  556  25.308  17.209   6.854
  641ETHY    C1  557  25.500  16.744   6.695
  642ETHY    C1  558  25.780  16.316   6.523
  643THSLK    S  559  25.699  19.483   6.859
  644ETHY    C1  560  25.743  19.081   6.651
  645ETHY    C1  561  25.853  18.650   6.355
  646ETHY    C1  562  26.029  18.287   6.017
  647ETHY    C1  563  26.260  17.993   5.651
  648ETHY    C1  564  26.546  17.776   5.264
  649ETHY    C1  565  26.883  17.640   4.865
  650AUC    AUC  566  33.818  16.695   7.503
  651AUC    AUC  567  34.063  16.695   7.351
  652AUC    AUC  568  34.063  16.695   7.654
  653AUC    AUC  569  33.573  16.695   7.351
  654AUC    AUC  570  33.573  16.695   7.654
  655AUC    AUC  571  33.666  16.941   7.503
  656AUC    AUC  572  33.970  16.941   7.503
  657AUC    AUC  573  33.666  16.450   7.503
  658AUC    AUC  574  33.970  16.450   7.503
  659AUC    AUC  575  33.818  16.544   7.748
  660AUC    AUC  576  33.818  16.847   7.748
  661AUC    AUC  577  33.818  16.544   7.257
  662AUC    AUC  578  33.818  16.847   7.257
  663AUC    AUC  579  34.309  16.695   7.199
  664AUC    AUC  580  34.309  16.695   7.503
  665AUC    AUC  581  34.309  16.695   7.806
  666AUC    AUC  582  33.327  16.695   7.199
  667AUC    AUC  583  33.327  16.695   7.503
  668AUC    AUC  584  33.327  16.695   7.806
  669AUC    AUC  585  33.515  17.186   7.503
  670AUC    AUC  586  33.818  17.186   7.503
  671AUC    AUC  587  34.121  17.186   7.503
  672AUC    AUC  588  33.515  16.205   7.503
  673AUC    AUC  589  33.818  16.205   7.503
  674AUC    AUC  590  34.121  16.205   7.503
  675AUC    AUC  591  33.818  16.392   7.993
  676AUC    AUC  592  33.818  16.695   7.993
  677AUC    AUC  593  33.818  16.999   7.993
  678AUC    AUC  594  33.818  16.392   7.012
  679AUC    AUC  595  33.818  16.695   7.012
  680AUC    AUC  596  33.818  16.999   7.012
  681AUC    AUC  597  34.063  16.544   7.900
  682AUC    AUC  598  34.063  16.847   7.900
  683AUC    AUC  599  34.063  16.544   7.106
  684AUC    AUC  600  34.063  16.847   7.106
  685AUC    AUC  601  33.573  16.544   7.900
  686AUC    AUC  602  33.573  16.847   7.900
  687AUC    AUC  603  33.573  16.544   7.106
  688AUC    AUC  604  33.573  16.847   7.106
  689AUC    AUC  605  34.215  16.941   7.351
  690AUC    AUC  606  34.215  16.941   7.654
  691AUC    AUC  607  33.421  16.941   7.351
  692AUC    AUC  608  33.421  16.941   7.654
  693AUC    AUC  609  34.215  16.450   7.351
  694AUC    AUC  610  34.215  16.450   7.654
  695AUC    AUC  611  33.421  16.450   7.351
  696AUC    AUC  612  33.421  16.450   7.654
  697AUC    AUC  613  33.666  17.093   7.748
  698AUC    AUC  614  33.970  17.093   7.748
  699AUC    AUC  615  33.666  16.298   7.748
  700AUC    AUC  616  33.970  16.298   7.748
  701AUC    AUC  617  33.666  17.093   7.257
  702AUC    AUC  618  33.970  17.093   7.257
  703AUC    AUC  619  33.666  16.298   7.257
  704AUC    AUC  620  33.970  16.298   7.257
  705AUSL   AUS  621  34.227  16.695   8.083
  706AUSL   AUS  622  34.083  16.279   8.013
  707AUL    AUL  623  34.309  16.392   8.297
  708THSLK    S  624  34.193  16.092   8.153
  709ETHY    C1  625  34.229  15.693   8.368
  710ETHY    C1  626  34.339  15.263   8.665
  711ETHY    C1  627  34.517  14.899   9.000
  712ETHY    C1  628  34.751  14.603   9.364
  713ETHY    C1  629  35.037  14.386   9.752
  714ETHY    C1  630  35.368  14.253  10.156
  715THSLK    S  631  34.320  16.643   8.324
  716ETHY    C1  632  34.524  16.423   8.665
  717ETHY    C1  633  34.788  16.246   9.094
  718ETHY    C1  634  35.064  16.170   9.535
  719ETHY    C1  635  35.341  16.187   9.980
  720ETHY    C1  636  35.611  16.300  10.419
  721ETHY    C1  637  35.870  16.509  10.845
  722AUSL   AUS  638  33.982  16.544   8.176
  723AUSL   AUS  639  33.654  16.847   8.176
  724AUL    AUL  640  33.818  16.695   8.484
  725THSLK    S  641  34.057  16.489   8.413
  726ETHY    C1  642  34.121  16.209   8.765
  727ETHY    C1  643  34.224  15.954   9.223
  728ETHY    C1  644  34.351  15.795   9.708
  729ETHY    C1  645  34.493  15.726  10.208
  730ETHY    C1  646  34.647  15.754  10.713
  731ETHY    C1  647  34.807  15.878  11.212
  732THSLK    S  648  33.569  16.801   8.428
  733ETHY    C1  649  33.495  16.651   8.850
  734ETHY    C1  650  33.390  16.563   9.367
  735ETHY    C1  651  33.268  16.575   9.878
  736ETHY    C1  652  33.130  16.676  10.373
  737ETHY    C1  653  32.975  16.869  10.840
  738ETHY    C1  654  32.806  17.150  11.268
  739AUSL   AUS  655  33.982  16.847   8.176
  740AUSL   AUS  656  34.328  16.960   7.919
  741AUL    AUL  657  34.309  16.999   8.297
  742THSLK    S  658  34.067  16.903   8.410
  743ETHY    C1  659  34.141  17.184   8.759
  744ETHY    C1  660  34.246  17.439   9.217
  745ETHY    C1  661  34.368  17.598   9.703
  746ETHY    C1  662  34.507  17.667  10.204
  747ETHY    C1  663  34.661  17.640  10.708
  748ETHY    C1  664  34.830  17.516  11.206
  749THSLK    S  665  34.500  17.058   8.080
  750ETHY    C1  666  34.863  17.029   8.350
  751ETHY    C1  667  35.285  17.085   8.673
  752ETHY    C1  668  35.677  17.239   8.989
  753ETHY    C1  669  36.031  17.477   9.293
  754ETHY    C1  670  36.338  17.798   9.580
  755ETHY    C1  671  36.589  18.195   9.844
  756AUSL   AUS  672  34.227  16.695   6.923
  757AUSL   AUS  673  34.083  17.112   6.992
  758AUL    AUL  674  34.309  16.999   6.708
  759THSLK    S  675  34.329  16.643   6.687
  760ETHY    C1  676  34.542  16.423   6.351
  761ETHY    C1  677  34.807  16.246   5.923
  762ETHY    C1  678  35.079  16.170   5.479
  763ETHY    C1  679  35.353  16.187   5.033
  764ETHY    C1  680  35.624  16.300   4.594
  765ETHY    C1  681  35.889  16.509   4.173
  766THSLK    S  682  34.261  17.223   6.829
  767ETHY    C1  683  34.563  17.291   6.497
  768ETHY    C1  684  34.882  17.454   6.100
  769ETHY    C1  685  35.147  17.701   5.719
  770ETHY    C1  686  35.359  18.021   5.362
  771ETHY    C1  687  35.512  18.411   5.039
  772ETHY    C1  688  35.603  18.863   4.759
  773AUSL   AUS  689  33.982  16.544   6.829
  774AUSL   AUS  690  34.328  16.431   7.086
  775AUL    AUL  691  34.309  16.392   6.708
  776THSLK    S  692  34.461  16.239   6.949
  777ETHY    C1  693  34.644  15.872   6.752
  778ETHY    C1  694  34.916  15.500   6.483
  779ETHY    C1  695  35.241  15.211   6.186
  780ETHY    C1  696  35.607  15.004   5.874
  781ETHY    C1  697  36.011  14.885   5.555
  782ETHY    C1  698  36.444  14.860   5.235
  783THSLK    S  699  34.067  16.488   6.596
  784ETHY    C1  700  34.141  16.207   6.246
  785ETHY    C1  701  34.246  15.951   5.788
  786ETHY    C1  702  34.368  15.793   5.302
  787ETHY    C1  703  34.507  15.724   4.801
  788ETHY    C1  704  34.661  15.751   4.297
  789ETHY    C1  705  34.830  15.875   3.799
  790AUSL   AUS  706  33.982  16.847   6.829
  791AUSL   AUS  707  33.654  16.544   6.829
  792AUL    AUL  708  33.818  16.695   6.521
  793THSLK    S  709  33.562  16.488   6.597
  794ETHY    C1  710  33.427  16.210   6.264
  795ETHY    C1  711  33.266  15.957   5.822
  796ETHY    C1  712  33.114  15.800   5.343
  797ETHY    C1  713  32.978  15.731   4.842
  798ETHY    C1  714  32.861  15.757   4.328
  799ETHY    C1  715  32.768  15.876   3.810
  800THSLK    S  716  34.084  16.801   6.583
  801ETHY    C1  717  34.230  16.651   6.179
  802ETHY    C1  718  34.392  16.560   5.678
  803ETHY    C1  719  34.539  16.570   5.173
  804ETHY    C1  720  34.672  16.671   4.677
  805ETHY    C1  721  34.789  16.866   4.200
  806ETHY    C1  722  34.890  17.152   3.754
  807AUSL   AUS  723  33.409  16.695   8.083
  808AUSL   AUS  724  33.553  17.112   8.013
  809AUL    AUL  725  33.327  16.999   8.297
  810THSLK    S  726  33.307  16.643   8.319
  811ETHY    C1  727  33.095  16.423   8.654
  812ETHY    C1  728  32.829  16.246   9.082
  813ETHY    C1  729  32.557  16.170   9.526
  814ETHY    C1  730  32.283  16.187   9.973
  815ETHY    C1  731  32.012  16.300  10.411
  816ETHY    C1  732  31.747  16.509  10.832
  817THSLK    S  733  33.436  17.236   8.202
  818ETHY    C1  734  33.393  17.379   8.632
  819ETHY    C1  735  33.282  17.604   9.104
  820ETHY    C1  736  33.106  17.881   9.515
  821ETHY    C1  737  32.875  18.197   9.863
  822ETHY    C1  738  32.589  18.545  10.138
  823ETHY    C1  739  32.252  18.918  10.334
  824AUSL   AUS  740  33.654  16.544   8.176
  825AUSL   AUS  741  33.308  16.431   7.919
  826AUL    AUL  742  33.327  16.392   8.297
  827THSLK    S  743  33.131  16.268   8.026
  828ETHY    C1  744  32.760  16.011   8.082
  829ETHY    C1  745  32.338  15.723   8.237
  830ETHY    C1  746  31.948  15.468   8.482
  831ETHY    C1  747  31.596  15.251   8.803
  832ETHY    C1  748  31.290  15.080   9.198
  833ETHY    C1  749  31.033  14.959   9.657
  834THSLK    S  750  33.552  16.490   8.406
  835ETHY    C1  751  33.406  16.214   8.736
  836ETHY    C1  752  33.244  15.962   9.178
  837ETHY    C1  753  33.097  15.804   9.658
  838ETHY    C1  754  32.964  15.734  10.160
  839ETHY    C1  755  32.847  15.760  10.674
  840ETHY    C1  756  32.746  15.881  11.190
  841AUSL   AUS  757  33.409  16.695   6.923
  842AUSL   AUS  758  33.553  16.279   6.992
  843AUL    AUL  759  33.327  16.392   6.708
  844THSLK    S  760  33.316  16.643   6.681
  845ETHY    C1  761  33.112  16.423   6.341
  846ETHY    C1  762  32.848  16.246   5.911
  847ETHY    C1  763  32.572  16.170   5.470
  848ETHY    C1  764  32.295  16.187   5.025
  849ETHY    C1  765  32.025  16.300   4.586
  850ETHY    C1  766  31.766  16.509   4.161
  851THSLK    S  767  33.382  16.106   6.878
  852ETHY    C1  768  33.087  15.780   6.760
  853ETHY    C1  769  32.769  15.413   6.538
  854ETHY    C1  770  32.501  15.078   6.233
  855ETHY    C1  771  32.287  14.778   5.861
  856ETHY    C1  772  32.135  14.520   5.426
  857ETHY    C1  773  32.049  14.308   4.937
  858AUSL   AUS  774  33.654  16.847   6.829
  859AUSL   AUS  775  33.308  16.960   7.086
  860AUL    AUL  776  33.327  16.999   6.708
  861THSLK    S  777  33.181  17.087   6.895
  862ETHY    C1  778  33.004  17.168   6.484
  863ETHY    C1  779  32.733  17.308   6.046
  864ETHY    C1  780  32.406  17.496   5.679
  865ETHY    C1  781  32.037  17.725   5.385
  866ETHY    C1  782  31.635  17.992   5.173
  867ETHY    C1  783  31.206  18.294   5.047
  868THSLK    S  784  33.579  16.803   6.576
  869ETHY    C1  785  33.515  16.656   6.150
  870ETHY    C1  786  33.412  16.567   5.634
  871ETHY    C1  787  33.285  16.578   5.123
  872ETHY    C1  788  33.143  16.679   4.629
  873ETHY    C1  789  32.990  16.872   4.162
  874ETHY    C1  790  32.829  17.155   3.732
  875AUSL   AUS  791  34.398  17.104   7.503
  876AUSL   AUS  792  34.328  16.960   7.086
  877AUL    AUL  793  34.612  17.186   7.199
  878THSLK    S  794  34.506  17.059   6.934
  879ETHY    C1  795  34.876  17.032   6.671
  880ETHY    C1  796  35.298  17.088   6.349
  881ETHY    C1  797  35.688  17.242   6.030
  882ETHY    C1  798  36.040  17.479   5.724
  883ETHY    C1  799  36.347  17.800   5.438
  884ETHY    C1  800  36.603  18.199   5.179
  885THSLK    S  801  34.664  17.157   7.508
  886ETHY    C1  802  35.118  17.179   7.513
  887ETHY    C1  803  35.640  17.293   7.514
  888ETHY    C1  804  36.123  17.502   7.511
  889ETHY    C1  805  36.559  17.792   7.510
  890ETHY    C1  806  36.938  18.159   7.510
  891ETHY    C1  807  37.252  18.599   7.514
  892AUSL   AUS  808  34.492  16.859   7.351
  893AUSL   AUS  809  34.492  16.532   7.654
  894AUL    AUL  810  34.800  16.695   7.503
  895THSLK    S  811  34.748  16.898   7.350
  896ETHY    C1  812  35.184  16.790   7.286
  897ETHY    C1  813  35.710  16.752   7.201
  898ETHY    C1  814  36.225  16.816   7.113
  899ETHY    C1  815  36.719  16.970   7.026
  900ETHY    C1  816  37.179  17.215   6.945
  901ETHY    C1  817  37.598  17.547   6.873
  902THSLK    S  818  34.719  16.392   7.663
  903ETHY    C1  819  35.038  16.076   7.728
  904ETHY    C1  820  35.471  15.772   7.807
  905ETHY    C1  821  35.946  15.562   7.887
  906ETHY    C1  822  36.449  15.441   7.971
  907ETHY    C1  823  36.969  15.415   8.058
  908ETHY    C1  824  37.497  15.485   8.147
  909AUSL   AUS  825  34.492  16.859   7.654
  910AUSL   AUS  826  34.234  17.206   7.767
  911AUL    AUL  827  34.612  17.186   7.806
  912THSLK    S  828  34.417  17.320   7.926
  913ETHY    C1  829  34.800  17.438   8.140
  914ETHY    C1  830  35.218  17.661   8.388
  915ETHY    C1  831  35.577  17.966   8.622
  916ETHY    C1  832  35.874  18.339   8.840
  917ETHY    C1  833  36.099  18.773   9.038
  918ETHY    C1  834  36.246  19.261   9.215
  919THSLK    S  835  34.746  16.898   7.665
  920ETHY    C1  836  35.181  16.790   7.740
  921ETHY    C1  837  35.707  16.752   7.826
  922ETHY    C1  838  36.222  16.815   7.910
  923ETHY    C1  839  36.716  16.969   7.993
  924ETHY    C1  840  37.177  17.214   8.075
  925ETHY    C1  841  37.594  17.546   8.155
  926AUSL   AUS  842  33.238  17.104   7.503
  927AUSL   AUS  843  33.308  16.960   7.919
  928AUL    AUL  844  33.024  17.186   7.806
  929THSLK    S  845  33.175  17.079   8.109
  930ETHY    C1  846  32.992  17.151   8.519
  931ETHY    C1  847  32.720  17.291   8.957
  932ETHY    C1  848  32.395  17.482   9.324
  933ETHY    C1  849  32.029  17.713   9.619
  934ETHY    C1  850  31.626  17.980   9.831
  935ETHY    C1  851  31.192  18.276   9.956
  936THSLK    S  852  33.027  17.245   7.508
  937ETHY    C1  853  32.805  17.642   7.513
  938ETHY    C1  854  32.469  18.057   7.514
  939ETHY    C1  855  32.066  18.396   7.511
  940ETHY    C1  856  31.612  18.657   7.510
  941ETHY    C1  857  31.113  18.831   7.510
  942ETHY    C1  858  30.580  18.915   7.514
  943AUSL   AUS  859  33.144  16.859   7.351
  944AUSL   AUS  860  33.402  17.206   7.238
  945AUL    AUL  861  33.024  17.186   7.199
  946THSLK    S  862  32.917  16.974   7.303
  947ETHY    C1  863  32.598  17.174   7.049
  948ETHY    C1  864  32.165  17.380   6.813
  949ETHY    C1  865  31.690  17.546   6.661
  950ETHY    C1  866  31.187  17.675   6.590
  951ETHY    C1  867  30.667  17.765   6.605
  952ETHY    C1  868  30.139  17.813   6.708
  953THSLK    S  869  33.290  17.369   7.060
  954ETHY    C1  870  33.211  17.679   6.737
  955ETHY    C1  871  33.036  18.053   6.397
  956ETHY    C1  872  32.782  18.421   6.120
  957ETHY    C1  873  32.462  18.778   5.909
  958ETHY    C1  874  32.081  19.116   5.770
  959ETHY    C1  875  31.646  19.430   5.709
  960AUSL   AUS  876  33.144  16.859   7.654
  961AUSL   AUS  877  33.144  16.532   7.351
  962AUL    AUL  878  32.836  16.695   7.503
  963THSLK    S  879  32.890  16.459   7.394
  964ETHY    C1  880  32.455  16.441   7.524
  965ETHY    C1  881  31.929  16.381   7.597
  966ETHY    C1  882  31.414  16.277   7.578
  967ETHY    C1  883  30.920  16.134   7.477
  968ETHY    C1  884  30.460  15.951   7.294
  969ETHY    C1  885  30.042  15.731   7.034
  970THSLK    S  886  32.916  16.965   7.707
  971ETHY    C1  887  32.595  17.156   7.966
  972ETHY    C1  888  32.162  17.360   8.202
  973ETHY    C1  889  31.687  17.531   8.352
  974ETHY    C1  890  31.185  17.663   8.422
  975ETHY    C1  891  30.665  17.751   8.407
  976ETHY    C1  892  30.136  17.792   8.308
  977AUSL   AUS  893  34.398  16.286   7.503
  978AUSL   AUS  894  34.328  16.431   7.919
  979AUL    AUL  895  34.612  16.205   7.806
  980THSLK    S  896  34.609  16.145   7.508
  981ETHY    C1  897  34.831  15.749   7.513
  982ETHY    C1  898  35.167  15.334   7.514
  983ETHY    C1  899  35.570  14.995   7.511
  984ETHY    C1  900  36.024  14.734   7.510
  985ETHY    C1  901  36.523  14.560   7.510
  986ETHY    C1  902  37.056  14.476   7.514
  987THSLK    S  903  34.455  16.240   8.064
  988ETHY    C1  904  34.632  15.875   8.270
  989ETHY    C1  905  34.903  15.503   8.540
  990ETHY    C1  906  35.230  15.214   8.834
  991ETHY    C1  907  35.599  15.006   9.142
  992ETHY    C1  908  36.001  14.888   9.462
  993ETHY    C1  909  36.430  14.863   9.789
  994AUSL   AUS  910  34.492  16.532   7.351
  995AUSL   AUS  911  34.234  16.185   7.238
  996AUL    AUL  912  34.612  16.205   7.199
  997THSLK    S  913  34.720  16.392   7.353
  998ETHY    C1  914  35.041  16.075   7.298
  999ETHY    C1  915  35.474  15.772   7.221
 1000ETHY    C1  916  35.949  15.562   7.136
 1001ETHY    C1  917  36.451  15.441   7.048
 1002ETHY    C1  918  36.971  15.414   6.963
 1003ETHY    C1  919  37.500  15.485   6.881
 1004THSLK    S  920  34.350  15.996   7.108
 1005ETHY    C1  921  34.434  15.567   6.984
 1006ETHY    C1  922  34.609  15.095   6.803
 1007ETHY    C1  923  34.862  14.684   6.593
 1008ETHY    C1  924  35.180  14.336   6.366
 1009ETHY    C1  925  35.562  14.061   6.126
 1010ETHY    C1  926  36.000  13.864   5.880
 1011AUSL   AUS  927  33.238  16.286   7.503
 1012AUSL   AUS  928  33.308  16.431   7.086
 1013AUL    AUL  929  33.024  16.205   7.199
 1014THSLK    S  930  33.137  16.260   6.978
 1015ETHY    C1  931  32.773  15.995   6.921
 1016ETHY    C1  932  32.351  15.705   6.766
 1017ETHY    C1  933  31.959  15.453   6.521
 1018ETHY    C1  934  31.605  15.240   6.200
 1019ETHY    C1  935  31.298  15.067   5.806
 1020ETHY    C1  936  31.047  14.940   5.346
 1021THSLK    S  937  32.972  16.234   7.508
 1022ETHY    C1  938  32.518  16.212   7.513
 1023ETHY    C1  939  31.996  16.098   7.514
 1024ETHY    C1  940  31.514  15.889   7.511
 1025ETHY    C1  941  31.077  15.599   7.510
 1026ETHY    C1  942  30.698  15.232   7.510
 1027ETHY    C1  943  30.385  14.792   7.514
 1028AUSL   AUS  944  33.144  16.532   7.654
 1029AUSL   AUS  945  33.402  16.185   7.767
 1030AUL    AUL  946  33.024  16.205   7.806
 1031THSLK    S  947  33.214  16.045   7.878
 1032ETHY    C1  948  32.827  15.808   7.893
 1033ETHY    C1  949  32.409  15.488   7.982
 1034ETHY    C1  950  32.051  15.139   8.149
 1035ETHY    C1  951  31.756  14.775   8.382
 1036ETHY    C1  952  31.531  14.404   8.683
 1037ETHY    C1  953  31.380  14.033   9.045
 1038THSLK    S  954  32.888  16.469   7.616
 1039ETHY    C1  955  32.452  16.459   7.491
 1040ETHY    C1  956  31.926  16.400   7.419
 1041ETHY    C1  957  31.411  16.293   7.436
 1042ETHY    C1  958  30.917  16.147   7.535
 1043ETHY    C1  959  30.457  15.965   7.718
 1044ETHY    C1  960  30.038  15.752   7.983
 1045AUSL   AUS  961  33.818  17.275   7.912
 1046AUSL   AUS  962  33.402  17.206   7.767
 1047AUL    AUL  963  33.515  17.490   7.993
 1048THSLK    S  964  33.286  17.362   7.952
 1049ETHY    C1  965  33.202  17.664   8.280
 1050ETHY    C1  966  33.027  18.037   8.621
 1051ETHY    C1  967  32.774  18.408   8.895
 1052ETHY    C1  968  32.456  18.767   9.105
 1053ETHY    C1  969  32.074  19.105   9.244
 1054ETHY    C1  970  31.636  19.413   9.309
 1055THSLK    S  971  33.860  17.497   8.035
 1056ETHY    C1  972  34.044  17.772   8.347
 1057ETHY    C1  973  34.194  18.152   8.691
 1058ETHY    C1  974  34.260  18.575   8.998
 1059ETHY    C1  975  34.247  19.026   9.264
 1060ETHY    C1  976  34.150  19.495   9.485
 1061ETHY    C1  977  33.970  19.974   9.656
 1062AUSL   AUS  978  33.666  17.369   7.666
 1063AUSL   AUS  979  33.970  17.369   7.339
 1064AUL    AUL  980  33.818  17.677   7.503
 1065THSLK    S  981  33.709  17.613   7.776
 1066ETHY    C1  982  33.853  18.007   7.951
 1067ETHY    C1  983  33.940  18.501   8.137
 1068ETHY    C1  984  33.928  19.002   8.294
 1069ETHY    C1  985  33.827  19.500   8.425
 1070ETHY    C1  986  33.635  19.981   8.527
 1071ETHY    C1  987  33.355  20.436   8.600
 1072THSLK    S  988  34.025  17.600   7.243
 1073ETHY    C1  989  34.301  17.930   7.096
 1074ETHY    C1  990  34.551  18.371   6.927
 1075ETHY    C1  991  34.707  18.848   6.771
 1076ETHY    C1  992  34.776  19.350   6.635
 1077ETHY    C1  993  34.752  19.866   6.525
 1078ETHY    C1  994  34.635  20.386   6.443
 1079AUSL   AUS  995  33.970  17.369   7.666
 1080AUSL   AUS  996  34.083  17.112   8.013
 1081AUL    AUL  997  34.121  17.490   7.993
 1082THSLK    S  998  34.254  17.220   8.183
 1083ETHY    C1  999  34.549  17.285   8.523
 1084ETHY    C1 1000  34.867  17.447   8.920
 1085ETHY    C1 1001  35.135  17.696   9.298
 1086ETHY    C1 1002  35.349  18.018   9.653
 1087ETHY    C1 1003  35.501  18.406   9.976
 1088ETHY    C1 1004  35.587  18.856  10.262
 1089THSLK    S 1005  34.023  17.598   7.772
 1090ETHY    C1 1006  34.295  17.926   7.929
 1091ETHY    C1 1007  34.545  18.366   8.100
 1092ETHY    C1 1008  34.703  18.845   8.251
 1093ETHY    C1 1009  34.772  19.347   8.383
 1094ETHY    C1 1010  34.748  19.862   8.494
 1095ETHY    C1 1011  34.629  20.381   8.585
 1096AUSL   AUS 1012  33.818  16.115   7.912
 1097AUSL   AUS 1013  34.234  16.185   7.767
 1098AUL    AUL 1014  34.121  15.901   7.993
 1099THSLK    S 1015  33.771  15.865   7.989
 1100ETHY    C1 1016  33.581  15.469   8.103
 1101ETHY    C1 1017  33.430  14.991   8.289
 1102ETHY    C1 1018  33.367  14.526   8.528
 1103ETHY    C1 1019  33.382  14.084   8.809
 1104ETHY    C1 1020  33.478  13.677   9.132
 1105ETHY    C1 1021  33.653  13.314   9.489
 1106THSLK    S 1022  34.346  15.998   7.907
 1107ETHY    C1 1023  34.425  15.570   8.040
 1108ETHY    C1 1024  34.600  15.100   8.222
 1109ETHY    C1 1025  34.854  14.688   8.428
 1110ETHY    C1 1026  35.174  14.339   8.652
 1111ETHY    C1 1027  35.555  14.064   8.893
 1112ETHY    C1 1028  35.990  13.868   9.147
 1113AUSL   AUS 1029  33.666  16.022   7.666
 1114AUSL   AUS 1030  33.553  16.279   8.013
 1115AUL    AUL 1031  33.515  15.901   7.993
 1116THSLK    S 1032  33.611  15.786   7.745
 1117ETHY    C1 1033  33.336  15.427   7.788
 1118ETHY    C1 1034  33.085  14.962   7.869
 1119ETHY    C1 1035  32.929  14.472   7.981
 1120ETHY    C1 1036  32.860  13.973   8.122
 1121ETHY    C1 1037  32.884  13.473   8.292
 1122ETHY    C1 1038  33.001  12.985   8.489
 1123THSLK    S 1039  33.375  16.113   8.129
 1124ETHY    C1 1040  33.073  15.795   8.248
 1125ETHY    C1 1041  32.754  15.428   8.471
 1126ETHY    C1 1042  32.489  15.091   8.776
 1127ETHY    C1 1043  32.277  14.789   9.147
 1128ETHY    C1 1044  32.124  14.531   9.582
 1129ETHY    C1 1045  32.033  14.324  10.072
 1130AUSL   AUS 1046  33.970  16.022   7.666
 1131AUSL   AUS 1047  33.666  16.022   7.339
 1132AUL    AUL 1048  33.818  15.714   7.503
 1133THSLK    S 1049  33.613  15.783   7.270
 1134ETHY    C1 1050  33.341  15.421   7.236
 1135ETHY    C1 1051  33.091  14.956   7.157
 1136ETHY    C1 1052  32.934  14.467   7.041
 1137ETHY    C1 1053  32.864  13.968   6.896
 1138ETHY    C1 1054  32.888  13.469   6.727
 1139ETHY    C1 1055  33.007  12.978   6.538
 1140THSLK    S 1056  33.924  15.770   7.749
 1141ETHY    C1 1057  33.777  15.344   7.811
 1142ETHY    C1 1058  33.691  14.826   7.906
 1143ETHY    C1 1059  33.703  14.313   8.025
 1144ETHY    C1 1060  33.805  13.818   8.165
 1145ETHY    C1 1061  33.997  13.353   8.325
 1146ETHY    C1 1062  34.275  12.927   8.504
 1147AUSL   AUS 1063  33.818  17.275   7.094
 1148AUSL   AUS 1064  34.234  17.206   7.238
 1149AUL    AUL 1065  34.121  17.490   7.012
 1150THSLK    S 1066  33.865  17.502   6.977
 1151ETHY    C1 1067  34.055  17.781   6.674
 1152ETHY    C1 1068  34.206  18.162   6.330
 1153ETHY    C1 1069  34.270  18.582   6.021
 1154ETHY    C1 1070  34.254  19.032   5.752
 1155ETHY    C1 1071  34.158  19.502   5.532
 1156ETHY    C1 1072  33.983  19.985   5.366
 1157THSLK    S 1073  34.422  17.322   7.089
 1158ETHY    C1 1074  34.809  17.442   6.883
 1159ETHY    C1 1075  35.227  17.665   6.637
 1160ETHY    C1 1076  35.585  17.969   6.400
 1161ETHY    C1 1077  35.880  18.341   6.178
 1162ETHY    C1 1078  36.105  18.776   5.981
 1163ETHY    C1 1079  36.256  19.265   5.811
 1164AUSL   AUS 1080  33.666  17.369   7.339
 1165AUSL   AUS 1081  33.553  17.112   6.992
 1166AUL    AUL 1082  33.515  17.490   7.012
 1167THSLK    S 1083  33.712  17.616   7.239
 1168ETHY    C1 1084  33.859  18.013   7.074
 1169ETHY    C1 1085  33.945  18.507   6.889
 1170ETHY    C1 1086  33.933  19.008   6.727
 1171ETHY    C1 1087  33.831  19.504   6.593
 1172ETHY    C1 1088  33.639  19.985   6.492
 1173ETHY    C1 1089  33.361  20.443   6.427
 1174THSLK    S 1090  33.443  17.244   6.805
 1175ETHY    C1 1091  33.407  17.393   6.377
 1176ETHY    C1 1092  33.297  17.619   5.906
 1177ETHY    C1 1093  33.119  17.894   5.494
 1178ETHY    C1 1094  32.885  18.207   5.145
 1179ETHY    C1 1095  32.599  18.556   4.870
 1180ETHY    C1 1096  32.268  18.934   4.675
 1181AUSL   AUS 1097  33.818  16.115   7.094
 1182AUSL   AUS 1098  33.402  16.185   7.238
 1183AUL    AUL 1099  33.515  15.901   7.012
 1184THSLK    S 1100  33.219  16.037   7.134
 1185ETHY    C1 1101  32.836  15.793   7.124
 1186ETHY    C1 1102  32.418  15.472   7.035
 1187ETHY    C1 1103  32.059  15.126   6.866
 1188ETHY    C1 1104  31.762  14.765   6.631
 1189ETHY    C1 1105  31.537  14.393   6.331
 1190ETHY    C1 1106  31.390  14.016   5.974
 1191THSLK    S 1107  33.776  15.860   7.024
 1192ETHY    C1 1108  33.592  15.459   6.917
 1193ETHY    C1 1109  33.442  14.981   6.732
 1194ETHY    C1 1110  33.376  14.518   6.491
 1195ETHY    C1 1111  33.389  14.078   6.206
 1196ETHY    C1 1112  33.486  13.671   5.885
 1197ETHY    C1 1113  33.666  13.303   5.533
 1198AUSL   AUS 1114  33.970  16.022   7.339
 1199AUSL   AUS 1115  34.083  16.279   6.992
 1200AUL    AUL 1116  34.121  15.901   7.012
 1201THSLK    S 1117  33.927  15.768   7.266
 1202ETHY    C1 1118  33.783  15.340   7.213
 1203ETHY    C1 1119  33.696  14.821   7.120
 1204ETHY    C1 1120  33.708  14.309   6.997
 1205ETHY    C1 1121  33.809  13.815   6.854
 1206ETHY    C1 1122  34.001  13.350   6.695
 1207ETHY    C1 1123  34.281  12.922   6.523
 1208THSLK    S 1124  34.200  16.089   6.859
 1209ETHY    C1 1125  34.244  15.687   6.651
 1210ETHY    C1 1126  34.354  15.256   6.355
 1211ETHY    C1 1127  34.530  14.893   6.017
 1212ETHY    C1 1128  34.761  14.599   5.651
 1213ETHY    C1 1129  35.047  14.382   5.264
 1214ETHY    C1 1130  35.384  14.246   4.865
 1215AUC    AUC 1131  11.323  16.448   7.503
 1216AUC    AUC 1132  11.568  16.448   7.351
 1217AUC    AUC 1133  11.568  16.448   7.654
 1218AUC    AUC 1134  11.078  16.448   7.351
 1219AUC    AUC 1135  11.078  16.448   7.654
 1220AUC    AUC 1136  11.171  16.694   7.503
 1221AUC    AUC 1137  11.475  16.694   7.503
 1222AUC    AUC 1138  11.171  16.203   7.503
 1223AUC    AUC 1139  11.475  16.203   7.503
 1224AUC    AUC 1140  11.323  16.297   7.748
 1225AUC    AUC 1141  11.323  16.600   7.748
 1226AUC    AUC 1142  11.323  16.297   7.257
 1227AUC    AUC 1143  11.323  16.600   7.257
 1228AUC    AUC 1144  11.814  16.448   7.199
 1229AUC    AUC 1145  11.814  16.448   7.503
 1230AUC    AUC 1146  11.814  16.448   7.806
 1231AUC    AUC 1147  10.832  16.448   7.199
 1232AUC    AUC 1148  10.832  16.448   7.503
 1233AUC    AUC 1149  10.832  16.448   7.806
 1234AUC    AUC 1150  11.020  16.939   7.503
 1235AUC    AUC 1151  11.323  16.939   7.503
 1236AUC    AUC 1152  11.626  16.939   7.503
 1237AUC    AUC 1153  11.020  15.958   7.503
 1238AUC    AUC 1154  11.323  15.958   7.503
 1239AUC    AUC 1155  11.626  15.958   7.503
 1240AUC    AUC 1156  11.323  16.145   7.993
 1241AUC    AUC 1157  11.323  16.448   7.993
 1242AUC    AUC 1158  11.323  16.752   7.993
 1243AUC    AUC 1159  11.323  16.145   7.012
 1244AUC    AUC 1160  11.323  16.448   7.012
 1245AUC    AUC 1161  11.323  16.752   7.012
 1246AUC    AUC 1162  11.568  16.297   7.900
 1247AUC    AUC 1163  11.568  16.600   7.900
 1248AUC    AUC 1164  11.568  16.297   7.106
 1249AUC    AUC 1165  11.568  16.600   7.106
 1250AUC    AUC 1166  11.078  16.297   7.900
 1251AUC    AUC 1167  11.078  16.600   7.900
 1252AUC    AUC 1168  11.078  16.297   7.106
 1253AUC    AUC 1169  11.078  16.600   7.106
 1254AUC    AUC 1170  11.720  16.694   7.351
 1255AUC    AUC 1171  11.720  16.694   7.654
 1256AUC    AUC 1172  10.926  16.694   7.351
 1257AUC    AUC 1173  10.926  16.694   7.654
 1258AUC    AUC 1174  11.720  16.203   7.351
 1259AUC    AUC 1175  11.720  16.203   7.654
 1260AUC    AUC 1176  10.926  16.203   7.351
 1261AUC    AUC 1177  10.926  16.203   7.654
 1262AUC    AUC 1178  11.171  16.846   7.748
 1263AUC    AUC 1179  11.475  16.846   7.748
 1264AUC    AUC 1180  11.171  16.051   7.748
 1265AUC    AUC 1181  11.475  16.051   7.748
 1266AUC    AUC 1182  11.171  16.846   7.257
 1267AUC    AUC 1183  11.475  16.846   7.257
 1268AUC    AUC 1184  11.171  16.051   7.257
 1269AUC    AUC 1185  11.475  16.051   7.257
 1270AUSL   AUS 1186  11.732  16.448   8.083
 1271AUSL   AUS 1187  11.588  16.032   8.013
 1272AUL    AUL 1188  11.814  16.145   8.297
 1273THSLK    S 1189  11.698  15.845   8.153
 1274ETHY    C1 1190  11.734  15.446   8.368
 1275ETHY    C1 1191  11.844  15.016   8.665
 1276ETHY    C1 1192  12.022  14.652   9.000
 1277ETHY    C1 1193  12.256  14.356   9.364
 1278ETHY    C1 1194  12.542  14.139   9.752
 1279ETHY    C1 1195  12.873  14.006  10.156
 1280THSLK    S 1196  11.825  16.396   8.324
 1281ETHY    C1 1197  12.029  16.176   8.665
 1282ETHY    C1 1198  12.293  15.999   9.094
 1283ETHY    C1 1199  12.569  15.923   9.535
 1284ETHY    C1 1200  12.846  15.940   9.980
 1285ETHY    C1 1201  13.116  16.053  10.419
 1286ETHY    C1 1202  13.375  16.262  10.845
 1287AUSL   AUS 1203  11.487  16.297   8.176
 1288AUSL   AUS 1204  11.159  16.600   8.176
 1289AUL    AUL 1205  11.323  16.448   8.484
 1290THSLK    S 1206  11.562  16.242   8.413
 1291ETHY    C1 1207  11.626  15.962   8.765
 1292ETHY    C1 1208  11.729  15.707   9.223
 1293ETHY    C1 1209  11.856  15.548   9.708
 1294ETHY    C1 1210  11.998  15.479  10.208
 1295ETHY    C1 1211  12.152  15.507  10.713
 1296ETHY    C1 1212  12.312  15.631  11.212
 1297THSLK    S 1213  11.074  16.554   8.428
 1298ETHY    C1 1214  11.000  16.404   8.850
 1299ETHY    C1 1215  10.895  16.316   9.367
 1300ETHY    C1 1216  10.773  16.328   9.878
 1301ETHY    C1 1217  10.635  16.429  10.373
 1302ETHY    C1 1218  10.480  16.622  10.840
 1303ETHY    C1 1219  10.311  16.903  11.268
 1304AUSL   AUS 1220  11.487  16.600   8.176
 1305AUSL   AUS 1221  11.833  16.713   7.919
 1306AUL    AUL 1222  11.814  16.752   8.297
 1307THSLK    S 1223  11.572  16.656   8.410
 1308ETHY    C1 1224  11.646  16.937   8.759
 1309ETHY    C1 1225  11.751  17.192   9.217
 1310ETHY    C1 1226  11.873  17.351   9.703
 1311ETHY    C1 1227  12.012  17.420  10.204
 1312ETHY    C1 1228  12.166  17.393  10.708
 1313ETHY    C1 1229  12.335  17.269  11.206
 1314THSLK    S 1230  12.005  16.811   8.080
 1315ETHY    C1 1231  12.368  16.782   8.350
 1316ETHY    C1 1232  12.790  16.838   8.673
 1317ETHY    C1 1233  13.182  16.992   8.989
 1318ETHY    C1 1234  13.536  17.230   9.293
 1319ETHY    C1 1235  13.843  17.551   9.580
 1320ETHY    C1 1236  14.094  17.948   9.844
 1321AUSL   AUS 1237  11.732  16.448   6.923
 1322AUSL   AUS 1238  11.588  16.865   6.992
 1323AUL    AUL 1239  11.814  16.752   6.708
 1324THSLK    S 1240  11.834  16.396   6.687
 1325ETHY    C1 1241  12.047  16.176   6.351
 1326ETHY    C1 1242  12.312  15.999   5.923
 1327ETHY    C1 1243  12.584  15.923   5.479
 1328ETHY    C1 1244  12.858  15.940   5.033
 1329ETHY    C1 1245  13.129  16.053   4.594
 1330ETHY    C1 1246  13.394  16.262   4.173
 1331THSLK    S 1247  11.766  16.976   6.829
 1332ETHY    C1 1248  12.068  17.044   6.497
 1333ETHY    C1 1249  12.387  17.207   6.100
 1334ETHY    C1 1250  12.652  17.454   5.719
 1335ETHY    C1 1251  12.864  17.774   5.362
 1336ETHY    C1 1252  13.017  18.164   5.039
 1337ETHY    C1 1253  13.108  18.616   4.759
 1338AUSL   AUS 1254  11.487  16.297   6.829
 1339AUSL   AUS 1255  11.833  16.184   7.086
 1340AUL    AUL 1256  11.814  16.145   6.708
 1341THSLK    S 1257  11.966  15.992   6.949
 1342ETHY    C1 1258  12.149  15.625   6.752
 1343ETHY    C1 1259  12.421  15.253   6.483
 1344ETHY    C1 1260  12.746  14.964   6.186
 1345ETHY    C1 1261  13.112  14.757   5.874
 1346ETHY    C1 1262  13.516  14.638   5.555
 1347ETHY    C1 1263  13.949  14.613   5.235
 1348THSLK    S 1264  11.572  16.241   6.596
 1349ETHY    C1 1265  11.646  15.960   6.246
 1350ETHY    C1 1266  11.751  15.704   5.788
 1351ETHY    C1 1267  11.873  15.546   5.302
 1352ETHY    C1 1268  12.012  15.477   4.801
 1353ETHY    C1 1269  12.166  15.504   4.297
 1354ETHY    C1 1270  12.335  15.628   3.799
 1355AUSL   AUS 1271  11.487  16.600   6.829
 1356AUSL   AUS 1272  11.159  16.297   6.829
 1357AUL    AUL 1273  11.323  16.448   6.521
 1358THSLK    S 1274  11.067  16.241   6.597
 1359ETHY    C1 1275  10.932  15.963   6.264
 1360ETHY    C1 1276  10.771  15.710   5.822
 1361ETHY    C1 1277  10.619  15.553   5.343
 1362ETHY    C1 1278  10.483  15.484   4.842
 1363ETHY    C1 1279  10.366  15.510   4.328
 1364ETHY    C1 1280  10.273  15.629   3.810
 1365THSLK    S 1281  11.589  16.554   6.583
 1366ETHY    C1 1282  11.735  16.404   6.179
 1367ETHY    C1 1283  11.897  16.313   5.678
 1368ETHY    C1 1284  12.044  16.323   5.173
 1369ETHY    C1 1285  12.177  16.424   4.677
 1370ETHY    C1 1286  12.294  16.619   4.200
 1371ETHY    C1 1287  12.395  16.905   3.754
 1372AUSL   AUS 1288  10.914  16.448   8.083
 1373AUSL   AUS 1289  11.058  16.865   8.013
 1374AUL    AUL 1290  10.832  16.752   8.297
 1375THSLK    S 1291  10.812  16.396   8.319
 1376ETHY    C1 1292  10.600  16.176   8.654
 1377ETHY    C1 1293  10.334  15.999   9.082
 1378ETHY    C1 1294  10.062  15.923   9.526
 1379ETHY    C1 1295   9.788  15.940   9.973
 1380ETHY    C1 1296   9.517  16.053  10.411
 1381ETHY    C1 1297   9.252  16.262  10.832
 1382THSLK    S 1298  10.941  16.989   8.202
 1383ETHY    C1 1299  10.898  17.132   8.632
 1384ETHY    C1 1300  10.787  17.357   9.104
 1385ETHY    C1 1301  10.611  17.634   9.515
 1386ETHY    C1 1302  10.380  17.950   9.863
 1387ETHY    C1 1303  10.094  18.298  10.138
 1388ETHY    C1 1304   9.757  18.671  10.334
 1389AUSL   AUS 1305  11.159  16.297   8.176
 1390AUSL   AUS 1306  10.813  16.184   7.919
 1391AUL    AUL 1307  10.832  16.145   8.297
 1392THSLK    S 1308  10.636  16.021   8.026
 1393ETHY    C1 1309  10.265  15.764   8.082
 1394ETHY    C1 1310   9.843  15.476   8.237
 1395ETHY    C1 1311   9.453  15.221   8.482
 1396ETHY    C1 1312   9.101  15.004   8.803
 1397ETHY    C1 1313   8.795  14.833   9.198
 1398ETHY    C1 1314   8.538  14.712   9.657
 1399THSLK    S 1315  11.057  16.243   8.406
 1400ETHY    C1 1316  10.911  15.967   8.736
 1401ETHY    C1 1317  10.749  15.715   9.178
 1402ETHY    C1 1318  10.602  15.557   9.658
 1403ETHY    C1 1319  10.469  15.487  10.160
 1404ETHY    C1 1320  10.352  15.513  10.674
 1405ETHY    C1 1321  10.251  15.634  11.190
 1406AUSL   AUS 1322  10.914  16.448   6.923
 1407AUSL   AUS 1323  11.058  16.032   6.992
 1408AUL    AUL 1324  10.832  16.145   6.708
 1409THSLK    S 1325  10.821  16.396   6.681
 1410ETHY    C1 1326  10.617  16.176   6.341
 1411ETHY    C1 1327  10.353  15.999   5.911
 1412ETHY    C1 1328  10.077  15.923   5.470
 1413ETHY    C1 1329   9.800  15.940   5.025
 1414ETHY    C1 1330   9.530  16.053   4.586
 1415ETHY    C1 1331   9.271  16.262   4.161
 1416THSLK    S 1332  10.887  15.859   6.878
 1417ETHY    C1 1333  10.592  15.533   6.760
 1418ETHY    C1 1334  10.274  15.166   6.538
 1419ETHY    C1 1335  10.006  14.831   6.233
 1420ETHY    C1 1336   9.792  14.531   5.861
 1421ETHY    C1 1337   9.640  14.273   5.426
 1422ETHY    C1 1338   9.554  14.061   4.937
 1423AUSL   AUS 1339  11.159  16.600   6.829
 1424AUSL   AUS 1340  10.813  16.713   7.086
 1425AUL    AUL 1341  10.832  16.752   6.708
 1426THSLK    S 1342  10.686  16.840   6.895
 1427ETHY    C1 1343  10.509  16.921   6.484
 1428ETHY    C1 1344  10.238  17.061   6.046
 1429ETHY    C1 1345   9.911  17.249   5.679
 1430ETHY    C1 1346   9.542  17.478   5.385
 1431ETHY    C1 1347   9.140  17.745   5.173
 1432ETHY    C1 1348   8.711  18.047   5.047
 1433THSLK    S 1349  11.084  16.556   6.576
 1434ETHY    C1 1350  11.020  16.409   6.150
 1435ETHY    C1 1351  10.917  16.320   5.634
 1436ETHY    C1 1352  10.790  16.331   5.123
 1437ETHY    C1 1353  10.648  16.432   4.629
 1438ETHY    C1 1354  10.495  16.625   4.162
 1439ETHY    C1 1355  10.334  16.908   3.732
 1440AUSL   AUS 1356  11.903  16.857   7.503
 1441AUSL   AUS 1357  11.833  16.713   7.086
 1442AUL    AUL 1358  12.117  16.939   7.199
 1443THSLK    S 1359  12.011  16.812   6.934
 1444ETHY    C1 1360  12.381  16.785   6.671
 1445ETHY    C1 1361  12.803  16.841   6.349
 1446ETHY    C1 1362  13.193  16.995   6.030
 1447ETHY    C1 1363  13.545  17.232   5.724
 1448ETHY    C1 1364  13.852  17.553   5.438
 1449ETHY    C1 1365  14.108  17.952   5.179
 1450THSLK    S 1366  12.169  16.910   7.508
 1451ETHY    C1 1367  12.623  16.932   7.513
 1452ETHY    C1 1368  13.145  17.046   7.514
 1453ETHY    C1 1369  13.628  17.255   7.511
 1454ETHY    C1 1370  14.064  17.545   7.510
 1455ETHY    C1 1371  14.443  17.912   7.510
 1456ETHY    C1 1372  14.757  18.352   7.514
 1457AUSL   AUS 1373  11.997  16.612   7.351
 1458AUSL   AUS 1374  11.997  16.285   7.654
 1459AUL    AUL 1375  12.305  16.448   7.503
 1460THSLK    S 1376  12.253  16.651   7.350
 1461ETHY    C1 1377  12.689  16.543   7.286
 1462ETHY    C1 1378  13.215  16.505   7.201
 1463ETHY    C1 1379  13.730  16.569   7.113
 1464ETHY    C1 1380  14.224  16.723   7.026
 1465ETHY    C1 1381  14.684  16.968   6.945
 1466ETHY    C1 1382  15.103  17.300   6.873
 1467THSLK    S 1383  12.224  16.145   7.663
 1468ETHY    C1 1384  12.543  15.829   7.728
 1469ETHY    C1 1385  12.976  15.525   7.807
 1470ETHY    C1 1386  13.451  15.315   7.887
 1471ETHY    C1 1387  13.954  15.194   7.971
 1472ETHY    C1 1388  14.474  15.168   8.058
 1473ETHY    C1 1389  15.002  15.238   8.147
 1474AUSL   AUS 1390  11.997  16.612   7.654
 1475AUSL   AUS 1391  11.739  16.959   7.767
 1476AUL    AUL 1392  12.117  16.939   7.806
 1477THSLK    S 1393  11.922  17.073   7.926
 1478ETHY    C1 1394  12.305  17.191   8.140
 1479ETHY    C1 1395  12.723  17.414   8.388
 1480ETHY    C1 1396  13.082  17.719   8.622
 1481ETHY    C1 1397  13.379  18.092   8.840
 1482ETHY    C1 1398  13.604  18.526   9.038
 1483ETHY    C1 1399  13.751  19.014   9.215
 1484THSLK    S 1400  12.251  16.651   7.665
 1485ETHY    C1 1401  12.686  16.543   7.740
 1486ETHY    C1 1402  13.212  16.505   7.826
 1487ETHY    C1 1403  13.727  16.568   7.910
 1488ETHY    C1 1404  14.221  16.722   7.993
 1489ETHY    C1 1405  14.682  16.967   8.075
 1490ETHY    C1 1406  15.099  17.299   8.155
 1491AUSL   AUS 1407  10.743  16.857   7.503
 1492AUSL   AUS 1408  10.813  16.713   7.919
 1493AUL    AUL 1409  10.529  16.939   7.806
 1494THSLK    S 1410  10.680  16.832   8.109
 1495ETHY    C1 1411  10.497  16.904   8.519
 1496ETHY    C1 1412  10.225  17.044   8.957
 1497ETHY    C1 1413   9.900  17.235   9.324
 1498ETHY    C1 1414   9.534  17.466   9.619
 1499ETHY    C1 1415   9.131  17.733   9.831
 1500ETHY    C1 1416   8.697  18.029   9.956
 1501THSLK    S 1417  10.532  16.998   7.508
 1502ETHY    C1 1418  10.310  17.395   7.513
 1503ETHY    C1 1419   9.974  17.810   7.514
 1504ETHY    C1 1420   9.571  18.149   7.511
 1505ETHY    C1 1421   9.117  18.410   7.510
 1506ETHY    C1 1422   8.618  18.584   7.510
 1507ETHY    C1 1423   8.085  18.668   7.514
 1508AUSL   AUS 1424  10.649  16.612   7.351
 1509AUSL   AUS 1425  10.907  16.959   7.238
 1510AUL    AUL 1426  10.529  16.939   7.199
 1511THSLK    S 1427  10.422  16.727   7.303
 1512ETHY    C1 1428  10.103  16.927   7.049
 1513ETHY    C1 1429   9.670  17.133   6.813
 1514ETHY    C1 1430   9.195  17.299   6.661
 1515ETHY    C1 1431   8.692  17.428   6.590
 1516ETHY    C1 1432   8.172  17.518   6.605
 1517ETHY    C1 1433   7.644  17.566   6.708
 1518THSLK    S 1434  10.795  17.122   7.060
 1519ETHY    C1 1435  10.716  17.432   6.737
 1520ETHY    C1 1436  10.541  17.806   6.397
 1521ETHY    C1 1437  10.287  18.174   6.120
 1522ETHY    C1 1438   9.967  18.531   5.909
 1523ETHY    C1 1439   9.586  18.869   5.770
 1524ETHY    C1 1440   9.151  19.183   5.709
 1525AUSL   AUS 1441  10.649  16.612   7.654
 1526AUSL   AUS 1442  10.649  16.285   7.351
 1527AUL    AUL 1443  10.341  16.448   7.503
 1528THSLK    S 1444  10.395  16.212   7.394
 1529ETHY    C1 1445   9.960  16.194   7.524
 1530ETHY    C1 1446   9.434  16.134   7.597
 1531ETHY    C1 1447   8.919  16.030   7.578
 1532ETHY    C1 1448   8.425  15.887   7.477
 1533ETHY    C1 1449   7.965  15.704   7.294
 1534ETHY    C1 1450   7.547  15.484   7.034
 1535THSLK    S 1451  10.421  16.718   7.707
 1536ETHY    C1 1452  10.100  16.909   7.966
 1537ETHY    C1 1453   9.667  17.113   8.202
 1538ETHY    C1 1454   9.192  17.284   8.352
 1539ETHY    C1 1455   8.690  17.416   8.422
 1540ETHY    C1 1456   8.170  17.504   8.407
 1541ETHY    C1 1457   7.641  17.545   8.308
 1542AUSL   AUS 1458  11.903  16.039   7.503
 1543AUSL   AUS 1459  11.833  16.184   7.919
 1544AUL    AUL 1460  12.117  15.958   7.806
 1545THSLK    S 1461  12.114  15.898   7.508
 1546ETHY    C1 1462  12.336  15.502   7.513
 1547ETHY    C1 1463  12.672  15.087   7.514
 1548ETHY    C1 1464  13.075  14.748   7.511
 1549ETHY    C1 1465  13.529  14.487   7.510
 1550ETHY    C1 1466  14.028  14.313   7.510
 1551ETHY    C1 1467  14.561  14.229   7.514
 1552THSLK    S 1468  11.960  15.993   8.064
 1553ETHY    C1 1469  12.137  15.628   8.270
 1554ETHY    C1 1470  12.408  15.256   8.540
 1555ETHY    C1 1471  12.735  14.967   8.834
 1556ETHY    C1 1472  13.104  14.759   9.142
 1557ETHY    C1 1473  13.506  14.641   9.462
 1558ETHY    C1 1474  13.935  14.616   9.789
 1559AUSL   AUS 1475  11.997  16.285   7.351
 1560AUSL   AUS 1476  11.739  15.938   7.238
 1561AUL    AUL 1477  12.117  15.958   7.199
 1562THSLK    S 1478  12.225  16.145   7.353
 1563ETHY    C1 1479  12.546  15.828   7.298
 1564ETHY    C1 1480  12.979  15.525   7.221
 1565ETHY    C1 1481  13.454  15.315   7.136
 1566ETHY    C1 1482  13.956  15.194   7.048
 1567ETHY    C1 1483  14.476  15.167   6.963
 1568ETHY    C1 1484  15.005  15.238   6.881
 1569THSLK    S 1485  11.855  15.749   7.108
 1570ETHY    C1 1486  11.939  15.320   6.984
 1571ETHY    C1 1487  12.114  14.848   6.803
 1572ETHY    C1 1488  12.367  14.437   6.593
 1573ETHY    C1 1489  12.685  14.089   6.366
 1574ETHY    C1 1490  13.067  13.814   6.126
 1575ETHY    C1 1491  13.505  13.617   5.880
 1576AUSL   AUS 1492  10.743  16.039   7.503
 1577AUSL   AUS 1493  10.813  16.184   7.086
 1578AUL    AUL 1494  10.529  15.958   7.199
 1579THSLK    S 1495  10.642  16.013   6.978
 1580ETHY    C1 1496  10.278  15.748   6.921
 1581ETHY    C1 1497   9.856  15.458   6.766
 1582ETHY    C1 1498   9.464  15.206   6.521
 1583ETHY    C1 1499   9.110  14.993   6.200
 1584ETHY    C1 1500   8.803  14.820   5.806
 1585ETHY    C1 1501   8.552  14.693   5.346
 1586THSLK    S 1502  10.477  15.987   7.508
 1587ETHY    C1 1503  10.023  15.965   7.513
 1588ETHY    C1 1504   9.501  15.851   7.514
 1589ETHY    C1 1505   9.019  15.642   7.511
 1590ETHY    C1 1506   8.582  15.352   7.510
 1591ETHY    C1 1507   8.203  14.985   7.510
 1592ETHY    C1 1508   7.890  14.545   7.514
 1593AUSL   AUS 1509  10.649  16.285   7.654
 1594AUSL   AUS 1510  10.907  15.938   7.767
 1595AUL    AUL 1511  10.529  15.958   7.806
 1596THSLK    S 1512  10.719  15.798   7.878
 1597ETHY    C1 1513  10.332  15.561   7.893
 1598ETHY    C1 1514   9.914  15.241   7.982
 1599ETHY    C1 1515   9.556  14.892   8.149
 1600ETHY    C1 1516   9.261  14.528   8.382
 1601ETHY    C1 1517   9.036  14.157   8.683
 1602ETHY    C1 1518   8.885  13.786   9.045
 1603THSLK    S 1519  10.393  16.222   7.616
 1604ETHY    C1 1520   9.957  16.212   7.491
 1605ETHY    C1 1521   9.431  16.153   7.419
 1606ETHY    C1 1522   8.916  16.046   7.436
 1607ETHY    C1 1523   8.422  15.900   7.535
 1608ETHY    C1 1524   7.962  15.718   7.718
 1609ETHY    C1 1525   7.543  15.505   7.983
 1610AUSL   AUS 1526  11.323  17.028   7.912
 1611AUSL   AUS 1527  10.907  16.959   7.767
 1612AUL    AUL 1528  11.020  17.243   7.993
 1613THSLK    S 1529  10.791  17.115   7.952
 1614ETHY    C1 1530  10.707  17.417   8.280
 1615ETHY    C1 1531  10.532  17.790   8.621
 1616ETHY    C1 1532  10.279  18.161   8.895
 1617ETHY    C1 1533   9.961  18.520   9.105
 1618ETHY    C1 1534   9.579  18.858   9.244
 1619ETHY    C1 1535   9.141  19.166   9.309
 1620THSLK    S 1536  11.365  17.250   8.035
 1621ETHY    C1 1537  11.549  17.525   8.347
 1622ETHY    C1 1538  11.699  17.905   8.691
 1623ETHY    C1 1539  11.765  18.328   8.998
 1624ETHY    C1 1540  11.752  18.779   9.264
 1625ETHY    C1 1541  11.655  19.248   9.485
 1626ETHY    C1 1542  11.475  19.727   9.656
 1627AUSL   AUS 1543  11.171  17.122   7.666
 1628AUSL   AUS 1544  11.475  17.122   7.339
 1629AUL    AUL 1545  11.323  17.430   7.503
 1630THSLK    S 1546  11.214  17.366   7.776
 1631ETHY    C1 1547  11.358  17.760   7.951
 1632ETHY    C1 1548  11.445  18.254   8.137
 1633ETHY    C1 1549  11.433  18.755   8.294
 1634ETHY    C1 1550  11.332  19.253   8.425
 1635ETHY    C1 1551  11.140  19.734   8.527
 1636ETHY    C1 1552  10.860  20.189   8.600
 1637THSLK    S 1553  11.530  17.353   7.243
 1638ETHY    C1 1554  11.806  17.683   7.096
 1639ETHY    C1 1555  12.056  18.124   6.927
 1640ETHY    C1 1556  12.212  18.601   6.771
 1641ETHY    C1 1557  12.281  19.103   6.635
 1642ETHY    C1 1558  12.257  19.619   6.525
 1643ETHY    C1 1559  12.140  20.139   6.443
 1644AUSL   AUS 1560  11.475  17.122   7.666
 1645AUSL   AUS 1561  11.588  16.865   8.013
 1646AUL    AUL 1562  11.626  17.243   7.993
 1647THSLK    S 1563  11.759  16.973   8.183
 1648ETHY    C1 1564  12.054  17.038   8.523
 1649ETHY    C1 1565  12.372  17.200   8.920
 1650ETHY    C1 1566  12.640  17.449   9.298
 1651ETHY    C1 1567  12.854  17.771   9.653
 1652ETHY    C1 1568  13.006  18.159   9.976
 1653ETHY    C1 1569  13.092  18.609  10.262
 1654THSLK    S 1570  11.528  17.351   7.772
 1655ETHY    C1 1571  11.800  17.679   7.929
 1656ETHY    C1 1572  12.050  18.119   8.100
 1657ETHY    C1 1573  12.208  18.598   8.251
 1658ETHY    C1 1574  12.277  19.100   8.383
 1659ETHY    C1 1575  12.253  19.615   8.494
 1660ETHY    C1 1576  12.134  20.134   8.585
 1661AUSL   AUS 1577  11.323  15.868   7.912
 1662AUSL   AUS 1578  11.739  15.938   7.767
 1663AUL    AUL 1579  11.626  15.654   7.993
 1664THSLK    S 1580  11.276  15.618   7.989
 1665ETHY    C1 1581  11.086  15.222   8.103
 1666ETHY    C1 1582  10.935  14.744   8.289
 1667ETHY    C1 1583  10.872  14.279   8.528
 1668ETHY    C1 1584  10.887  13.837   8.809
 1669ETHY    C1 1585  10.983  13.430   9.132
 1670ETHY    C1 1586  11.158  13.067   9.489
 1671THSLK    S 1587  11.851  15.751   7.907
 1672ETHY    C1 1588  11.930  15.323   8.040
 1673ETHY    C1 1589  12.105  14.853   8.222
 1674ETHY    C1 1590  12.359  14.441   8.428
 1675ETHY    C1 1591  12.679  14.092   8.652
 1676ETHY    C1 1592  13.060  13.817   8.893
 1677ETHY    C1 1593  13.495  13.621   9.147
 1678AUSL   AUS 1594  11.171  15.775   7.666
 1679AUSL   AUS 1595  11.058  16.032   8.013
 1680AUL    AUL 1596  11.020  15.654   7.993
 1681THSLK    S 1597  11.116  15.539   7.745
 1682ETHY    C1 1598  10.841  15.180   7.788
 1683ETHY    C1 1599  10.590  14.715   7.869
 1684ETHY    C1 1600  10.434  14.225   7.981
 1685ETHY    C1 1601  10.365  13.726   8.122
 1686ETHY    C1 1602  10.389  13.226   8.292
 1687ETHY    C1 1603  10.506  12.738   8.489
 1688THSLK    S 1604  10.880  15.866   8.129
 1689ETHY    C1 1605  10.578  15.548   8.248
 1690ETHY    C1 1606  10.259  15.181   8.471
 1691ETHY    C1 1607   9.994  14.844   8.776
 1692ETHY    C1 1608   9.782  14.542   9.147
 1693ETHY    C1 1609   9.629  14.284   9.582
 1694ETHY    C1 1610   9.538  14.077  10.072
 1695AUSL   AUS 1611  11.475  15.775   7.666
 1696AUSL   AUS 1612  11.171  15.775   7.339
 1697AUL    AUL 1613  11.323  15.467   7.503
 1698THSLK    S 1614  11.118  15.536   7.270
 1699ETHY    C1 1615  10.846  15.174   7.236
 1700ETHY    C1 1616  10.596  14.709   7.157
 1701ETHY    C1 1617  10.439  14.220   7.041
 1702ETHY    C1 1618  10.369  13.721   6.896
 1703ETHY    C1 1619  10.393  13.222   6.727
 1704ETHY    C1 1620  10.512  12.731   6.538
 1705THSLK    S 1621  11.429  15.523   7.749
 1706ETHY    C1 1622  11.282  15.097   7.811
 1707ETHY    C1 1623  11.196  14.579   7.906
 1708ETHY    C1 1624  11.208  14.066   8.025
 1709ETHY    C1 1625  11.310  13.571   8.165
 1710ETHY    C1 1626  11.502  13.106   8.325
 1711ETHY    C1 1627  11.780  12.680   8.504
 1712AUSL   AUS 1628  11.323  17.028   7.094
 1713AUSL   AUS 1629  11.739  16.959   7.238
 1714AUL    AUL 1630  11.626  17.243   7.012
 1715THSLK    S 1631  11.370  17.255   6.977
 1716ETHY    C1 1632  11.560  17.534   6.674
 1717ETHY    C1 1633  11.711  17.915   6.330
 1718ETHY    C1 1634  11.775  18.335   6.021
 1719ETHY    C1 1635  11.759  18.785   5.752
 1720ETHY    C1 1636  11.663  19.255   5.532
 1721ETHY    C1 1637  11.488  19.738   5.366
 1722THSLK    S 1638  11.927  17.075   7.089
 1723ETHY    C1 1639  12.314  17.195   6.883
 1724ETHY    C1 1640  12.732  17.418   6.637
 1725ETHY    C1 1641  13.090  17.722   6.400
 1726ETHY    C1 1642  13.385  18.094   6.178
 1727ETHY    C1 1643  13.610  18.529   5.981
 1728ETHY    C1 1644  13.761  19.018   5.811
 1729AUSL   AUS 1645  11.171  17.122   7.339
 1730AUSL   AUS 1646  11.058  16.865   6.992
 1731AUL    AUL 1647  11.020  17.243   7.012
 1732THSLK    S 1648  11.217  17.369   7.239
 1733ETHY    C1 1649  11.364  17.766   7.074
 1734ETHY    C1 1650  11.450  18.260   6.889
 1735ETHY    C1 1651  11.438  18.761   6.727
 1736ETHY    C1 1652  11.336  19.257   6.593
 1737ETHY    C1 1653  11.144  19.738   6.492
 1738ETHY    C1 1654  10.866  20.196   6.427
 1739THSLK    S 1655  10.948  16.997   6.805
 1740ETHY    C1 1656  10.912  17.146   6.377
 1741ETHY    C1 1657  10.802  17.372   5.906
 1742ETHY    C1 1658  10.624  17.647   5.494
 1743ETHY    C1 1659  10.390  17.960   5.145
 1744ETHY    C1 1660  10.104  18.309   4.870
 1745ETHY    C1 1661   9.773  18.687   4.675
 1746AUSL   AUS 1662  11.323  15.868   7.094
 1747AUSL   AUS 1663  10.907  15.938   7.238
 1748AUL    AUL 1664  11.020  15.654   7.012
 1749THSLK    S 1665  10.724  15.790   7.134
 1750ETHY    C1 1666  10.341  15.546   7.124
 1751ETHY    C1 1667   9.923  15.225   7.035
 1752ETHY    C1 1668   9.564  14.879   6.866
 1753ETHY    C1 1669   9.267  14.518   6.631
 1754ETHY    C1 1670   9.042  14.146   6.331
 1755ETHY    C1 1671   8.895  13.769   5.974
 1756THSLK    S 1672  11.281  15.613   7.024
 1757ETHY    C1 1673  11.097  15.212   6.917
 1758ETHY    C1 1674  10.947  14.734   6.732
 1759ETHY    C1 1675  10.881  14.271   6.491
 1760ETHY    C1 1676  10.894  13.831   6.206
 1761ETHY    C1 1677  10.991  13.424   5.885
 1762ETHY    C1 1678  11.171  13.056   5.533
 1763AUSL   AUS 1679  11.475  15.775   7.339
 1764AUSL   AUS 1680  11.588  16.032   6.992
 1765AUL    AUL 1681  11.626  15.654   7.012
 1766THSLK    S 1682  11.432  15.521   7.266
 1767ETHY    C1 1683  11.288  15.093   7.213
 1768ETHY    C1 1684  11.201  14.574   7.120
 1769ETHY    C1 1685  11.213  14.062   6.997
 1770ETHY    C1 1686  11.314  13.568   6.854
 1771ETHY    C1 1687  11.506  13.103   6.695
 1772ETHY    C1 1688  11.786  12.675   6.523
 1773THSLK    S 1689  11.705  15.842   6.859
 1774ETHY    C1 1690  11.749  15.440   6.651
 1775ETHY    C1 1691  11.859  15.009   6.355
 1776ETHY    C1 1692  12.035  14.646   6.017
 1777ETHY    C1 1693  12.266  14.352   5.651
 1778ETHY    C1 1694  12.552  14.135   5.264
 1779ETHY    C1 1695  12.889  13.999   4.865
 1780AUC    AUC 1696  26.870  35.696   7.503
 1781AUC    AUC 1697  27.115  35.696   7.351
 1782AUC    AUC 1698  27.115  35.696   7.654
 1783AUC    AUC 1699  26.625  35.696   7.351
 1784AUC    AUC 1700  26.625  35.696   7.654
 1785AUC    AUC 1701  26.718  35.942   7.503
 1786AUC    AUC 1702  27.022  35.942   7.503
 1787AUC    AUC 1703  26.718  35.451   7.503
 1788AUC    AUC 1704  27.022  35.451   7.503
 1789AUC    AUC 1705  26.870  35.545   7.748
 1790AUC    AUC 1706  26.870  35.848   7.748
 1791AUC    AUC 1707  26.870  35.545   7.257
 1792AUC    AUC 1708  26.870  35.848   7.257
 1793AUC    AUC 1709  27.361  35.696   7.199
 1794AUC    AUC 1710  27.361  35.696   7.503
 1795AUC    AUC 1711  27.361  35.696   7.806
 1796AUC    AUC 1712  26.379  35.696   7.199
 1797AUC    AUC 1713  26.379  35.696   7.503
 1798AUC    AUC 1714  26.379  35.696   7.806
 1799AUC    AUC 1715  26.567  36.187   7.503
 1800AUC    AUC 1716  26.870  36.187   7.503
 1801AUC    AUC 1717  27.173  36.187   7.503
 1802AUC    AUC 1718  26.567  35.206   7.503
 1803AUC    AUC 1719  26.870  35.206   7.503
 1804AUC    AUC 1720  27.173  35.206   7.503
 1805AUC    AUC 1721  26.870  35.393   7.993
 1806AUC    AUC 1722  26.870  35.696   7.993
 1807AUC    AUC 1723  26.870  36.000   7.993
 1808AUC    AUC 1724  26.870  35.393   7.012
 1809AUC    AUC 1725  26.870  35.696   7.012
 1810AUC    AUC 1726  26.870  36.000   7.012
 1811AUC    AUC 1727  27.115  35.545   7.900
 1812AUC    AUC 1728  27.115  35.848   7.900
 1813AUC    AUC 1729  27.115  35.545   7.106
 1814AUC    AUC 1730  27.115  35.848   7.106
 1815AUC    AUC 1731  26.625  35.545   7.900
 1816AUC    AUC 1732  26.625  35.848   7.900
 1817AUC    AUC 1733  26.625  35.545   7.106
 1818AUC    AUC 1734  26.625  35.848   7.106
 1819AUC    AUC 1735  27.267  35.942   7.351
 1820AUC    AUC 1736  27.267  35.942   7.654
 1821AUC    AUC 1737  26.473  35.942   7.351
 1822AUC    AUC 1738  26.473  35.942   7.654
 1823AUC    AUC 1739  27.267  35.451   7.351
 1824AUC    AUC 1740  27.267  35.451   7.654
 1825AUC    AUC 1741  26.473  35.451   7.351
 1826AUC    AUC 1742  26.473  35.451   7.654
 1827AUC    AUC 1743  26.718  36.094   7.748
 1828AUC    AUC 1744  27.022  36.094   7.748
 1829AUC    AUC 1745  26.718  35.299   7.748
 1830AUC    AUC 1746  27.022  35.299   7.748
 1831AUC    AUC 1747  26.718  36.094   7.257
 1832AUC    AUC 1748  27.022  36.094   7.257
 1833AUC    AUC 1749  26.718  35.299   7.257
 1834AUC    AUC 1750  27.022  35.299   7.257
 1835AUSL   AUS 1751  27.279  35.696   8.083
 1836AUSL   AUS 1752  27.135  35.280   8.013
 1837AUL    AUL 1753  27.361  35.393   8.297
 1838THSLK    S 1754  27.245  35.093   8.153
 1839ETHY    C1 1755  27.281  34.694   8.368
 1840ETHY    C1 1756  27.391  34.264   8.665
 1841ETHY    C1 1757  27.569  33.900   9.000
 1842ETHY    C1 1758  27.803  33.604   9.364
 1843ETHY    C1 1759  28.089  33.387   9.752
 1844ETHY    C1 1760  28.420  33.254  10.156
 1845THSLK    S 1761  27.372  35.644   8.324
 1846ETHY    C1 1762  27.576  35.424   8.665
 1847ETHY    C1 1763  27.840  35.247   9.094
 1848ETHY    C1 1764  28.116  35.171   9.535
 1849ETHY    C1 1765  28.393  35.188   9.980
 1850ETHY    C1 1766  28.663  35.301  10.419
 1851ETHY    C1 1767  28.922  35.510  10.845
 1852AUSL   AUS 1768  27.034  35.545   8.176
 1853AUSL   AUS 1769  26.706  35.848   8.176
 1854AUL    AUL 1770  26.870  35.696   8.484
 1855THSLK    S 1771  27.109  35.490   8.413
 1856ETHY    C1 1772  27.173  35.210   8.765
 1857ETHY    C1 1773  27.276  34.955   9.223
 1858ETHY    C1 1774  27.403  34.796   9.708
 1859ETHY    C1 1775  27.545  34.727  10.208
 1860ETHY    C1 1776  27.699  34.755  10.713
 1861ETHY    C1 1777  27.859  34.879  11.212
 1862THSLK    S 1778  26.621  35.802   8.428
 1863ETHY    C1 1779  26.547  35.652   8.850
 1864ETHY    C1 1780  26.442  35.564   9.367
 1865ETHY    C1 1781  26.320  35.576   9.878
 1866ETHY    C1 1782  26.182  35.677  10.373
 1867ETHY    C1 1783  26.027  35.870  10.840
 1868ETHY    C1 1784  25.858  36.151  11.268
 1869AUSL   AUS 1785  27.034  35.848   8.176
 1870AUSL   AUS 1786  27.380  35.961   7.919
 1871AUL    AUL 1787  27.361  36.000   8.297
 1872THSLK    S 1788  27.119  35.904   8.410
 1873ETHY    C1 1789  27.193  36.185   8.759
 1874ETHY    C1 1790  27.298  36.440   9.217
 1875ETHY    C1 1791  27.420  36.599   9.703
 1876ETHY    C1 1792  27.559  36.668  10.204
 1877ETHY    C1 1793  27.713  36.641  10.708
 1878ETHY    C1 1794  27.882  36.517  11.206
 1879THSLK    S 1795  27.552  36.059   8.080
 1880ETHY    C1 1796  27.915  36.030   8.350
 1881ETHY    C1 1797  28.337  36.086   8.673
 1882ETHY    C1 1798  28.729  36.240   8.989
 1883ETHY    C1 1799  29.083  36.478   9.293
 1884ETHY    C1 1800  29.390  36.799   9.580
 1885ETHY    C1 1801  29.641  37.196   9.844
 1886AUSL   AUS 1802  27.279  35.696   6.923
 1887AUSL   AUS 1803  27.135  36.113   6.992
 1888AUL    AUL 1804  27.361  36.000   6.708
 1889THSLK    S 1805  27.381  35.644   6.687
 1890ETHY    C1 1806  27.594  35.424   6.351
 1891ETHY    C1 1807  27.859  35.247   5.923
 1892ETHY    C1 1808  28.131  35.171   5.479
 1893ETHY    C1 1809  28.405  35.188   5.033
 1894ETHY    C1 1810  28.676  35.301   4.594
 1895ETHY    C1 1811  28.941  35.510   4.173
 1896THSLK    S 1812  27.313  36.224   6.829
 1897ETHY    C1 1813  27.615  36.292   6.497
 1898ETHY    C1 1814  27.934  36.455   6.100
 1899ETHY    C1 1815  28.199  36.702   5.719
 1900ETHY    C1 1816  28.411  37.022   5.362
 1901ETHY    C1 1817  28.564  37.412   5.039
 1902ETHY    C1 1818  28.655  37.864   4.759
 1903AUSL   AUS 1819  27.034  35.545   6.829
 1904AUSL   AUS 1820  27.380  35.432   7.086
 1905AUL    AUL 1821  27.361  35.393   6.708
 1906THSLK    S 1822  27.513  35.240   6.949
 1907ETHY    C1 1823  27.696  34.873   6.752
 1908ETHY    C1 1824  27.968  34.501   6.483
 1909ETHY    C1 1825  28.293  34.212   6.186
 1910ETHY    C1 1826  28.659  34.005   5.874
 1911ETHY    C1 1827  29.063  33.886   5.555
 1912ETHY    C1 1828  29.496  33.861   5.235
 1913THSLK    S 1829  27.119  35.489   6.596
 1914ETHY    C1 1830  27.193  35.208   6.246
 1915ETHY    C1 1831  27.298  34.952   5.788
 1916ETHY    C1 1832  27.420  34.794   5.302
 1917ETHY    C1 1833  27.559  34.725   4.801
 1918ETHY    C1 1834  27.713  34.752   4.297
 1919ETHY    C1 1835  27.882  34.876   3.799
 1920AUSL   AUS 1836  27.034  35.848   6.829
 1921AUSL   AUS 1837  26.706  35.545   6.829
 1922AUL    AUL 1838  26.870  35.696   6.521
 1923THSLK    S 1839  26.614  35.489   6.597
 1924ETHY    C1 1840  26.479  35.211   6.264
 1925ETHY    C1 1841  26.318  34.958   5.822
 1926ETHY    C1 1842  26.166  34.801   5.343
 1927ETHY    C1 1843  26.030  34.732   4.842
 1928ETHY    C1 1844  25.913  34.758   4.328
 1929ETHY    C1 1845  25.820  34.877   3.810
 1930THSLK    S 1846  27.136  35.802   6.583
 1931ETHY    C1 1847  27.282  35.652   6.179
 1932ETHY    C1 1848  27.444  35.561   5.678
 1933ETHY    C1 1849  27.591  35.571   5.173
 1934ETHY    C1 1850  27.724  35.672   4.677
 1935ETHY    C1 1851  27.841  35.867   4.200
 1936ETHY    C1 1852  27.942  36.153   3.754
 1937AUSL   AUS 1853  26.461  35.696   8.083
 1938AUSL   AUS 1854  26.605  36.113   8.013
 1939AUL    AUL 1855  26.379  36.000   8.297
 1940THSLK    S 1856  26.359  35.644   8.319
 1941ETHY    C1 1857  26.147  35.424   8.654
 1942ETHY    C1 1858  25.881  35.247   9.082
 1943ETHY    C1 1859  25.609  35.171   9.526
 1944ETHY    C1 1860  25.335  35.188   9.973
 1945ETHY    C1 1861  25.064  35.301  10.411
 1946ETHY    C1 1862  24.799  35.510  10.832
 1947THSLK    S 1863  26.488  36.237   8.202
 1948ETHY    C1 1864  26.445  36.380   8.632
 1949ETHY    C1 1865  26.334  36.605   9.104
 1950ETHY    C1 1866  26.158  36.882   9.515
 1951ETHY    C1 1867  25.927  37.198   9.863
 1952ETHY    C1 1868  25.641  37.546  10.138
 1953ETHY    C1 1869  25.304  37.919  10.334
 1954AUSL   AUS 1870  26.706  35.545   8.176
 1955AUSL   AUS 1871  26.360  35.432   7.919
 1956AUL    AUL 1872  26.379  35.393   8.297
 1957THSLK    S 1873  26.183  35.269   8.026
 1958ETHY    C1 1874  25.812  35.012   8.082
 1959ETHY    C1 1875  25.390  34.724   8.237
 1960ETHY    C1 1876  25.000  34.469   8.482
 1961ETHY    C1 1877  24.648  34.252   8.803
 1962ETHY    C1 1878  24.342  34.081   9.198
 1963ETHY    C1 1879  24.085  33.960   9.657
 1964THSLK    S 1880  26.604  35.491   8.406
 1965ETHY    C1 1881  26.458  35.215   8.736
 1966ETHY    C1 1882  26.296  34.963   9.178
 1967ETHY    C1 1883  26.149  34.805   9.658
 1968ETHY    C1 1884  26.016  34.735  10.160
 1969ETHY    C1 1885  25.899  34.761  10.674
 1970ETHY    C1 1886  25.798  34.882  11.190
 1971AUSL   AUS 1887  26.461  35.696   6.923
 1972AUSL   AUS 1888  26.605  35.280   6.992
 1973AUL    AUL 1889  26.379  35.393   6.708
 1974THSLK    S 1890  26.368  35.644   6.681
 1975ETHY    C1 1891  26.164  35.424   6.341
 1976ETHY    C1 1892  25.900  35.247   5.911
 1977ETHY    C1 1893  25.624  35.171   5.470
 1978ETHY    C1 1894  25.347  35.188   5.025
 1979ETHY    C1 1895  25.077  35.301   4.586
 1980ETHY    C1 1896  24.818  35.510   4.161
 1981THSLK    S 1897  26.434  35.107   6.878
 1982ETHY    C1 1898  26.139  34.781   6.760
 1983ETHY    C1 1899  25.821  34.414   6.538
 1984ETHY    C1 1900  25.553  34.079   6.233
 1985ETHY    C1 1901  25.339  33.779   5.861
 1986ETHY    C1 1902  25.187  33.521   5.426
 1987ETHY    C1 1903  25.101  33.309   4.937
 1988AUSL   AUS 1904  26.706  35.848   6.829
 1989AUSL   AUS 1905  26.360  35.961   7.086
 1990AUL    AUL 1906  26.379  36.000   6.708
 1991THSLK    S 1907  26.233  36.088   6.895
 1992ETHY    C1 1908  26.056  36.169   6.484
 1993ETHY    C1 1909  25.785  36.309   6.046
 1994ETHY    C1 1910  25.458  36.497   5.679
 1995ETHY    C1 1911  25.089  36.726   5.385
 1996ETHY    C1 1912  24.687  36.993   5.173
 1997ETHY    C1 1913  24.258  37.295   5.047
 1998THSLK    S 1914  26.631  35.804   6.576
 1999ETHY    C1 1915  26.567  35.657   6.150
 2000ETHY    C1 1916  26.464  35.568   5.634
 2001ETHY    C1 1917  26.337  35.579   5.123
 2002ETHY    C1 1918  26.195  35.680   4.629
 2003ETHY    C1 1919  26.042  35.873   4.162
 2004ETHY    C1 1920  25.881  36.156   3.732
 2005AUSL   AUS 1921  27.450  36.105   7.503
 2006AUSL   AUS 1922  27.380  35.961   7.086
 2007AUL    AUL 1923  27.664  36.187   7.199
 2008THSLK    S 1924  27.558  36.060   6.934
 2009ETHY    C1 1925  27.928  36.033   6.671
 2010ETHY    C1 1926  28.350  36.089   6.349
 2011ETHY    C1 1927  28.740  36.243   6.030
 2012ETHY    C1 1928  29.092  36.480   5.724
 2013ETHY    C1 1929  29.399  36.801   5.438
 2014ETHY    C1 1930  29.655  37.200   5.179
 2015THSLK    S 1931  27.716  36.158   7.508
 2016ETHY    C1 1932  28.170  36.180   7.513
 2017ETHY    C1 1933  28.692  36.294   7.514
 2018ETHY    C1 1934  29.175  36.503   7.511
 2019ETHY    C1 1935  29.611  36.793   7.510
 2020ETHY    C1 1936  29.990  37.160   7.510
 2021ETHY    C1 1937  30.304  37.600   7.514
 2022AUSL   AUS 1938  27.544  35.860   7.351
 2023AUSL   AUS 1939  27.544  35.533   7.654
 2024AUL    AUL 1940  27.852  35.696   7.503
 2025THSLK    S 1941  27.800  35.899   7.350
 2026ETHY    C1 1942  28.236  35.791   7.286
 2027ETHY    C1 1943  28.762  35.753   7.201
 2028ETHY    C1 1944  29.277  35.817   7.113
 2029ETHY    C1 1945  29.771  35.971   7.026
 2030ETHY    C1 1946  30.231  36.216   6.945
 2031ETHY    C1 1947  30.650  36.548   6.873
 2032THSLK    S 1948  27.771  35.393   7.663
 2033ETHY    C1 1949  28.090  35.077   7.728
 2034ETHY    C1 1950  28.523  34.773   7.807
 2035ETHY    C1 1951  28.998  34.563   7.887
 2036ETHY    C1 1952  29.501  34.442   7.971
 2037ETHY    C1 1953  30.021  34.416   8.058
 2038ETHY    C1 1954  30.549  34.486   8.147
 2039AUSL   AUS 1955  27.544  35.860   7.654
 2040AUSL   AUS 1956  27.286  36.207   7.767
 2041AUL    AUL 1957  27.664  36.187   7.806
 2042THSLK    S 1958  27.469  36.321   7.926
 2043ETHY    C1 1959  27.852  36.439   8.140
 2044ETHY    C1 1960  28.270  36.662   8.388
 2045ETHY    C1 1961  28.629  36.967   8.622
 2046ETHY    C1 1962  28.926  37.340   8.840
 2047ETHY    C1 1963  29.151  37.774   9.038
 2048ETHY    C1 1964  29.298  38.262   9.215
 2049THSLK    S 1965  27.798  35.899   7.665
 2050ETHY    C1 1966  28.233  35.791   7.740
 2051ETHY    C1 1967  28.759  35.753   7.826
 2052ETHY    C1 1968  29.274  35.816   7.910
 2053ETHY    C1 1969  29.768  35.970   7.993
 2054ETHY    C1 1970  30.229  36.215   8.075
 2055ETHY    C1 1971  30.646  36.547   8.155
 2056AUSL   AUS 1972  26.290  36.105   7.503
 2057AUSL   AUS 1973  26.360  35.961   7.919
 2058AUL    AUL 1974  26.076  36.187   7.806
 2059THSLK    S 1975  26.227  36.080   8.109
 2060ETHY    C1 1976  26.044  36.152   8.519
 2061ETHY    C1 1977  25.772  36.292   8.957
 2062ETHY    C1 1978  25.447  36.483   9.324
 2063ETHY    C1 1979  25.081  36.714   9.619
 2064ETHY    C1 1980  24.678  36.981   9.831
 2065ETHY    C1 1981  24.244  37.277   9.956
 2066THSLK    S 1982  26.079  36.246   7.508
 2067ETHY    C1 1983  25.857  36.643   7.513
 2068ETHY    C1 1984  25.521  37.058   7.514
 2069ETHY    C1 1985  25.118  37.397   7.511
 2070ETHY    C1 1986  24.664  37.658   7.510
 2071ETHY    C1 1987  24.165  37.832   7.510
 2072ETHY    C1 1988  23.632  37.916   7.514
 2073AUSL   AUS 1989  26.196  35.860   7.351
 2074AUSL   AUS 1990  26.454  36.207   7.238
 2075AUL    AUL 1991  26.076  36.187   7.199
 2076THSLK    S 1992  25.969  35.975   7.303
 2077ETHY    C1 1993  25.650  36.175   7.049
 2078ETHY    C1 1994  25.217  36.381   6.813
 2079ETHY    C1 1995  24.742  36.547   6.661
 2080ETHY    C1 1996  24.239  36.676   6.590
 2081ETHY    C1 1997  23.719  36.766   6.605
 2082ETHY    C1 1998  23.191  36.814   6.708
 2083THSLK    S 1999  26.342  36.370   7.060
 2084ETHY    C1 2000  26.263  36.680   6.737
 2085ETHY    C1 2001  26.088  37.054   6.397
 2086ETHY    C1 2002  25.834  37.422   6.120
 2087ETHY    C1 2003  25.514  37.779   5.909
 2088ETHY    C1 2004  25.133  38.117   5.770
 2089ETHY    C1 2005  24.698  38.431   5.709
 2090AUSL   AUS 2006  26.196  35.860   7.654
 2091AUSL   AUS 2007  26.196  35.533   7.351
 2092AUL    AUL 2008  25.888  35.696   7.503
 2093THSLK    S 2009  25.942  35.460   7.394
 2094ETHY    C1 2010  25.507  35.442   7.524
 2095ETHY    C1 2011  24.981  35.382   7.597
 2096ETHY    C1 2012  24.466  35.278   7.578
 2097ETHY    C1 2013  23.972  35.135   7.477
 2098ETHY    C1 2014  23.512  34.952   7.294
 2099ETHY    C1 2015  23.094  34.732   7.034
 2100THSLK    S 2016  25.968  35.966   7.707
 2101ETHY    C1 2017  25.647  36.157   7.966
 2102ETHY    C1 2018  25.214  36.361   8.202
 2103ETHY    C1 2019  24.739  36.532   8.352
 2104ETHY    C1 2020  24.237  36.664   8.422
 2105ETHY    C1 2021  23.717  36.752   8.407
 2106ETHY    C1 2022  23.188  36.793   8.308
 2107AUSL   AUS 2023  27.450  35.287   7.503
 2108AUSL   AUS 2024  27.380  35.432   7.919
 2109AUL    AUL 2025  27.664  35.206   7.806
 2110THSLK    S 2026  27.661  35.146   7.508
 2111ETHY    C1 2027  27.883  34.750   7.513
 2112ETHY    C1 2028  28.219  34.335   7.514
 2113ETHY    C1 2029  28.622  33.996   7.511
 2114ETHY    C1 2030  29.076  33.735   7.510
 2115ETHY    C1 2031  29.575  33.561   7.510
 2116ETHY    C1 2032  30.108  33.477   7.514
 2117THSLK    S 2033  27.507  35.241   8.064
 2118ETHY    C1 2034  27.684  34.876   8.270
 2119ETHY    C1 2035  27.955  34.504   8.540
 2120ETHY    C1 2036  28.282  34.215   8.834
 2121ETHY    C1 2037  28.651  34.007   9.142
 2122ETHY    C1 2038  29.053  33.889   9.462
 2123ETHY    C1 2039  29.482  33.864   9.789
 2124AUSL   AUS 2040  27.544  35.533   7.351
 2125AUSL   AUS 2041  27.286  35.186   7.238
 2126AUL    AUL 2042  27.664  35.206   7.199
 2127THSLK    S 2043  27.772  35.393   7.353
 2128ETHY    C1 2044  28.093  35.076   7.298
 2129ETHY    C1 2045  28.526  34.773   7.221
 2130ETHY    C1 2046  29.001  34.563   7.136
 2131ETHY    C1 2047  29.503  34.442   7.048
 2132ETHY    C1 2048  30.023  34.415   6.963
 2133ETHY    C1 2049  30.552  34.486   6.881
 2134THSLK    S 2050  27.402  34.997   7.108
 2135ETHY    C1 2051  27.486  34.568   6.984
 2136ETHY    C1 2052  27.661  34.096   6.803
 2137ETHY    C1 2053  27.914  33.685   6.593
 2138ETHY    C1 2054  28.232  33.337   6.366
 2139ETHY    C1 2055  28.614  33.062   6.126
 2140ETHY    C1 2056  29.052  32.865   5.880
 2141AUSL   AUS 2057  26.290  35.287   7.503
 2142AUSL   AUS 2058  26.360  35.432   7.086
 2143AUL    AUL 2059  26.076  35.206   7.199
 2144THSLK    S 2060  26.189  35.261   6.978
 2145ETHY    C1 2061  25.825  34.996   6.921
 2146ETHY    C1 2062  25.403  34.706   6.766
 2147ETHY    C1 2063  25.011  34.454   6.521
 2148ETHY    C1 2064  24.657  34.241   6.200
 2149ETHY    C1 2065  24.350  34.068   5.806
 2150ETHY    C1 2066  24.099  33.941   5.346
 2151THSLK    S 2067  26.024  35.235   7.508
 2152ETHY    C1 2068  25.570  35.213   7.513
 2153ETHY    C1 2069  25.048  35.099   7.514
 2154ETHY    C1 2070  24.566  34.890   7.511
 2155ETHY    C1 2071  24.129  34.600   7.510
 2156ETHY    C1 2072  23.750  34.233   7.510
 2157ETHY    C1 2073  23.437  33.793   7.514
 2158AUSL   AUS 2074  26.196  35.533   7.654
 2159AUSL   AUS 2075  26.454  35.186   7.767
 2160AUL    AUL 2076  26.076  35.206   7.806
 2161THSLK    S 2077  26.266  35.046   7.878
 2162ETHY    C1 2078  25.879  34.809   7.893
 2163ETHY    C1 2079  25.461  34.489   7.982
 2164ETHY    C1 2080  25.103  34.140   8.149
 2165ETHY    C1 2081  24.808  33.776   8.382
 2166ETHY    C1 2082  24.583  33.405   8.683
 2167ETHY    C1 2083  24.432  33.034   9.045
 2168THSLK    S 2084  25.940  35.470   7.616
 2169ETHY    C1 2085  25.504  35.460   7.491
 2170ETHY    C1 2086  24.978  35.401   7.419
 2171ETHY    C1 2087  24.463  35.294   7.436
 2172ETHY    C1 2088  23.969  35.148   7.535
 2173ETHY    C1 2089  23.509  34.966   7.718
 2174ETHY    C1 2090  23.090  34.753   7.983
 2175AUSL   AUS 2091  26.870  36.276   7.912
 2176AUSL   AUS 2092  26.454  36.207   7.767
 2177AUL    AUL 2093  26.567  36.491   7.993
 2178THSLK    S 2094  26.338  36.363   7.952
 2179ETHY    C1 2095  26.254  36.665   8.280
 2180ETHY    C1 2096  26.079  37.038   8.621
 2181ETHY    C1 2097  25.826  37.409   8.895
 2182ETHY    C1 2098  25.508  37.768   9.105
 2183ETHY    C1 2099  25.126  38.106   9.244
 2184ETHY    C1 2100  24.688  38.414   9.309
 2185THSLK    S 2101  26.912  36.498   8.035
 2186ETHY    C1 2102  27.096  36.773   8.347
 2187ETHY    C1 2103  27.246  37.153   8.691
 2188ETHY    C1 2104  27.312  37.576   8.998
 2189ETHY    C1 2105  27.299  38.027   9.264
 2190ETHY    C1 2106  27.202  38.496   9.485
 2191ETHY    C1 2107  27.022  38.975   9.656
 2192AUSL   AUS 2108  26.718  36.370   7.666
 2193AUSL   AUS 2109  27.022  36.370   7.339
 2194AUL    AUL 2110  26.870  36.678   7.503
 2195THSLK    S 2111  26.761  36.614   7.776
 2196ETHY    C1 2112  26.905  37.008   7.951
 2197ETHY    C1 2113  26.992  37.502   8.137
 2198ETHY    C1 2114  26.980  38.003   8.294
 2199ETHY    C1 2115  26.879  38.501   8.425
 2200ETHY    C1 2116  26.687  38.982   8.527
 2201ETHY    C1 2117  26.407  39.437   8.600
 2202THSLK    S 2118  27.077  36.601   7.243
 2203ETHY    C1 2119  27.353  36.931   7.096
 2204ETHY    C1 2120  27.603  37.372   6.927
 2205ETHY    C1 2121  27.759  37.849   6.771
 2206ETHY    C1 2122  27.828  38.351   6.635
 2207ETHY    C1 2123  27.804  38.867   6.525
 2208ETHY    C1 2124  27.687  39.387   6.443
 2209AUSL   AUS 2125  27.022  36.370   7.666
 2210AUSL   AUS 2126  27.135  36.113   8.013
 2211AUL    AUL 2127  27.173  36.491   7.993
 2212THSLK    S 2128  27.306  36.221   8.183
 2213ETHY    C1 2129  27.601  36.286   8.523
 2214ETHY    C1 2130  27.919  36.448   8.920
 2215ETHY    C1 2131  28.187  36.697   9.298
 2216ETHY    C1 2132  28.401  37.019   9.653
 2217ETHY    C1 2133  28.553  37.407   9.976
 2218ETHY    C1 2134  28.639  37.857  10.262
 2219THSLK    S 2135  27.075  36.599   7.772
 2220ETHY    C1 2136  27.347  36.927   7.929
 2221ETHY    C1 2137  27.597  37.367   8.100
 2222ETHY    C1 2138  27.755  37.846   8.251
 2223ETHY    C1 2139  27.824  38.348   8.383
 2224ETHY    C1 2140  27.800  38.863   8.494
 2225ETHY    C1 2141  27.681  39.382   8.585
 2226AUSL   AUS 2142  26.870  35.116   7.912
 2227AUSL   AUS 2143  27.286  35.186   7.767
 2228AUL    AUL 2144  27.173  34.902   7.993
 2229THSLK    S 2145  26.823  34.866   7.989
 2230ETHY    C1 2146  26.633  34.470   8.103
 2231ETHY    C1 2147  26.482  33.992   8.289
 2232ETHY    C1 2148  26.419  33.527   8.528
 2233ETHY    C1 2149  26.434  33.085   8.809
 2234ETHY    C1 2150  26.530  32.678   9.132
 2235ETHY    C1 2151  26.705  32.315   9.489
 2236THSLK    S 2152  27.398  34.999   7.907
 2237ETHY    C1 2153  27.477  34.571   8.040
 2238ETHY    C1 2154  27.652  34.101   8.222
 2239ETHY    C1 2155  27.906  33.689   8.428
 2240ETHY    C1 2156  28.226  33.340   8.652
 2241ETHY    C1 2157  28.607  33.065   8.893
 2242ETHY    C1 2158  29.042  32.869   9.147
 2243AUSL   AUS 2159  26.718  35.023   7.666
 2244AUSL   AUS 2160  26.605  35.280   8.013
 2245AUL    AUL 2161  26.567  34.902   7.993
 2246THSLK    S 2162  26.663  34.787   7.745
 2247ETHY    C1 2163  26.388  34.428   7.788
 2248ETHY    C1 2164  26.137  33.963   7.869
 2249ETHY    C1 2165  25.981  33.473   7.981
 2250ETHY    C1 2166  25.912  32.974   8.122
 2251ETHY    C1 2167  25.936  32.474   8.292
 2252ETHY    C1 2168  26.053  31.986   8.489
 2253THSLK    S 2169  26.427  35.114   8.129
 2254ETHY    C1 2170  26.125  34.796   8.248
 2255ETHY    C1 2171  25.806  34.429   8.471
 2256ETHY    C1 2172  25.541  34.092   8.776
 2257ETHY    C1 2173  25.329  33.790   9.147
 2258ETHY    C1 2174  25.176  33.532   9.582
 2259ETHY    C1 2175  25.085  33.325  10.072
 2260AUSL   AUS 2176  27.022  35.023   7.666
 2261AUSL   AUS 2177  26.718  35.023   7.339
 2262AUL    AUL 2178  26.870  34.715   7.503
 2263THSLK    S 2179  26.665  34.784   7.270
 2264ETHY    C1 2180  26.393  34.422   7.236
 2265ETHY    C1 2181  26.143  33.957   7.157
 2266ETHY    C1 2182  25.986  33.468   7.041
 2267ETHY    C1 2183  25.916  32.969   6.896
 2268ETHY    C1 2184  25.940  32.470   6.727
 2269ETHY    C1 2185  26.059  31.979   6.538
 2270THSLK    S 2186  26.976  34.771   7.749
 2271ETHY    C1 2187  26.829  34.345   7.811
 2272ETHY    C1 2188  26.743  33.827   7.906
 2273ETHY    C1 2189  26.755  33.314   8.025
 2274ETHY    C1 2190  26.857  32.819   8.165
 2275ETHY    C1 2191  27.049  32.354   8.325
 2276ETHY    C1 2192  27.327  31.928   8.504
 2277AUSL   AUS 2193  26.870  36.276   7.094
 2278AUSL   AUS 2194  27.286  36.207   7.238
 2279AUL    AUL 2195  27.173  36.491   7.012
 2280THSLK    S 2196  26.917  36.503   6.977
 2281ETHY    C1 2197  27.107  36.782   6.674
 2282ETHY    C1 2198  27.258  37.163   6.330
 2283ETHY    C1 2199  27.322  37.583   6.021
 2284ETHY    C1 2200  27.306  38.033   5.752
 2285ETHY    C1 2201  27.210  38.503   5.532
 2286ETHY    C1 2202  27.035  38.986   5.366
 2287THSLK    S 2203  27.474  36.323   7.089
 2288ETHY    C1 2204  27.861  36.443   6.883
 2289ETHY    C1 2205  28.279  36.666   6.637
 2290ETHY    C1 2206  28.637  36.970   6.400
 2291ETHY    C1 2207  28.932  37.342   6.178
 2292ETHY    C1 2208  29.157  37.777   5.981
 2293ETHY    C1 2209  29.308  38.266   5.811
 2294AUSL   AUS 2210  26.718  36.370   7.339
 2295AUSL   AUS 2211  26.605  36.113   6.992
 2296AUL    AUL 2212  26.567  36.491   7.012
 2297THSLK    S 2213  26.764  36.617   7.239
 2298ETHY    C1 2214  26.911  37.014   7.074
 2299ETHY    C1 2215  26.997  37.508   6.889
 2300ETHY    C1 2216  26.985  38.009   6.727
 2301ETHY    C1 2217  26.883  38.505   6.593
 2302ETHY    C1 2218  26.691  38.986   6.492
 2303ETHY    C1 2219  26.413  39.444   6.427
 2304THSLK    S 2220  26.495  36.245   6.805
 2305ETHY    C1 2221  26.459  36.394   6.377
 2306ETHY    C1 2222  26.349  36.620   5.906
 2307ETHY    C1 2223  26.171  36.895   5.494
 2308ETHY    C1 2224  25.937  37.208   5.145
 2309ETHY    C1 2225  25.651  37.557   4.870
 2310ETHY    C1 2226  25.320  37.935   4.675
 2311AUSL   AUS 2227  26.870  35.116   7.094
 2312AUSL   AUS 2228  26.454  35.186   7.238
 2313AUL    AUL 2229  26.567  34.902   7.012
 2314THSLK    S 2230  26.271  35.038   7.134
 2315ETHY    C1 2231  25.888  34.794   7.124
 2316ETHY    C1 2232  25.470  34.473   7.035
 2317ETHY    C1 2233  25.111  34.127   6.866
 2318ETHY    C1 2234  24.814  33.766   6.631
 2319ETHY    C1 2235  24.589  33.394   6.331
 2320ETHY    C1 2236  24.442  33.017   5.974
 2321THSLK    S 2237  26.828  34.861   7.024
 2322ETHY    C1 2238  26.644  34.460   6.917
 2323ETHY    C1 2239  26.494  33.982   6.732
 2324ETHY    C1 2240  26.428  33.519   6.491
 2325ETHY    C1 2241  26.441  33.079   6.206
 2326ETHY    C1 2242  26.538  32.672   5.885
 2327ETHY    C1 2243  26.718  32.304   5.533
 2328AUSL   AUS 2244  27.022  35.023   7.339
 2329AUSL   AUS 2245  27.135  35.280   6.992
 2330AUL    AUL 2246  27.173  34.902   7.012
 2331THSLK    S 2247  26.979  34.769   7.266
 2332ETHY    C1 2248  26.835  34.341   7.213
 2333ETHY    C1 2249  26.748  33.822   7.120
 2334ETHY    C1 2250  26.760  33.310   6.997
 2335ETHY    C1 2251  26.861  32.816   6.854
 2336ETHY    C1 2252  27.053  32.351   6.695
 2337ETHY    C1 2253  27.333  31.923   6.523
 2338THSLK    S 2254  27.252  35.090   6.859
 2339ETHY    C1 2255  27.296  34.688   6.651
 2340ETHY    C1 2256  27.406  34.257   6.355
 2341ETHY    C1 2257  27.582  33.894   6.017
 2342ETHY    C1 2258  27.813  33.600   5.651
 2343ETHY    C1 2259  28.099  33.383   5.264
 2344ETHY    C1 2260  28.436  33.247   4.865
 2345AUC    AUC 2261  32.803  24.604   7.503
 2346AUC    AUC 2262  33.048  24.604   7.351
 2347AUC    AUC 2263  33.048  24.604   7.654
 2348AUC    AUC 2264  32.558  24.604   7.351
 2349AUC    AUC 2265  32.558  24.604   7.654
 2350AUC    AUC 2266  32.651  24.850   7.503
 2351AUC    AUC 2267  32.955  24.850   7.503
 2352AUC    AUC 2268  32.651  24.359   7.503
 2353AUC    AUC 2269  32.955  24.359   7.503
 2354AUC    AUC 2270  32.803  24.453   7.748
 2355AUC    AUC 2271  32.803  24.756   7.748
 2356AUC    AUC 2272  32.803  24.453   7.257
 2357AUC    AUC 2273  32.803  24.756   7.257
 2358AUC    AUC 2274  33.294  24.604   7.199
 2359AUC    AUC 2275  33.294  24.604   7.503
 2360AUC    AUC 2276  33.294  24.604   7.806
 2361AUC    AUC 2277  32.312  24.604   7.199
 2362AUC    AUC 2278  32.312  24.604   7.503
 2363AUC    AUC 2279  32.312  24.604   7.806
 2364AUC    AUC 2280  32.500  25.095   7.503
 2365AUC    AUC 2281  32.803  25.095   7.503
 2366AUC    AUC 2282  33.106  25.095   7.503
 2367AUC    AUC 2283  32.500  24.114   7.503
 2368AUC    AUC 2284  32.803  24.114   7.503
 2369AUC    AUC 2285  33.106  24.114   7.503
 2370AUC    AUC 2286  32.803  24.301   7.993
 2371AUC    AUC 2287  32.803  24.604   7.993
 2372AUC    AUC 2288  32.803  24.908   7.993
 2373AUC    AUC 2289  32.803  24.301   7.012
 2374AUC    AUC 2290  32.803  24.604   7.012
 2375AUC    AUC 2291  32.803  24.908   7.012
 2376AUC    AUC 2292  33.048  24.453   7.900
 2377AUC    AUC 2293  33.048  24.756   7.900
 2378AUC    AUC 2294  33.048  24.453   7.106
 2379AUC    AUC 2295  33.048  24.756   7.106
 2380AUC    AUC 2296  32.558  24.453   7.900
 2381AUC    AUC 2297  32.558  24.756   7.900
 2382AUC    AUC 2298  32.558  24.453   7.106
 2383AUC    AUC 2299  32.558  24.756   7.106
 2384AUC    AUC 2300  33.200  24.850   7.351
 2385AUC    AUC 2301  33.200  24.850   7.654
 2386AUC    AUC 2302  32.406  24.850   7.351
 2387AUC    AUC 2303  32.406  24.850   7.654
 2388AUC    AUC 2304  33.200  24.359   7.351
 2389AUC    AUC 2305  33.200  24.359   7.654
 2390AUC    AUC 2306  32.406  24.359   7.351
 2391AUC    AUC 2307  32.406  24.359   7.654
 2392AUC    AUC 2308  32.651  25.002   7.748
 2393AUC    AUC 2309  32.955  25.002   7.748
 2394AUC    AUC 2310  32.651  24.207   7.748
 2395AUC    AUC 2311  32.955  24.207   7.748
 2396AUC    AUC 2312  32.651  25.002   7.257
 2397AUC    AUC 2313  32.955  25.002   7.257
 2398AUC    AUC 2314  32.651  24.207   7.257
 2399AUC    AUC 2315  32.955  24.207   7.257
 2400AUSL   AUS 2316  33.212  24.604   8.083
 2401AUSL   AUS 2317  33.068  24.188   8.013
 2402AUL    AUL 2318  33.294  24.301   8.297
 2403THSLK    S 2319  33.178  24.001   8.153
 2404ETHY    C1 2320  33.214  23.602   8.368
 2405ETHY    C1 2321  33.324  23.172   8.665
 2406ETHY    C1 2322  33.502  22.808   9.000
 2407ETHY    C1 2323  33.736  22.512   9.364
 2408ETHY    C1 2324  34.022  22.295   9.752
 2409ETHY    C1 2325  34.353  22.162  10.156
 2410THSLK    S 2326  33.305  24.552   8.324
 2411ETHY    C1 2327  33.509  24.332   8.665
 2412ETHY    C1 2328  33.773  24.155   9.094
 2413ETHY    C1 2329  34.049  24.079   9.535
 2414ETHY    C1 2330  34.326  24.096   9.980
 2415ETHY    C1 2331  34.596  24.209  10.419
 2416ETHY    C1 2332  34.855  24.418  10.845
 2417AUSL   AUS 2333  32.967  24.453   8.176
 2418AUSL   AUS 2334  32.639  24.756   8.176
 2419AUL    AUL 2335  32.803  24.604   8.484
 2420THSLK    S 2336  33.042  24.398   8.413
 2421ETHY    C1 2337  33.106  24.118   8.765
 2422ETHY    C1 2338  33.209  23.863   9.223
 2423ETHY    C1 2339  33.336  23.704   9.708
 2424ETHY    C1 2340  33.478  23.635  10.208
 2425ETHY    C1 2341  33.632  23.663  10.713
 2426ETHY    C1 2342  33.792  23.787  11.212
 2427THSLK    S 2343  32.554  24.710   8.428
 2428ETHY    C1 2344  32.480  24.560   8.850
 2429ETHY    C1 2345  32.375  24.472   9.367
 2430ETHY    C1 2346  32.253  24.484   9.878
 2431ETHY    C1 2347  32.115  24.585  10.373
 2432ETHY    C1 2348  31.960  24.778  10.840
 2433ETHY    C1 2349  31.791  25.059  11.268
 2434AUSL   AUS 2350  32.967  24.756   8.176
 2435AUSL   AUS 2351  33.313  24.869   7.919
 2436AUL    AUL 2352  33.294  24.908   8.297
 2437THSLK    S 2353  33.052  24.812   8.410
 2438ETHY    C1 2354  33.126  25.093   8.759
 2439ETHY    C1 2355  33.231  25.348   9.217
 2440ETHY    C1 2356  33.353  25.507   9.703
 2441ETHY    C1 2357  33.492  25.576  10.204
 2442ETHY    C1 2358  33.646  25.549  10.708
 2443ETHY    C1 2359  33.815  25.425  11.206
 2444THSLK    S 2360  33.485  24.967   8.080
 2445ETHY    C1 2361  33.848  24.938   8.350
 2446ETHY    C1 2362  34.270  24.994   8.673
 2447ETHY    C1 2363  34.662  25.148   8.989
 2448ETHY    C1 2364  35.016  25.386   9.293
 2449ETHY    C1 2365  35.323  25.707   9.580
 2450ETHY    C1 2366  35.574  26.104   9.844
 2451AUSL   AUS 2367  33.212  24.604   6.923
 2452AUSL   AUS 2368  33.068  25.021   6.992
 2453AUL    AUL 2369  33.294  24.908   6.708
 2454THSLK    S 2370  33.314  24.552   6.687
 2455ETHY    C1 2371  33.527  24.332   6.351
 2456ETHY    C1 2372  33.792  24.155   5.923
 2457ETHY    C1 2373  34.064  24.079   5.479
 2458ETHY    C1 2374  34.338  24.096   5.033
 2459ETHY    C1 2375  34.609  24.209   4.594
 2460ETHY    C1 2376  34.874  24.418   4.173
 2461THSLK    S 2377  33.246  25.132   6.829
 2462ETHY    C1 2378  33.548  25.200   6.497
 2463ETHY    C1 2379  33.867  25.363   6.100
 2464ETHY    C1 2380  34.132  25.610   5.719
 2465ETHY    C1 2381  34.344  25.930   5.362
 2466ETHY    C1 2382  34.497  26.320   5.039
 2467ETHY    C1 2383  34.588  26.772   4.759
 2468AUSL   AUS 2384  32.967  24.453   6.829
 2469AUSL   AUS 2385  33.313  24.340   7.086
 2470AUL    AUL 2386  33.294  24.301   6.708
 2471THSLK    S 2387  33.446  24.148   6.949
 2472ETHY    C1 2388  33.629  23.781   6.752
 2473ETHY    C1 2389  33.901  23.409   6.483
 2474ETHY    C1 2390  34.226  23.120   6.186
 2475ETHY    C1 2391  34.592  22.913   5.874
 2476ETHY    C1 2392  34.996  22.794   5.555
 2477ETHY    C1 2393  35.429  22.769   5.235
 2478THSLK    S 2394  33.052  24.397   6.596
 2479ETHY    C1 2395  33.126  24.116   6.246
 2480ETHY    C1 2396  33.231  23.860   5.788
 2481ETHY    C1 2397  33.353  23.702   5.302
 2482ETHY    C1 2398  33.492  23.633   4.801
 2483ETHY    C1 2399  33.646  23.660   4.297
 2484ETHY    C1 2400  33.815  23.784   3.799
 2485AUSL   AUS 2401  32.967  24.756   6.829
 2486AUSL   AUS 2402  32.639  24.453   6.829
 2487AUL    AUL 2403  32.803  24.604   6.521
 2488THSLK    S 2404  32.547  24.397   6.597
 2489ETHY    C1 2405  32.412  24.119   6.264
 2490ETHY    C1 2406  32.251  23.866   5.822
 2491ETHY    C1 2407  32.099  23.709   5.343
 2492ETHY    C1 2408  31.963  23.640   4.842
 2493ETHY    C1 2409  31.846  23.666   4.328
 2494ETHY    C1 2410  31.753  23.785   3.810
 2495THSLK    S 2411  33.069  24.710   6.583
 2496ETHY    C1 2412  33.215  24.560   6.179
 2497ETHY    C1 2413  33.377  24.469   5.678
 2498ETHY    C1 2414  33.524  24.479   5.173
 2499ETHY    C1 2415  33.657  24.580   4.677
 2500ETHY    C1 2416  33.774  24.775   4.200
 2501ETHY    C1 2417  33.875  25.061   3.754
 2502AUSL   AUS 2418  32.394  24.604   8.083
 2503AUSL   AUS 2419  32.538  25.021   8.013
 2504AUL    AUL 2420  32.312  24.908   8.297
 2505THSLK    S 2421  32.292  24.552   8.319
 2506ETHY    C1 2422  32.080  24.332   8.654
 2507ETHY    C1 2423  31.814  24.155   9.082
 2508ETHY    C1 2424  31.542  24.079   9.526
 2509ETHY    C1 2425  31.268  24.096   9.973
 2510ETHY    C1 2426  30.997  24.209  10.411
 2511ETHY    C1 2427  30.732  24.418  10.832
 2512THSLK    S 2428  32.421  25.145   8.202
 2513ETHY    C1 2429  32.378  25.288   8.632
 2514ETHY    C1 2430  32.267  25.513   9.104
 2515ETHY    C1 2431  32.091  25.790   9.515
 2516ETHY    C1 2432  31.860  26.106   9.863
 2517ETHY    C1 2433  31.574  26.454  10.138
 2518ETHY    C1 2434  31.237  26.827  10.334
 2519AUSL   AUS 2435  32.639  24.453   8.176
 2520AUSL   AUS 2436  32.293  24.340   7.919
 2521AUL    AUL 2437  32.312  24.301   8.297
 2522THSLK    S 2438  32.116  24.177   8.026
 2523ETHY    C1 2439  31.745  23.920   8.082
 2524ETHY    C1 2440  31.323  23.632   8.237
 2525ETHY    C1 2441  30.933  23.377   8.482
 2526ETHY    C1 2442  30.581  23.160   8.803
 2527ETHY    C1 2443  30.275  22.989   9.198
 2528ETHY    C1 2444  30.018  22.868   9.657
 2529THSLK    S 2445  32.537  24.399   8.406
 2530ETHY    C1 2446  32.391  24.123   8.736
 2531ETHY    C1 2447  32.229  23.871   9.178
 2532ETHY    C1 2448  32.082  23.713   9.658
 2533ETHY    C1 2449  31.949  23.643  10.160
 2534ETHY    C1 2450  31.832  23.669  10.674
 2535ETHY    C1 2451  31.731  23.790  11.190
 2536AUSL   AUS 2452  32.394  24.604   6.923
 2537AUSL   AUS 2453  32.538  24.188   6.992
 2538AUL    AUL 2454  32.312  24.301   6.708
 2539THSLK    S 2455  32.301  24.552   6.681
 2540ETHY    C1 2456  32.097  24.332   6.341
 2541ETHY    C1 2457  31.833  24.155   5.911
 2542ETHY    C1 2458  31.557  24.079   5.470
 2543ETHY    C1 2459  31.280  24.096   5.025
 2544ETHY    C1 2460  31.010  24.209   4.586
 2545ETHY    C1 2461  30.751  24.418   4.161
 2546THSLK    S 2462  32.367  24.015   6.878
 2547ETHY    C1 2463  32.072  23.689   6.760
 2548ETHY    C1 2464  31.754  23.322   6.538
 2549ETHY    C1 2465  31.486  22.987   6.233
 2550ETHY    C1 2466  31.272  22.687   5.861
 2551ETHY    C1 2467  31.120  22.429   5.426
 2552ETHY    C1 2468  31.034  22.217   4.937
 2553AUSL   AUS 2469  32.639  24.756   6.829
 2554AUSL   AUS 2470  32.293  24.869   7.086
 2555AUL    AUL 2471  32.312  24.908   6.708
 2556THSLK    S 2472  32.166  24.996   6.895
 2557ETHY    C1 2473  31.989  25.077   6.484
 2558ETHY    C1 2474  31.718  25.217   6.046
 2559ETHY    C1 2475  31.391  25.405   5.679
 2560ETHY    C1 2476  31.022  25.634   5.385
 2561ETHY    C1 2477  30.620  25.901   5.173
 2562ETHY    C1 2478  30.191  26.203   5.047
 2563THSLK    S 2479  32.564  24.712   6.576
 2564ETHY    C1 2480  32.500  24.565   6.150
 2565ETHY    C1 2481  32.397  24.476   5.634
 2566ETHY    C1 2482  32.270  24.487   5.123
 2567ETHY    C1 2483  32.128  24.588   4.629
 2568ETHY    C1 2484  31.975  24.781   4.162
 2569ETHY    C1 2485  31.814  25.064   3.732
 2570AUSL   AUS 2486  33.383  25.013   7.503
 2571AUSL   AUS 2487  33.313  24.869   7.086
 2572AUL    AUL 2488  33.597  25.095   7.199
 2573THSLK    S 2489  33.491  24.968   6.934
 2574ETHY    C1 2490  33.861  24.941   6.671
 2575ETHY    C1 2491  34.283  24.997   6.349
 2576ETHY    C1 2492  34.673  25.151   6.030
 2577ETHY    C1 2493  35.025  25.388   5.724
 2578ETHY    C1 2494  35.332  25.709   5.438
 2579ETHY    C1 2495  35.588  26.108   5.179
 2580THSLK    S 2496  33.649  25.066   7.508
 2581ETHY    C1 2497  34.103  25.088   7.513
 2582ETHY    C1 2498  34.625  25.202   7.514
 2583ETHY    C1 2499  35.108  25.411   7.511
 2584ETHY    C1 2500  35.544  25.701   7.510
 2585ETHY    C1 2501  35.923  26.068   7.510
 2586ETHY    C1 2502  36.237  26.508   7.514
 2587AUSL   AUS 2503  33.477  24.768   7.351
 2588AUSL   AUS 2504  33.477  24.441   7.654
 2589AUL    AUL 2505  33.785  24.604   7.503
 2590THSLK    S 2506  33.733  24.807   7.350
 2591ETHY    C1 2507  34.169  24.699   7.286
 2592ETHY    C1 2508  34.695  24.661   7.201
 2593ETHY    C1 2509  35.210  24.725   7.113
 2594ETHY    C1 2510  35.704  24.879   7.026
 2595ETHY    C1 2511  36.164  25.124   6.945
 2596ETHY    C1 2512  36.583  25.456   6.873
 2597THSLK    S 2513  33.704  24.301   7.663
 2598ETHY    C1 2514  34.023  23.985   7.728
 2599ETHY    C1 2515  34.456  23.681   7.807
 2600ETHY    C1 2516  34.931  23.471   7.887
 2601ETHY    C1 2517  35.434  23.350   7.971
 2602ETHY    C1 2518  35.954  23.324   8.058
 2603ETHY    C1 2519  36.482  23.394   8.147
 2604AUSL   AUS 2520  33.477  24.768   7.654
 2605AUSL   AUS 2521  33.219  25.115   7.767
 2606AUL    AUL 2522  33.597  25.095   7.806
 2607THSLK    S 2523  33.402  25.229   7.926
 2608ETHY    C1 2524  33.785  25.347   8.140
 2609ETHY    C1 2525  34.203  25.570   8.388
 2610ETHY    C1 2526  34.562  25.875   8.622
 2611ETHY    C1 2527  34.859  26.248   8.840
 2612ETHY    C1 2528  35.084  26.682   9.038
 2613ETHY    C1 2529  35.231  27.170   9.215
 2614THSLK    S 2530  33.731  24.807   7.665
 2615ETHY    C1 2531  34.166  24.699   7.740
 2616ETHY    C1 2532  34.692  24.661   7.826
 2617ETHY    C1 2533  35.207  24.724   7.910
 2618ETHY    C1 2534  35.701  24.878   7.993
 2619ETHY    C1 2535  36.162  25.123   8.075
 2620ETHY    C1 2536  36.579  25.455   8.155
 2621AUSL   AUS 2537  32.223  25.013   7.503
 2622AUSL   AUS 2538  32.293  24.869   7.919
 2623AUL    AUL 2539  32.009  25.095   7.806
 2624THSLK    S 2540  32.160  24.988   8.109
 2625ETHY    C1 2541  31.977  25.060   8.519
 2626ETHY    C1 2542  31.705  25.200   8.957
 2627ETHY    C1 2543  31.380  25.391   9.324
 2628ETHY    C1 2544  31.014  25.622   9.619
 2629ETHY    C1 2545  30.611  25.889   9.831
 2630ETHY    C1 2546  30.177  26.185   9.956
 2631THSLK    S 2547  32.012  25.154   7.508
 2632ETHY    C1 2548  31.790  25.551   7.513
 2633ETHY    C1 2549  31.454  25.966   7.514
 2634ETHY    C1 2550  31.051  26.305   7.511
 2635ETHY    C1 2551  30.597  26.566   7.510
 2636ETHY    C1 2552  30.098  26.740   7.510
 2637ETHY    C1 2553  29.565  26.824   7.514
 2638AUSL   AUS 2554  32.129  24.768   7.351
 2639AUSL   AUS 2555  32.387  25.115   7.238
 2640AUL    AUL 2556  32.009  25.095   7.199
 2641THSLK    S 2557  31.902  24.883   7.303
 2642ETHY    C1 2558  31.583  25.083   7.049
 2643ETHY    C1 2559  31.150  25.289   6.813
 2644ETHY    C1 2560  30.675  25.455   6.661
 2645ETHY    C1 2561  30.172  25.584   6.590
 2646ETHY    C1 2562  29.652  25.674   6.605
 2647ETHY    C1 2563  29.124  25.722   6.708
 2648THSLK    S 2564  32.275  25.278   7.060
 2649ETHY    C1 2565  32.196  25.588   6.737
 2650ETHY    C1 2566  32.021  25.962   6.397
 2651ETHY    C1 2567  31.767  26.330   6.120
 2652ETHY    C1 2568  31.447  26.687   5.909
 2653ETHY    C1 2569  31.066  27.025   5.770
 2654ETHY    C1 2570  30.631  27.339   5.709
 2655AUSL   AUS 2571  32.129  24.768   7.654
 2656AUSL   AUS 2572  32.129  24.441   7.351
 2657AUL    AUL 2573  31.821  24.604   7.503
 2658THSLK    S 2574  31.875  24.368   7.394
 2659ETHY    C1 2575  31.440  24.350   7.524
 2660ETHY    C1 2576  30.914  24.290   7.597
 2661ETHY    C1 2577  30.399  24.186   7.578
 2662ETHY    C1 2578  29.905  24.043   7.477
 2663ETHY    C1 2579  29.445  23.860   7.294
 2664ETHY    C1 2580  29.027  23.640   7.034
 2665THSLK    S 2581  31.901  24.874   7.707
 2666ETHY    C1 2582  31.580  25.065   7.966
 2667ETHY    C1 2583  31.147  25.269   8.202
 2668ETHY    C1 2584  30.672  25.440   8.352
 2669ETHY    C1 2585  30.170  25.572   8.422
 2670ETHY    C1 2586  29.650  25.660   8.407
 2671ETHY    C1 2587  29.121  25.701   8.308
 2672AUSL   AUS 2588  33.383  24.195   7.503
 2673AUSL   AUS 2589  33.313  24.340   7.919
 2674AUL    AUL 2590  33.597  24.114   7.806
 2675THSLK    S 2591  33.594  24.054   7.508
 2676ETHY    C1 2592  33.816  23.658   7.513
 2677ETHY    C1 2593  34.152  23.243   7.514
 2678ETHY    C1 2594  34.555  22.904   7.511
 2679ETHY    C1 2595  35.009  22.643   7.510
 2680ETHY    C1 2596  35.508  22.469   7.510
 2681ETHY    C1 2597  36.041  22.385   7.514
 2682THSLK    S 2598  33.440  24.149   8.064
 2683ETHY    C1 2599  33.617  23.784   8.270
 2684ETHY    C1 2600  33.888  23.412   8.540
 2685ETHY    C1 2601  34.215  23.123   8.834
 2686ETHY    C1 2602  34.584  22.915   9.142
 2687ETHY    C1 2603  34.986  22.797   9.462
 2688ETHY    C1 2604  35.415  22.772   9.789
 2689AUSL   AUS 2605  33.477  24.441   7.351
 2690AUSL   AUS 2606  33.219  24.094   7.238
 2691AUL    AUL 2607  33.597  24.114   7.199
 2692THSLK    S 2608  33.705  24.301   7.353
 2693ETHY    C1 2609  34.026  23.984   7.298
 2694ETHY    C1 2610  34.459  23.681   7.221
 2695ETHY    C1 2611  34.934  23.471   7.136
 2696ETHY    C1 2612  35.436  23.350   7.048
 2697ETHY    C1 2613  35.956  23.323   6.963
 2698ETHY    C1 2614  36.485  23.394   6.881
 2699THSLK    S 2615  33.335  23.905   7.108
 2700ETHY    C1 2616  33.419  23.476   6.984
 2701ETHY    C1 2617  33.594  23.004   6.803
 2702ETHY    C1 2618  33.847  22.593   6.593
 2703ETHY    C1 2619  34.165  22.245   6.366
 2704ETHY    C1 2620  34.547  21.970   6.126
 2705ETHY    C1 2621  34.985  21.773   5.880
 2706AUSL   AUS 2622  32.223  24.195   7.503
 2707AUSL   AUS 2623  32.293  24.340   7.086
 2708AUL    AUL 2624  32.009  24.114   7.199
 2709THSLK    S 2625  32.122  24.169   6.978
 2710ETHY    C1 2626  31.758  23.904   6.921
 2711ETHY    C1 2627  31.336  23.614   6.766
 2712ETHY    C1 2628  30.944  23.362   6.521
 2713ETHY    C1 2629  30.590  23.149   6.200
 2714ETHY    C1 2630  30.283  22.976   5.806
 2715ETHY    C1 2631  30.032  22.849   5.346
 2716THSLK    S 2632  31.957  24.143   7.508
 2717ETHY    C1 2633  31.503  24.121   7.513
 2718ETHY    C1 2634  30.981  24.007   7.514
 2719ETHY    C1 2635  30.499  23.798   7.511
 2720ETHY    C1 2636  30.062  23.508   7.510
 2721ETHY    C1 2637  29.683  23.141   7.510
 2722ETHY    C1 2638  29.370  22.701   7.514
 2723AUSL   AUS 2639  32.129  24.441   7.654
 2724AUSL   AUS 2640  32.387  24.094   7.767
 2725AUL    AUL 2641  32.009  24.114   7.806
 2726THSLK    S 2642  32.199  23.954   7.878
 2727ETHY    C1 2643  31.812  23.717   7.893
 2728ETHY    C1 2644  31.394  23.397   7.982
 2729ETHY    C1 2645  31.036  23.048   8.149
 2730ETHY    C1 2646  30.741  22.684   8.382
 2731ETHY    C1 2647  30.516  22.313   8.683
 2732ETHY    C1 2648  30.365  21.942   9.045
 2733THSLK    S 2649  31.873  24.378   7.616
 2734ETHY    C1 2650  31.437  24.368   7.491
 2735ETHY    C1 2651  30.911  24.309   7.419
 2736ETHY    C1 2652  30.396  24.202   7.436
 2737ETHY    C1 2653  29.902  24.056   7.535
 2738ETHY    C1 2654  29.442  23.874   7.718
 2739ETHY    C1 2655  29.023  23.661   7.983
 2740AUSL   AUS 2656  32.803  25.184   7.912
 2741AUSL   AUS 2657  32.387  25.115   7.767
 2742AUL    AUL 2658  32.500  25.399   7.993
 2743THSLK    S 2659  32.271  25.271   7.952
 2744ETHY    C1 2660  32.187  25.573   8.280
 2745ETHY    C1 2661  32.012  25.946   8.621
 2746ETHY    C1 2662  31.759  26.317   8.895
 2747ETHY    C1 2663  31.441  26.676   9.105
 2748ETHY    C1 2664  31.059  27.014   9.244
 2749ETHY    C1 2665  30.621  27.322   9.309
 2750THSLK    S 2666  32.845  25.406   8.035
 2751ETHY    C1 2667  33.029  25.681   8.347
 2752ETHY    C1 2668  33.179  26.061   8.691
 2753ETHY    C1 2669  33.245  26.484   8.998
 2754ETHY    C1 2670  33.232  26.935   9.264
 2755ETHY    C1 2671  33.135  27.404   9.485
 2756ETHY    C1 2672  32.955  27.883   9.656
 2757AUSL   AUS 2673  32.651  25.278   7.666
 2758AUSL   AUS 2674  32.955  25.278   7.339
 2759AUL    AUL 2675  32.803  25.586   7.503
 2760THSLK    S 2676  32.694  25.522   7.776
 2761ETHY    C1 2677  32.838  25.916   7.951
 2762ETHY    C1 2678  32.925  26.410   8.137
 2763ETHY    C1 2679  32.913  26.911   8.294
 2764ETHY    C1 2680  32.812  27.409   8.425
 2765ETHY    C1 2681  32.620  27.890   8.527
 2766ETHY    C1 2682  32.340  28.345   8.600
 2767THSLK    S 2683  33.010  25.509   7.243
 2768ETHY    C1 2684  33.286  25.839   7.096
 2769ETHY    C1 2685  33.536  26.280   6.927
 2770ETHY    C1 2686  33.692  26.757   6.771
 2771ETHY    C1 2687  33.761  27.259   6.635
 2772ETHY    C1 2688  33.737  27.775   6.525
 2773ETHY    C1 2689  33.620  28.295   6.443
 2774AUSL   AUS 2690  32.955  25.278   7.666
 2775AUSL   AUS 2691  33.068  25.021   8.013
 2776AUL    AUL 2692  33.106  25.399   7.993
 2777THSLK    S 2693  33.239  25.129   8.183
 2778ETHY    C1 2694  33.534  25.194   8.523
 2779ETHY    C1 2695  33.852  25.356   8.920
 2780ETHY    C1 2696  34.120  25.605   9.298
 2781ETHY    C1 2697  34.334  25.927   9.653
 2782ETHY    C1 2698  34.486  26.315   9.976
 2783ETHY    C1 2699  34.572  26.765  10.262
 2784THSLK    S 2700  33.008  25.507   7.772
 2785ETHY    C1 2701  33.280  25.835   7.929
 2786ETHY    C1 2702  33.530  26.275   8.100
 2787ETHY    C1 2703  33.688  26.754   8.251
 2788ETHY    C1 2704  33.757  27.256   8.383
 2789ETHY    C1 2705  33.733  27.771   8.494
 2790ETHY    C1 2706  33.614  28.290   8.585
 2791AUSL   AUS 2707  32.803  24.024   7.912
 2792AUSL   AUS 2708  33.219  24.094   7.767
 2793AUL    AUL 2709  33.106  23.810   7.993
 2794THSLK    S 2710  32.756  23.774   7.989
 2795ETHY    C1 2711  32.566  23.378   8.103
 2796ETHY    C1 2712  32.415  22.900   8.289
 2797ETHY    C1 2713  32.352  22.435   8.528
 2798ETHY    C1 2714  32.367  21.993   8.809
 2799ETHY    C1 2715  32.463  21.586   9.132
 2800ETHY    C1 2716  32.638  21.223   9.489
 2801THSLK    S 2717  33.331  23.907   7.907
 2802ETHY    C1 2718  33.410  23.479   8.040
 2803ETHY    C1 2719  33.585  23.009   8.222
 2804ETHY    C1 2720  33.839  22.597   8.428
 2805ETHY    C1 2721  34.159  22.248   8.652
 2806ETHY    C1 2722  34.540  21.973   8.893
 2807ETHY    C1 2723  34.975  21.777   9.147
 2808AUSL   AUS 2724  32.651  23.931   7.666
 2809AUSL   AUS 2725  32.538  24.188   8.013
 2810AUL    AUL 2726  32.500  23.810   7.993
 2811THSLK    S 2727  32.596  23.695   7.745
 2812ETHY    C1 2728  32.321  23.336   7.788
 2813ETHY    C1 2729  32.070  22.871   7.869
 2814ETHY    C1 2730  31.914  22.381   7.981
 2815ETHY    C1 2731  31.845  21.882   8.122
 2816ETHY    C1 2732  31.869  21.382   8.292
 2817ETHY    C1 2733  31.986  20.894   8.489
 2818THSLK    S 2734  32.360  24.022   8.129
 2819ETHY    C1 2735  32.058  23.704   8.248
 2820ETHY    C1 2736  31.739  23.337   8.471
 2821ETHY    C1 2737  31.474  23.000   8.776
 2822ETHY    C1 2738  31.262  22.698   9.147
 2823ETHY    C1 2739  31.109  22.440   9.582
 2824ETHY    C1 2740  31.018  22.233  10.072
 2825AUSL   AUS 2741  32.955  23.931   7.666
 2826AUSL   AUS 2742  32.651  23.931   7.339
 2827AUL    AUL 2743  32.803  23.623   7.503
 2828THSLK    S 2744  32.598  23.692   7.270
 2829ETHY    C1 2745  32.326  23.330   7.236
 2830ETHY    C1 2746  32.076  22.865   7.157
 2831ETHY    C1 2747  31.919  22.376   7.041
 2832ETHY    C1 2748  31.849  21.877   6.896
 2833ETHY    C1 2749  31.873  21.378   6.727
 2834ETHY    C1 2750  31.992  20.887   6.538
 2835THSLK    S 2751  32.909  23.679   7.749
 2836ETHY    C1 2752  32.762  23.253   7.811
 2837ETHY    C1 2753  32.676  22.735   7.906
 2838ETHY    C1 2754  32.688  22.222   8.025
 2839ETHY    C1 2755  32.790  21.727   8.165
 2840ETHY    C1 2756  32.982  21.262   8.325
 2841ETHY    C1 2757  33.260  20.836   8.504
 2842AUSL   AUS 2758  32.803  25.184   7.094
 2843AUSL   AUS 2759  33.219  25.115   7.238
 2844AUL    AUL 2760  33.106  25.399   7.012
 2845THSLK    S 2761  32.850  25.411   6.977
 2846ETHY    C1 2762  33.040  25.690   6.674
 2847ETHY    C1 2763  33.191  26.071   6.330
 2848ETHY    C1 2764  33.255  26.491   6.021
 2849ETHY    C1 2765  33.239  26.941   5.752
 2850ETHY    C1 2766  33.143  27.411   5.532
 2851ETHY    C1 2767  32.968  27.894   5.366
 2852THSLK    S 2768  33.407  25.231   7.089
 2853ETHY    C1 2769  33.794  25.351   6.883
 2854ETHY    C1 2770  34.212  25.574   6.637
 2855ETHY    C1 2771  34.570  25.878   6.400
 2856ETHY    C1 2772  34.865  26.250   6.178
 2857ETHY    C1 2773  35.090  26.685   5.981
 2858ETHY    C1 2774  35.241  27.174   5.811
 2859AUSL   AUS 2775  32.651  25.278   7.339
 2860AUSL   AUS 2776  32.538  25.021   6.992
 2861AUL    AUL 2777  32.500  25.399   7.012
 2862THSLK    S 2778  32.697  25.525   7.239
 2863ETHY    C1 2779  32.844  25.922   7.074
 2864ETHY    C1 2780  32.930  26.416   6.889
 2865ETHY    C1 2781  32.918  26.917   6.727
 2866ETHY    C1 2782  32.816  27.413   6.593
 2867ETHY    C1 2783  32.624  27.894   6.492
 2868ETHY    C1 2784  32.346  28.352   6.427
 2869THSLK    S 2785  32.428  25.153   6.805
 2870ETHY    C1 2786  32.392  25.302   6.377
 2871ETHY    C1 2787  32.282  25.528   5.906
 2872ETHY    C1 2788  32.104  25.803   5.494
 2873ETHY    C1 2789  31.870  26.116   5.145
 2874ETHY    C1 2790  31.584  26.465   4.870
 2875ETHY    C1 2791  31.253  26.843   4.675
 2876AUSL   AUS 2792  32.803  24.024   7.094
 2877AUSL   AUS 2793  32.387  24.094   7.238
 2878AUL    AUL 2794  32.500  23.810   7.012
 2879THSLK    S 2795  32.204  23.946   7.134
 2880ETHY    C1 2796  31.821  23.702   7.124
 2881ETHY    C1 2797  31.403  23.381   7.035
 2882ETHY    C1 2798  31.044  23.035   6.866
 2883ETHY    C1 2799  30.747  22.674   6.631
 2884ETHY    C1 2800  30.522  22.302   6.331
 2885ETHY    C1 2801  30.375  21.925   5.974
 2886THSLK    S 2802  32.761  23.769   7.024
 2887ETHY    C1 2803  32.577  23.368   6.917
 2888ETHY    C1 2804  32.427  22.890   6.732
 2889ETHY    C1 2805  32.361  22.427   6.491
 2890ETHY    C1 2806  32.374  21.987   6.206
 2891ETHY    C1 2807  32.471  21.580   5.885
 2892ETHY    C1 2808  32.651  21.212   5.533
 2893AUSL   AUS 2809  32.955  23.931   7.339
 2894AUSL   AUS 2810  33.068  24.188   6.992
 2895AUL    AUL 2811  33.106  23.810   7.012
 2896THSLK    S 2812  32.912  23.677   7.266
 2897ETHY    C1 2813  32.768  23.249   7.213
 2898ETHY    C1 2814  32.681  22.730   7.120
 2899ETHY    C1 2815  32.693  22.218   6.997
 2900ETHY    C1 2816  32.794  21.724   6.854
 2901ETHY    C1 2817  32.986  21.259   6.695
 2902ETHY    C1 2818  33.266  20.831   6.523
 2903THSLK    S 2819  33.185  23.998   6.859
 2904ETHY    C1 2820  33.229  23.596   6.651
 2905ETHY    C1 2821  33.339  23.165   6.355
 2906ETHY    C1 2822  33.515  22.802   6.017
 2907ETHY    C1 2823  33.746  22.508   5.651
 2908ETHY    C1 2824  34.032  22.291   5.264
 2909ETHY    C1 2825  34.369  22.155   4.865
 2910AUC    AUC 2826  12.902  30.045   7.503
 2911AUC    AUC 2827  13.147  30.045   7.351
 2912AUC    AUC 2828  13.147  30.045   7.654
 2913AUC    AUC 2829  12.657  30.045   7.351
 2914AUC    AUC 2830  12.657  30.045   7.654
 2915AUC    AUC 2831  12.750  30.291   7.503
 2916AUC    AUC 2832  13.054  30.291   7.503
 2917AUC    AUC 2833  12.750  29.800   7.503
 2918AUC    AUC 2834  13.054  29.800   7.503
 2919AUC    AUC 2835  12.902  29.894   7.748
 2920AUC    AUC 2836  12.902  30.197   7.748
 2921AUC    AUC 2837  12.902  29.894   7.257
 2922AUC    AUC 2838  12.902  30.197   7.257
 2923AUC    AUC 2839  13.393  30.045   7.199
 2924AUC    AUC 2840  13.393  30.045   7.503
 2925AUC    AUC 2841  13.393  30.045   7.806
 2926AUC    AUC 2842  12.411  30.045   7.199
 2927AUC    AUC 2843  12.411  30.045   7.503
 2928AUC    AUC 2844  12.411  30.045   7.806
 2929AUC    AUC 2845  12.599  30.536   7.503
 2930AUC    AUC 2846  12.902  30.536   7.503
 2931AUC    AUC 2847  13.205  30.536   7.503
 2932AUC    AUC 2848  12.599  29.555   7.503
 2933AUC    AUC 2849  12.902  29.555   7.503
 2934AUC    AUC 2850  13.205  29.555   7.503
 2935AUC    AUC 2851  12.902  29.742   7.993
 2936AUC    AUC 2852  12.902  30.045   7.993
 2937AUC    AUC 2853  12.902  30.349   7.993
 2938AUC    AUC 2854  12.902  29.742   7.012
 2939AUC    AUC 2855  12.902  30.045   7.012
 2940AUC    AUC 2856  12.902  30.349   7.012
 2941AUC    AUC 2857  13.147  29.894   7.900
 2942AUC    AUC 2858  13.147  30.197   7.900
 2943AUC    AUC 2859  13.147  29.894   7.106
 2944AUC    AUC 2860  13.147  30.197   7.106
 2945AUC    AUC 2861  12.657  29.894   7.900
 2946AUC    AUC 2862  12.657  30.197   7.900
 2947AUC    AUC 2863  12.657  29.894   7.106
 2948AUC    AUC 2864  12.657  30.197   7.106
 2949AUC    AUC 2865  13.299  30.291   7.351
 2950AUC    AUC 2866  13.299  30.291   7.654
 2951AUC    AUC 2867  12.505  30.291   7.351
 2952AUC    AUC 2868  12.505  30.291   7.654
 2953AUC    AUC 2869  13.299  29.800   7.351
 2954AUC    AUC 2870  13.299  29.800   7.654
 2955AUC    AUC 2871  12.505  29.800   7.351
 2956AUC    AUC 2872  12.505  29.800   7.654
 2957AUC    AUC 2873  12.750  30.443   7.748
 2958AUC    AUC 2874  13.054  30.443   7.748
 2959AUC    AUC 2875  12.750  29.648   7.748
 2960AUC    AUC 2876  13.054  29.648   7.748
 2961AUC    AUC 2877  12.750  30.443   7.257
 2962AUC    AUC 2878  13.054  30.443   7.257
 2963AUC    AUC 2879  12.750  29.648   7.257
 2964AUC    AUC 2880  13.054  29.648   7.257
 2965AUSL   AUS 2881  13.311  30.045   8.083
 2966AUSL   AUS 2882  13.167  29.629   8.013
 2967AUL    AUL 2883  13.393  29.742   8.297
 2968THSLK    S 2884  13.277  29.442   8.153
 2969ETHY    C1 2885  13.313  29.043   8.368
 2970ETHY    C1 2886  13.423  28.613   8.665
 2971ETHY    C1 2887  13.601  28.249   9.000
 2972ETHY    C1 2888  13.835  27.953   9.364
 2973ETHY    C1 2889  14.121  27.736   9.752
 2974ETHY    C1 2890  14.452  27.603  10.156
 2975THSLK    S 2891  13.404  29.993   8.324
 2976ETHY    C1 2892  13.608  29.773   8.665
 2977ETHY    C1 2893  13.872  29.596   9.094
 2978ETHY    C1 2894  14.148  29.520   9.535
 2979ETHY    C1 2895  14.425  29.537   9.980
 2980ETHY    C1 2896  14.695  29.650  10.419
 2981ETHY    C1 2897  14.954  29.859  10.845
 2982AUSL   AUS 2898  13.066  29.894   8.176
 2983AUSL   AUS 2899  12.738  30.197   8.176
 2984AUL    AUL 2900  12.902  30.045   8.484
 2985THSLK    S 2901  13.141  29.839   8.413
 2986ETHY    C1 2902  13.205  29.559   8.765
 2987ETHY    C1 2903  13.308  29.304   9.223
 2988ETHY    C1 2904  13.435  29.145   9.708
 2989ETHY    C1 2905  13.577  29.076  10.208
 2990ETHY    C1 2906  13.731  29.104  10.713
 2991ETHY    C1 2907  13.891  29.228  11.212
 2992THSLK    S 2908  12.653  30.151   8.428
 2993ETHY    C1 2909  12.579  30.001   8.850
 2994ETHY    C1 2910  12.474  29.913   9.367
 2995ETHY    C1 2911  12.352  29.925   9.878
 2996ETHY    C1 2912  12.214  30.026  10.373
 2997ETHY    C1 2913  12.059  30.219  10.840
 2998ETHY    C1 2914  11.890  30.500  11.268
 2999AUSL   AUS 2915  13.066  30.197   8.176
 3000AUSL   AUS 2916  13.412  30.310   7.919
 3001AUL    AUL 2917  13.393  30.349   8.297
 3002THSLK    S 2918  13.151  30.253   8.410
 3003ETHY    C1 2919  13.225  30.534   8.759
 3004ETHY    C1 2920  13.330  30.789   9.217
 3005ETHY    C1 2921  13.452  30.948   9.703
 3006ETHY    C1 2922  13.591  31.017  10.204
 3007ETHY    C1 2923  13.745  30.990  10.708
 3008ETHY    C1 2924  13.914  30.866  11.206
 3009THSLK    S 2925  13.584  30.408   8.080
 3010ETHY    C1 2926  13.947  30.379   8.350
 3011ETHY    C1 2927  14.369  30.435   8.673
 3012ETHY    C1 2928  14.761  30.589   8.989
 3013ETHY    C1 2929  15.115  30.827   9.293
 3014ETHY    C1 2930  15.422  31.148   9.580
 3015ETHY    C1 2931  15.673  31.545   9.844
 3016AUSL   AUS 2932  13.311  30.045   6.923
 3017AUSL   AUS 2933  13.167  30.462   6.992
 3018AUL    AUL 2934  13.393  30.349   6.708
 3019THSLK    S 2935  13.413  29.993   6.687
 3020ETHY    C1 2936  13.626  29.773   6.351
 3021ETHY    C1 2937  13.891  29.596   5.923
 3022ETHY    C1 2938  14.163  29.520   5.479
 3023ETHY    C1 2939  14.437  29.537   5.033
 3024ETHY    C1 2940  14.708  29.650   4.594
 3025ETHY    C1 2941  14.973  29.859   4.173
 3026THSLK    S 2942  13.345  30.573   6.829
 3027ETHY    C1 2943  13.647  30.641   6.497
 3028ETHY    C1 2944  13.966  30.804   6.100
 3029ETHY    C1 2945  14.231  31.051   5.719
 3030ETHY    C1 2946  14.443  31.371   5.362
 3031ETHY    C1 2947  14.596  31.761   5.039
 3032ETHY    C1 2948  14.687  32.213   4.759
 3033AUSL   AUS 2949  13.066  29.894   6.829
 3034AUSL   AUS 2950  13.412  29.781   7.086
 3035AUL    AUL 2951  13.393  29.742   6.708
 3036THSLK    S 2952  13.545  29.589   6.949
 3037ETHY    C1 2953  13.728  29.222   6.752
 3038ETHY    C1 2954  14.000  28.850   6.483
 3039ETHY    C1 2955  14.325  28.561   6.186
 3040ETHY    C1 2956  14.691  28.354   5.874
 3041ETHY    C1 2957  15.095  28.235   5.555
 3042ETHY    C1 2958  15.528  28.210   5.235
 3043THSLK    S 2959  13.151  29.838   6.596
 3044ETHY    C1 2960  13.225  29.557   6.246
 3045ETHY    C1 2961  13.330  29.301   5.788
 3046ETHY    C1 2962  13.452  29.143   5.302
 3047ETHY    C1 2963  13.591  29.074   4.801
 3048ETHY    C1 2964  13.745  29.101   4.297
 3049ETHY    C1 2965  13.914  29.225   3.799
 3050AUSL   AUS 2966  13.066  30.197   6.829
 3051AUSL   AUS 2967  12.738  29.894   6.829
 3052AUL    AUL 2968  12.902  30.045   6.521
 3053THSLK    S 2969  12.646  29.838   6.597
 3054ETHY    C1 2970  12.511  29.560   6.264
 3055ETHY    C1 2971  12.350  29.307   5.822
 3056ETHY    C1 2972  12.198  29.150   5.343
 3057ETHY    C1 2973  12.062  29.081   4.842
 3058ETHY    C1 2974  11.945  29.107   4.328
 3059ETHY    C1 2975  11.852  29.226   3.810
 3060THSLK    S 2976  13.168  30.151   6.583
 3061ETHY    C1 2977  13.314  30.001   6.179
 3062ETHY    C1 2978  13.476  29.910   5.678
 3063ETHY    C1 2979  13.623  29.920   5.173
 3064ETHY    C1 2980  13.756  30.021   4.677
 3065ETHY    C1 2981  13.873  30.216   4.200
 3066ETHY    C1 2982  13.974  30.502   3.754
 3067AUSL   AUS 2983  12.493  30.045   8.083
 3068AUSL   AUS 2984  12.637  30.462   8.013
 3069AUL    AUL 2985  12.411  30.349   8.297
 3070THSLK    S 2986  12.391  29.993   8.319
 3071ETHY    C1 2987  12.179  29.773   8.654
 3072ETHY    C1 2988  11.913  29.596   9.082
 3073ETHY    C1 2989  11.641  29.520   9.526
 3074ETHY    C1 2990  11.367  29.537   9.973
 3075ETHY    C1 2991  11.096  29.650  10.411
 3076ETHY    C1 2992  10.831  29.859  10.832
 3077THSLK    S 2993  12.520  30.586   8.202
 3078ETHY    C1 2994  12.477  30.729   8.632
 3079ETHY    C1 2995  12.366  30.954   9.104
 3080ETHY    C1 2996  12.190  31.231   9.515
 3081ETHY    C1 2997  11.959  31.547   9.863
 3082ETHY    C1 2998  11.673  31.895  10.138
 3083ETHY    C1 2999  11.336  32.268  10.334
 3084AUSL   AUS 3000  12.738  29.894   8.176
 3085AUSL   AUS 3001  12.392  29.781   7.919
 3086AUL    AUL 3002  12.411  29.742   8.297
 3087THSLK    S 3003  12.215  29.618   8.026
 3088ETHY    C1 3004  11.844  29.361   8.082
 3089ETHY    C1 3005  11.422  29.073   8.237
 3090ETHY    C1 3006  11.032  28.818   8.482
 3091ETHY    C1 3007  10.680  28.601   8.803
 3092ETHY    C1 3008  10.374  28.430   9.198
 3093ETHY    C1 3009  10.117  28.309   9.657
 3094THSLK    S 3010  12.636  29.840   8.406
 3095ETHY    C1 3011  12.490  29.564   8.736
 3096ETHY    C1 3012  12.328  29.312   9.178
 3097ETHY    C1 3013  12.181  29.154   9.658
 3098ETHY    C1 3014  12.048  29.084  10.160
 3099ETHY    C1 3015  11.931  29.110  10.674
 3100ETHY    C1 3016  11.830  29.231  11.190
 3101AUSL   AUS 3017  12.493  30.045   6.923
 3102AUSL   AUS 3018  12.637  29.629   6.992
 3103AUL    AUL 3019  12.411  29.742   6.708
 3104THSLK    S 3020  12.400  29.993   6.681
 3105ETHY    C1 3021  12.196  29.773   6.341
 3106ETHY    C1 3022  11.932  29.596   5.911
 3107ETHY    C1 3023  11.656  29.520   5.470
 3108ETHY    C1 3024  11.379  29.537   5.025
 3109ETHY    C1 3025  11.109  29.650   4.586
 3110ETHY    C1 3026  10.850  29.859   4.161
 3111THSLK    S 3027  12.466  29.456   6.878
 3112ETHY    C1 3028  12.171  29.130   6.760
 3113ETHY    C1 3029  11.853  28.763   6.538
 3114ETHY    C1 3030  11.585  28.428   6.233
 3115ETHY    C1 3031  11.371  28.128   5.861
 3116ETHY    C1 3032  11.219  27.870   5.426
 3117ETHY    C1 3033  11.133  27.658   4.937
 3118AUSL   AUS 3034  12.738  30.197   6.829
 3119AUSL   AUS 3035  12.392  30.310   7.086
 3120AUL    AUL 3036  12.411  30.349   6.708
 3121THSLK    S 3037  12.265  30.437   6.895
 3122ETHY    C1 3038  12.088  30.518   6.484
 3123ETHY    C1 3039  11.817  30.658   6.046
 3124ETHY    C1 3040  11.490  30.846   5.679
 3125ETHY    C1 3041  11.121  31.075   5.385
 3126ETHY    C1 3042  10.719  31.342   5.173
 3127ETHY    C1 3043  10.290  31.644   5.047
 3128THSLK    S 3044  12.663  30.153   6.576
 3129ETHY    C1 3045  12.599  30.006   6.150
 3130ETHY    C1 3046  12.496  29.917   5.634
 3131ETHY    C1 3047  12.369  29.928   5.123
 3132ETHY    C1 3048  12.227  30.029   4.629
 3133ETHY    C1 3049  12.074  30.222   4.162
 3134ETHY    C1 3050  11.913  30.505   3.732
 3135AUSL   AUS 3051  13.482  30.454   7.503
 3136AUSL   AUS 3052  13.412  30.310   7.086
 3137AUL    AUL 3053  13.696  30.536   7.199
 3138THSLK    S 3054  13.590  30.409   6.934
 3139ETHY    C1 3055  13.960  30.382   6.671
 3140ETHY    C1 3056  14.382  30.438   6.349
 3141ETHY    C1 3057  14.772  30.592   6.030
 3142ETHY    C1 3058  15.124  30.829   5.724
 3143ETHY    C1 3059  15.431  31.150   5.438
 3144ETHY    C1 3060  15.687  31.549   5.179
 3145THSLK    S 3061  13.748  30.507   7.508
 3146ETHY    C1 3062  14.202  30.529   7.513
 3147ETHY    C1 3063  14.724  30.643   7.514
 3148ETHY    C1 3064  15.207  30.852   7.511
 3149ETHY    C1 3065  15.643  31.142   7.510
 3150ETHY    C1 3066  16.022  31.509   7.510
 3151ETHY    C1 3067  16.336  31.949   7.514
 3152AUSL   AUS 3068  13.576  30.209   7.351
 3153AUSL   AUS 3069  13.576  29.882   7.654
 3154AUL    AUL 3070  13.884  30.045   7.503
 3155THSLK    S 3071  13.832  30.248   7.350
 3156ETHY    C1 3072  14.268  30.140   7.286
 3157ETHY    C1 3073  14.794  30.102   7.201
 3158ETHY    C1 3074  15.309  30.166   7.113
 3159ETHY    C1 3075  15.803  30.320   7.026
 3160ETHY    C1 3076  16.263  30.565   6.945
 3161ETHY    C1 3077  16.682  30.897   6.873
 3162THSLK    S 3078  13.803  29.742   7.663
 3163ETHY    C1 3079  14.122  29.426   7.728
 3164ETHY    C1 3080  14.555  29.122   7.807
 3165ETHY    C1 3081  15.030  28.912   7.887
 3166ETHY    C1 3082  15.533  28.791   7.971
 3167ETHY    C1 3083  16.053  28.765   8.058
 3168ETHY    C1 3084  16.581  28.835   8.147
 3169AUSL   AUS 3085  13.576  30.209   7.654
 3170AUSL   AUS 3086  13.318  30.556   7.767
 3171AUL    AUL 3087  13.696  30.536   7.806
 3172THSLK    S 3088  13.501  30.670   7.926
 3173ETHY    C1 3089  13.884  30.788   8.140
 3174ETHY    C1 3090  14.302  31.011   8.388
 3175ETHY    C1 3091  14.661  31.316   8.622
 3176ETHY    C1 3092  14.958  31.689   8.840
 3177ETHY    C1 3093  15.183  32.123   9.038
 3178ETHY    C1 3094  15.330  32.611   9.215
 3179THSLK    S 3095  13.830  30.248   7.665
 3180ETHY    C1 3096  14.265  30.140   7.740
 3181ETHY    C1 3097  14.791  30.102   7.826
 3182ETHY    C1 3098  15.306  30.165   7.910
 3183ETHY    C1 3099  15.800  30.319   7.993
 3184ETHY    C1 3100  16.261  30.564   8.075
 3185ETHY    C1 3101  16.678  30.896   8.155
 3186AUSL   AUS 3102  12.322  30.454   7.503
 3187AUSL   AUS 3103  12.392  30.310   7.919
 3188AUL    AUL 3104  12.108  30.536   7.806
 3189THSLK    S 3105  12.259  30.429   8.109
 3190ETHY    C1 3106  12.076  30.501   8.519
 3191ETHY    C1 3107  11.804  30.641   8.957
 3192ETHY    C1 3108  11.479  30.832   9.324
 3193ETHY    C1 3109  11.113  31.063   9.619
 3194ETHY    C1 3110  10.710  31.330   9.831
 3195ETHY    C1 3111  10.276  31.626   9.956
 3196THSLK    S 3112  12.111  30.595   7.508
 3197ETHY    C1 3113  11.889  30.992   7.513
 3198ETHY    C1 3114  11.553  31.407   7.514
 3199ETHY    C1 3115  11.150  31.746   7.511
 3200ETHY    C1 3116  10.696  32.007   7.510
 3201ETHY    C1 3117  10.197  32.181   7.510
 3202ETHY    C1 3118   9.664  32.265   7.514
 3203AUSL   AUS 3119  12.228  30.209   7.351
 3204AUSL   AUS 3120  12.486  30.556   7.238
 3205AUL    AUL 3121  12.108  30.536   7.199
 3206THSLK    S 3122  12.001  30.324   7.303
 3207ETHY    C1 3123  11.682  30.524   7.049
 3208ETHY    C1 3124  11.249  30.730   6.813
 3209ETHY    C1 3125  10.774  30.896   6.661
 3210ETHY    C1 3126  10.271  31.025   6.590
 3211ETHY    C1 3127   9.751  31.115   6.605
 3212ETHY    C1 3128   9.223  31.163   6.708
 3213THSLK    S 3129  12.374  30.719   7.060
 3214ETHY    C1 3130  12.295  31.029   6.737
 3215ETHY    C1 3131  12.120  31.403   6.397
 3216ETHY    C1 3132  11.866  31.771   6.120
 3217ETHY    C1 3133  11.546  32.128   5.909
 3218ETHY    C1 3134  11.165  32.466   5.770
 3219ETHY    C1 3135  10.730  32.780   5.709
 3220AUSL   AUS 3136  12.228  30.209   7.654
 3221AUSL   AUS 3137  12.228  29.882   7.351
 3222AUL    AUL 3138  11.920  30.045   7.503
 3223THSLK    S 3139  11.974  29.809   7.394
 3224ETHY    C1 3140  11.539  29.791   7.524
 3225ETHY    C1 3141  11.013  29.731   7.597
 3226ETHY    C1 3142  10.498  29.627   7.578
 3227ETHY    C1 3143  10.004  29.484   7.477
 3228ETHY    C1 3144   9.544  29.301   7.294
 3229ETHY    C1 3145   9.126  29.081   7.034
 3230THSLK    S 3146  12.000  30.315   7.707
 3231ETHY    C1 3147  11.679  30.506   7.966
 3232ETHY    C1 3148  11.246  30.710   8.202
 3233ETHY    C1 3149  10.771  30.881   8.352
 3234ETHY    C1 3150  10.269  31.013   8.422
 3235ETHY    C1 3151   9.749  31.101   8.407
 3236ETHY    C1 3152   9.220  31.142   8.308
 3237AUSL   AUS 3153  13.482  29.636   7.503
 3238AUSL   AUS 3154  13.412  29.781   7.919
 3239AUL    AUL 3155  13.696  29.555   7.806
 3240THSLK    S 3156  13.693  29.495   7.508
 3241ETHY    C1 3157  13.915  29.099   7.513
 3242ETHY    C1 3158  14.251  28.684   7.514
 3243ETHY    C1 3159  14.654  28.345   7.511
 3244ETHY    C1 3160  15.108  28.084   7.510
 3245ETHY    C1 3161  15.607  27.910   7.510
 3246ETHY    C1 3162  16.140  27.826   7.514
 3247THSLK    S 3163  13.539  29.590   8.064
 3248ETHY    C1 3164  13.716  29.225   8.270
 3249ETHY    C1 3165  13.987  28.853   8.540
 3250ETHY    C1 3166  14.314  28.564   8.834
 3251ETHY    C1 3167  14.683  28.356   9.142
 3252ETHY    C1 3168  15.085  28.238   9.462
 3253ETHY    C1 3169  15.514  28.213   9.789
 3254AUSL   AUS 3170  13.576  29.882   7.351
 3255AUSL   AUS 3171  13.318  29.535   7.238
 3256AUL    AUL 3172  13.696  29.555   7.199
 3257THSLK    S 3173  13.804  29.742   7.353
 3258ETHY    C1 3174  14.125  29.425   7.298
 3259ETHY    C1 3175  14.558  29.122   7.221
 3260ETHY    C1 3176  15.033  28.912   7.136
 3261ETHY    C1 3177  15.535  28.791   7.048
 3262ETHY    C1 3178  16.055  28.764   6.963
 3263ETHY    C1 3179  16.584  28.835   6.881
 3264THSLK    S 3180  13.434  29.346   7.108
 3265ETHY    C1 3181  13.518  28.917   6.984
 3266ETHY    C1 3182  13.693  28.445   6.803
 3267ETHY    C1 3183  13.946  28.034   6.593
 3268ETHY    C1 3184  14.264  27.686   6.366
 3269ETHY    C1 3185  14.646  27.411   6.126
 3270ETHY    C1 3186  15.084  27.214   5.880
 3271AUSL   AUS 3187  12.322  29.636   7.503
 3272AUSL   AUS 3188  12.392  29.781   7.086
 3273AUL    AUL 3189  12.108  29.555   7.199
 3274THSLK    S 3190  12.221  29.610   6.978
 3275ETHY    C1 3191  11.857  29.345   6.921
 3276ETHY    C1 3192  11.435  29.055   6.766
 3277ETHY    C1 3193  11.043  28.803   6.521
 3278ETHY    C1 3194  10.689  28.590   6.200
 3279ETHY    C1 3195  10.382  28.417   5.806
 3280ETHY    C1 3196  10.131  28.290   5.346
 3281THSLK    S 3197  12.056  29.584   7.508
 3282ETHY    C1 3198  11.602  29.562   7.513
 3283ETHY    C1 3199  11.080  29.448   7.514
 3284ETHY    C1 3200  10.598  29.239   7.511
 3285ETHY    C1 3201  10.161  28.949   7.510
 3286ETHY    C1 3202   9.782  28.582   7.510
 3287ETHY    C1 3203   9.469  28.142   7.514
 3288AUSL   AUS 3204  12.228  29.882   7.654
 3289AUSL   AUS 3205  12.486  29.535   7.767
 3290AUL    AUL 3206  12.108  29.555   7.806
 3291THSLK    S 3207  12.298  29.395   7.878
 3292ETHY    C1 3208  11.911  29.158   7.893
 3293ETHY    C1 3209  11.493  28.838   7.982
 3294ETHY    C1 3210  11.135  28.489   8.149
 3295ETHY    C1 3211  10.840  28.125   8.382
 3296ETHY    C1 3212  10.615  27.754   8.683
 3297ETHY    C1 3213  10.464  27.383   9.045
 3298THSLK    S 3214  11.972  29.819   7.616
 3299ETHY    C1 3215  11.536  29.809   7.491
 3300ETHY    C1 3216  11.010  29.750   7.419
 3301ETHY    C1 3217  10.495  29.643   7.436
 3302ETHY    C1 3218  10.001  29.497   7.535
 3303ETHY    C1 3219   9.541  29.315   7.718
 3304ETHY    C1 3220   9.122  29.102   7.983
 3305AUSL   AUS 3221  12.902  30.625   7.912
 3306AUSL   AUS 3222  12.486  30.556   7.767
 3307AUL    AUL 3223  12.599  30.840   7.993
 3308THSLK    S 3224  12.370  30.712   7.952
 3309ETHY    C1 3225  12.286  31.014   8.280
 3310ETHY    C1 3226  12.111  31.387   8.621
 3311ETHY    C1 3227  11.858  31.758   8.895
 3312ETHY    C1 3228  11.540  32.117   9.105
 3313ETHY    C1 3229  11.158  32.455   9.244
 3314ETHY    C1 3230  10.720  32.763   9.309
 3315THSLK    S 3231  12.944  30.847   8.035
 3316ETHY    C1 3232  13.128  31.122   8.347
 3317ETHY    C1 3233  13.278  31.502   8.691
 3318ETHY    C1 3234  13.344  31.925   8.998
 3319ETHY    C1 3235  13.331  32.376   9.264
 3320ETHY    C1 3236  13.234  32.845   9.485
 3321ETHY    C1 3237  13.054  33.324   9.656
 3322AUSL   AUS 3238  12.750  30.719   7.666
 3323AUSL   AUS 3239  13.054  30.719   7.339
 3324AUL    AUL 3240  12.902  31.027   7.503
 3325THSLK    S 3241  12.793  30.963   7.776
 3326ETHY    C1 3242  12.937  31.357   7.951
 3327ETHY    C1 3243  13.024  31.851   8.137
 3328ETHY    C1 3244  13.012  32.352   8.294
 3329ETHY    C1 3245  12.911  32.850   8.425
 3330ETHY    C1 3246  12.719  33.331   8.527
 3331ETHY    C1 3247  12.439  33.786   8.600
 3332THSLK    S 3248  13.109  30.950   7.243
 3333ETHY    C1 3249  13.385  31.280   7.096
 3334ETHY    C1 3250  13.635  31.721   6.927
 3335ETHY    C1 3251  13.791  32.198   6.771
 3336ETHY    C1 3252  13.860  32.700   6.635
 3337ETHY    C1 3253  13.836  33.216   6.525
 3338ETHY    C1 3254  13.719  33.736   6.443
 3339AUSL   AUS 3255  13.054  30.719   7.666
 3340AUSL   AUS 3256  13.167  30.462   8.013
 3341AUL    AUL 3257  13.205  30.840   7.993
 3342THSLK    S 3258  13.338  30.570   8.183
 3343ETHY    C1 3259  13.633  30.635   8.523
 3344ETHY    C1 3260  13.951  30.797   8.920
 3345ETHY    C1 3261  14.219  31.046   9.298
 3346ETHY    C1 3262  14.433  31.368   9.653
 3347ETHY    C1 3263  14.585  31.756   9.976
 3348ETHY    C1 3264  14.671  32.206  10.262
 3349THSLK    S 3265  13.107  30.948   7.772
 3350ETHY    C1 3266  13.379  31.276   7.929
 3351ETHY    C1 3267  13.629  31.716   8.100
 3352ETHY    C1 3268  13.787  32.195   8.251
 3353ETHY    C1 3269  13.856  32.697   8.383
 3354ETHY    C1 3270  13.832  33.212   8.494
 3355ETHY    C1 3271  13.713  33.731   8.585
 3356AUSL   AUS 3272  12.902  29.465   7.912
 3357AUSL   AUS 3273  13.318  29.535   7.767
 3358AUL    AUL 3274  13.205  29.251   7.993
 3359THSLK    S 3275  12.855  29.215   7.989
 3360ETHY    C1 3276  12.665  28.819   8.103
 3361ETHY    C1 3277  12.514  28.341   8.289
 3362ETHY    C1 3278  12.451  27.876   8.528
 3363ETHY    C1 3279  12.466  27.434   8.809
 3364ETHY    C1 3280  12.562  27.027   9.132
 3365ETHY    C1 3281  12.737  26.664   9.489
 3366THSLK    S 3282  13.430  29.348   7.907
 3367ETHY    C1 3283  13.509  28.920   8.040
 3368ETHY    C1 3284  13.684  28.450   8.222
 3369ETHY    C1 3285  13.938  28.038   8.428
 3370ETHY    C1 3286  14.258  27.689   8.652
 3371ETHY    C1 3287  14.639  27.414   8.893
 3372ETHY    C1 3288  15.074  27.218   9.147
 3373AUSL   AUS 3289  12.750  29.372   7.666
 3374AUSL   AUS 3290  12.637  29.629   8.013
 3375AUL    AUL 3291  12.599  29.251   7.993
 3376THSLK    S 3292  12.695  29.136   7.745
 3377ETHY    C1 3293  12.420  28.777   7.788
 3378ETHY    C1 3294  12.169  28.312   7.869
 3379ETHY    C1 3295  12.013  27.822   7.981
 3380ETHY    C1 3296  11.944  27.323   8.122
 3381ETHY    C1 3297  11.968  26.823   8.292
 3382ETHY    C1 3298  12.085  26.335   8.489
 3383THSLK    S 3299  12.459  29.463   8.129
 3384ETHY    C1 3300  12.157  29.145   8.248
 3385ETHY    C1 3301  11.838  28.778   8.471
 3386ETHY    C1 3302  11.573  28.441   8.776
 3387ETHY    C1 3303  11.361  28.139   9.147
 3388ETHY    C1 3304  11.208  27.881   9.582
 3389ETHY    C1 3305  11.117  27.674  10.072
 3390AUSL   AUS 3306  13.054  29.372   7.666
 3391AUSL   AUS 3307  12.750  29.372   7.339
 3392AUL    AUL 3308  12.902  29.064   7.503
 3393THSLK    S 3309  12.697  29.133   7.270
 3394ETHY    C1 3310  12.425  28.771   7.236
 3395ETHY    C1 3311  12.175  28.306   7.157
 3396ETHY    C1 3312  12.018  27.817   7.041
 3397ETHY    C1 3313  11.948  27.318   6.896
 3398ETHY    C1 3314  11.972  26.819   6.727
 3399ETHY    C1 3315  12.091  26.328   6.538
 3400THSLK    S 3316  13.008  29.120   7.749
 3401ETHY    C1 3317  12.861  28.694   7.811
 3402ETHY    C1 3318  12.775  28.176   7.906
 3403ETHY    C1 3319  12.787  27.663   8.025
 3404ETHY    C1 3320  12.889  27.168   8.165
 3405ETHY    C1 3321  13.081  26.703   8.325
 3406ETHY    C1 3322  13.359  26.277   8.504
 3407AUSL   AUS 3323  12.902  30.625   7.094
 3408AUSL   AUS 3324  13.318  30.556   7.238
 3409AUL    AUL 3325  13.205  30.840   7.012
 3410THSLK    S 3326  12.949  30.852   6.977
 3411ETHY    C1 3327  13.139  31.131   6.674
 3412ETHY    C1 3328  13.290  31.512   6.330
 3413ETHY    C1 3329  13.354  31.932   6.021
 3414ETHY    C1 3330  13.338  32.382   5.752
 3415ETHY    C1 3331  13.242  32.852   5.532
 3416ETHY    C1 3332  13.067  33.335   5.366
 3417THSLK    S 3333  13.506  30.672   7.089
 3418ETHY    C1 3334  13.893  30.792   6.883
 3419ETHY    C1 3335  14.311  31.015   6.637
 3420ETHY    C1 3336  14.669  31.319   6.400
 3421ETHY    C1 3337  14.964  31.691   6.178
 3422ETHY    C1 3338  15.189  32.126   5.981
 3423ETHY    C1 3339  15.340  32.615   5.811
 3424AUSL   AUS 3340  12.750  30.719   7.339
 3425AUSL   AUS 3341  12.637  30.462   6.992
 3426AUL    AUL 3342  12.599  30.840   7.012
 3427THSLK    S 3343  12.796  30.966   7.239
 3428ETHY    C1 3344  12.943  31.363   7.074
 3429ETHY    C1 3345  13.029  31.857   6.889
 3430ETHY    C1 3346  13.017  32.358   6.727
 3431ETHY    C1 3347  12.915  32.854   6.593
 3432ETHY    C1 3348  12.723  33.335   6.492
 3433ETHY    C1 3349  12.445  33.793   6.427
 3434THSLK    S 3350  12.527  30.594   6.805
 3435ETHY    C1 3351  12.491  30.743   6.377
 3436ETHY    C1 3352  12.381  30.969   5.906
 3437ETHY    C1 3353  12.203  31.244   5.494
 3438ETHY    C1 3354  11.969  31.557   5.145
 3439ETHY    C1 3355  11.683  31.906   4.870
 3440ETHY    C1 3356  11.352  32.284   4.675
 3441AUSL   AUS 3357  12.902  29.465   7.094
 3442AUSL   AUS 3358  12.486  29.535   7.238
 3443AUL    AUL 3359  12.599  29.251   7.012
 3444THSLK    S 3360  12.303  29.387   7.134
 3445ETHY    C1 3361  11.920  29.143   7.124
 3446ETHY    C1 3362  11.502  28.822   7.035
 3447ETHY    C1 3363  11.143  28.476   6.866
 3448ETHY    C1 3364  10.846  28.115   6.631
 3449ETHY    C1 3365  10.621  27.743   6.331
 3450ETHY    C1 3366  10.474  27.366   5.974
 3451THSLK    S 3367  12.860  29.210   7.024
 3452ETHY    C1 3368  12.676  28.809   6.917
 3453ETHY    C1 3369  12.526  28.331   6.732
 3454ETHY    C1 3370  12.460  27.868   6.491
 3455ETHY    C1 3371  12.473  27.428   6.206
 3456ETHY    C1 3372  12.570  27.021   5.885
 3457ETHY    C1 3373  12.750  26.653   5.533
 3458AUSL   AUS 3374  13.054  29.372   7.339
 3459AUSL   AUS 3375  13.167  29.629   6.992
 3460AUL    AUL 3376  13.205  29.251   7.012
 3461THSLK    S 3377  13.011  29.118   7.266
 3462ETHY    C1 3378  12.867  28.690   7.213
 3463ETHY    C1 3379  12.780  28.171   7.120
 3464ETHY    C1 3380  12.792  27.659   6.997
 3465ETHY    C1 3381  12.893  27.165   6.854
 3466ETHY    C1 3382  13.085  26.700   6.695
 3467ETHY    C1 3383  13.365  26.272   6.523
 3468THSLK    S 3384  13.284  29.439   6.859
 3469ETHY    C1 3385  13.328  29.037   6.651
 3470ETHY    C1 3386  13.438  28.606   6.355
 3471ETHY    C1 3387  13.614  28.243   6.017
 3472ETHY    C1 3388  13.845  27.949   5.651
 3473ETHY    C1 3389  14.131  27.732   5.264
 3474ETHY    C1 3390  14.468  27.596   4.865
 3475AUC    AUC 3391  20.584   9.581   7.503
 3476AUC    AUC 3392  20.829   9.581   7.351
 3477AUC    AUC 3393  20.829   9.581   7.654
 3478AUC    AUC 3394  20.339   9.581   7.351
 3479AUC    AUC 3395  20.339   9.581   7.654
 3480AUC    AUC 3396  20.432   9.827   7.503
 3481AUC    AUC 3397  20.736   9.827   7.503
 3482AUC    AUC 3398  20.432   9.336   7.503
 3483AUC    AUC 3399  20.736   9.336   7.503
 3484AUC    AUC 3400  20.584   9.430   7.748
 3485AUC    AUC 3401  20.584   9.733   7.748
 3486AUC    AUC 3402  20.584   9.430   7.257
 3487AUC    AUC 3403  20.584   9.733   7.257
 3488AUC    AUC 3404  21.075   9.581   7.199
 3489AUC    AUC 3405  21.075   9.581   7.503
 3490AUC    AUC 3406  21.075   9.581   7.806
 3491AUC    AUC 3407  20.093   9.581   7.199
 3492AUC    AUC 3408  20.093   9.581   7.503
 3493AUC    AUC 3409  20.093   9.581   7.806
 3494AUC    AUC 3410  20.281  10.072   7.503
 3495AUC    AUC 3411  20.584  10.072   7.503
 3496AUC    AUC 3412  20.887  10.072   7.503
 3497AUC    AUC 3413  20.281   9.091   7.503
 3498AUC    AUC 3414  20.584   9.091   7.503
 3499AUC    AUC 3415  20.887   9.091   7.503
 3500AUC    AUC 3416  20.584   9.278   7.993
 3501AUC    AUC 3417  20.584   9.581   7.993
 3502AUC    AUC 3418  20.584   9.885   7.993
 3503AUC    AUC 3419  20.584   9.278   7.012
 3504AUC    AUC 3420  20.584   9.581   7.012
 3505AUC    AUC 3421  20.584   9.885   7.012
 3506AUC    AUC 3422  20.829   9.430   7.900
 3507AUC    AUC 3423  20.829   9.733   7.900
 3508AUC    AUC 3424  20.829   9.430   7.106
 3509AUC    AUC 3425  20.829   9.733   7.106
 3510AUC    AUC 3426  20.339   9.430   7.900
 3511AUC    AUC 3427  20.339   9.733   7.900
 3512AUC    AUC 3428  20.339   9.430   7.106
 3513AUC    AUC 3429  20.339   9.733   7.106
 3514AUC    AUC 3430  20.981   9.827   7.351
 3515AUC    AUC 3431  20.981   9.827   7.654
 3516AUC    AUC 3432  20.187   9.827   7.351
 3517AUC    AUC 3433  20.187   9.827   7.654
 3518AUC    AUC 3434  20.981   9.336   7.351
 3519AUC    AUC 3435  20.981   9.336   7.654
 3520AUC    AUC 3436  20.187   9.336   7.351
 3521AUC    AUC 3437  20.187   9.336   7.654
 3522AUC    AUC 3438  20.432   9.979   7.748
 3523AUC    AUC 3439  20.736   9.979   7.748
 3524AUC    AUC 3440  20.432   9.184   7.748
 3525AUC    AUC 3441  20.736   9.184   7.748
 3526AUC    AUC 3442  20.432   9.979   7.257
 3527AUC    AUC 3443  20.736   9.979   7.257
 3528AUC    AUC 3444  20.432   9.184   7.257
 3529AUC    AUC 3445  20.736   9.184   7.257
 3530AUSL   AUS 3446  20.993   9.581   8.083
 3531AUSL   AUS 3447  20.849   9.165   8.013
 3532AUL    AUL 3448  21.075   9.278   8.297
 3533THSLK    S 3449  20.959   8.978   8.153
 3534ETHY    C1 3450  20.995   8.579   8.368
 3535ETHY    C1 3451  21.105   8.149   8.665
 3536ETHY    C1 3452  21.283   7.785   9.000
 3537ETHY    C1 3453  21.517   7.489   9.364
 3538ETHY    C1 3454  21.803   7.272   9.752
 3539ETHY    C1 3455  22.134   7.139  10.156
 3540THSLK    S 3456  21.086   9.529   8.324
 3541ETHY    C1 3457  21.290   9.309   8.665
 3542ETHY    C1 3458  21.554   9.132   9.094
 3543ETHY    C1 3459  21.830   9.056   9.535
 3544ETHY    C1 3460  22.107   9.073   9.980
 3545ETHY    C1 3461  22.377   9.186  10.419
 3546ETHY    C1 3462  22.636   9.395  10.845
 3547AUSL   AUS 3463  20.748   9.430   8.176
 3548AUSL   AUS 3464  20.420   9.733   8.176
 3549AUL    AUL 3465  20.584   9.581   8.484
 3550THSLK    S 3466  20.823   9.375   8.413
 3551ETHY    C1 3467  20.887   9.095   8.765
 3552ETHY    C1 3468  20.990   8.840   9.223
 3553ETHY    C1 3469  21.117   8.681   9.708
 3554ETHY    C1 3470  21.259   8.612  10.208
 3555ETHY    C1 3471  21.413   8.640  10.713
 3556ETHY    C1 3472  21.573   8.764  11.212
 3557THSLK    S 3473  20.335   9.687   8.428
 3558ETHY    C1 3474  20.261   9.537   8.850
 3559ETHY    C1 3475  20.156   9.449   9.367
 3560ETHY    C1 3476  20.034   9.461   9.878
 3561ETHY    C1 3477  19.896   9.562  10.373
 3562ETHY    C1 3478  19.741   9.755  10.840
 3563ETHY    C1 3479  19.572  10.036  11.268
 3564AUSL   AUS 3480  20.748   9.733   8.176
 3565AUSL   AUS 3481  21.094   9.846   7.919
 3566AUL    AUL 3482  21.075   9.885   8.297
 3567THSLK    S 3483  20.833   9.789   8.410
 3568ETHY    C1 3484  20.907  10.070   8.759
 3569ETHY    C1 3485  21.012  10.325   9.217
 3570ETHY    C1 3486  21.134  10.484   9.703
 3571ETHY    C1 3487  21.273  10.553  10.204
 3572ETHY    C1 3488  21.427  10.526  10.708
 3573ETHY    C1 3489  21.596  10.402  11.206
 3574THSLK    S 3490  21.266   9.944   8.080
 3575ETHY    C1 3491  21.629   9.915   8.350
 3576ETHY    C1 3492  22.051   9.971   8.673
 3577ETHY    C1 3493  22.443  10.125   8.989
 3578ETHY    C1 3494  22.797  10.363   9.293
 3579ETHY    C1 3495  23.104  10.684   9.580
 3580ETHY    C1 3496  23.355  11.081   9.844
 3581AUSL   AUS 3497  20.993   9.581   6.923
 3582AUSL   AUS 3498  20.849   9.998   6.992
 3583AUL    AUL 3499  21.075   9.885   6.708
 3584THSLK    S 3500  21.095   9.529   6.687
 3585ETHY    C1 3501  21.308   9.309   6.351
 3586ETHY    C1 3502  21.573   9.132   5.923
 3587ETHY    C1 3503  21.845   9.056   5.479
 3588ETHY    C1 3504  22.119   9.073   5.033
 3589ETHY    C1 3505  22.390   9.186   4.594
 3590ETHY    C1 3506  22.655   9.395   4.173
 3591THSLK    S 3507  21.027  10.109   6.829
 3592ETHY    C1 3508  21.329  10.177   6.497
 3593ETHY    C1 3509  21.648  10.340   6.100
 3594ETHY    C1 3510  21.913  10.587   5.719
 3595ETHY    C1 3511  22.125  10.907   5.362
 3596ETHY    C1 3512  22.278  11.297   5.039
 3597ETHY    C1 3513  22.369  11.749   4.759
 3598AUSL   AUS 3514  20.748   9.430   6.829
 3599AUSL   AUS 3515  21.094   9.317   7.086
 3600AUL    AUL 3516  21.075   9.278   6.708
 3601THSLK    S 3517  21.227   9.125   6.949
 3602ETHY    C1 3518  21.410   8.758   6.752
 3603ETHY    C1 3519  21.682   8.386   6.483
 3604ETHY    C1 3520  22.007   8.097   6.186
 3605ETHY    C1 3521  22.373   7.890   5.874
 3606ETHY    C1 3522  22.777   7.771   5.555
 3607ETHY    C1 3523  23.210   7.746   5.235
 3608THSLK    S 3524  20.833   9.374   6.596
 3609ETHY    C1 3525  20.907   9.093   6.246
 3610ETHY    C1 3526  21.012   8.837   5.788
 3611ETHY    C1 3527  21.134   8.679   5.302
 3612ETHY    C1 3528  21.273   8.610   4.801
 3613ETHY    C1 3529  21.427   8.637   4.297
 3614ETHY    C1 3530  21.596   8.761   3.799
 3615AUSL   AUS 3531  20.748   9.733   6.829
 3616AUSL   AUS 3532  20.420   9.430   6.829
 3617AUL    AUL 3533  20.584   9.581   6.521
 3618THSLK    S 3534  20.328   9.374   6.597
 3619ETHY    C1 3535  20.193   9.096   6.264
 3620ETHY    C1 3536  20.032   8.843   5.822
 3621ETHY    C1 3537  19.880   8.686   5.343
 3622ETHY    C1 3538  19.744   8.617   4.842
 3623ETHY    C1 3539  19.627   8.643   4.328
 3624ETHY    C1 3540  19.534   8.762   3.810
 3625THSLK    S 3541  20.850   9.687   6.583
 3626ETHY    C1 3542  20.996   9.537   6.179
 3627ETHY    C1 3543  21.158   9.446   5.678
 3628ETHY    C1 3544  21.305   9.456   5.173
 3629ETHY    C1 3545  21.438   9.557   4.677
 3630ETHY    C1 3546  21.555   9.752   4.200
 3631ETHY    C1 3547  21.656  10.038   3.754
 3632AUSL   AUS 3548  20.175   9.581   8.083
 3633AUSL   AUS 3549  20.319   9.998   8.013
 3634AUL    AUL 3550  20.093   9.885   8.297
 3635THSLK    S 3551  20.073   9.529   8.319
 3636ETHY    C1 3552  19.861   9.309   8.654
 3637ETHY    C1 3553  19.595   9.132   9.082
 3638ETHY    C1 3554  19.323   9.056   9.526
 3639ETHY    C1 3555  19.049   9.073   9.973
 3640ETHY    C1 3556  18.778   9.186  10.411
 3641ETHY    C1 3557  18.513   9.395  10.832
 3642THSLK    S 3558  20.202  10.122   8.202
 3643ETHY    C1 3559  20.159  10.265   8.632
 3644ETHY    C1 3560  20.048  10.490   9.104
 3645ETHY    C1 3561  19.872  10.767   9.515
 3646ETHY    C1 3562  19.641  11.083   9.863
 3647ETHY    C1 3563  19.355  11.431  10.138
 3648ETHY    C1 3564  19.018  11.804  10.334
 3649AUSL   AUS 3565  20.420   9.430   8.176
 3650AUSL   AUS 3566  20.074   9.317   7.919
 3651AUL    AUL 3567  20.093   9.278   8.297
 3652THSLK    S 3568  19.897   9.154   8.026
 3653ETHY    C1 3569  19.526   8.897   8.082
 3654ETHY    C1 3570  19.104   8.609   8.237
 3655ETHY    C1 3571  18.714   8.354   8.482
 3656ETHY    C1 3572  18.362   8.137   8.803
 3657ETHY    C1 3573  18.056   7.966   9.198
 3658ETHY    C1 3574  17.799   7.845   9.657
 3659THSLK    S 3575  20.318   9.376   8.406
 3660ETHY    C1 3576  20.172   9.100   8.736
 3661ETHY    C1 3577  20.010   8.848   9.178
 3662ETHY    C1 3578  19.863   8.690   9.658
 3663ETHY    C1 3579  19.730   8.620  10.160
 3664ETHY    C1 3580  19.613   8.646  10.674
 3665ETHY    C1 3581  19.512   8.767  11.190
 3666AUSL   AUS 3582  20.175   9.581   6.923
 3667AUSL   AUS 3583  20.319   9.165   6.992
 3668AUL    AUL 3584  20.093   9.278   6.708
 3669THSLK    S 3585  20.082   9.529   6.681
 3670ETHY    C1 3586  19.878   9.309   6.341
 3671ETHY    C1 3587  19.614   9.132   5.911
 3672ETHY    C1 3588  19.338   9.056   5.470
 3673ETHY    C1 3589  19.061   9.073   5.025
 3674ETHY    C1 3590  18.791   9.186   4.586
 3675ETHY    C1 3591  18.532   9.395   4.161
 3676THSLK    S 3592  20.148   8.992   6.878
 3677ETHY    C1 3593  19.853   8.666   6.760
 3678ETHY    C1 3594  19.535   8.299   6.538
 3679ETHY    C1 3595  19.267   7.964   6.233
 3680ETHY    C1 3596  19.053   7.664   5.861
 3681ETHY    C1 3597  18.901   7.406   5.426
 3682ETHY    C1 3598  18.815   7.194   4.937
 3683AUSL   AUS 3599  20.420   9.733   6.829
 3684AUSL   AUS 3600  20.074   9.846   7.086
 3685AUL    AUL 3601  20.093   9.885   6.708
 3686THSLK    S 3602  19.947   9.973   6.895
 3687ETHY    C1 3603  19.770  10.054   6.484
 3688ETHY    C1 3604  19.499  10.194   6.046
 3689ETHY    C1 3605  19.172  10.382   5.679
 3690ETHY    C1 3606  18.803  10.611   5.385
 3691ETHY    C1 3607  18.401  10.878   5.173
 3692ETHY    C1 3608  17.972  11.180   5.047
 3693THSLK    S 3609  20.345   9.689   6.576
 3694ETHY    C1 3610  20.281   9.542   6.150
 3695ETHY    C1 3611  20.178   9.453   5.634
 3696ETHY    C1 3612  20.051   9.464   5.123
 3697ETHY    C1 3613  19.909   9.565   4.629
 3698ETHY    C1 3614  19.756   9.758   4.162
 3699ETHY    C1 3615  19.595  10.041   3.732
 3700AUSL   AUS 3616  21.164   9.990   7.503
 3701AUSL   AUS 3617  21.094   9.846   7.086
 3702AUL    AUL 3618  21.378  10.072   7.199
 3703THSLK    S 3619  21.272   9.945   6.934
 3704ETHY    C1 3620  21.642   9.918   6.671
 3705ETHY    C1 3621  22.064   9.974   6.349
 3706ETHY    C1 3622  22.454  10.128   6.030
 3707ETHY    C1 3623  22.806  10.365   5.724
 3708ETHY    C1 3624  23.113  10.686   5.438
 3709ETHY    C1 3625  23.369  11.085   5.179
 3710THSLK    S 3626  21.430  10.043   7.508
 3711ETHY    C1 3627  21.884  10.065   7.513
 3712ETHY    C1 3628  22.406  10.179   7.514
 3713ETHY    C1 3629  22.889  10.388   7.511
 3714ETHY    C1 3630  23.325  10.678   7.510
 3715ETHY    C1 3631  23.704  11.045   7.510
 3716ETHY    C1 3632  24.018  11.485   7.514
 3717AUSL   AUS 3633  21.258   9.745   7.351
 3718AUSL   AUS 3634  21.258   9.418   7.654
 3719AUL    AUL 3635  21.566   9.581   7.503
 3720THSLK    S 3636  21.514   9.784   7.350
 3721ETHY    C1 3637  21.950   9.676   7.286
 3722ETHY    C1 3638  22.476   9.638   7.201
 3723ETHY    C1 3639  22.991   9.702   7.113
 3724ETHY    C1 3640  23.485   9.856   7.026
 3725ETHY    C1 3641  23.945  10.101   6.945
 3726ETHY    C1 3642  24.364  10.433   6.873
 3727THSLK    S 3643  21.485   9.278   7.663
 3728ETHY    C1 3644  21.804   8.962   7.728
 3729ETHY    C1 3645  22.237   8.658   7.807
 3730ETHY    C1 3646  22.712   8.448   7.887
 3731ETHY    C1 3647  23.215   8.327   7.971
 3732ETHY    C1 3648  23.735   8.301   8.058
 3733ETHY    C1 3649  24.263   8.371   8.147
 3734AUSL   AUS 3650  21.258   9.745   7.654
 3735AUSL   AUS 3651  21.000  10.092   7.767
 3736AUL    AUL 3652  21.378  10.072   7.806
 3737THSLK    S 3653  21.183  10.206   7.926
 3738ETHY    C1 3654  21.566  10.324   8.140
 3739ETHY    C1 3655  21.984  10.547   8.388
 3740ETHY    C1 3656  22.343  10.852   8.622
 3741ETHY    C1 3657  22.640  11.225   8.840
 3742ETHY    C1 3658  22.865  11.659   9.038
 3743ETHY    C1 3659  23.012  12.147   9.215
 3744THSLK    S 3660  21.512   9.784   7.665
 3745ETHY    C1 3661  21.947   9.676   7.740
 3746ETHY    C1 3662  22.473   9.638   7.826
 3747ETHY    C1 3663  22.988   9.701   7.910
 3748ETHY    C1 3664  23.482   9.855   7.993
 3749ETHY    C1 3665  23.943  10.100   8.075
 3750ETHY    C1 3666  24.360  10.432   8.155
 3751AUSL   AUS 3667  20.004   9.990   7.503
 3752AUSL   AUS 3668  20.074   9.846   7.919
 3753AUL    AUL 3669  19.790  10.072   7.806
 3754THSLK    S 3670  19.941   9.965   8.109
 3755ETHY    C1 3671  19.758  10.037   8.519
 3756ETHY    C1 3672  19.486  10.177   8.957
 3757ETHY    C1 3673  19.161  10.368   9.324
 3758ETHY    C1 3674  18.795  10.599   9.619
 3759ETHY    C1 3675  18.392  10.866   9.831
 3760ETHY    C1 3676  17.958  11.162   9.956
 3761THSLK    S 3677  19.793  10.131   7.508
 3762ETHY    C1 3678  19.571  10.528   7.513
 3763ETHY    C1 3679  19.235  10.943   7.514
 3764ETHY    C1 3680  18.832  11.282   7.511
 3765ETHY    C1 3681  18.378  11.543   7.510
 3766ETHY    C1 3682  17.879  11.717   7.510
 3767ETHY    C1 3683  17.346  11.801   7.514
 3768AUSL   AUS 3684  19.910   9.745   7.351
 3769AUSL   AUS 3685  20.168  10.092   7.238
 3770AUL    AUL 3686  19.790  10.072   7.199
 3771THSLK    S 3687  19.683   9.860   7.303
 3772ETHY    C1 3688  19.364  10.060   7.049
 3773ETHY    C1 3689  18.931  10.266   6.813
 3774ETHY    C1 3690  18.456  10.432   6.661
 3775ETHY    C1 3691  17.953  10.561   6.590
 3776ETHY    C1 3692  17.433  10.651   6.605
 3777ETHY    C1 3693  16.905  10.699   6.708
 3778THSLK    S 3694  20.056  10.255   7.060
 3779ETHY    C1 3695  19.977  10.565   6.737
 3780ETHY    C1 3696  19.802  10.939   6.397
 3781ETHY    C1 3697  19.548  11.307   6.120
 3782ETHY    C1 3698  19.228  11.664   5.909
 3783ETHY    C1 3699  18.847  12.002   5.770
 3784ETHY    C1 3700  18.412  12.316   5.709
 3785AUSL   AUS 3701  19.910   9.745   7.654
 3786AUSL   AUS 3702  19.910   9.418   7.351
 3787AUL    AUL 3703  19.602   9.581   7.503
 3788THSLK    S 3704  19.656   9.345   7.394
 3789ETHY    C1 3705  19.221   9.327   7.524
 3790ETHY    C1 3706  18.695   9.267   7.597
 3791ETHY    C1 3707  18.180   9.163   7.578
 3792ETHY    C1 3708  17.686   9.020   7.477
 3793ETHY    C1 3709  17.226   8.837   7.294
 3794ETHY    C1 3710  16.808   8.617   7.034
 3795THSLK    S 3711  19.682   9.851   7.707
 3796ETHY    C1 3712  19.361  10.042   7.966
 3797ETHY    C1 3713  18.928  10.246   8.202
 3798ETHY    C1 3714  18.453  10.417   8.352
 3799ETHY    C1 3715  17.951  10.549   8.422
 3800ETHY    C1 3716  17.431  10.637   8.407
 3801ETHY    C1 3717  16.902  10.678   8.308
 3802AUSL   AUS 3718  21.164   9.172   7.503
 3803AUSL   AUS 3719  21.094   9.317   7.919
 3804AUL    AUL 3720  21.378   9.091   7.806
 3805THSLK    S 3721  21.375   9.031   7.508
 3806ETHY    C1 3722  21.597   8.635   7.513
 3807ETHY    C1 3723  21.933   8.220   7.514
 3808ETHY    C1 3724  22.336   7.881   7.511
 3809ETHY    C1 3725  22.790   7.620   7.510
 3810ETHY    C1 3726  23.289   7.446   7.510
 3811ETHY    C1 3727  23.822   7.362   7.514
 3812THSLK    S 3728  21.221   9.126   8.064
 3813ETHY    C1 3729  21.398   8.761   8.270
 3814ETHY    C1 3730  21.669   8.389   8.540
 3815ETHY    C1 3731  21.996   8.100   8.834
 3816ETHY    C1 3732  22.365   7.892   9.142
 3817ETHY    C1 3733  22.767   7.774   9.462
 3818ETHY    C1 3734  23.196   7.749   9.789
 3819AUSL   AUS 3735  21.258   9.418   7.351
 3820AUSL   AUS 3736  21.000   9.071   7.238
 3821AUL    AUL 3737  21.378   9.091   7.199
 3822THSLK    S 3738  21.486   9.278   7.353
 3823ETHY    C1 3739  21.807   8.961   7.298
 3824ETHY    C1 3740  22.240   8.658   7.221
 3825ETHY    C1 3741  22.715   8.448   7.136
 3826ETHY    C1 3742  23.217   8.327   7.048
 3827ETHY    C1 3743  23.737   8.300   6.963
 3828ETHY    C1 3744  24.266   8.371   6.881
 3829THSLK    S 3745  21.116   8.882   7.108
 3830ETHY    C1 3746  21.200   8.453   6.984
 3831ETHY    C1 3747  21.375   7.981   6.803
 3832ETHY    C1 3748  21.628   7.570   6.593
 3833ETHY    C1 3749  21.946   7.222   6.366
 3834ETHY    C1 3750  22.328   6.947   6.126
 3835ETHY    C1 3751  22.766   6.750   5.880
 3836AUSL   AUS 3752  20.004   9.172   7.503
 3837AUSL   AUS 3753  20.074   9.317   7.086
 3838AUL    AUL 3754  19.790   9.091   7.199
 3839THSLK    S 3755  19.903   9.146   6.978
 3840ETHY    C1 3756  19.539   8.881   6.921
 3841ETHY    C1 3757  19.117   8.591   6.766
 3842ETHY    C1 3758  18.725   8.339   6.521
 3843ETHY    C1 3759  18.371   8.126   6.200
 3844ETHY    C1 3760  18.064   7.953   5.806
 3845ETHY    C1 3761  17.813   7.826   5.346
 3846THSLK    S 3762  19.738   9.120   7.508
 3847ETHY    C1 3763  19.284   9.098   7.513
 3848ETHY    C1 3764  18.762   8.984   7.514
 3849ETHY    C1 3765  18.280   8.775   7.511
 3850ETHY    C1 3766  17.843   8.485   7.510
 3851ETHY    C1 3767  17.464   8.118   7.510
 3852ETHY    C1 3768  17.151   7.678   7.514
 3853AUSL   AUS 3769  19.910   9.418   7.654
 3854AUSL   AUS 3770  20.168   9.071   7.767
 3855AUL    AUL 3771  19.790   9.091   7.806
 3856THSLK    S 3772  19.980   8.931   7.878
 3857ETHY    C1 3773  19.593   8.694   7.893
 3858ETHY    C1 3774  19.175   8.374   7.982
 3859ETHY    C1 3775  18.817   8.025   8.149
 3860ETHY    C1 3776  18.522   7.661   8.382
 3861ETHY    C1 3777  18.297   7.290   8.683
 3862ETHY    C1 3778  18.146   6.919   9.045
 3863THSLK    S 3779  19.654   9.355   7.616
 3864ETHY    C1 3780  19.218   9.345   7.491
 3865ETHY    C1 3781  18.692   9.286   7.419
 3866ETHY    C1 3782  18.177   9.179   7.436
 3867ETHY    C1 3783  17.683   9.033   7.535
 3868ETHY    C1 3784  17.223   8.851   7.718
 3869ETHY    C1 3785  16.804   8.638   7.983
 3870AUSL   AUS 3786  20.584  10.161   7.912
 3871AUSL   AUS 3787  20.168  10.092   7.767
 3872AUL    AUL 3788  20.281  10.376   7.993
 3873THSLK    S 3789  20.052  10.248   7.952
 3874ETHY    C1 3790  19.968  10.550   8.280
 3875ETHY    C1 3791  19.793  10.923   8.621
 3876ETHY    C1 3792  19.540  11.294   8.895
 3877ETHY    C1 3793  19.222  11.653   9.105
 3878ETHY    C1 3794  18.840  11.991   9.244
 3879ETHY    C1 3795  18.402  12.299   9.309
 3880THSLK    S 3796  20.626  10.383   8.035
 3881ETHY    C1 3797  20.810  10.658   8.347
 3882ETHY    C1 3798  20.960  11.038   8.691
 3883ETHY    C1 3799  21.026  11.461   8.998
 3884ETHY    C1 3800  21.013  11.912   9.264
 3885ETHY    C1 3801  20.916  12.381   9.485
 3886ETHY    C1 3802  20.736  12.860   9.656
 3887AUSL   AUS 3803  20.432  10.255   7.666
 3888AUSL   AUS 3804  20.736  10.255   7.339
 3889AUL    AUL 3805  20.584  10.563   7.503
 3890THSLK    S 3806  20.475  10.499   7.776
 3891ETHY    C1 3807  20.619  10.893   7.951
 3892ETHY    C1 3808  20.706  11.387   8.137
 3893ETHY    C1 3809  20.694  11.888   8.294
 3894ETHY    C1 3810  20.593  12.386   8.425
 3895ETHY    C1 3811  20.401  12.867   8.527
 3896ETHY    C1 3812  20.121  13.322   8.600
 3897THSLK    S 3813  20.791  10.486   7.243
 3898ETHY    C1 3814  21.067  10.816   7.096
 3899ETHY    C1 3815  21.317  11.257   6.927
 3900ETHY    C1 3816  21.473  11.734   6.771
 3901ETHY    C1 3817  21.542  12.236   6.635
 3902ETHY    C1 3818  21.518  12.752   6.525
 3903ETHY    C1 3819  21.401  13.272   6.443
 3904AUSL   AUS 3820  20.736  10.255   7.666
 3905AUSL   AUS 3821  20.849   9.998   8.013
 3906AUL    AUL 3822  20.887  10.376   7.993
 3907THSLK    S 3823  21.020  10.106   8.183
 3908ETHY    C1 3824  21.315  10.171   8.523
 3909ETHY    C1 3825  21.633  10.333   8.920
 3910ETHY    C1 3826  21.901  10.582   9.298
 3911ETHY    C1 3827  22.115  10.904   9.653
 3912ETHY    C1 3828  22.267  11.292   9.976
 3913ETHY    C1 3829  22.353  11.742  10.262
 3914THSLK    S 3830  20.789  10.484   7.772
 3915ETHY    C1 3831  21.061  10.812   7.929
 3916ETHY    C1 3832  21.311  11.252   8.100
 3917ETHY    C1 3833  21.469  11.731   8.251
 3918ETHY    C1 3834  21.538  12.233   8.383
 3919ETHY    C1 3835  21.514  12.748   8.494
 3920ETHY    C1 3836  21.395  13.267   8.585
 3921AUSL   AUS 3837  20.584   9.001   7.912
 3922AUSL   AUS 3838  21.000   9.071   7.767
 3923AUL    AUL 3839  20.887   8.787   7.993
 3924THSLK    S 3840  20.537   8.751   7.989
 3925ETHY    C1 3841  20.347   8.355   8.103
 3926ETHY    C1 3842  20.196   7.877   8.289
 3927ETHY    C1 3843  20.133   7.412   8.528
 3928ETHY    C1 3844  20.148   6.970   8.809
 3929ETHY    C1 3845  20.244   6.563   9.132
 3930ETHY    C1 3846  20.419   6.200   9.489
 3931THSLK    S 3847  21.112   8.884   7.907
 3932ETHY    C1 3848  21.191   8.456   8.040
 3933ETHY    C1 3849  21.366   7.986   8.222
 3934ETHY    C1 3850  21.620   7.574   8.428
 3935ETHY    C1 3851  21.940   7.225   8.652
 3936ETHY    C1 3852  22.321   6.950   8.893
 3937ETHY    C1 3853  22.756   6.754   9.147
 3938AUSL   AUS 3854  20.432   8.908   7.666
 3939AUSL   AUS 3855  20.319   9.165   8.013
 3940AUL    AUL 3856  20.281   8.787   7.993
 3941THSLK    S 3857  20.377   8.672   7.745
 3942ETHY    C1 3858  20.102   8.313   7.788
 3943ETHY    C1 3859  19.851   7.848   7.869
 3944ETHY    C1 3860  19.695   7.358   7.981
 3945ETHY    C1 3861  19.626   6.859   8.122
 3946ETHY    C1 3862  19.650   6.359   8.292
 3947ETHY    C1 3863  19.767   5.871   8.489
 3948THSLK    S 3864  20.141   8.999   8.129
 3949ETHY    C1 3865  19.839   8.681   8.248
 3950ETHY    C1 3866  19.520   8.314   8.471
 3951ETHY    C1 3867  19.255   7.977   8.776
 3952ETHY    C1 3868  19.043   7.675   9.147
 3953ETHY    C1 3869  18.890   7.417   9.582
 3954ETHY    C1 3870  18.799   7.210  10.072
 3955AUSL   AUS 3871  20.736   8.908   7.666
 3956AUSL   AUS 3872  20.432   8.908   7.339
 3957AUL    AUL 3873  20.584   8.600   7.503
 3958THSLK    S 3874  20.379   8.669   7.270
 3959ETHY    C1 3875  20.107   8.307   7.236
 3960ETHY    C1 3876  19.857   7.842   7.157
 3961ETHY    C1 3877  19.700   7.353   7.041
 3962ETHY    C1 3878  19.630   6.854   6.896
 3963ETHY    C1 3879  19.654   6.355   6.727
 3964ETHY    C1 3880  19.773   5.864   6.538
 3965THSLK    S 3881  20.690   8.656   7.749
 3966ETHY    C1 3882  20.543   8.230   7.811
 3967ETHY    C1 3883  20.457   7.712   7.906
 3968ETHY    C1 3884  20.469   7.199   8.025
 3969ETHY    C1 3885  20.571   6.704   8.165
 3970ETHY    C1 3886  20.763   6.239   8.325
 3971ETHY    C1 3887  21.041   5.813   8.504
 3972AUSL   AUS 3888  20.584  10.161   7.094
 3973AUSL   AUS 3889  21.000  10.092   7.238
 3974AUL    AUL 3890  20.887  10.376   7.012
 3975THSLK    S 3891  20.631  10.388   6.977
 3976ETHY    C1 3892  20.821  10.667   6.674
 3977ETHY    C1 3893  20.972  11.048   6.330
 3978ETHY    C1 3894  21.036  11.468   6.021
 3979ETHY    C1 3895  21.020  11.918   5.752
 3980ETHY    C1 3896  20.924  12.388   5.532
 3981ETHY    C1 3897  20.749  12.871   5.366
 3982THSLK    S 3898  21.188  10.208   7.089
 3983ETHY    C1 3899  21.575  10.328   6.883
 3984ETHY    C1 3900  21.993  10.551   6.637
 3985ETHY    C1 3901  22.351  10.855   6.400
 3986ETHY    C1 3902  22.646  11.227   6.178
 3987ETHY    C1 3903  22.871  11.662   5.981
 3988ETHY    C1 3904  23.022  12.151   5.811
 3989AUSL   AUS 3905  20.432  10.255   7.339
 3990AUSL   AUS 3906  20.319   9.998   6.992
 3991AUL    AUL 3907  20.281  10.376   7.012
 3992THSLK    S 3908  20.478  10.502   7.239
 3993ETHY    C1 3909  20.625  10.899   7.074
 3994ETHY    C1 3910  20.711  11.393   6.889
 3995ETHY    C1 3911  20.699  11.894   6.727
 3996ETHY    C1 3912  20.597  12.390   6.593
 3997ETHY    C1 3913  20.405  12.871   6.492
 3998ETHY    C1 3914  20.127  13.329   6.427
 3999THSLK    S 3915  20.209  10.130   6.805
 4000ETHY    C1 3916  20.173  10.279   6.377
 4001ETHY    C1 3917  20.063  10.505   5.906
 4002ETHY    C1 3918  19.885  10.780   5.494
 4003ETHY    C1 3919  19.651  11.093   5.145
 4004ETHY    C1 3920  19.365  11.442   4.870
 4005ETHY    C1 3921  19.034  11.820   4.675
 4006AUSL   AUS 3922  20.584   9.001   7.094
 4007AUSL   AUS 3923  20.168   9.071   7.238
 4008AUL    AUL 3924  20.281   8.787   7.012
 4009THSLK    S 3925  19.985   8.923   7.134
 4010ETHY    C1 3926  19.602   8.679   7.124
 4011ETHY    C1 3927  19.184   8.358   7.035
 4012ETHY    C1 3928  18.825   8.012   6.866
 4013ETHY    C1 3929  18.528   7.651   6.631
 4014ETHY    C1 3930  18.303   7.279   6.331
 4015ETHY    C1 3931  18.156   6.902   5.974
 4016THSLK    S 3932  20.542   8.746   7.024
 4017ETHY    C1 3933  20.358   8.345   6.917
 4018ETHY    C1 3934  20.208   7.867   6.732
 4019ETHY    C1 3935  20.142   7.404   6.491
 4020ETHY    C1 3936  20.155   6.964   6.206
 4021ETHY    C1 3937  20.252   6.557   5.885
 4022ETHY    C1 3938  20.432   6.189   5.533
 4023AUSL   AUS 3939  20.736   8.908   7.339
 4024AUSL   AUS 3940  20.849   9.165   6.992
 4025AUL    AUL 3941  20.887   8.787   7.012
 4026THSLK    S 3942  20.693   8.654   7.266
 4027ETHY    C1 3943  20.549   8.226   7.213
 4028ETHY    C1 3944  20.462   7.707   7.120
 4029ETHY    C1 3945  20.474   7.195   6.997
 4030ETHY    C1 3946  20.575   6.701   6.854
 4031ETHY    C1 3947  20.767   6.236   6.695
 4032ETHY    C1 3948  21.047   5.808   6.523
 4033THSLK    S 3949  20.966   8.975   6.859
 4034ETHY    C1 3950  21.010   8.573   6.651
 4035ETHY    C1 3951  21.120   8.142   6.355
 4036ETHY    C1 3952  21.296   7.779   6.017
 4037ETHY    C1 3953  21.527   7.485   5.651
 4038ETHY    C1 3954  21.813   7.268   5.264
 4039ETHY    C1 3955  22.150   7.132   4.865
 4040AUC    AUC 3956  17.684  36.994   7.503
 4041AUC    AUC 3957  17.929  36.994   7.351
 4042AUC    AUC 3958  17.929  36.994   7.654
 4043AUC    AUC 3959  17.439  36.994   7.351
 4044AUC    AUC 3960  17.439  36.994   7.654
 4045AUC    AUC 3961  17.532  37.240   7.503
 4046AUC    AUC 3962  17.836  37.240   7.503
 4047AUC    AUC 3963  17.532  36.749   7.503
 4048AUC    AUC 3964  17.836  36.749   7.503
 4049AUC    AUC 3965  17.684  36.843   7.748
 4050AUC    AUC 3966  17.684  37.146   7.748
 4051AUC    AUC 3967  17.684  36.843   7.257
 4052AUC    AUC 3968  17.684  37.146   7.257
 4053AUC    AUC 3969  18.175  36.994   7.199
 4054AUC    AUC 3970  18.175  36.994   7.503
 4055AUC    AUC 3971  18.175  36.994   7.806
 4056AUC    AUC 3972  17.193  36.994   7.199
 4057AUC    AUC 3973  17.193  36.994   7.503
 4058AUC    AUC 3974  17.193  36.994   7.806
 4059AUC    AUC 3975  17.381  37.485   7.503
 4060AUC    AUC 3976  17.684  37.485   7.503
 4061AUC    AUC 3977  17.987  37.485   7.503
 4062AUC    AUC 3978  17.381  36.504   7.503
 4063AUC    AUC 3979  17.684  36.504   7.503
 4064AUC    AUC 3980  17.987  36.504   7.503
 4065AUC    AUC 3981  17.684  36.691   7.993
 4066AUC    AUC 3982  17.684  36.994   7.993
 4067AUC    AUC 3983  17.684  37.298   7.993
 4068AUC    AUC 3984  17.684  36.691   7.012
 4069AUC    AUC 3985  17.684  36.994   7.012
 4070AUC    AUC 3986  17.684  37.298   7.012
 4071AUC    AUC 3987  17.929  36.843   7.900
 4072AUC    AUC 3988  17.929  37.146   7.900
 4073AUC    AUC 3989  17.929  36.843   7.106
 4074AUC    AUC 3990  17.929  37.146   7.106
 4075AUC    AUC 3991  17.439  36.843   7.900
 4076AUC    AUC 3992  17.439  37.146   7.900
 4077AUC    AUC 3993  17.439  36.843   7.106
 4078AUC    AUC 3994  17.439  37.146   7.106
 4079AUC    AUC 3995  18.081  37.240   7.351
 4080AUC    AUC 3996  18.081  37.240   7.654
 4081AUC    AUC 3997  17.287  37.240   7.351
 4082AUC    AUC 3998  17.287  37.240   7.654
 4083AUC    AUC 3999  18.081  36.749   7.351
 4084AUC    AUC 4000  18.081  36.749   7.654
 4085AUC    AUC 4001  17.287  36.749   7.351
 4086AUC    AUC 4002  17.287  36.749   7.654
 4087AUC    AUC 4003  17.532  37.392   7.748
 4088AUC    AUC 4004  17.836  37.392   7.748
 4089AUC    AUC 4005  17.532  36.597   7.748
 4090AUC    AUC 4006  17.836  36.597   7.748
 4091AUC    AUC 4007  17.532  37.392   7.257
 4092AUC    AUC 4008  17.836  37.392   7.257
 4093AUC    AUC 4009  17.532  36.597   7.257
 4094AUC    AUC 4010  17.836  36.597   7.257
 4095AUSL   AUS 4011  18.093  36.994   8.083
 4096AUSL   AUS 4012  17.949  36.578   8.013
 4097AUL    AUL 4013  18.175  36.691   8.297
 4098THSLK    S 4014  18.059  36.391   8.153
 4099ETHY    C1 4015  18.095  35.992   8.368
 4100ETHY    C1 4016  18.205  35.562   8.665
 4101ETHY    C1 4017  18.383  35.198   9.000
 4102ETHY    C1 4018  18.617  34.902   9.364
 4103ETHY    C1 4019  18.903  34.685   9.752
 4104ETHY    C1 4020  19.234  34.552  10.156
 4105THSLK    S 4021  18.186  36.942   8.324
 4106ETHY    C1 4022  18.390  36.722   8.665
 4107ETHY    C1 4023  18.654  36.545   9.094
 4108ETHY    C1 4024  18.930  36.469   9.535
 4109ETHY    C1 4025  19.207  36.486   9.980
 4110ETHY    C1 4026  19.477  36.599  10.419
 4111ETHY    C1 4027  19.736  36.808  10.845
 4112AUSL   AUS 4028  17.848  36.843   8.176
 4113AUSL   AUS 4029  17.520  37.146   8.176
 4114AUL    AUL 4030  17.684  36.994   8.484
 4115THSLK    S 4031  17.923  36.788   8.413
 4116ETHY    C1 4032  17.987  36.508   8.765
 4117ETHY    C1 4033  18.090  36.253   9.223
 4118ETHY    C1 4034  18.217  36.094   9.708
 4119ETHY    C1 4035  18.359  36.025  10.208
 4120ETHY    C1 4036  18.513  36.053  10.713
 4121ETHY    C1 4037  18.673  36.177  11.212
 4122THSLK    S 4038  17.435  37.100   8.428
 4123ETHY    C1 4039  17.361  36.950   8.850
 4124ETHY    C1 4040  17.256  36.862   9.367
 4125ETHY    C1 4041  17.134  36.874   9.878
 4126ETHY    C1 4042  16.996  36.975  10.373
 4127ETHY    C1 4043  16.841  37.168  10.840
 4128ETHY    C1 4044  16.672  37.449  11.268
 4129AUSL   AUS 4045  17.848  37.146   8.176
 4130AUSL   AUS 4046  18.194  37.259   7.919
 4131AUL    AUL 4047  18.175  37.298   8.297
 4132THSLK    S 4048  17.933  37.202   8.410
 4133ETHY    C1 4049  18.007  37.483   8.759
 4134ETHY    C1 4050  18.112  37.738   9.217
 4135ETHY    C1 4051  18.234  37.897   9.703
 4136ETHY    C1 4052  18.373  37.966  10.204
 4137ETHY    C1 4053  18.527  37.939  10.708
 4138ETHY    C1 4054  18.696  37.815  11.206
 4139THSLK    S 4055  18.366  37.357   8.080
 4140ETHY    C1 4056  18.729  37.328   8.350
 4141ETHY    C1 4057  19.151  37.384   8.673
 4142ETHY    C1 4058  19.543  37.538   8.989
 4143ETHY    C1 4059  19.897  37.776   9.293
 4144ETHY    C1 4060  20.204  38.097   9.580
 4145ETHY    C1 4061  20.455  38.494   9.844
 4146AUSL   AUS 4062  18.093  36.994   6.923
 4147AUSL   AUS 4063  17.949  37.411   6.992
 4148AUL    AUL 4064  18.175  37.298   6.708
 4149THSLK    S 4065  18.195  36.942   6.687
 4150ETHY    C1 4066  18.408  36.722   6.351
 4151ETHY    C1 4067  18.673  36.545   5.923
 4152ETHY    C1 4068  18.945  36.469   5.479
 4153ETHY    C1 4069  19.219  36.486   5.033
 4154ETHY    C1 4070  19.490  36.599   4.594
 4155ETHY    C1 4071  19.755  36.808   4.173
 4156THSLK    S 4072  18.127  37.522   6.829
 4157ETHY    C1 4073  18.429  37.590   6.497
 4158ETHY    C1 4074  18.748  37.753   6.100
 4159ETHY    C1 4075  19.013  38.000   5.719
 4160ETHY    C1 4076  19.225  38.320   5.362
 4161ETHY    C1 4077  19.378  38.710   5.039
 4162ETHY    C1 4078  19.469  39.162   4.759
 4163AUSL   AUS 4079  17.848  36.843   6.829
 4164AUSL   AUS 4080  18.194  36.730   7.086
 4165AUL    AUL 4081  18.175  36.691   6.708
 4166THSLK    S 4082  18.327  36.538   6.949
 4167ETHY    C1 4083  18.510  36.171   6.752
 4168ETHY    C1 4084  18.782  35.799   6.483
 4169ETHY    C1 4085  19.107  35.510   6.186
 4170ETHY    C1 4086  19.473  35.303   5.874
 4171ETHY    C1 4087  19.877  35.184   5.555
 4172ETHY    C1 4088  20.310  35.159   5.235
 4173THSLK    S 4089  17.933  36.787   6.596
 4174ETHY    C1 4090  18.007  36.506   6.246
 4175ETHY    C1 4091  18.112  36.250   5.788
 4176ETHY    C1 4092  18.234  36.092   5.302
 4177ETHY    C1 4093  18.373  36.023   4.801
 4178ETHY    C1 4094  18.527  36.050   4.297
 4179ETHY    C1 4095  18.696  36.174   3.799
 4180AUSL   AUS 4096  17.848  37.146   6.829
 4181AUSL   AUS 4097  17.520  36.843   6.829
 4182AUL    AUL 4098  17.684  36.994   6.521
 4183THSLK    S 4099  17.428  36.787   6.597
 4184ETHY    C1 4100  17.293  36.509   6.264
 4185ETHY    C1 4101  17.132  36.256   5.822
 4186ETHY    C1 4102  16.980  36.099   5.343
 4187ETHY    C1 4103  16.844  36.030   4.842
 4188ETHY    C1 4104  16.727  36.056   4.328
 4189ETHY    C1 4105  16.634  36.175   3.810
 4190THSLK    S 4106  17.950  37.100   6.583
 4191ETHY    C1 4107  18.096  36.950   6.179
 4192ETHY    C1 4108  18.258  36.859   5.678
 4193ETHY    C1 4109  18.405  36.869   5.173
 4194ETHY    C1 4110  18.538  36.970   4.677
 4195ETHY    C1 4111  18.655  37.165   4.200
 4196ETHY    C1 4112  18.756  37.451   3.754
 4197AUSL   AUS 4113  17.275  36.994   8.083
 4198AUSL   AUS 4114  17.419  37.411   8.013
 4199AUL    AUL 4115  17.193  37.298   8.297
 4200THSLK    S 4116  17.173  36.942   8.319
 4201ETHY    C1 4117  16.961  36.722   8.654
 4202ETHY    C1 4118  16.695  36.545   9.082
 4203ETHY    C1 4119  16.423  36.469   9.526
 4204ETHY    C1 4120  16.149  36.486   9.973
 4205ETHY    C1 4121  15.878  36.599  10.411
 4206ETHY    C1 4122  15.613  36.808  10.832
 4207THSLK    S 4123  17.302  37.535   8.202
 4208ETHY    C1 4124  17.259  37.678   8.632
 4209ETHY    C1 4125  17.148  37.903   9.104
 4210ETHY    C1 4126  16.972  38.180   9.515
 4211ETHY    C1 4127  16.741  38.496   9.863
 4212ETHY    C1 4128  16.455  38.844  10.138
 4213ETHY    C1 4129  16.118  39.217  10.334
 4214AUSL   AUS 4130  17.520  36.843   8.176
 4215AUSL   AUS 4131  17.174  36.730   7.919
 4216AUL    AUL 4132  17.193  36.691   8.297
 4217THSLK    S 4133  16.997  36.567   8.026
 4218ETHY    C1 4134  16.626  36.310   8.082
 4219ETHY    C1 4135  16.204  36.022   8.237
 4220ETHY    C1 4136  15.814  35.767   8.482
 4221ETHY    C1 4137  15.462  35.550   8.803
 4222ETHY    C1 4138  15.156  35.379   9.198
 4223ETHY    C1 4139  14.899  35.258   9.657
 4224THSLK    S 4140  17.418  36.789   8.406
 4225ETHY    C1 4141  17.272  36.513   8.736
 4226ETHY    C1 4142  17.110  36.261   9.178
 4227ETHY    C1 4143  16.963  36.103   9.658
 4228ETHY    C1 4144  16.830  36.033  10.160
 4229ETHY    C1 4145  16.713  36.059  10.674
 4230ETHY    C1 4146  16.612  36.180  11.190
 4231AUSL   AUS 4147  17.275  36.994   6.923
 4232AUSL   AUS 4148  17.419  36.578   6.992
 4233AUL    AUL 4149  17.193  36.691   6.708
 4234THSLK    S 4150  17.182  36.942   6.681
 4235ETHY    C1 4151  16.978  36.722   6.341
 4236ETHY    C1 4152  16.714  36.545   5.911
 4237ETHY    C1 4153  16.438  36.469   5.470
 4238ETHY    C1 4154  16.161  36.486   5.025
 4239ETHY    C1 4155  15.891  36.599   4.586
 4240ETHY    C1 4156  15.632  36.808   4.161
 4241THSLK    S 4157  17.248  36.405   6.878
 4242ETHY    C1 4158  16.953  36.079   6.760
 4243ETHY    C1 4159  16.635  35.712   6.538
 4244ETHY    C1 4160  16.367  35.377   6.233
 4245ETHY    C1 4161  16.153  35.077   5.861
 4246ETHY    C1 4162  16.001  34.819   5.426
 4247ETHY    C1 4163  15.915  34.607   4.937
 4248AUSL   AUS 4164  17.520  37.146   6.829
 4249AUSL   AUS 4165  17.174  37.259   7.086
 4250AUL    AUL 4166  17.193  37.298   6.708
 4251THSLK    S 4167  17.047  37.386   6.895
 4252ETHY    C1 4168  16.870  37.467   6.484
 4253ETHY    C1 4169  16.599  37.607   6.046
 4254ETHY    C1 4170  16.272  37.795   5.679
 4255ETHY    C1 4171  15.903  38.024   5.385
 4256ETHY    C1 4172  15.501  38.291   5.173
 4257ETHY    C1 4173  15.072  38.593   5.047
 4258THSLK    S 4174  17.445  37.102   6.576
 4259ETHY    C1 4175  17.381  36.955   6.150
 4260ETHY    C1 4176  17.278  36.866   5.634
 4261ETHY    C1 4177  17.151  36.877   5.123
 4262ETHY    C1 4178  17.009  36.978   4.629
 4263ETHY    C1 4179  16.856  37.171   4.162
 4264ETHY    C1 4180  16.695  37.454   3.732
 4265AUSL   AUS 4181  18.264  37.403   7.503
 4266AUSL   AUS 4182  18.194  37.259   7.086
 4267AUL    AUL 4183  18.478  37.485   7.199
 4268THSLK    S 4184  18.372  37.358   6.934
 4269ETHY    C1 4185  18.742  37.331   6.671
 4270ETHY    C1 4186  19.164  37.387   6.349
 4271ETHY    C1 4187  19.554  37.541   6.030
 4272ETHY    C1 4188  19.906  37.778   5.724
 4273ETHY    C1 4189  20.213  38.099   5.438
 4274ETHY    C1 4190  20.469  38.498   5.179
 4275THSLK    S 4191  18.530  37.456   7.508
 4276ETHY    C1 4192  18.984  37.478   7.513
 4277ETHY    C1 4193  19.506  37.592   7.514
 4278ETHY    C1 4194  19.989  37.801   7.511
 4279ETHY    C1 4195  20.425  38.091   7.510
 4280ETHY    C1 4196  20.804  38.458   7.510
 4281ETHY    C1 4197  21.118  38.898   7.514
 4282AUSL   AUS 4198  18.358  37.158   7.351
 4283AUSL   AUS 4199  18.358  36.831   7.654
 4284AUL    AUL 4200  18.666  36.994   7.503
 4285THSLK    S 4201  18.614  37.197   7.350
 4286ETHY    C1 4202  19.050  37.089   7.286
 4287ETHY    C1 4203  19.576  37.051   7.201
 4288ETHY    C1 4204  20.091  37.115   7.113
 4289ETHY    C1 4205  20.585  37.269   7.026
 4290ETHY    C1 4206  21.045  37.514   6.945
 4291ETHY    C1 4207  21.464  37.846   6.873
 4292THSLK    S 4208  18.585  36.691   7.663
 4293ETHY    C1 4209  18.904  36.375   7.728
 4294ETHY    C1 4210  19.337  36.071   7.807
 4295ETHY    C1 4211  19.812  35.861   7.887
 4296ETHY    C1 4212  20.315  35.740   7.971
 4297ETHY    C1 4213  20.835  35.714   8.058
 4298ETHY    C1 4214  21.363  35.784   8.147
 4299AUSL   AUS 4215  18.358  37.158   7.654
 4300AUSL   AUS 4216  18.100  37.505   7.767
 4301AUL    AUL 4217  18.478  37.485   7.806
 4302THSLK    S 4218  18.283  37.619   7.926
 4303ETHY    C1 4219  18.666  37.737   8.140
 4304ETHY    C1 4220  19.084  37.960   8.388
 4305ETHY    C1 4221  19.443  38.265   8.622
 4306ETHY    C1 4222  19.740  38.638   8.840
 4307ETHY    C1 4223  19.965  39.072   9.038
 4308ETHY    C1 4224  20.112  39.560   9.215
 4309THSLK    S 4225  18.612  37.197   7.665
 4310ETHY    C1 4226  19.047  37.089   7.740
 4311ETHY    C1 4227  19.573  37.051   7.826
 4312ETHY    C1 4228  20.088  37.114   7.910
 4313ETHY    C1 4229  20.582  37.268   7.993
 4314ETHY    C1 4230  21.043  37.513   8.075
 4315ETHY    C1 4231  21.460  37.845   8.155
 4316AUSL   AUS 4232  17.104  37.403   7.503
 4317AUSL   AUS 4233  17.174  37.259   7.919
 4318AUL    AUL 4234  16.890  37.485   7.806
 4319THSLK    S 4235  17.041  37.378   8.109
 4320ETHY    C1 4236  16.858  37.450   8.519
 4321ETHY    C1 4237  16.586  37.590   8.957
 4322ETHY    C1 4238  16.261  37.781   9.324
 4323ETHY    C1 4239  15.895  38.012   9.619
 4324ETHY    C1 4240  15.492  38.279   9.831
 4325ETHY    C1 4241  15.058  38.575   9.956
 4326THSLK    S 4242  16.893  37.544   7.508
 4327ETHY    C1 4243  16.671  37.941   7.513
 4328ETHY    C1 4244  16.335  38.356   7.514
 4329ETHY    C1 4245  15.932  38.695   7.511
 4330ETHY    C1 4246  15.478  38.956   7.510
 4331ETHY    C1 4247  14.979  39.130   7.510
 4332ETHY    C1 4248  14.446  39.214   7.514
 4333AUSL   AUS 4249  17.010  37.158   7.351
 4334AUSL   AUS 4250  17.268  37.505   7.238
 4335AUL    AUL 4251  16.890  37.485   7.199
 4336THSLK    S 4252  16.783  37.273   7.303
 4337ETHY    C1 4253  16.464  37.473   7.049
 4338ETHY    C1 4254  16.031  37.679   6.813
 4339ETHY    C1 4255  15.556  37.845   6.661
 4340ETHY    C1 4256  15.053  37.974   6.590
 4341ETHY    C1 4257  14.533  38.064   6.605
 4342ETHY    C1 4258  14.005  38.112   6.708
 4343THSLK    S 4259  17.156  37.668   7.060
 4344ETHY    C1 4260  17.077  37.978   6.737
 4345ETHY    C1 4261  16.902  38.352   6.397
 4346ETHY    C1 4262  16.648  38.720   6.120
 4347ETHY    C1 4263  16.328  39.077   5.909
 4348ETHY    C1 4264  15.947  39.415   5.770
 4349ETHY    C1 4265  15.512  39.729   5.709
 4350AUSL   AUS 4266  17.010  37.158   7.654
 4351AUSL   AUS 4267  17.010  36.831   7.351
 4352AUL    AUL 4268  16.702  36.994   7.503
 4353THSLK    S 4269  16.756  36.758   7.394
 4354ETHY    C1 4270  16.321  36.740   7.524
 4355ETHY    C1 4271  15.795  36.680   7.597
 4356ETHY    C1 4272  15.280  36.576   7.578
 4357ETHY    C1 4273  14.786  36.433   7.477
 4358ETHY    C1 4274  14.326  36.250   7.294
 4359ETHY    C1 4275  13.908  36.030   7.034
 4360THSLK    S 4276  16.782  37.264   7.707
 4361ETHY    C1 4277  16.461  37.455   7.966
 4362ETHY    C1 4278  16.028  37.659   8.202
 4363ETHY    C1 4279  15.553  37.830   8.352
 4364ETHY    C1 4280  15.051  37.962   8.422
 4365ETHY    C1 4281  14.531  38.050   8.407
 4366ETHY    C1 4282  14.002  38.091   8.308
 4367AUSL   AUS 4283  18.264  36.585   7.503
 4368AUSL   AUS 4284  18.194  36.730   7.919
 4369AUL    AUL 4285  18.478  36.504   7.806
 4370THSLK    S 4286  18.475  36.444   7.508
 4371ETHY    C1 4287  18.697  36.048   7.513
 4372ETHY    C1 4288  19.033  35.633   7.514
 4373ETHY    C1 4289  19.436  35.294   7.511
 4374ETHY    C1 4290  19.890  35.033   7.510
 4375ETHY    C1 4291  20.389  34.859   7.510
 4376ETHY    C1 4292  20.922  34.775   7.514
 4377THSLK    S 4293  18.321  36.539   8.064
 4378ETHY    C1 4294  18.498  36.174   8.270
 4379ETHY    C1 4295  18.769  35.802   8.540
 4380ETHY    C1 4296  19.096  35.513   8.834
 4381ETHY    C1 4297  19.465  35.305   9.142
 4382ETHY    C1 4298  19.867  35.187   9.462
 4383ETHY    C1 4299  20.296  35.162   9.789
 4384AUSL   AUS 4300  18.358  36.831   7.351
 4385AUSL   AUS 4301  18.100  36.484   7.238
 4386AUL    AUL 4302  18.478  36.504   7.199
 4387THSLK    S 4303  18.586  36.691   7.353
 4388ETHY    C1 4304  18.907  36.374   7.298
 4389ETHY    C1 4305  19.340  36.071   7.221
 4390ETHY    C1 4306  19.815  35.861   7.136
 4391ETHY    C1 4307  20.317  35.740   7.048
 4392ETHY    C1 4308  20.837  35.713   6.963
 4393ETHY    C1 4309  21.366  35.784   6.881
 4394THSLK    S 4310  18.216  36.295   7.108
 4395ETHY    C1 4311  18.300  35.866   6.984
 4396ETHY    C1 4312  18.475  35.394   6.803
 4397ETHY    C1 4313  18.728  34.983   6.593
 4398ETHY    C1 4314  19.046  34.635   6.366
 4399ETHY    C1 4315  19.428  34.360   6.126
 4400ETHY    C1 4316  19.866  34.163   5.880
 4401AUSL   AUS 4317  17.104  36.585   7.503
 4402AUSL   AUS 4318  17.174  36.730   7.086
 4403AUL    AUL 4319  16.890  36.504   7.199
 4404THSLK    S 4320  17.003  36.559   6.978
 4405ETHY    C1 4321  16.639  36.294   6.921
 4406ETHY    C1 4322  16.217  36.004   6.766
 4407ETHY    C1 4323  15.825  35.752   6.521
 4408ETHY    C1 4324  15.471  35.539   6.200
 4409ETHY    C1 4325  15.164  35.366   5.806
 4410ETHY    C1 4326  14.913  35.239   5.346
 4411THSLK    S 4327  16.838  36.533   7.508
 4412ETHY    C1 4328  16.384  36.511   7.513
 4413ETHY    C1 4329  15.862  36.397   7.514
 4414ETHY    C1 4330  15.380  36.188   7.511
 4415ETHY    C1 4331  14.943  35.898   7.510
 4416ETHY    C1 4332  14.564  35.531   7.510
 4417ETHY    C1 4333  14.251  35.091   7.514
 4418AUSL   AUS 4334  17.010  36.831   7.654
 4419AUSL   AUS 4335  17.268  36.484   7.767
 4420AUL    AUL 4336  16.890  36.504   7.806
 4421THSLK    S 4337  17.080  36.344   7.878
 4422ETHY    C1 4338  16.693  36.107   7.893
 4423ETHY    C1 4339  16.275  35.787   7.982
 4424ETHY    C1 4340  15.917  35.438   8.149
 4425ETHY    C1 4341  15.622  35.074   8.382
 4426ETHY    C1 4342  15.397  34.703   8.683
 4427ETHY    C1 4343  15.246  34.332   9.045
 4428THSLK    S 4344  16.754  36.768   7.616
 4429ETHY    C1 4345  16.318  36.758   7.491
 4430ETHY    C1 4346  15.792  36.699   7.419
 4431ETHY    C1 4347  15.277  36.592   7.436
 4432ETHY    C1 4348  14.783  36.446   7.535
 4433ETHY    C1 4349  14.323  36.264   7.718
 4434ETHY    C1 4350  13.904  36.051   7.983
 4435AUSL   AUS 4351  17.684  37.574   7.912
 4436AUSL   AUS 4352  17.268  37.505   7.767
 4437AUL    AUL 4353  17.381  37.789   7.993
 4438THSLK    S 4354  17.152  37.661   7.952
 4439ETHY    C1 4355  17.068  37.963   8.280
 4440ETHY    C1 4356  16.893  38.336   8.621
 4441ETHY    C1 4357  16.640  38.707   8.895
 4442ETHY    C1 4358  16.322  39.066   9.105
 4443ETHY    C1 4359  15.940  39.404   9.244
 4444ETHY    C1 4360  15.502  39.712   9.309
 4445THSLK    S 4361  17.726  37.796   8.035
 4446ETHY    C1 4362  17.910  38.071   8.347
 4447ETHY    C1 4363  18.060  38.451   8.691
 4448ETHY    C1 4364  18.126  38.874   8.998
 4449ETHY    C1 4365  18.113  39.325   9.264
 4450ETHY    C1 4366  18.016  39.794   9.485
 4451ETHY    C1 4367  17.836  40.273   9.656
 4452AUSL   AUS 4368  17.532  37.668   7.666
 4453AUSL   AUS 4369  17.836  37.668   7.339
 4454AUL    AUL 4370  17.684  37.976   7.503
 4455THSLK    S 4371  17.575  37.912   7.776
 4456ETHY    C1 4372  17.719  38.306   7.951
 4457ETHY    C1 4373  17.806  38.800   8.137
 4458ETHY    C1 4374  17.794  39.301   8.294
 4459ETHY    C1 4375  17.693  39.799   8.425
 4460ETHY    C1 4376  17.501  40.280   8.527
 4461ETHY    C1 4377  17.221  40.735   8.600
 4462THSLK    S 4378  17.891  37.899   7.243
 4463ETHY    C1 4379  18.167  38.229   7.096
 4464ETHY    C1 4380  18.417  38.670   6.927
 4465ETHY    C1 4381  18.573  39.147   6.771
 4466ETHY    C1 4382  18.642  39.649   6.635
 4467ETHY    C1 4383  18.618  40.165   6.525
 4468ETHY    C1 4384  18.501  40.685   6.443
 4469AUSL   AUS 4385  17.836  37.668   7.666
 4470AUSL   AUS 4386  17.949  37.411   8.013
 4471AUL    AUL 4387  17.987  37.789   7.993
 4472THSLK    S 4388  18.120  37.519   8.183
 4473ETHY    C1 4389  18.415  37.584   8.523
 4474ETHY    C1 4390  18.733  37.746   8.920
 4475ETHY    C1 4391  19.001  37.995   9.298
 4476ETHY    C1 4392  19.215  38.317   9.653
 4477ETHY    C1 4393  19.367  38.705   9.976
 4478ETHY    C1 4394  19.453  39.155  10.262
 4479THSLK    S 4395  17.889  37.897   7.772
 4480ETHY    C1 4396  18.161  38.225   7.929
 4481ETHY    C1 4397  18.411  38.665   8.100
 4482ETHY    C1 4398  18.569  39.144   8.251
 4483ETHY    C1 4399  18.638  39.646   8.383
 4484ETHY    C1 4400  18.614  40.161   8.494
 4485ETHY    C1 4401  18.495  40.680   8.585
 4486AUSL   AUS 4402  17.684  36.414   7.912
 4487AUSL   AUS 4403  18.100  36.484   7.767
 4488AUL    AUL 4404  17.987  36.200   7.993
 4489THSLK    S 4405  17.637  36.164   7.989
 4490ETHY    C1 4406  17.447  35.768   8.103
 4491ETHY    C1 4407  17.296  35.290   8.289
 4492ETHY    C1 4408  17.233  34.825   8.528
 4493ETHY    C1 4409  17.248  34.383   8.809
 4494ETHY    C1 4410  17.344  33.976   9.132
 4495ETHY    C1 4411  17.519  33.613   9.489
 4496THSLK    S 4412  18.212  36.297   7.907
 4497ETHY    C1 4413  18.291  35.869   8.040
 4498ETHY    C1 4414  18.466  35.399   8.222
 4499ETHY    C1 4415  18.720  34.987   8.428
 4500ETHY    C1 4416  19.040  34.638   8.652
 4501ETHY    C1 4417  19.421  34.363   8.893
 4502ETHY    C1 4418  19.856  34.167   9.147
 4503AUSL   AUS 4419  17.532  36.321   7.666
 4504AUSL   AUS 4420  17.419  36.578   8.013
 4505AUL    AUL 4421  17.381  36.200   7.993
 4506THSLK    S 4422  17.477  36.085   7.745
 4507ETHY    C1 4423  17.202  35.726   7.788
 4508ETHY    C1 4424  16.951  35.261   7.869
 4509ETHY    C1 4425  16.795  34.771   7.981
 4510ETHY    C1 4426  16.726  34.272   8.122
 4511ETHY    C1 4427  16.750  33.772   8.292
 4512ETHY    C1 4428  16.867  33.284   8.489
 4513THSLK    S 4429  17.241  36.412   8.129
 4514ETHY    C1 4430  16.939  36.094   8.248
 4515ETHY    C1 4431  16.620  35.727   8.471
 4516ETHY    C1 4432  16.355  35.390   8.776
 4517ETHY    C1 4433  16.143  35.088   9.147
 4518ETHY    C1 4434  15.990  34.830   9.582
 4519ETHY    C1 4435  15.899  34.623  10.072
 4520AUSL   AUS 4436  17.836  36.321   7.666
 4521AUSL   AUS 4437  17.532  36.321   7.339
 4522AUL    AUL 4438  17.684  36.013   7.503
 4523THSLK    S 4439  17.479  36.082   7.270
 4524ETHY    C1 4440  17.207  35.720   7.236
 4525ETHY    C1 4441  16.957  35.255   7.157
 4526ETHY    C1 4442  16.800  34.766   7.041
 4527ETHY    C1 4443  16.730  34.267   6.896
 4528ETHY    C1 4444  16.754  33.768   6.727
 4529ETHY    C1 4445  16.873  33.277   6.538
 4530THSLK    S 4446  17.790  36.069   7.749
 4531ETHY    C1 4447  17.643  35.643   7.811
 4532ETHY    C1 4448  17.557  35.125   7.906
 4533ETHY    C1 4449  17.569  34.612   8.025
 4534ETHY    C1 4450  17.671  34.117   8.165
 4535ETHY    C1 4451  17.863  33.652   8.325
 4536ETHY    C1 4452  18.141  33.226   8.504
 4537AUSL   AUS 4453  17.684  37.574   7.094
 4538AUSL   AUS 4454  18.100  37.505   7.238
 4539AUL    AUL 4455  17.987  37.789   7.012
 4540THSLK    S 4456  17.731  37.801   6.977
 4541ETHY    C1 4457  17.921  38.080   6.674
 4542ETHY    C1 4458  18.072  38.461   6.330
 4543ETHY    C1 4459  18.136  38.881   6.021
 4544ETHY    C1 4460  18.120  39.331   5.752
 4545ETHY    C1 4461  18.024  39.801   5.532
 4546ETHY    C1 4462  17.849  40.284   5.366
 4547THSLK    S 4463  18.288  37.621   7.089
 4548ETHY    C1 4464  18.675  37.741   6.883
 4549ETHY    C1 4465  19.093  37.964   6.637
 4550ETHY    C1 4466  19.451  38.268   6.400
 4551ETHY    C1 4467  19.746  38.640   6.178
 4552ETHY    C1 4468  19.971  39.075   5.981
 4553ETHY    C1 4469  20.122  39.564   5.811
 4554AUSL   AUS 4470  17.532  37.668   7.339
 4555AUSL   AUS 4471  17.419  37.411   6.992
 4556AUL    AUL 4472  17.381  37.789   7.012
 4557THSLK    S 4473  17.578  37.915   7.239
 4558ETHY    C1 4474  17.725  38.312   7.074
 4559ETHY    C1 4475  17.811  38.806   6.889
 4560ETHY    C1 4476  17.799  39.307   6.727
 4561ETHY    C1 4477  17.697  39.803   6.593
 4562ETHY    C1 4478  17.505  40.284   6.492
 4563ETHY    C1 4479  17.227  40.742   6.427
 4564THSLK    S 4480  17.309  37.543   6.805
 4565ETHY    C1 4481  17.273  37.692   6.377
 4566ETHY    C1 4482  17.163  37.918   5.906
 4567ETHY    C1 4483  16.985  38.193   5.494
 4568ETHY    C1 4484  16.751  38.506   5.145
 4569ETHY    C1 4485  16.465  38.855   4.870
 4570ETHY    C1 4486  16.134  39.233   4.675
 4571AUSL   AUS 4487  17.684  36.414   7.094
 4572AUSL   AUS 4488  17.268  36.484   7.238
 4573AUL    AUL 4489  17.381  36.200   7.012
 4574THSLK    S 4490  17.085  36.336   7.134
 4575ETHY    C1 4491  16.702  36.092   7.124
 4576ETHY    C1 4492  16.284  35.771   7.035
 4577ETHY    C1 4493  15.925  35.425   6.866
 4578ETHY    C1 4494  15.628  35.064   6.631
 4579ETHY    C1 4495  15.403  34.692   6.331
 4580ETHY    C1 4496  15.256  34.315   5.974
 4581THSLK    S 4497  17.642  36.159   7.024
 4582ETHY    C1 4498  17.458  35.758   6.917
 4583ETHY    C1 4499  17.308  35.280   6.732
 4584ETHY    C1 4500  17.242  34.817   6.491
 4585ETHY    C1 4501  17.255  34.377   6.206
 4586ETHY    C1 4502  17.352  33.970   5.885
 4587ETHY    C1 4503  17.532  33.602   5.533
 4588AUSL   AUS 4504  17.836  36.321   7.339
 4589AUSL   AUS 4505  17.949  36.578   6.992
 4590AUL    AUL 4506  17.987  36.200   7.012
 4591THSLK    S 4507  17.793  36.067   7.266
 4592ETHY    C1 4508  17.649  35.639   7.213
 4593ETHY    C1 4509  17.562  35.120   7.120
 4594ETHY    C1 4510  17.574  34.608   6.997
 4595ETHY    C1 4511  17.675  34.114   6.854
 4596ETHY    C1 4512  17.867  33.649   6.695
 4597ETHY    C1 4513  18.147  33.221   6.523
 4598THSLK    S 4514  18.066  36.388   6.859
 4599ETHY    C1 4515  18.110  35.986   6.651
 4600ETHY    C1 4516  18.220  35.555   6.355
 4601ETHY    C1 4517  18.396  35.192   6.017
 4602ETHY    C1 4518  18.627  34.898   5.651
 4603ETHY    C1 4519  18.913  34.681   5.264
 4604ETHY    C1 4520  19.250  34.545   4.865
 4605AUC    AUC 4521  37.605  10.580   7.503
 4606AUC    AUC 4522  37.850  10.580   7.351
 4607AUC    AUC 4523  37.850  10.580   7.654
 4608AUC    AUC 4524  37.360  10.580   7.351
 4609AUC    AUC 4525  37.360  10.580   7.654
 4610AUC    AUC 4526  37.453  10.826   7.503
 4611AUC    AUC 4527  37.757  10.826   7.503
 4612AUC    AUC 4528  37.453  10.335   7.503
 4613AUC    AUC 4529  37.757  10.335   7.503
 4614AUC    AUC 4530  37.605  10.429   7.748
 4615AUC    AUC 4531  37.605  10.732   7.748
 4616AUC    AUC 4532  37.605  10.429   7.257
 4617AUC    AUC 4533  37.605  10.732   7.257
 4618AUC    AUC 4534  38.096  10.580   7.199
 4619AUC    AUC 4535  38.096  10.580   7.503
 4620AUC    AUC 4536  38.096  10.580   7.806
 4621AUC    AUC 4537  37.114  10.580   7.199
 4622AUC    AUC 4538  37.114  10.580   7.503
 4623AUC    AUC 4539  37.114  10.580   7.806
 4624AUC    AUC 4540  37.302  11.071   7.503
 4625AUC    AUC 4541  37.605  11.071   7.503
 4626AUC    AUC 4542  37.908  11.071   7.503
 4627AUC    AUC 4543  37.302  10.090   7.503
 4628AUC    AUC 4544  37.605  10.090   7.503
 4629AUC    AUC 4545  37.908  10.090   7.503
 4630AUC    AUC 4546  37.605  10.277   7.993
 4631AUC    AUC 4547  37.605  10.580   7.993
 4632AUC    AUC 4548  37.605  10.884   7.993
 4633AUC    AUC 4549  37.605  10.277   7.012
 4634AUC    AUC 4550  37.605  10.580   7.012
 4635AUC    AUC 4551  37.605  10.884   7.012
 4636AUC    AUC 4552  37.850  10.429   7.900
 4637AUC    AUC 4553  37.850  10.732   7.900
 4638AUC    AUC 4554  37.850  10.429   7.106
 4639AUC    AUC 4555  37.850  10.732   7.106
 4640AUC    AUC 4556  37.360  10.429   7.900
 4641AUC    AUC 4557  37.360  10.732   7.900
 4642AUC    AUC 4558  37.360  10.429   7.106
 4643AUC    AUC 4559  37.360  10.732   7.106
 4644AUC    AUC 4560  38.002  10.826   7.351
 4645AUC    AUC 4561  38.002  10.826   7.654
 4646AUC    AUC 4562  37.208  10.826   7.351
 4647AUC    AUC 4563  37.208  10.826   7.654
 4648AUC    AUC 4564  38.002  10.335   7.351
 4649AUC    AUC 4565  38.002  10.335   7.654
 4650AUC    AUC 4566  37.208  10.335   7.351
 4651AUC    AUC 4567  37.208  10.335   7.654
 4652AUC    AUC 4568  37.453  10.978   7.748
 4653AUC    AUC 4569  37.757  10.978   7.748
 4654AUC    AUC 4570  37.453  10.183   7.748
 4655AUC    AUC 4571  37.757  10.183   7.748
 4656AUC    AUC 4572  37.453  10.978   7.257
 4657AUC    AUC 4573  37.757  10.978   7.257
 4658AUC    AUC 4574  37.453  10.183   7.257
 4659AUC    AUC 4575  37.757  10.183   7.257
 4660AUSL   AUS 4576  38.014  10.580   8.083
 4661AUSL   AUS 4577  37.870  10.164   8.013
 4662AUL    AUL 4578  38.096  10.277   8.297
 4663THSLK    S 4579  37.980   9.977   8.153
 4664ETHY    C1 4580  38.016   9.578   8.368
 4665ETHY    C1 4581  38.126   9.148   8.665
 4666ETHY    C1 4582  38.304   8.784   9.000
 4667ETHY    C1 4583  38.538   8.488   9.364
 4668ETHY    C1 4584  38.824   8.271   9.752
 4669ETHY    C1 4585  39.155   8.138  10.156
 4670THSLK    S 4586  38.107  10.528   8.324
 4671ETHY    C1 4587  38.311  10.308   8.665
 4672ETHY    C1 4588  38.575  10.131   9.094
 4673ETHY    C1 4589  38.851  10.055   9.535
 4674ETHY    C1 4590  39.128  10.072   9.980
 4675ETHY    C1 4591  39.398  10.185  10.419
 4676ETHY    C1 4592  39.657  10.394  10.845
 4677AUSL   AUS 4593  37.769  10.429   8.176
 4678AUSL   AUS 4594  37.441  10.732   8.176
 4679AUL    AUL 4595  37.605  10.580   8.484
 4680THSLK    S 4596  37.844  10.374   8.413
 4681ETHY    C1 4597  37.908  10.094   8.765
 4682ETHY    C1 4598  38.011   9.839   9.223
 4683ETHY    C1 4599  38.138   9.680   9.708
 4684ETHY    C1 4600  38.280   9.611  10.208
 4685ETHY    C1 4601  38.434   9.639  10.713
 4686ETHY    C1 4602  38.594   9.763  11.212
 4687THSLK    S 4603  37.356  10.686   8.428
 4688ETHY    C1 4604  37.282  10.536   8.850
 4689ETHY    C1 4605  37.177  10.448   9.367
 4690ETHY    C1 4606  37.055  10.460   9.878
 4691ETHY    C1 4607  36.917  10.561  10.373
 4692ETHY    C1 4608  36.762  10.754  10.840
 4693ETHY    C1 4609  36.593  11.035  11.268
 4694AUSL   AUS 4610  37.769  10.732   8.176
 4695AUSL   AUS 4611  38.115  10.845   7.919
 4696AUL    AUL 4612  38.096  10.884   8.297
 4697THSLK    S 4613  37.854  10.788   8.410
 4698ETHY    C1 4614  37.928  11.069   8.759
 4699ETHY    C1 4615  38.033  11.324   9.217
 4700ETHY    C1 4616  38.155  11.483   9.703
 4701ETHY    C1 4617  38.294  11.552  10.204
 4702ETHY    C1 4618  38.448  11.525  10.708
 4703ETHY    C1 4619  38.617  11.401  11.206
 4704THSLK    S 4620  38.287  10.943   8.080
 4705ETHY    C1 4621  38.650  10.914   8.350
 4706ETHY    C1 4622  39.072  10.970   8.673
 4707ETHY    C1 4623  39.464  11.124   8.989
 4708ETHY    C1 4624  39.818  11.362   9.293
 4709ETHY    C1 4625  40.125  11.683   9.580
 4710ETHY    C1 4626  40.376  12.080   9.844
 4711AUSL   AUS 4627  38.014  10.580   6.923
 4712AUSL   AUS 4628  37.870  10.997   6.992
 4713AUL    AUL 4629  38.096  10.884   6.708
 4714THSLK    S 4630  38.116  10.528   6.687
 4715ETHY    C1 4631  38.329  10.308   6.351
 4716ETHY    C1 4632  38.594  10.131   5.923
 4717ETHY    C1 4633  38.866  10.055   5.479
 4718ETHY    C1 4634  39.140  10.072   5.033
 4719ETHY    C1 4635  39.411  10.185   4.594
 4720ETHY    C1 4636  39.676  10.394   4.173
 4721THSLK    S 4637  38.048  11.108   6.829
 4722ETHY    C1 4638  38.350  11.176   6.497
 4723ETHY    C1 4639  38.669  11.339   6.100
 4724ETHY    C1 4640  38.934  11.586   5.719
 4725ETHY    C1 4641  39.146  11.906   5.362
 4726ETHY    C1 4642  39.299  12.296   5.039
 4727ETHY    C1 4643  39.390  12.748   4.759
 4728AUSL   AUS 4644  37.769  10.429   6.829
 4729AUSL   AUS 4645  38.115  10.316   7.086
 4730AUL    AUL 4646  38.096  10.277   6.708
 4731THSLK    S 4647  38.248  10.124   6.949
 4732ETHY    C1 4648  38.431   9.757   6.752
 4733ETHY    C1 4649  38.703   9.385   6.483
 4734ETHY    C1 4650  39.028   9.096   6.186
 4735ETHY    C1 4651  39.394   8.889   5.874
 4736ETHY    C1 4652  39.798   8.770   5.555
 4737ETHY    C1 4653  40.231   8.745   5.235
 4738THSLK    S 4654  37.854  10.373   6.596
 4739ETHY    C1 4655  37.928  10.092   6.246
 4740ETHY    C1 4656  38.033   9.836   5.788
 4741ETHY    C1 4657  38.155   9.678   5.302
 4742ETHY    C1 4658  38.294   9.609   4.801
 4743ETHY    C1 4659  38.448   9.636   4.297
 4744ETHY    C1 4660  38.617   9.760   3.799
 4745AUSL   AUS 4661  37.769  10.732   6.829
 4746AUSL   AUS 4662  37.441  10.429   6.829
 4747AUL    AUL 4663  37.605  10.580   6.521
 4748THSLK    S 4664  37.349  10.373   6.597
 4749ETHY    C1 4665  37.214  10.095   6.264
 4750ETHY    C1 4666  37.053   9.842   5.822
 4751ETHY    C1 4667  36.901   9.685   5.343
 4752ETHY    C1 4668  36.765   9.616   4.842
 4753ETHY    C1 4669  36.648   9.642   4.328
 4754ETHY    C1 4670  36.555   9.761   3.810
 4755THSLK    S 4671  37.871  10.686   6.583
 4756ETHY    C1 4672  38.017  10.536   6.179
 4757ETHY    C1 4673  38.179  10.445   5.678
 4758ETHY    C1 4674  38.326  10.455   5.173
 4759ETHY    C1 4675  38.459  10.556   4.677
 4760ETHY    C1 4676  38.576  10.751   4.200
 4761ETHY    C1 4677  38.677  11.037   3.754
 4762AUSL   AUS 4678  37.196  10.580   8.083
 4763AUSL   AUS 4679  37.340  10.997   8.013
 4764AUL    AUL 4680  37.114  10.884   8.297
 4765THSLK    S 4681  37.094  10.528   8.319
 4766ETHY    C1 4682  36.882  10.308   8.654
 4767ETHY    C1 4683  36.616  10.131   9.082
 4768ETHY    C1 4684  36.344  10.055   9.526
 4769ETHY    C1 4685  36.070  10.072   9.973
 4770ETHY    C1 4686  35.799  10.185  10.411
 4771ETHY    C1 4687  35.534  10.394  10.832
 4772THSLK    S 4688  37.223  11.121   8.202
 4773ETHY    C1 4689  37.180  11.264   8.632
 4774ETHY    C1 4690  37.069  11.489   9.104
 4775ETHY    C1 4691  36.893  11.766   9.515
 4776ETHY    C1 4692  36.662  12.082   9.863
 4777ETHY    C1 4693  36.376  12.430  10.138
 4778ETHY    C1 4694  36.039  12.803  10.334
 4779AUSL   AUS 4695  37.441  10.429   8.176
 4780AUSL   AUS 4696  37.095  10.316   7.919
 4781AUL    AUL 4697  37.114  10.277   8.297
 4782THSLK    S 4698  36.918  10.153   8.026
 4783ETHY    C1 4699  36.547   9.896   8.082
 4784ETHY    C1 4700  36.125   9.608   8.237
 4785ETHY    C1 4701  35.735   9.353   8.482
 4786ETHY    C1 4702  35.383   9.136   8.803
 4787ETHY    C1 4703  35.077   8.965   9.198
 4788ETHY    C1 4704  34.820   8.844   9.657
 4789THSLK    S 4705  37.339  10.375   8.406
 4790ETHY    C1 4706  37.193  10.099   8.736
 4791ETHY    C1 4707  37.031   9.847   9.178
 4792ETHY    C1 4708  36.884   9.689   9.658
 4793ETHY    C1 4709  36.751   9.619  10.160
 4794ETHY    C1 4710  36.634   9.645  10.674
 4795ETHY    C1 4711  36.533   9.766  11.190
 4796AUSL   AUS 4712  37.196  10.580   6.923
 4797AUSL   AUS 4713  37.340  10.164   6.992
 4798AUL    AUL 4714  37.114  10.277   6.708
 4799THSLK    S 4715  37.103  10.528   6.681
 4800ETHY    C1 4716  36.899  10.308   6.341
 4801ETHY    C1 4717  36.635  10.131   5.911
 4802ETHY    C1 4718  36.359  10.055   5.470
 4803ETHY    C1 4719  36.082  10.072   5.025
 4804ETHY    C1 4720  35.812  10.185   4.586
 4805ETHY    C1 4721  35.553  10.394   4.161
 4806THSLK    S 4722  37.169   9.991   6.878
 4807ETHY    C1 4723  36.874   9.665   6.760
 4808ETHY    C1 4724  36.556   9.298   6.538
 4809ETHY    C1 4725  36.288   8.963   6.233
 4810ETHY    C1 4726  36.074   8.663   5.861
 4811ETHY    C1 4727  35.922   8.405   5.426
 4812ETHY    C1 4728  35.836   8.193   4.937
 4813AUSL   AUS 4729  37.441  10.732   6.829
 4814AUSL   AUS 4730  37.095  10.845   7.086
 4815AUL    AUL 4731  37.114  10.884   6.708
 4816THSLK    S 4732  36.968  10.972   6.895
 4817ETHY    C1 4733  36.791  11.053   6.484
 4818ETHY    C1 4734  36.520  11.193   6.046
 4819ETHY    C1 4735  36.193  11.381   5.679
 4820ETHY    C1 4736  35.824  11.610   5.385
 4821ETHY    C1 4737  35.422  11.877   5.173
 4822ETHY    C1 4738  34.993  12.179   5.047
 4823THSLK    S 4739  37.366  10.688   6.576
 4824ETHY    C1 4740  37.302  10.541   6.150
 4825ETHY    C1 4741  37.199  10.452   5.634
 4826ETHY    C1 4742  37.072  10.463   5.123
 4827ETHY    C1 4743  36.930  10.564   4.629
 4828ETHY    C1 4744  36.777  10.757   4.162
 4829ETHY    C1 4745  36.616  11.040   3.732
 4830AUSL   AUS 4746  38.185  10.989   7.503
 4831AUSL   AUS 4747  38.115  10.845   7.086
 4832AUL    AUL 4748  38.399  11.071   7.199
 4833THSLK    S 4749  38.293  10.944   6.934
 4834ETHY    C1 4750  38.663  10.917   6.671
 4835ETHY    C1 4751  39.085  10.973   6.349
 4836ETHY    C1 4752  39.475  11.127   6.030
 4837ETHY    C1 4753  39.827  11.364   5.724
 4838ETHY    C1 4754  40.134  11.685   5.438
 4839ETHY    C1 4755  40.390  12.084   5.179
 4840THSLK    S 4756  38.451  11.042   7.508
 4841ETHY    C1 4757  38.905  11.064   7.513
 4842ETHY    C1 4758  39.427  11.178   7.514
 4843ETHY    C1 4759  39.910  11.387   7.511
 4844ETHY    C1 4760  40.346  11.677   7.510
 4845ETHY    C1 4761  40.725  12.044   7.510
 4846ETHY    C1 4762  41.039  12.484   7.514
 4847AUSL   AUS 4763  38.279  10.744   7.351
 4848AUSL   AUS 4764  38.279  10.417   7.654
 4849AUL    AUL 4765  38.587  10.580   7.503
 4850THSLK    S 4766  38.535  10.783   7.350
 4851ETHY    C1 4767  38.971  10.675   7.286
 4852ETHY    C1 4768  39.497  10.637   7.201
 4853ETHY    C1 4769  40.012  10.701   7.113
 4854ETHY    C1 4770  40.506  10.855   7.026
 4855ETHY    C1 4771  40.966  11.100   6.945
 4856ETHY    C1 4772  41.385  11.432   6.873
 4857THSLK    S 4773  38.506  10.277   7.663
 4858ETHY    C1 4774  38.825   9.961   7.728
 4859ETHY    C1 4775  39.258   9.657   7.807
 4860ETHY    C1 4776  39.733   9.447   7.887
 4861ETHY    C1 4777  40.236   9.326   7.971
 4862ETHY    C1 4778  40.756   9.300   8.058
 4863ETHY    C1 4779  41.284   9.370   8.147
 4864AUSL   AUS 4780  38.279  10.744   7.654
 4865AUSL   AUS 4781  38.021  11.091   7.767
 4866AUL    AUL 4782  38.399  11.071   7.806
 4867THSLK    S 4783  38.204  11.205   7.926
 4868ETHY    C1 4784  38.587  11.323   8.140
 4869ETHY    C1 4785  39.005  11.546   8.388
 4870ETHY    C1 4786  39.364  11.851   8.622
 4871ETHY    C1 4787  39.661  12.224   8.840
 4872ETHY    C1 4788  39.886  12.658   9.038
 4873ETHY    C1 4789  40.033  13.146   9.215
 4874THSLK    S 4790  38.533  10.783   7.665
 4875ETHY    C1 4791  38.968  10.675   7.740
 4876ETHY    C1 4792  39.494  10.637   7.826
 4877ETHY    C1 4793  40.009  10.700   7.910
 4878ETHY    C1 4794  40.503  10.854   7.993
 4879ETHY    C1 4795  40.964  11.099   8.075
 4880ETHY    C1 4796  41.381  11.431   8.155
 4881AUSL   AUS 4797  37.025  10.989   7.503
 4882AUSL   AUS 4798  37.095  10.845   7.919
 4883AUL    AUL 4799  36.811  11.071   7.806
 4884THSLK    S 4800  36.962  10.964   8.109
 4885ETHY    C1 4801  36.779  11.036   8.519
 4886ETHY    C1 4802  36.507  11.176   8.957
 4887ETHY    C1 4803  36.182  11.367   9.324
 4888ETHY    C1 4804  35.816  11.598   9.619
 4889ETHY    C1 4805  35.413  11.865   9.831
 4890ETHY    C1 4806  34.979  12.161   9.956
 4891THSLK    S 4807  36.814  11.130   7.508
 4892ETHY    C1 4808  36.592  11.527   7.513
 4893ETHY    C1 4809  36.256  11.942   7.514
 4894ETHY    C1 4810  35.853  12.281   7.511
 4895ETHY    C1 4811  35.399  12.542   7.510
 4896ETHY    C1 4812  34.900  12.716   7.510
 4897ETHY    C1 4813  34.367  12.800   7.514
 4898AUSL   AUS 4814  36.931  10.744   7.351
 4899AUSL   AUS 4815  37.189  11.091   7.238
 4900AUL    AUL 4816  36.811  11.071   7.199
 4901THSLK    S 4817  36.704  10.859   7.303
 4902ETHY    C1 4818  36.385  11.059   7.049
 4903ETHY    C1 4819  35.952  11.265   6.813
 4904ETHY    C1 4820  35.477  11.431   6.661
 4905ETHY    C1 4821  34.974  11.560   6.590
 4906ETHY    C1 4822  34.454  11.650   6.605
 4907ETHY    C1 4823  33.926  11.698   6.708
 4908THSLK    S 4824  37.077  11.254   7.060
 4909ETHY    C1 4825  36.998  11.564   6.737
 4910ETHY    C1 4826  36.823  11.938   6.397
 4911ETHY    C1 4827  36.569  12.306   6.120
 4912ETHY    C1 4828  36.249  12.663   5.909
 4913ETHY    C1 4829  35.868  13.001   5.770
 4914ETHY    C1 4830  35.433  13.315   5.709
 4915AUSL   AUS 4831  36.931  10.744   7.654
 4916AUSL   AUS 4832  36.931  10.417   7.351
 4917AUL    AUL 4833  36.623  10.580   7.503
 4918THSLK    S 4834  36.677  10.344   7.394
 4919ETHY    C1 4835  36.242  10.326   7.524
 4920ETHY    C1 4836  35.716  10.266   7.597
 4921ETHY    C1 4837  35.201  10.162   7.578
 4922ETHY    C1 4838  34.707  10.019   7.477
 4923ETHY    C1 4839  34.247   9.836   7.294
 4924ETHY    C1 4840  33.829   9.616   7.034
 4925THSLK    S 4841  36.703  10.850   7.707
 4926ETHY    C1 4842  36.382  11.041   7.966
 4927ETHY    C1 4843  35.949  11.245   8.202
 4928ETHY    C1 4844  35.474  11.416   8.352
 4929ETHY    C1 4845  34.972  11.548   8.422
 4930ETHY    C1 4846  34.452  11.636   8.407
 4931ETHY    C1 4847  33.923  11.677   8.308
 4932AUSL   AUS 4848  38.185  10.171   7.503
 4933AUSL   AUS 4849  38.115  10.316   7.919
 4934AUL    AUL 4850  38.399  10.090   7.806
 4935THSLK    S 4851  38.396  10.030   7.508
 4936ETHY    C1 4852  38.618   9.634   7.513
 4937ETHY    C1 4853  38.954   9.219   7.514
 4938ETHY    C1 4854  39.357   8.880   7.511
 4939ETHY    C1 4855  39.811   8.619   7.510
 4940ETHY    C1 4856  40.310   8.445   7.510
 4941ETHY    C1 4857  40.843   8.361   7.514
 4942THSLK    S 4858  38.242  10.125   8.064
 4943ETHY    C1 4859  38.419   9.760   8.270
 4944ETHY    C1 4860  38.690   9.388   8.540
 4945ETHY    C1 4861  39.017   9.099   8.834
 4946ETHY    C1 4862  39.386   8.891   9.142
 4947ETHY    C1 4863  39.788   8.773   9.462
 4948ETHY    C1 4864  40.217   8.748   9.789
 4949AUSL   AUS 4865  38.279  10.417   7.351
 4950AUSL   AUS 4866  38.021  10.070   7.238
 4951AUL    AUL 4867  38.399  10.090   7.199
 4952THSLK    S 4868  38.507  10.277   7.353
 4953ETHY    C1 4869  38.828   9.960   7.298
 4954ETHY    C1 4870  39.261   9.657   7.221
 4955ETHY    C1 4871  39.736   9.447   7.136
 4956ETHY    C1 4872  40.238   9.326   7.048
 4957ETHY    C1 4873  40.758   9.299   6.963
 4958ETHY    C1 4874  41.287   9.370   6.881
 4959THSLK    S 4875  38.137   9.881   7.108
 4960ETHY    C1 4876  38.221   9.452   6.984
 4961ETHY    C1 4877  38.396   8.980   6.803
 4962ETHY    C1 4878  38.649   8.569   6.593
 4963ETHY    C1 4879  38.967   8.221   6.366
 4964ETHY    C1 4880  39.349   7.946   6.126
 4965ETHY    C1 4881  39.787   7.749   5.880
 4966AUSL   AUS 4882  37.025  10.171   7.503
 4967AUSL   AUS 4883  37.095  10.316   7.086
 4968AUL    AUL 4884  36.811  10.090   7.199
 4969THSLK    S 4885  36.924  10.145   6.978
 4970ETHY    C1 4886  36.560   9.880   6.921
 4971ETHY    C1 4887  36.138   9.590   6.766
 4972ETHY    C1 4888  35.746   9.338   6.521
 4973ETHY    C1 4889  35.392   9.125   6.200
 4974ETHY    C1 4890  35.085   8.952   5.806
 4975ETHY    C1 4891  34.834   8.825   5.346
 4976THSLK    S 4892  36.759  10.119   7.508
 4977ETHY    C1 4893  36.305  10.097   7.513
 4978ETHY    C1 4894  35.783   9.983   7.514
 4979ETHY    C1 4895  35.301   9.774   7.511
 4980ETHY    C1 4896  34.864   9.484   7.510
 4981ETHY    C1 4897  34.485   9.117   7.510
 4982ETHY    C1 4898  34.172   8.677   7.514
 4983AUSL   AUS 4899  36.931  10.417   7.654
 4984AUSL   AUS 4900  37.189  10.070   7.767
 4985AUL    AUL 4901  36.811  10.090   7.806
 4986THSLK    S 4902  37.001   9.930   7.878
 4987ETHY    C1 4903  36.614   9.693   7.893
 4988ETHY    C1 4904  36.196   9.373   7.982
 4989ETHY    C1 4905  35.838   9.024   8.149
 4990ETHY    C1 4906  35.543   8.660   8.382
 4991ETHY    C1 4907  35.318   8.289   8.683
 4992ETHY    C1 4908  35.167   7.918   9.045
 4993THSLK    S 4909  36.675  10.354   7.616
 4994ETHY    C1 4910  36.239  10.344   7.491
 4995ETHY    C1 4911  35.713  10.285   7.419
 4996ETHY    C1 4912  35.198  10.178   7.436
 4997ETHY    C1 4913  34.704  10.032   7.535
 4998ETHY    C1 4914  34.244   9.850   7.718
 4999ETHY    C1 4915  33.825   9.637   7.983
 5000AUSL   AUS 4916  37.605  11.160   7.912
 5001AUSL   AUS 4917  37.189  11.091   7.767
 5002AUL    AUL 4918  37.302  11.375   7.993
 5003THSLK    S 4919  37.073  11.247   7.952
 5004ETHY    C1 4920  36.989  11.549   8.280
 5005ETHY    C1 4921  36.814  11.922   8.621
 5006ETHY    C1 4922  36.561  12.293   8.895
 5007ETHY    C1 4923  36.243  12.652   9.105
 5008ETHY    C1 4924  35.861  12.990   9.244
 5009ETHY    C1 4925  35.423  13.298   9.309
 5010THSLK    S 4926  37.647  11.382   8.035
 5011ETHY    C1 4927  37.831  11.657   8.347
 5012ETHY    C1 4928  37.981  12.037   8.691
 5013ETHY    C1 4929  38.047  12.460   8.998
 5014ETHY    C1 4930  38.034  12.911   9.264
 5015ETHY    C1 4931  37.937  13.380   9.485
 5016ETHY    C1 4932  37.757  13.859   9.656
 5017AUSL   AUS 4933  37.453  11.254   7.666
 5018AUSL   AUS 4934  37.757  11.254   7.339
 5019AUL    AUL 4935  37.605  11.562   7.503
 5020THSLK    S 4936  37.496  11.498   7.776
 5021ETHY    C1 4937  37.640  11.892   7.951
 5022ETHY    C1 4938  37.727  12.386   8.137
 5023ETHY    C1 4939  37.715  12.887   8.294
 5024ETHY    C1 4940  37.614  13.385   8.425
 5025ETHY    C1 4941  37.422  13.866   8.527
 5026ETHY    C1 4942  37.142  14.321   8.600
 5027THSLK    S 4943  37.812  11.485   7.243
 5028ETHY    C1 4944  38.088  11.815   7.096
 5029ETHY    C1 4945  38.338  12.256   6.927
 5030ETHY    C1 4946  38.494  12.733   6.771
 5031ETHY    C1 4947  38.563  13.235   6.635
 5032ETHY    C1 4948  38.539  13.751   6.525
 5033ETHY    C1 4949  38.422  14.271   6.443
 5034AUSL   AUS 4950  37.757  11.254   7.666
 5035AUSL   AUS 4951  37.870  10.997   8.013
 5036AUL    AUL 4952  37.908  11.375   7.993
 5037THSLK    S 4953  38.041  11.105   8.183
 5038ETHY    C1 4954  38.336  11.170   8.523
 5039ETHY    C1 4955  38.654  11.332   8.920
 5040ETHY    C1 4956  38.922  11.581   9.298
 5041ETHY    C1 4957  39.136  11.903   9.653
 5042ETHY    C1 4958  39.288  12.291   9.976
 5043ETHY    C1 4959  39.374  12.741  10.262
 5044THSLK    S 4960  37.810  11.483   7.772
 5045ETHY    C1 4961  38.082  11.811   7.929
 5046ETHY    C1 4962  38.332  12.251   8.100
 5047ETHY    C1 4963  38.490  12.730   8.251
 5048ETHY    C1 4964  38.559  13.232   8.383
 5049ETHY    C1 4965  38.535  13.747   8.494
 5050ETHY    C1 4966  38.416  14.266   8.585
 5051AUSL   AUS 4967  37.605  10.000   7.912
 5052AUSL   AUS 4968  38.021  10.070   7.767
 5053AUL    AUL 4969  37.908   9.786   7.993
 5054THSLK    S 4970  37.558   9.750   7.989
 5055ETHY    C1 4971  37.368   9.354   8.103
 5056ETHY    C1 4972  37.217   8.876   8.289
 5057ETHY    C1 4973  37.154   8.411   8.528
 5058ETHY    C1 4974  37.169   7.969   8.809
 5059ETHY    C1 4975  37.265   7.562   9.132
 5060ETHY    C1 4976  37.440   7.199   9.489
 5061THSLK    S 4977  38.133   9.883   7.907
 5062ETHY    C1 4978  38.212   9.455   8.040
 5063ETHY    C1 4979  38.387   8.985   8.222
 5064ETHY    C1 4980  38.641   8.573   8.428
 5065ETHY    C1 4981  38.961   8.224   8.652
 5066ETHY    C1 4982  39.342   7.949   8.893
 5067ETHY    C1 4983  39.777   7.753   9.147
 5068AUSL   AUS 4984  37.453   9.907   7.666
 5069AUSL   AUS 4985  37.340  10.164   8.013
 5070AUL    AUL 4986  37.302   9.786   7.993
 5071THSLK    S 4987  37.398   9.671   7.745
 5072ETHY    C1 4988  37.123   9.312   7.788
 5073ETHY    C1 4989  36.872   8.847   7.869
 5074ETHY    C1 4990  36.716   8.357   7.981
 5075ETHY    C1 4991  36.647   7.858   8.122
 5076ETHY    C1 4992  36.671   7.358   8.292
 5077ETHY    C1 4993  36.788   6.870   8.489
 5078THSLK    S 4994  37.162   9.998   8.129
 5079ETHY    C1 4995  36.860   9.680   8.248
 5080ETHY    C1 4996  36.541   9.313   8.471
 5081ETHY    C1 4997  36.276   8.976   8.776
 5082ETHY    C1 4998  36.064   8.674   9.147
 5083ETHY    C1 4999  35.911   8.416   9.582
 5084ETHY    C1 5000  35.820   8.209  10.072
 5085AUSL   AUS 5001  37.757   9.907   7.666
 5086AUSL   AUS 5002  37.453   9.907   7.339
 5087AUL    AUL 5003  37.605   9.599   7.503
 5088THSLK    S 5004  37.400   9.668   7.270
 5089ETHY    C1 5005  37.128   9.306   7.236
 5090ETHY    C1 5006  36.878   8.841   7.157
 5091ETHY    C1 5007  36.721   8.352   7.041
 5092ETHY    C1 5008  36.651   7.853   6.896
 5093ETHY    C1 5009  36.675   7.354   6.727
 5094ETHY    C1 5010  36.794   6.863   6.538
 5095THSLK    S 5011  37.711   9.655   7.749
 5096ETHY    C1 5012  37.564   9.229   7.811
 5097ETHY    C1 5013  37.478   8.711   7.906
 5098ETHY    C1 5014  37.490   8.198   8.025
 5099ETHY    C1 5015  37.592   7.703   8.165
 5100ETHY    C1 5016  37.784   7.238   8.325
 5101ETHY    C1 5017  38.062   6.812   8.504
 5102AUSL   AUS 5018  37.605  11.160   7.094
 5103AUSL   AUS 5019  38.021  11.091   7.238
 5104AUL    AUL 5020  37.908  11.375   7.012
 5105THSLK    S 5021  37.652  11.387   6.977
 5106ETHY    C1 5022  37.842  11.666   6.674
 5107ETHY    C1 5023  37.993  12.047   6.330
 5108ETHY    C1 5024  38.057  12.467   6.021
 5109ETHY    C1 5025  38.041  12.917   5.752
 5110ETHY    C1 5026  37.945  13.387   5.532
 5111ETHY    C1 5027  37.770  13.870   5.366
 5112THSLK    S 5028  38.209  11.207   7.089
 5113ETHY    C1 5029  38.596  11.327   6.883
 5114ETHY    C1 5030  39.014  11.550   6.637
 5115ETHY    C1 5031  39.372  11.854   6.400
 5116ETHY    C1 5032  39.667  12.226   6.178
 5117ETHY    C1 5033  39.892  12.661   5.981
 5118ETHY    C1 5034  40.043  13.150   5.811
 5119AUSL   AUS 5035  37.453  11.254   7.339
 5120AUSL   AUS 5036  37.340  10.997   6.992
 5121AUL    AUL 5037  37.302  11.375   7.012
 5122THSLK    S 5038  37.499  11.501   7.239
 5123ETHY    C1 5039  37.646  11.898   7.074
 5124ETHY    C1 5040  37.732  12.392   6.889
 5125ETHY    C1 5041  37.720  12.893   6.727
 5126ETHY    C1 5042  37.618  13.389   6.593
 5127ETHY    C1 5043  37.426  13.870   6.492
 5128ETHY    C1 5044  37.148  14.328   6.427
 5129THSLK    S 5045  37.230  11.129   6.805
 5130ETHY    C1 5046  37.194  11.278   6.377
 5131ETHY    C1 5047  37.084  11.504   5.906
 5132ETHY    C1 5048  36.906  11.779   5.494
 5133ETHY    C1 5049  36.672  12.092   5.145
 5134ETHY    C1 5050  36.386  12.441   4.870
 5135ETHY    C1 5051  36.055  12.819   4.675
 5136AUSL   AUS 5052  37.605  10.000   7.094
 5137AUSL   AUS 5053  37.189  10.070   7.238
 5138AUL    AUL 5054  37.302   9.786   7.012
 5139THSLK    S 5055  37.006   9.922   7.134
 5140ETHY    C1 5056  36.623   9.678   7.124
 5141ETHY    C1 5057  36.205   9.357   7.035
 5142ETHY    C1 5058  35.846   9.011   6.866
 5143ETHY    C1 5059  35.549   8.650   6.631
 5144ETHY    C1 5060  35.324   8.278   6.331
 5145ETHY    C1 5061  35.177   7.901   5.974
 5146THSLK    S 5062  37.563   9.745   7.024
 5147ETHY    C1 5063  37.379   9.344   6.917
 5148ETHY    C1 5064  37.229   8.866   6.732
 5149ETHY    C1 5065  37.163   8.403   6.491
 5150ETHY    C1 5066  37.176   7.963   6.206
 5151ETHY    C1 5067  37.273   7.556   5.885
 5152ETHY    C1 5068  37.453   7.188   5.533
 5153AUSL   AUS 5069  37.757   9.907   7.339
 5154AUSL   AUS 5070  37.870  10.164   6.992
 5155AUL    AUL 5071  37.908   9.786   7.012
 5156THSLK    S 5072  37.714   9.653   7.266
 5157ETHY    C1 5073  37.570   9.225   7.213
 5158ETHY    C1 5074  37.483   8.706   7.120
 5159ETHY    C1 5075  37.495   8.194   6.997
 5160ETHY    C1 5076  37.596   7.700   6.854
 5161ETHY    C1 5077  37.788   7.235   6.695
 5162ETHY    C1 5078  38.068   6.807   6.523
 5163THSLK    S 5079  37.987   9.974   6.859
 5164ETHY    C1 5080  38.031   9.572   6.651
 5165ETHY    C1 5081  38.141   9.141   6.355
 5166ETHY    C1 5082  38.317   8.778   6.017
 5167ETHY    C1 5083  38.548   8.484   5.651
 5168ETHY    C1 5084  38.834   8.267   5.264
 5169ETHY    C1 5085  39.171   8.131   4.865
 5170AUC    AUC 5086   6.102  25.356   7.503
 5171AUC    AUC 5087   6.347  25.356   7.351
 5172AUC    AUC 5088   6.347  25.356   7.654
 5173AUC    AUC 5089   5.857  25.356   7.351
 5174AUC    AUC 5090   5.857  25.356   7.654
 5175AUC    AUC 5091   5.950  25.602   7.503
 5176AUC    AUC 5092   6.254  25.602   7.503
 5177AUC    AUC 5093   5.950  25.111   7.503
 5178AUC    AUC 5094   6.254  25.111   7.503
 5179AUC    AUC 5095   6.102  25.205   7.748
 5180AUC    AUC 5096   6.102  25.508   7.748
 5181AUC    AUC 5097   6.102  25.205   7.257
 5182AUC    AUC 5098   6.102  25.508   7.257
 5183AUC    AUC 5099   6.593  25.356   7.199
 5184AUC    AUC 5100   6.593  25.356   7.503
 5185AUC    AUC 5101   6.593  25.356   7.806
 5186AUC    AUC 5102   5.611  25.356   7.199
 5187AUC    AUC 5103   5.611  25.356   7.503
 5188AUC    AUC 5104   5.611  25.356   7.806
 5189AUC    AUC 5105   5.799  25.847   7.503
 5190AUC    AUC 5106   6.102  25.847   7.503
 5191AUC    AUC 5107   6.405  25.847   7.503
 5192AUC    AUC 5108   5.799  24.866   7.503
 5193AUC    AUC 5109   6.102  24.866   7.503
 5194AUC    AUC 5110   6.405  24.866   7.503
 5195AUC    AUC 5111   6.102  25.053   7.993
 5196AUC    AUC 5112   6.102  25.356   7.993
 5197AUC    AUC 5113   6.102  25.660   7.993
 5198AUC    AUC 5114   6.102  25.053   7.012
 5199AUC    AUC 5115   6.102  25.356   7.012
 5200AUC    AUC 5116   6.102  25.660   7.012
 5201AUC    AUC 5117   6.347  25.205   7.900
 5202AUC    AUC 5118   6.347  25.508   7.900
 5203AUC    AUC 5119   6.347  25.205   7.106
 5204AUC    AUC 5120   6.347  25.508   7.106
 5205AUC    AUC 5121   5.857  25.205   7.900
 5206AUC    AUC 5122   5.857  25.508   7.900
 5207AUC    AUC 5123   5.857  25.205   7.106
 5208AUC    AUC 5124   5.857  25.508   7.106
 5209AUC    AUC 5125   6.499  25.602   7.351
 5210AUC    AUC 5126   6.499  25.602   7.654
 5211AUC    AUC 5127   5.705  25.602   7.351
 5212AUC    AUC 5128   5.705  25.602   7.654
 5213AUC    AUC 5129   6.499  25.111   7.351
 5214AUC    AUC 5130   6.499  25.111   7.654
 5215AUC    AUC 5131   5.705  25.111   7.351
 5216AUC    AUC 5132   5.705  25.111   7.654
 5217AUC    AUC 5133   5.950  25.754   7.748
 5218AUC    AUC 5134   6.254  25.754   7.748
 5219AUC    AUC 5135   5.950  24.959   7.748
 5220AUC    AUC 5136   6.254  24.959   7.748
 5221AUC    AUC 5137   5.950  25.754   7.257
 5222AUC    AUC 5138   6.254  25.754   7.257
 5223AUC    AUC 5139   5.950  24.959   7.257
 5224AUC    AUC 5140   6.254  24.959   7.257
 5225AUSL   AUS 5141   6.511  25.356   8.083
 5226AUSL   AUS 5142   6.367  24.940   8.013
 5227AUL    AUL 5143   6.593  25.053   8.297
 5228THSLK    S 5144   6.477  24.753   8.153
 5229ETHY    C1 5145   6.513  24.354   8.368
 5230ETHY    C1 5146   6.623  23.924   8.665
 5231ETHY    C1 5147   6.801  23.560   9.000
 5232ETHY    C1 5148   7.035  23.264   9.364
 5233ETHY    C1 5149   7.321  23.047   9.752
 5234ETHY    C1 5150   7.652  22.914  10.156
 5235THSLK    S 5151   6.604  25.304   8.324
 5236ETHY    C1 5152   6.808  25.084   8.665
 5237ETHY    C1 5153   7.072  24.907   9.094
 5238ETHY    C1 5154   7.348  24.831   9.535
 5239ETHY    C1 5155   7.625  24.848   9.980
 5240ETHY    C1 5156   7.895  24.961  10.419
 5241ETHY    C1 5157   8.154  25.170  10.845
 5242AUSL   AUS 5158   6.266  25.205   8.176
 5243AUSL   AUS 5159   5.938  25.508   8.176
 5244AUL    AUL 5160   6.102  25.356   8.484
 5245THSLK    S 5161   6.341  25.150   8.413
 5246ETHY    C1 5162   6.405  24.870   8.765
 5247ETHY    C1 5163   6.508  24.615   9.223
 5248ETHY    C1 5164   6.635  24.456   9.708
 5249ETHY    C1 5165   6.777  24.387  10.208
 5250ETHY    C1 5166   6.931  24.415  10.713
 5251ETHY    C1 5167   7.091  24.539  11.212
 5252THSLK    S 5168   5.853  25.462   8.428
 5253ETHY    C1 5169   5.779  25.312   8.850
 5254ETHY    C1 5170   5.674  25.224   9.367
 5255ETHY    C1 5171   5.552  25.236   9.878
 5256ETHY    C1 5172   5.414  25.337  10.373
 5257ETHY    C1 5173   5.259  25.530  10.840
 5258ETHY    C1 5174   5.090  25.811  11.268
 5259AUSL   AUS 5175   6.266  25.508   8.176
 5260AUSL   AUS 5176   6.612  25.621   7.919
 5261AUL    AUL 5177   6.593  25.660   8.297
 5262THSLK    S 5178   6.351  25.564   8.410
 5263ETHY    C1 5179   6.425  25.845   8.759
 5264ETHY    C1 5180   6.530  26.100   9.217
 5265ETHY    C1 5181   6.652  26.259   9.703
 5266ETHY    C1 5182   6.791  26.328  10.204
 5267ETHY    C1 5183   6.945  26.301  10.708
 5268ETHY    C1 5184   7.114  26.177  11.206
 5269THSLK    S 5185   6.784  25.719   8.080
 5270ETHY    C1 5186   7.147  25.690   8.350
 5271ETHY    C1 5187   7.569  25.746   8.673
 5272ETHY    C1 5188   7.961  25.900   8.989
 5273ETHY    C1 5189   8.315  26.138   9.293
 5274ETHY    C1 5190   8.622  26.459   9.580
 5275ETHY    C1 5191   8.873  26.856   9.844
 5276AUSL   AUS 5192   6.511  25.356   6.923
 5277AUSL   AUS 5193   6.367  25.773   6.992
 5278AUL    AUL 5194   6.593  25.660   6.708
 5279THSLK    S 5195   6.613  25.304   6.687
 5280ETHY    C1 5196   6.826  25.084   6.351
 5281ETHY    C1 5197   7.091  24.907   5.923
 5282ETHY    C1 5198   7.363  24.831   5.479
 5283ETHY    C1 5199   7.637  24.848   5.033
 5284ETHY    C1 5200   7.908  24.961   4.594
 5285ETHY    C1 5201   8.173  25.170   4.173
 5286THSLK    S 5202   6.545  25.884   6.829
 5287ETHY    C1 5203   6.847  25.952   6.497
 5288ETHY    C1 5204   7.166  26.115   6.100
 5289ETHY    C1 5205   7.431  26.362   5.719
 5290ETHY    C1 5206   7.643  26.682   5.362
 5291ETHY    C1 5207   7.796  27.072   5.039
 5292ETHY    C1 5208   7.887  27.524   4.759
 5293AUSL   AUS 5209   6.266  25.205   6.829
 5294AUSL   AUS 5210   6.612  25.092   7.086
 5295AUL    AUL 5211   6.593  25.053   6.708
 5296THSLK    S 5212   6.745  24.900   6.949
 5297ETHY    C1 5213   6.928  24.533   6.752
 5298ETHY    C1 5214   7.200  24.161   6.483
 5299ETHY    C1 5215   7.525  23.872   6.186
 5300ETHY    C1 5216   7.891  23.665   5.874
 5301ETHY    C1 5217   8.295  23.546   5.555
 5302ETHY    C1 5218   8.728  23.521   5.235
 5303THSLK    S 5219   6.351  25.149   6.596
 5304ETHY    C1 5220   6.425  24.868   6.246
 5305ETHY    C1 5221   6.530  24.612   5.788
 5306ETHY    C1 5222   6.652  24.454   5.302
 5307ETHY    C1 5223   6.791  24.385   4.801
 5308ETHY    C1 5224   6.945  24.412   4.297
 5309ETHY    C1 5225   7.114  24.536   3.799
 5310AUSL   AUS 5226   6.266  25.508   6.829
 5311AUSL   AUS 5227   5.938  25.205   6.829
 5312AUL    AUL 5228   6.102  25.356   6.521
 5313THSLK    S 5229   5.846  25.149   6.597
 5314ETHY    C1 5230   5.711  24.871   6.264
 5315ETHY    C1 5231   5.550  24.618   5.822
 5316ETHY    C1 5232   5.398  24.461   5.343
 5317ETHY    C1 5233   5.262  24.392   4.842
 5318ETHY    C1 5234   5.145  24.418   4.328
 5319ETHY    C1 5235   5.052  24.537   3.810
 5320THSLK    S 5236   6.368  25.462   6.583
 5321ETHY    C1 5237   6.514  25.312   6.179
 5322ETHY    C1 5238   6.676  25.221   5.678
 5323ETHY    C1 5239   6.823  25.231   5.173
 5324ETHY    C1 5240   6.956  25.332   4.677
 5325ETHY    C1 5241   7.073  25.527   4.200
 5326ETHY    C1 5242   7.174  25.813   3.754
 5327AUSL   AUS 5243   5.693  25.356   8.083
 5328AUSL   AUS 5244   5.837  25.773   8.013
 5329AUL    AUL 5245   5.611  25.660   8.297
 5330THSLK    S 5246   5.591  25.304   8.319
 5331ETHY    C1 5247   5.379  25.084   8.654
 5332ETHY    C1 5248   5.113  24.907   9.082
 5333ETHY    C1 5249   4.841  24.831   9.526
 5334ETHY    C1 5250   4.567  24.848   9.973
 5335ETHY    C1 5251   4.296  24.961  10.411
 5336ETHY    C1 5252   4.031  25.170  10.832
 5337THSLK    S 5253   5.720  25.897   8.202
 5338ETHY    C1 5254   5.677  26.040   8.632
 5339ETHY    C1 5255   5.566  26.265   9.104
 5340ETHY    C1 5256   5.390  26.542   9.515
 5341ETHY    C1 5257   5.159  26.858   9.863
 5342ETHY    C1 5258   4.873  27.206  10.138
 5343ETHY    C1 5259   4.536  27.579  10.334
 5344AUSL   AUS 5260   5.938  25.205   8.176
 5345AUSL   AUS 5261   5.592  25.092   7.919
 5346AUL    AUL 5262   5.611  25.053   8.297
 5347THSLK    S 5263   5.415  24.929   8.026
 5348ETHY    C1 5264   5.044  24.672   8.082
 5349ETHY    C1 5265   4.622  24.384   8.237
 5350ETHY    C1 5266   4.232  24.129   8.482
 5351ETHY    C1 5267   3.880  23.912   8.803
 5352ETHY    C1 5268   3.574  23.741   9.198
 5353ETHY    C1 5269   3.317  23.620   9.657
 5354THSLK    S 5270   5.836  25.151   8.406
 5355ETHY    C1 5271   5.690  24.875   8.736
 5356ETHY    C1 5272   5.528  24.623   9.178
 5357ETHY    C1 5273   5.381  24.465   9.658
 5358ETHY    C1 5274   5.248  24.395  10.160
 5359ETHY    C1 5275   5.131  24.421  10.674
 5360ETHY    C1 5276   5.030  24.542  11.190
 5361AUSL   AUS 5277   5.693  25.356   6.923
 5362AUSL   AUS 5278   5.837  24.940   6.992
 5363AUL    AUL 5279   5.611  25.053   6.708
 5364THSLK    S 5280   5.600  25.304   6.681
 5365ETHY    C1 5281   5.396  25.084   6.341
 5366ETHY    C1 5282   5.132  24.907   5.911
 5367ETHY    C1 5283   4.856  24.831   5.470
 5368ETHY    C1 5284   4.579  24.848   5.025
 5369ETHY    C1 5285   4.309  24.961   4.586
 5370ETHY    C1 5286   4.050  25.170   4.161
 5371THSLK    S 5287   5.666  24.767   6.878
 5372ETHY    C1 5288   5.371  24.441   6.760
 5373ETHY    C1 5289   5.053  24.074   6.538
 5374ETHY    C1 5290   4.785  23.739   6.233
 5375ETHY    C1 5291   4.571  23.439   5.861
 5376ETHY    C1 5292   4.419  23.181   5.426
 5377ETHY    C1 5293   4.333  22.969   4.937
 5378AUSL   AUS 5294   5.938  25.508   6.829
 5379AUSL   AUS 5295   5.592  25.621   7.086
 5380AUL    AUL 5296   5.611  25.660   6.708
 5381THSLK    S 5297   5.465  25.748   6.895
 5382ETHY    C1 5298   5.288  25.829   6.484
 5383ETHY    C1 5299   5.017  25.969   6.046
 5384ETHY    C1 5300   4.690  26.157   5.679
 5385ETHY    C1 5301   4.321  26.386   5.385
 5386ETHY    C1 5302   3.919  26.653   5.173
 5387ETHY    C1 5303   3.490  26.955   5.047
 5388THSLK    S 5304   5.863  25.464   6.576
 5389ETHY    C1 5305   5.799  25.317   6.150
 5390ETHY    C1 5306   5.696  25.228   5.634
 5391ETHY    C1 5307   5.569  25.239   5.123
 5392ETHY    C1 5308   5.427  25.340   4.629
 5393ETHY    C1 5309   5.274  25.533   4.162
 5394ETHY    C1 5310   5.113  25.816   3.732
 5395AUSL   AUS 5311   6.682  25.765   7.503
 5396AUSL   AUS 5312   6.612  25.621   7.086
 5397AUL    AUL 5313   6.896  25.847   7.199
 5398THSLK    S 5314   6.790  25.720   6.934
 5399ETHY    C1 5315   7.160  25.693   6.671
 5400ETHY    C1 5316   7.582  25.749   6.349
 5401ETHY    C1 5317   7.972  25.903   6.030
 5402ETHY    C1 5318   8.324  26.140   5.724
 5403ETHY    C1 5319   8.631  26.461   5.438
 5404ETHY    C1 5320   8.887  26.860   5.179
 5405THSLK    S 5321   6.948  25.818   7.508
 5406ETHY    C1 5322   7.402  25.840   7.513
 5407ETHY    C1 5323   7.924  25.954   7.514
 5408ETHY    C1 5324   8.407  26.163   7.511
 5409ETHY    C1 5325   8.843  26.453   7.510
 5410ETHY    C1 5326   9.222  26.820   7.510
 5411ETHY    C1 5327   9.536  27.260   7.514
 5412AUSL   AUS 5328   6.776  25.520   7.351
 5413AUSL   AUS 5329   6.776  25.193   7.654
 5414AUL    AUL 5330   7.084  25.356   7.503
 5415THSLK    S 5331   7.032  25.559   7.350
 5416ETHY    C1 5332   7.468  25.451   7.286
 5417ETHY    C1 5333   7.994  25.413   7.201
 5418ETHY    C1 5334   8.509  25.477   7.113
 5419ETHY    C1 5335   9.003  25.631   7.026
 5420ETHY    C1 5336   9.463  25.876   6.945
 5421ETHY    C1 5337   9.882  26.208   6.873
 5422THSLK    S 5338   7.003  25.053   7.663
 5423ETHY    C1 5339   7.322  24.737   7.728
 5424ETHY    C1 5340   7.755  24.433   7.807
 5425ETHY    C1 5341   8.230  24.223   7.887
 5426ETHY    C1 5342   8.733  24.102   7.971
 5427ETHY    C1 5343   9.253  24.076   8.058
 5428ETHY    C1 5344   9.781  24.146   8.147
 5429AUSL   AUS 5345   6.776  25.520   7.654
 5430AUSL   AUS 5346   6.518  25.867   7.767
 5431AUL    AUL 5347   6.896  25.847   7.806
 5432THSLK    S 5348   6.701  25.981   7.926
 5433ETHY    C1 5349   7.084  26.099   8.140
 5434ETHY    C1 5350   7.502  26.322   8.388
 5435ETHY    C1 5351   7.861  26.627   8.622
 5436ETHY    C1 5352   8.158  27.000   8.840
 5437ETHY    C1 5353   8.383  27.434   9.038
 5438ETHY    C1 5354   8.530  27.922   9.215
 5439THSLK    S 5355   7.030  25.559   7.665
 5440ETHY    C1 5356   7.465  25.451   7.740
 5441ETHY    C1 5357   7.991  25.413   7.826
 5442ETHY    C1 5358   8.506  25.476   7.910
 5443ETHY    C1 5359   9.000  25.630   7.993
 5444ETHY    C1 5360   9.461  25.875   8.075
 5445ETHY    C1 5361   9.878  26.207   8.155
 5446AUSL   AUS 5362   5.522  25.765   7.503
 5447AUSL   AUS 5363   5.592  25.621   7.919
 5448AUL    AUL 5364   5.308  25.847   7.806
 5449THSLK    S 5365   5.459  25.740   8.109
 5450ETHY    C1 5366   5.276  25.812   8.519
 5451ETHY    C1 5367   5.004  25.952   8.957
 5452ETHY    C1 5368   4.679  26.143   9.324
 5453ETHY    C1 5369   4.313  26.374   9.619
 5454ETHY    C1 5370   3.910  26.641   9.831
 5455ETHY    C1 5371   3.476  26.937   9.956
 5456THSLK    S 5372   5.311  25.906   7.508
 5457ETHY    C1 5373   5.089  26.303   7.513
 5458ETHY    C1 5374   4.753  26.718   7.514
 5459ETHY    C1 5375   4.350  27.057   7.511
 5460ETHY    C1 5376   3.896  27.318   7.510
 5461ETHY    C1 5377   3.397  27.492   7.510
 5462ETHY    C1 5378   2.864  27.576   7.514
 5463AUSL   AUS 5379   5.428  25.520   7.351
 5464AUSL   AUS 5380   5.686  25.867   7.238
 5465AUL    AUL 5381   5.308  25.847   7.199
 5466THSLK    S 5382   5.201  25.635   7.303
 5467ETHY    C1 5383   4.882  25.835   7.049
 5468ETHY    C1 5384   4.449  26.041   6.813
 5469ETHY    C1 5385   3.974  26.207   6.661
 5470ETHY    C1 5386   3.471  26.336   6.590
 5471ETHY    C1 5387   2.951  26.426   6.605
 5472ETHY    C1 5388   2.423  26.474   6.708
 5473THSLK    S 5389   5.574  26.030   7.060
 5474ETHY    C1 5390   5.495  26.340   6.737
 5475ETHY    C1 5391   5.320  26.714   6.397
 5476ETHY    C1 5392   5.066  27.082   6.120
 5477ETHY    C1 5393   4.746  27.439   5.909
 5478ETHY    C1 5394   4.365  27.777   5.770
 5479ETHY    C1 5395   3.930  28.091   5.709
 5480AUSL   AUS 5396   5.428  25.520   7.654
 5481AUSL   AUS 5397   5.428  25.193   7.351
 5482AUL    AUL 5398   5.120  25.356   7.503
 5483THSLK    S 5399   5.174  25.120   7.394
 5484ETHY    C1 5400   4.739  25.102   7.524
 5485ETHY    C1 5401   4.213  25.042   7.597
 5486ETHY    C1 5402   3.698  24.938   7.578
 5487ETHY    C1 5403   3.204  24.795   7.477
 5488ETHY    C1 5404   2.744  24.612   7.294
 5489ETHY    C1 5405   2.326  24.392   7.034
 5490THSLK    S 5406   5.200  25.626   7.707
 5491ETHY    C1 5407   4.879  25.817   7.966
 5492ETHY    C1 5408   4.446  26.021   8.202
 5493ETHY    C1 5409   3.971  26.192   8.352
 5494ETHY    C1 5410   3.469  26.324   8.422
 5495ETHY    C1 5411   2.949  26.412   8.407
 5496ETHY    C1 5412   2.420  26.453   8.308
 5497AUSL   AUS 5413   6.682  24.947   7.503
 5498AUSL   AUS 5414   6.612  25.092   7.919
 5499AUL    AUL 5415   6.896  24.866   7.806
 5500THSLK    S 5416   6.893  24.806   7.508
 5501ETHY    C1 5417   7.115  24.410   7.513
 5502ETHY    C1 5418   7.451  23.995   7.514
 5503ETHY    C1 5419   7.854  23.656   7.511
 5504ETHY    C1 5420   8.308  23.395   7.510
 5505ETHY    C1 5421   8.807  23.221   7.510
 5506ETHY    C1 5422   9.340  23.137   7.514
 5507THSLK    S 5423   6.739  24.901   8.064
 5508ETHY    C1 5424   6.916  24.536   8.270
 5509ETHY    C1 5425   7.187  24.164   8.540
 5510ETHY    C1 5426   7.514  23.875   8.834
 5511ETHY    C1 5427   7.883  23.667   9.142
 5512ETHY    C1 5428   8.285  23.549   9.462
 5513ETHY    C1 5429   8.714  23.524   9.789
 5514AUSL   AUS 5430   6.776  25.193   7.351
 5515AUSL   AUS 5431   6.518  24.846   7.238
 5516AUL    AUL 5432   6.896  24.866   7.199
 5517THSLK    S 5433   7.004  25.053   7.353
 5518ETHY    C1 5434   7.325  24.736   7.298
 5519ETHY    C1 5435   7.758  24.433   7.221
 5520ETHY    C1 5436   8.233  24.223   7.136
 5521ETHY    C1 5437   8.735  24.102   7.048
 5522ETHY    C1 5438   9.255  24.075   6.963
 5523ETHY    C1 5439   9.784  24.146   6.881
 5524THSLK    S 5440   6.634  24.657   7.108
 5525ETHY    C1 5441   6.718  24.228   6.984
 5526ETHY    C1 5442   6.893  23.756   6.803
 5527ETHY    C1 5443   7.146  23.345   6.593
 5528ETHY    C1 5444   7.464  22.997   6.366
 5529ETHY    C1 5445   7.846  22.722   6.126
 5530ETHY    C1 5446   8.284  22.525   5.880
 5531AUSL   AUS 5447   5.522  24.947   7.503
 5532AUSL   AUS 5448   5.592  25.092   7.086
 5533AUL    AUL 5449   5.308  24.866   7.199
 5534THSLK    S 5450   5.421  24.921   6.978
 5535ETHY    C1 5451   5.057  24.656   6.921
 5536ETHY    C1 5452   4.635  24.366   6.766
 5537ETHY    C1 5453   4.243  24.114   6.521
 5538ETHY    C1 5454   3.889  23.901   6.200
 5539ETHY    C1 5455   3.582  23.728   5.806
 5540ETHY    C1 5456   3.331  23.601   5.346
 5541THSLK    S 5457   5.256  24.895   7.508
 5542ETHY    C1 5458   4.802  24.873   7.513
 5543ETHY    C1 5459   4.280  24.759   7.514
 5544ETHY    C1 5460   3.798  24.550   7.511
 5545ETHY    C1 5461   3.361  24.260   7.510
 5546ETHY    C1 5462   2.982  23.893   7.510
 5547ETHY    C1 5463   2.669  23.453   7.514
 5548AUSL   AUS 5464   5.428  25.193   7.654
 5549AUSL   AUS 5465   5.686  24.846   7.767
 5550AUL    AUL 5466   5.308  24.866   7.806
 5551THSLK    S 5467   5.498  24.706   7.878
 5552ETHY    C1 5468   5.111  24.469   7.893
 5553ETHY    C1 5469   4.693  24.149   7.982
 5554ETHY    C1 5470   4.335  23.800   8.149
 5555ETHY    C1 5471   4.040  23.436   8.382
 5556ETHY    C1 5472   3.815  23.065   8.683
 5557ETHY    C1 5473   3.664  22.694   9.045
 5558THSLK    S 5474   5.172  25.130   7.616
 5559ETHY    C1 5475   4.736  25.120   7.491
 5560ETHY    C1 5476   4.210  25.061   7.419
 5561ETHY    C1 5477   3.695  24.954   7.436
 5562ETHY    C1 5478   3.201  24.808   7.535
 5563ETHY    C1 5479   2.741  24.626   7.718
 5564ETHY    C1 5480   2.322  24.413   7.983
 5565AUSL   AUS 5481   6.102  25.936   7.912
 5566AUSL   AUS 5482   5.686  25.867   7.767
 5567AUL    AUL 5483   5.799  26.151   7.993
 5568THSLK    S 5484   5.570  26.023   7.952
 5569ETHY    C1 5485   5.486  26.325   8.280
 5570ETHY    C1 5486   5.311  26.698   8.621
 5571ETHY    C1 5487   5.058  27.069   8.895
 5572ETHY    C1 5488   4.740  27.428   9.105
 5573ETHY    C1 5489   4.358  27.766   9.244
 5574ETHY    C1 5490   3.920  28.074   9.309
 5575THSLK    S 5491   6.144  26.158   8.035
 5576ETHY    C1 5492   6.328  26.433   8.347
 5577ETHY    C1 5493   6.478  26.813   8.691
 5578ETHY    C1 5494   6.544  27.236   8.998
 5579ETHY    C1 5495   6.531  27.687   9.264
 5580ETHY    C1 5496   6.434  28.156   9.485
 5581ETHY    C1 5497   6.254  28.635   9.656
 5582AUSL   AUS 5498   5.950  26.030   7.666
 5583AUSL   AUS 5499   6.254  26.030   7.339
 5584AUL    AUL 5500   6.102  26.338   7.503
 5585THSLK    S 5501   5.993  26.274   7.776
 5586ETHY    C1 5502   6.137  26.668   7.951
 5587ETHY    C1 5503   6.224  27.162   8.137
 5588ETHY    C1 5504   6.212  27.663   8.294
 5589ETHY    C1 5505   6.111  28.161   8.425
 5590ETHY    C1 5506   5.919  28.642   8.527
 5591ETHY    C1 5507   5.639  29.097   8.600
 5592THSLK    S 5508   6.309  26.261   7.243
 5593ETHY    C1 5509   6.585  26.591   7.096
 5594ETHY    C1 5510   6.835  27.032   6.927
 5595ETHY    C1 5511   6.991  27.509   6.771
 5596ETHY    C1 5512   7.060  28.011   6.635
 5597ETHY    C1 5513   7.036  28.527   6.525
 5598ETHY    C1 5514   6.919  29.047   6.443
 5599AUSL   AUS 5515   6.254  26.030   7.666
 5600AUSL   AUS 5516   6.367  25.773   8.013
 5601AUL    AUL 5517   6.405  26.151   7.993
 5602THSLK    S 5518   6.538  25.881   8.183
 5603ETHY    C1 5519   6.833  25.946   8.523
 5604ETHY    C1 5520   7.151  26.108   8.920
 5605ETHY    C1 5521   7.419  26.357   9.298
 5606ETHY    C1 5522   7.633  26.679   9.653
 5607ETHY    C1 5523   7.785  27.067   9.976
 5608ETHY    C1 5524   7.871  27.517  10.262
 5609THSLK    S 5525   6.307  26.259   7.772
 5610ETHY    C1 5526   6.579  26.587   7.929
 5611ETHY    C1 5527   6.829  27.027   8.100
 5612ETHY    C1 5528   6.987  27.506   8.251
 5613ETHY    C1 5529   7.056  28.008   8.383
 5614ETHY    C1 5530   7.032  28.523   8.494
 5615ETHY    C1 5531   6.913  29.042   8.585
 5616AUSL   AUS 5532   6.102  24.776   7.912
 5617AUSL   AUS 5533   6.518  24.846   7.767
 5618AUL    AUL 5534   6.405  24.562   7.993
 5619THSLK    S 5535   6.055  24.526   7.989
 5620ETHY    C1 5536   5.865  24.130   8.103
 5621ETHY    C1 5537   5.714  23.652   8.289
 5622ETHY    C1 5538   5.651  23.187   8.528
 5623ETHY    C1 5539   5.666  22.745   8.809
 5624ETHY    C1 5540   5.762  22.338   9.132
 5625ETHY    C1 5541   5.937  21.975   9.489
 5626THSLK    S 5542   6.630  24.659   7.907
 5627ETHY    C1 5543   6.709  24.231   8.040
 5628ETHY    C1 5544   6.884  23.761   8.222
 5629ETHY    C1 5545   7.138  23.349   8.428
 5630ETHY    C1 5546   7.458  23.000   8.652
 5631ETHY    C1 5547   7.839  22.725   8.893
 5632ETHY    C1 5548   8.274  22.529   9.147
 5633AUSL   AUS 5549   5.950  24.683   7.666
 5634AUSL   AUS 5550   5.837  24.940   8.013
 5635AUL    AUL 5551   5.799  24.562   7.993
 5636THSLK    S 5552   5.895  24.447   7.745
 5637ETHY    C1 5553   5.620  24.088   7.788
 5638ETHY    C1 5554   5.369  23.623   7.869
 5639ETHY    C1 5555   5.213  23.133   7.981
 5640ETHY    C1 5556   5.144  22.634   8.122
 5641ETHY    C1 5557   5.168  22.134   8.292
 5642ETHY    C1 5558   5.285  21.646   8.489
 5643THSLK    S 5559   5.659  24.774   8.129
 5644ETHY    C1 5560   5.357  24.456   8.248
 5645ETHY    C1 5561   5.038  24.089   8.471
 5646ETHY    C1 5562   4.773  23.752   8.776
 5647ETHY    C1 5563   4.561  23.450   9.147
 5648ETHY    C1 5564   4.408  23.192   9.582
 5649ETHY    C1 5565   4.317  22.985  10.072
 5650AUSL   AUS 5566   6.254  24.683   7.666
 5651AUSL   AUS 5567   5.950  24.683   7.339
 5652AUL    AUL 5568   6.102  24.375   7.503
 5653THSLK    S 5569   5.897  24.444   7.270
 5654ETHY    C1 5570   5.625  24.082   7.236
 5655ETHY    C1 5571   5.375  23.617   7.157
 5656ETHY    C1 5572   5.218  23.128   7.041
 5657ETHY    C1 5573   5.148  22.629   6.896
 5658ETHY    C1 5574   5.172  22.130   6.727
 5659ETHY    C1 5575   5.291  21.639   6.538
 5660THSLK    S 5576   6.208  24.431   7.749
 5661ETHY    C1 5577   6.061  24.005   7.811
 5662ETHY    C1 5578   5.975  23.487   7.906
 5663ETHY    C1 5579   5.987  22.974   8.025
 5664ETHY    C1 5580   6.089  22.479   8.165
 5665ETHY    C1 5581   6.281  22.014   8.325
 5666ETHY    C1 5582   6.559  21.588   8.504
 5667AUSL   AUS 5583   6.102  25.936   7.094
 5668AUSL   AUS 5584   6.518  25.867   7.238
 5669AUL    AUL 5585   6.405  26.151   7.012
 5670THSLK    S 5586   6.149  26.163   6.977
 5671ETHY    C1 5587   6.339  26.442   6.674
 5672ETHY    C1 5588   6.490  26.823   6.330
 5673ETHY    C1 5589   6.554  27.243   6.021
 5674ETHY    C1 5590   6.538  27.693   5.752
 5675ETHY    C1 5591   6.442  28.163   5.532
 5676ETHY    C1 5592   6.267  28.646   5.366
 5677THSLK    S 5593   6.706  25.983   7.089
 5678ETHY    C1 5594   7.093  26.103   6.883
 5679ETHY    C1 5595   7.511  26.326   6.637
 5680ETHY    C1 5596   7.869  26.630   6.400
 5681ETHY    C1 5597   8.164  27.002   6.178
 5682ETHY    C1 5598   8.389  27.437   5.981
 5683ETHY    C1 5599   8.540  27.926   5.811
 5684AUSL   AUS 5600   5.950  26.030   7.339
 5685AUSL   AUS 5601   5.837  25.773   6.992
 5686AUL    AUL 5602   5.799  26.151   7.012
 5687THSLK    S 5603   5.996  26.277   7.239
 5688ETHY    C1 5604   6.143  26.674   7.074
 5689ETHY    C1 5605   6.229  27.168   6.889
 5690ETHY    C1 5606   6.217  27.669   6.727
 5691ETHY    C1 5607   6.115  28.165   6.593
 5692ETHY    C1 5608   5.923  28.646   6.492
 5693ETHY    C1 5609   5.645  29.104   6.427
 5694THSLK    S 5610   5.727  25.905   6.805
 5695ETHY    C1 5611   5.691  26.054   6.377
 5696ETHY    C1 5612   5.581  26.280   5.906
 5697ETHY    C1 5613   5.403  26.555   5.494
 5698ETHY    C1 5614   5.169  26.868   5.145
 5699ETHY    C1 5615   4.883  27.217   4.870
 5700ETHY    C1 5616   4.552  27.595   4.675
 5701AUSL   AUS 5617   6.102  24.776   7.094
 5702AUSL   AUS 5618   5.686  24.846   7.238
 5703AUL    AUL 5619   5.799  24.562   7.012
 5704THSLK    S 5620   5.503  24.698   7.134
 5705ETHY    C1 5621   5.120  24.454   7.124
 5706ETHY    C1 5622   4.702  24.133   7.035
 5707ETHY    C1 5623   4.343  23.787   6.866
 5708ETHY    C1 5624   4.046  23.426   6.631
 5709ETHY    C1 5625   3.821  23.054   6.331
 5710ETHY    C1 5626   3.674  22.677   5.974
 5711THSLK    S 5627   6.060  24.521   7.024
 5712ETHY    C1 5628   5.876  24.120   6.917
 5713ETHY    C1 5629   5.726  23.642   6.732
 5714ETHY    C1 5630   5.660  23.179   6.491
 5715ETHY    C1 5631   5.673  22.739   6.206
 5716ETHY    C1 5632   5.770  22.332   5.885
 5717ETHY    C1 5633   5.950  21.964   5.533
 5718AUSL   AUS 5634   6.254  24.683   7.339
 5719AUSL   AUS 5635   6.367  24.940   6.992
 5720AUL    AUL 5636   6.405  24.562   7.012
 5721THSLK    S 5637   6.211  24.429   7.266
 5722ETHY    C1 5638   6.067  24.001   7.213
 5723ETHY    C1 5639   5.980  23.482   7.120
 5724ETHY    C1 5640   5.992  22.970   6.997
 5725ETHY    C1 5641   6.093  22.476   6.854
 5726ETHY    C1 5642   6.285  22.011   6.695
 5727ETHY    C1 5643   6.565  21.583   6.523
 5728THSLK    S 5644   6.484  24.750   6.859
 5729ETHY    C1 5645   6.528  24.348   6.651
 5730ETHY    C1 5646   6.638  23.917   6.355
 5731ETHY    C1 5647   6.814  23.554   6.017
 5732ETHY    C1 5648   7.045  23.260   5.651
 5733ETHY    C1 5649   7.331  23.043   5.264
 5734ETHY    C1 5650   7.668  22.907   4.865
 5735POPC   NC3 5651   0.430  19.818   9.455
 5735POPC   PO4 5652   0.389  19.841   9.155
 5735POPC   GL1 5653   0.413  19.801   8.855
 5735POPC   GL2 5654   0.334  19.758   8.855
 5735POPC   C1A 5655   0.462  19.797   8.555
 5735POPC   D2A 5656   0.417  19.877   8.255
 5735POPC   C3A 5657   0.439  19.849   7.955
 5735POPC   C4A 5658   0.471  19.803   7.655
 5735POPC   C1B 5659   0.244  19.722   8.555
 5735POPC   C2B 5660   0.200  19.675   8.255
 5735POPC   C3B 5661   0.243  19.741   7.955
 5735POPC   C4B 5662   0.227  19.650   7.655
 5736POPC   NC3 5663  37.646  30.717   9.455
 5736POPC   PO4 5664  37.638  30.725   9.155
 5736POPC   GL1 5665  37.655  30.729   8.855
 5736POPC   GL2 5666  37.780  30.635   8.855
 5736POPC   C1A 5667  37.651  30.720   8.555
 5736POPC   D2A 5668  37.712  30.721   8.255
 5736POPC   C3A 5669  37.680  30.704   7.955
 5736POPC   C4A 5670  37.703  30.689   7.655
 5736POPC   C1B 5671  37.919  30.536   8.555
 5736POPC   C2B 5672  37.852  30.596   8.255
 5736POPC   C3B 5673  37.936  30.579   7.955
 5736POPC   C4B 5674  37.893  30.587   7.655
 5737POPC   NC3 5675  13.674  26.815   9.455
 5737POPC   PO4 5676  13.665  26.777   9.155
 5737POPC   GL1 5677  13.583  26.805   8.855
 5737POPC   GL2 5678  13.605  26.939   8.855
 5737POPC   C1A 5679  13.599  26.804   8.555
 5737POPC   D2A 5680  13.645  26.804   8.255
 5737POPC   C3A 5681  13.608  26.778   7.955
 5737POPC   C4A 5682  13.625  26.825   7.655
 5737POPC   C1B 5683  13.673  27.063   8.555
 5737POPC   C2B 5684  13.604  27.034   8.255
 5737POPC   C3B 5685  13.637  27.065   7.955
 5737POPC   C4B 5686  13.647  27.047   7.655
 5738POPC   NC3 5687  30.651  44.675   9.455
 5738POPC   PO4 5688  30.652  44.635   9.155
 5738POPC   GL1 5689  30.671  44.643   8.855
 5738POPC   GL2 5690  30.575  44.801   8.855
 5738POPC   C1A 5691  30.664  44.688   8.555
 5738POPC   D2A 5692  30.701  44.710   8.255
 5738POPC   C3A 5693  30.669  44.674   7.955
 5738POPC   C4A 5694  30.739  44.709   7.655
 5738POPC   C1B 5695  30.513  44.824   8.555
 5738POPC   C2B 5696  30.596  44.831   8.255
 5738POPC   C3B 5697  30.568  44.890   7.955
 5738POPC   C4B 5698  30.518  44.835   7.655
 5739POPC   NC3 5699  38.421  27.629   9.455
 5739POPC   PO4 5700  38.442  27.571   9.155
 5739POPC   GL1 5701  38.462  27.633   8.855
 5739POPC   GL2 5702  38.440  27.442   8.855
 5739POPC   C1A 5703  38.505  27.639   8.555
 5739POPC   D2A 5704  38.431  27.583   8.255
 5739POPC   C3A 5705  38.455  27.637   7.955
 5739POPC   C4A 5706  38.424  27.553   7.655
 5739POPC   C1B 5707  38.424  27.301   8.555
 5739POPC   C2B 5708  38.441  27.370   8.255
 5739POPC   C3B 5709  38.437  27.363   7.955
 5739POPC   C4B 5710  38.506  27.366   7.655
 5740POPC   NC3 5711  38.449  26.060   9.455
 5740POPC   PO4 5712  38.444  26.046   9.155
 5740POPC   GL1 5713  38.424  26.081   8.855
 5740POPC   GL2 5714  38.515  26.212   8.855
 5740POPC   C1A 5715  38.407  26.011   8.555
 5740POPC   D2A 5716  38.417  26.061   8.255
 5740POPC   C3A 5717  38.432  25.994   7.955
 5740POPC   C4A 5718  38.447  26.037   7.655
 5740POPC   C1B 5719  38.553  26.267   8.555
 5740POPC   C2B 5720  38.492  26.246   8.255
 5740POPC   C3B 5721  38.481  26.324   7.955
 5740POPC   C4B 5722  38.534  26.287   7.655
 5741POPC   NC3 5723  40.040   1.210   9.455
 5741POPC   PO4 5724  39.987   1.245   9.155
 5741POPC   GL1 5725  40.005   1.177   8.855
 5741POPC   GL2 5726  39.939   1.143   8.855
 5741POPC   C1A 5727  40.013   1.240   8.555
 5741POPC   D2A 5728  39.987   1.193   8.255
 5741POPC   C3A 5729  40.049   1.188   7.955
 5741POPC   C4A 5730  40.054   1.247   7.655
 5741POPC   C1B 5731  39.863   1.011   8.555
 5741POPC   C2B 5732  39.914   1.009   8.255
 5741POPC   C3B 5733  39.874   0.967   7.955
 5741POPC   C4B 5734  39.828   1.028   7.655
 5742POPC   NC3 5735  40.041  43.098   9.455
 5742POPC   PO4 5736  40.014  43.114   9.155
 5742POPC   GL1 5737  39.962  43.078   8.855
 5742POPC   GL2 5738  40.098  43.029   8.855
 5742POPC   C1A 5739  40.048  43.136   8.555
 5742POPC   D2A 5740  39.975  43.139   8.255
 5742POPC   C3A 5741  40.037  43.150   7.955
 5742POPC   C4A 5742  39.994  43.147   7.655
 5742POPC   C1B 5743  40.248  43.070   8.555
 5742POPC   C2B 5744  40.226  43.076   8.255
 5742POPC   C3B 5745  40.254  43.064   7.955
 5742POPC   C4B 5746  40.273  42.997   7.655
 5743POPC   NC3 5747  26.084  39.980   9.455
 5743POPC   PO4 5748  26.034  39.981   9.155
 5743POPC   GL1 5749  26.052  39.994   8.855
 5743POPC   GL2 5750  25.970  40.109   8.855
 5743POPC   C1A 5751  26.063  40.046   8.555
 5743POPC   D2A 5752  26.091  40.011   8.255
 5743POPC   C3A 5753  26.069  40.017   7.955
 5743POPC   C4A 5754  26.085  39.986   7.655
 5743POPC   C1B 5755  25.892  40.201   8.555
 5743POPC   C2B 5756  25.892  40.241   8.255
 5743POPC   C3B 5757  25.897  40.169   7.955
 5743POPC   C4B 5758  25.885  40.237   7.655
 5744POPC   NC3 5759  29.948   1.957   9.455
 5744POPC   PO4 5760  29.952   1.989   9.155
 5744POPC   GL1 5761  29.945   1.960   8.855
 5744POPC   GL2 5762  30.076   2.000   8.855
 5744POPC   C1A 5763  29.921   1.982   8.555
 5744POPC   D2A 5764  29.906   1.974   8.255
 5744POPC   C3A 5765  29.951   2.006   7.955
 5744POPC   C4A 5766  29.883   1.953   7.655
 5744POPC   C1B 5767  30.143   2.042   8.555
 5744POPC   C2B 5768  30.181   1.975   8.255
 5744POPC   C3B 5769  30.137   2.026   7.955
 5744POPC   C4B 5770  30.189   2.034   7.655
 5745POPC   NC3 5771   9.017   0.484   9.455
 5745POPC   PO4 5772   8.955   0.393   9.155
 5745POPC   GL1 5773   9.016   0.406   8.855
 5745POPC   GL2 5774   8.931   0.587   8.855
 5745POPC   C1A 5775   8.932   0.482   8.555
 5745POPC   D2A 5776   9.020   0.484   8.255
 5745POPC   C3A 5777   8.996   0.445   7.955
 5745POPC   C4A 5778   8.923   0.472   7.655
 5745POPC   C1B 5779   8.873   0.686   8.555
 5745POPC   C2B 5780   8.964   0.650   8.255
 5745POPC   C3B 5781   8.874   0.694   7.955
 5745POPC   C4B 5782   8.963   0.722   7.655
 5746POPC   NC3 5783  37.707  39.992   9.455
 5746POPC   PO4 5784  37.664  40.040   9.155
 5746POPC   GL1 5785  37.723  39.957   8.855
 5746POPC   GL2 5786  37.666  40.092   8.855
 5746POPC   C1A 5787  37.644  39.965   8.555
 5746POPC   D2A 5788  37.636  39.983   8.255
 5746POPC   C3A 5789  37.651  40.038   7.955
 5746POPC   C4A 5790  37.632  39.984   7.655
 5746POPC   C1B 5791  37.637  40.276   8.555
 5746POPC   C2B 5792  37.661  40.228   8.255
 5746POPC   C3B 5793  37.695  40.296   7.955
 5746POPC   C4B 5794  37.622  40.305   7.655
 5747POPC   NC3 5795   6.624  43.907   9.455
 5747POPC   PO4 5796   6.667  43.865   9.155
 5747POPC   GL1 5797   6.601  43.905   8.855
 5747POPC   GL2 5798   6.509  43.983   8.855
 5747POPC   C1A 5799   6.602  43.853   8.555
 5747POPC   D2A 5800   6.648  43.840   8.255
 5747POPC   C3A 5801   6.632  43.849   7.955
 5747POPC   C4A 5802   6.674  43.888   7.655
 5747POPC   C1B 5803   6.501  44.053   8.555
 5747POPC   C2B 5804   6.485  43.999   8.255
 5747POPC   C3B 5805   6.442  44.037   7.955
 5747POPC   C4B 5806   6.483  44.058   7.655
 5748POPC   NC3 5807   0.408   8.228   9.455
 5748POPC   PO4 5808   0.461   8.210   9.155
 5748POPC   GL1 5809   0.408   8.192   8.855
 5748POPC   GL2 5810   0.285   8.187   8.855
 5748POPC   C1A 5811   0.467   8.175   8.555
 5748POPC   D2A 5812   0.450   8.220   8.255
 5748POPC   C3A 5813   0.460   8.161   7.955
 5748POPC   C4A 5814   0.461   8.218   7.655
 5748POPC   C1B 5815   0.150   8.279   8.555
 5748POPC   C2B 5816   0.229   8.307   8.255
 5748POPC   C3B 5817   0.237   8.249   7.955
 5748POPC   C4B 5818   0.201   8.291   7.655
 5749POPC   NC3 5819  40.817   5.109   9.455
 5749POPC   PO4 5820  40.819   5.097   9.155
 5749POPC   GL1 5821  40.747   5.113   8.855
 5749POPC   GL2 5822  40.687   5.194   8.855
 5749POPC   C1A 5823  40.770   5.140   8.555
 5749POPC   D2A 5824  40.782   5.080   8.255
 5749POPC   C3A 5825  40.783   5.082   7.955
 5749POPC   C4A 5826  40.754   5.085   7.655
 5749POPC   C1B 5827  40.573   5.241   8.555
 5749POPC   C2B 5828  40.558   5.194   8.255
 5749POPC   C3B 5829  40.545   5.270   7.955
 5749POPC   C4B 5830  40.534   5.225   7.655
 5750POPC   NC3 5831  19.086   6.692   9.455
 5750POPC   PO4 5832  19.094   6.658   9.155
 5750POPC   GL1 5833  19.064   6.635   8.855
 5750POPC   GL2 5834  19.151   6.564   8.855
 5750POPC   C1A 5835  19.013   6.603   8.555
 5750POPC   D2A 5836  19.099   6.665   8.255
 5750POPC   C3A 5837  19.040   6.650   7.955
 5750POPC   C4A 5838  19.052   6.611   7.655
 5750POPC   C1B 5839  19.283   6.461   8.555
 5750POPC   C2B 5840  19.241   6.513   8.255
 5750POPC   C3B 5841  19.296   6.458   7.955
 5750POPC   C4B 5842  19.310   6.487   7.655
 5751POPC   NC3 5843  33.765  10.534   9.455
 5751POPC   PO4 5844  33.798  10.497   9.155
 5751POPC   GL1 5845  33.754  10.490   8.855
 5751POPC   GL2 5846  33.662  10.572   8.855
 5751POPC   C1A 5847  33.821  10.504   8.555
 5751POPC   D2A 5848  33.819  10.536   8.255
 5751POPC   C3A 5849  33.844  10.548   7.955
 5751POPC   C4A 5850  33.840  10.490   7.655
 5751POPC   C1B 5851  33.534  10.571   8.555
 5751POPC   C2B 5852  33.518  10.571   8.255
 5751POPC   C3B 5853  33.563  10.605   7.955
 5751POPC   C4B 5854  33.606  10.597   7.655
 5752POPC   NC3 5855  39.260  15.944   9.455
 5752POPC   PO4 5856  39.190  15.958   9.155
 5752POPC   GL1 5857  39.273  15.908   8.855
 5752POPC   GL2 5858  39.268  16.095   8.855
 5752POPC   C1A 5859  39.212  15.947   8.555
 5752POPC   D2A 5860  39.245  15.939   8.255
 5752POPC   C3A 5861  39.267  15.998   7.955
 5752POPC   C4A 5862  39.195  15.979   7.655
 5752POPC   C1B 5863  39.266  16.198   8.555
 5752POPC   C2B 5864  39.270  16.184   8.255
 5752POPC   C3B 5865  39.251  16.160   7.955
 5752POPC   C4B 5866  39.277  16.204   7.655
 5753POPC   NC3 5867   6.595  43.115   9.455
 5753POPC   PO4 5868   6.687  43.099   9.155
 5753POPC   GL1 5869   6.653  43.064   8.855
 5753POPC   GL2 5870   6.577  43.211   8.855
 5753POPC   C1A 5871   6.655  43.123   8.555
 5753POPC   D2A 5872   6.666  43.135   8.255
 5753POPC   C3A 5873   6.694  43.062   7.955
 5753POPC   C4A 5874   6.612  43.150   7.655
 5753POPC   C1B 5875   6.486  43.298   8.555
 5753POPC   C2B 5876   6.479  43.280   8.255
 5753POPC   C3B 5877   6.486  43.321   7.955
 5753POPC   C4B 5878   6.466  43.309   7.655
 5754POPC   NC3 5879  21.420  38.416   9.455
 5754POPC   PO4 5880  21.369  38.472   9.155
 5754POPC   GL1 5881  21.397  38.446   8.855
 5754POPC   GL2 5882  21.305  38.616   8.855
 5754POPC   C1A 5883  21.414  38.439   8.555
 5754POPC   D2A 5884  21.417  38.447   8.255
 5754POPC   C3A 5885  21.404  38.451   7.955
 5754POPC   C4A 5886  21.415  38.408   7.655
 5754POPC   C1B 5887  21.297  38.690   8.555
 5754POPC   C2B 5888  21.339  38.691   8.255
 5754POPC   C3B 5889  21.311  38.691   7.955
 5754POPC   C4B 5890  21.298  38.743   7.655
 5755POPC   NC3 5891  15.214  12.870   9.455
 5755POPC   PO4 5892  15.228  12.860   9.155
 5755POPC   GL1 5893  15.217  12.871   8.855
 5755POPC   GL2 5894  15.288  12.883   8.855
 5755POPC   C1A 5895  15.147  12.841   8.555
 5755POPC   D2A 5896  15.130  12.811   8.255
 5755POPC   C3A 5897  15.194  12.832   7.955
 5755POPC   C4A 5898  15.218  12.882   7.655
 5755POPC   C1B 5899  15.398  12.957   8.555
 5755POPC   C2B 5900  15.407  12.915   8.255
 5755POPC   C3B 5901  15.421  12.973   7.955
 5755POPC   C4B 5902  15.396  12.906   7.655
 5756POPC   NC3 5903  43.900  23.712   9.455
 5756POPC   PO4 5904  43.922  23.708   9.155
 5756POPC   GL1 5905  43.921  23.741   8.855
 5756POPC   GL2 5906  44.003  23.797   8.855
 5756POPC   C1A 5907  43.922  23.757   8.555
 5756POPC   D2A 5908  43.896  23.710   8.255
 5756POPC   C3A 5909  43.900  23.726   7.955
 5756POPC   C4A 5910  43.863  23.718   7.655
 5756POPC   C1B 5911  44.078  23.815   8.555
 5756POPC   C2B 5912  44.112  23.795   8.255
 5756POPC   C3B 5913  44.148  23.814   7.955
 5756POPC   C4B 5914  44.062  23.856   7.655
 5757POPC   NC3 5915  28.351  19.877   9.455
 5757POPC   PO4 5916  28.325  19.811   9.155
 5757POPC   GL1 5917  28.404  19.836   8.855
 5757POPC   GL2 5918  28.526  19.796   8.855
 5757POPC   C1A 5919  28.398  19.789   8.555
 5757POPC   D2A 5920  28.414  19.869   8.255
 5757POPC   C3A 5921  28.353  19.856   7.955
 5757POPC   C4A 5922  28.359  19.820   7.655
 5757POPC   C1B 5923  28.644  19.801   8.555
 5757POPC   C2B 5924  28.582  19.790   8.255
 5757POPC   C3B 5925  28.669  19.818   7.955
 5757POPC   C4B 5926  28.589  19.840   7.655
 5758POPC   NC3 5927  35.358  38.495   9.455
 5758POPC   PO4 5928  35.377  38.450   9.155
 5758POPC   GL1 5929  35.377  38.484   8.855
 5758POPC   GL2 5930  35.292  38.338   8.855
 5758POPC   C1A 5931  35.317  38.480   8.555
 5758POPC   D2A 5932  35.378  38.503   8.255
 5758POPC   C3A 5933  35.345  38.500   7.955
 5758POPC   C4A 5934  35.343  38.408   7.655
 5758POPC   C1B 5935  35.272  38.259   8.555
 5758POPC   C2B 5936  35.286  38.194   8.255
 5758POPC   C3B 5937  35.216  38.256   7.955
 5758POPC   C4B 5938  35.290  38.266   7.655
 5759POPC   NC3 5939  13.658   8.193   9.455
 5759POPC   PO4 5940  13.668   8.238   9.155
 5759POPC   GL1 5941  13.666   8.213   8.855
 5759POPC   GL2 5942  13.548   8.171   8.855
 5759POPC   C1A 5943  13.646   8.185   8.555
 5759POPC   D2A 5944  13.579   8.178   8.255
 5759POPC   C3A 5945  13.667   8.172   7.955
 5759POPC   C4A 5946  13.656   8.199   7.655
 5759POPC   C1B 5947  13.419   8.087   8.555
 5759POPC   C2B 5948  13.430   8.148   8.255
 5759POPC   C3B 5949  13.403   8.104   7.955
 5759POPC   C4B 5950  13.418   8.098   7.655
 5760POPC   NC3 5951  26.867  26.009   9.455
 5760POPC   PO4 5952  26.804  26.008   9.155
 5760POPC   GL1 5953  26.794  25.998   8.855
 5760POPC   GL2 5954  26.680  26.044   8.855
 5760POPC   C1A 5955  26.850  26.029   8.555
 5760POPC   D2A 5956  26.798  26.043   8.255
 5760POPC   C3A 5957  26.773  26.025   7.955
 5760POPC   C4A 5958  26.867  26.034   7.655
 5760POPC   C1B 5959  26.567  26.091   8.555
 5760POPC   C2B 5960  26.549  26.154   8.255
 5760POPC   C3B 5961  26.564  26.118   7.955
 5760POPC   C4B 5962  26.544  26.145   7.655
 5761POPC   NC3 5963  40.038   3.568   9.455
 5761POPC   PO4 5964  40.028   3.574   9.155
 5761POPC   GL1 5965  40.039   3.492   8.855
 5761POPC   GL2 5966  39.982   3.618   8.855
 5761POPC   C1A 5967  39.980   3.552   8.555
 5761POPC   D2A 5968  40.012   3.527   8.255
 5761POPC   C3A 5969  40.006   3.511   7.955
 5761POPC   C4A 5970  40.027   3.544   7.655
 5761POPC   C1B 5971  40.027   3.765   8.555
 5761POPC   C2B 5972  39.964   3.815   8.255
 5761POPC   C3B 5973  40.006   3.763   7.955
 5761POPC   C4B 5974  39.975   3.828   7.655
 5762POPC   NC3 5975  16.733  22.926   9.455
 5762POPC   PO4 5976  16.735  22.983   9.155
 5762POPC   GL1 5977  16.700  22.921   8.855
 5762POPC   GL2 5978  16.630  22.863   8.855
 5762POPC   C1A 5979  16.774  22.976   8.555
 5762POPC   D2A 5980  16.709  22.951   8.255
 5762POPC   C3A 5981  16.718  22.921   7.955
 5762POPC   C4A 5982  16.720  22.888   7.655
 5762POPC   C1B 5983  16.546  22.749   8.555
 5762POPC   C2B 5984  16.537  22.782   8.255
 5762POPC   C3B 5985  16.500  22.764   7.955
 5762POPC   C4B 5986  16.514  22.752   7.655
 5763POPC   NC3 5987   9.011  42.332   9.455
 5763POPC   PO4 5988   8.952  42.310   9.155
 5763POPC   GL1 5989   9.022  42.382   8.855
 5763POPC   GL2 5990   9.042  42.458   8.855
 5763POPC   C1A 5991   8.973  42.327   8.555
 5763POPC   D2A 5992   8.949  42.294   8.255
 5763POPC   C3A 5993   8.989  42.370   7.955
 5763POPC   C4A 5994   8.942  42.311   7.655
 5763POPC   C1B 5995   9.038  42.531   8.555
 5763POPC   C2B 5996   9.108  42.581   8.255
 5763POPC   C3B 5997   9.079  42.543   7.955
 5763POPC   C4B 5998   9.076  42.550   7.655
 5764POPC   NC3 5999  23.762  13.599   9.455
 5764POPC   PO4 6000  23.740  13.620   9.155
 5764POPC   GL1 6001  23.760  13.662   8.855
 5764POPC   GL2 6002  23.592  13.591   8.855
 5764POPC   C1A 6003  23.709  13.620   8.555
 5764POPC   D2A 6004  23.718  13.638   8.255
 5764POPC   C3A 6005  23.699  13.678   7.955
 5764POPC   C4A 6006  23.711  13.609   7.655
 5764POPC   C1B 6007  23.504  13.480   8.555
 5764POPC   C2B 6008  23.527  13.424   8.255
 5764POPC   C3B 6009  23.488  13.422   7.955
 5764POPC   C4B 6010  23.483  13.460   7.655
 5765POPC   NC3 6011  29.957  35.389   9.455
 5765POPC   PO4 6012  29.872  35.377   9.155
 5765POPC   GL1 6013  29.902  35.395   8.855
 5765POPC   GL2 6014  29.817  35.358   8.855
 5765POPC   C1A 6015  29.925  35.357   8.555
 5765POPC   D2A 6016  29.881  35.394   8.255
 5765POPC   C3A 6017  29.902  35.371   7.955
 5765POPC   C4A 6018  29.934  35.350   7.655
 5765POPC   C1B 6019  29.703  35.352   8.555
 5765POPC   C2B 6020  29.638  35.379   8.255
 5765POPC   C3B 6021  29.693  35.375   7.955
 5765POPC   C4B 6022  29.660  35.313   7.655
 5766POPC   NC3 6023  33.775   0.440   9.455
 5766POPC   PO4 6024  33.778   0.487   9.155
 5766POPC   GL1 6025  33.771   0.467   8.855
 5766POPC   GL2 6026  33.646   0.395   8.855
 5766POPC   C1A 6027  33.781   0.485   8.555
 5766POPC   D2A 6028  33.793   0.438   8.255
 5766POPC   C3A 6029  33.767   0.435   7.955
 5766POPC   C4A 6030  33.783   0.409   7.655
 5766POPC   C1B 6031  33.510   0.345   8.555
 5766POPC   C2B 6032  33.604   0.403   8.255
 5766POPC   C3B 6033  33.568   0.352   7.955
 5766POPC   C4B 6034  33.532   0.352   7.655
 5767POPC   NC3 6035   1.248  32.254   9.455
 5767POPC   PO4 6036   1.166  32.277   9.155
 5767POPC   GL1 6037   1.222  32.210   8.855
 5767POPC   GL2 6038   1.165  32.096   8.855
 5767POPC   C1A 6039   1.197  32.253   8.555
 5767POPC   D2A 6040   1.180  32.212   8.255
 5767POPC   C3A 6041   1.230  32.210   7.955
 5767POPC   C4A 6042   1.252  32.284   7.655
 5767POPC   C1B 6043   1.152  32.025   8.555
 5767POPC   C2B 6044   1.144  32.066   8.255
 5767POPC   C3B 6045   1.121  32.014   7.955
 5767POPC   C4B 6046   1.133  32.061   7.655
 5768POPC   NC3 6047  38.472  33.052   9.455
 5768POPC   PO4 6048  38.407  32.991   9.155
 5768POPC   GL1 6049  38.484  32.982   8.855
 5768POPC   GL2 6050  38.393  32.932   8.855
 5768POPC   C1A 6051  38.428  32.976   8.555
 5768POPC   D2A 6052  38.480  33.054   8.255
 5768POPC   C3A 6053  38.424  33.007   7.955
 5768POPC   C4A 6054  38.409  33.001   7.655
 5768POPC   C1B 6055  38.238  32.917   8.555
 5768POPC   C2B 6056  38.257  32.874   8.255
 5768POPC   C3B 6057  38.267  32.911   7.955
 5768POPC   C4B 6058  38.247  32.890   7.655
 5769POPC   NC3 6059  41.594  35.310   9.455
 5769POPC   PO4 6060  41.546  35.314   9.155
 5769POPC   GL1 6061  41.523  35.365   8.855
 5769POPC   GL2 6062  41.617  35.413   8.855
 5769POPC   C1A 6063  41.515  35.342   8.555
 5769POPC   D2A 6064  41.608  35.332   8.255
 5769POPC   C3A 6065  41.598  35.309   7.955
 5769POPC   C4A 6066  41.531  35.392   7.655
 5769POPC   C1B 6067  41.757  35.501   8.555
 5769POPC   C2B 6068  41.694  35.568   8.255
 5769POPC   C3B 6069  41.753  35.534   7.955
 5769POPC   C4B 6070  41.711  35.538   7.655
 5770POPC   NC3 6071  30.651  36.083   9.455
 5770POPC   PO4 6072  30.660  36.148   9.155
 5770POPC   GL1 6073  30.697  36.125   8.855
 5770POPC   GL2 6074  30.683  36.297   8.855
 5770POPC   C1A 6075  30.675  36.124   8.555
 5770POPC   D2A 6076  30.651  36.159   8.255
 5770POPC   C3A 6077  30.726  36.150   7.955
 5770POPC   C4A 6078  30.664  36.117   7.655
 5770POPC   C1B 6079  30.706  36.416   8.555
 5770POPC   C2B 6080  30.637  36.392   8.255
 5770POPC   C3B 6081  30.676  36.329   7.955
 5770POPC   C4B 6082  30.715  36.381   7.655
 5771POPC   NC3 6083  33.058   6.685   9.455
 5771POPC   PO4 6084  33.012   6.633   9.155
 5771POPC   GL1 6085  33.017   6.639   8.855
 5771POPC   GL2 6086  33.078   6.572   8.855
 5771POPC   C1A 6087  33.004   6.656   8.555
 5771POPC   D2A 6088  32.998   6.625   8.255
 5771POPC   C3A 6089  32.996   6.659   7.955
 5771POPC   C4A 6090  33.065   6.673   7.655
 5771POPC   C1B 6091  33.150   6.430   8.555
 5771POPC   C2B 6092  33.120   6.406   8.255
 5771POPC   C3B 6093  33.151   6.407   7.955
 5771POPC   C4B 6094  33.114   6.449   7.655
 5772POPC   NC3 6095  42.313  36.922   9.455
 5772POPC   PO4 6096  42.303  36.901   9.155
 5772POPC   GL1 6097  42.298  36.883   8.855
 5772POPC   GL2 6098  42.384  36.741   8.855
 5772POPC   C1A 6099  42.311  36.872   8.555
 5772POPC   D2A 6100  42.354  36.875   8.255
 5772POPC   C3A 6101  42.300  36.887   7.955
 5772POPC   C4A 6102  42.366  36.886   7.655
 5772POPC   C1B 6103  42.380  36.618   8.555
 5772POPC   C2B 6104  42.427  36.681   8.255
 5772POPC   C3B 6105  42.344  36.665   7.955
 5772POPC   C4B 6106  42.394  36.687   7.655
 5773POPC   NC3 6107  43.927  32.980   9.455
 5773POPC   PO4 6108  43.840  32.994   9.155
 5773POPC   GL1 6109  43.840  33.071   8.855
 5773POPC   GL2 6110  44.054  33.037   8.855
 5773POPC   C1A 6111  43.880  32.994   8.555
 5773POPC   D2A 6112  43.912  33.008   8.255
 5773POPC   C3A 6113  43.919  32.997   7.955
 5773POPC   C4A 6114  43.850  32.996   7.655
 5773POPC   C1B 6115  44.095  32.950   8.555
 5773POPC   C2B 6116  44.105  32.984   8.255
 5773POPC   C3B 6117  44.103  32.958   7.955
 5773POPC   C4B 6118  44.106  32.993   7.655
 5774POPC   NC3 6119  35.376  36.078   9.455
 5774POPC   PO4 6120  35.372  36.167   9.155
 5774POPC   GL1 6121  35.340  36.176   8.855
 5774POPC   GL2 6122  35.434  36.231   8.855
 5774POPC   C1A 6123  35.311  36.083   8.555
 5774POPC   D2A 6124  35.350  36.109   8.255
 5774POPC   C3A 6125  35.331  36.085   7.955
 5774POPC   C4A 6126  35.389  36.166   7.655
 5774POPC   C1B 6127  35.472  36.346   8.555
 5774POPC   C2B 6128  35.455  36.393   8.255
 5774POPC   C3B 6129  35.413  36.406   7.955
 5774POPC   C4B 6130  35.465  36.341   7.655
 5775POPC   NC3 6131  35.343  20.598   9.455
 5775POPC   PO4 6132  35.311  20.631   9.155
 5775POPC   GL1 6133  35.306  20.650   8.855
 5775POPC   GL2 6134  35.190  20.561   8.855
 5775POPC   C1A 6135  35.400  20.613   8.555
 5775POPC   D2A 6136  35.357  20.610   8.255
 5775POPC   C3A 6137  35.399  20.600   7.955
 5775POPC   C4A 6138  35.321  20.600   7.655
 5775POPC   C1B 6139  35.121  20.537   8.555
 5775POPC   C2B 6140  35.151  20.499   8.255
 5775POPC   C3B 6141  35.094  20.477   7.955
 5775POPC   C4B 6142  35.101  20.468   7.655
 5776POPC   NC3 6143   2.039  32.266   9.455
 5776POPC   PO4 6144   1.981  32.277   9.155
 5776POPC   GL1 6145   2.027  32.211   8.855
 5776POPC   GL2 6146   1.985  32.091   8.855
 5776POPC   C1A 6147   2.005  32.264   8.555
 5776POPC   D2A 6148   1.988  32.273   8.255
 5776POPC   C3A 6149   2.037  32.260   7.955
 5776POPC   C4A 6150   1.987  32.212   7.655
 5776POPC   C1B 6151   1.915  32.014   8.555
 5776POPC   C2B 6152   1.915  31.995   8.255
 5776POPC   C3B 6153   1.938  32.011   7.955
 5776POPC   C4B 6154   1.930  32.049   7.655
 5777POPC   NC3 6155  43.078  23.669   9.455
 5777POPC   PO4 6156  43.100  23.758   9.155
 5777POPC   GL1 6157  43.085  23.718   8.855
 5777POPC   GL2 6158  43.175  23.806   8.855
 5777POPC   C1A 6159  43.158  23.698   8.555
 5777POPC   D2A 6160  43.119  23.720   8.255
 5777POPC   C3A 6161  43.106  23.724   7.955
 5777POPC   C4A 6162  43.123  23.743   7.655
 5777POPC   C1B 6163  43.289  23.883   8.555
 5777POPC   C2B 6164  43.362  23.840   8.255
 5777POPC   C3B 6165  43.314  23.842   7.955
 5777POPC   C4B 6166  43.345  23.858   7.655
 5778POPC   NC3 6167  41.570  29.143   9.455
 5778POPC   PO4 6168  41.555  29.109   9.155
 5778POPC   GL1 6169  41.512  29.173   8.855
 5778POPC   GL2 6170  41.641  29.106   8.855
 5778POPC   C1A 6171  41.595  29.129   8.555
 5778POPC   D2A 6172  41.514  29.122   8.255
 5778POPC   C3A 6173  41.556  29.102   7.955
 5778POPC   C4A 6174  41.566  29.169   7.655
 5778POPC   C1B 6175  41.832  29.105   8.555
 5778POPC   C2B 6176  41.825  29.067   8.255
 5778POPC   C3B 6177  41.780  29.110   7.955
 5778POPC   C4B 6178  41.806  29.070   7.655
 5779POPC   NC3 6179  40.798   9.710   9.455
 5779POPC   PO4 6180  40.804   9.795   9.155
 5779POPC   GL1 6181  40.816   9.717   8.855
 5779POPC   GL2 6182  40.754   9.652   8.855
 5779POPC   C1A 6183  40.740   9.796   8.555
 5779POPC   D2A 6184  40.803   9.710   8.255
 5779POPC   C3A 6185  40.762   9.700   7.955
 5779POPC   C4A 6186  40.819   9.762   7.655
 5779POPC   C1B 6187  40.717   9.560   8.555
 5779POPC   C2B 6188  40.739   9.536   8.255
 5779POPC   C3B 6189  40.693   9.468   7.955
 5779POPC   C4B 6190  40.663   9.507   7.655
 5780POPC   NC3 6191  35.347   5.121   9.455
 5780POPC   PO4 6192  35.350   5.125   9.155
 5780POPC   GL1 6193  35.395   5.066   8.855
 5780POPC   GL2 6194  35.262   5.058   8.855
 5780POPC   C1A 6195  35.352   5.130   8.555
 5780POPC   D2A 6196  35.398   5.128   8.255
 5780POPC   C3A 6197  35.347   5.089   7.955
 5780POPC   C4A 6198  35.361   5.088   7.655
 5780POPC   C1B 6199  35.117   5.146   8.555
 5780POPC   C2B 6200  35.069   5.090   8.255
 5780POPC   C3B 6201  35.100   5.083   7.955
 5780POPC   C4B 6202  35.065   5.129   7.655
 5781POPC   NC3 6203  29.936  44.702   9.455
 5781POPC   PO4 6204  29.921  44.645   9.155
 5781POPC   GL1 6205  29.873  44.685   8.855
 5781POPC   GL2 6206  29.822  44.744   8.855
 5781POPC   C1A 6207  29.935  44.618   8.555
 5781POPC   D2A 6208  29.926  44.632   8.255
 5781POPC   C3A 6209  29.961  44.679   7.955
 5781POPC   C4A 6210  29.877  44.618   7.655
 5781POPC   C1B 6211  29.749  44.861   8.555
 5781POPC   C2B 6212  29.824  44.914   8.255
 5781POPC   C3B 6213  29.756  44.847   7.955
 5781POPC   C4B 6214  29.787  44.880   7.655
 5782POPC   NC3 6215  12.083  20.603   9.455
 5782POPC   PO4 6216  12.087  20.591   9.155
 5782POPC   GL1 6217  12.107  20.628   8.855
 5782POPC   GL2 6218  12.158  20.546   8.855
 5782POPC   C1A 6219  12.082  20.626   8.555
 5782POPC   D2A 6220  12.079  20.615   8.255
 5782POPC   C3A 6221  12.085  20.590   7.955
 5782POPC   C4A 6222  12.067  20.573   7.655
 5782POPC   C1B 6223  12.218  20.412   8.555
 5782POPC   C2B 6224  12.303  20.460   8.255
 5782POPC   C3B 6225  12.250  20.425   7.955
 5782POPC   C4B 6226  12.219  20.391   7.655
 5783POPC   NC3 6227  34.586   0.456   9.455
 5783POPC   PO4 6228  34.598   0.413   9.155
 5783POPC   GL1 6229  34.614   0.409   8.855
 5783POPC   GL2 6230  34.690   0.517   8.855
 5783POPC   C1A 6231  34.555   0.388   8.555
 5783POPC   D2A 6232  34.604   0.419   8.255
 5783POPC   C3A 6233  34.606   0.448   7.955
 5783POPC   C4A 6234  34.620   0.454   7.655
 5783POPC   C1B 6235  34.845   0.497   8.555
 5783POPC   C2B 6236  34.846   0.510   8.255
 5783POPC   C3B 6237  34.801   0.484   7.955
 5783POPC   C4B 6238  34.791   0.492   7.655
 5784POPC   NC3 6239   1.243  26.044   9.455
 5784POPC   PO4 6240   1.227  26.078   9.155
 5784POPC   GL1 6241   1.217  26.061   8.855
 5784POPC   GL2 6242   1.256  26.141   8.855
 5784POPC   C1A 6243   1.214  26.030   8.555
 5784POPC   D2A 6244   1.190  26.053   8.255
 5784POPC   C3A 6245   1.260  26.008   7.955
 5784POPC   C4A 6246   1.213  26.073   7.655
 5784POPC   C1B 6247   1.261  26.291   8.555
 5784POPC   C2B 6248   1.275  26.316   8.255
 5784POPC   C3B 6249   1.327  26.324   7.955
 5784POPC   C4B 6250   1.271  26.319   7.655
 5785POPC   NC3 6251  39.207  32.996   9.455
 5785POPC   PO4 6252  39.195  32.988   9.155
 5785POPC   GL1 6253  39.205  33.017   8.855
 5785POPC   GL2 6254  39.259  33.180   8.855
 5785POPC   C1A 6255  39.188  33.055   8.555
 5785POPC   D2A 6256  39.247  32.994   8.255
 5785POPC   C3A 6257  39.245  33.068   7.955
 5785POPC   C4A 6258  39.214  33.066   7.655
 5785POPC   C1B 6259  39.315  33.255   8.555
 5785POPC   C2B 6260  39.313  33.204   8.255
 5785POPC   C3B 6261  39.337  33.262   7.955
 5785POPC   C4B 6262  39.382  33.262   7.655
 5786POPC   NC3 6263  33.063  36.946   9.455
 5786POPC   PO4 6264  33.048  36.868   9.155
 5786POPC   GL1 6265  33.055  36.884   8.855
 5786POPC   GL2 6266  32.945  36.950   8.855
 5786POPC   C1A 6267  33.061  36.890   8.555
 5786POPC   D2A 6268  33.023  36.902   8.255
 5786POPC   C3A 6269  33.018  36.906   7.955
 5786POPC   C4A 6270  33.010  36.856   7.655
 5786POPC   C1B 6271  32.788  37.094   8.555
 5786POPC   C2B 6272  32.830  37.109   8.255
 5786POPC   C3B 6273  32.835  37.031   7.955
 5786POPC   C4B 6274  32.874  37.097   7.655
 5787POPC   NC3 6275  39.975  41.575   9.455
 5787POPC   PO4 6276  40.001  41.554   9.155
 5787POPC   GL1 6277  40.033  41.589   8.855
 5787POPC   GL2 6278  40.038  41.676   8.855
 5787POPC   C1A 6279  40.035  41.516   8.555
 5787POPC   D2A 6280  39.966  41.532   8.255
 5787POPC   C3A 6281  40.019  41.532   7.955
 5787POPC   C4A 6282  39.998  41.529   7.655
 5787POPC   C1B 6283  40.177  41.757   8.555
 5787POPC   C2B 6284  40.121  41.739   8.255
 5787POPC   C3B 6285  40.153  41.805   7.955
 5787POPC   C4B 6286  40.117  41.736   7.655
 5788POPC   NC3 6287  27.618   6.644   9.455
 5788POPC   PO4 6288  27.591   6.612   9.155
 5788POPC   GL1 6289  27.601   6.684   8.855
 5788POPC   GL2 6290  27.680   6.629   8.855
 5788POPC   C1A 6291  27.637   6.665   8.555
 5788POPC   D2A 6292  27.609   6.670   8.255
 5788POPC   C3A 6293  27.624   6.669   7.955
 5788POPC   C4A 6294  27.618   6.602   7.655
 5788POPC   C1B 6295  27.808   6.580   8.555
 5788POPC   C2B 6296  27.868   6.574   8.255
 5788POPC   C3B 6297  27.869   6.576   7.955
 5788POPC   C4B 6298  27.797   6.562   7.655
 5789POPC   NC3 6299   9.717  43.083   9.455
 5789POPC   PO4 6300   9.790  43.128   9.155
 5789POPC   GL1 6301   9.715  43.157   8.855
 5789POPC   GL2 6302   9.673  43.189   8.855
 5789POPC   C1A 6303   9.733  43.142   8.555
 5789POPC   D2A 6304   9.797  43.106   8.255
 5789POPC   C3A 6305   9.773  43.159   7.955
 5789POPC   C4A 6306   9.718  43.121   7.655
 5789POPC   C1B 6307   9.522  43.180   8.555
 5789POPC   C2B 6308   9.516  43.220   8.255
 5789POPC   C3B 6309   9.544  43.220   7.955
 5789POPC   C4B 6310   9.543  43.249   7.655
 5790POPC   NC3 6311  21.404  22.953   9.455
 5790POPC   PO4 6312  21.371  22.980   9.155
 5790POPC   GL1 6313  21.344  22.928   8.855
 5790POPC   GL2 6314  21.355  23.067   8.855
 5790POPC   C1A 6315  21.366  22.970   8.555
 5790POPC   D2A 6316  21.342  22.894   8.255
 5790POPC   C3A 6317  21.359  22.916   7.955
 5790POPC   C4A 6318  21.351  22.919   7.655
 5790POPC   C1B 6319  21.231  23.142   8.555
 5790POPC   C2B 6320  21.192  23.150   8.255
 5790POPC   C3B 6321  21.200  23.161   7.955
 5790POPC   C4B 6322  21.210  23.120   7.655
 5791POPC   NC3 6323   8.183  28.418   9.455
 5791POPC   PO4 6324   8.227  28.352   9.155
 5791POPC   GL1 6325   8.218  28.332   8.855
 5791POPC   GL2 6326   8.235  28.451   8.855
 5791POPC   C1A 6327   8.154  28.319   8.555
 5791POPC   D2A 6328   8.188  28.378   8.255
 5791POPC   C3A 6329   8.162  28.360   7.955
 5791POPC   C4A 6330   8.227  28.374   7.655
 5791POPC   C1B 6331   8.283  28.571   8.555
 5791POPC   C2B 6332   8.288  28.595   8.255
 5791POPC   C3B 6333   8.255  28.639   7.955
 5791POPC   C4B 6334   8.264  28.643   7.655
 5792POPC   NC3 6335  21.370  40.767   9.455
 5792POPC   PO4 6336  21.341  40.778   9.155
 5792POPC   GL1 6337  21.427  40.780   8.855
 5792POPC   GL2 6338  21.304  40.730   8.855
 5792POPC   C1A 6339  21.375  40.775   8.555
 5792POPC   D2A 6340  21.432  40.738   8.255
 5792POPC   C3A 6341  21.378  40.796   7.955
 5792POPC   C4A 6342  21.433  40.798   7.655
 5792POPC   C1B 6343  21.202  40.588   8.555
 5792POPC   C2B 6344  21.261  40.604   8.255
 5792POPC   C3B 6345  21.267  40.625   7.955
 5792POPC   C4B 6346  21.190  40.637   7.655
 5793POPC   NC3 6347  33.795   5.913   9.455
 5793POPC   PO4 6348  33.780   5.838   9.155
 5793POPC   GL1 6349  33.837   5.905   8.855
 5793POPC   GL2 6350  33.703   5.815   8.855
 5793POPC   C1A 6351  33.788   5.870   8.555
 5793POPC   D2A 6352  33.755   5.867   8.255
 5793POPC   C3A 6353  33.769   5.870   7.955
 5793POPC   C4A 6354  33.785   5.895   7.655
 5793POPC   C1B 6355  33.594   5.736   8.555
 5793POPC   C2B 6356  33.575   5.702   8.255
 5793POPC   C3B 6357  33.592   5.697   7.955
 5793POPC   C4B 6358  33.620   5.684   7.655
 5794POPC   NC3 6359  22.938  15.949   9.455
 5794POPC   PO4 6360  22.965  15.970   9.155
 5794POPC   GL1 6361  22.985  15.993   8.855
 5794POPC   GL2 6362  22.844  15.806   8.855
 5794POPC   C1A 6363  22.944  15.928   8.555
 5794POPC   D2A 6364  22.971  15.939   8.255
 5794POPC   C3A 6365  22.906  15.977   7.955
 5794POPC   C4A 6366  22.937  15.945   7.655
 5794POPC   C1B 6367  22.843  15.726   8.555
 5794POPC   C2B 6368  22.858  15.677   8.255
 5794POPC   C3B 6369  22.884  15.765   7.955
 5794POPC   C4B 6370  22.801  15.673   7.655
 5795POPC   NC3 6371  28.389   9.783   9.455
 5795POPC   PO4 6372  28.370   9.720   9.155
 5795POPC   GL1 6373  28.395   9.738   8.855
 5795POPC   GL2 6374  28.324   9.839   8.855
 5795POPC   C1A 6375  28.346   9.710   8.555
 5795POPC   D2A 6376  28.372   9.756   8.255
 5795POPC   C3A 6377  28.381   9.733   7.955
 5795POPC   C4A 6378  28.323   9.756   7.655
 5795POPC   C1B 6379  28.201   9.919   8.555
 5795POPC   C2B 6380  28.166   9.985   8.255
 5795POPC   C3B 6381  28.189   9.959   7.955
 5795POPC   C4B 6382  28.201   9.920   7.655
 5796POPC   NC3 6383  43.905  43.127   9.455
 5796POPC   PO4 6384  43.918  43.123   9.155
 5796POPC   GL1 6385  43.841  43.154   8.855
 5796POPC   GL2 6386  44.014  43.005   8.855
 5796POPC   C1A 6387  43.930  43.139   8.555
 5796POPC   D2A 6388  43.865  43.105   8.255
 5796POPC   C3A 6389  43.918  43.098   7.955
 5796POPC   C4A 6390  43.849  43.156   7.655
 5796POPC   C1B 6391  44.152  42.992   8.555
 5796POPC   C2B 6392  44.078  42.987   8.255
 5796POPC   C3B 6393  44.067  43.006   7.955
 5796POPC   C4B 6394  44.136  42.963   7.655
 5797POPC   NC3 6395  19.796  14.377   9.455
 5797POPC   PO4 6396  19.823  14.394   9.155
 5797POPC   GL1 6397  19.803  14.389   8.855
 5797POPC   GL2 6398  19.907  14.513   8.855
 5797POPC   C1A 6399  19.786  14.444   8.555
 5797POPC   D2A 6400  19.811  14.431   8.255
 5797POPC   C3A 6401  19.842  14.441   7.955
 5797POPC   C4A 6402  19.858  14.438   7.655
 5797POPC   C1B 6403  19.914  14.610   8.555
 5797POPC   C2B 6404  19.909  14.628   8.255
 5797POPC   C3B 6405  19.887  14.664   7.955
 5797POPC   C4B 6406  19.892  14.651   7.655
 5798POPC   NC3 6407   1.994  12.853   9.455
 5798POPC   PO4 6408   1.956  12.823   9.155
 5798POPC   GL1 6409   1.946  12.828   8.855
 5798POPC   GL2 6410   1.971  12.734   8.855
 5798POPC   C1A 6411   2.016  12.810   8.555
 5798POPC   D2A 6412   2.015  12.857   8.255
 5798POPC   C3A 6413   2.024  12.805   7.955
 5798POPC   C4A 6414   1.991  12.816   7.655
 5798POPC   C1B 6415   1.906  12.622   8.555
 5798POPC   C2B 6416   1.934  12.566   8.255
 5798POPC   C3B 6417   1.886  12.572   7.955
 5798POPC   C4B 6418   1.874  12.601   7.655
 5799POPC   NC3 6419  14.413  20.630   9.455
 5799POPC   PO4 6420  14.398  20.642   9.155
 5799POPC   GL1 6421  14.418  20.638   8.855
 5799POPC   GL2 6422  14.284  20.500   8.855
 5799POPC   C1A 6423  14.378  20.592   8.555
 5799POPC   D2A 6424  14.360  20.562   8.255
 5799POPC   C3A 6425  14.356  20.631   7.955
 5799POPC   C4A 6426  14.451  20.593   7.655
 5799POPC   C1B 6427  14.237  20.436   8.555
 5799POPC   C2B 6428  14.213  20.475   8.255
 5799POPC   C3B 6429  14.203  20.424   7.955
 5799POPC   C4B 6430  14.185  20.472   7.655
 5800POPC   NC3 6431  32.277   5.912   9.455
 5800POPC   PO4 6432  32.241   5.874   9.155
 5800POPC   GL1 6433  32.250   5.824   8.855
 5800POPC   GL2 6434  32.135   5.753   8.855
 5800POPC   C1A 6435  32.248   5.901   8.555
 5800POPC   D2A 6436  32.244   5.878   8.255
 5800POPC   C3A 6437  32.286   5.874   7.955
 5800POPC   C4A 6438  32.236   5.862   7.655
 5800POPC   C1B 6439  32.048   5.715   8.555
 5800POPC   C2B 6440  32.080   5.714   8.255
 5800POPC   C3B 6441  32.031   5.708   7.955
 5800POPC   C4B 6442  32.077   5.666   7.655
 5801POPC   NC3 6443   8.222  29.160   9.455
 5801POPC   PO4 6444   8.210  29.172   9.155
 5801POPC   GL1 6445   8.228  29.105   8.855
 5801POPC   GL2 6446   8.095  29.154   8.855
 5801POPC   C1A 6447   8.218  29.180   8.555
 5801POPC   D2A 6448   8.190  29.117   8.255
 5801POPC   C3A 6449   8.192  29.157   7.955
 5801POPC   C4A 6450   8.218  29.184   7.655
 5801POPC   C1B 6451   7.935  29.067   8.555
 5801POPC   C2B 6452   7.973  29.068   8.255
 5801POPC   C3B 6453   7.949  29.047   7.955
 5801POPC   C4B 6454   7.971  29.086   7.655
 5802POPC   NC3 6455  29.952  41.550   9.455
 5802POPC   PO4 6456  29.952  41.574   9.155
 5802POPC   GL1 6457  29.901  41.551   8.855
 5802POPC   GL2 6458  29.991  41.623   8.855
 5802POPC   C1A 6459  29.900  41.583   8.555
 5802POPC   D2A 6460  29.926  41.590   8.255
 5802POPC   C3A 6461  29.886  41.578   7.955
 5802POPC   C4A 6462  29.900  41.603   7.655
 5802POPC   C1B 6463  30.136  41.773   8.555
 5802POPC   C2B 6464  30.091  41.714   8.255
 5802POPC   C3B 6465  30.123  41.686   7.955
 5802POPC   C4B 6466  30.115  41.717   7.655
 5803POPC   NC3 6467  25.294  42.330   9.455
 5803POPC   PO4 6468  25.261  42.298   9.155
 5803POPC   GL1 6469  25.255  42.381   8.855
 5803POPC   GL2 6470  25.287  42.239   8.855
 5803POPC   C1A 6471  25.280  42.331   8.555
 5803POPC   D2A 6472  25.216  42.315   8.255
 5803POPC   C3A 6473  25.258  42.294   7.955
 5803POPC   C4A 6474  25.231  42.313   7.655
 5803POPC   C1B 6475  25.406  42.118   8.555
 5803POPC   C2B 6476  25.435  42.126   8.255
 5803POPC   C3B 6477  25.387  42.163   7.955
 5803POPC   C4B 6478  25.409  42.151   7.655
 5804POPC   NC3 6479  39.189   4.308   9.455
 5804POPC   PO4 6480  39.213   4.298   9.155
 5804POPC   GL1 6481  39.251   4.308   8.855
 5804POPC   GL2 6482  39.103   4.243   8.855
 5804POPC   C1A 6483  39.185   4.324   8.555
 5804POPC   D2A 6484  39.274   4.305   8.255
 5804POPC   C3A 6485  39.240   4.360   7.955
 5804POPC   C4A 6486  39.189   4.326   7.655
 5804POPC   C1B 6487  39.007   4.225   8.555
 5804POPC   C2B 6488  39.045   4.201   8.255
 5804POPC   C3B 6489  38.987   4.223   7.955
 5804POPC   C4B 6490  39.009   4.226   7.655
 5805POPC   NC3 6491   8.963  11.258   9.455
 5805POPC   PO4 6492   8.983  11.257   9.155
 5805POPC   GL1 6493   8.992  11.321   8.855
 5805POPC   GL2 6494   8.892  11.206   8.855
 5805POPC   C1A 6495   8.960  11.271   8.555
 5805POPC   D2A 6496   8.947  11.321   8.255
 5805POPC   C3A 6497   9.020  11.294   7.955
 5805POPC   C4A 6498   8.968  11.252   7.655
 5805POPC   C1B 6499   8.840  11.100   8.555
 5805POPC   C2B 6500   8.832  11.069   8.255
 5805POPC   C3B 6501   8.873  11.105   7.955
 5805POPC   C4B 6502   8.866  11.127   7.655
 5806POPC   NC3 6503  44.641  32.226   9.455
 5806POPC   PO4 6504  44.637  32.247   9.155
 5806POPC   GL1 6505  44.705  32.261   8.855
 5806POPC   GL2 6506  44.704  32.398   8.855
 5806POPC   C1A 6507  44.672  32.245   8.555
 5806POPC   D2A 6508  44.693  32.207   8.255
 5806POPC   C3A 6509  44.712  32.262   7.955
 5806POPC   C4A 6510  44.657  32.296   7.655
 5806POPC   C1B 6511  44.770  32.432   8.555
 5806POPC   C2B 6512  44.775  32.473   8.255
 5806POPC   C3B 6513  44.823  32.431   7.955
 5806POPC   C4B 6514  44.792  32.487   7.655
 5807POPC   NC3 6515  38.416  19.030   9.455
 5807POPC   PO4 6516  38.473  19.034   9.155
 5807POPC   GL1 6517  38.453  19.083   8.855
 5807POPC   GL2 6518  38.478  18.890   8.855
 5807POPC   C1A 6519  38.462  19.108   8.555
 5807POPC   D2A 6520  38.462  19.062   8.255
 5807POPC   C3A 6521  38.425  19.013   7.955
 5807POPC   C4A 6522  38.429  19.053   7.655
 5807POPC   C1B 6523  38.427  18.817   8.555
 5807POPC   C2B 6524  38.462  18.796   8.255
 5807POPC   C3B 6525  38.418  18.850   7.955
 5807POPC   C4B 6526  38.436  18.784   7.655
 5808POPC   NC3 6527   5.092   9.703   9.455
 5808POPC   PO4 6528   5.107   9.787   9.155
 5808POPC   GL1 6529   5.073   9.733   8.855
 5808POPC   GL2 6530   5.154   9.667   8.855
 5808POPC   C1A 6531   5.064   9.787   8.555
 5808POPC   D2A 6532   5.083   9.745   8.255
 5808POPC   C3A 6533   5.101   9.726   7.955
 5808POPC   C4A 6534   5.053   9.748   7.655
 5808POPC   C1B 6535   5.263   9.609   8.555
 5808POPC   C2B 6536   5.296   9.536   8.255
 5808POPC   C3B 6537   5.306   9.610   7.955
 5808POPC   C4B 6538   5.217   9.516   7.655
 5809POPC   NC3 6539  44.614  16.776   9.455
 5809POPC   PO4 6540  44.711  16.694   9.155
 5809POPC   GL1 6541  44.623  16.766   8.855
 5809POPC   GL2 6542  44.584  16.736   8.855
 5809POPC   C1A 6543  44.682  16.708   8.555
 5809POPC   D2A 6544  44.681  16.759   8.255
 5809POPC   C3A 6545  44.676  16.688   7.955
 5809POPC   C4A 6546  44.618  16.771   7.655
 5809POPC   C1B 6547  44.413  16.767   8.555
 5809POPC   C2B 6548  44.444  16.765   8.255
 5809POPC   C3B 6549  44.412  16.715   7.955
 5809POPC   C4B 6550  44.402  16.781   7.655
 5810POPC   NC3 6551   8.189  18.247   9.455
 5810POPC   PO4 6552   8.170  18.268   9.155
 5810POPC   GL1 6553   8.230  18.251   8.855
 5810POPC   GL2 6554   8.214  18.424   8.855
 5810POPC   C1A 6555   8.209  18.314   8.555
 5810POPC   D2A 6556   8.231  18.244   8.255
 5810POPC   C3A 6557   8.185  18.254   7.955
 5810POPC   C4A 6558   8.196  18.321   7.655
 5810POPC   C1B 6559   8.321  18.465   8.555
 5810POPC   C2B 6560   8.298  18.556   8.255
 5810POPC   C3B 6561   8.344  18.467   7.955
 5810POPC   C4B 6562   8.286  18.534   7.655
 5811POPC   NC3 6563  43.154  24.536   9.455
 5811POPC   PO4 6564  43.070  24.494   9.155
 5811POPC   GL1 6565  43.125  24.512   8.855
 5811POPC   GL2 6566  43.013  24.412   8.855
 5811POPC   C1A 6567  43.129  24.513   8.555
 5811POPC   D2A 6568  43.096  24.448   8.255
 5811POPC   C3A 6569  43.075  24.527   7.955
 5811POPC   C4A 6570  43.113  24.483   7.655
 5811POPC   C1B 6571  42.968  24.330   8.555
 5811POPC   C2B 6572  42.936  24.329   8.255
 5811POPC   C3B 6573  42.901  24.303   7.955
 5811POPC   C4B 6574  42.965  24.294   7.655
 5812POPC   NC3 6575  17.523  12.896   9.455
 5812POPC   PO4 6576  17.549  12.822   9.155
 5812POPC   GL1 6577  17.542  12.826   8.855
 5812POPC   GL2 6578  17.464  12.686   8.855
 5812POPC   C1A 6579  17.525  12.843   8.555
 5812POPC   D2A 6580  17.507  12.816   8.255
 5812POPC   C3A 6581  17.519  12.859   7.955
 5812POPC   C4A 6582  17.463  12.868   7.655
 5812POPC   C1B 6583  17.485  12.603   8.555
 5812POPC   C2B 6584  17.403  12.567   8.255
 5812POPC   C3B 6585  17.412  12.627   7.955
 5812POPC   C4B 6586  17.422  12.617   7.655
 5813POPC   NC3 6587  36.138  19.861   9.455
 5813POPC   PO4 6588  36.103  19.859   9.155
 5813POPC   GL1 6589  36.149  19.824   8.855
 5813POPC   GL2 6590  36.004  19.764   8.855
 5813POPC   C1A 6591  36.143  19.797   8.555
 5813POPC   D2A 6592  36.176  19.846   8.255
 5813POPC   C3A 6593  36.142  19.857   7.955
 5813POPC   C4A 6594  36.155  19.870   7.655
 5813POPC   C1B 6595  35.892  19.775   8.555
 5813POPC   C2B 6596  35.889  19.786   8.255
 5813POPC   C3B 6597  35.865  19.800   7.955
 5813POPC   C4B 6598  35.841  19.796   7.655
 5814POPC   NC3 6599  22.928   1.972   9.455
 5814POPC   PO4 6600  22.903   2.034   9.155
 5814POPC   GL1 6601  22.938   1.986   8.855
 5814POPC   GL2 6602  22.958   2.105   8.855
 5814POPC   C1A 6603  22.966   1.970   8.555
 5814POPC   D2A 6604  22.972   2.014   8.255
 5814POPC   C3A 6605  22.923   2.018   7.955
 5814POPC   C4A 6606  22.983   1.948   7.655
 5814POPC   C1B 6607  22.953   2.237   8.555
 5814POPC   C2B 6608  23.024   2.183   8.255
 5814POPC   C3B 6609  22.957   2.258   7.955
 5814POPC   C4B 6610  22.996   2.197   7.655
 5815POPC   NC3 6611  11.274   9.765   9.455
 5815POPC   PO4 6612  11.312   9.750   9.155
 5815POPC   GL1 6613  11.330   9.768   8.855
 5815POPC   GL2 6614  11.213   9.692   8.855
 5815POPC   C1A 6615  11.334   9.744   8.555
 5815POPC   D2A 6616  11.256   9.721   8.255
 5815POPC   C3A 6617  11.333   9.754   7.955
 5815POPC   C4A 6618  11.282   9.780   7.655
 5815POPC   C1B 6619  11.055   9.779   8.555
 5815POPC   C2B 6620  11.052   9.735   8.255
 5815POPC   C3B 6621  11.009   9.724   7.955
 5815POPC   C4B 6622  11.037   9.782   7.655
 5816POPC   NC3 6623  31.441  40.051   9.455
 5816POPC   PO4 6624  31.466  39.999   9.155
 5816POPC   GL1 6625  31.476  39.985   8.855
 5816POPC   GL2 6626  31.475  39.934   8.855
 5816POPC   C1A 6627  31.473  39.960   8.555
 5816POPC   D2A 6628  31.516  39.988   8.255
 5816POPC   C3A 6629  31.443  40.023   7.955
 5816POPC   C4A 6630  31.454  40.043   7.655
 5816POPC   C1B 6631  31.525  39.720   8.555
 5816POPC   C2B 6632  31.570  39.778   8.255
 5816POPC   C3B 6633  31.521  39.785   7.955
 5816POPC   C4B 6634  31.558  39.757   7.655
 5817POPC   NC3 6635  33.048  12.036   9.455
 5817POPC   PO4 6636  32.984  12.073   9.155
 5817POPC   GL1 6637  33.056  12.081   8.855
 5817POPC   GL2 6638  32.905  12.063   8.855
 5817POPC   C1A 6639  33.005  12.052   8.555
 5817POPC   D2A 6640  32.993  12.035   8.255
 5817POPC   C3A 6641  33.009  12.037   7.955
 5817POPC   C4A 6642  32.999  12.104   7.655
 5817POPC   C1B 6643  32.806  11.949   8.555
 5817POPC   C2B 6644  32.787  12.041   8.255
 5817POPC   C3B 6645  32.804  11.976   7.955
 5817POPC   C4B 6646  32.821  11.951   7.655
 5818POPC   NC3 6647   4.323  35.377   9.455
 5818POPC   PO4 6648   4.273  35.387   9.155
 5818POPC   GL1 6649   4.326  35.363   8.855
 5818POPC   GL2 6650   4.425  35.210   8.855
 5818POPC   C1A 6651   4.325  35.353   8.555
 5818POPC   D2A 6652   4.298  35.349   8.255
 5818POPC   C3A 6653   4.311  35.329   7.955
 5818POPC   C4A 6654   4.302  35.303   7.655
 5818POPC   C1B 6655   4.485  35.155   8.555
 5818POPC   C2B 6656   4.505  35.170   8.255
 5818POPC   C3B 6657   4.449  35.152   7.955
 5818POPC   C4B 6658   4.429  35.188   7.655
 5819POPC   NC3 6659   2.809  12.097   9.455
 5819POPC   PO4 6660   2.775  12.110   9.155
 5819POPC   GL1 6661   2.787  12.064   8.855
 5819POPC   GL2 6662   2.838  11.961   8.855
 5819POPC   C1A 6663   2.809  12.124   8.555
 5819POPC   D2A 6664   2.745  12.029   8.255
 5819POPC   C3A 6665   2.739  12.028   7.955
 5819POPC   C4A 6666   2.809  12.078   7.655
 5819POPC   C1B 6667   2.960  11.833   8.555
 5819POPC   C2B 6668   2.957  11.880   8.255
 5819POPC   C3B 6669   2.956  11.925   7.955
 5819POPC   C4B 6670   2.960  11.870   7.655
 5820POPC   NC3 6671  42.303   8.935   9.455
 5820POPC   PO4 6672  42.356   8.960   9.155
 5820POPC   GL1 6673  42.290   8.956   8.855
 5820POPC   GL2 6674  42.338   8.843   8.855
 5820POPC   C1A 6675  42.373   8.953   8.555
 5820POPC   D2A 6676  42.333   9.021   8.255
 5820POPC   C3A 6677  42.335   8.977   7.955
 5820POPC   C4A 6678  42.342   8.951   7.655
 5820POPC   C1B 6679  42.336   8.769   8.555
 5820POPC   C2B 6680  42.322   8.710   8.255
 5820POPC   C3B 6681  42.342   8.737   7.955
 5820POPC   C4B 6682  42.350   8.720   7.655
 5821POPC   NC3 6683   0.398  42.296   9.455
 5821POPC   PO4 6684   0.401  42.304   9.155
 5821POPC   GL1 6685   0.445  42.343   8.855
 5821POPC   GL2 6686   0.467  42.174   8.855
 5821POPC   C1A 6687   0.463  42.384   8.555
 5821POPC   D2A 6688   0.397  42.320   8.255
 5821POPC   C3A 6689   0.415  42.333   7.955
 5821POPC   C4A 6690   0.439  42.358   7.655
 5821POPC   C1B 6691   0.371  42.041   8.555
 5821POPC   C2B 6692   0.372  42.086   8.255
 5821POPC   C3B 6693   0.370  42.060   7.955
 5821POPC   C4B 6694   0.403  42.069   7.655
 5822POPC   NC3 6695  39.215  36.947   9.455
 5822POPC   PO4 6696  39.252  36.895   9.155
 5822POPC   GL1 6697  39.277  36.953   8.855
 5822POPC   GL2 6698  39.117  37.005   8.855
 5822POPC   C1A 6699  39.242  36.908   8.555
 5822POPC   D2A 6700  39.256  36.863   8.255
 5822POPC   C3A 6701  39.265  36.941   7.955
 5822POPC   C4A 6702  39.191  36.896   7.655
 5822POPC   C1B 6703  39.131  37.144   8.555
 5822POPC   C2B 6704  39.085  37.163   8.255
 5822POPC   C3B 6705  39.093  37.117   7.955
 5822POPC   C4B 6706  39.076  37.085   7.655
 5823POPC   NC3 6707  28.367  30.671   9.455
 5823POPC   PO4 6708  28.388  30.730   9.155
 5823POPC   GL1 6709  28.416  30.671   8.855
 5823POPC   GL2 6710  28.492  30.743   8.855
 5823POPC   C1A 6711  28.347  30.656   8.555
 5823POPC   D2A 6712  28.415  30.731   8.255
 5823POPC   C3A 6713  28.402  30.679   7.955
 5823POPC   C4A 6714  28.382  30.647   7.655
 5823POPC   C1B 6715  28.607  30.765   8.555
 5823POPC   C2B 6716  28.565  30.764   8.255
 5823POPC   C3B 6717  28.564  30.818   7.955
 5823POPC   C4B 6718  28.570  30.800   7.655
 5824POPC   NC3 6719   3.514  22.128   9.455
 5824POPC   PO4 6720   3.578  22.154   9.155
 5824POPC   GL1 6721   3.520  22.126   8.855
 5824POPC   GL2 6722   3.497  22.266   8.855
 5824POPC   C1A 6723   3.557  22.131   8.555
 5824POPC   D2A 6724   3.542  22.183   8.255
 5824POPC   C3A 6725   3.511  22.119   7.955
 5824POPC   C4A 6726   3.534  22.204   7.655
 5824POPC   C1B 6727   3.561  22.416   8.555
 5824POPC   C2B 6728   3.558  22.423   8.255
 5824POPC   C3B 6729   3.501  22.384   7.955
 5824POPC   C4B 6730   3.527  22.435   7.655
 5825POPC   NC3 6731  44.626  22.912   9.455
 5825POPC   PO4 6732  44.618  22.921   9.155
 5825POPC   GL1 6733  44.613  22.988   8.855
 5825POPC   GL2 6734  44.600  22.786   8.855
 5825POPC   C1A 6735  44.636  22.888   8.555
 5825POPC   D2A 6736  44.625  22.965   8.255
 5825POPC   C3A 6737  44.671  22.971   7.955
 5825POPC   C4A 6738  44.658  22.943   7.655
 5825POPC   C1B 6739  44.506  22.740   8.555
 5825POPC   C2B 6740  44.479  22.748   8.255
 5825POPC   C3B 6741  44.512  22.700   7.955
 5825POPC   C4B 6742  44.543  22.696   7.655
 5826POPC   NC3 6743  20.579  33.778   9.455
 5826POPC   PO4 6744  20.630  33.796   9.155
 5826POPC   GL1 6745  20.568  33.777   8.855
 5826POPC   GL2 6746  20.632  33.935   8.855
 5826POPC   C1A 6747  20.652  33.756   8.555
 5826POPC   D2A 6748  20.578  33.775   8.255
 5826POPC   C3A 6749  20.627  33.777   7.955
 5826POPC   C4A 6750  20.598  33.783   7.655
 5826POPC   C1B 6751  20.608  34.030   8.555
 5826POPC   C2B 6752  20.681  34.017   8.255
 5826POPC   C3B 6753  20.674  34.064   7.955
 5826POPC   C4B 6754  20.618  34.000   7.655
 5827POPC   NC3 6755  27.580  29.894   9.455
 5827POPC   PO4 6756  27.580  29.908   9.155
 5827POPC   GL1 6757  27.619  29.927   8.855
 5827POPC   GL2 6758  27.696  29.999   8.855
 5827POPC   C1A 6759  27.544  29.876   8.555
 5827POPC   D2A 6760  27.557  29.962   8.255
 5827POPC   C3A 6761  27.607  29.877   7.955
 5827POPC   C4A 6762  27.589  29.956   7.655
 5827POPC   C1B 6763  27.874  30.032   8.555
 5827POPC   C2B 6764  27.790  29.954   8.255
 5827POPC   C3B 6765  27.825  30.031   7.955
 5827POPC   C4B 6766  27.809  30.024   7.655
 5828POPC   NC3 6767  20.615  25.272   9.455
 5828POPC   PO4 6768  20.601  25.234   9.155
 5828POPC   GL1 6769  20.571  25.227   8.855
 5828POPC   GL2 6770  20.502  25.310   8.855
 5828POPC   C1A 6771  20.584  25.218   8.555
 5828POPC   D2A 6772  20.628  25.295   8.255
 5828POPC   C3A 6773  20.585  25.231   7.955
 5828POPC   C4A 6774  20.601  25.248   7.655
 5828POPC   C1B 6775  20.330  25.319   8.555
 5828POPC   C2B 6776  20.317  25.356   8.255
 5828POPC   C3B 6777  20.320  25.350   7.955
 5828POPC   C4B 6778  20.316  25.306   7.655
 5829POPC   NC3 6779  29.101  17.552   9.455
 5829POPC   PO4 6780  29.134  17.474   9.155
 5829POPC   GL1 6781  29.182  17.529   8.855
 5829POPC   GL2 6782  29.111  17.429   8.855
 5829POPC   C1A 6783  29.168  17.480   8.555
 5829POPC   D2A 6784  29.111  17.526   8.255
 5829POPC   C3A 6785  29.107  17.476   7.955
 5829POPC   C4A 6786  29.171  17.499   7.655
 5829POPC   C1B 6787  29.167  17.304   8.555
 5829POPC   C2B 6788  29.100  17.273   8.255
 5829POPC   C3B 6789  29.139  17.297   7.955
 5829POPC   C4B 6790  29.183  17.219   7.655
 5830POPC   NC3 6791  15.157   7.396   9.455
 5830POPC   PO4 6792  15.163   7.450   9.155
 5830POPC   GL1 6793  15.196   7.396   8.855
 5830POPC   GL2 6794  15.280   7.321   8.855
 5830POPC   C1A 6795  15.209   7.402   8.555
 5830POPC   D2A 6796  15.211   7.422   8.255
 5830POPC   C3A 6797  15.162   7.458   7.955
 5830POPC   C4A 6798  15.149   7.393   7.655
 5830POPC   C1B 6799  15.301   7.217   8.555
 5830POPC   C2B 6800  15.352   7.233   8.255
 5830POPC   C3B 6801  15.374   7.184   7.955
 5830POPC   C4B 6802  15.342   7.217   7.655
 5831POPC   NC3 6803  12.069  36.114   9.455
 5831POPC   PO4 6804  12.101  36.126   9.155
 5831POPC   GL1 6805  12.122  36.135   8.855
 5831POPC   GL2 6806  12.129  36.205   8.855
 5831POPC   C1A 6807  12.078  36.105   8.555
 5831POPC   D2A 6808  12.125  36.176   8.255
 5831POPC   C3A 6809  12.067  36.078   7.955
 5831POPC   C4A 6810  12.041  36.125   7.655
 5831POPC   C1B 6811  12.205  36.362   8.555
 5831POPC   C2B 6812  12.263  36.326   8.255
 5831POPC   C3B 6813  12.209  36.299   7.955
 5831POPC   C4B 6814  12.247  36.305   7.655
 5832POPC   NC3 6815   5.916   4.333   9.455
 5832POPC   PO4 6816   5.894   4.342   9.155
 5832POPC   GL1 6817   5.889   4.296   8.855
 5832POPC   GL2 6818   5.763   4.291   8.855
 5832POPC   C1A 6819   5.843   4.331   8.555
 5832POPC   D2A 6820   5.833   4.341   8.255
 5832POPC   C3A 6821   5.895   4.361   7.955
 5832POPC   C4A 6822   5.868   4.346   7.655
 5832POPC   C1B 6823   5.630   4.304   8.555
 5832POPC   C2B 6824   5.649   4.298   8.255
 5832POPC   C3B 6825   5.616   4.224   7.955
 5832POPC   C4B 6826   5.607   4.263   7.655
 5833POPC   NC3 6827  27.550  26.789   9.455
 5833POPC   PO4 6828  27.544  26.861   9.155
 5833POPC   GL1 6829  27.621  26.831   8.855
 5833POPC   GL2 6830  27.606  26.937   8.855
 5833POPC   C1A 6831  27.607  26.801   8.555
 5833POPC   D2A 6832  27.631  26.832   8.255
 5833POPC   C3A 6833  27.569  26.793   7.955
 5833POPC   C4A 6834  27.584  26.852   7.655
 5833POPC   C1B 6835  27.639  27.050   8.555
 5833POPC   C2B 6836  27.664  27.052   8.255
 5833POPC   C3B 6837  27.619  27.042   7.955
 5833POPC   C4B 6838  27.630  27.098   7.655
 5834POPC   NC3 6839   1.999  33.041   9.455
 5834POPC   PO4 6840   2.036  32.987   9.155
 5834POPC   GL1 6841   1.960  32.986   8.855
 5834POPC   GL2 6842   2.042  32.954   8.855
 5834POPC   C1A 6843   2.014  33.019   8.555
 5834POPC   D2A 6844   2.031  33.016   8.255
 5834POPC   C3A 6845   2.031  33.016   7.955
 5834POPC   C4A 6846   2.024  33.000   7.655
 5834POPC   C1B 6847   2.169  32.925   8.555
 5834POPC   C2B 6848   2.200  32.881   8.255
 5834POPC   C3B 6849   2.208  32.917   7.955
 5834POPC   C4B 6850   2.200  32.830   7.655
 5835POPC   NC3 6851  15.945   5.120   9.455
 5835POPC   PO4 6852  15.999   5.109   9.155
 5835POPC   GL1 6853  15.941   5.096   8.855
 5835POPC   GL2 6854  16.038   5.204   8.855
 5835POPC   C1A 6855  15.944   5.078   8.555
 5835POPC   D2A 6856  15.947   5.066   8.255
 5835POPC   C3A 6857  15.942   5.132   7.955
 5835POPC   C4A 6858  15.999   5.141   7.655
 5835POPC   C1B 6859  16.131   5.335   8.555
 5835POPC   C2B 6860  16.135   5.301   8.255
 5835POPC   C3B 6861  16.094   5.261   7.955
 5835POPC   C4B 6862  16.090   5.290   7.655
 5836POPC   NC3 6863  16.694  22.154   9.455
 5836POPC   PO4 6864  16.737  22.127   9.155
 5836POPC   GL1 6865  16.746  22.128   8.855
 5836POPC   GL2 6866  16.620  22.119   8.855
 5836POPC   C1A 6867  16.756  22.114   8.555
 5836POPC   D2A 6868  16.773  22.198   8.255
 5836POPC   C3A 6869  16.701  22.150   7.955
 5836POPC   C4A 6870  16.685  22.139   7.655
 5836POPC   C1B 6871  16.514  22.098   8.555
 5836POPC   C2B 6872  16.523  22.099   8.255
 5836POPC   C3B 6873  16.527  22.094   7.955
 5836POPC   C4B 6874  16.527  22.126   7.655
 5837POPC   NC3 6875  42.359   9.721   9.455
 5837POPC   PO4 6876  42.307   9.703   9.155
 5837POPC   GL1 6877  42.303   9.712   8.855
 5837POPC   GL2 6878  42.232   9.808   8.855
 5837POPC   C1A 6879  42.383   9.733   8.555
 5837POPC   D2A 6880  42.350   9.720   8.255
 5837POPC   C3A 6881  42.339   9.742   7.955
 5837POPC   C4A 6882  42.333   9.726   7.655
 5837POPC   C1B 6883  42.063   9.790   8.555
 5837POPC   C2B 6884  42.061   9.828   8.255
 5837POPC   C3B 6885  42.059   9.795   7.955
 5837POPC   C4B 6886  42.065   9.797   7.655
 5838POPC   NC3 6887   5.072  35.386   9.455
 5838POPC   PO4 6888   5.113  35.338   9.155
 5838POPC   GL1 6889   5.082  35.373   8.855
 5838POPC   GL2 6890   5.168  35.250   8.855
 5838POPC   C1A 6891   5.125  35.387   8.555
 5838POPC   D2A 6892   5.087  35.348   8.255
 5838POPC   C3A 6893   5.062  35.385   7.955
 5838POPC   C4A 6894   5.098  35.302   7.655
 5838POPC   C1B 6895   5.324  35.236   8.555
 5838POPC   C2B 6896   5.290  35.247   8.255
 5838POPC   C3B 6897   5.349  35.173   7.955
 5838POPC   C4B 6898   5.268  35.165   7.655
 5839POPC   NC3 6899  16.766  19.074   9.455
 5839POPC   PO4 6900  16.767  19.092   9.155
 5839POPC   GL1 6901  16.717  19.023   8.855
 5839POPC   GL2 6902  16.633  19.049   8.855
 5839POPC   C1A 6903  16.708  19.068   8.555
 5839POPC   D2A 6904  16.689  19.030   8.255
 5839POPC   C3A 6905  16.741  19.026   7.955
 5839POPC   C4A 6906  16.765  19.023   7.655
 5839POPC   C1B 6907  16.507  18.938   8.555
 5839POPC   C2B 6908  16.482  18.993   8.255
 5839POPC   C3B 6909  16.498  18.969   7.955
 5839POPC   C4B 6910  16.503  18.906   7.655
 5840POPC   NC3 6911  35.398  44.630   9.455
 5840POPC   PO4 6912  35.389  44.672   9.155
 5840POPC   GL1 6913  35.379  44.673   8.855
 5840POPC   GL2 6914  35.297  44.782   8.855
 5840POPC   C1A 6915  35.326  44.673   8.555
 5840POPC   D2A 6916  35.318  44.653   8.255
 5840POPC   C3A 6917  35.341  44.650   7.955
 5840POPC   C4A 6918  35.337  44.675   7.655
 5840POPC   C1B 6919  35.212  44.825   8.555
 5840POPC   C2B 6920  35.186  44.863   8.255
 5840POPC   C3B 6921  35.181  44.825   7.955
 5840POPC   C4B 6922  35.211  44.825   7.655
 5841POPC   NC3 6923  43.885  30.651   9.455
 5841POPC   PO4 6924  43.865  30.740   9.155
 5841POPC   GL1 6925  43.881  30.713   8.855
 5841POPC   GL2 6926  43.854  30.615   8.855
 5841POPC   C1A 6927  43.888  30.719   8.555
 5841POPC   D2A 6928  43.897  30.675   8.255
 5841POPC   C3A 6929  43.864  30.713   7.955
 5841POPC   C4A 6930  43.866  30.737   7.655
 5841POPC   C1B 6931  43.730  30.471   8.555
 5841POPC   C2B 6932  43.732  30.469   8.255
 5841POPC   C3B 6933  43.775  30.467   7.955
 5841POPC   C4B 6934  43.727  30.470   7.655
 5842POPC   NC3 6935  33.041  11.280   9.455
 5842POPC   PO4 6936  32.975  11.288   9.155
 5842POPC   GL1 6937  33.037  11.342   8.855
 5842POPC   GL2 6938  33.112  11.370   8.855
 5842POPC   C1A 6939  33.006  11.275   8.555
 5842POPC   D2A 6940  33.043  11.306   8.255
 5842POPC   C3A 6941  33.041  11.280   7.955
 5842POPC   C4A 6942  33.032  11.262   7.655
 5842POPC   C1B 6943  33.316  11.399   8.555
 5842POPC   C2B 6944  33.286  11.398   8.255
 5842POPC   C3B 6945  33.289  11.377   7.955
 5842POPC   C4B 6946  33.224  11.320   7.655
 5843POPC   NC3 6947  38.460   5.913   9.455
 5843POPC   PO4 6948  38.489   5.897   9.155
 5843POPC   GL1 6949  38.470   5.883   8.855
 5843POPC   GL2 6950  38.522   5.791   8.855
 5843POPC   C1A 6951  38.454   5.857   8.555
 5843POPC   D2A 6952  38.489   5.909   8.255
 5843POPC   C3A 6953  38.459   5.888   7.955
 5843POPC   C4A 6954  38.490   5.862   7.655
 5843POPC   C1B 6955  38.570   5.642   8.555
 5843POPC   C2B 6956  38.577   5.605   8.255
 5843POPC   C3B 6957  38.582   5.656   7.955
 5843POPC   C4B 6958  38.533   5.637   7.655
 5844POPC   NC3 6959  22.128  38.428   9.455
 5844POPC   PO4 6960  22.136  38.497   9.155
 5844POPC   GL1 6961  22.116  38.479   8.855
 5844POPC   GL2 6962  22.065  38.568   8.855
 5844POPC   C1A 6963  22.155  38.429   8.555
 5844POPC   D2A 6964  22.137  38.465   8.255
 5844POPC   C3A 6965  22.131  38.499   7.955
 5844POPC   C4A 6966  22.163  38.486   7.655
 5844POPC   C1B 6967  21.968  38.622   8.555
 5844POPC   C2B 6968  21.988  38.609   8.255
 5844POPC   C3B 6969  22.024  38.676   7.955
 5844POPC   C4B 6970  22.041  38.686   7.655
 5845POPC   NC3 6971  28.345   5.902   9.455
 5845POPC   PO4 6972  28.346   5.900   9.155
 5845POPC   GL1 6973  28.383   5.825   8.855
 5845POPC   GL2 6974  28.323   5.957   8.855
 5845POPC   C1A 6975  28.338   5.855   8.555
 5845POPC   D2A 6976  28.415   5.867   8.255
 5845POPC   C3A 6977  28.376   5.878   7.955
 5845POPC   C4A 6978  28.392   5.838   7.655
 5845POPC   C1B 6979  28.323   6.077   8.555
 5845POPC   C2B 6980  28.281   6.103   8.255
 5845POPC   C3B 6981  28.346   6.120   7.955
 5845POPC   C4B 6982  28.287   6.067   7.655
 5846POPC   NC3 6983  41.596  26.784   9.455
 5846POPC   PO4 6984  41.587  26.829   9.155
 5846POPC   GL1 6985  41.519  26.816   8.855
 5846POPC   GL2 6986  41.537  26.938   8.855
 5846POPC   C1A 6987  41.608  26.838   8.555
 5846POPC   D2A 6988  41.569  26.858   8.255
 5846POPC   C3A 6989  41.585  26.779   7.955
 5846POPC   C4A 6990  41.588  26.817   7.655
 5846POPC   C1B 6991  41.425  27.058   8.555
 5846POPC   C2B 6992  41.423  27.078   8.255
 5846POPC   C3B 6993  41.413  27.000   7.955
 5846POPC   C4B 6994  41.449  26.998   7.655
 5847POPC   NC3 6995  33.070  34.586   9.455
 5847POPC   PO4 6996  33.008  34.561   9.155
 5847POPC   GL1 6997  33.022  34.534   8.855
 5847POPC   GL2 6998  33.012  34.488   8.855
 5847POPC   C1A 6999  33.018  34.613   8.555
 5847POPC   D2A 7000  33.036  34.569   8.255
 5847POPC   C3A 7001  33.023  34.529   7.955
 5847POPC   C4A 7002  32.982  34.618   7.655
 5847POPC   C1B 7003  32.993  34.328   8.555
 5847POPC   C2B 7004  32.921  34.302   8.255
 5847POPC   C3B 7005  32.967  34.293   7.955
 5847POPC   C4B 7006  32.950  34.312   7.655
 5848POPC   NC3 7007  33.840   1.982   9.455
 5848POPC   PO4 7008  33.756   2.035   9.155
 5848POPC   GL1 7009  33.837   1.996   8.855
 5848POPC   GL2 7010  33.775   2.078   8.855
 5848POPC   C1A 7011  33.834   1.947   8.555
 5848POPC   D2A 7012  33.750   2.003   8.255
 5848POPC   C3A 7013  33.827   1.964   7.955
 5848POPC   C4A 7014  33.830   1.979   7.655
 5848POPC   C1B 7015  33.856   2.262   8.555
 5848POPC   C2B 7016  33.789   2.271   8.255
 5848POPC   C3B 7017  33.807   2.247   7.955
 5848POPC   C4B 7018  33.836   2.239   7.655
 5849POPC   NC3 7019  16.723  26.799   9.455
 5849POPC   PO4 7020  16.687  26.841   9.155
 5849POPC   GL1 7021  16.772  26.833   8.855
 5849POPC   GL2 7022  16.779  26.725   8.855
 5849POPC   C1A 7023  16.704  26.866   8.555
 5849POPC   D2A 7024  16.708  26.806   8.255
 5849POPC   C3A 7025  16.728  26.856   7.955
 5849POPC   C4A 7026  16.693  26.792   7.655
 5849POPC   C1B 7027  16.875  26.646   8.555
 5849POPC   C2B 7028  16.888  26.578   8.255
 5849POPC   C3B 7029  16.867  26.640   7.955
 5849POPC   C4B 7030  16.828  26.637   7.655
 5850POPC   NC3 7031  43.124   2.783   9.455
 5850POPC   PO4 7032  43.066   2.801   9.155
 5850POPC   GL1 7033  43.151   2.779   8.855
 5850POPC   GL2 7034  43.062   2.934   8.855
 5850POPC   C1A 7035  43.114   2.775   8.555
 5850POPC   D2A 7036  43.114   2.814   8.255
 5850POPC   C3A 7037  43.105   2.743   7.955
 5850POPC   C4A 7038  43.090   2.755   7.655
 5850POPC   C1B 7039  43.014   3.046   8.555
 5850POPC   C2B 7040  43.088   3.005   8.255
 5850POPC   C3B 7041  43.057   2.994   7.955
 5850POPC   C4B 7042  43.015   2.982   7.655
 5851POPC   NC3 7043  39.271   6.640   9.455
 5851POPC   PO4 7044  39.199   6.669   9.155
 5851POPC   GL1 7045  39.186   6.595   8.855
 5851POPC   GL2 7046  39.284   6.580   8.855
 5851POPC   C1A 7047  39.189   6.682   8.555
 5851POPC   D2A 7048  39.189   6.597   8.255
 5851POPC   C3A 7049  39.197   6.684   7.955
 5851POPC   C4A 7050  39.218   6.631   7.655
 5851POPC   C1B 7051  39.419   6.433   8.555
 5851POPC   C2B 7052  39.370   6.421   8.255
 5851POPC   C3B 7053  39.422   6.460   7.955
 5851POPC   C4B 7054  39.377   6.492   7.655
 5852POPC   NC3 7055  42.322   7.375   9.455
 5852POPC   PO4 7056  42.380   7.415   9.155
 5852POPC   GL1 7057  42.382   7.448   8.855
 5852POPC   GL2 7058  42.343   7.494   8.855
 5852POPC   C1A 7059  42.377   7.456   8.555
 5852POPC   D2A 7060  42.346   7.377   8.255
 5852POPC   C3A 7061  42.327   7.381   7.955
 5852POPC   C4A 7062  42.331   7.371   7.655
 5852POPC   C1B 7063  42.403   7.659   8.555
 5852POPC   C2B 7064  42.382   7.695   8.255
 5852POPC   C3B 7065  42.365   7.629   7.955
 5852POPC   C4B 7066  42.364   7.647   7.655
 5853POPC   NC3 7067  36.100  20.614   9.455
 5853POPC   PO4 7068  36.080  20.660   9.155
 5853POPC   GL1 7069  36.092  20.636   8.855
 5853POPC   GL2 7070  36.257  20.744   8.855
 5853POPC   C1A 7071  36.106  20.652   8.555
 5853POPC   D2A 7072  36.101  20.583   8.255
 5853POPC   C3A 7073  36.087  20.651   7.955
 5853POPC   C4A 7074  36.130  20.605   7.655
 5853POPC   C1B 7075  36.330  20.758   8.555
 5853POPC   C2B 7076  36.290  20.752   8.255
 5853POPC   C3B 7077  36.325  20.748   7.955
 5853POPC   C4B 7078  36.274  20.808   7.655
 5854POPC   NC3 7079  22.114  29.889   9.455
 5854POPC   PO4 7080  22.143  29.971   9.155
 5854POPC   GL1 7081  22.141  29.960   8.855
 5854POPC   GL2 7082  22.007  29.883   8.855
 5854POPC   C1A 7083  22.192  29.889   8.555
 5854POPC   D2A 7084  22.174  29.957   8.255
 5854POPC   C3A 7085  22.209  29.901   7.955
 5854POPC   C4A 7086  22.128  29.968   7.655
 5854POPC   C1B 7087  21.930  29.853   8.555
 5854POPC   C2B 7088  21.953  29.877   8.255
 5854POPC   C3B 7089  21.965  29.873   7.955
 5854POPC   C4B 7090  21.874  29.847   7.655
 5855POPC   NC3 7091  18.290  18.323   9.455
 5855POPC   PO4 7092  18.277  18.263   9.155
 5855POPC   GL1 7093  18.262  18.237   8.855
 5855POPC   GL2 7094  18.382  18.372   8.855
 5855POPC   C1A 7095  18.329  18.239   8.555
 5855POPC   D2A 7096  18.273  18.295   8.255
 5855POPC   C3A 7097  18.289  18.246   7.955
 5855POPC   C4A 7098  18.265  18.303   7.655
 5855POPC   C1B 7099  18.444  18.472   8.555
 5855POPC   C2B 7100  18.464  18.434   8.255
 5855POPC   C3B 7101  18.524  18.445   7.955
 5855POPC   C4B 7102  18.482  18.399   7.655
 5856POPC   NC3 7103  25.268  10.522   9.455
 5856POPC   PO4 7104  25.262  10.509   9.155
 5856POPC   GL1 7105  25.298  10.548   8.855
 5856POPC   GL2 7106  25.386  10.603   8.855
 5856POPC   C1A 7107  25.276  10.512   8.555
 5856POPC   D2A 7108  25.308  10.569   8.255
 5856POPC   C3A 7109  25.236  10.570   7.955
 5856POPC   C4A 7110  25.312  10.499   7.655
 5856POPC   C1B 7111  25.489  10.628   8.555
 5856POPC   C2B 7112  25.463  10.603   8.255
 5856POPC   C3B 7113  25.525  10.539   7.955
 5856POPC   C4B 7114  25.462  10.540   7.655
 5857POPC   NC3 7115  30.743  13.582   9.455
 5857POPC   PO4 7116  30.694  13.628   9.155
 5857POPC   GL1 7117  30.654  13.665   8.855
 5857POPC   GL2 7118  30.747  13.765   8.855
 5857POPC   C1A 7119  30.728  13.655   8.555
 5857POPC   D2A 7120  30.658  13.627   8.255
 5857POPC   C3A 7121  30.728  13.620   7.955
 5857POPC   C4A 7122  30.687  13.655   7.655
 5857POPC   C1B 7123  30.847  13.794   8.555
 5857POPC   C2B 7124  30.871  13.830   8.255
 5857POPC   C3B 7125  30.857  13.880   7.955
 5857POPC   C4B 7126  30.844  13.826   7.655
 5858POPC   NC3 7127  42.314  17.474   9.455
 5858POPC   PO4 7128  42.351  17.479   9.155
 5858POPC   GL1 7129  42.384  17.462   8.855
 5858POPC   GL2 7130  42.206  17.490   8.855
 5858POPC   C1A 7131  42.352  17.486   8.555
 5858POPC   D2A 7132  42.360  17.462   8.255
 5858POPC   C3A 7133  42.311  17.506   7.955
 5858POPC   C4A 7134  42.302  17.475   7.655
 5858POPC   C1B 7135  42.084  17.455   8.555
 5858POPC   C2B 7136  42.037  17.467   8.255
 5858POPC   C3B 7137  42.060  17.461   7.955
 5858POPC   C4B 7138  42.090  17.535   7.655
 5859POPC   NC3 7139   2.004  26.059   9.455
 5859POPC   PO4 7140   1.970  26.016   9.155
 5859POPC   GL1 7141   1.954  26.009   8.855
 5859POPC   GL2 7142   2.079  26.041   8.855
 5859POPC   C1A 7143   1.998  26.019   8.555
 5859POPC   D2A 7144   1.959  26.089   8.255
 5859POPC   C3A 7145   2.021  26.088   7.955
 5859POPC   C4A 7146   2.018  26.007   7.655
 5859POPC   C1B 7147   2.265  25.980   8.555
 5859POPC   C2B 7148   2.211  26.067   8.255
 5859POPC   C3B 7149   2.236  26.049   7.955
 5859POPC   C4B 7150   2.229  25.993   7.655
 5860POPC   NC3 7151   8.217  37.719   9.455
 5860POPC   PO4 7152   8.180  37.720   9.155
 5860POPC   GL1 7153   8.227  37.719   8.855
 5860POPC   GL2 7154   8.239  37.801   8.855
 5860POPC   C1A 7155   8.190  37.728   8.555
 5860POPC   D2A 7156   8.158  37.705   8.255
 5860POPC   C3A 7157   8.238  37.672   7.955
 5860POPC   C4A 7158   8.240  37.646   7.655
 5860POPC   C1B 7159   8.178  37.887   8.555
 5860POPC   C2B 7160   8.185  37.939   8.255
 5860POPC   C3B 7161   8.158  37.949   7.955
 5860POPC   C4B 7162   8.172  37.890   7.655
 5861POPC   NC3 7163  12.028  41.579   9.455
 5861POPC   PO4 7164  12.068  41.550   9.155
 5861POPC   GL1 7165  12.031  41.561   8.855
 5861POPC   GL2 7166  12.166  41.619   8.855
 5861POPC   C1A 7167  12.124  41.513   8.555
 5861POPC   D2A 7168  12.078  41.520   8.255
 5861POPC   C3A 7169  12.100  41.608   7.955
 5861POPC   C4A 7170  12.065  41.575   7.655
 5861POPC   C1B 7171  12.205  41.766   8.555
 5861POPC   C2B 7172  12.179  41.757   8.255
 5861POPC   C3B 7173  12.226  41.799   7.955
 5861POPC   C4B 7174  12.218  41.752   7.655
 5862POPC   NC3 7175   0.487  15.944   9.455
 5862POPC   PO4 7176   0.399  15.988   9.155
 5862POPC   GL1 7177   0.410  15.942   8.855
 5862POPC   GL2 7178   0.473  15.839   8.855
 5862POPC   C1A 7179   0.433  15.907   8.555
 5862POPC   D2A 7180   0.419  15.967   8.255
 5862POPC   C3A 7181   0.466  15.955   7.955
 5862POPC   C4A 7182   0.470  15.986   7.655
 5862POPC   C1B 7183   0.479  15.714   8.555
 5862POPC   C2B 7184   0.510  15.732   8.255
 5862POPC   C3B 7185   0.468  15.744   7.955
 5862POPC   C4B 7186   0.545  15.723   7.655
 5863POPC   NC3 7187   8.184  44.702   9.455
 5863POPC   PO4 7188   8.150  44.697   9.155
 5863POPC   GL1 7189   8.225  44.643   8.855
 5863POPC   GL2 7190   8.163  44.538   8.855
 5863POPC   C1A 7191   8.200  44.654   8.555
 5863POPC   D2A 7192   8.155  44.684   8.255
 5863POPC   C3A 7193   8.155  44.689   7.955
 5863POPC   C4A 7194   8.150  44.649   7.655
 5863POPC   C1B 7195   8.133  44.479   8.555
 5863POPC   C2B 7196   8.093  44.404   8.255
 5863POPC   C3B 7197   8.092  44.463   7.955
 5863POPC   C4B 7198   8.130  44.412   7.655
 5864POPC   NC3 7199  31.455  33.009   9.455
 5864POPC   PO4 7200  31.516  33.047   9.155
 5864POPC   GL1 7201  31.451  33.031   8.855
 5864POPC   GL2 7202  31.522  32.933   8.855
 5864POPC   C1A 7203  31.446  33.012   8.555
 5864POPC   D2A 7204  31.485  33.010   8.255
 5864POPC   C3A 7205  31.432  33.066   7.955
 5864POPC   C4A 7206  31.490  33.059   7.655
 5864POPC   C1B 7207  31.542  32.760   8.555
 5864POPC   C2B 7208  31.540  32.796   8.255
 5864POPC   C3B 7209  31.543  32.754   7.955
 5864POPC   C4B 7210  31.554  32.814   7.655
 5865POPC   NC3 7211  40.735  17.475   9.455
 5865POPC   PO4 7212  40.780  17.507   9.155
 5865POPC   GL1 7213  40.809  17.480   8.855
 5865POPC   GL2 7214  40.654  17.461   8.855
 5865POPC   C1A 7215  40.804  17.549   8.555
 5865POPC   D2A 7216  40.813  17.510   8.255
 5865POPC   C3A 7217  40.742  17.522   7.955
 5865POPC   C4A 7218  40.764  17.491   7.655
 5865POPC   C1B 7219  40.553  17.408   8.555
 5865POPC   C2B 7220  40.510  17.441   8.255
 5865POPC   C3B 7221  40.552  17.452   7.955
 5865POPC   C4B 7222  40.582  17.451   7.655
 5866POPC   NC3 7223  37.661   4.334   9.455
 5866POPC   PO4 7224  37.677   4.366   9.155
 5866POPC   GL1 7225  37.699   4.277   8.855
 5866POPC   GL2 7226  37.543   4.326   8.855
 5866POPC   C1A 7227  37.696   4.320   8.555
 5866POPC   D2A 7228  37.682   4.362   8.255
 5866POPC   C3A 7229  37.691   4.333   7.955
 5866POPC   C4A 7230  37.707   4.345   7.655
 5866POPC   C1B 7231  37.460   4.348   8.555
 5866POPC   C2B 7232  37.442   4.338   8.255
 5866POPC   C3B 7233  37.403   4.379   7.955
 5866POPC   C4B 7234  37.467   4.385   7.655
 5867POPC   NC3 7235   8.951  44.693   9.455
 5867POPC   PO4 7236   8.951  44.623   9.155
 5867POPC   GL1 7237   8.972  44.693   8.855
 5867POPC   GL2 7238   8.911  44.777   8.855
 5867POPC   C1A 7239   8.994  44.649   8.555
 5867POPC   D2A 7240   9.012  44.652   8.255
 5867POPC   C3A 7241   8.946  44.621   7.955
 5867POPC   C4A 7242   8.928  44.703   7.655
 5867POPC   C1B 7243   8.757  44.849   8.555
 5867POPC   C2B 7244   8.802  44.868   8.255
 5867POPC   C3B 7245   8.789  44.839   7.955
 5867POPC   C4B 7246   8.766  44.809   7.655
 5868POPC   NC3 7247  44.663  14.375   9.455
 5868POPC   PO4 7248  44.675  14.404   9.155
 5868POPC   GL1 7249  44.658  14.384   8.855
 5868POPC   GL2 7250  44.534  14.455   8.855
 5868POPC   C1A 7251  44.647  14.390   8.555
 5868POPC   D2A 7252  44.705  14.401   8.255
 5868POPC   C3A 7253  44.622  14.439   7.955
 5868POPC   C4A 7254  44.705  14.435   7.655
 5868POPC   C1B 7255  44.389  14.507   8.555
 5868POPC   C2B 7256  44.428  14.472   8.255
 5868POPC   C3B 7257  44.442  14.492   7.955
 5868POPC   C4B 7258  44.400  14.483   7.655
 5869POPC   NC3 7259  39.217  19.875   9.455
 5869POPC   PO4 7260  39.186  19.826   9.155
 5869POPC   GL1 7261  39.203  19.800   8.855
 5869POPC   GL2 7262  39.248  19.703   8.855
 5869POPC   C1A 7263  39.262  19.863   8.555
 5869POPC   D2A 7264  39.253  19.849   8.255
 5869POPC   C3A 7265  39.256  19.787   7.955
 5869POPC   C4A 7266  39.195  19.876   7.655
 5869POPC   C1B 7267  39.213  19.578   8.555
 5869POPC   C2B 7268  39.287  19.544   8.255
 5869POPC   C3B 7269  39.301  19.598   7.955
 5869POPC   C4B 7270  39.285  19.538   7.655
 5870POPC   NC3 7271  19.012  28.375   9.455
 5870POPC   PO4 7272  19.086  28.376   9.155
 5870POPC   GL1 7273  19.021  28.413   8.855
 5870POPC   GL2 7274  18.966  28.504   8.855
 5870POPC   C1A 7275  19.106  28.389   8.555
 5870POPC   D2A 7276  19.035  28.333   8.255
 5870POPC   C3A 7277  19.102  28.336   7.955
 5870POPC   C4A 7278  19.048  28.364   7.655
 5870POPC   C1B 7279  18.997  28.614   8.555
 5870POPC   C2B 7280  18.914  28.564   8.255
 5870POPC   C3B 7281  18.921  28.588   7.955
 5870POPC   C4B 7282  18.913  28.632   7.655
 5871POPC   NC3 7283  40.775  15.142   9.455
 5871POPC   PO4 7284  40.748  15.158   9.155
 5871POPC   GL1 7285  40.810  15.213   8.855
 5871POPC   GL2 7286  40.848  15.150   8.855
 5871POPC   C1A 7287  40.777  15.157   8.555
 5871POPC   D2A 7288  40.740  15.196   8.255
 5871POPC   C3A 7289  40.787  15.134   7.955
 5871POPC   C4A 7290  40.796  15.212   7.655
 5871POPC   C1B 7291  40.965  15.079   8.555
 5871POPC   C2B 7292  41.057  15.077   8.255
 5871POPC   C3B 7293  41.015  15.034   7.955
 5871POPC   C4B 7294  40.967  15.088   7.655
 5872POPC   NC3 7295  17.549  43.862   9.455
 5872POPC   PO4 7296  17.547  43.912   9.155
 5872POPC   GL1 7297  17.550  43.900   8.855
 5872POPC   GL2 7298  17.466  43.821   8.855
 5872POPC   C1A 7299  17.470  43.843   8.555
 5872POPC   D2A 7300  17.535  43.922   8.255
 5872POPC   C3A 7301  17.457  43.918   7.955
 5872POPC   C4A 7302  17.465  43.845   7.655
 5872POPC   C1B 7303  17.322  43.690   8.555
 5872POPC   C2B 7304  17.372  43.668   8.255
 5872POPC   C3B 7305  17.377  43.737   7.955
 5872POPC   C4B 7306  17.383  43.718   7.655
 5873POPC   NC3 7307   2.782  22.149   9.455
 5873POPC   PO4 7308   2.757  22.208   9.155
 5873POPC   GL1 7309   2.717  22.135   8.855
 5873POPC   GL2 7310   2.727  22.222   8.855
 5873POPC   C1A 7311   2.726  22.151   8.555
 5873POPC   D2A 7312   2.800  22.160   8.255
 5873POPC   C3A 7313   2.814  22.208   7.955
 5873POPC   C4A 7314   2.804  22.205   7.655
 5873POPC   C1B 7315   2.638  22.337   8.555
 5873POPC   C2B 7316   2.671  22.387   8.255
 5873POPC   C3B 7317   2.674  22.403   7.955
 5873POPC   C4B 7318   2.674  22.367   7.655
 5874POPC   NC3 7319  19.789  42.355   9.455
 5874POPC   PO4 7320  19.843  42.341   9.155
 5874POPC   GL1 7321  19.832  42.340   8.855
 5874POPC   GL2 7322  19.859  42.212   8.855
 5874POPC   C1A 7323  19.827  42.361   8.555
 5874POPC   D2A 7324  19.792  42.349   8.255
 5874POPC   C3A 7325  19.864  42.380   7.955
 5874POPC   C4A 7326  19.788  42.365   7.655
 5874POPC   C1B 7327  19.828  42.116   8.555
 5874POPC   C2B 7328  19.819  42.129   8.255
 5874POPC   C3B 7329  19.850  42.091   7.955
 5874POPC   C4B 7330  19.885  42.094   7.655
 5875POPC   NC3 7331  10.515  19.879   9.455
 5875POPC   PO4 7332  10.566  19.787   9.155
 5875POPC   GL1 7333  10.498  19.786   8.855
 5875POPC   GL2 7334  10.432  19.879   8.855
 5875POPC   C1A 7335  10.498  19.874   8.555
 5875POPC   D2A 7336  10.539  19.833   8.255
 5875POPC   C3A 7337  10.539  19.816   7.955
 5875POPC   C4A 7338  10.531  19.840   7.655
 5875POPC   C1B 7339  10.255  19.946   8.555
 5875POPC   C2B 7340  10.301  19.943   8.255
 5875POPC   C3B 7341  10.250  19.949   7.955
 5875POPC   C4B 7342  10.277  19.953   7.655
 5876POPC   NC3 7343  22.154  36.096   9.455
 5876POPC   PO4 7344  22.135  36.118   9.155
 5876POPC   GL1 7345  22.134  36.107   8.855
 5876POPC   GL2 7346  22.241  36.270   8.855
 5876POPC   C1A 7347  22.162  36.101   8.555
 5876POPC   D2A 7348  22.209  36.108   8.255
 5876POPC   C3A 7349  22.140  36.146   7.955
 5876POPC   C4A 7350  22.151  36.149   7.655
 5876POPC   C1B 7351  22.287  36.311   8.555
 5876POPC   C2B 7352  22.232  36.384   8.255
 5876POPC   C3B 7353  22.248  36.392   7.955
 5876POPC   C4B 7354  22.275  36.337   7.655
 5877POPC   NC3 7355  29.134   5.058   9.455
 5877POPC   PO4 7356  29.156   5.058   9.155
 5877POPC   GL1 7357  29.137   5.082   8.855
 5877POPC   GL2 7358  29.003   5.154   8.855
 5877POPC   C1A 7359  29.130   5.078   8.555
 5877POPC   D2A 7360  29.120   5.129   8.255
 5877POPC   C3A 7361  29.149   5.056   7.955
 5877POPC   C4A 7362  29.097   5.101   7.655
 5877POPC   C1B 7363  28.887   5.176   8.555
 5877POPC   C2B 7364  28.905   5.123   8.255
 5877POPC   C3B 7365  28.921   5.191   7.955
 5877POPC   C4B 7366  28.913   5.129   7.655
 5878POPC   NC3 7367  41.561  17.495   9.455
 5878POPC   PO4 7368  41.540  17.556   9.155
 5878POPC   GL1 7369  41.559  17.468   8.855
 5878POPC   GL2 7370  41.466  17.370   8.855
 5878POPC   C1A 7371  41.512  17.482   8.555
 5878POPC   D2A 7372  41.523  17.507   8.255
 5878POPC   C3A 7373  41.535  17.504   7.955
 5878POPC   C4A 7374  41.535  17.515   7.655
 5878POPC   C1B 7375  41.364  17.353   8.555
 5878POPC   C2B 7376  41.365  17.329   8.255
 5878POPC   C3B 7377  41.413  17.363   7.955
 5878POPC   C4B 7378  41.426  17.333   7.655
 5879POPC   NC3 7379  43.068   1.231   9.455
 5879POPC   PO4 7380  43.153   1.227   9.155
 5879POPC   GL1 7381  43.114   1.219   8.855
 5879POPC   GL2 7382  43.039   1.267   8.855
 5879POPC   C1A 7383  43.106   1.221   8.555
 5879POPC   D2A 7384  43.077   1.182   8.255
 5879POPC   C3A 7385  43.146   1.261   7.955
 5879POPC   C4A 7386  43.158   1.207   7.655
 5879POPC   C1B 7387  42.884   1.258   8.555
 5879POPC   C2B 7388  42.872   1.253   8.255
 5879POPC   C3B 7389  42.885   1.254   7.955
 5879POPC   C4B 7390  42.856   1.270   7.655
 5880POPC   NC3 7391  13.598  11.310   9.455
 5880POPC   PO4 7392  13.619  11.267   9.155
 5880POPC   GL1 7393  13.651  11.331   8.855
 5880POPC   GL2 7394  13.713  11.178   8.855
 5880POPC   C1A 7395  13.621  11.263   8.555
 5880POPC   D2A 7396  13.638  11.270   8.255
 5880POPC   C3A 7397  13.675  11.267   7.955
 5880POPC   C4A 7398  13.595  11.295   7.655
 5880POPC   C1B 7399  13.833  11.164   8.555
 5880POPC   C2B 7400  13.825  11.175   8.255
 5880POPC   C3B 7401  13.840  11.153   7.955
 5880POPC   C4B 7402  13.814  11.130   7.655
 5881POPC   NC3 7403  29.133  29.095   9.455
 5881POPC   PO4 7404  29.109  29.129   9.155
 5881POPC   GL1 7405  29.176  29.180   8.855
 5881POPC   GL2 7406  29.118  29.022   8.855
 5881POPC   C1A 7407  29.123  29.143   8.555
 5881POPC   D2A 7408  29.118  29.125   8.255
 5881POPC   C3A 7409  29.098  29.103   7.955
 5881POPC   C4A 7410  29.173  29.153   7.655
 5881POPC   C1B 7411  29.007  28.969   8.555
 5881POPC   C2B 7412  29.009  28.893   8.255
 5881POPC   C3B 7413  28.986  28.881   7.955
 5881POPC   C4B 7414  29.000  28.970   7.655
 5882POPC   NC3 7415  39.963  25.282   9.455
 5882POPC   PO4 7416  39.980  25.300   9.155
 5882POPC   GL1 7417  39.974  25.263   8.855
 5882POPC   GL2 7418  40.008  25.156   8.855
 5882POPC   C1A 7419  40.055  25.314   8.555
 5882POPC   D2A 7420  39.983  25.311   8.255
 5882POPC   C3A 7421  39.992  25.225   7.955
 5882POPC   C4A 7422  40.016  25.314   7.655
 5882POPC   C1B 7423  40.089  25.055   8.555
 5882POPC   C2B 7424  40.055  24.992   8.255
 5882POPC   C3B 7425  40.053  25.056   7.955
 5882POPC   C4B 7426  40.137  25.036   7.655
 5883POPC   NC3 7427   2.812   0.454   9.455
 5883POPC   PO4 7428   2.774   0.460   9.155
 5883POPC   GL1 7429   2.782   0.478   8.855
 5883POPC   GL2 7430   2.715   0.555   8.855
 5883POPC   C1A 7431   2.754   0.406   8.555
 5883POPC   D2A 7432   2.719   0.421   8.255
 5883POPC   C3A 7433   2.793   0.448   7.955
 5883POPC   C4A 7434   2.723   0.448   7.655
 5883POPC   C1B 7435   2.611   0.610   8.555
 5883POPC   C2B 7436   2.607   0.651   8.255
 5883POPC   C3B 7437   2.605   0.688   7.955
 5883POPC   C4B 7438   2.581   0.598   7.655
 5884POPC   NC3 7439   7.411  11.332   9.455
 5884POPC   PO4 7440   7.443  11.283   9.155
 5884POPC   GL1 7441   7.421  11.323   8.855
 5884POPC   GL2 7442   7.523  11.373   8.855
 5884POPC   C1A 7443   7.469  11.295   8.555
 5884POPC   D2A 7444   7.450  11.315   8.255
 5884POPC   C3A 7445   7.415  11.266   7.955
 5884POPC   C4A 7446   7.449  11.257   7.655
 5884POPC   C1B 7447   7.594  11.469   8.555
 5884POPC   C2B 7448   7.556  11.493   8.255
 5884POPC   C3B 7449   7.557  11.545   7.955
 5884POPC   C4B 7450   7.509  11.531   7.655
 5885POPC   NC3 7451  30.728  40.012   9.455
 5885POPC   PO4 7452  30.688  39.985   9.155
 5885POPC   GL1 7453  30.649  40.056   8.855
 5885POPC   GL2 7454  30.572  40.081   8.855
 5885POPC   C1A 7455  30.687  40.042   8.555
 5885POPC   D2A 7456  30.741  40.014   8.255
 5885POPC   C3A 7457  30.698  39.962   7.955
 5885POPC   C4A 7458  30.649  39.997   7.655
 5885POPC   C1B 7459  30.578  40.186   8.555
 5885POPC   C2B 7460  30.547  40.230   8.255
 5885POPC   C3B 7461  30.539  40.236   7.955
 5885POPC   C4B 7462  30.493  40.224   7.655
 5886POPC   NC3 7463  20.630  28.337   9.455
 5886POPC   PO4 7464  20.656  28.379   9.155
 5886POPC   GL1 7465  20.624  28.354   8.855
 5886POPC   GL2 7466  20.753  28.487   8.855
 5886POPC   C1A 7467  20.615  28.377   8.555
 5886POPC   D2A 7468  20.639  28.372   8.255
 5886POPC   C3A 7469  20.578  28.376   7.955
 5886POPC   C4A 7470  20.599  28.350   7.655
 5886POPC   C1B 7471  20.816  28.485   8.555
 5886POPC   C2B 7472  20.846  28.516   8.255
 5886POPC   C3B 7473  20.774  28.518   7.955
 5886POPC   C4B 7474  20.845  28.470   7.655
 5887POPC   NC3 7475  43.119  40.788   9.455
 5887POPC   PO4 7476  43.111  40.733   9.155
 5887POPC   GL1 7477  43.106  40.809   8.855
 5887POPC   GL2 7478  43.009  40.702   8.855
 5887POPC   C1A 7479  43.081  40.797   8.555
 5887POPC   D2A 7480  43.095  40.809   8.255
 5887POPC   C3A 7481  43.069  40.793   7.955
 5887POPC   C4A 7482  43.125  40.799   7.655
 5887POPC   C1B 7483  42.965  40.589   8.555
 5887POPC   C2B 7484  42.994  40.587   8.255
 5887POPC   C3B 7485  42.950  40.566   7.955
 5887POPC   C4B 7486  42.909  40.627   7.655
 5888POPC   NC3 7487   9.020  22.118   9.455
 5888POPC   PO4 7488   9.006  22.115   9.155
 5888POPC   GL1 7489   9.008  22.174   8.855
 5888POPC   GL2 7490   8.964  21.995   8.855
 5888POPC   C1A 7491   8.977  22.131   8.555
 5888POPC   D2A 7492   9.022  22.134   8.255
 5888POPC   C3A 7493   8.984  22.113   7.955
 5888POPC   C4A 7494   8.987  22.182   7.655
 5888POPC   C1B 7495   8.959  21.886   8.555
 5888POPC   C2B 7496   9.004  21.895   8.255
 5888POPC   C3B 7497   8.951  21.892   7.955
 5888POPC   C4B 7498   8.969  21.888   7.655
 5889POPC   NC3 7499   6.638   5.136   9.455
 5889POPC   PO4 7500   6.628   5.118   9.155
 5889POPC   GL1 7501   6.631   5.050   8.855
 5889POPC   GL2 7502   6.699   5.198   8.855
 5889POPC   C1A 7503   6.654   5.049   8.555
 5889POPC   D2A 7504   6.603   5.093   8.255
 5889POPC   C3A 7505   6.665   5.062   7.955
 5889POPC   C4A 7506   6.691   5.075   7.655
 5889POPC   C1B 7507   6.813   5.323   8.555
 5889POPC   C2B 7508   6.816   5.326   8.255
 5889POPC   C3B 7509   6.781   5.250   7.955
 5889POPC   C4B 7510   6.770   5.247   7.655
 5890POPC   NC3 7511   2.802  11.294   9.455
 5890POPC   PO4 7512   2.742  11.331   9.155
 5890POPC   GL1 7513   2.722  11.314   8.855
 5890POPC   GL2 7514   2.876  11.375   8.855
 5890POPC   C1A 7515   2.771  11.339   8.555
 5890POPC   D2A 7516   2.799  11.268   8.255
 5890POPC   C3A 7517   2.779  11.336   7.955
 5890POPC   C4A 7518   2.760  11.341   7.655
 5890POPC   C1B 7519   2.924  11.495   8.555
 5890POPC   C2B 7520   2.986  11.450   8.255
 5890POPC   C3B 7521   2.899  11.485   7.955
 5890POPC   C4B 7522   2.961  11.433   7.655
 5891POPC   NC3 7523  12.893  12.119   9.455
 5891POPC   PO4 7524  12.854  12.034   9.155
 5891POPC   GL1 7525  12.886  12.050   8.855
 5891POPC   GL2 7526  12.910  12.187   8.855
 5891POPC   C1A 7527  12.808  12.035   8.555
 5891POPC   D2A 7528  12.887  12.028   8.255
 5891POPC   C3A 7529  12.876  12.045   7.955
 5891POPC   C4A 7530  12.825  12.038   7.655
 5891POPC   C1B 7531  12.978  12.296   8.555
 5891POPC   C2B 7532  12.932  12.354   8.255
 5891POPC   C3B 7533  12.905  12.277   7.955
 5891POPC   C4B 7534  12.942  12.333   7.655
 5892POPC   NC3 7535  16.727  29.924   9.455
 5892POPC   PO4 7536  16.774  29.963   9.155
 5892POPC   GL1 7537  16.780  29.946   8.855
 5892POPC   GL2 7538  16.682  30.038   8.855
 5892POPC   C1A 7539  16.700  29.894   8.555
 5892POPC   D2A 7540  16.716  29.915   8.255
 5892POPC   C3A 7541  16.760  29.903   7.955
 5892POPC   C4A 7542  16.706  29.943   7.655
 5892POPC   C1B 7543  16.555  30.119   8.555
 5892POPC   C2B 7544  16.547  30.144   8.255
 5892POPC   C3B 7545  16.604  30.151   7.955
 5892POPC   C4B 7546  16.581  30.098   7.655
 5893POPC   NC3 7547  14.370   6.597   9.455
 5893POPC   PO4 7548  14.356   6.693   9.155
 5893POPC   GL1 7549  14.355   6.686   8.855
 5893POPC   GL2 7550  14.548   6.673   8.855
 5893POPC   C1A 7551  14.398   6.613   8.555
 5893POPC   D2A 7552  14.431   6.606   8.255
 5893POPC   C3A 7553  14.435   6.627   7.955
 5893POPC   C4A 7554  14.452   6.655   7.655
 5893POPC   C1B 7555  14.612   6.621   8.555
 5893POPC   C2B 7556  14.628   6.712   8.255
 5893POPC   C3B 7557  14.630   6.646   7.955
 5893POPC   C4B 7558  14.644   6.683   7.655
 5894POPC   NC3 7559  26.781  14.381   9.455
 5894POPC   PO4 7560  26.790  14.394   9.155
 5894POPC   GL1 7561  26.851  14.376   8.855
 5894POPC   GL2 7562  26.745  14.323   8.855
 5894POPC   C1A 7563  26.837  14.413   8.555
 5894POPC   D2A 7564  26.851  14.391   8.255
 5894POPC   C3A 7565  26.789  14.406   7.955
 5894POPC   C4A 7566  26.816  14.383   7.655
 5894POPC   C1B 7567  26.573  14.338   8.555
 5894POPC   C2B 7568  26.594  14.345   8.255
 5894POPC   C3B 7569  26.631  14.312   7.955
 5894POPC   C4B 7570  26.621  14.317   7.655
 5895POPC   NC3 7571  13.591   9.780   9.455
 5895POPC   PO4 7572  13.601   9.763   9.155
 5895POPC   GL1 7573  13.587   9.721   8.855
 5895POPC   GL2 7574  13.787   9.793   8.855
 5895POPC   C1A 7575  13.621   9.768   8.555
 5895POPC   D2A 7576  13.666   9.782   8.255
 5895POPC   C3A 7577  13.635   9.709   7.955
 5895POPC   C4A 7578  13.619   9.735   7.655
 5895POPC   C1B 7579  13.816   9.862   8.555
 5895POPC   C2B 7580  13.882   9.889   8.255
 5895POPC   C3B 7581  13.847   9.825   7.955
 5895POPC   C4B 7582  13.816   9.872   7.655
 5896POPC   NC3 7583   8.236   3.497   9.455
 5896POPC   PO4 7584   8.212   3.538   9.155
 5896POPC   GL1 7585   8.246   3.554   8.855
 5896POPC   GL2 7586   8.193   3.619   8.855
 5896POPC   C1A 7587   8.188   3.498   8.555
 5896POPC   D2A 7588   8.156   3.573   8.255
 5896POPC   C3A 7589   8.162   3.573   7.955
 5896POPC   C4A 7590   8.196   3.546   7.655
 5896POPC   C1B 7591   8.154   3.782   8.555
 5896POPC   C2B 7592   8.074   3.746   8.255
 5896POPC   C3B 7593   8.134   3.736   7.955
 5896POPC   C4B 7594   8.090   3.758   7.655
 5897POPC   NC3 7595   9.735  33.784   9.455
 5897POPC   PO4 7596   9.710  33.780   9.155
 5897POPC   GL1 7597   9.722  33.750   8.855
 5897POPC   GL2 7598   9.581  33.783   8.855
 5897POPC   C1A 7599   9.768  33.800   8.555
 5897POPC   D2A 7600   9.699  33.782   8.255
 5897POPC   C3A 7601   9.699  33.810   7.955
 5897POPC   C4A 7602   9.782  33.793   7.655
 5897POPC   C1B 7603   9.529  33.751   8.555
 5897POPC   C2B 7604   9.467  33.761   8.255
 5897POPC   C3B 7605   9.524  33.767   7.955
 5897POPC   C4B 7606   9.526  33.743   7.655
 5898POPC   NC3 7607  43.888  40.739   9.455
 5898POPC   PO4 7608  43.904  40.739   9.155
 5898POPC   GL1 7609  43.906  40.772   8.855
 5898POPC   GL2 7610  43.821  40.899   8.855
 5898POPC   C1A 7611  43.875  40.802   8.555
 5898POPC   D2A 7612  43.871  40.764   8.255
 5898POPC   C3A 7613  43.875  40.757   7.955
 5898POPC   C4A 7614  43.863  40.780   7.655
 5898POPC   C1B 7615  43.689  40.940   8.555
 5898POPC   C2B 7616  43.740  40.945   8.255
 5898POPC   C3B 7617  43.679  40.971   7.955
 5898POPC   C4B 7618  43.762  41.008   7.655
 5899POPC   NC3 7619   1.985  19.830   9.455
 5899POPC   PO4 7620   2.033  19.831   9.155
 5899POPC   GL1 7621   2.018  19.857   8.855
 5899POPC   GL2 7622   1.929  19.899   8.855
 5899POPC   C1A 7623   2.013  19.820   8.555
 5899POPC   D2A 7624   2.011  19.827   8.255
 5899POPC   C3A 7625   2.018  19.797   7.955
 5899POPC   C4A 7626   1.955  19.847   7.655
 5899POPC   C1B 7627   1.828  19.972   8.555
 5899POPC   C2B 7628   1.819  20.028   8.255
 5899POPC   C3B 7629   1.790  20.009   7.955
 5899POPC   C4B 7630   1.808  20.004   7.655
 5900POPC   NC3 7631   7.446  36.859   9.455
 5900POPC   PO4 7632   7.421  36.859   9.155
 5900POPC   GL1 7633   7.440  36.944   8.855
 5900POPC   GL2 7634   7.480  36.984   8.855
 5900POPC   C1A 7635   7.460  36.905   8.555
 5900POPC   D2A 7636   7.422  36.906   8.255
 5900POPC   C3A 7637   7.462  36.937   7.955
 5900POPC   C4A 7638   7.389  36.928   7.655
 5900POPC   C1B 7639   7.538  37.076   8.555
 5900POPC   C2B 7640   7.536  37.149   8.255
 5900POPC   C3B 7641   7.584  37.068   7.955
 5900POPC   C4B 7642   7.517  37.098   7.655
 5901POPC   NC3 7643   8.942  36.132   9.455
 5901POPC   PO4 7644   8.976  36.133   9.155
 5901POPC   GL1 7645   8.972  36.082   8.855
 5901POPC   GL2 7646   8.973  36.298   8.855
 5901POPC   C1A 7647   8.972  36.149   8.555
 5901POPC   D2A 7648   8.979  36.081   8.255
 5901POPC   C3A 7649   8.928  36.133   7.955
 5901POPC   C4A 7650   8.997  36.095   7.655
 5901POPC   C1B 7651   8.977  36.354   8.555
 5901POPC   C2B 7652   9.030  36.383   8.255
 5901POPC   C3B 7653   8.951  36.397   7.955
 5901POPC   C4B 7654   9.020  36.337   7.655
 5902POPC   NC3 7655   5.093  29.884   9.455
 5902POPC   PO4 7656   5.125  29.968   9.155
 5902POPC   GL1 7657   5.068  29.882   8.855
 5902POPC   GL2 7658   5.091  29.784   8.855
 5902POPC   C1A 7659   5.120  29.962   8.555
 5902POPC   D2A 7660   5.086  29.970   8.255
 5902POPC   C3A 7661   5.094  29.905   7.955
 5902POPC   C4A 7662   5.063  29.887   7.655
 5902POPC   C1B 7663   5.166  29.664   8.555
 5902POPC   C2B 7664   5.155  29.665   8.255
 5902POPC   C3B 7665   5.146  29.656   7.955
 5902POPC   C4B 7666   5.193  29.685   7.655
 5903POPC   NC3 7667   4.288  31.425   9.455
 5903POPC   PO4 7668   4.278  31.449   9.155
 5903POPC   GL1 7669   4.320  31.482   8.855
 5903POPC   GL2 7670   4.259  31.428   8.855
 5903POPC   C1A 7671   4.285  31.469   8.555
 5903POPC   D2A 7672   4.323  31.457   8.255
 5903POPC   C3A 7673   4.307  31.466   7.955
 5903POPC   C4A 7674   4.361  31.492   7.655
 5903POPC   C1B 7675   4.123  31.313   8.555
 5903POPC   C2B 7676   4.131  31.292   8.255
 5903POPC   C3B 7677   4.165  31.272   7.955
 5903POPC   C4B 7678   4.173  31.349   7.655
 5904POPC   NC3 7679  28.331   5.112   9.455
 5904POPC   PO4 7680  28.394   5.061   9.155
 5904POPC   GL1 7681  28.406   5.060   8.855
 5904POPC   GL2 7682  28.529   5.078   8.855
 5904POPC   C1A 7683  28.320   5.094   8.555
 5904POPC   D2A 7684  28.333   5.083   8.255
 5904POPC   C3A 7685  28.371   5.047   7.955
 5904POPC   C4A 7686  28.377   5.131   7.655
 5904POPC   C1B 7687  28.646   5.035   8.555
 5904POPC   C2B 7688  28.576   5.122   8.255
 5904POPC   C3B 7689  28.646   5.108   7.955
 5904POPC   C4B 7690  28.602   5.079   7.655
 5905POPC   NC3 7691  26.860   4.355   9.455
 5905POPC   PO4 7692  26.864   4.341   9.155
 5905POPC   GL1 7693  26.774   4.346   8.855
 5905POPC   GL2 7694  26.721   4.391   8.855
 5905POPC   C1A 7695  26.807   4.344   8.555
 5905POPC   D2A 7696  26.776   4.268   8.255
 5905POPC   C3A 7697  26.796   4.340   7.955
 5905POPC   C4A 7698  26.844   4.274   7.655
 5905POPC   C1B 7699  26.688   4.502   8.555
 5905POPC   C2B 7700  26.715   4.523   8.255
 5905POPC   C3B 7701  26.743   4.538   7.955
 5905POPC   C4B 7702  26.718   4.557   7.655
 5906POPC   NC3 7703  40.826  18.292   9.455
 5906POPC   PO4 7704  40.741  18.312   9.155
 5906POPC   GL1 7705  40.767  18.260   8.855
 5906POPC   GL2 7706  40.938  18.247   8.855
 5906POPC   C1A 7707  40.781  18.274   8.555
 5906POPC   D2A 7708  40.809  18.326   8.255
 5906POPC   C3A 7709  40.782  18.286   7.955
 5906POPC   C4A 7710  40.781  18.316   7.655
 5906POPC   C1B 7711  40.979  18.234   8.555
 5906POPC   C2B 7712  41.052  18.263   8.255
 5906POPC   C3B 7713  41.043  18.204   7.955
 5906POPC   C4B 7714  41.027  18.247   7.655
 5907POPC   NC3 7715  16.708  12.113   9.455
 5907POPC   PO4 7716  16.717  12.065   9.155
 5907POPC   GL1 7717  16.750  12.114   8.855
 5907POPC   GL2 7718  16.679  12.147   8.855
 5907POPC   C1A 7719  16.722  12.053   8.555
 5907POPC   D2A 7720  16.693  12.085   8.255
 5907POPC   C3A 7721  16.711  12.119   7.955
 5907POPC   C4A 7722  16.738  12.108   7.655
 5907POPC   C1B 7723  16.579  12.308   8.555
 5907POPC   C2B 7724  16.635  12.340   8.255
 5907POPC   C3B 7725  16.611  12.304   7.955
 5907POPC   C4B 7726  16.651  12.302   7.655
 5908POPC   NC3 7727   2.777   2.762   9.455
 5908POPC   PO4 7728   2.728   2.813   9.155
 5908POPC   GL1 7729   2.778   2.777   8.855
 5908POPC   GL2 7730   2.708   2.815   8.855
 5908POPC   C1A 7731   2.814   2.737   8.555
 5908POPC   D2A 7732   2.744   2.761   8.255
 5908POPC   C3A 7733   2.775   2.782   7.955
 5908POPC   C4A 7734   2.761   2.729   7.655
 5908POPC   C1B 7735   2.608   2.923   8.555
 5908POPC   C2B 7736   2.615   2.904   8.255
 5908POPC   C3B 7737   2.569   2.966   7.955
 5908POPC   C4B 7738   2.586   2.956   7.655
 5909POPC   NC3 7739   1.977  33.773   9.455
 5909POPC   PO4 7740   1.986  33.844   9.155
 5909POPC   GL1 7741   2.005  33.770   8.855
 5909POPC   GL2 7742   1.874  33.763   8.855
 5909POPC   C1A 7743   1.982  33.807   8.555
 5909POPC   D2A 7744   1.951  33.804   8.255
 5909POPC   C3A 7745   1.996  33.795   7.955
 5909POPC   C4A 7746   2.016  33.849   7.655
 5909POPC   C1B 7747   1.750  33.743   8.555
 5909POPC   C2B 7748   1.752  33.690   8.255
 5909POPC   C3B 7749   1.793  33.731   7.955
 5909POPC   C4B 7750   1.772  33.732   7.655
 5910POPC   NC3 7751  44.614   5.871   9.455
 5910POPC   PO4 7752  44.619   5.889   9.155
 5910POPC   GL1 7753  44.696   5.836   8.855
 5910POPC   GL2 7754  44.776   5.844   8.855
 5910POPC   C1A 7755  44.652   5.872   8.555
 5910POPC   D2A 7756  44.623   5.916   8.255
 5910POPC   C3A 7757  44.637   5.912   7.955
 5910POPC   C4A 7758  44.651   5.899   7.655
 5910POPC   C1B 7759  44.909   5.807   8.555
 5910POPC   C2B 7760  44.867   5.819   8.255
 5910POPC   C3B 7761  44.889   5.789   7.955
 5910POPC   C4B 7762  44.867   5.817   7.655
 5911POPC   NC3 7763  41.524   1.254   9.455
 5911POPC   PO4 7764  41.593   1.202   9.155
 5911POPC   GL1 7765  41.584   1.164   8.855
 5911POPC   GL2 7766  41.580   1.062   8.855
 5911POPC   C1A 7767  41.522   1.167   8.555
 5911POPC   D2A 7768  41.558   1.165   8.255
 5911POPC   C3A 7769  41.541   1.219   7.955
 5911POPC   C4A 7770  41.604   1.244   7.655
 5911POPC   C1B 7771  41.477   0.929   8.555
 5911POPC   C2B 7772  41.515   0.927   8.255
 5911POPC   C3B 7773  41.508   1.001   7.955
 5911POPC   C4B 7774  41.508   1.014   7.655
 5912POPC   NC3 7775  42.308   4.303   9.455
 5912POPC   PO4 7776  42.291   4.339   9.155
 5912POPC   GL1 7777  42.287   4.318   8.855
 5912POPC   GL2 7778  42.358   4.469   8.855
 5912POPC   C1A 7779  42.321   4.293   8.555
 5912POPC   D2A 7780  42.350   4.305   8.255
 5912POPC   C3A 7781  42.308   4.337   7.955
 5912POPC   C4A 7782  42.293   4.296   7.655
 5912POPC   C1B 7783  42.337   4.553   8.555
 5912POPC   C2B 7784  42.345   4.587   8.255
 5912POPC   C3B 7785  42.386   4.566   7.955
 5912POPC   C4B 7786  42.376   4.532   7.655
 5913POPC   NC3 7787  15.198   0.455   9.455
 5913POPC   PO4 7788  15.184   0.482   9.155
 5913POPC   GL1 7789  15.204   0.421   8.855
 5913POPC   GL2 7790  15.198   0.334   8.855
 5913POPC   C1A 7791  15.197   0.402   8.555
 5913POPC   D2A 7792  15.206   0.481   8.255
 5913POPC   C3A 7793  15.202   0.468   7.955
 5913POPC   C4A 7794  15.144   0.392   7.655
 5913POPC   C1B 7795  15.209   0.192   8.555
 5913POPC   C2B 7796  15.237   0.179   8.255
 5913POPC   C3B 7797  15.224   0.211   7.955
 5913POPC   C4B 7798  15.213   0.165   7.655
 5914POPC   NC3 7799   2.742  33.030   9.455
 5914POPC   PO4 7800   2.785  33.030   9.155
 5914POPC   GL1 7801   2.787  33.002   8.855
 5914POPC   GL2 7802   2.656  32.963   8.855
 5914POPC   C1A 7803   2.793  33.058   8.555
 5914POPC   D2A 7804   2.809  33.067   8.255
 5914POPC   C3A 7805   2.814  32.974   7.955
 5914POPC   C4A 7806   2.766  33.022   7.655
 5914POPC   C1B 7807   2.583  32.877   8.555
 5914POPC   C2B 7808   2.575  32.867   8.255
 5914POPC   C3B 7809   2.510  32.931   7.955
 5914POPC   C4B 7810   2.536  32.894   7.655
 5915POPC   NC3 7811   2.013   3.545   9.455
 5915POPC   PO4 7812   1.980   3.586   9.155
 5915POPC   GL1 7813   2.016   3.529   8.855
 5915POPC   GL2 7814   2.028   3.676   8.855
 5915POPC   C1A 7815   1.970   3.557   8.555
 5915POPC   D2A 7816   2.036   3.575   8.255
 5915POPC   C3A 7817   1.951   3.495   7.955
 5915POPC   C4A 7818   1.959   3.500   7.655
 5915POPC   C1B 7819   2.162   3.766   8.555
 5915POPC   C2B 7820   2.099   3.715   8.255
 5915POPC   C3B 7821   2.127   3.729   7.955
 5915POPC   C4B 7822   2.138   3.766   7.655
 5916POPC   NC3 7823  12.840   2.743   9.455
 5916POPC   PO4 7824  12.817   2.767   9.155
 5916POPC   GL1 7825  12.810   2.806   8.855
 5916POPC   GL2 7826  12.752   2.719   8.855
 5916POPC   C1A 7827  12.896   2.718   8.555
 5916POPC   D2A 7828  12.900   2.760   8.255
 5916POPC   C3A 7829  12.845   2.814   7.955
 5916POPC   C4A 7830  12.882   2.741   7.655
 5916POPC   C1B 7831  12.614   2.702   8.555
 5916POPC   C2B 7832  12.654   2.740   8.255
 5916POPC   C3B 7833  12.573   2.684   7.955
 5916POPC   C4B 7834  12.573   2.740   7.655
 5917POPC   NC3 7835  42.384  37.638   9.455
 5917POPC   PO4 7836  42.309  37.653   9.155
 5917POPC   GL1 7837  42.384  37.647   8.855
 5917POPC   GL2 7838  42.270  37.562   8.855
 5917POPC   C1A 7839  42.367  37.632   8.555
 5917POPC   D2A 7840  42.380  37.675   8.255
 5917POPC   C3A 7841  42.352  37.633   7.955
 5917POPC   C4A 7842  42.310  37.645   7.655
 5917POPC   C1B 7843  42.281  37.451   8.555
 5917POPC   C2B 7844  42.262  37.391   8.255
 5917POPC   C3B 7845  42.327  37.448   7.955
 5917POPC   C4B 7846  42.287  37.439   7.655
 5918POPC   NC3 7847  32.268   1.238   9.455
 5918POPC   PO4 7848  32.203   1.188   9.155
 5918POPC   GL1 7849  32.246   1.215   8.855
 5918POPC   GL2 7850  32.183   1.318   8.855
 5918POPC   C1A 7851  32.202   1.246   8.555
 5918POPC   D2A 7852  32.266   1.246   8.255
 5918POPC   C3A 7853  32.208   1.195   7.955
 5918POPC   C4A 7854  32.243   1.171   7.655
 5918POPC   C1B 7855  32.100   1.388   8.555
 5918POPC   C2B 7856  32.042   1.419   8.255
 5918POPC   C3B 7857  32.071   1.423   7.955
 5918POPC   C4B 7858  32.044   1.412   7.655
 5919POPC   NC3 7859  43.122  36.931   9.455
 5919POPC   PO4 7860  43.110  36.893   9.155
 5919POPC   GL1 7861  43.133  36.903   8.855
 5919POPC   GL2 7862  43.119  37.069   8.855
 5919POPC   C1A 7863  43.067  36.854   8.555
 5919POPC   D2A 7864  43.119  36.876   8.255
 5919POPC   C3A 7865  43.070  36.941   7.955
 5919POPC   C4A 7866  43.067  36.872   7.655
 5919POPC   C1B 7867  43.171  37.131   8.555
 5919POPC   C2B 7868  43.184  37.117   8.255
 5919POPC   C3B 7869  43.173  37.169   7.955
 5919POPC   C4B 7870  43.222  37.102   7.655
 5920POPC   NC3 7871  28.326  10.482   9.455
 5920POPC   PO4 7872  28.392  10.536   9.155
 5920POPC   GL1 7873  28.349  10.475   8.855
 5920POPC   GL2 7874  28.443  10.446   8.855
 5920POPC   C1A 7875  28.347  10.483   8.555
 5920POPC   D2A 7876  28.388  10.548   8.255
 5920POPC   C3A 7877  28.418  10.567   7.955
 5920POPC   C4A 7878  28.391  10.495   7.655
 5920POPC   C1B 7879  28.557  10.429   8.555
 5920POPC   C2B 7880  28.554  10.339   8.255
 5920POPC   C3B 7881  28.550  10.381   7.955
 5920POPC   C4B 7882  28.541  10.426   7.655
 5921POPC   NC3 7883  42.342  18.285   9.455
 5921POPC   PO4 7884  42.347  18.253   9.155
 5921POPC   GL1 7885  42.315  18.237   8.855
 5921POPC   GL2 7886  42.233  18.205   8.855
 5921POPC   C1A 7887  42.375  18.274   8.555
 5921POPC   D2A 7888  42.365  18.327   8.255
 5921POPC   C3A 7889  42.381  18.269   7.955
 5921POPC   C4A 7890  42.331  18.254   7.655
 5921POPC   C1B 7891  42.088  18.271   8.555
 5921POPC   C2B 7892  42.110  18.217   8.255
 5921POPC   C3B 7893  42.093  18.256   7.955
 5921POPC   C4B 7894  42.126  18.255   7.655
 5922POPC   NC3 7895  27.596  43.866   9.455
 5922POPC   PO4 7896  27.621  43.908   9.155
 5922POPC   GL1 7897  27.611  43.902   8.855
 5922POPC   GL2 7898  27.567  43.756   8.855
 5922POPC   C1A 7899  27.618  43.899   8.555
 5922POPC   D2A 7900  27.557  43.856   8.255
 5922POPC   C3A 7901  27.583  43.883   7.955
 5922POPC   C4A 7902  27.631  43.886   7.655
 5922POPC   C1B 7903  27.492  43.653   8.555
 5922POPC   C2B 7904  27.576  43.678   8.255
 5922POPC   C3B 7905  27.498  43.678   7.955
 5922POPC   C4B 7906  27.588  43.680   7.655
 5923POPC   NC3 7907  41.570  38.497   9.455
 5923POPC   PO4 7908  41.527  38.426   9.155
 5923POPC   GL1 7909  41.537  38.482   8.855
 5923POPC   GL2 7910  41.600  38.316   8.855
 5923POPC   C1A 7911  41.553  38.504   8.555
 5923POPC   D2A 7912  41.532  38.447   8.255
 5923POPC   C3A 7913  41.573  38.432   7.955
 5923POPC   C4A 7914  41.556  38.426   7.655
 5923POPC   C1B 7915  41.721  38.272   8.555
 5923POPC   C2B 7916  41.703  38.251   8.255
 5923POPC   C3B 7917  41.664  38.244   7.955
 5923POPC   C4B 7918  41.725  38.228   7.655
 5924POPC   NC3 7919  15.195   1.243   9.455
 5924POPC   PO4 7920  15.214   1.236   9.155
 5924POPC   GL1 7921  15.147   1.246   8.855
 5924POPC   GL2 7922  15.117   1.165   8.855
 5924POPC   C1A 7923  15.165   1.215   8.555
 5924POPC   D2A 7924  15.157   1.224   8.255
 5924POPC   C3A 7925  15.178   1.202   7.955
 5924POPC   C4A 7926  15.137   1.238   7.655
 5924POPC   C1B 7927  15.024   1.026   8.555
 5924POPC   C2B 7928  14.974   1.037   8.255
 5924POPC   C3B 7929  14.973   0.992   7.955
 5924POPC   C4B 7930  15.013   1.026   7.655
 5925POPC   NC3 7931  40.001  36.117   9.455
 5925POPC   PO4 7932  40.011  36.099   9.155
 5925POPC   GL1 7933  40.049  36.149   8.855
 5925POPC   GL2 7934  40.064  36.023   8.855
 5925POPC   C1A 7935  40.029  36.135   8.555
 5925POPC   D2A 7936  40.020  36.089   8.255
 5925POPC   C3A 7937  40.017  36.123   7.955
 5925POPC   C4A 7938  39.992  36.146   7.655
 5925POPC   C1B 7939  40.087  35.899   8.555
 5925POPC   C2B 7940  40.099  35.948   8.255
 5925POPC   C3B 7941  40.135  35.873   7.955
 5925POPC   C4B 7942  40.144  35.891   7.655
 5926POPC   NC3 7943  16.717  23.677   9.455
 5926POPC   PO4 7944  16.719  23.681   9.155
 5926POPC   GL1 7945  16.777  23.679   8.855
 5926POPC   GL2 7946  16.758  23.576   8.855
 5926POPC   C1A 7947  16.690  23.752   8.555
 5926POPC   D2A 7948  16.710  23.720   8.255
 5926POPC   C3A 7949  16.781  23.735   7.955
 5926POPC   C4A 7950  16.748  23.690   7.655
 5926POPC   C1B 7951  16.871  23.529   8.555
 5926POPC   C2B 7952  16.850  23.506   8.255
 5926POPC   C3B 7953  16.903  23.552   7.955
 5926POPC   C4B 7954  16.889  23.546   7.655
 5927POPC   NC3 7955  18.298  30.663   9.455
 5927POPC   PO4 7956  18.313  30.691   9.155
 5927POPC   GL1 7957  18.306  30.683   8.855
 5927POPC   GL2 7958  18.268  30.606   8.855
 5927POPC   C1A 7959  18.283  30.653   8.555
 5927POPC   D2A 7960  18.290  30.667   8.255
 5927POPC   C3A 7961  18.244  30.672   7.955
 5927POPC   C4A 7962  18.239  30.658   7.655
 5927POPC   C1B 7963  18.317  30.419   8.555
 5927POPC   C2B 7964  18.278  30.447   8.255
 5927POPC   C3B 7965  18.287  30.399   7.955
 5927POPC   C4B 7966  18.246  30.421   7.655
 5928POPC   NC3 7967  32.281  42.295   9.455
 5928POPC   PO4 7968  32.282  42.343   9.155
 5928POPC   GL1 7969  32.228  42.307   8.855
 5928POPC   GL2 7970  32.391  42.342   8.855
 5928POPC   C1A 7971  32.296  42.375   8.555
 5928POPC   D2A 7972  32.214  42.327   8.255
 5928POPC   C3A 7973  32.230  42.288   7.955
 5928POPC   C4A 7974  32.277  42.309   7.655
 5928POPC   C1B 7975  32.486  42.303   8.555
 5928POPC   C2B 7976  32.476  42.294   8.255
 5928POPC   C3B 7977  32.507  42.263   7.955
 5928POPC   C4B 7978  32.439  42.240   7.655
 5929POPC   NC3 7979  29.144  27.567   9.455
 5929POPC   PO4 7980  29.168  27.567   9.155
 5929POPC   GL1 7981  29.123  27.634   8.855
 5929POPC   GL2 7982  29.180  27.756   8.855
 5929POPC   C1A 7983  29.175  27.634   8.555
 5929POPC   D2A 7984  29.142  27.581   8.255
 5929POPC   C3A 7985  29.177  27.556   7.955
 5929POPC   C4A 7986  29.192  27.547   7.655
 5929POPC   C1B 7987  29.219  27.842   8.555
 5929POPC   C2B 7988  29.239  27.813   8.255
 5929POPC   C3B 7989  29.179  27.856   7.955
 5929POPC   C4B 7990  29.239  27.841   7.655
 5930POPC   NC3 7991  13.649   1.945   9.455
 5930POPC   PO4 7992  13.675   1.993   9.155
 5930POPC   GL1 7993  13.606   2.019   8.855
 5930POPC   GL2 7994  13.586   2.097   8.855
 5930POPC   C1A 7995  13.591   1.985   8.555
 5930POPC   D2A 7996  13.656   2.023   8.255
 5930POPC   C3A 7997  13.630   2.023   7.955
 5930POPC   C4A 7998  13.608   1.959   7.655
 5930POPC   C1B 7999  13.618   2.261   8.555
 5930POPC   C2B 8000  13.557   2.211   8.255
 5930POPC   C3B 8001  13.595   2.187   7.955
 5930POPC   C4B 8002  13.527   2.273   7.655
 5931POPC   NC3 8003   0.467   6.612   9.455
 5931POPC   PO4 8004   0.487   6.652   9.155
 5931POPC   GL1 8005   0.455   6.634   8.855
 5931POPC   GL2 8006   0.557   6.578   8.855
 5931POPC   C1A 8007   0.441   6.640   8.555
 5931POPC   D2A 8008   0.485   6.598   8.255
 5931POPC   C3A 8009   0.445   6.610   7.955
 5931POPC   C4A 8010   0.441   6.639   7.655
 5931POPC   C1B 8011   0.669   6.447   8.555
 5931POPC   C2B 8012   0.585   6.444   8.255
 5931POPC   C3B 8013   0.650   6.455   7.955
 5931POPC   C4B 8014   0.676   6.465   7.655
 5932POPC   NC3 8015  35.311  37.667   9.455
 5932POPC   PO4 8016  35.366  37.629   9.155
 5932POPC   GL1 8017  35.360  37.679   8.855
 5932POPC   GL2 8018  35.297  37.781   8.855
 5932POPC   C1A 8019  35.336  37.703   8.555
 5932POPC   D2A 8020  35.375  37.696   8.255
 5932POPC   C3A 8021  35.342  37.681   7.955
 5932POPC   C4A 8022  35.328  37.700   7.655
 5932POPC   C1B 8023  35.339  37.893   8.555
 5932POPC   C2B 8024  35.301  37.918   8.255
 5932POPC   C3B 8025  35.362  37.959   7.955
 5932POPC   C4B 8026  35.282  37.902   7.655
 5933POPC   NC3 8027  21.351  36.931   9.455
 5933POPC   PO4 8028  21.350  36.944   9.155
 5933POPC   GL1 8029  21.346  36.909   8.855
 5933POPC   GL2 8030  21.345  36.985   8.855
 5933POPC   C1A 8031  21.410  36.930   8.555
 5933POPC   D2A 8032  21.357  36.869   8.255
 5933POPC   C3A 8033  21.423  36.918   7.955
 5933POPC   C4A 8034  21.379  36.893   7.655
 5933POPC   C1B 8035  21.208  37.086   8.555
 5933POPC   C2B 8036  21.220  37.073   8.255
 5933POPC   C3B 8037  21.265  37.128   7.955
 5933POPC   C4B 8038  21.213  37.121   7.655
 5934POPC   NC3 8039  25.252   7.436   9.455
 5934POPC   PO4 8040  25.291   7.422   9.155
 5934POPC   GL1 8041  25.271   7.414   8.855
 5934POPC   GL2 8042  25.266   7.309   8.855
 5934POPC   C1A 8043  25.298   7.456   8.555
 5934POPC   D2A 8044  25.266   7.394   8.255
 5934POPC   C3A 8045  25.242   7.432   7.955
 5934POPC   C4A 8046  25.268   7.394   7.655
 5934POPC   C1B 8047  25.261   7.205   8.555
 5934POPC   C2B 8048  25.271   7.145   8.255
 5934POPC   C3B 8049  25.332   7.133   7.955
 5934POPC   C4B 8050  25.257   7.126   7.655
 5935POPC   NC3 8051  15.919   1.174   9.455
 5935POPC   PO4 8052  15.944   1.169   9.155
 5935POPC   GL1 8053  15.906   1.175   8.855
 5935POPC   GL2 8054  15.982   1.310   8.855
 5935POPC   C1A 8055  15.971   1.185   8.555
 5935POPC   D2A 8056  16.001   1.196   8.255
 5935POPC   C3A 8057  15.983   1.221   7.955
 5935POPC   C4A 8058  15.940   1.252   7.655
 5935POPC   C1B 8059  16.008   1.443   8.555
 5935POPC   C2B 8060  16.053   1.424   8.255
 5935POPC   C3B 8061  15.976   1.476   7.955
 5935POPC   C4B 8062  15.978   1.417   7.655
 5936POPC   NC3 8063  35.313   4.318   9.455
 5936POPC   PO4 8064  35.354   4.276   9.155
 5936POPC   GL1 8065  35.338   4.299   8.855
 5936POPC   GL2 8066  35.373   4.476   8.855
 5936POPC   C1A 8067  35.329   4.310   8.555
 5936POPC   D2A 8068  35.401   4.315   8.255
 5936POPC   C3A 8069  35.396   4.334   7.955
 5936POPC   C4A 8070  35.351   4.303   7.655
 5936POPC   C1B 8071  35.358   4.588   8.555
 5936POPC   C2B 8072  35.393   4.545   8.255
 5936POPC   C3B 8073  35.392   4.600   7.955
 5936POPC   C4B 8074  35.435   4.593   7.655
 5937POPC   NC3 8075   9.797  16.742   9.455
 5937POPC   PO4 8076   9.752  16.732   9.155
 5937POPC   GL1 8077   9.795  16.724   8.855
 5937POPC   GL2 8078   9.833  16.640   8.855
 5937POPC   C1A 8079   9.746  16.707   8.555
 5937POPC   D2A 8080   9.761  16.691   8.255
 5937POPC   C3A 8081   9.765  16.763   7.955
 5937POPC   C4A 8082   9.707  16.719   7.655
 5937POPC   C1B 8083   9.926  16.592   8.555
 5937POPC   C2B 8084   9.970  16.560   8.255
 5937POPC   C3B 8085   9.951  16.534   7.955
 5937POPC   C4B 8086   9.901  16.568   7.655
 5938POPC   NC3 8087  31.496   3.497   9.455
 5938POPC   PO4 8088  31.451   3.538   9.155
 5938POPC   GL1 8089  31.498   3.577   8.855
 5938POPC   GL2 8090  31.547   3.520   8.855
 5938POPC   C1A 8091  31.514   3.493   8.555
 5938POPC   D2A 8092  31.440   3.493   8.255
 5938POPC   C3A 8093  31.451   3.586   7.955
 5938POPC   C4A 8094  31.491   3.512   7.655
 5938POPC   C1B 8095  31.688   3.513   8.555
 5938POPC   C2B 8096  31.703   3.515   8.255
 5938POPC   C3B 8097  31.753   3.550   7.955
 5938POPC   C4B 8098  31.730   3.491   7.655
 5939POPC   NC3 8099  16.690  15.181   9.455
 5939POPC   PO4 8100  16.693  15.140   9.155
 5939POPC   GL1 8101  16.757  15.208   8.855
 5939POPC   GL2 8102  16.604  15.219   8.855
 5939POPC   C1A 8103  16.779  15.156   8.555
 5939POPC   D2A 8104  16.775  15.170   8.255
 5939POPC   C3A 8105  16.732  15.194   7.955
 5939POPC   C4A 8106  16.740  15.227   7.655
 5939POPC   C1B 8107  16.538  15.295   8.555
 5939POPC   C2B 8108  16.512  15.291   8.255
 5939POPC   C3B 8109  16.486  15.243   7.955
 5939POPC   C4B 8110  16.545  15.297   7.655
 5940POPC   NC3 8111  13.592   6.641   9.455
 5940POPC   PO4 8112  13.638   6.686   9.155
 5940POPC   GL1 8113  13.642   6.617   8.855
 5940POPC   GL2 8114  13.476   6.643   8.855
 5940POPC   C1A 8115  13.617   6.610   8.555
 5940POPC   D2A 8116  13.593   6.630   8.255
 5940POPC   C3A 8117  13.640   6.658   7.955
 5940POPC   C4A 8118  13.659   6.645   7.655
 5940POPC   C1B 8119  13.425   6.613   8.555
 5940POPC   C2B 8120  13.388   6.665   8.255
 5940POPC   C3B 8121  13.403   6.649   7.955
 5940POPC   C4B 8122  13.349   6.656   7.655
 5941POPC   NC3 8123  19.835  17.555   9.455
 5941POPC   PO4 8124  19.846  17.527   9.155
 5941POPC   GL1 8125  19.835  17.504   8.855
 5941POPC   GL2 8126  19.948  17.550   8.855
 5941POPC   C1A 8127  19.862  17.520   8.555
 5941POPC   D2A 8128  19.883  17.506   8.255
 5941POPC   C3A 8129  19.868  17.547   7.955
 5941POPC   C4A 8130  19.846  17.487   7.655
 5941POPC   C1B 8131  20.092  17.580   8.555
 5941POPC   C2B 8132  20.037  17.531   8.255
 5941POPC   C3B 8133  20.086  17.557   7.955
 5941POPC   C4B 8134  20.061  17.581   7.655
 5942POPC   NC3 8135   7.457   7.445   9.455
 5942POPC   PO4 8136   7.421   7.397   9.155
 5942POPC   GL1 8137   7.420   7.411   8.855
 5942POPC   GL2 8138   7.496   7.442   8.855
 5942POPC   C1A 8139   7.386   7.398   8.555
 5942POPC   D2A 8140   7.431   7.446   8.255
 5942POPC   C3A 8141   7.442   7.409   7.955
 5942POPC   C4A 8142   7.448   7.394   7.655
 5942POPC   C1B 8143   7.707   7.452   8.555
 5942POPC   C2B 8144   7.681   7.500   8.255
 5942POPC   C3B 8145   7.709   7.521   7.955
 5942POPC   C4B 8146   7.640   7.440   7.655
 5943POPC   NC3 8147  44.699  12.875   9.455
 5943POPC   PO4 8148  44.621  12.822   9.155
 5943POPC   GL1 8149  44.614  12.878   8.855
 5943POPC   GL2 8150  44.506  12.857   8.855
 5943POPC   C1A 8151  44.634  12.827   8.555
 5943POPC   D2A 8152  44.619  12.901   8.255
 5943POPC   C3A 8153  44.617  12.803   7.955
 5943POPC   C4A 8154  44.634  12.854   7.655
 5943POPC   C1B 8155  44.420  12.778   8.555
 5943POPC   C2B 8156  44.433  12.812   8.255
 5943POPC   C3B 8157  44.456  12.782   7.955
 5943POPC   C4B 8158  44.458  12.771   7.655
 5944POPC   NC3 8159  12.881   4.353   9.455
 5944POPC   PO4 8160  12.874   4.312   9.155
 5944POPC   GL1 8161  12.892   4.299   8.855
 5944POPC   GL2 8162  12.760   4.390   8.855
 5944POPC   C1A 8163  12.845   4.334   8.555
 5944POPC   D2A 8164  12.827   4.339   8.255
 5944POPC   C3A 8165  12.872   4.335   7.955
 5944POPC   C4A 8166  12.843   4.312   7.655
 5944POPC   C1B 8167  12.567   4.316   8.555
 5944POPC   C2B 8168  12.595   4.384   8.255
 5944POPC   C3B 8169  12.623   4.387   7.955
 5944POPC   C4B 8170  12.614   4.383   7.655
 5945POPC   NC3 8171   5.819   8.151   9.455
 5945POPC   PO4 8172   5.820   8.165   9.155
 5945POPC   GL1 8173   5.855   8.230   8.855
 5945POPC   GL2 8174   5.916   8.140   8.855
 5945POPC   C1A 8175   5.903   8.220   8.555
 5945POPC   D2A 8176   5.896   8.218   8.255
 5945POPC   C3A 8177   5.911   8.218   7.955
 5945POPC   C4A 8178   5.871   8.227   7.655
 5945POPC   C1B 8179   6.029   7.974   8.555
 5945POPC   C2B 8180   6.065   8.029   8.255
 5945POPC   C3B 8181   6.054   8.008   7.955
 5945POPC   C4B 8182   6.068   8.040   7.655
 5946POPC   NC3 8183   4.335  17.509   9.455
 5946POPC   PO4 8184   4.274  17.458   9.155
 5946POPC   GL1 8185   4.306  17.536   8.855
 5946POPC   GL2 8186   4.233  17.399   8.855
 5946POPC   C1A 8187   4.284  17.471   8.555
 5946POPC   D2A 8188   4.339  17.475   8.255
 5946POPC   C3A 8189   4.340  17.520   7.955
 5946POPC   C4A 8190   4.269  17.527   7.655
 5946POPC   C1B 8191   4.176  17.320   8.555
 5946POPC   C2B 8192   4.147  17.292   8.255
 5946POPC   C3B 8193   4.116  17.341   7.955
 5946POPC   C4B 8194   4.193  17.323   7.655
 5947POPC   NC3 8195   8.962  35.398   9.455
 5947POPC   PO4 8196   8.994  35.360   9.155
 5947POPC   GL1 8197   8.936  35.364   8.855
 5947POPC   GL2 8198   8.881  35.378   8.855
 5947POPC   C1A 8199   8.961  35.392   8.555
 5947POPC   D2A 8200   9.022  35.398   8.255
 5947POPC   C3A 8201   8.957  35.311   7.955
 5947POPC   C4A 8202   8.998  35.309   7.655
 5947POPC   C1B 8203   8.742  35.516   8.555
 5947POPC   C2B 8204   8.774  35.462   8.255
 5947POPC   C3B 8205   8.803  35.520   7.955
 5947POPC   C4B 8206   8.784  35.510   7.655
 5948POPC   NC3 8207  25.995  41.551   9.455
 5948POPC   PO4 8208  26.061  41.574   9.155
 5948POPC   GL1 8209  26.031  41.594   8.855
 5948POPC   GL2 8210  25.898  41.603   8.855
 5948POPC   C1A 8211  26.082  41.562   8.555
 5948POPC   D2A 8212  26.075  41.530   8.255
 5948POPC   C3A 8213  26.028  41.513   7.955
 5948POPC   C4A 8214  26.073  41.561   7.655
 5948POPC   C1B 8215  25.811  41.538   8.555
 5948POPC   C2B 8216  25.812  41.602   8.255
 5948POPC   C3B 8217  25.760  41.627   7.955
 5948POPC   C4B 8218  25.811  41.576   7.655
 5949POPC   NC3 8219  39.243   1.242   9.455
 5949POPC   PO4 8220  39.280   1.261   9.155
 5949POPC   GL1 8221  39.196   1.186   8.855
 5949POPC   GL2 8222  39.268   1.329   8.855
 5949POPC   C1A 8223  39.278   1.216   8.555
 5949POPC   D2A 8224  39.281   1.236   8.255
 5949POPC   C3A 8225  39.183   1.251   7.955
 5949POPC   C4A 8226  39.265   1.211   7.655
 5949POPC   C1B 8227  39.268   1.503   8.555
 5949POPC   C2B 8228  39.324   1.479   8.255
 5949POPC   C3B 8229  39.311   1.453   7.955
 5949POPC   C4B 8230  39.324   1.480   7.655
 5950POPC   NC3 8231  27.622   7.376   9.455
 5950POPC   PO4 8232  27.593   7.393   9.155
 5950POPC   GL1 8233  27.638   7.389   8.855
 5950POPC   GL2 8234  27.497   7.338   8.855
 5950POPC   C1A 8235  27.632   7.405   8.555
 5950POPC   D2A 8236  27.612   7.385   8.255
 5950POPC   C3A 8237  27.618   7.378   7.955
 5950POPC   C4A 8238  27.640   7.430   7.655
 5950POPC   C1B 8239  27.349   7.354   8.555
 5950POPC   C2B 8240  27.370   7.284   8.255
 5950POPC   C3B 8241  27.409   7.322   7.955
 5950POPC   C4B 8242  27.335   7.288   7.655
 5951POPC   NC3 8243  31.478   7.405   9.455
 5951POPC   PO4 8244  31.446   7.441   9.155
 5951POPC   GL1 8245  31.470   7.414   8.855
 5951POPC   GL2 8246  31.373   7.484   8.855
 5951POPC   C1A 8247  31.469   7.453   8.555
 5951POPC   D2A 8248  31.515   7.437   8.255
 5951POPC   C3A 8249  31.517   7.434   7.955
 5951POPC   C4A 8250  31.431   7.393   7.655
 5951POPC   C1B 8251  31.211   7.514   8.555
 5951POPC   C2B 8252  31.266   7.541   8.255
 5951POPC   C3B 8253  31.285   7.505   7.955
 5951POPC   C4B 8254  31.248   7.490   7.655
 5952POPC   NC3 8255  39.214  39.268   9.455
 5952POPC   PO4 8256  39.272  39.238   9.155
 5952POPC   GL1 8257  39.198  39.229   8.855
 5952POPC   GL2 8258  39.225  39.150   8.855
 5952POPC   C1A 8259  39.249  39.234   8.555
 5952POPC   D2A 8260  39.258  39.214   8.255
 5952POPC   C3A 8261  39.223  39.270   7.955
 5952POPC   C4A 8262  39.257  39.185   7.655
 5952POPC   C1B 8263  39.128  39.014   8.555
 5952POPC   C2B 8264  39.165  38.967   8.255
 5952POPC   C3B 8265  39.130  39.018   7.955
 5952POPC   C4B 8266  39.194  39.015   7.655
 5953POPC   NC3 8267  28.400  40.791   9.455
 5953POPC   PO4 8268  28.379  40.781   9.155
 5953POPC   GL1 8269  28.409  40.797   8.855
 5953POPC   GL2 8270  28.400  40.706   8.855
 5953POPC   C1A 8271  28.371  40.780   8.555
 5953POPC   D2A 8272  28.376  40.829   8.255
 5953POPC   C3A 8273  28.329  40.824   7.955
 5953POPC   C4A 8274  28.401  40.791   7.655
 5953POPC   C1B 8275  28.412  40.572   8.555
 5953POPC   C2B 8276  28.382  40.495   8.255
 5953POPC   C3B 8277  28.470  40.530   7.955
 5953POPC   C4B 8278  28.430  40.507   7.655
 5954POPC   NC3 8279  43.119  25.307   9.455
 5954POPC   PO4 8280  43.112  25.249   9.155
 5954POPC   GL1 8281  43.100  25.278   8.855
 5954POPC   GL2 8282  43.185  25.226   8.855
 5954POPC   C1A 8283  43.123  25.257   8.555
 5954POPC   D2A 8284  43.137  25.313   8.255
 5954POPC   C3A 8285  43.103  25.293   7.955
 5954POPC   C4A 8286  43.090  25.251   7.655
 5954POPC   C1B 8287  43.378  25.253   8.555
 5954POPC   C2B 8288  43.407  25.212   8.255
 5954POPC   C3B 8289  43.309  25.255   7.955
 5954POPC   C4B 8290  43.312  25.242   7.655
 5955POPC   NC3 8291   0.407  31.472   9.455
 5955POPC   PO4 8292   0.435  31.434   9.155
 5955POPC   GL1 8293   0.405  31.467   8.855
 5955POPC   GL2 8294   0.559  31.445   8.855
 5955POPC   C1A 8295   0.445  31.463   8.555
 5955POPC   D2A 8296   0.399  31.515   8.255
 5955POPC   C3A 8297   0.391  31.488   7.955
 5955POPC   C4A 8298   0.472  31.503   7.655
 5955POPC   C1B 8299   0.710  31.361   8.555
 5955POPC   C2B 8300   0.681  31.367   8.255
 5955POPC   C3B 8301   0.643  31.372   7.955
 5955POPC   C4B 8302   0.718  31.412   7.655
 5956POPC   NC3 8303  17.507   2.760   9.455
 5956POPC   PO4 8304  17.485   2.770   9.155
 5956POPC   GL1 8305  17.517   2.797   8.855
 5956POPC   GL2 8306  17.540   2.881   8.855
 5956POPC   C1A 8307  17.539   2.764   8.555
 5956POPC   D2A 8308  17.488   2.789   8.255
 5956POPC   C3A 8309  17.521   2.786   7.955
 5956POPC   C4A 8310  17.504   2.753   7.655
 5956POPC   C1B 8311  17.621   2.967   8.555
 5956POPC   C2B 8312  17.638   2.968   8.255
 5956POPC   C3B 8313  17.657   2.966   7.955
 5956POPC   C4B 8314  17.620   3.019   7.655
 5957POPC   NC3 8315  39.207  19.020   9.455
 5957POPC   PO4 8316  39.281  19.089   9.155
 5957POPC   GL1 8317  39.208  19.040   8.855
 5957POPC   GL2 8318  39.195  18.958   8.855
 5957POPC   C1A 8319  39.227  19.100   8.555
 5957POPC   D2A 8320  39.201  19.030   8.255
 5957POPC   C3A 8321  39.277  19.096   7.955
 5957POPC   C4A 8322  39.235  19.042   7.655
 5957POPC   C1B 8323  39.163  18.871   8.555
 5957POPC   C2B 8324  39.140  18.887   8.255
 5957POPC   C3B 8325  39.115  18.823   7.955
 5957POPC   C4B 8326  39.155  18.844   7.655
 5958POPC   NC3 8327  33.841  12.833   9.455
 5958POPC   PO4 8328  33.765  12.897   9.155
 5958POPC   GL1 8329  33.834  12.878   8.855
 5958POPC   GL2 8330  33.853  12.748   8.855
 5958POPC   C1A 8331  33.807  12.888   8.555
 5958POPC   D2A 8332  33.813  12.889   8.255
 5958POPC   C3A 8333  33.842  12.825   7.955
 5958POPC   C4A 8334  33.802  12.899   7.655
 5958POPC   C1B 8335  33.915  12.629   8.555
 5958POPC   C2B 8336  33.901  12.631   8.255
 5958POPC   C3B 8337  33.963  12.640   7.955
 5958POPC   C4B 8338  33.931  12.659   7.655
 5959POPC   NC3 8339  30.662   1.224   9.455
 5959POPC   PO4 8340  30.685   1.193   9.155
 5959POPC   GL1 8341  30.684   1.191   8.855
 5959POPC   GL2 8342  30.602   1.214   8.855
 5959POPC   C1A 8343  30.744   1.222   8.555
 5959POPC   D2A 8344  30.710   1.206   8.255
 5959POPC   C3A 8345  30.685   1.230   7.955
 5959POPC   C4A 8346  30.666   1.218   7.655
 5959POPC   C1B 8347  30.403   1.172   8.555
 5959POPC   C2B 8348  30.447   1.180   8.255
 5959POPC   C3B 8349  30.417   1.246   7.955
 5959POPC   C4B 8350  30.489   1.203   7.655
 5960POPC   NC3 8351  16.748   2.025   9.455
 5960POPC   PO4 8352  16.702   1.973   9.155
 5960POPC   GL1 8353  16.725   2.012   8.855
 5960POPC   GL2 8354  16.720   2.076   8.855
 5960POPC   C1A 8355  16.760   2.007   8.555
 5960POPC   D2A 8356  16.720   1.963   8.255
 5960POPC   C3A 8357  16.721   1.979   7.955
 5960POPC   C4A 8358  16.690   2.024   7.655
 5960POPC   C1B 8359  16.662   2.247   8.555
 5960POPC   C2B 8360  16.662   2.231   8.255
 5960POPC   C3B 8361  16.708   2.212   7.955
 5960POPC   C4B 8362  16.696   2.223   7.655
 5961POPC   NC3 8363  22.948  40.819   9.455
 5961POPC   PO4 8364  22.952  40.805   9.155
 5961POPC   GL1 8365  22.977  40.782   8.855
 5961POPC   GL2 8366  23.064  40.739   8.855
 5961POPC   C1A 8367  22.893  40.822   8.555
 5961POPC   D2A 8368  22.977  40.771   8.255
 5961POPC   C3A 8369  22.922  40.749   7.955
 5961POPC   C4A 8370  22.974  40.828   7.655
 5961POPC   C1B 8371  23.211  40.812   8.555
 5961POPC   C2B 8372  23.173  40.745   8.255
 5961POPC   C3B 8373  23.180  40.756   7.955
 5961POPC   C4B 8374  23.180  40.839   7.655
 5962POPC   NC3 8375  25.995   4.282   9.455
 5962POPC   PO4 8376  26.023   4.300   9.155
 5962POPC   GL1 8377  26.003   4.284   8.855
 5962POPC   GL2 8378  26.086   4.243   8.855
 5962POPC   C1A 8379  26.057   4.295   8.555
 5962POPC   D2A 8380  26.039   4.354   8.255
 5962POPC   C3A 8381  25.993   4.345   7.955
 5962POPC   C4A 8382  26.019   4.350   7.655
 5962POPC   C1B 8383  26.185   4.087   8.555
 5962POPC   C2B 8384  26.133   4.146   8.255
 5962POPC   C3B 8385  26.170   4.134   7.955
 5962POPC   C4B 8386  26.171   4.125   7.655
 5963POPC   NC3 8387   2.028  11.342   9.455
 5963POPC   PO4 8388   1.940  11.346   9.155
 5963POPC   GL1 8389   1.987  11.286   8.855
 5963POPC   GL2 8390   2.002  11.142   8.855
 5963POPC   C1A 8391   1.986  11.324   8.555
 5963POPC   D2A 8392   1.960  11.290   8.255
 5963POPC   C3A 8393   1.990  11.327   7.955
 5963POPC   C4A 8394   1.949  11.334   7.655
 5963POPC   C1B 8395   2.044  11.077   8.555
 5963POPC   C2B 8396   2.066  11.043   8.255
 5963POPC   C3B 8397   2.092  11.074   7.955
 5963POPC   C4B 8398   2.024  11.093   7.655
 5964POPC   NC3 8399  32.217  41.533   9.455
 5964POPC   PO4 8400  32.240  41.573   9.155
 5964POPC   GL1 8401  32.237  41.605   8.855
 5964POPC   GL2 8402  32.247  41.400   8.855
 5964POPC   C1A 8403  32.234  41.558   8.555
 5964POPC   D2A 8404  32.244  41.557   8.255
 5964POPC   C3A 8405  32.281  41.517   7.955
 5964POPC   C4A 8406  32.244  41.606   7.655
 5964POPC   C1B 8407  32.293  41.357   8.555
 5964POPC   C2B 8408  32.235  41.274   8.255
 5964POPC   C3B 8409  32.254  41.306   7.955
 5964POPC   C4B 8410  32.267  41.346   7.655
 5965POPC   NC3 8411  41.510   7.453   9.455
 5965POPC   PO4 8412  41.541   7.376   9.155
 5965POPC   GL1 8413  41.509   7.373   8.855
 5965POPC   GL2 8414  41.696   7.350   8.855
 5965POPC   C1A 8415  41.512   7.413   8.555
 5965POPC   D2A 8416  41.599   7.405   8.255
 5965POPC   C3A 8417  41.526   7.428   7.955
 5965POPC   C4A 8418  41.582   7.444   7.655
 5965POPC   C1B 8419  41.764   7.275   8.555
 5965POPC   C2B 8420  41.810   7.307   8.255
 5965POPC   C3B 8421  41.781   7.276   7.955
 5965POPC   C4B 8422  41.808   7.311   7.655
 5966POPC   NC3 8423  34.602  32.296   9.455
 5966POPC   PO4 8424  34.602  32.216   9.155
 5966POPC   GL1 8425  34.586  32.292   8.855
 5966POPC   GL2 8426  34.687  32.229   8.855
 5966POPC   C1A 8427  34.573  32.206   8.555
 5966POPC   D2A 8428  34.588  32.262   8.255
 5966POPC   C3A 8429  34.546  32.286   7.955
 5966POPC   C4A 8430  34.543  32.237   7.655
 5966POPC   C1B 8431  34.841  32.261   8.555
 5966POPC   C2B 8432  34.826  32.272   8.255
 5966POPC   C3B 8433  34.826  32.281   7.955
 5966POPC   C4B 8434  34.802  32.307   7.655
 5967POPC   NC3 8435  21.385  27.573   9.455
 5967POPC   PO4 8436  21.355  27.579   9.155
 5967POPC   GL1 8437  21.424  27.595   8.855
 5967POPC   GL2 8438  21.491  27.714   8.855
 5967POPC   C1A 8439  21.353  27.631   8.555
 5967POPC   D2A 8440  21.429  27.623   8.255
 5967POPC   C3A 8441  21.411  27.604   7.955
 5967POPC   C4A 8442  21.389  27.618   7.655
 5967POPC   C1B 8443  21.511  27.785   8.555
 5967POPC   C2B 8444  21.514  27.805   8.255
 5967POPC   C3B 8445  21.490  27.773   7.955
 5967POPC   C4B 8446  21.584  27.759   7.655
 5968POPC   NC3 8447   5.855  12.877   9.455
 5968POPC   PO4 8448   5.861  12.858   9.155
 5968POPC   GL1 8449   5.907  12.836   8.855
 5968POPC   GL2 8450   5.744  12.926   8.855
 5968POPC   C1A 8451   5.914  12.842   8.555
 5968POPC   D2A 8452   5.843  12.867   8.255
 5968POPC   C3A 8453   5.824  12.847   7.955
 5968POPC   C4A 8454   5.831  12.838   7.655
 5968POPC   C1B 8455   5.628  12.958   8.555
 5968POPC   C2B 8456   5.663  12.876   8.255
 5968POPC   C3B 8457   5.603  12.943   7.955
 5968POPC   C4B 8458   5.579  12.929   7.655
 5969POPC   NC3 8459   2.808  31.449   9.455
 5969POPC   PO4 8460   2.786  31.512   9.155
 5969POPC   GL1 8461   2.739  31.504   8.855
 5969POPC   GL2 8462   2.838  31.607   8.855
 5969POPC   C1A 8463   2.767  31.423   8.555
 5969POPC   D2A 8464   2.767  31.447   8.255
 5969POPC   C3A 8465   2.788  31.431   7.955
 5969POPC   C4A 8466   2.716  31.515   7.655
 5969POPC   C1B 8467   2.906  31.613   8.555
 5969POPC   C2B 8468   2.920  31.692   8.255
 5969POPC   C3B 8469   2.975  31.676   7.955
 5969POPC   C4B 8470   2.918  31.692   7.655
 5970POPC   NC3 8471   5.075  40.799   9.455
 5970POPC   PO4 8472   5.076  40.798   9.155
 5970POPC   GL1 8473   5.129  40.742   8.855
 5970POPC   GL2 8474   5.186  40.839   8.855
 5970POPC   C1A 8475   5.118  40.761   8.555
 5970POPC   D2A 8476   5.086  40.797   8.255
 5970POPC   C3A 8477   5.081  40.826   7.955
 5970POPC   C4A 8478   5.052  40.792   7.655
 5970POPC   C1B 8479   5.318  40.850   8.555
 5970POPC   C2B 8480   5.331  40.844   8.255
 5970POPC   C3B 8481   5.288  40.933   7.955
 5970POPC   C4B 8482   5.368  40.869   7.655
 5971POPC   NC3 8483   8.186  35.333   9.455
 5971POPC   PO4 8484   8.213  35.321   9.155
 5971POPC   GL1 8485   8.236  35.343   8.855
 5971POPC   GL2 8486   8.217  35.218   8.855
 5971POPC   C1A 8487   8.149  35.391   8.555
 5971POPC   D2A 8488   8.210  35.381   8.255
 5971POPC   C3A 8489   8.204  35.385   7.955
 5971POPC   C4A 8490   8.237  35.345   7.655
 5971POPC   C1B 8491   8.203  35.146   8.555
 5971POPC   C2B 8492   8.196  35.078   8.255
 5971POPC   C3B 8493   8.226  35.061   7.955
 5971POPC   C4B 8494   8.202  35.135   7.655
 5972POPC   NC3 8495  30.713  12.099   9.455
 5972POPC   PO4 8496  30.722  12.043   9.155
 5972POPC   GL1 8497  30.695  12.086   8.855
 5972POPC   GL2 8498  30.572  11.947   8.855
 5972POPC   C1A 8499  30.695  12.072   8.555
 5972POPC   D2A 8500  30.672  12.035   8.255
 5972POPC   C3A 8501  30.649  12.072   7.955
 5972POPC   C4A 8502  30.737  12.113   7.655
 5972POPC   C1B 8503  30.518  11.848   8.555
 5972POPC   C2B 8504  30.546  11.844   8.255
 5972POPC   C3B 8505  30.541  11.899   7.955
 5972POPC   C4B 8506  30.572  11.889   7.655
 5973POPC   NC3 8507  30.685  20.654   9.455
 5973POPC   PO4 8508  30.679  20.588   9.155
 5973POPC   GL1 8509  30.699  20.570   8.855
 5973POPC   GL2 8510  30.738  20.734   8.855
 5973POPC   C1A 8511  30.694  20.658   8.555
 5973POPC   D2A 8512  30.697  20.604   8.255
 5973POPC   C3A 8513  30.674  20.573   7.955
 5973POPC   C4A 8514  30.666  20.601   7.655
 5973POPC   C1B 8515  30.766  20.825   8.555
 5973POPC   C2B 8516  30.765  20.858   8.255
 5973POPC   C3B 8517  30.728  20.894   7.955
 5973POPC   C4B 8518  30.742  20.811   7.655
 5974POPC   NC3 8519  19.078  23.719   9.455
 5974POPC   PO4 8520  19.033  23.716   9.155
 5974POPC   GL1 8521  19.049  23.673   8.855
 5974POPC   GL2 8522  18.986  23.876   8.855
 5974POPC   C1A 8523  19.036  23.727   8.555
 5974POPC   D2A 8524  19.091  23.756   8.255
 5974POPC   C3A 8525  19.083  23.752   7.955
 5974POPC   C4A 8526  19.033  23.678   7.655
 5974POPC   C1B 8527  19.021  23.907   8.555
 5974POPC   C2B 8528  19.005  23.948   8.255
 5974POPC   C3B 8529  18.928  23.971   7.955
 5974POPC   C4B 8530  19.004  23.939   7.655
 5975POPC   NC3 8531  18.251   1.181   9.455
 5975POPC   PO4 8532  18.261   1.190   9.155
 5975POPC   GL1 8533  18.239   1.222   8.855
 5975POPC   GL2 8534  18.221   1.300   8.855
 5975POPC   C1A 8535  18.252   1.223   8.555
 5975POPC   D2A 8536  18.240   1.213   8.255
 5975POPC   C3A 8537  18.244   1.230   7.955
 5975POPC   C4A 8538  18.298   1.185   7.655
 5975POPC   C1B 8539  18.192   1.457   8.555
 5975POPC   C2B 8540  18.192   1.391   8.255
 5975POPC   C3B 8541  18.146   1.399   7.955
 5975POPC   C4B 8542  18.131   1.407   7.655
 5976POPC   NC3 8543   1.960   1.210   9.455
 5976POPC   PO4 8544   1.982   1.165   9.155
 5976POPC   GL1 8545   1.947   1.178   8.855
 5976POPC   GL2 8546   2.046   1.179   8.855
 5976POPC   C1A 8547   2.027   1.233   8.555
 5976POPC   D2A 8548   2.017   1.224   8.255
 5976POPC   C3A 8549   1.989   1.226   7.955
 5976POPC   C4A 8550   1.956   1.208   7.655
 5976POPC   C1B 8551   2.234   1.069   8.555
 5976POPC   C2B 8552   2.191   1.096   8.255
 5976POPC   C3B 8553   2.159   1.100   7.955
 5976POPC   C4B 8554   2.204   1.128   7.655
 5977POPC   NC3 8555  17.523  28.387   9.455
 5977POPC   PO4 8556  17.527  28.394   9.155
 5977POPC   GL1 8557  17.541  28.409   8.855
 5977POPC   GL2 8558  17.403  28.278   8.855
 5977POPC   C1A 8559  17.529  28.347   8.555
 5977POPC   D2A 8560  17.501  28.345   8.255
 5977POPC   C3A 8561  17.499  28.396   7.955
 5977POPC   C4A 8562  17.555  28.379   7.655
 5977POPC   C1B 8563  17.403  28.182   8.555
 5977POPC   C2B 8564  17.320  28.176   8.255
 5977POPC   C3B 8565  17.350  28.176   7.955
 5977POPC   C4B 8566  17.400  28.194   7.655
 5978POPC   NC3 8567   8.938  12.900   9.455
 5978POPC   PO4 8568   8.974  12.873   9.155
 5978POPC   GL1 8569   8.954  12.878   8.855
 5978POPC   GL2 8570   9.094  12.849   8.855
 5978POPC   C1A 8571   8.984  12.886   8.555
 5978POPC   D2A 8572   8.924  12.897   8.255
 5978POPC   C3A 8573   8.977  12.886   7.955
 5978POPC   C4A 8574   8.933  12.884   7.655
 5978POPC   C1B 8575   9.181  12.924   8.555
 5978POPC   C2B 8576   9.182  12.982   8.255
 5978POPC   C3B 8577   9.255  12.986   7.955
 5978POPC   C4B 8578   9.255  12.975   7.655
 5979POPC   NC3 8579  31.446  40.798   9.455
 5979POPC   PO4 8580  31.509  40.747   9.155
 5979POPC   GL1 8581  31.501  40.757   8.855
 5979POPC   GL2 8582  31.542  40.713   8.855
 5979POPC   C1A 8583  31.427  40.756   8.555
 5979POPC   D2A 8584  31.483  40.811   8.255
 5979POPC   C3A 8585  31.510  40.751   7.955
 5979POPC   C4A 8586  31.514  40.773   7.655
 5979POPC   C1B 8587  31.698  40.678   8.555
 5979POPC   C2B 8588  31.731  40.739   8.255
 5979POPC   C3B 8589  31.691  40.754   7.955
 5979POPC   C4B 8590  31.661  40.684   7.655
 5980POPC   NC3 8591  16.716  41.590   9.455
 5980POPC   PO4 8592  16.704  41.539   9.155
 5980POPC   GL1 8593  16.773  41.542   8.855
 5980POPC   GL2 8594  16.726  41.478   8.855
 5980POPC   C1A 8595  16.749  41.597   8.555
 5980POPC   D2A 8596  16.769  41.540   8.255
 5980POPC   C3A 8597  16.701  41.569   7.955
 5980POPC   C4A 8598  16.757  41.579   7.655
 5980POPC   C1B 8599  16.722  41.290   8.555
 5980POPC   C2B 8600  16.782  41.278   8.255
 5980POPC   C3B 8601  16.742  41.281   7.955
 5980POPC   C4B 8602  16.757  41.331   7.655
 5981POPC   NC3 8603  19.085  39.189   9.455
 5981POPC   PO4 8604  19.088  39.196   9.155
 5981POPC   GL1 8605  19.082  39.221   8.855
 5981POPC   GL2 8606  18.899  39.191   8.855
 5981POPC   C1A 8607  19.061  39.229   8.555
 5981POPC   D2A 8608  19.010  39.192   8.255
 5981POPC   C3A 8609  19.107  39.195   7.955
 5981POPC   C4A 8610  19.033  39.197   7.655
 5981POPC   C1B 8611  18.777  39.162   8.555
 5981POPC   C2B 8612  18.826  39.190   8.255
 5981POPC   C3B 8613  18.765  39.226   7.955
 5981POPC   C4B 8614  18.859  39.212   7.655
 5982POPC   NC3 8615  41.587  40.016   9.455
 5982POPC   PO4 8616  41.587  40.055   9.155
 5982POPC   GL1 8617  41.520  39.999   8.855
 5982POPC   GL2 8618  41.486  40.141   8.855
 5982POPC   C1A 8619  41.519  40.018   8.555
 5982POPC   D2A 8620  41.561  39.999   8.255
 5982POPC   C3A 8621  41.569  40.033   7.955
 5982POPC   C4A 8622  41.525  39.969   7.655
 5982POPC   C1B 8623  41.412  40.237   8.555
 5982POPC   C2B 8624  41.488  40.278   8.255
 5982POPC   C3B 8625  41.429  40.203   7.955
 5982POPC   C4B 8626  41.490  40.198   7.655
 5983POPC   NC3 8627  43.130   5.053   9.455
 5983POPC   PO4 8628  43.104   5.102   9.155
 5983POPC   GL1 8629  43.086   5.058   8.855
 5983POPC   GL2 8630  43.259   5.093   8.855
 5983POPC   C1A 8631  43.150   5.058   8.555
 5983POPC   D2A 8632  43.102   5.118   8.255
 5983POPC   C3A 8633  43.133   5.118   7.955
 5983POPC   C4A 8634  43.110   5.072   7.655
 5983POPC   C1B 8635  43.308   5.219   8.555
 5983POPC   C2B 8636  43.331   5.175   8.255
 5983POPC   C3B 8637  43.346   5.225   7.955
 5983POPC   C4B 8638  43.372   5.145   7.655
 5984POPC   NC3 8639  11.252  42.316   9.455
 5984POPC   PO4 8640  11.282  42.296   9.155
 5984POPC   GL1 8641  11.279  42.332   8.855
 5984POPC   GL2 8642  11.341  42.217   8.855
 5984POPC   C1A 8643  11.275  42.312   8.555
 5984POPC   D2A 8644  11.281  42.379   8.255
 5984POPC   C3A 8645  11.276  42.372   7.955
 5984POPC   C4A 8646  11.344  42.337   7.655
 5984POPC   C1B 8647  11.331  42.037   8.555
 5984POPC   C2B 8648  11.340  42.103   8.255
 5984POPC   C3B 8649  11.251  42.061   7.955
 5984POPC   C4B 8650  11.335  42.126   7.655
 5985POPC   NC3 8651   6.645  12.115   9.455
 5985POPC   PO4 8652   6.680  12.068   9.155
 5985POPC   GL1 8653   6.628  12.031   8.855
 5985POPC   GL2 8654   6.588  11.928   8.855
 5985POPC   C1A 8655   6.605  12.119   8.555
 5985POPC   D2A 8656   6.666  12.082   8.255
 5985POPC   C3A 8657   6.685  12.030   7.955
 5985POPC   C4A 8658   6.646  12.112   7.655
 5985POPC   C1B 8659   6.613  11.869   8.555
 5985POPC   C2B 8660   6.623  11.816   8.255
 5985POPC   C3B 8661   6.589  11.855   7.955
 5985POPC   C4B 8662   6.627  11.853   7.655
 5986POPC   NC3 8663  39.992  15.935   9.455
 5986POPC   PO4 8664  39.967  15.929   9.155
 5986POPC   GL1 8665  39.982  15.996   8.855
 5986POPC   GL2 8666  39.905  16.049   8.855
 5986POPC   C1A 8667  39.985  15.906   8.555
 5986POPC   D2A 8668  40.032  15.959   8.255
 5986POPC   C3A 8669  39.976  15.970   7.955
 5986POPC   C4A 8670  40.046  15.929   7.655
 5986POPC   C1B 8671  39.792  16.019   8.555
 5986POPC   C2B 8672  39.780  16.086   8.255
 5986POPC   C3B 8673  39.796  16.042   7.955
 5986POPC   C4B 8674  39.723  16.002   7.655
 5987POPC   NC3 8675  32.198  39.190   9.455
 5987POPC   PO4 8676  32.236  39.255   9.155
 5987POPC   GL1 8677  32.260  39.201   8.855
 5987POPC   GL2 8678  32.251  39.130   8.855
 5987POPC   C1A 8679  32.257  39.188   8.555
 5987POPC   D2A 8680  32.228  39.194   8.255
 5987POPC   C3A 8681  32.233  39.223   7.955
 5987POPC   C4A 8682  32.247  39.271   7.655
 5987POPC   C1B 8683  32.243  39.031   8.555
 5987POPC   C2B 8684  32.288  38.958   8.255
 5987POPC   C3B 8685  32.325  38.965   7.955
 5987POPC   C4B 8686  32.302  38.974   7.655
 5988POPC   NC3 8687  23.707   0.436   9.455
 5988POPC   PO4 8688  23.686   0.425   9.155
 5988POPC   GL1 8689  23.699   0.413   8.855
 5988POPC   GL2 8690  23.603   0.572   8.855
 5988POPC   C1A 8691  23.691   0.471   8.555
 5988POPC   D2A 8692  23.716   0.444   8.255
 5988POPC   C3A 8693  23.740   0.418   7.955
 5988POPC   C4A 8694  23.718   0.468   7.655
 5988POPC   C1B 8695  23.560   0.642   8.555
 5988POPC   C2B 8696  23.573   0.578   8.255
 5988POPC   C3B 8697  23.526   0.659   7.955
 5988POPC   C4B 8698  23.574   0.637   7.655
 5989POPC   NC3 8699   7.397  41.594   9.455
 5989POPC   PO4 8700   7.445  41.549   9.155
 5989POPC   GL1 8701   7.376  41.602   8.855
 5989POPC   GL2 8702   7.394  41.614   8.855
 5989POPC   C1A 8703   7.380  41.589   8.555
 5989POPC   D2A 8704   7.378  41.540   8.255
 5989POPC   C3A 8705   7.444  41.594   7.955
 5989POPC   C4A 8706   7.441  41.510   7.655
 5989POPC   C1B 8707   7.300  41.725   8.555
 5989POPC   C2B 8708   7.225  41.746   8.255
 5989POPC   C3B 8709   7.248  41.743   7.955
 5989POPC   C4B 8710   7.282  41.716   7.655
 5990POPC   NC3 8711  44.652   1.192   9.455
 5990POPC   PO4 8712  44.695   1.181   9.155
 5990POPC   GL1 8713  44.614   1.207   8.855
 5990POPC   GL2 8714  44.558   1.205   8.855
 5990POPC   C1A 8715  44.666   1.173   8.555
 5990POPC   D2A 8716  44.621   1.186   8.255
 5990POPC   C3A 8717  44.690   1.191   7.955
 5990POPC   C4A 8718  44.673   1.180   7.655
 5990POPC   C1B 8719  44.425   1.235   8.555
 5990POPC   C2B 8720  44.366   1.228   8.255
 5990POPC   C3B 8721  44.390   1.239   7.955
 5990POPC   C4B 8722  44.420   1.180   7.655
 5991POPC   NC3 8723   8.239  22.181   9.455
 5991POPC   PO4 8724   8.168  22.178   9.155
 5991POPC   GL1 8725   8.230  22.165   8.855
 5991POPC   GL2 8726   8.287  22.056   8.855
 5991POPC   C1A 8727   8.160  22.125   8.555
 5991POPC   D2A 8728   8.160  22.125   8.255
 5991POPC   C3A 8729   8.204  22.137   7.955
 5991POPC   C4A 8730   8.182  22.123   7.655
 5991POPC   C1B 8731   8.381  22.024   8.555
 5991POPC   C2B 8732   8.413  21.969   8.255
 5991POPC   C3B 8733   8.417  22.003   7.955
 5991POPC   C4B 8734   8.436  21.998   7.655
 5992POPC   NC3 8735  40.013  28.391   9.455
 5992POPC   PO4 8736  40.049  28.374   9.155
 5992POPC   GL1 8737  40.056  28.406   8.855
 5992POPC   GL2 8738  40.050  28.539   8.855
 5992POPC   C1A 8739  39.969  28.384   8.555
 5992POPC   D2A 8740  40.042  28.418   8.255
 5992POPC   C3A 8741  40.030  28.352   7.955
 5992POPC   C4A 8742  39.963  28.325   7.655
 5992POPC   C1B 8743  40.060  28.665   8.555
 5992POPC   C2B 8744  40.051  28.611   8.255
 5992POPC   C3B 8745  40.035  28.640   7.955
 5992POPC   C4B 8746  39.988  28.597   7.655
 5993POPC   NC3 8747  30.700  39.210   9.455
 5993POPC   PO4 8748  30.692  39.213   9.155
 5993POPC   GL1 8749  30.737  39.257   8.855
 5993POPC   GL2 8750  30.591  39.171   8.855
 5993POPC   C1A 8751  30.706  39.249   8.555
 5993POPC   D2A 8752  30.707  39.219   8.255
 5993POPC   C3A 8753  30.659  39.278   7.955
 5993POPC   C4A 8754  30.744  39.247   7.655
 5993POPC   C1B 8755  30.443  39.132   8.555
 5993POPC   C2B 8756  30.494  39.122   8.255
 5993POPC   C3B 8757  30.426  39.145   7.955
 5993POPC   C4B 8758  30.444  39.147   7.655
 5994POPC   NC3 8759   0.429  25.308   9.455
 5994POPC   PO4 8760   0.392  25.302   9.155
 5994POPC   GL1 8761   0.428  25.243   8.855
 5994POPC   GL2 8762   0.475  25.211   8.855
 5994POPC   C1A 8763   0.395  25.220   8.555
 5994POPC   D2A 8764   0.410  25.240   8.255
 5994POPC   C3A 8765   0.415  25.240   7.955
 5994POPC   C4A 8766   0.442  25.307   7.655
 5994POPC   C1B 8767   0.595  25.055   8.555
 5994POPC   C2B 8768   0.585  25.039   8.255
 5994POPC   C3B 8769   0.590  25.049   7.955
 5994POPC   C4B 8770   0.535  25.013   7.655
 5995POPC   NC3 8771  14.399  39.978   9.455
 5995POPC   PO4 8772  14.383  39.965   9.155
 5995POPC   GL1 8773  14.369  40.014   8.855
 5995POPC   GL2 8774  14.315  40.128   8.855
 5995POPC   C1A 8775  14.447  39.970   8.555
 5995POPC   D2A 8776  14.438  39.999   8.255
 5995POPC   C3A 8777  14.377  39.962   7.955
 5995POPC   C4A 8778  14.424  40.055   7.655
 5995POPC   C1B 8779  14.312  40.275   8.555
 5995POPC   C2B 8780  14.312  40.254   8.255
 5995POPC   C3B 8781  14.260  40.189   7.955
 5995POPC   C4B 8782  14.266  40.186   7.655
 5996POPC   NC3 8783  31.479  34.539   9.455
 5996POPC   PO4 8784  31.502  34.618   9.155
 5996POPC   GL1 8785  31.486  34.615   8.855
 5996POPC   GL2 8786  31.319  34.594   8.855
 5996POPC   C1A 8787  31.460  34.611   8.555
 5996POPC   D2A 8788  31.476  34.538   8.255
 5996POPC   C3A 8789  31.443  34.541   7.955
 5996POPC   C4A 8790  31.504  34.534   7.655
 5996POPC   C1B 8791  31.212  34.597   8.555
 5996POPC   C2B 8792  31.218  34.583   8.255
 5996POPC   C3B 8793  31.247  34.569   7.955
 5996POPC   C4B 8794  31.216  34.598   7.655
 5997POPC   NC3 8795   7.456   1.941   9.455
 5997POPC   PO4 8796   7.398   1.967   9.155
 5997POPC   GL1 8797   7.377   1.952   8.855
 5997POPC   GL2 8798   7.344   1.960   8.855
 5997POPC   C1A 8799   7.459   1.969   8.555
 5997POPC   D2A 8800   7.393   2.012   8.255
 5997POPC   C3A 8801   7.387   1.976   7.955
 5997POPC   C4A 8802   7.438   1.975   7.655
 5997POPC   C1B 8803   7.215   1.845   8.555
 5997POPC   C2B 8804   7.221   1.832   8.255
 5997POPC   C3B 8805   7.163   1.826   7.955
 5997POPC   C4B 8806   7.236   1.858   7.655
 5998POPC   NC3 8807  17.496  15.171   9.455
 5998POPC   PO4 8808  17.529  15.197   9.155
 5998POPC   GL1 8809  17.499  15.187   8.855
 5998POPC   GL2 8810  17.340  15.188   8.855
 5998POPC   C1A 8811  17.497  15.134   8.555
 5998POPC   D2A 8812  17.511  15.191   8.255
 5998POPC   C3A 8813  17.463  15.201   7.955
 5998POPC   C4A 8814  17.512  15.196   7.655
 5998POPC   C1B 8815  17.236  15.235   8.555
 5998POPC   C2B 8816  17.295  15.239   8.255
 5998POPC   C3B 8817  17.262  15.175   7.955
 5998POPC   C4B 8818  17.288  15.250   7.655
 5999POPC   NC3 8819   6.621   9.718   9.455
 5999POPC   PO4 8820   6.690   9.750   9.155
 5999POPC   GL1 8821   6.649   9.702   8.855
 5999POPC   GL2 8822   6.787   9.772   8.855
 5999POPC   C1A 8823   6.655   9.775   8.555
 5999POPC   D2A 8824   6.595   9.732   8.255
 5999POPC   C3A 8825   6.614   9.795   7.955
 5999POPC   C4A 8826   6.694   9.787   7.655
 5999POPC   C1B 8827   6.841   9.908   8.555
 5999POPC   C2B 8828   6.823   9.872   8.255
 5999POPC   C3B 8829   6.828   9.892   7.955
 5999POPC   C4B 8830   6.837   9.872   7.655
 6000POPC   NC3 8831  12.887  22.899   9.455
 6000POPC   PO4 8832  12.869  22.923   9.155
 6000POPC   GL1 8833  12.869  22.908   8.855
 6000POPC   GL2 8834  12.788  22.991   8.855
 6000POPC   C1A 8835  12.823  22.889   8.555
 6000POPC   D2A 8836  12.869  22.985   8.255
 6000POPC   C3A 8837  12.836  22.974   7.955
 6000POPC   C4A 8838  12.831  22.970   7.655
 6000POPC   C1B 8839  12.740  23.136   8.555
 6000POPC   C2B 8840  12.728  23.129   8.255
 6000POPC   C3B 8841  12.702  23.142   7.955
 6000POPC   C4B 8842  12.698  23.117   7.655
 6001POPC   NC3 8843   8.985   9.707   9.455
 6001POPC   PO4 8844   8.933   9.782   9.155
 6001POPC   GL1 8845   9.013   9.736   8.855
 6001POPC   GL2 8846   9.101   9.744   8.855
 6001POPC   C1A 8847   8.955   9.751   8.555
 6001POPC   D2A 8848   9.019   9.713   8.255
 6001POPC   C3A 8849   8.926   9.724   7.955
 6001POPC   C4A 8850   8.994   9.720   7.655
 6001POPC   C1B 8851   9.248   9.814   8.555
 6001POPC   C2B 8852   9.212   9.746   8.255
 6001POPC   C3B 8853   9.245   9.767   7.955
 6001POPC   C4B 8854   9.173   9.756   7.655
 6002POPC   NC3 8855  14.373   5.834   9.455
 6002POPC   PO4 8856  14.406   5.850   9.155
 6002POPC   GL1 8857  14.424   5.864   8.855
 6002POPC   GL2 8858  14.367   5.781   8.855
 6002POPC   C1A 8859  14.408   5.830   8.555
 6002POPC   D2A 8860  14.357   5.881   8.255
 6002POPC   C3A 8861  14.414   5.836   7.955
 6002POPC   C4A 8862  14.391   5.870   7.655
 6002POPC   C1B 8863  14.249   5.645   8.555
 6002POPC   C2B 8864  14.218   5.629   8.255
 6002POPC   C3B 8865  14.301   5.645   7.955
 6002POPC   C4B 8866  14.236   5.712   7.655
 6003POPC   NC3 8867   5.103  34.526   9.455
 6003POPC   PO4 8868   5.075  34.605   9.155
 6003POPC   GL1 8869   5.104  34.625   8.855
 6003POPC   GL2 8870   5.170  34.634   8.855
 6003POPC   C1A 8871   5.110  34.559   8.555
 6003POPC   D2A 8872   5.131  34.583   8.255
 6003POPC   C3A 8873   5.060  34.607   7.955
 6003POPC   C4A 8874   5.139  34.558   7.655
 6003POPC   C1B 8875   5.361  34.645   8.555
 6003POPC   C2B 8876   5.374  34.669   8.255
 6003POPC   C3B 8877   5.382  34.684   7.955
 6003POPC   C4B 8878   5.351  34.625   7.655
 6004POPC   NC3 8879  22.890  33.015   9.455
 6004POPC   PO4 8880  22.962  32.991   9.155
 6004POPC   GL1 8881  22.929  33.059   8.855
 6004POPC   GL2 8882  22.871  33.042   8.855
 6004POPC   C1A 8883  22.927  33.046   8.555
 6004POPC   D2A 8884  22.920  33.006   8.255
 6004POPC   C3A 8885  22.914  33.044   7.955
 6004POPC   C4A 8886  22.939  33.040   7.655
 6004POPC   C1B 8887  22.670  33.150   8.555
 6004POPC   C2B 8888  22.750  33.178   8.255
 6004POPC   C3B 8889  22.706  33.085   7.955
 6004POPC   C4B 8890  22.674  33.144   7.655
 6005POPC   NC3 8891  32.266  33.801   9.455
 6005POPC   PO4 8892  32.251  33.794   9.155
 6005POPC   GL1 8893  32.224  33.762   8.855
 6005POPC   GL2 8894  32.373  33.695   8.855
 6005POPC   C1A 8895  32.276  33.758   8.555
 6005POPC   D2A 8896  32.255  33.811   8.255
 6005POPC   C3A 8897  32.200  33.809   7.955
 6005POPC   C4A 8898  32.220  33.809   7.655
 6005POPC   C1B 8899  32.432  33.636   8.555
 6005POPC   C2B 8900  32.443  33.655   8.255
 6005POPC   C3B 8901  32.476  33.641   7.955
 6005POPC   C4B 8902  32.421  33.627   7.655
 6006POPC   NC3 8903   2.024   1.942   9.455
 6006POPC   PO4 8904   2.005   2.007   9.155
 6006POPC   GL1 8905   2.005   2.038   8.855
 6006POPC   GL2 8906   1.913   2.075   8.855
 6006POPC   C1A 8907   1.955   1.960   8.555
 6006POPC   D2A 8908   2.029   1.956   8.255
 6006POPC   C3A 8909   1.981   1.979   7.955
 6006POPC   C4A 8910   1.960   1.993   7.655
 6006POPC   C1B 8911   1.754   2.156   8.555
 6006POPC   C2B 8912   1.767   2.157   8.255
 6006POPC   C3B 8913   1.835   2.182   7.955
 6006POPC   C4B 8914   1.821   2.180   7.655
 6007POPC   NC3 8915  35.386   6.641   9.455
 6007POPC   PO4 8916  35.345   6.667   9.155
 6007POPC   GL1 8917  35.373   6.633   8.855
 6007POPC   GL2 8918  35.429   6.490   8.855
 6007POPC   C1A 8919  35.308   6.610   8.555
 6007POPC   D2A 8920  35.387   6.595   8.255
 6007POPC   C3A 8921  35.352   6.663   7.955
 6007POPC   C4A 8922  35.319   6.664   7.655
 6007POPC   C1B 8923  35.450   6.405   8.555
 6007POPC   C2B 8924  35.469   6.446   8.255
 6007POPC   C3B 8925  35.413   6.408   7.955
 6007POPC   C4B 8926  35.469   6.423   7.655
 6008POPC   NC3 8927  38.477  20.608   9.455
 6008POPC   PO4 8928  38.406  20.640   9.155
 6008POPC   GL1 8929  38.459  20.631   8.855
 6008POPC   GL2 8930  38.479  20.724   8.855
 6008POPC   C1A 8931  38.470  20.636   8.555
 6008POPC   D2A 8932  38.500  20.584   8.255
 6008POPC   C3A 8933  38.423  20.597   7.955
 6008POPC   C4A 8934  38.473  20.654   7.655
 6008POPC   C1B 8935  38.443  20.889   8.555
 6008POPC   C2B 8936  38.439  20.841   8.255
 6008POPC   C3B 8937  38.528  20.810   7.955
 6008POPC   C4B 8938  38.448  20.822   7.655
 6009POPC   NC3 8939  18.321  20.647   9.455
 6009POPC   PO4 8940  18.326  20.588   9.155
 6009POPC   GL1 8941  18.259  20.644   8.855
 6009POPC   GL2 8942  18.204  20.651   8.855
 6009POPC   C1A 8943  18.313  20.565   8.555
 6009POPC   D2A 8944  18.323  20.653   8.255
 6009POPC   C3A 8945  18.328  20.653   7.955
 6009POPC   C4A 8946  18.330  20.586   7.655
 6009POPC   C1B 8947  18.073  20.730   8.555
 6009POPC   C2B 8948  18.073  20.769   8.255
 6009POPC   C3B 8949  18.008  20.752   7.955
 6009POPC   C4B 8950  18.070  20.740   7.655
 6010POPC   NC3 8951  42.332  32.983   9.455
 6010POPC   PO4 8952  42.303  33.003   9.155
 6010POPC   GL1 8953  42.327  33.068   8.855
 6010POPC   GL2 8954  42.434  33.090   8.855
 6010POPC   C1A 8955  42.375  33.035   8.555
 6010POPC   D2A 8956  42.332  33.037   8.255
 6010POPC   C3A 8957  42.375  33.055   7.955
 6010POPC   C4A 8958  42.362  33.005   7.655
 6010POPC   C1B 8959  42.564  33.181   8.555
 6010POPC   C2B 8960  42.571  33.095   8.255
 6010POPC   C3B 8961  42.568  33.111   7.955
 6010POPC   C4B 8962  42.526  33.125   7.655
 6011POPC   NC3 8963   1.195  31.477   9.455
 6011POPC   PO4 8964   1.202  31.433   9.155
 6011POPC   GL1 8965   1.233  31.452   8.855
 6011POPC   GL2 8966   1.118  31.458   8.855
 6011POPC   C1A 8967   1.256  31.473   8.555
 6011POPC   D2A 8968   1.207  31.489   8.255
 6011POPC   C3A 8969   1.230  31.514   7.955
 6011POPC   C4A 8970   1.183  31.510   7.655
 6011POPC   C1B 8971   0.976  31.419   8.555
 6011POPC   C2B 8972   0.976  31.400   8.255
 6011POPC   C3B 8973   0.953  31.407   7.955
 6011POPC   C4B 8974   0.923  31.483   7.655
 6012POPC   NC3 8975  37.682  33.011   9.455
 6012POPC   PO4 8976  37.663  33.043   9.155
 6012POPC   GL1 8977  37.696  33.041   8.855
 6012POPC   GL2 8978  37.759  32.965   8.855
 6012POPC   C1A 8979  37.702  33.014   8.555
 6012POPC   D2A 8980  37.683  33.057   8.255
 6012POPC   C3A 8981  37.668  32.981   7.955
 6012POPC   C4A 8982  37.687  33.073   7.655
 6012POPC   C1B 8983  37.924  32.964   8.555
 6012POPC   C2B 8984  37.956  32.993   8.255
 6012POPC   C3B 8985  37.871  32.912   7.955
 6012POPC   C4B 8986  37.870  32.939   7.655
 6013POPC   NC3 8987   3.507  21.358   9.455
 6013POPC   PO4 8988   3.573  21.430   9.155
 6013POPC   GL1 8989   3.588  21.380   8.855
 6013POPC   GL2 8990   3.666  21.397   8.855
 6013POPC   C1A 8991   3.524  21.395   8.555
 6013POPC   D2A 8992   3.498  21.391   8.255
 6013POPC   C3A 8993   3.501  21.365   7.955
 6013POPC   C4A 8994   3.521  21.429   7.655
 6013POPC   C1B 8995   3.801  21.403   8.555
 6013POPC   C2B 8996   3.799  21.378   8.255
 6013POPC   C3B 8997   3.812  21.377   7.955
 6013POPC   C4B 8998   3.755  21.403   7.655
 6014POPC   NC3 8999  21.411  17.483   9.455
 6014POPC   PO4 9000  21.364  17.479   9.155
 6014POPC   GL1 9001  21.380  17.514   8.855
 6014POPC   GL2 9002  21.382  17.374   8.855
 6014POPC   C1A 9003  21.390  17.474   8.555
 6014POPC   D2A 9004  21.417  17.481   8.255
 6014POPC   C3A 9005  21.350  17.491   7.955
 6014POPC   C4A 9006  21.352  17.516   7.655
 6014POPC   C1B 9007  21.453  17.242   8.555
 6014POPC   C2B 9008  21.453  17.237   8.255
 6014POPC   C3B 9009  21.464  17.269   7.955
 6014POPC   C4B 9010  21.419  17.220   7.655
 6015POPC   NC3 9011   7.404   5.827   9.455
 6015POPC   PO4 9012   7.455   5.860   9.155
 6015POPC   GL1 9013   7.378   5.901   8.855
 6015POPC   GL2 9014   7.566   5.830   8.855
 6015POPC   C1A 9015   7.374   5.914   8.555
 6015POPC   D2A 9016   7.410   5.901   8.255
 6015POPC   C3A 9017   7.414   5.820   7.955
 6015POPC   C4A 9018   7.421   5.878   7.655
 6015POPC   C1B 9019   7.626   5.754   8.555
 6015POPC   C2B 9020   7.600   5.668   8.255
 6015POPC   C3B 9021   7.627   5.747   7.955
 6015POPC   C4B 9022   7.584   5.677   7.655
 6016POPC   NC3 9023   1.260  23.728   9.455
 6016POPC   PO4 9024   1.236  23.693   9.155
 6016POPC   GL1 9025   1.247  23.681   8.855
 6016POPC   GL2 9026   1.320  23.798   8.855
 6016POPC   C1A 9027   1.213  23.715   8.555
 6016POPC   D2A 9028   1.190  23.758   8.255
 6016POPC   C3A 9029   1.223  23.701   7.955
 6016POPC   C4A 9030   1.259  23.665   7.655
 6016POPC   C1B 9031   1.396  23.819   8.555
 6016POPC   C2B 9032   1.442  23.840   8.255
 6016POPC   C3B 9033   1.448  23.846   7.955
 6016POPC   C4B 9034   1.388  23.905   7.655
 6017POPC   NC3 9035  43.880  26.019   9.455
 6017POPC   PO4 9036  43.912  25.999   9.155
 6017POPC   GL1 9037  43.866  26.028   8.855
 6017POPC   GL2 9038  43.932  26.165   8.855
 6017POPC   C1A 9039  43.880  26.054   8.555
 6017POPC   D2A 9040  43.846  26.035   8.255
 6017POPC   C3A 9041  43.863  25.993   7.955
 6017POPC   C4A 9042  43.896  26.062   7.655
 6017POPC   C1B 9043  44.026  26.266   8.555
 6017POPC   C2B 9044  44.025  26.275   8.255
 6017POPC   C3B 9045  44.067  26.201   7.955
 6017POPC   C4B 9046  44.035  26.219   7.655
 6018POPC   NC3 9047  29.937  27.605   9.455
 6018POPC   PO4 9048  29.928  27.548   9.155
 6018POPC   GL1 9049  29.916  27.555   8.855
 6018POPC   GL2 9050  30.026  27.725   8.855
 6018POPC   C1A 9051  29.902  27.630   8.555
 6018POPC   D2A 9052  29.912  27.575   8.255
 6018POPC   C3A 9053  29.935  27.553   7.955
 6018POPC   C4A 9054  29.923  27.637   7.655
 6018POPC   C1B 9055  30.045  27.812   8.555
 6018POPC   C2B 9056  30.111  27.773   8.255
 6018POPC   C3B 9057  30.118  27.756   7.955
 6018POPC   C4B 9058  30.081  27.760   7.655
 6019POPC   NC3 9059  12.833   0.446   9.455
 6019POPC   PO4 9060  12.899   0.415   9.155
 6019POPC   GL1 9061  12.857   0.395   8.855
 6019POPC   GL2 9062  12.895   0.558   8.855
 6019POPC   C1A 9063  12.830   0.396   8.555
 6019POPC   D2A 9064  12.866   0.405   8.255
 6019POPC   C3A 9065  12.865   0.427   7.955
 6019POPC   C4A 9066  12.804   0.477   7.655
 6019POPC   C1B 9067  12.891   0.690   8.555
 6019POPC   C2B 9068  12.931   0.641   8.255
 6019POPC   C3B 9069  12.941   0.681   7.955
 6019POPC   C4B 9070  12.872   0.669   7.655
 6020POPC   NC3 9071  38.407  15.145   9.455
 6020POPC   PO4 9072  38.409  15.144   9.155
 6020POPC   GL1 9073  38.417  15.138   8.855
 6020POPC   GL2 9074  38.354  15.120   8.855
 6020POPC   C1A 9075  38.435  15.159   8.555
 6020POPC   D2A 9076  38.485  15.187   8.255
 6020POPC   C3A 9077  38.440  15.163   7.955
 6020POPC   C4A 9078  38.493  15.208   7.655
 6020POPC   C1B 9079  38.218  15.158   8.555
 6020POPC   C2B 9080  38.179  15.092   8.255
 6020POPC   C3B 9081  38.186  15.125   7.955
 6020POPC   C4B 9082  38.221  15.128   7.655
 6021POPC   NC3 9083  33.781   3.519   9.455
 6021POPC   PO4 9084  33.763   3.508   9.155
 6021POPC   GL1 9085  33.836   3.588   8.855
 6021POPC   GL2 9086  33.759   3.624   8.855
 6021POPC   C1A 9087  33.795   3.499   8.555
 6021POPC   D2A 9088  33.812   3.511   8.255
 6021POPC   C3A 9089  33.777   3.513   7.955
 6021POPC   C4A 9090  33.769   3.498   7.655
 6021POPC   C1B 9091  33.606   3.694   8.555
 6021POPC   C2B 9092  33.654   3.770   8.255
 6021POPC   C3B 9093  33.650   3.758   7.955
 6021POPC   C4B 9094  33.664   3.738   7.655
 6022POPC   NC3 9095  19.812  26.050   9.455
 6022POPC   PO4 9096  19.790  25.992   9.155
 6022POPC   GL1 9097  19.861  25.992   8.855
 6022POPC   GL2 9098  19.850  25.874   8.855
 6022POPC   C1A 9099  19.816  26.090   8.555
 6022POPC   D2A 9100  19.850  25.998   8.255
 6022POPC   C3A 9101  19.788  26.071   7.955
 6022POPC   C4A 9102  19.787  26.088   7.655
 6022POPC   C1B 9103  19.820  25.755   8.555
 6022POPC   C2B 9104  19.790  25.789   8.255
 6022POPC   C3B 9105  19.788  25.781   7.955
 6022POPC   C4B 9106  19.800  25.800   7.655
 6023POPC   NC3 9107  24.485  39.973   9.455
 6023POPC   PO4 9108  24.481  40.034   9.155
 6023POPC   GL1 9109  24.534  40.019   8.855
 6023POPC   GL2 9110  24.392  39.861   8.855
 6023POPC   C1A 9111  24.461  40.055   8.555
 6023POPC   D2A 9112  24.482  39.985   8.255
 6023POPC   C3A 9113  24.481  40.001   7.955
 6023POPC   C4A 9114  24.508  39.958   7.655
 6023POPC   C1B 9115  24.309  39.843   8.555
 6023POPC   C2B 9116  24.316  39.839   8.255
 6023POPC   C3B 9117  24.378  39.835   7.955
 6023POPC   C4B 9118  24.395  39.841   7.655
 6024POPC   NC3 9119  13.590  12.811   9.455
 6024POPC   PO4 9120  13.588  12.864   9.155
 6024POPC   GL1 9121  13.587  12.829   8.855
 6024POPC   GL2 9122  13.608  12.739   8.855
 6024POPC   C1A 9123  13.581  12.891   8.555
 6024POPC   D2A 9124  13.598  12.843   8.255
 6024POPC   C3A 9125  13.615  12.858   7.955
 6024POPC   C4A 9126  13.645  12.837   7.655
 6024POPC   C1B 9127  13.669  12.561   8.555
 6024POPC   C2B 9128  13.658  12.571   8.255
 6024POPC   C3B 9129  13.698  12.560   7.955
 6024POPC   C4B 9130  13.665  12.642   7.655
 6025POPC   NC3 9131   7.419  43.076   9.455
 6025POPC   PO4 9132   7.386  43.075   9.155
 6025POPC   GL1 9133   7.381  43.112   8.855
 6025POPC   GL2 9134   7.401  43.006   8.855
 6025POPC   C1A 9135   7.406  43.123   8.555
 6025POPC   D2A 9136   7.450  43.112   8.255
 6025POPC   C3A 9137   7.448  43.149   7.955
 6025POPC   C4A 9138   7.387  43.142   7.655
 6025POPC   C1B 9139   7.300  42.868   8.555
 6025POPC   C2B 9140   7.268  42.881   8.255
 6025POPC   C3B 9141   7.288  42.893   7.955
 6025POPC   C4B 9142   7.325  42.860   7.655
 6026POPC   NC3 9143   7.437  43.866   9.455
 6026POPC   PO4 9144   7.395  43.922   9.155
 6026POPC   GL1 9145   7.417  43.915   8.855
 6026POPC   GL2 9146   7.482  43.772   8.855
 6026POPC   C1A 9147   7.376  43.867   8.555
 6026POPC   D2A 9148   7.392  43.882   8.255
 6026POPC   C3A 9149   7.418  43.892   7.955
 6026POPC   C4A 9150   7.444  43.860   7.655
 6026POPC   C1B 9151   7.536  43.705   8.555
 6026POPC   C2B 9152   7.555  43.622   8.255
 6026POPC   C3B 9153   7.507  43.670   7.955
 6026POPC   C4B 9154   7.532  43.677   7.655
 6027POPC   NC3 9155   1.962  42.368   9.455
 6027POPC   PO4 9156   1.955  42.354   9.155
 6027POPC   GL1 9157   1.969  42.346   8.855
 6027POPC   GL2 9158   1.872  42.393   8.855
 6027POPC   C1A 9159   1.996  42.332   8.555
 6027POPC   D2A 9160   2.033  42.358   8.255
 6027POPC   C3A 9161   1.969  42.348   7.955
 6027POPC   C4A 9162   1.950  42.327   7.655
 6027POPC   C1B 9163   1.756  42.394   8.555
 6027POPC   C2B 9164   1.728  42.401   8.255
 6027POPC   C3B 9165   1.790  42.430   7.955
 6027POPC   C4B 9166   1.752  42.446   7.655
 6028POPC   NC3 9167  38.468  39.980   9.455
 6028POPC   PO4 9168  38.466  40.008   9.155
 6028POPC   GL1 9169  38.460  39.971   8.855
 6028POPC   GL2 9170  38.601  39.995   8.855
 6028POPC   C1A 9171  38.479  39.965   8.555
 6028POPC   D2A 9172  38.449  39.962   8.255
 6028POPC   C3A 9173  38.482  39.965   7.955
 6028POPC   C4A 9174  38.426  39.984   7.655
 6028POPC   C1B 9175  38.697  40.034   8.555
 6028POPC   C2B 9176  38.670  40.084   8.255
 6028POPC   C3B 9177  38.664  40.033   7.955
 6028POPC   C4B 9178  38.709  40.061   7.655
 6029POPC   NC3 9179  26.776  44.642   9.455
 6029POPC   PO4 9180  26.801  44.654   9.155
 6029POPC   GL1 9181  26.774  44.695   8.855
 6029POPC   GL2 9182  26.921  44.707   8.855
 6029POPC   C1A 9183  26.834  44.614   8.555
 6029POPC   D2A 9184  26.840  44.689   8.255
 6029POPC   C3A 9185  26.856  44.673   7.955
 6029POPC   C4A 9186  26.816  44.688   7.655
 6029POPC   C1B 9187  27.008  44.824   8.555
 6029POPC   C2B 9188  27.045  44.802   8.255
 6029POPC   C3B 9189  27.046  44.833   7.955
 6029POPC   C4B 9190  27.041  44.830   7.655
 6030POPC   NC3 9191  27.622   8.992   9.455
 6030POPC   PO4 9192  27.565   8.967   9.155
 6030POPC   GL1 9193  27.586   8.941   8.855
 6030POPC   GL2 9194  27.625   9.079   8.855
 6030POPC   C1A 9195  27.561   8.926   8.555
 6030POPC   D2A 9196  27.578   8.925   8.255
 6030POPC   C3A 9197  27.635   8.977   7.955
 6030POPC   C4A 9198  27.586   8.993   7.655
 6030POPC   C1B 9199  27.637   9.248   8.555
 6030POPC   C2B 9200  27.625   9.205   8.255
 6030POPC   C3B 9201  27.620   9.194   7.955
 6030POPC   C4B 9202  27.667   9.196   7.655
 6031POPC   NC3 9203  30.673   6.658   9.455
 6031POPC   PO4 9204  30.651   6.669   9.155
 6031POPC   GL1 9205  30.708   6.684   8.855
 6031POPC   GL2 9206  30.611   6.713   8.855
 6031POPC   C1A 9207  30.650   6.617   8.555
 6031POPC   D2A 9208  30.731   6.646   8.255
 6031POPC   C3A 9209  30.716   6.636   7.955
 6031POPC   C4A 9210  30.690   6.666   7.655
 6031POPC   C1B 9211  30.488   6.812   8.555
 6031POPC   C2B 9212  30.440   6.823   8.255
 6031POPC   C3B 9213  30.478   6.755   7.955
 6031POPC   C4B 9214  30.438   6.808   7.655
 6032POPC   NC3 9215  40.799  29.931   9.455
 6032POPC   PO4 9216  40.741  29.968   9.155
 6032POPC   GL1 9217  40.740  29.876   8.855
 6032POPC   GL2 9218  40.730  29.973   8.855
 6032POPC   C1A 9219  40.737  29.935   8.555
 6032POPC   D2A 9220  40.794  29.926   8.255
 6032POPC   C3A 9221  40.818  29.883   7.955
 6032POPC   C4A 9222  40.799  29.969   7.655
 6032POPC   C1B 9223  40.579  30.131   8.555
 6032POPC   C2B 9224  40.665  30.125   8.255
 6032POPC   C3B 9225  40.611  30.090   7.955
 6032POPC   C4B 9226  40.665  30.117   7.655
 6033POPC   NC3 9227  19.811   0.467   9.455
 6033POPC   PO4 9228  19.867   0.444   9.155
 6033POPC   GL1 9229  19.799   0.406   8.855
 6033POPC   GL2 9230  19.965   0.410   8.855
 6033POPC   C1A 9231  19.852   0.431   8.555
 6033POPC   D2A 9232  19.847   0.403   8.255
 6033POPC   C3A 9233  19.880   0.390   7.955
 6033POPC   C4A 9234  19.787   0.413   7.655
 6033POPC   C1B 9235  20.051   0.431   8.555
 6033POPC   C2B 9236  20.046   0.467   8.255
 6033POPC   C3B 9237  20.100   0.482   7.955
 6033POPC   C4B 9238  20.107   0.478   7.655
 6034POPC   NC3 9239  16.770   4.293   9.455
 6034POPC   PO4 9240  16.735   4.344   9.155
 6034POPC   GL1 9241  16.702   4.284   8.855
 6034POPC   GL2 9242  16.746   4.468   8.855
 6034POPC   C1A 9243  16.755   4.323   8.555
 6034POPC   D2A 9244  16.720   4.335   8.255
 6034POPC   C3A 9245  16.726   4.365   7.955
 6034POPC   C4A 9246  16.724   4.366   7.655
 6034POPC   C1B 9247  16.695   4.605   8.555
 6034POPC   C2B 9248  16.687   4.598   8.255
 6034POPC   C3B 9249  16.677   4.588   7.955
 6034POPC   C4B 9250  16.687   4.570   7.655
 6035POPC   NC3 9251  23.758  43.122   9.455
 6035POPC   PO4 9252  23.738  43.087   9.155
 6035POPC   GL1 9253  23.704  43.118   8.855
 6035POPC   GL2 9254  23.568  43.105   8.855
 6035POPC   C1A 9255  23.746  43.123   8.555
 6035POPC   D2A 9256  23.719  43.155   8.255
 6035POPC   C3A 9257  23.696  43.069   7.955
 6035POPC   C4A 9258  23.700  43.067   7.655
 6035POPC   C1B 9259  23.483  42.993   8.555
 6035POPC   C2B 9260  23.473  43.062   8.255
 6035POPC   C3B 9261  23.482  43.001   7.955
 6035POPC   C4B 9262  23.525  43.012   7.655
 6036POPC   NC3 9263  15.950   2.786   9.455
 6036POPC   PO4 9264  15.997   2.801   9.155
 6036POPC   GL1 9265  15.940   2.741   8.855
 6036POPC   GL2 9266  15.792   2.767   8.855
 6036POPC   C1A 9267  15.973   2.772   8.555
 6036POPC   D2A 9268  16.004   2.753   8.255
 6036POPC   C3A 9269  15.977   2.728   7.955
 6036POPC   C4A 9270  15.920   2.772   7.655
 6036POPC   C1B 9271  15.709   2.689   8.555
 6036POPC   C2B 9272  15.694   2.725   8.255
 6036POPC   C3B 9273  15.705   2.726   7.955
 6036POPC   C4B 9274  15.754   2.741   7.655
 6037POPC   NC3 9275  11.273   6.673   9.455
 6037POPC   PO4 9276  11.254   6.637   9.155
 6037POPC   GL1 9277  11.256   6.655   8.855
 6037POPC   GL2 9278  11.313   6.792   8.855
 6037POPC   C1A 9279  11.277   6.644   8.555
 6037POPC   D2A 9280  11.267   6.682   8.255
 6037POPC   C3A 9281  11.261   6.628   7.955
 6037POPC   C4A 9282  11.304   6.599   7.655
 6037POPC   C1B 9283  11.289   6.941   8.555
 6037POPC   C2B 9284  11.276   6.895   8.255
 6037POPC   C3B 9285  11.274   6.893   7.955
 6037POPC   C4B 9286  11.273   6.915   7.655
 6038POPC   NC3 9287  18.279  15.949   9.455
 6038POPC   PO4 9288  18.250  15.923   9.155
 6038POPC   GL1 9289  18.320  15.990   8.855
 6038POPC   GL2 9290  18.163  16.038   8.855
 6038POPC   C1A 9291  18.302  15.920   8.555
 6038POPC   D2A 9292  18.292  15.996   8.255
 6038POPC   C3A 9293  18.311  15.934   7.955
 6038POPC   C4A 9294  18.318  15.995   7.655
 6038POPC   C1B 9295  18.104  16.143   8.555
 6038POPC   C2B 9296  18.071  16.062   8.255
 6038POPC   C3B 9297  18.057  16.122   7.955
 6038POPC   C4B 9298  18.070  16.074   7.655
 6039POPC   NC3 9299  42.301  25.314   9.455
 6039POPC   PO4 9300  42.344  25.246   9.155
 6039POPC   GL1 9301  42.293  25.224   8.855
 6039POPC   GL2 9302  42.498  25.292   8.855
 6039POPC   C1A 9303  42.343  25.283   8.555
 6039POPC   D2A 9304  42.303  25.285   8.255
 6039POPC   C3A 9305  42.353  25.260   7.955
 6039POPC   C4A 9306  42.310  25.274   7.655
 6039POPC   C1B 9307  42.551  25.361   8.555
 6039POPC   C2B 9308  42.543  25.360   8.255
 6039POPC   C3B 9309  42.568  25.379   7.955
 6039POPC   C4B 9310  42.592  25.359   7.655
 6040POPC   NC3 9311   5.126   5.115   9.455
 6040POPC   PO4 9312   5.109   5.061   9.155
 6040POPC   GL1 9313   5.058   5.095   8.855
 6040POPC   GL2 9314   5.108   4.983   8.855
 6040POPC   C1A 9315   5.073   5.067   8.555
 6040POPC   D2A 9316   5.049   5.077   8.255
 6040POPC   C3A 9317   5.083   5.123   7.955
 6040POPC   C4A 9318   5.124   5.076   7.655
 6040POPC   C1B 9319   5.042   4.884   8.555
 6040POPC   C2B 9320   5.090   4.807   8.255
 6040POPC   C3B 9321   5.043   4.881   7.955
 6040POPC   C4B 9322   5.044   4.869   7.655
 6041POPC   NC3 9323  19.035  26.004   9.455
 6041POPC   PO4 9324  19.055  26.055   9.155
 6041POPC   GL1 9325  19.080  26.052   8.855
 6041POPC   GL2 9326  18.933  26.008   8.855
 6041POPC   C1A 9327  19.090  26.031   8.555
 6041POPC   D2A 9328  19.028  26.091   8.255
 6041POPC   C3A 9329  19.039  26.025   7.955
 6041POPC   C4A 9330  19.027  26.061   7.655
 6041POPC   C1B 9331  18.815  26.011   8.555
 6041POPC   C2B 9332  18.814  26.092   8.255
 6041POPC   C3B 9333  18.791  26.083   7.955
 6041POPC   C4B 9334  18.844  26.042   7.655
 6042POPC   NC3 9335  27.545   2.754   9.455
 6042POPC   PO4 9336  27.608   2.737   9.155
 6042POPC   GL1 9337  27.576   2.769   8.855
 6042POPC   GL2 9338  27.525   2.696   8.855
 6042POPC   C1A 9339  27.633   2.801   8.555
 6042POPC   D2A 9340  27.553   2.732   8.255
 6042POPC   C3A 9341  27.594   2.793   7.955
 6042POPC   C4A 9342  27.627   2.717   7.655
 6042POPC   C1B 9343  27.468   2.580   8.555
 6042POPC   C2B 9344  27.389   2.588   8.255
 6042POPC   C3B 9345  27.467   2.599   7.955
 6042POPC   C4B 9346  27.408   2.596   7.655
 6043POPC   NC3 9347  40.042  36.952   9.455
 6043POPC   PO4 9348  40.028  36.875   9.155
 6043POPC   GL1 9349  39.959  36.928   8.855
 6043POPC   GL2 9350  40.134  37.009   8.855
 6043POPC   C1A 9351  40.034  36.948   8.555
 6043POPC   D2A 9352  39.999  36.923   8.255
 6043POPC   C3A 9353  40.035  36.859   7.955
 6043POPC   C4A 9354  40.052  36.946   7.655
 6043POPC   C1B 9355  40.203  37.110   8.555
 6043POPC   C2B 9356  40.211  37.021   8.255
 6043POPC   C3B 9357  40.239  37.053   7.955
 6043POPC   C4B 9358  40.156  37.052   7.655
 6044POPC   NC3 9359  26.004   1.227   9.455
 6044POPC   PO4 9360  26.015   1.189   9.155
 6044POPC   GL1 9361  26.074   1.225   8.855
 6044POPC   GL2 9362  26.123   1.322   8.855
 6044POPC   C1A 9363  25.994   1.247   8.555
 6044POPC   D2A 9364  26.016   1.255   8.255
 6044POPC   C3A 9365  26.054   1.214   7.955
 6044POPC   C4A 9366  25.995   1.258   7.655
 6044POPC   C1B 9367  26.238   1.360   8.555
 6044POPC   C2B 9368  26.242   1.373   8.255
 6044POPC   C3B 9369  26.219   1.296   7.955
 6044POPC   C4B 9370  26.267   1.309   7.655
 6045POPC   NC3 9371  32.987   8.181   9.455
 6045POPC   PO4 9372  33.046   8.229   9.155
 6045POPC   GL1 9373  33.050   8.237   8.855
 6045POPC   GL2 9374  33.189   8.269   8.855
 6045POPC   C1A 9375  32.994   8.243   8.555
 6045POPC   D2A 9376  33.071   8.184   8.255
 6045POPC   C3A 9377  33.043   8.212   7.955
 6045POPC   C4A 9378  33.022   8.213   7.655
 6045POPC   C1B 9379  33.304   8.257   8.555
 6045POPC   C2B 9380  33.280   8.313   8.255
 6045POPC   C3B 9381  33.225   8.329   7.955
 6045POPC   C4B 9382  33.292   8.259   7.655
 6046POPC   NC3 9383  40.015  29.133   9.455
 6046POPC   PO4 9384  40.018  29.183   9.155
 6046POPC   GL1 9385  39.987  29.144   8.855
 6046POPC   GL2 9386  39.990  29.043   8.855
 6046POPC   C1A 9387  39.997  29.166   8.555
 6046POPC   D2A 9388  40.027  29.178   8.255
 6046POPC   C3A 9389  39.968  29.172   7.955
 6046POPC   C4A 9390  39.966  29.174   7.655
 6046POPC   C1B 9391  40.074  28.940   8.555
 6046POPC   C2B 9392  40.075  28.940   8.255
 6046POPC   C3B 9393  40.039  28.872   7.955
 6046POPC   C4B 9394  40.023  28.869   7.655
 6047POPC   NC3 9395  16.747   3.588   9.455
 6047POPC   PO4 9396  16.690   3.496   9.155
 6047POPC   GL1 9397  16.762   3.565   8.855
 6047POPC   GL2 9398  16.899   3.508   8.855
 6047POPC   C1A 9399  16.725   3.503   8.555
 6047POPC   D2A 9400  16.773   3.568   8.255
 6047POPC   C3A 9401  16.735   3.492   7.955
 6047POPC   C4A 9402  16.713   3.505   7.655
 6047POPC   C1B 9403  16.984   3.487   8.555
 6047POPC   C2B 9404  16.989   3.422   8.255
 6047POPC   C3B 9405  16.923   3.480   7.955
 6047POPC   C4B 9406  16.981   3.477   7.655
 6048POPC   NC3 9407  12.120   2.018   9.455
 6048POPC   PO4 9408  12.045   1.946   9.155
 6048POPC   GL1 9409  12.092   1.978   8.855
 6048POPC   GL2 9410  11.965   1.877   8.855
 6048POPC   C1A 9411  12.107   1.947   8.555
 6048POPC   D2A 9412  12.090   2.025   8.255
 6048POPC   C3A 9413  12.030   2.028   7.955
 6048POPC   C4A 9414  12.040   2.024   7.655
 6048POPC   C1B 9415  11.871   1.883   8.555
 6048POPC   C2B 9416  11.822   1.825   8.255
 6048POPC   C3B 9417  11.857   1.847   7.955
 6048POPC   C4B 9418  11.822   1.877   7.655
 6049POPC   NC3 9419  25.269  39.231   9.455
 6049POPC   PO4 9420  25.305  39.207   9.155
 6049POPC   GL1 9421  25.223  39.276   8.855
 6049POPC   GL2 9422  25.154  39.159   8.855
 6049POPC   C1A 9423  25.247  39.242   8.555
 6049POPC   D2A 9424  25.296  39.243   8.255
 6049POPC   C3A 9425  25.290  39.280   7.955
 6049POPC   C4A 9426  25.257  39.200   7.655
 6049POPC   C1B 9427  25.037  39.178   8.555
 6049POPC   C2B 9428  25.008  39.098   8.255
 6049POPC   C3B 9429  25.060  39.160   7.955
 6049POPC   C4B 9430  25.061  39.194   7.655
 6050POPC   NC3 9431  12.043  38.452   9.455
 6050POPC   PO4 9432  12.118  38.456   9.155
 6050POPC   GL1 9433  12.052  38.500   8.855
 6050POPC   GL2 9434  12.160  38.347   8.855
 6050POPC   C1A 9435  12.089  38.428   8.555
 6050POPC   D2A 9436  12.046  38.499   8.255
 6050POPC   C3A 9437  12.030  38.427   7.955
 6050POPC   C4A 9438  12.041  38.437   7.655
 6050POPC   C1B 9439  12.303  38.247   8.555
 6050POPC   C2B 9440  12.300  38.267   8.255
 6050POPC   C3B 9441  12.270  38.262   7.955
 6050POPC   C4B 9442  12.285  38.273   7.655
 6051POPC   NC3 9443   4.339  43.108   9.455
 6051POPC   PO4 9444   4.284  43.140   9.155
 6051POPC   GL1 9445   4.357  43.103   8.855
 6051POPC   GL2 9446   4.247  43.038   8.855
 6051POPC   C1A 9447   4.361  43.136   8.555
 6051POPC   D2A 9448   4.300  43.113   8.255
 6051POPC   C3A 9449   4.276  43.094   7.955
 6051POPC   C4A 9450   4.319  43.103   7.655
 6051POPC   C1B 9451   4.086  42.977   8.555
 6051POPC   C2B 9452   4.128  42.966   8.255
 6051POPC   C3B 9453   4.128  42.938   7.955
 6051POPC   C4B 9454   4.114  42.935   7.655
 6052POPC   NC3 9455  43.905   7.466   9.455
 6052POPC   PO4 9456  43.890   7.371   9.155
 6052POPC   GL1 9457  43.915   7.395   8.855
 6052POPC   GL2 9458  43.801   7.334   8.855
 6052POPC   C1A 9459  43.866   7.424   8.555
 6052POPC   D2A 9460  43.846   7.460   8.255
 6052POPC   C3A 9461  43.897   7.448   7.955
 6052POPC   C4A 9462  43.838   7.408   7.655
 6052POPC   C1B 9463  43.836   7.202   8.555
 6052POPC   C2B 9464  43.809   7.200   8.255
 6052POPC   C3B 9465  43.830   7.171   7.955
 6052POPC   C4B 9466  43.832   7.156   7.655
 6053POPC   NC3 9467  36.899  26.817   9.455
 6053POPC   PO4 9468  36.917  26.853   9.155
 6053POPC   GL1 9469  36.905  26.862   8.855
 6053POPC   GL2 9470  36.965  26.760   8.855
 6053POPC   C1A 9471  36.926  26.814   8.555
 6053POPC   D2A 9472  36.889  26.821   8.255
 6053POPC   C3A 9473  36.867  26.830   7.955
 6053POPC   C4A 9474  36.867  26.800   7.655
 6053POPC   C1B 9475  37.153  26.705   8.555
 6053POPC   C2B 9476  37.094  26.734   8.255
 6053POPC   C3B 9477  37.163  26.725   7.955
 6053POPC   C4B 9478  37.101  26.688   7.655
 6054POPC   NC3 9479   9.021  29.923   9.455
 6054POPC   PO4 9480   8.932  29.936   9.155
 6054POPC   GL1 9481   9.022  29.930   8.855
 6054POPC   GL2 9482   8.960  30.092   8.855
 6054POPC   C1A 9483   8.953  29.915   8.555
 6054POPC   D2A 9484   9.013  29.939   8.255
 6054POPC   C3A 9485   8.972  29.889   7.955
 6054POPC   C4A 9486   8.949  29.895   7.655
 6054POPC   C1B 9487   9.016  30.160   8.555
 6054POPC   C2B 9488   8.964  30.183   8.255
 6054POPC   C3B 9489   9.055  30.134   7.955
 6054POPC   C4B 9490   9.052  30.211   7.655
 6055POPC   NC3 9491  43.870   9.701   9.455
 6055POPC   PO4 9492  43.918   9.770   9.155
 6055POPC   GL1 9493  43.849   9.702   8.855
 6055POPC   GL2 9494  44.001   9.714   8.855
 6055POPC   C1A 9495  43.842   9.763   8.555
 6055POPC   D2A 9496  43.888   9.742   8.255
 6055POPC   C3A 9497  43.849   9.708   7.955
 6055POPC   C4A 9498  43.898   9.734   7.655
 6055POPC   C1B 9499  44.133   9.576   8.555
 6055POPC   C2B 9500  44.085   9.561   8.255
 6055POPC   C3B 9501  44.109   9.639   7.955
 6055POPC   C4B 9502  44.139   9.655   7.655
 6056POPC   NC3 9503  33.840  21.353   9.455
 6056POPC   PO4 9504  33.830  21.404   9.155
 6056POPC   GL1 9505  33.781  21.420   8.855
 6056POPC   GL2 9506  33.783  21.494   8.855
 6056POPC   C1A 9507  33.808  21.361   8.555
 6056POPC   D2A 9508  33.755  21.371   8.255
 6056POPC   C3A 9509  33.772  21.349   7.955
 6056POPC   C4A 9510  33.838  21.350   7.655
 6056POPC   C1B 9511  33.687  21.592   8.555
 6056POPC   C2B 9512  33.722  21.636   8.255
 6056POPC   C3B 9513  33.715  21.610   7.955
 6056POPC   C4B 9514  33.698  21.645   7.655
 6057POPC   NC3 9515  44.683  20.613   9.455
 6057POPC   PO4 9516  44.663  20.577   9.155
 6057POPC   GL1 9517  44.673  20.627   8.855
 6057POPC   GL2 9518  44.772  20.688   8.855
 6057POPC   C1A 9519  44.654  20.583   8.555
 6057POPC   D2A 9520  44.687  20.647   8.255
 6057POPC   C3A 9521  44.636  20.635   7.955
 6057POPC   C4A 9522  44.685  20.636   7.655
 6057POPC   C1B 9523  44.886  20.727   8.555
 6057POPC   C2B 9524  44.875  20.755   8.255
 6057POPC   C3B 9525  44.861  20.736   7.955
 6057POPC   C4B 9526  44.940  20.738   7.655
 6058POPC   NC3 9527   0.418  17.497   9.455
 6058POPC   PO4 9528   0.464  17.463   9.155
 6058POPC   GL1 9529   0.416  17.502   8.855
 6058POPC   GL2 9530   0.333  17.451   8.855
 6058POPC   C1A 9531   0.444  17.555   8.555
 6058POPC   D2A 9532   0.389  17.546   8.255
 6058POPC   C3A 9533   0.430  17.555   7.955
 6058POPC   C4A 9534   0.477  17.536   7.655
 6058POPC   C1B 9535   0.314  17.296   8.555
 6058POPC   C2B 9536   0.218  17.291   8.255
 6058POPC   C3B 9537   0.266  17.341   7.955
 6058POPC   C4B 9538   0.274  17.332   7.655
 6059POPC   NC3 9539  24.475  12.858   9.455
 6059POPC   PO4 9540  24.523  12.870   9.155
 6059POPC   GL1 9541  24.502  12.803   8.855
 6059POPC   GL2 9542  24.542  12.921   8.855
 6059POPC   C1A 9543  24.460  12.831   8.555
 6059POPC   D2A 9544  24.466  12.850   8.255
 6059POPC   C3A 9545  24.492  12.882   7.955
 6059POPC   C4A 9546  24.440  12.844   7.655
 6059POPC   C1B 9547  24.706  13.042   8.555
 6059POPC   C2B 9548  24.674  13.071   8.255
 6059POPC   C3B 9549  24.652  13.076   7.955
 6059POPC   C4B 9550  24.654  13.052   7.655
 6060POPC   NC3 9551  14.380   1.196   9.455
 6060POPC   PO4 9552  14.403   1.220   9.155
 6060POPC   GL1 9553  14.432   1.185   8.855
 6060POPC   GL2 9554  14.270   1.234   8.855
 6060POPC   C1A 9555  14.377   1.174   8.555
 6060POPC   D2A 9556  14.364   1.253   8.255
 6060POPC   C3A 9557  14.422   1.248   7.955
 6060POPC   C4A 9558  14.389   1.240   7.655
 6060POPC   C1B 9559  14.178   1.291   8.555
 6060POPC   C2B 9560  14.148   1.335   8.255
 6060POPC   C3B 9561  14.173   1.325   7.955
 6060POPC   C4B 9562  14.123   1.324   7.655
 6061POPC   NC3 9563  43.889  42.299   9.455
 6061POPC   PO4 9564  43.869  42.363   9.155
 6061POPC   GL1 9565  43.861  42.375   8.855
 6061POPC   GL2 9566  44.011  42.310   8.855
 6061POPC   C1A 9567  43.872  42.313   8.555
 6061POPC   D2A 9568  43.845  42.343   8.255
 6061POPC   C3A 9569  43.921  42.290   7.955
 6061POPC   C4A 9570  43.845  42.367   7.655
 6061POPC   C1B 9571  44.066  42.246   8.555
 6061POPC   C2B 9572  44.103  42.234   8.255
 6061POPC   C3B 9573  44.096  42.236   7.955
 6061POPC   C4B 9574  44.135  42.162   7.655
 6062POPC   NC3 9575  19.024  33.028   9.455
 6062POPC   PO4 9576  19.093  32.984   9.155
 6062POPC   GL1 9577  19.095  33.043   8.855
 6062POPC   GL2 9578  19.058  33.185   8.855
 6062POPC   C1A 9579  19.059  33.073   8.555
 6062POPC   D2A 9580  19.035  33.029   8.255
 6062POPC   C3A 9581  19.037  33.049   7.955
 6062POPC   C4A 9582  19.024  33.052   7.655
 6062POPC   C1B 9583  19.155  33.217   8.555
 6062POPC   C2B 9584  19.161  33.253   8.255
 6062POPC   C3B 9585  19.177  33.306   7.955
 6062POPC   C4B 9586  19.110  33.221   7.655
 6063POPC   NC3 9587  41.596   8.938   9.455
 6063POPC   PO4 9588  41.511   8.935   9.155
 6063POPC   GL1 9589  41.510   9.016   8.855
 6063POPC   GL2 9590  41.623   8.874   8.855
 6063POPC   C1A 9591  41.551   9.000   8.555
 6063POPC   D2A 9592  41.539   8.960   8.255
 6063POPC   C3A 9593  41.542   8.964   7.955
 6063POPC   C4A 9594  41.574   8.955   7.655
 6063POPC   C1B 9595  41.690   8.781   8.555
 6063POPC   C2B 9596  41.688   8.796   8.255
 6063POPC   C3B 9597  41.759   8.738   7.955
 6063POPC   C4B 9598  41.685   8.781   7.655
 6064POPC   NC3 9599  10.508  35.304   9.455
 6064POPC   PO4 9600  10.553  35.363   9.155
 6064POPC   GL1 9601  10.529  35.348   8.855
 6064POPC   GL2 9602  10.491  35.211   8.855
 6064POPC   C1A 9603  10.499  35.370   8.555
 6064POPC   D2A 9604  10.539  35.332   8.255
 6064POPC   C3A 9605  10.485  35.357   7.955
 6064POPC   C4A 9606  10.522  35.317   7.655
 6064POPC   C1B 9607  10.368  35.121   8.555
 6064POPC   C2B 9608  10.364  35.168   8.255
 6064POPC   C3B 9609  10.386  35.194   7.955
 6064POPC   C4B 9610  10.406  35.148   7.655
 6065POPC   NC3 9611  11.262  20.584   9.455
 6065POPC   PO4 9612  11.310  20.621   9.155
 6065POPC   GL1 9613  11.250  20.655   8.855
 6065POPC   GL2 9614  11.368  20.720   8.855
 6065POPC   C1A 9615  11.321  20.616   8.555
 6065POPC   D2A 9616  11.328  20.580   8.255
 6065POPC   C3A 9617  11.307  20.611   7.955
 6065POPC   C4A 9618  11.331  20.572   7.655
 6065POPC   C1B 9619  11.527  20.733   8.555
 6065POPC   C2B 9620  11.463  20.733   8.255
 6065POPC   C3B 9621  11.504  20.788   7.955
 6065POPC   C4B 9622  11.490  20.737   7.655
 6066POPC   NC3 9623   1.971  15.151   9.455
 6066POPC   PO4 9624   2.017  15.158   9.155
 6066POPC   GL1 9625   1.990  15.131   8.855
 6066POPC   GL2 9626   1.928  15.095   8.855
 6066POPC   C1A 9627   2.020  15.221   8.555
 6066POPC   D2A 9628   2.008  15.159   8.255
 6066POPC   C3A 9629   1.948  15.171   7.955
 6066POPC   C4A 9630   1.945  15.153   7.655
 6066POPC   C1B 9631   1.869  14.948   8.555
 6066POPC   C2B 9632   1.808  14.994   8.255
 6066POPC   C3B 9633   1.837  14.963   7.955
 6066POPC   C4B 9634   1.848  14.924   7.655
 6067POPC   NC3 9635   7.381  19.878   9.455
 6067POPC   PO4 9636   7.421  19.856   9.155
 6067POPC   GL1 9637   7.429  19.843   8.855
 6067POPC   GL2 9638   7.517  19.940   8.855
 6067POPC   C1A 9639   7.434  19.858   8.555
 6067POPC   D2A 9640   7.462  19.861   8.255
 6067POPC   C3A 9641   7.454  19.796   7.955
 6067POPC   C4A 9642   7.449  19.838   7.655
 6067POPC   C1B 9643   7.529  20.093   8.555
 6067POPC   C2B 9644   7.489  20.097   8.255
 6067POPC   C3B 9645   7.486  20.024   7.955
 6067POPC   C4B 9646   7.579  20.045   7.655
 6068POPC   NC3 9647  43.069  11.296   9.455
 6068POPC   PO4 9648  43.149  11.255   9.155
 6068POPC   GL1 9649  43.111  11.280   8.855
 6068POPC   GL2 9650  42.997  11.268   8.855
 6068POPC   C1A 9651  43.109  11.306   8.555
 6068POPC   D2A 9652  43.149  11.305   8.255
 6068POPC   C3A 9653  43.154  11.292   7.955
 6068POPC   C4A 9654  43.134  11.268   7.655
 6068POPC   C1B 9655  42.871  11.202   8.555
 6068POPC   C2B 9656  42.825  11.255   8.255
 6068POPC   C3B 9657  42.877  11.267   7.955
 6068POPC   C4B 9658  42.825  11.215   7.655
 6069POPC   NC3 9659  15.976   9.725   9.455
 6069POPC   PO4 9660  15.991   9.730   9.155
 6069POPC   GL1 9661  15.997   9.767   8.855
 6069POPC   GL2 9662  15.963   9.851   8.855
 6069POPC   C1A 9663  15.909   9.712   8.555
 6069POPC   D2A 9664  15.942   9.756   8.255
 6069POPC   C3A 9665  15.991   9.761   7.955
 6069POPC   C4A 9666  15.977   9.731   7.655
 6069POPC   C1B 9667  16.015   9.987   8.555
 6069POPC   C2B 9668  16.019  10.041   8.255
 6069POPC   C3B 9669  15.981   9.957   7.955
 6069POPC   C4B 9670  16.015   9.983   7.655
 6070POPC   NC3 9671  26.024  28.346   9.455
 6070POPC   PO4 9672  26.064  28.377   9.155
 6070POPC   GL1 9673  26.073  28.377   8.855
 6070POPC   GL2 9674  25.921  28.401   8.855
 6070POPC   C1A 9675  26.002  28.412   8.555
 6070POPC   D2A 9676  26.085  28.391   8.255
 6070POPC   C3A 9677  26.051  28.371   7.955
 6070POPC   C4A 9678  26.081  28.352   7.655
 6070POPC   C1B 9679  25.773  28.483   8.555
 6070POPC   C2B 9680  25.827  28.438   8.255
 6070POPC   C3B 9681  25.809  28.493   7.955
 6070POPC   C4B 9682  25.841  28.469   7.655
 6071POPC   NC3 9683   7.465  35.325   9.455
 6071POPC   PO4 9684   7.431  35.341   9.155
 6071POPC   GL1 9685   7.386  35.394   8.855
 6071POPC   GL2 9686   7.447  35.288   8.855
 6071POPC   C1A 9687   7.420  35.334   8.555
 6071POPC   D2A 9688   7.417  35.303   8.255
 6071POPC   C3A 9689   7.452  35.386   7.955
 6071POPC   C4A 9690   7.398  35.350   7.655
 6071POPC   C1B 9691   7.521  35.121   8.555
 6071POPC   C2B 9692   7.529  35.163   8.255
 6071POPC   C3B 9693   7.508  35.153   7.955
 6071POPC   C4B 9694   7.590  35.092   7.655
 6072POPC   NC3 9695   2.768   9.017   9.455
 6072POPC   PO4 9696   2.742   8.993   9.155
 6072POPC   GL1 9697   2.810   8.996   8.855
 6072POPC   GL2 9698   2.832   9.050   8.855
 6072POPC   C1A 9699   2.783   8.936   8.555
 6072POPC   D2A 9700   2.779   9.002   8.255
 6072POPC   C3A 9701   2.811   8.997   7.955
 6072POPC   C4A 9702   2.724   8.940   7.655
 6072POPC   C1B 9703   2.920   9.171   8.555
 6072POPC   C2B 9704   2.879   9.192   8.255
 6072POPC   C3B 9705   2.881   9.152   7.955
 6072POPC   C4B 9706   2.928   9.163   7.655
 6073POPC   NC3 9707  33.036  19.040   9.455
 6073POPC   PO4 9708  32.980  19.074   9.155
 6073POPC   GL1 9709  33.031  19.026   8.855
 6073POPC   GL2 9710  33.049  19.116   8.855
 6073POPC   C1A 9711  33.042  19.105   8.555
 6073POPC   D2A 9712  33.070  19.026   8.255
 6073POPC   C3A 9713  32.995  19.047   7.955
 6073POPC   C4A 9714  33.051  19.074   7.655
 6073POPC   C1B 9715  33.130  19.222   8.555
 6073POPC   C2B 9716  33.158  19.316   8.255
 6073POPC   C3B 9717  33.202  19.287   7.955
 6073POPC   C4B 9718  33.195  19.257   7.655
 6074POPC   NC3 9719  33.003  41.591   9.455
 6074POPC   PO4 9720  32.989  41.574   9.155
 6074POPC   GL1 9721  33.036  41.588   8.855
 6074POPC   GL2 9722  33.068  41.676   8.855
 6074POPC   C1A 9723  33.035  41.509   8.555
 6074POPC   D2A 9724  33.048  41.593   8.255
 6074POPC   C3A 9725  33.024  41.589   7.955
 6074POPC   C4A 9726  32.986  41.584   7.655
 6074POPC   C1B 9727  33.113  41.813   8.555
 6074POPC   C2B 9728  33.120  41.835   8.255
 6074POPC   C3B 9729  33.132  41.794   7.955
 6074POPC   C4B 9730  33.130  41.849   7.655
 6075POPC   NC3 9731  25.230  15.984   9.455
 6075POPC   PO4 9732  25.225  15.924   9.155
 6075POPC   GL1 9733  25.277  16.005   8.855
 6075POPC   GL2 9734  25.179  16.101   8.855
 6075POPC   C1A 9735  25.297  15.979   8.555
 6075POPC   D2A 9736  25.217  15.942   8.255
 6075POPC   C3A 9737  25.223  15.942   7.955
 6075POPC   C4A 9738  25.226  15.918   7.655
 6075POPC   C1B 9739  25.115  16.196   8.555
 6075POPC   C2B 9740  25.181  16.170   8.255
 6075POPC   C3B 9741  25.083  16.140   7.955
 6075POPC   C4B 9742  25.141  16.164   7.655
 6076POPC   NC3 9743  36.902  33.790   9.455
 6076POPC   PO4 9744  36.899  33.833   9.155
 6076POPC   GL1 9745  36.939  33.760   8.855
 6076POPC   GL2 9746  36.967  33.715   8.855
 6076POPC   C1A 9747  36.937  33.814   8.555
 6076POPC   D2A 9748  36.922  33.794   8.255
 6076POPC   C3A 9749  36.908  33.789   7.955
 6076POPC   C4A 9750  36.953  33.837   7.655
 6076POPC   C1B 9751  37.061  33.677   8.555
 6076POPC   C2B 9752  37.132  33.610   8.255
 6076POPC   C3B 9753  37.056  33.644   7.955
 6076POPC   C4B 9754  37.107  33.630   7.655
 6077POPC   NC3 9755  22.134  22.943   9.455
 6077POPC   PO4 9756  22.118  22.935   9.155
 6077POPC   GL1 9757  22.205  22.899   8.855
 6077POPC   GL2 9758  22.138  22.819   8.855
 6077POPC   C1A 9759  22.184  22.949   8.555
 6077POPC   D2A 9760  22.203  22.900   8.255
 6077POPC   C3A 9761  22.129  22.955   7.955
 6077POPC   C4A 9762  22.186  22.899   7.655
 6077POPC   C1B 9763  22.107  22.681   8.555
 6077POPC   C2B 9764  22.050  22.718   8.255
 6077POPC   C3B 9765  22.033  22.666   7.955
 6077POPC   C4B 9766  22.035  22.706   7.655
 6078POPC   NC3 9767  40.755  16.726   9.455
 6078POPC   PO4 9768  40.786  16.720   9.155
 6078POPC   GL1 9769  40.814  16.686   8.855
 6078POPC   GL2 9770  40.634  16.714   8.855
 6078POPC   C1A 9771  40.747  16.777   8.555
 6078POPC   D2A 9772  40.812  16.737   8.255
 6078POPC   C3A 9773  40.828  16.761   7.955
 6078POPC   C4A 9774  40.752  16.710   7.655
 6078POPC   C1B 9775  40.501  16.791   8.555
 6078POPC   C2B 9776  40.541  16.737   8.255
 6078POPC   C3B 9777  40.485  16.768   7.955
 6078POPC   C4B 9778  40.554  16.750   7.655
 6079POPC   NC3 9779   1.969  12.074   9.455
 6079POPC   PO4 9780   2.036  12.050   9.155
 6079POPC   GL1 9781   2.038  12.066   8.855
 6079POPC   GL2 9782   2.149  12.079   8.855
 6079POPC   C1A 9783   1.949  12.043   8.555
 6079POPC   D2A 9784   1.947  12.053   8.255
 6079POPC   C3A 9785   1.945  12.102   7.955
 6079POPC   C4A 9786   2.034  12.051   7.655
 6079POPC   C1B 9787   2.250  12.136   8.555
 6079POPC   C2B 9788   2.189  12.116   8.255
 6079POPC   C3B 9789   2.195  12.178   7.955
 6079POPC   C4B 9790   2.182  12.155   7.655
 6080POPC   NC3 9791  11.294  33.789   9.455
 6080POPC   PO4 9792  11.260  33.821   9.155
 6080POPC   GL1 9793  11.277  33.792   8.855
 6080POPC   GL2 9794  11.350  33.875   8.855
 6080POPC   C1A 9795  11.314  33.833   8.555
 6080POPC   D2A 9796  11.308  33.825   8.255
 6080POPC   C3A 9797  11.347  33.847   7.955
 6080POPC   C4A 9798  11.297  33.806   7.655
 6080POPC   C1B 9799  11.293  34.081   8.555
 6080POPC   C2B 9800  11.284  34.026   8.255
 6080POPC   C3B 9801  11.308  34.039   7.955
 6080POPC   C4B 9802  11.352  34.021   7.655
 6081POPC   NC3 9803   5.122  43.076   9.455
 6081POPC   PO4 9804   5.126  43.123   9.155
 6081POPC   GL1 9805   5.129  43.074   8.855
 6081POPC   GL2 9806   5.216  43.141   8.855
 6081POPC   C1A 9807   5.112  43.127   8.555
 6081POPC   D2A 9808   5.048  43.108   8.255
 6081POPC   C3A 9809   5.095  43.098   7.955
 6081POPC   C4A 9810   5.061  43.131   7.655
 6081POPC   C1B 9811   5.325  43.254   8.555
 6081POPC   C2B 9812   5.261  43.271   8.255
 6081POPC   C3B 9813   5.296  43.255   7.955
 6081POPC   C4B 9814   5.319  43.260   7.655
 6082POPC   NC3 9815   3.565  10.495   9.455
 6082POPC   PO4 9816   3.579  10.483   9.155
 6082POPC   GL1 9817   3.502  10.563   8.855
 6082POPC   GL2 9818   3.706  10.547   8.855
 6082POPC   C1A 9819   3.500  10.530   8.555
 6082POPC   D2A 9820   3.541  10.509   8.255
 6082POPC   C3A 9821   3.556  10.538   7.955
 6082POPC   C4A 9822   3.546  10.531   7.655
 6082POPC   C1B 9823   3.792  10.601   8.555
 6082POPC   C2B 9824   3.779  10.506   8.255
 6082POPC   C3B 9825   3.830  10.576   7.955
 6082POPC   C4B 9826   3.814  10.522   7.655
 6083POPC   NC3 9827  24.513  44.637   9.455
 6083POPC   PO4 9828  24.509  44.697   9.155
 6083POPC   GL1 9829  24.511  44.627   8.855
 6083POPC   GL2 9830  24.385  44.576   8.855
 6083POPC   C1A 9831  24.492  44.617   8.555
 6083POPC   D2A 9832  24.503  44.687   8.255
 6083POPC   C3A 9833  24.487  44.678   7.955
 6083POPC   C4A 9834  24.447  44.702   7.655
 6083POPC   C1B 9835  24.323  44.566   8.555
 6083POPC   C2B 9836  24.280  44.575   8.255
 6083POPC   C3B 9837  24.296  44.491   7.955
 6083POPC   C4B 9838  24.250  44.568   7.655
 6084POPC   NC3 9839  38.416  29.890   9.455
 6084POPC   PO4 9840  38.447  29.960   9.155
 6084POPC   GL1 9841  38.466  29.926   8.855
 6084POPC   GL2 9842  38.390  30.051   8.855
 6084POPC   C1A 9843  38.452  29.906   8.555
 6084POPC   D2A 9844  38.412  29.947   8.255
 6084POPC   C3A 9845  38.441  29.948   7.955
 6084POPC   C4A 9846  38.497  29.926   7.655
 6084POPC   C1B 9847  38.295  30.179   8.555
 6084POPC   C2B 9848  38.313  30.130   8.255
 6084POPC   C3B 9849  38.323  30.091   7.955
 6084POPC   C4B 9850  38.284  30.168   7.655
 6085POPC   NC3 9851   9.795  22.198   9.455
 6085POPC   PO4 9852   9.723  22.117   9.155
 6085POPC   GL1 9853   9.721  22.171   8.855
 6085POPC   GL2 9854   9.750  22.295   8.855
 6085POPC   C1A 9855   9.786  22.148   8.555
 6085POPC   D2A 9856   9.784  22.117   8.255
 6085POPC   C3A 9857   9.718  22.154   7.955
 6085POPC   C4A 9858   9.722  22.161   7.655
 6085POPC   C1B 9859   9.728  22.379   8.555
 6085POPC   C2B 9860   9.723  22.417   8.255
 6085POPC   C3B 9861   9.691  22.443   7.955
 6085POPC   C4B 9862   9.679  22.402   7.655
 6086POPC   NC3 9863  37.661  36.857   9.455
 6086POPC   PO4 9864  37.701  36.895   9.155
 6086POPC   GL1 9865  37.656  36.952   8.855
 6086POPC   GL2 9866  37.750  37.018   8.855
 6086POPC   C1A 9867  37.676  36.856   8.555
 6086POPC   D2A 9868  37.706  36.856   8.255
 6086POPC   C3A 9869  37.641  36.886   7.955
 6086POPC   C4A 9870  37.642  36.896   7.655
 6086POPC   C1B 9871  37.772  37.156   8.555
 6086POPC   C2B 9872  37.688  37.187   8.255
 6086POPC   C3B 9873  37.726  37.132   7.955
 6086POPC   C4B 9874  37.683  37.121   7.655
 6087POPC   NC3 9875  14.453  22.930   9.455
 6087POPC   PO4 9876  14.436  22.984   9.155
 6087POPC   GL1 9877  14.419  22.947   8.855
 6087POPC   GL2 9878  14.555  22.929   8.855
 6087POPC   C1A 9879  14.378  22.896   8.555
 6087POPC   D2A 9880  14.432  22.920   8.255
 6087POPC   C3A 9881  14.438  22.948   7.955
 6087POPC   C4A 9882  14.374  22.908   7.655
 6087POPC   C1B 9883  14.679  22.969   8.555
 6087POPC   C2B 9884  14.677  22.936   8.255
 6087POPC   C3B 9885  14.687  22.895   7.955
 6087POPC   C4B 9886  14.605  22.913   7.655
 6088POPC   NC3 9887  39.998  40.786   9.455
 6088POPC   PO4 9888  40.014  40.829   9.155
 6088POPC   GL1 9889  39.987  40.765   8.855
 6088POPC   GL2 9890  39.961  40.932   8.855
 6088POPC   C1A 9891  39.965  40.743   8.555
 6088POPC   D2A 9892  40.021  40.821   8.255
 6088POPC   C3A 9893  39.958  40.752   7.955
 6088POPC   C4A 9894  40.025  40.811   7.655
 6088POPC   C1B 9895  39.942  40.984   8.555
 6088POPC   C2B 9896  39.889  40.992   8.255
 6088POPC   C3B 9897  39.926  40.971   7.955
 6088POPC   C4B 9898  39.945  41.035   7.655
 6089POPC   NC3 9899   6.670   5.861   9.455
 6089POPC   PO4 9900   6.606   5.873   9.155
 6089POPC   GL1 9901   6.664   5.834   8.855
 6089POPC   GL2 9902   6.576   5.946   8.855
 6089POPC   C1A 9903   6.620   5.853   8.555
 6089POPC   D2A 9904   6.654   5.837   8.255
 6089POPC   C3A 9905   6.653   5.862   7.955
 6089POPC   C4A 9906   6.685   5.902   7.655
 6089POPC   C1B 9907   6.440   5.993   8.555
 6089POPC   C2B 9908   6.485   6.008   8.255
 6089POPC   C3B 9909   6.461   6.090   7.955
 6089POPC   C4B 9910   6.453   6.053   7.655
 6090POPC   NC3 9911  22.172  12.838   9.455
 6090POPC   PO4 9912  22.147  12.819   9.155
 6090POPC   GL1 9913  22.134  12.869   8.855
 6090POPC   GL2 9914  22.147  12.972   8.855
 6090POPC   C1A 9915  22.153  12.819   8.555
 6090POPC   D2A 9916  22.123  12.813   8.255
 6090POPC   C3A 9917  22.133  12.858   7.955
 6090POPC   C4A 9918  22.170  12.862   7.655
 6090POPC   C1B 9919  22.212  13.127   8.555
 6090POPC   C2B 9920  22.200  13.084   8.255
 6090POPC   C3B 9921  22.256  13.053   7.955
 6090POPC   C4B 9922  22.201  13.132   7.655
 6091POPC   NC3 9923  25.296  14.407   9.455
 6091POPC   PO4 9924  25.294  14.453   9.155
 6091POPC   GL1 9925  25.293  14.393   8.855
 6091POPC   GL2 9926  25.296  14.303   8.855
 6091POPC   C1A 9927  25.262  14.422   8.555
 6091POPC   D2A 9928  25.309  14.371   8.255
 6091POPC   C3A 9929  25.314  14.373   7.955
 6091POPC   C4A 9930  25.219  14.408   7.655
 6091POPC   C1B 9931  25.352  14.192   8.555
 6091POPC   C2B 9932  25.379  14.190   8.255
 6091POPC   C3B 9933  25.325  14.211   7.955
 6091POPC   C4B 9934  25.394  14.219   7.655
 6092POPC   NC3 9935  43.852  19.092   9.455
 6092POPC   PO4 9936  43.901  19.056   9.155
 6092POPC   GL1 9937  43.855  19.049   8.855
 6092POPC   GL2 9938  43.863  18.934   8.855
 6092POPC   C1A 9939  43.868  19.041   8.555
 6092POPC   D2A 9940  43.883  19.013   8.255
 6092POPC   C3A 9941  43.921  19.041   7.955
 6092POPC   C4A 9942  43.843  19.033   7.655
 6092POPC   C1B 9943  43.810  18.810   8.555
 6092POPC   C2B 9944  43.755  18.865   8.255
 6092POPC   C3B 9945  43.789  18.793   7.955
 6092POPC   C4B 9946  43.821  18.858   7.655
 6093POPC   NC3 9947  15.190   8.989   9.455
 6093POPC   PO4 9948  15.173   8.961   9.155
 6093POPC   GL1 9949  15.158   8.961   8.855
 6093POPC   GL2 9950  15.258   9.037   8.855
 6093POPC   C1A 9951  15.197   8.941   8.555
 6093POPC   D2A 9952  15.181   8.939   8.255
 6093POPC   C3A 9953  15.193   8.978   7.955
 6093POPC   C4A 9954  15.225   8.971   7.655
 6093POPC   C1B 9955  15.382   9.159   8.555
 6093POPC   C2B 9956  15.385   9.121   8.255
 6093POPC   C3B 9957  15.417   9.153   7.955
 6093POPC   C4B 9958  15.412   9.179   7.655
 6094POPC   NC3 9959   3.496  44.634   9.455
 6094POPC   PO4 9960   3.580  44.653   9.155
 6094POPC   GL1 9961   3.495  44.667   8.855
 6094POPC   GL2 9962   3.432  44.769   8.855
 6094POPC   C1A 9963   3.524  44.690   8.555
 6094POPC   D2A 9964   3.508  44.694   8.255
 6094POPC   C3A 9965   3.548  44.638   7.955
 6094POPC   C4A 9966   3.561  44.619   7.655
 6094POPC   C1B 9967   3.355  44.839   8.555
 6094POPC   C2B 9968   3.366  44.887   8.255
 6094POPC   C3B 9969   3.397  44.842   7.955
 6094POPC   C4B 9970   3.341  44.849   7.655
 6095POPC   NC3 9971  43.130  39.230   9.455
 6095POPC   PO4 9972  43.068  39.226   9.155
 6095POPC   GL1 9973  43.072  39.198   8.855
 6095POPC   GL2 9974  43.250  39.258   8.855
 6095POPC   C1A 9975  43.147  39.193   8.555
 6095POPC   D2A 9976  43.067  39.206   8.255
 6095POPC   C3A 9977  43.122  39.270   7.955
 6095POPC   C4A 9978  43.108  39.216   7.655
 6095POPC   C1B 9979  43.324  39.259   8.555
 6095POPC   C2B 9980  43.310  39.293   8.255
 6095POPC   C3B 9981  43.348  39.246   7.955
 6095POPC   C4B 9982  43.402  39.312   7.655
 6096POPC   NC3 9983  24.478  31.454   9.455
 6096POPC   PO4 9984  24.526  31.495   9.155
 6096POPC   GL1 9985  24.529  31.485   8.855
 6096POPC   GL2 9986  24.611  31.535   8.855
 6096POPC   C1A 9987  24.450  31.441   8.555
 6096POPC   D2A 9988  24.525  31.487   8.255
 6096POPC   C3A 9989  24.444  31.507   7.955
 6096POPC   C4A 9990  24.461  31.511   7.655
 6096POPC   C1B 9991  24.697  31.612   8.555
 6096POPC   C2B 9992  24.690  31.633   8.255
 6096POPC   C3B 9993  24.706  31.575   7.955
 6096POPC   C4B 9994  24.681  31.568   7.655
 6097POPC   NC3 9995  13.636  21.409   9.455
 6097POPC   PO4 9996  13.631  21.354   9.155
 6097POPC   GL1 9997  13.597  21.417   8.855
 6097POPC   GL2 9998  13.731  21.453   8.855
 6097POPC   C1A 9999  13.602  21.435   8.555
 6097POPC   D2A10000  13.580  21.357   8.255
 6097POPC   C3A10001  13.653  21.385   7.955
 6097POPC   C4A10002  13.578  21.339   7.655
 6097POPC   C1B10003  13.789  21.633   8.555
 6097POPC   C2B10004  13.807  21.540   8.255
 6097POPC   C3B10005  13.739  21.609   7.955
 6097POPC   C4B10006  13.751  21.633   7.655
 6098POPC   NC310007  15.908  43.837   9.455
 6098POPC   PO410008  15.948  43.850   9.155
 6098POPC   GL110009  16.004  43.888   8.855
 6098POPC   GL210010  15.826  43.839   8.855
 6098POPC   C1A10011  15.958  43.849   8.555
 6098POPC   D2A10012  15.922  43.924   8.255
 6098POPC   C3A10013  15.958  43.910   7.955
 6098POPC   C4A10014  15.912  43.895   7.655
 6098POPC   C1B10015  15.658  43.901   8.555
 6098POPC   C2B10016  15.675  43.911   8.255
 6098POPC   C3B10017  15.664  43.889   7.955
 6098POPC   C4B10018  15.665  43.892   7.655
 6099POPC   NC310019  18.332  21.422   9.455
 6099POPC   PO410020  18.300  21.361   9.155
 6099POPC   GL110021  18.297  21.405   8.855
 6099POPC   GL210022  18.261  21.256   8.855
 6099POPC   C1A10023  18.233  21.397   8.555
 6099POPC   D2A10024  18.277  21.344   8.255
 6099POPC   C3A10025  18.310  21.354   7.955
 6099POPC   C4A10026  18.330  21.433   7.655
 6099POPC   C1B10027  18.236  21.169   8.555
 6099POPC   C2B10028  18.306  21.155   8.255
 6099POPC   C3B10029  18.240  21.166   7.955
 6099POPC   C4B10030  18.277  21.137   7.655
 6100POPC   NC310031  12.812  24.517   9.455
 6100POPC   PO410032  12.850  24.482   9.155
 6100POPC   GL110033  12.880  24.510   8.855
 6100POPC   GL210034  12.778  24.434   8.855
 6100POPC   C1A10035  12.900  24.450   8.555
 6100POPC   D2A10036  12.850  24.536   8.255
 6100POPC   C3A10037  12.832  24.533   7.955
 6100POPC   C4A10038  12.807  24.507   7.655
 6100POPC   C1B10039  12.600  24.412   8.555
 6100POPC   C2B10040  12.612  24.426   8.255
 6100POPC   C3B10041  12.618  24.348   7.955
 6100POPC   C4B10042  12.646  24.410   7.655
 6101POPC   NC310043  44.666   2.792   9.455
 6101POPC   PO410044  44.701   2.771   9.155
 6101POPC   GL110045  44.614   2.756   8.855
 6101POPC   GL210046  44.561   2.648   8.855
 6101POPC   C1A10047  44.642   2.741   8.555
 6101POPC   D2A10048  44.665   2.804   8.255
 6101POPC   C3A10049  44.657   2.757   7.955
 6101POPC   C4A10050  44.613   2.742   7.655
 6101POPC   C1B10051  44.538   2.560   8.555
 6101POPC   C2B10052  44.518   2.517   8.255
 6101POPC   C3B10053  44.534   2.512   7.955
 6101POPC   C4B10054  44.570   2.561   7.655
 6102POPC   NC310055  42.345  19.049   9.455
 6102POPC   PO410056  42.308  19.052   9.155
 6102POPC   GL110057  42.360  19.086   8.855
 6102POPC   GL210058  42.453  18.968   8.855
 6102POPC   C1A10059  42.303  19.106   8.555
 6102POPC   D2A10060  42.349  19.107   8.255
 6102POPC   C3A10061  42.344  19.031   7.955
 6102POPC   C4A10062  42.375  19.078   7.655
 6102POPC   C1B10063  42.549  19.019   8.555
 6102POPC   C2B10064  42.600  19.016   8.255
 6102POPC   C3B10065  42.533  18.944   7.955
 6102POPC   C4B10066  42.567  19.014   7.655
 6103POPC   NC310067  23.760  25.308   9.455
 6103POPC   PO410068  23.758  25.254   9.155
 6103POPC   GL110069  23.688  25.255   8.855
 6103POPC   GL210070  23.823  25.311   8.855
 6103POPC   C1A10071  23.753  25.306   8.555
 6103POPC   D2A10072  23.680  25.253   8.255
 6103POPC   C3A10073  23.747  25.275   7.955
 6103POPC   C4A10074  23.759  25.303   7.655
 6103POPC   C1B10075  24.002  25.315   8.555
 6103POPC   C2B10076  23.958  25.316   8.255
 6103POPC   C3B10077  23.949  25.313   7.955
 6103POPC   C4B10078  23.986  25.251   7.655
 6104POPC   NC310079   6.636  35.309   9.455
 6104POPC   PO410080   6.665  35.387   9.155
 6104POPC   GL110081   6.619  35.311   8.855
 6104POPC   GL210082   6.725  35.432   8.855
 6104POPC   C1A10083   6.686  35.308   8.555
 6104POPC   D2A10084   6.678  35.374   8.255
 6104POPC   C3A10085   6.607  35.367   7.955
 6104POPC   C4A10086   6.686  35.316   7.655
 6104POPC   C1B10087   6.737  35.588   8.555
 6104POPC   C2B10088   6.771  35.566   8.255
 6104POPC   C3B10089   6.683  35.568   7.955
 6104POPC   C4B10090   6.691  35.574   7.655
 6105POPC   NC310091  29.139  44.642   9.455
 6105POPC   PO410092  29.141  44.665   9.155
 6105POPC   GL110093  29.116  44.690   8.855
 6105POPC   GL210094  29.087  44.774   8.855
 6105POPC   C1A10095  29.158  44.677   8.555
 6105POPC   D2A10096  29.193  44.703   8.255
 6105POPC   C3A10097  29.195  44.679   7.955
 6105POPC   C4A10098  29.131  44.621   7.655
 6105POPC   C1B10099  28.998  44.789   8.555
 6105POPC   C2B10100  28.973  44.774   8.255
 6105POPC   C3B10101  28.935  44.834   7.955
 6105POPC   C4B10102  28.994  44.862   7.655
 6106POPC   NC310103   1.974  13.580   9.455
 6106POPC   PO410104   2.025  13.674   9.155
 6106POPC   GL110105   1.969  13.611   8.855
 6106POPC   GL210106   1.887  13.609   8.855
 6106POPC   C1A10107   2.017  13.599   8.555
 6106POPC   D2A10108   2.010  13.636   8.255
 6106POPC   C3A10109   1.943  13.667   7.955
 6106POPC   C4A10110   2.013  13.661   7.655
 6106POPC   C1B10111   1.791  13.672   8.555
 6106POPC   C2B10112   1.750  13.667   8.255
 6106POPC   C3B10113   1.718  13.709   7.955
 6106POPC   C4B10114   1.749  13.709   7.655
 6107POPC   NC310115  30.656   3.551   9.455
 6107POPC   PO410116  30.722   3.549   9.155
 6107POPC   GL110117  30.727   3.542   8.855
 6107POPC   GL210118  30.822   3.638   8.855
 6107POPC   C1A10119  30.661   3.513   8.555
 6107POPC   D2A10120  30.702   3.573   8.255
 6107POPC   C3A10121  30.649   3.569   7.955
 6107POPC   C4A10122  30.731   3.502   7.655
 6107POPC   C1B10123  30.862   3.688   8.555
 6107POPC   C2B10124  30.839   3.687   8.255
 6107POPC   C3B10125  30.844   3.705   7.955
 6107POPC   C4B10126  30.896   3.708   7.655
 6108POPC   NC310127  40.788  31.511   9.455
 6108POPC   PO410128  40.759  31.516   9.155
 6108POPC   GL110129  40.778  31.424   8.855
 6108POPC   GL210130  40.803  31.574   8.855
 6108POPC   C1A10131  40.779  31.477   8.555
 6108POPC   D2A10132  40.746  31.451   8.255
 6108POPC   C3A10133  40.774  31.449   7.955
 6108POPC   C4A10134  40.822  31.424   7.655
 6108POPC   C1B10135  40.871  31.741   8.555
 6108POPC   C2B10136  40.869  31.761   8.255
 6108POPC   C3B10137  40.846  31.731   7.955
 6108POPC   C4B10138  40.871  31.739   7.655
 6109POPC   NC310139   9.003  33.013   9.455
 6109POPC   PO410140   8.959  33.027   9.155
 6109POPC   GL110141   8.968  33.058   8.855
 6109POPC   GL210142   8.970  33.105   8.855
 6109POPC   C1A10143   8.939  33.029   8.555
 6109POPC   D2A10144   8.944  33.069   8.255
 6109POPC   C3A10145   8.924  32.985   7.955
 6109POPC   C4A10146   8.980  32.981   7.655
 6109POPC   C1B10147   8.953  33.237   8.555
 6109POPC   C2B10148   8.892  33.233   8.255
 6109POPC   C3B10149   8.958  33.298   7.955
 6109POPC   C4B10150   8.921  33.301   7.655
 6110POPC   NC310151  21.387   0.432   9.455
 6110POPC   PO410152  21.416   0.429   9.155
 6110POPC   GL110153  21.411   0.427   8.855
 6110POPC   GL210154  21.475   0.330   8.855
 6110POPC   C1A10155  21.390   0.476   8.555
 6110POPC   D2A10156  21.367   0.478   8.255
 6110POPC   C3A10157  21.434   0.450   7.955
 6110POPC   C4A10158  21.392   0.427   7.655
 6110POPC   C1B10159  21.483   0.201   8.555
 6110POPC   C2B10160  21.504   0.183   8.255
 6110POPC   C3B10161  21.508   0.233   7.955
 6110POPC   C4B10162  21.484   0.167   7.655
 6111POPC   NC310163  26.009  42.376   9.455
 6111POPC   PO410164  26.044  42.355   9.155
 6111POPC   GL110165  26.035  42.335   8.855
 6111POPC   GL210166  26.078  42.238   8.855
 6111POPC   C1A10167  26.045  42.371   8.555
 6111POPC   D2A10168  26.057  42.303   8.255
 6111POPC   C3A10169  26.078  42.311   7.955
 6111POPC   C4A10170  26.036  42.314   7.655
 6111POPC   C1B10171  26.056  42.112   8.555
 6111POPC   C2B10172  26.018  42.081   8.255
 6111POPC   C3B10173  26.053  42.089   7.955
 6111POPC   C4B10174  26.063  42.068   7.655
 6112POPC   NC310175  29.892  14.376   9.455
 6112POPC   PO410176  29.948  14.443   9.155
 6112POPC   GL110177  29.895  14.413   8.855
 6112POPC   GL210178  29.901  14.315   8.855
 6112POPC   C1A10179  29.889  14.376   8.555
 6112POPC   D2A10180  29.934  14.445   8.255
 6112POPC   C3A10181  29.873  14.386   7.955
 6112POPC   C4A10182  29.908  14.354   7.655
 6112POPC   C1B10183  29.965  14.146   8.555
 6112POPC   C2B10184  29.984  14.149   8.255
 6112POPC   C3B10185  29.905  14.117   7.955
 6112POPC   C4B10186  29.981  14.192   7.655
 6113POPC   NC310187   7.412  42.317   9.455
 6113POPC   PO410188   7.397  42.375   9.155
 6113POPC   GL110189   7.465  42.349   8.855
 6113POPC   GL210190   7.289  42.244   8.855
 6113POPC   C1A10191   7.470  42.367   8.555
 6113POPC   D2A10192   7.389  42.300   8.255
 6113POPC   C3A10193   7.402  42.353   7.955
 6113POPC   C4A10194   7.374  42.290   7.655
 6113POPC   C1B10195   7.211  42.204   8.555
 6113POPC   C2B10196   7.215  42.153   8.255
 6113POPC   C3B10197   7.159  42.156   7.955
 6113POPC   C4B10198   7.233  42.252   7.655
 6114POPC   NC310199   1.192  25.261   9.455
 6114POPC   PO410200   1.170  25.253   9.155
 6114POPC   GL110201   1.234  25.252   8.855
 6114POPC   GL210202   1.276  25.400   8.855
 6114POPC   C1A10203   1.260  25.229   8.555
 6114POPC   D2A10204   1.230  25.305   8.255
 6114POPC   C3A10205   1.236  25.301   7.955
 6114POPC   C4A10206   1.221  25.289   7.655
 6114POPC   C1B10207   1.221  25.483   8.555
 6114POPC   C2B10208   1.278  25.548   8.255
 6114POPC   C3B10209   1.235  25.545   7.955
 6114POPC   C4B10210   1.304  25.480   7.655
 6115POPC   NC310211  10.536  26.035   9.455
 6115POPC   PO410212  10.491  26.035   9.155
 6115POPC   GL110213  10.522  26.011   8.855
 6115POPC   GL210214  10.395  26.098   8.855
 6115POPC   C1A10215  10.545  26.000   8.555
 6115POPC   D2A10216  10.495  26.080   8.255
 6115POPC   C3A10217  10.495  26.001   7.955
 6115POPC   C4A10218  10.546  26.055   7.655
 6115POPC   C1B10219  10.297  26.166   8.555
 6115POPC   C2B10220  10.257  26.208   8.255
 6115POPC   C3B10221  10.288  26.142   7.955
 6115POPC   C4B10222  10.292  26.162   7.655
 6116POPC   NC310223  27.641   8.241   9.455
 6116POPC   PO410224  27.597   8.188   9.155
 6116POPC   GL110225  27.595   8.242   8.855
 6116POPC   GL210226  27.532   8.283   8.855
 6116POPC   C1A10227  27.595   8.156   8.555
 6116POPC   D2A10228  27.579   8.159   8.255
 6116POPC   C3A10229  27.596   8.214   7.955
 6116POPC   C4A10230  27.637   8.160   7.655
 6116POPC   C1B10231  27.510   8.472   8.555
 6116POPC   C2B10232  27.514   8.399   8.255
 6116POPC   C3B10233  27.531   8.426   7.955
 6116POPC   C4B10234  27.491   8.450   7.655
 6117POPC   NC310235  40.032   5.897   9.455
 6117POPC   PO410236  39.998   5.862   9.155
 6117POPC   GL110237  39.982   5.850   8.855
 6117POPC   GL210238  40.112   5.889   8.855
 6117POPC   C1A10239  40.023   5.822   8.555
 6117POPC   D2A10240  40.005   5.847   8.255
 6117POPC   C3A10241  39.994   5.861   7.955
 6117POPC   C4A10242  40.051   5.830   7.655
 6117POPC   C1B10243  40.293   5.921   8.555
 6117POPC   C2B10244  40.276   5.911   8.255
 6117POPC   C3B10245  40.238   5.860   7.955
 6117POPC   C4B10246  40.251   5.884   7.655
 6118POPC   NC310247  26.090  40.805   9.455
 6118POPC   PO410248  26.066  40.733   9.155
 6118POPC   GL110249  26.051  40.833   8.855
 6118POPC   GL210250  25.898  40.662   8.855
 6118POPC   C1A10251  26.078  40.797   8.555
 6118POPC   D2A10252  26.035  40.789   8.255
 6118POPC   C3A10253  26.004  40.756   7.955
 6118POPC   C4A10254  26.014  40.807   7.655
 6118POPC   C1B10255  25.822  40.599   8.555
 6118POPC   C2B10256  25.819  40.605   8.255
 6118POPC   C3B10257  25.806  40.626   7.955
 6118POPC   C4B10258  25.826  40.668   7.655
 6119POPC   NC310259   6.687  40.757   9.455
 6119POPC   PO410260   6.653  40.776   9.155
 6119POPC   GL110261   6.639  40.754   8.855
 6119POPC   GL210262   6.557  40.694   8.855
 6119POPC   C1A10263   6.683  40.793   8.555
 6119POPC   D2A10264   6.596  40.761   8.255
 6119POPC   C3A10265   6.661  40.762   7.955
 6119POPC   C4A10266   6.690  40.801   7.655
 6119POPC   C1B10267   6.509  40.517   8.555
 6119POPC   C2B10268   6.475  40.589   8.255
 6119POPC   C3B10269   6.475  40.614   7.955
 6119POPC   C4B10270   6.549  40.597   7.655
 6120POPC   NC310271  25.224   3.560   9.455
 6120POPC   PO410272  25.276   3.495   9.155
 6120POPC   GL110273  25.312   3.585   8.855
 6120POPC   GL210274  25.250   3.381   8.855
 6120POPC   C1A10275  25.294   3.547   8.555
 6120POPC   D2A10276  25.244   3.551   8.255
 6120POPC   C3A10277  25.262   3.574   7.955
 6120POPC   C4A10278  25.287   3.516   7.655
 6120POPC   C1B10279  25.240   3.300   8.555
 6120POPC   C2B10280  25.231   3.251   8.255
 6120POPC   C3B10281  25.185   3.252   7.955
 6120POPC   C4B10282  25.242   3.274   7.655
 6121POPC   NC310283  41.548  34.571   9.455
 6121POPC   PO410284  41.594  34.593   9.155
 6121POPC   GL110285  41.561  34.549   8.855
 6121POPC   GL210286  41.497  34.640   8.855
 6121POPC   C1A10287  41.575  34.607   8.555
 6121POPC   D2A10288  41.557  34.555   8.255
 6121POPC   C3A10289  41.559  34.533   7.955
 6121POPC   C4A10290  41.598  34.565   7.655
 6121POPC   C1B10291  41.427  34.722   8.555
 6121POPC   C2B10292  41.442  34.769   8.255
 6121POPC   C3B10293  41.360  34.746   7.955
 6121POPC   C4B10294  41.399  34.781   7.655
 6122POPC   NC310295   6.616   2.003   9.455
 6122POPC   PO410296   6.595   2.029   9.155
 6122POPC   GL110297   6.652   2.023   8.855
 6122POPC   GL210298   6.636   1.871   8.855
 6122POPC   C1A10299   6.665   1.966   8.555
 6122POPC   D2A10300   6.648   1.957   8.255
 6122POPC   C3A10301   6.626   2.000   7.955
 6122POPC   C4A10302   6.635   2.013   7.655
 6122POPC   C1B10303   6.670   1.780   8.555
 6122POPC   C2B10304   6.652   1.750   8.255
 6122POPC   C3B10305   6.640   1.760   7.955
 6122POPC   C4B10306   6.669   1.735   7.655
 6123POPC   NC310307  11.319  23.745   9.455
 6123POPC   PO410308  11.261  23.737   9.155
 6123POPC   GL110309  11.297  23.708   8.855
 6123POPC   GL210310  11.258  23.618   8.855
 6123POPC   C1A10311  11.270  23.736   8.555
 6123POPC   D2A10312  11.261  23.724   8.255
 6123POPC   C3A10313  11.324  23.751   7.955
 6123POPC   C4A10314  11.264  23.681   7.655
 6123POPC   C1B10315  11.092  23.552   8.555
 6123POPC   C2B10316  11.138  23.536   8.255
 6123POPC   C3B10317  11.076  23.540   7.955
 6123POPC   C4B10318  11.102  23.497   7.655
 6124POPC   NC310319   2.019  10.515   9.455
 6124POPC   PO410320   1.966  10.531   9.155
 6124POPC   GL110321   2.007  10.556   8.855
 6124POPC   GL210322   2.065  10.593   8.855
 6124POPC   C1A10323   2.036  10.546   8.555
 6124POPC   D2A10324   2.029  10.573   8.255
 6124POPC   C3A10325   2.012  10.515   7.955
 6124POPC   C4A10326   1.948  10.543   7.655
 6124POPC   C1B10327   2.243  10.565   8.555
 6124POPC   C2B10328   2.212  10.586   8.255
 6124POPC   C3B10329   2.232  10.548   7.955
 6124POPC   C4B10330   2.207  10.575   7.655
 6125POPC   NC310331  15.999  15.951   9.455
 6125POPC   PO410332  15.935  15.936   9.155
 6125POPC   GL110333  15.975  15.911   8.855
 6125POPC   GL210334  15.975  16.048   8.855
 6125POPC   C1A10335  15.964  15.993   8.555
 6125POPC   D2A10336  15.955  15.907   8.255
 6125POPC   C3A10337  15.939  15.947   7.955
 6125POPC   C4A10338  15.964  15.950   7.655
 6125POPC   C1B10339  16.027  16.162   8.555
 6125POPC   C2B10340  16.060  16.239   8.255
 6125POPC   C3B10341  16.058  16.149   7.955
 6125POPC   C4B10342  16.015  16.176   7.655
 6126POPC   NC310343  33.061  38.435   9.455
 6126POPC   PO410344  33.048  38.414   9.155
 6126POPC   GL110345  32.998  38.431   8.855
 6126POPC   GL210346  32.944  38.529   8.855
 6126POPC   C1A10347  32.991  38.498   8.555
 6126POPC   D2A10348  33.020  38.503   8.255
 6126POPC   C3A10349  33.028  38.502   7.955
 6126POPC   C4A10350  33.011  38.449   7.655
 6126POPC   C1B10351  32.804  38.588   8.555
 6126POPC   C2B10352  32.807  38.572   8.255
 6126POPC   C3B10353  32.866  38.611   7.955
 6126POPC   C4B10354  32.788  38.578   7.655
 6127POPC   NC310355   9.706  20.619   9.455
 6127POPC   PO410356   9.786  20.636   9.155
 6127POPC   GL110357   9.704  20.636   8.855
 6127POPC   GL210358   9.635  20.725   8.855
 6127POPC   C1A10359   9.725  20.624   8.555
 6127POPC   D2A10360   9.780  20.598   8.255
 6127POPC   C3A10361   9.759  20.606   7.955
 6127POPC   C4A10362   9.781  20.627   7.655
 6127POPC   C1B10363   9.610  20.852   8.555
 6127POPC   C2B10364   9.570  20.853   8.255
 6127POPC   C3B10365   9.588  20.826   7.955
 6127POPC   C4B10366   9.559  20.818   7.655
 6128POPC   NC310367  29.940   6.625   9.455
 6128POPC   PO410368  29.970   6.613   9.155
 6128POPC   GL110369  29.931   6.622   8.855
 6128POPC   GL210370  29.845   6.543   8.855
 6128POPC   C1A10371  29.959   6.628   8.555
 6128POPC   D2A10372  29.902   6.661   8.255
 6128POPC   C3A10373  29.881   6.691   7.955
 6128POPC   C4A10374  29.923   6.672   7.655
 6128POPC   C1B10375  29.746   6.395   8.555
 6128POPC   C2B10376  29.812   6.401   8.255
 6128POPC   C3B10377  29.803   6.442   7.955
 6128POPC   C4B10378  29.749   6.459   7.655
 6129POPC   NC310379  35.304   7.430   9.455
 6129POPC   PO410380  35.303   7.381   9.155
 6129POPC   GL110381  35.329   7.454   8.855
 6129POPC   GL210382  35.287   7.563   8.855
 6129POPC   C1A10383  35.308   7.428   8.555
 6129POPC   D2A10384  35.313   7.439   8.255
 6129POPC   C3A10385  35.336   7.459   7.955
 6129POPC   C4A10386  35.376   7.425   7.655
 6129POPC   C1B10387  35.298   7.683   8.555
 6129POPC   C2B10388  35.306   7.710   8.255
 6129POPC   C3B10389  35.281   7.621   7.955
 6129POPC   C4B10390  35.315   7.614   7.655
 6130POPC   NC310391  32.990  31.501   9.455
 6130POPC   PO410392  33.016  31.459   9.155
 6130POPC   GL110393  33.045  31.425   8.855
 6130POPC   GL210394  32.956  31.527   8.855
 6130POPC   C1A10395  33.028  31.502   8.555
 6130POPC   D2A10396  33.067  31.449   8.255
 6130POPC   C3A10397  33.035  31.475   7.955
 6130POPC   C4A10398  33.044  31.443   7.655
 6130POPC   C1B10399  32.777  31.543   8.555
 6130POPC   C2B10400  32.771  31.582   8.255
 6130POPC   C3B10401  32.809  31.562   7.955
 6130POPC   C4B10402  32.798  31.585   7.655
 6131POPC   NC310403  40.035  30.715   9.455
 6131POPC   PO410404  39.972  30.704   9.155
 6131POPC   GL110405  40.036  30.741   8.855
 6131POPC   GL210406  40.042  30.837   8.855
 6131POPC   C1A10407  40.009  30.672   8.555
 6131POPC   D2A10408  39.981  30.657   8.255
 6131POPC   C3A10409  40.009  30.670   7.955
 6131POPC   C4A10410  40.018  30.743   7.655
 6131POPC   C1B10411  40.189  30.923   8.555
 6131POPC   C2B10412  40.187  30.943   8.255
 6131POPC   C3B10413  40.121  30.870   7.955
 6131POPC   C4B10414  40.138  30.953   7.655
 6132POPC   NC310415  44.676   4.330   9.455
 6132POPC   PO410416  44.676   4.363   9.155
 6132POPC   GL110417  44.643   4.361   8.855
 6132POPC   GL210418  44.692   4.396   8.855
 6132POPC   C1A10419  44.645   4.278   8.555
 6132POPC   D2A10420  44.631   4.274   8.255
 6132POPC   C3A10421  44.639   4.272   7.955
 6132POPC   C4A10422  44.656   4.286   7.655
 6132POPC   C1B10423  44.668   4.615   8.555
 6132POPC   C2B10424  44.613   4.560   8.255
 6132POPC   C3B10425  44.662   4.587   7.955
 6132POPC   C4B10426  44.688   4.582   7.655
 6133POPC   NC310427   1.992  14.367   9.455
 6133POPC   PO410428   2.031  14.394   9.155
 6133POPC   GL110429   1.987  14.398   8.855
 6133POPC   GL210430   1.845  14.376   8.855
 6133POPC   C1A10431   1.956  14.367   8.555
 6133POPC   D2A10432   2.021  14.403   8.255
 6133POPC   C3A10433   2.008  14.357   7.955
 6133POPC   C4A10434   1.974  14.419   7.655
 6133POPC   C1B10435   1.816  14.246   8.555
 6133POPC   C2B10436   1.790  14.277   8.255
 6133POPC   C3B10437   1.795  14.258   7.955
 6133POPC   C4B10438   1.814  14.252   7.655
 6134POPC   NC310439   9.783  12.866   9.455
 6134POPC   PO410440   9.720  12.838   9.155
 6134POPC   GL110441   9.736  12.835   8.855
 6134POPC   GL210442   9.799  12.972   8.855
 6134POPC   C1A10443   9.751  12.846   8.555
 6134POPC   D2A10444   9.737  12.811   8.255
 6134POPC   C3A10445   9.706  12.879   7.955
 6134POPC   C4A10446   9.760  12.840   7.655
 6134POPC   C1B10447   9.776  13.060   8.555
 6134POPC   C2B10448   9.785  13.055   8.255
 6134POPC   C3B10449   9.731  13.143   7.955
 6134POPC   C4B10450   9.775  13.114   7.655
 6135POPC   NC310451   4.316  11.347   9.455
 6135POPC   PO410452   4.302  11.264   9.155
 6135POPC   GL110453   4.295  11.269   8.855
 6135POPC   GL210454   4.314  11.190   8.855
 6135POPC   C1A10455   4.360  11.291   8.555
 6135POPC   D2A10456   4.342  11.309   8.255
 6135POPC   C3A10457   4.268  11.310   7.955
 6135POPC   C4A10458   4.282  11.275   7.655
 6135POPC   C1B10459   4.321  11.072   8.555
 6135POPC   C2B10460   4.266  11.008   8.255
 6135POPC   C3B10461   4.297  11.040   7.955
 6135POPC   C4B10462   4.270  11.070   7.655
 6136POPC   NC310463  38.411  24.443   9.455
 6136POPC   PO410464  38.422  24.473   9.155
 6136POPC   GL110465  38.475  24.513   8.855
 6136POPC   GL210466  38.426  24.580   8.855
 6136POPC   C1A10467  38.460  24.451   8.555
 6136POPC   D2A10468  38.502  24.520   8.255
 6136POPC   C3A10469  38.465  24.488   7.955
 6136POPC   C4A10470  38.425  24.465   7.655
 6136POPC   C1B10471  38.491  24.761   8.555
 6136POPC   C2B10472  38.497  24.725   8.255
 6136POPC   C3B10473  38.425  24.763   7.955
 6136POPC   C4B10474  38.492  24.691   7.655
 6137POPC   NC310475  28.327  15.999   9.455
 6137POPC   PO410476  28.414  15.972   9.155
 6137POPC   GL110477  28.344  15.912   8.855
 6137POPC   GL210478  28.367  16.040   8.855
 6137POPC   C1A10479  28.338  15.914   8.555
 6137POPC   D2A10480  28.350  15.973   8.255
 6137POPC   C3A10481  28.334  16.000   7.955
 6137POPC   C4A10482  28.341  15.972   7.655
 6137POPC   C1B10483  28.392  16.239   8.555
 6137POPC   C2B10484  28.413  16.229   8.255
 6137POPC   C3B10485  28.389  16.158   7.955
 6137POPC   C4B10486  28.344  16.163   7.655
 6138POPC   NC310487  19.075  43.922   9.455
 6138POPC   PO410488  19.086  43.904   9.155
 6138POPC   GL110489  19.097  43.843   8.855
 6138POPC   GL210490  19.068  43.963   8.855
 6138POPC   C1A10491  19.096  43.910   8.555
 6138POPC   D2A10492  19.027  43.856   8.255
 6138POPC   C3A10493  19.084  43.875   7.955
 6138POPC   C4A10494  19.071  43.843   7.655
 6138POPC   C1B10495  19.036  44.132   8.555
 6138POPC   C2B10496  19.078  44.127   8.255
 6138POPC   C3B10497  19.120  44.148   7.955
 6138POPC   C4B10498  19.087  44.139   7.655
 6139POPC   NC310499  19.020   5.112   9.455
 6139POPC   PO410500  19.082   5.138   9.155
 6139POPC   GL110501  19.023   5.104   8.855
 6139POPC   GL210502  18.952   5.028   8.855
 6139POPC   C1A10503  19.052   5.056   8.555
 6139POPC   D2A10504  19.048   5.134   8.255
 6139POPC   C3A10505  19.064   5.062   7.955
 6139POPC   C4A10506  19.087   5.101   7.655
 6139POPC   C1B10507  18.826   5.020   8.555
 6139POPC   C2B10508  18.809   5.032   8.255
 6139POPC   C3B10509  18.796   4.944   7.955
 6139POPC   C4B10510  18.865   4.997   7.655
 6140POPC   NC310511  35.317  31.457   9.455
 6140POPC   PO410512  35.312  31.441   9.155
 6140POPC   GL110513  35.360  31.480   8.855
 6140POPC   GL210514  35.201  31.380   8.855
 6140POPC   C1A10515  35.351  31.468   8.555
 6140POPC   D2A10516  35.318  31.443   8.255
 6140POPC   C3A10517  35.344  31.488   7.955
 6140POPC   C4A10518  35.368  31.486   7.655
 6140POPC   C1B10519  35.153  31.350   8.555
 6140POPC   C2B10520  35.164  31.361   8.255
 6140POPC   C3B10521  35.158  31.308   7.955
 6140POPC   C4B10522  35.191  31.348   7.655
 6141POPC   NC310523  42.349   2.018   9.455
 6141POPC   PO410524  42.315   1.992   9.155
 6141POPC   GL110525  42.312   2.009   8.855
 6141POPC   GL210526  42.187   1.883   8.855
 6141POPC   C1A10527  42.327   1.961   8.555
 6141POPC   D2A10528  42.329   1.962   8.255
 6141POPC   C3A10529  42.308   1.965   7.955
 6141POPC   C4A10530  42.315   1.998   7.655
 6141POPC   C1B10531  42.124   1.835   8.555
 6141POPC   C2B10532  42.139   1.800   8.255
 6141POPC   C3B10533  42.137   1.841   7.955
 6141POPC   C4B10534  42.175   1.823   7.655
 6142POPC   NC310535  41.530   6.635   9.455
 6142POPC   PO410536  41.595   6.644   9.155
 6142POPC   GL110537  41.529   6.599   8.855
 6142POPC   GL210538  41.685   6.784   8.855
 6142POPC   C1A10539  41.578   6.618   8.555
 6142POPC   D2A10540  41.562   6.639   8.255
 6142POPC   C3A10541  41.569   6.669   7.955
 6142POPC   C4A10542  41.525   6.665   7.655
 6142POPC   C1B10543  41.677   6.848   8.555
 6142POPC   C2B10544  41.731   6.868   8.255
 6142POPC   C3B10545  41.743   6.818   7.955
 6142POPC   C4B10546  41.765   6.829   7.655
 6143POPC   NC310547  42.378  44.691   9.455
 6143POPC   PO410548  42.353  44.694   9.155
 6143POPC   GL110549  42.364  44.674   8.855
 6143POPC   GL210550  42.282  44.627   8.855
 6143POPC   C1A10551  42.329  44.655   8.555
 6143POPC   D2A10552  42.362  44.641   8.255
 6143POPC   C3A10553  42.384  44.667   7.955
 6143POPC   C4A10554  42.325  44.667   7.655
 6143POPC   C1B10555  42.140  44.500   8.555
 6143POPC   C2B10556  42.105  44.493   8.255
 6143POPC   C3B10557  42.102  44.466   7.955
 6143POPC   C4B10558  42.108  44.526   7.655
 6144POPC   NC310559  28.359  22.897   9.455
 6144POPC   PO410560  28.410  22.890   9.155
 6144POPC   GL110561  28.403  22.987   8.855
 6144POPC   GL210562  28.398  22.818   8.855
 6144POPC   C1A10563  28.393  22.949   8.555
 6144POPC   D2A10564  28.328  22.969   8.255
 6144POPC   C3A10565  28.408  22.981   7.955
 6144POPC   C4A10566  28.357  22.985   7.655
 6144POPC   C1B10567  28.488  22.728   8.555
 6144POPC   C2B10568  28.462  22.691   8.255
 6144POPC   C3B10569  28.466  22.764   7.955
 6144POPC   C4B10570  28.473  22.755   7.655
 6145POPC   NC310571  36.931  43.087   9.455
 6145POPC   PO410572  36.935  43.110   9.155
 6145POPC   GL110573  36.877  43.086   8.855
 6145POPC   GL210574  36.818  43.147   8.855
 6145POPC   C1A10575  36.885  43.123   8.555
 6145POPC   D2A10576  36.893  43.125   8.255
 6145POPC   C3A10577  36.930  43.061   7.955
 6145POPC   C4A10578  36.920  43.150   7.655
 6145POPC   C1B10579  36.707  43.301   8.555
 6145POPC   C2B10580  36.690  43.284   8.255
 6145POPC   C3B10581  36.652  43.250   7.955
 6145POPC   C4B10582  36.747  43.209   7.655
 6146POPC   NC310583  26.780  25.265   9.455
 6146POPC   PO410584  26.850  25.240   9.155
 6146POPC   GL110585  26.801  25.260   8.855
 6146POPC   GL210586  26.792  25.120   8.855
 6146POPC   C1A10587  26.817  25.314   8.555
 6146POPC   D2A10588  26.839  25.295   8.255
 6146POPC   C3A10589  26.849  25.248   7.955
 6146POPC   C4A10590  26.775  25.304   7.655
 6146POPC   C1B10591  26.828  25.057   8.555
 6146POPC   C2B10592  26.831  24.996   8.255
 6146POPC   C3B10593  26.861  24.976   7.955
 6146POPC   C4B10594  26.854  25.005   7.655
 6147POPC   NC310595  26.787  42.374   9.455
 6147POPC   PO410596  26.806  42.379   9.155
 6147POPC   GL110597  26.816  42.374   8.855
 6147POPC   GL210598  26.875  42.252   8.855
 6147POPC   C1A10599  26.812  42.319   8.555
 6147POPC   D2A10600  26.857  42.341   8.255
 6147POPC   C3A10601  26.854  42.344   7.955
 6147POPC   C4A10602  26.831  42.320   7.655
 6147POPC   C1B10603  26.846  42.146   8.555
 6147POPC   C2B10604  26.883  42.104   8.255
 6147POPC   C3B10605  26.929  42.110   7.955
 6147POPC   C4B10606  26.876  42.073   7.655
 6148POPC   NC310607  12.051   6.625   9.455
 6148POPC   PO410608  12.059   6.638   9.155
 6148POPC   GL110609  12.075   6.654   8.855
 6148POPC   GL210610  11.968   6.718   8.855
 6148POPC   C1A10611  12.044   6.683   8.555
 6148POPC   D2A10612  12.055   6.622   8.255
 6148POPC   C3A10613  12.027   6.609   7.955
 6148POPC   C4A10614  12.068   6.617   7.655
 6148POPC   C1B10615  11.939   6.883   8.555
 6148POPC   C2B10616  11.946   6.820   8.255
 6148POPC   C3B10617  11.964   6.806   7.955
 6148POPC   C4B10618  11.966   6.828   7.655
 6149POPC   NC310619  22.194  25.998   9.455
 6149POPC   PO410620  22.118  26.045   9.155
 6149POPC   GL110621  22.150  26.015   8.855
 6149POPC   GL210622  22.309  26.004   8.855
 6149POPC   C1A10623  22.141  26.016   8.555
 6149POPC   D2A10624  22.174  26.055   8.255
 6149POPC   C3A10625  22.124  26.001   7.955
 6149POPC   C4A10626  22.149  26.001   7.655
 6149POPC   C1B10627  22.397  25.888   8.555
 6149POPC   C2B10628  22.381  25.895   8.255
 6149POPC   C3B10629  22.347  25.863   7.955
 6149POPC   C4B10630  22.379  25.934   7.655
 6150POPC   NC310631  43.086   3.569   9.455
 6150POPC   PO410632  43.121   3.565   9.155
 6150POPC   GL110633  43.086   3.502   8.855
 6150POPC   GL210634  43.133   3.410   8.855
 6150POPC   C1A10635  43.122   3.507   8.555
 6150POPC   D2A10636  43.157   3.546   8.255
 6150POPC   C3A10637  43.097   3.551   7.955
 6150POPC   C4A10638  43.087   3.534   7.655
 6150POPC   C1B10639  43.027   3.326   8.555
 6150POPC   C2B10640  43.036   3.267   8.255
 6150POPC   C3B10641  43.085   3.294   7.955
 6150POPC   C4B10642  43.103   3.278   7.655
 6151POPC   NC310643  42.376   2.722   9.455
 6151POPC   PO410644  42.370   2.735   9.155
 6151POPC   GL110645  42.321   2.812   8.855
 6151POPC   GL210646  42.473   2.798   8.855
 6151POPC   C1A10647  42.338   2.756   8.555
 6151POPC   D2A10648  42.285   2.788   8.255
 6151POPC   C3A10649  42.350   2.762   7.955
 6151POPC   C4A10650  42.309   2.749   7.655
 6151POPC   C1B10651  42.549   2.724   8.555
 6151POPC   C2B10652  42.592   2.706   8.255
 6151POPC   C3B10653  42.630   2.743   7.955
 6151POPC   C4B10654  42.595   2.711   7.655
 6152POPC   NC310655  34.563  36.922   9.455
 6152POPC   PO410656  34.567  36.932   9.155
 6152POPC   GL110657  34.598  36.903   8.855
 6152POPC   GL210658  34.628  36.984   8.855
 6152POPC   C1A10659  34.547  36.925   8.555
 6152POPC   D2A10660  34.527  36.896   8.255
 6152POPC   C3A10661  34.562  36.871   7.955
 6152POPC   C4A10662  34.584  36.865   7.655
 6152POPC   C1B10663  34.635  37.170   8.555
 6152POPC   C2B10664  34.629  37.111   8.255
 6152POPC   C3B10665  34.645  37.188   7.955
 6152POPC   C4B10666  34.605  37.186   7.655
 6153POPC   NC310667  18.256   0.436   9.455
 6153POPC   PO410668  18.269   0.458   9.155
 6153POPC   GL110669  18.285   0.466   8.855
 6153POPC   GL210670  18.135   0.473   8.855
 6153POPC   C1A10671  18.283   0.414   8.555
 6153POPC   D2A10672  18.238   0.389   8.255
 6153POPC   C3A10673  18.281   0.439   7.955
 6153POPC   C4A10674  18.248   0.414   7.655
 6153POPC   C1B10675  17.995   0.518   8.555
 6153POPC   C2B10676  18.085   0.485   8.255
 6153POPC   C3B10677  17.996   0.487   7.955
 6153POPC   C4B10678  18.006   0.452   7.655
 6154POPC   NC310679  22.954  27.588   9.455
 6154POPC   PO410680  22.927  27.607   9.155
 6154POPC   GL110681  22.927  27.549   8.855
 6154POPC   GL210682  22.969  27.702   8.855
 6154POPC   C1A10683  22.912  27.601   8.555
 6154POPC   D2A10684  22.982  27.599   8.255
 6154POPC   C3A10685  22.923  27.573   7.955
 6154POPC   C4A10686  22.903  27.622   7.655
 6154POPC   C1B10687  23.032  27.828   8.555
 6154POPC   C2B10688  23.091  27.785   8.255
 6154POPC   C3B10689  23.056  27.839   7.955
 6154POPC   C4B10690  23.056  27.766   7.655
 6155POPC   NC310691  12.039   0.480   9.455
 6155POPC   PO410692  12.056   0.388   9.155
 6155POPC   GL110693  12.070   0.452   8.855
 6155POPC   GL210694  11.970   0.543   8.855
 6155POPC   C1A10695  12.092   0.422   8.555
 6155POPC   D2A10696  12.066   0.394   8.255
 6155POPC   C3A10697  12.042   0.397   7.955
 6155POPC   C4A10698  12.104   0.456   7.655
 6155POPC   C1B10699  11.866   0.559   8.555
 6155POPC   C2B10700  11.900   0.627   8.255
 6155POPC   C3B10701  11.852   0.632   7.955
 6155POPC   C4B10702  11.936   0.617   7.655
 6156POPC   NC310703  43.144  36.158   9.455
 6156POPC   PO410704  43.062  36.158   9.155
 6156POPC   GL110705  43.152  36.129   8.855
 6156POPC   GL210706  43.082  36.010   8.855
 6156POPC   C1A10707  43.066  36.119   8.555
 6156POPC   D2A10708  43.113  36.166   8.255
 6156POPC   C3A10709  43.069  36.105   7.955
 6156POPC   C4A10710  43.087  36.176   7.655
 6156POPC   C1B10711  42.993  35.909   8.555
 6156POPC   C2B10712  43.043  35.863   8.255
 6156POPC   C3B10713  43.080  35.913   7.955
 6156POPC   C4B10714  43.050  35.906   7.655
 6157POPC   NC310715   4.362   8.944   9.455
 6157POPC   PO410716   4.281   9.012   9.155
 6157POPC   GL110717   4.290   9.001   8.855
 6157POPC   GL210718   4.304   8.884   8.855
 6157POPC   C1A10719   4.328   8.933   8.555
 6157POPC   D2A10720   4.334   8.985   8.255
 6157POPC   C3A10721   4.327   9.004   7.955
 6157POPC   C4A10722   4.347   8.951   7.655
 6157POPC   C1B10723   4.300   8.707   8.555
 6157POPC   C2B10724   4.311   8.706   8.255
 6157POPC   C3B10725   4.361   8.742   7.955
 6157POPC   C4B10726   4.334   8.732   7.655
 6158POPC   NC310727  11.322  10.548   9.455
 6158POPC   PO410728  11.281  10.564   9.155
 6158POPC   GL110729  11.261  10.476   8.855
 6158POPC   GL210730  11.378  10.422   8.855
 6158POPC   C1A10731  11.300  10.486   8.555
 6158POPC   D2A10732  11.293  10.500   8.255
 6158POPC   C3A10733  11.279  10.565   7.955
 6158POPC   C4A10734  11.254  10.487   7.655
 6158POPC   C1B10735  11.441  10.290   8.555
 6158POPC   C2B10736  11.405  10.319   8.255
 6158POPC   C3B10737  11.361  10.256   7.955
 6158POPC   C4B10738  11.412  10.285   7.655
 6159POPC   NC310739  32.209  40.758   9.455
 6159POPC   PO410740  32.235  40.777   9.155
 6159POPC   GL110741  32.288  40.763   8.855
 6159POPC   GL210742  32.220  40.625   8.855
 6159POPC   C1A10743  32.294  40.750   8.555
 6159POPC   D2A10744  32.258  40.789   8.255
 6159POPC   C3A10745  32.286  40.803   7.955
 6159POPC   C4A10746  32.223  40.756   7.655
 6159POPC   C1B10747  32.243  40.525   8.555
 6159POPC   C2B10748  32.226  40.544   8.255
 6159POPC   C3B10749  32.218  40.503   7.955
 6159POPC   C4B10750  32.270  40.546   7.655
 6160POPC   NC310751  28.365  42.298   9.455
 6160POPC   PO410752  28.407  42.300   9.155
 6160POPC   GL110753  28.380  42.332   8.855
 6160POPC   GL210754  28.344  42.179   8.855
 6160POPC   C1A10755  28.326  42.310   8.555
 6160POPC   D2A10756  28.371  42.311   8.255
 6160POPC   C3A10757  28.396  42.358   7.955
 6160POPC   C4A10758  28.324  42.352   7.655
 6160POPC   C1B10759  28.390  42.135   8.555
 6160POPC   C2B10760  28.436  42.133   8.255
 6160POPC   C3B10761  28.431  42.051   7.955
 6160POPC   C4B10762  28.392  42.078   7.655
 6161POPC   NC310763  13.667  40.040   9.455
 6161POPC   PO410764  13.620  40.016   9.155
 6161POPC   GL110765  13.621  40.002   8.855
 6161POPC   GL210766  13.736  40.114   8.855
 6161POPC   C1A10767  13.657  39.979   8.555
 6161POPC   D2A10768  13.632  39.998   8.255
 6161POPC   C3A10769  13.665  40.056   7.955
 6161POPC   C4A10770  13.649  39.962   7.655
 6161POPC   C1B10771  13.790  40.194   8.555
 6161POPC   C2B10772  13.835  40.157   8.255
 6161POPC   C3B10773  13.778  40.225   7.955
 6161POPC   C4B10774  13.807  40.186   7.655
 6162POPC   NC310775  39.239  20.625   9.455
 6162POPC   PO410776  39.207  20.632   9.155
 6162POPC   GL110777  39.273  20.615   8.855
 6162POPC   GL210778  39.194  20.707   8.855
 6162POPC   C1A10779  39.255  20.619   8.555
 6162POPC   D2A10780  39.187  20.592   8.255
 6162POPC   C3A10781  39.261  20.617   7.955
 6162POPC   C4A10782  39.255  20.597   7.655
 6162POPC   C1B10783  39.060  20.815   8.555
 6162POPC   C2B10784  39.076  20.863   8.255
 6162POPC   C3B10785  39.090  20.870   7.955
 6162POPC   C4B10786  39.058  20.855   7.655
 6163POPC   NC310787   5.065   8.969   9.455
 6163POPC   PO410788   5.132   8.975   9.155
 6163POPC   GL110789   5.125   8.946   8.855
 6163POPC   GL210790   5.191   8.958   8.855
 6163POPC   C1A10791   5.103   8.987   8.555
 6163POPC   D2A10792   5.140   8.967   8.255
 6163POPC   C3A10793   5.111   8.927   7.955
 6163POPC   C4A10794   5.109   8.999   7.655
 6163POPC   C1B10795   5.320   9.004   8.555
 6163POPC   C2B10796   5.343   9.025   8.255
 6163POPC   C3B10797   5.303   9.011   7.955
 6163POPC   C4B10798   5.344   9.021   7.655
 6164POPC   NC310799  26.797   0.428   9.455
 6164POPC   PO410800  26.809   0.395   9.155
 6164POPC   GL110801  26.834   0.457   8.855
 6164POPC   GL210802  26.917   0.501   8.855
 6164POPC   C1A10803  26.788   0.426   8.555
 6164POPC   D2A10804  26.852   0.415   8.255
 6164POPC   C3A10805  26.839   0.451   7.955
 6164POPC   C4A10806  26.806   0.459   7.655
 6164POPC   C1B10807  26.893   0.636   8.555
 6164POPC   C2B10808  26.927   0.629   8.255
 6164POPC   C3B10809  26.921   0.643   7.955
 6164POPC   C4B10810  26.897   0.711   7.655
 6165POPC   NC310811  10.536  26.807   9.455
 6165POPC   PO410812  10.529  26.791   9.155
 6165POPC   GL110813  10.545  26.793   8.855
 6165POPC   GL210814  10.603  26.893   8.855
 6165POPC   C1A10815  10.489  26.803   8.555
 6165POPC   D2A10816  10.542  26.778   8.255
 6165POPC   C3A10817  10.503  26.860   7.955
 6165POPC   C4A10818  10.540  26.820   7.655
 6165POPC   C1B10819  10.546  27.019   8.555
 6165POPC   C2B10820  10.570  27.063   8.255
 6165POPC   C3B10821  10.599  27.086   7.955
 6165POPC   C4B10822  10.555  27.023   7.655
 6166POPC   NC310823  26.053  26.789   9.455
 6166POPC   PO410824  26.081  26.791   9.155
 6166POPC   GL110825  26.007  26.805   8.855
 6166POPC   GL210826  26.129  26.750   8.855
 6166POPC   C1A10827  26.064  26.788   8.555
 6166POPC   D2A10828  26.083  26.848   8.255
 6166POPC   C3A10829  26.045  26.835   7.955
 6166POPC   C4A10830  26.085  26.844   7.655
 6166POPC   C1B10831  26.153  26.622   8.555
 6166POPC   C2B10832  26.126  26.572   8.255
 6166POPC   C3B10833  26.094  26.560   7.955
 6166POPC   C4B10834  26.156  26.606   7.655
 6167POPC   NC310835   4.358  43.905   9.455
 6167POPC   PO410836   4.316  43.910   9.155
 6167POPC   GL110837   4.325  43.923   8.855
 6167POPC   GL210838   4.248  44.012   8.855
 6167POPC   C1A10839   4.311  43.899   8.555
 6167POPC   D2A10840   4.321  43.898   8.255
 6167POPC   C3A10841   4.302  43.899   7.955
 6167POPC   C4A10842   4.319  43.843   7.655
 6167POPC   C1B10843   4.261  44.082   8.555
 6167POPC   C2B10844   4.292  44.132   8.255
 6167POPC   C3B10845   4.210  44.167   7.955
 6167POPC   C4B10846   4.270  44.169   7.655
 6168POPC   NC310847   2.753   6.649   9.455
 6168POPC   PO410848   2.763   6.660   9.155
 6168POPC   GL110849   2.773   6.616   8.855
 6168POPC   GL210850   2.859   6.506   8.855
 6168POPC   C1A10851   2.796   6.673   8.555
 6168POPC   D2A10852   2.806   6.687   8.255
 6168POPC   C3A10853   2.719   6.653   7.955
 6168POPC   C4A10854   2.746   6.628   7.655
 6168POPC   C1B10855   2.902   6.503   8.555
 6168POPC   C2B10856   2.920   6.455   8.255
 6168POPC   C3B10857   2.905   6.460   7.955
 6168POPC   C4B10858   2.960   6.494   7.655
 6169POPC   NC310859   7.451  19.009   9.455
 6169POPC   PO410860   7.419  19.102   9.155
 6169POPC   GL110861   7.409  19.026   8.855
 6169POPC   GL210862   7.487  19.112   8.855
 6169POPC   C1A10863   7.422  19.060   8.555
 6169POPC   D2A10864   7.465  19.100   8.255
 6169POPC   C3A10865   7.412  19.021   7.955
 6169POPC   C4A10866   7.383  19.011   7.655
 6169POPC   C1B10867   7.552  19.202   8.555
 6169POPC   C2B10868   7.568  19.258   8.255
 6169POPC   C3B10869   7.581  19.238   7.955
 6169POPC   C4B10870   7.614  19.216   7.655
 6170POPC   NC310871  27.560  11.266   9.455
 6170POPC   PO410872  27.578  11.303   9.155
 6170POPC   GL110873  27.597  11.294   8.855
 6170POPC   GL210874  27.753  11.346   8.855
 6170POPC   C1A10875  27.547  11.288   8.555
 6170POPC   D2A10876  27.594  11.320   8.255
 6170POPC   C3A10877  27.592  11.300   7.955
 6170POPC   C4A10878  27.570  11.256   7.655
 6170POPC   C1B10879  27.860  11.415   8.555
 6170POPC   C2B10880  27.814  11.389   8.255
 6170POPC   C3B10881  27.876  11.351   7.955
 6170POPC   C4B10882  27.804  11.360   7.655
 6171POPC   NC310883   3.563   1.987   9.455
 6171POPC   PO410884   3.521   1.957   9.155
 6171POPC   GL110885   3.577   1.979   8.855
 6171POPC   GL210886   3.635   2.099   8.855
 6171POPC   C1A10887   3.503   1.959   8.555
 6171POPC   D2A10888   3.505   2.008   8.255
 6171POPC   C3A10889   3.533   1.979   7.955
 6171POPC   C4A10890   3.500   1.967   7.655
 6171POPC   C1B10891   3.611   2.176   8.555
 6171POPC   C2B10892   3.684   2.180   8.255
 6171POPC   C3B10893   3.685   2.172   7.955
 6171POPC   C4B10894   3.622   2.221   7.655
 6172POPC   NC310895  19.063   0.440   9.455
 6172POPC   PO410896  19.017   0.455   9.155
 6172POPC   GL110897  19.077   0.422   8.855
 6172POPC   GL210898  18.992   0.486   8.855
 6172POPC   C1A10899  19.023   0.448   8.555
 6172POPC   D2A10900  19.096   0.483   8.255
 6172POPC   C3A10901  19.023   0.455   7.955
 6172POPC   C4A10902  19.054   0.464   7.655
 6172POPC   C1B10903  18.899   0.602   8.555
 6172POPC   C2B10904  18.842   0.600   8.255
 6172POPC   C3B10905  18.901   0.645   7.955
 6172POPC   C4B10906  18.839   0.652   7.655
 6173POPC   NC310907  31.512  33.822   9.455
 6173POPC   PO410908  31.500  33.846   9.155
 6173POPC   GL110909  31.449  33.759   8.855
 6173POPC   GL210910  31.339  33.802   8.855
 6173POPC   C1A10911  31.503  33.809   8.555
 6173POPC   D2A10912  31.487  33.789   8.255
 6173POPC   C3A10913  31.448  33.842   7.955
 6173POPC   C4A10914  31.510  33.772   7.655
 6173POPC   C1B10915  31.255  33.897   8.555
 6173POPC   C2B10916  31.217  33.831   8.255
 6173POPC   C3B10917  31.194  33.835   7.955
 6173POPC   C4B10918  31.253  33.879   7.655
 6174POPC   NC310919  42.333   6.676   9.455
 6174POPC   PO410920  42.294   6.690   9.155
 6174POPC   GL110921  42.323   6.679   8.855
 6174POPC   GL210922  42.433   6.594   8.855
 6174POPC   C1A10923  42.325   6.686   8.555
 6174POPC   D2A10924  42.309   6.692   8.255
 6174POPC   C3A10925  42.360   6.633   7.955
 6174POPC   C4A10926  42.315   6.603   7.655
 6174POPC   C1B10927  42.496   6.501   8.555
 6174POPC   C2B10928  42.586   6.548   8.255
 6174POPC   C3B10929  42.497   6.454   7.955
 6174POPC   C4B10930  42.583   6.482   7.655
 6175POPC   NC310931   1.960  16.714   9.455
 6175POPC   PO410932   1.989  16.750   9.155
 6175POPC   GL110933   2.002  16.684   8.855
 6175POPC   GL210934   1.907  16.633   8.855
 6175POPC   C1A10935   1.998  16.707   8.555
 6175POPC   D2A10936   2.024  16.712   8.255
 6175POPC   C3A10937   2.000  16.739   7.955
 6175POPC   C4A10938   1.989  16.745   7.655
 6175POPC   C1B10939   1.909  16.466   8.555
 6175POPC   C2B10940   1.888  16.494   8.255
 6175POPC   C3B10941   1.951  16.470   7.955
 6175POPC   C4B10942   1.930  16.488   7.655
 6176POPC   NC310943  43.099  41.570   9.455
 6176POPC   PO410944  43.158  41.543   9.155
 6176POPC   GL110945  43.136  41.571   8.855
 6176POPC   GL210946  43.205  41.463   8.855
 6176POPC   C1A10947  43.078  41.569   8.555
 6176POPC   D2A10948  43.138  41.562   8.255
 6176POPC   C3A10949  43.160  41.580   7.955
 6176POPC   C4A10950  43.149  41.593   7.655
 6176POPC   C1B10951  43.266  41.360   8.555
 6176POPC   C2B10952  43.180  41.329   8.255
 6176POPC   C3B10953  43.219  41.332   7.955
 6176POPC   C4B10954  43.257  41.360   7.655
 6177POPC   NC310955  24.465   0.433   9.455
 6177POPC   PO410956  24.532   0.412   9.155
 6177POPC   GL110957  24.498   0.464   8.855
 6177POPC   GL210958  24.501   0.344   8.855
 6177POPC   C1A10959  24.482   0.431   8.555
 6177POPC   D2A10960  24.516   0.477   8.255
 6177POPC   C3A10961  24.472   0.419   7.955
 6177POPC   C4A10962  24.493   0.457   7.655
 6177POPC   C1B10963  24.428   0.227   8.555
 6177POPC   C2B10964  24.474   0.146   8.255
 6177POPC   C3B10965  24.392   0.216   7.955
 6177POPC   C4B10966  24.460   0.237   7.655
 6178POPC   NC310967  14.399   2.011   9.455
 6178POPC   PO410968  14.390   1.956   9.155
 6178POPC   GL110969  14.420   1.994   8.855
 6178POPC   GL210970  14.301   1.953   8.855
 6178POPC   C1A10971  14.448   2.023   8.555
 6178POPC   D2A10972  14.378   2.027   8.255
 6178POPC   C3A10973  14.379   2.017   7.955
 6178POPC   C4A10974  14.430   1.952   7.655
 6178POPC   C1B10975  14.189   1.910   8.555
 6178POPC   C2B10976  14.223   1.876   8.255
 6178POPC   C3B10977  14.166   1.870   7.955
 6178POPC   C4B10978  14.201   1.918   7.655
 6179POPC   NC310979  34.559  33.752   9.455
 6179POPC   PO410980  34.591  33.838   9.155
 6179POPC   GL110981  34.575  33.824   8.855
 6179POPC   GL210982  34.620  33.675   8.855
 6179POPC   C1A10983  34.593  33.799   8.555
 6179POPC   D2A10984  34.539  33.795   8.255
 6179POPC   C3A10985  34.602  33.764   7.955
 6179POPC   C4A10986  34.590  33.796   7.655
 6179POPC   C1B10987  34.697  33.618   8.555
 6179POPC   C2B10988  34.761  33.587   8.255
 6179POPC   C3B10989  34.679  33.610   7.955
 6179POPC   C4B10990  34.686  33.597   7.655
 6180POPC   NC310991   9.709   3.528   9.455
 6180POPC   PO410992   9.793   3.517   9.155
 6180POPC   GL110993   9.764   3.512   8.855
 6180POPC   GL210994   9.816   3.491   8.855
 6180POPC   C1A10995   9.786   3.549   8.555
 6180POPC   D2A10996   9.720   3.511   8.255
 6180POPC   C3A10997   9.768   3.578   7.955
 6180POPC   C4A10998   9.738   3.517   7.655
 6180POPC   C1B10999   9.912   3.294   8.555
 6180POPC   C2B11000   9.914   3.299   8.255
 6180POPC   C3B11001   9.883   3.357   7.955
 6180POPC   C4B11002   9.875   3.313   7.655
 6181POPC   NC311003  34.534  43.150   9.455
 6181POPC   PO411004  34.532  43.080   9.155
 6181POPC   GL111005  34.610  43.070   8.855
 6181POPC   GL211006  34.552  42.980   8.855
 6181POPC   C1A11007  34.543  43.065   8.555
 6181POPC   D2A11008  34.614  43.087   8.255
 6181POPC   C3A11009  34.595  43.078   7.955
 6181POPC   C4A11010  34.577  43.144   7.655
 6181POPC   C1B11011  34.595  42.909   8.555
 6181POPC   C2B11012  34.508  42.842   8.255
 6181POPC   C3B11013  34.523  42.844   7.955
 6181POPC   C4B11014  34.557  42.908   7.655
 6182POPC   NC311015  22.184  43.882   9.455
 6182POPC   PO411016  22.117  43.919   9.155
 6182POPC   GL111017  22.181  43.900   8.855
 6182POPC   GL211018  22.260  43.968   8.855
 6182POPC   C1A11019  22.179  43.906   8.555
 6182POPC   D2A11020  22.186  43.929   8.255
 6182POPC   C3A11021  22.196  43.854   7.955
 6182POPC   C4A11022  22.151  43.890   7.655
 6182POPC   C1B11023  22.331  44.062   8.555
 6182POPC   C2B11024  22.359  44.026   8.255
 6182POPC   C3B11025  22.353  44.007   7.955
 6182POPC   C4B11026  22.320  44.092   7.655
 6183POPC   NC311027  22.133   0.462   9.455
 6183POPC   PO411028  22.138   0.431   9.155
 6183POPC   GL111029  22.120   0.405   8.855
 6183POPC   GL211030  22.045   0.319   8.855
 6183POPC   C1A11031  22.162   0.487   8.555
 6183POPC   D2A11032  22.151   0.413   8.255
 6183POPC   C3A11033  22.197   0.435   7.955
 6183POPC   C4A11034  22.152   0.470   7.655
 6183POPC   C1B11035  22.032   0.240   8.555
 6183POPC   C2B11036  21.942   0.295   8.255
 6183POPC   C3B11037  22.016   0.266   7.955
 6183POPC   C4B11038  22.000   0.275   7.655
 6184POPC   NC311039  40.816  38.463   9.455
 6184POPC   PO411040  40.750  38.480   9.155
 6184POPC   GL111041  40.742  38.431   8.855
 6184POPC   GL211042  40.753  38.296   8.855
 6184POPC   C1A11043  40.738  38.447   8.555
 6184POPC   D2A11044  40.788  38.408   8.255
 6184POPC   C3A11045  40.745  38.479   7.955
 6184POPC   C4A11046  40.816  38.407   7.655
 6184POPC   C1B11047  40.739  38.207   8.555
 6184POPC   C2B11048  40.774  38.249   8.255
 6184POPC   C3B11049  40.731  38.172   7.955
 6184POPC   C4B11050  40.759  38.219   7.655
 6185POPC   NC311051  31.466  37.645   9.455
 6185POPC   PO411052  31.511  37.674   9.155
 6185POPC   GL111053  31.505  37.720   8.855
 6185POPC   GL211054  31.614  37.621   8.855
 6185POPC   C1A11055  31.515  37.679   8.555
 6185POPC   D2A11056  31.507  37.679   8.255
 6185POPC   C3A11057  31.428  37.675   7.955
 6185POPC   C4A11058  31.457  37.646   7.655
 6185POPC   C1B11059  31.630  37.493   8.555
 6185POPC   C2B11060  31.664  37.553   8.255
 6185POPC   C3B11061  31.656  37.538   7.955
 6185POPC   C4B11062  31.687  37.497   7.655
 6186POPC   NC311063  17.511  22.948   9.455
 6186POPC   PO411064  17.493  22.973   9.155
 6186POPC   GL111065  17.460  22.911   8.855
 6186POPC   GL211066  17.399  23.019   8.855
 6186POPC   C1A11067  17.501  22.946   8.555
 6186POPC   D2A11068  17.511  22.898   8.255
 6186POPC   C3A11069  17.506  22.902   7.955
 6186POPC   C4A11070  17.494  22.908   7.655
 6186POPC   C1B11071  17.310  23.047   8.555
 6186POPC   C2B11072  17.318  23.103   8.255
 6186POPC   C3B11073  17.310  23.086   7.955
 6186POPC   C4B11074  17.290  23.055   7.655
 6187POPC   NC311075  29.932  32.979   9.455
 6187POPC   PO411076  29.940  33.039   9.155
 6187POPC   GL111077  29.955  32.989   8.855
 6187POPC   GL211078  29.848  32.889   8.855
 6187POPC   C1A11079  29.873  33.052   8.555
 6187POPC   D2A11080  29.874  33.046   8.255
 6187POPC   C3A11081  29.888  32.982   7.955
 6187POPC   C4A11082  29.909  33.074   7.655
 6187POPC   C1B11083  29.773  32.774   8.555
 6187POPC   C2B11084  29.762  32.838   8.255
 6187POPC   C3B11085  29.746  32.790   7.955
 6187POPC   C4B11086  29.776  32.766   7.655
 6188POPC   NC311087  15.167  20.654   9.455
 6188POPC   PO411088  15.173  20.588   9.155
 6188POPC   GL111089  15.142  20.576   8.855
 6188POPC   GL211090  15.091  20.761   8.855
 6188POPC   C1A11091  15.159  20.569   8.555
 6188POPC   D2A11092  15.214  20.622   8.255
 6188POPC   C3A11093  15.167  20.625   7.955
 6188POPC   C4A11094  15.197  20.590   7.655
 6188POPC   C1B11095  15.067  20.799   8.555
 6188POPC   C2B11096  15.087  20.790   8.255
 6188POPC   C3B11097  15.030  20.814   7.955
 6188POPC   C4B11098  15.024  20.868   7.655
 6189POPC   NC311099   5.044  19.026   9.455
 6189POPC   PO411100   5.057  19.017   9.155
 6189POPC   GL111101   5.081  19.033   8.855
 6189POPC   GL211102   5.234  19.160   8.855
 6189POPC   C1A11103   5.136  19.098   8.555
 6189POPC   D2A11104   5.125  19.094   8.255
 6189POPC   C3A11105   5.128  19.010   7.955
 6189POPC   C4A11106   5.086  19.042   7.655
 6189POPC   C1B11107   5.283  19.206   8.555
 6189POPC   C2B11108   5.318  19.201   8.255
 6189POPC   C3B11109   5.319  19.169   7.955
 6189POPC   C4B11110   5.312  19.125   7.655
 6190POPC   NC311111   2.815  36.942   9.455
 6190POPC   PO411112   2.783  36.921   9.155
 6190POPC   GL111113   2.804  36.866   8.855
 6190POPC   GL211114   2.681  36.860   8.855
 6190POPC   C1A11115   2.784  36.880   8.555
 6190POPC   D2A11116   2.785  36.860   8.255
 6190POPC   C3A11117   2.739  36.929   7.955
 6190POPC   C4A11118   2.778  36.918   7.655
 6190POPC   C1B11119   2.495  36.913   8.555
 6190POPC   C2B11120   2.541  36.950   8.255
 6190POPC   C3B11121   2.469  36.879   7.955
 6190POPC   C4B11122   2.550  36.928   7.655
 6191POPC   NC311123   9.770  39.242   9.455
 6191POPC   PO411124   9.795  39.232   9.155
 6191POPC   GL111125   9.701  39.184   8.855
 6191POPC   GL211126   9.692  39.272   8.855
 6191POPC   C1A11127   9.702  39.230   8.555
 6191POPC   D2A11128   9.768  39.189   8.255
 6191POPC   C3A11129   9.744  39.201   7.955
 6191POPC   C4A11130   9.744  39.188   7.655
 6191POPC   C1B11131   9.595  39.359   8.555
 6191POPC   C2B11132   9.559  39.428   8.255
 6191POPC   C3B11133   9.563  39.375   7.955
 6191POPC   C4B11134   9.585  39.444   7.655
 6192POPC   NC311135   2.778  28.386   9.455
 6192POPC   PO411136   2.780  28.359   9.155
 6192POPC   GL111137   2.774  28.327   8.855
 6192POPC   GL211138   2.650  28.373   8.855
 6192POPC   C1A11139   2.727  28.345   8.555
 6192POPC   D2A11140   2.716  28.395   8.255
 6192POPC   C3A11141   2.757  28.392   7.955
 6192POPC   C4A11142   2.810  28.369   7.655
 6192POPC   C1B11143   2.487  28.408   8.555
 6192POPC   C2B11144   2.571  28.390   8.255
 6192POPC   C3B11145   2.525  28.410   7.955
 6192POPC   C4B11146   2.516  28.476   7.655
 6193POPC   NC311147  43.925  26.856   9.455
 6193POPC   PO411148  43.837  26.832   9.155
 6193POPC   GL111149  43.879  26.861   8.855
 6193POPC   GL211150  43.925  26.650   8.855
 6193POPC   C1A11151  43.863  26.864   8.555
 6193POPC   D2A11152  43.903  26.816   8.255
 6193POPC   C3A11153  43.875  26.779   7.955
 6193POPC   C4A11154  43.890  26.790   7.655
 6193POPC   C1B11155  43.830  26.532   8.555
 6193POPC   C2B11156  43.868  26.579   8.255
 6193POPC   C3B11157  43.888  26.546   7.955
 6193POPC   C4B11158  43.897  26.563   7.655
 6194POPC   NC311159  40.810  30.726   9.455
 6194POPC   PO411160  40.737  30.698   9.155
 6194POPC   GL111161  40.813  30.678   8.855
 6194POPC   GL211162  40.727  30.850   8.855
 6194POPC   C1A11163  40.798  30.746   8.555
 6194POPC   D2A11164  40.780  30.686   8.255
 6194POPC   C3A11165  40.784  30.655   7.955
 6194POPC   C4A11166  40.810  30.649   7.655
 6194POPC   C1B11167  40.800  30.945   8.555
 6194POPC   C2B11168  40.728  30.921   8.255
 6194POPC   C3B11169  40.817  30.972   7.955
 6194POPC   C4B11170  40.742  30.908   7.655
 6195POPC   NC311171  17.502  11.268   9.455
 6195POPC   PO411172  17.506  11.343   9.155
 6195POPC   GL111173  17.519  11.323   8.855
 6195POPC   GL211174  17.360  11.272   8.855
 6195POPC   C1A11175  17.484  11.320   8.555
 6195POPC   D2A11176  17.546  11.251   8.255
 6195POPC   C3A11177  17.467  11.337   7.955
 6195POPC   C4A11178  17.514  11.275   7.655
 6195POPC   C1B11179  17.305  11.332   8.555
 6195POPC   C2B11180  17.289  11.342   8.255
 6195POPC   C3B11181  17.253  11.339   7.955
 6195POPC   C4B11182  17.277  11.254   7.655
 6196POPC   NC311183  23.726  41.584   9.455
 6196POPC   PO411184  23.667  41.584   9.155
 6196POPC   GL111185  23.711  41.564   8.855
 6196POPC   GL211186  23.810  41.453   8.855
 6196POPC   C1A11187  23.680  41.551   8.555
 6196POPC   D2A11188  23.736  41.556   8.255
 6196POPC   C3A11189  23.742  41.546   7.955
 6196POPC   C4A11190  23.744  41.544   7.655
 6196POPC   C1B11191  23.847  41.303   8.555
 6196POPC   C2B11192  23.860  41.329   8.255
 6196POPC   C3B11193  23.875  41.386   7.955
 6196POPC   C4B11194  23.848  41.345   7.655
 6197POPC   NC311195  25.296  26.855   9.455
 6197POPC   PO411196  25.300  26.826   9.155
 6197POPC   GL111197  25.283  26.773   8.855
 6197POPC   GL211198  25.327  26.701   8.855
 6197POPC   C1A11199  25.285  26.800   8.555
 6197POPC   D2A11200  25.303  26.828   8.255
 6197POPC   C3A11201  25.313  26.821   7.955
 6197POPC   C4A11202  25.239  26.769   7.655
 6197POPC   C1B11203  25.504  26.707   8.555
 6197POPC   C2B11204  25.513  26.660   8.255
 6197POPC   C3B11205  25.518  26.664   7.955
 6197POPC   C4B11206  25.491  26.681   7.655
 6198POPC   NC311207  31.476   0.442   9.455
 6198POPC   PO411208  31.489   0.458   9.155
 6198POPC   GL111209  31.432   0.399   8.855
 6198POPC   GL211210  31.409   0.532   8.855
 6198POPC   C1A11211  31.473   0.457   8.555
 6198POPC   D2A11212  31.436   0.448   8.255
 6198POPC   C3A11213  31.484   0.413   7.955
 6198POPC   C4A11214  31.448   0.403   7.655
 6198POPC   C1B11215  31.220   0.626   8.555
 6198POPC   C2B11216  31.318   0.564   8.255
 6198POPC   C3B11217  31.299   0.548   7.955
 6198POPC   C4B11218  31.265   0.572   7.655
 6199POPC   NC311219  36.927  19.845   9.455
 6199POPC   PO411220  36.915  19.791   9.155
 6199POPC   GL111221  36.945  19.838   8.855
 6199POPC   GL211222  36.836  19.761   8.855
 6199POPC   C1A11223  36.860  19.805   8.555
 6199POPC   D2A11224  36.862  19.873   8.255
 6199POPC   C3A11225  36.890  19.795   7.955
 6199POPC   C4A11226  36.876  19.853   7.655
 6199POPC   C1B11227  36.763  19.578   8.555
 6199POPC   C2B11228  36.732  19.588   8.255
 6199POPC   C3B11229  36.735  19.623   7.955
 6199POPC   C4B11230  36.745  19.648   7.655
 6200POPC   NC311231  19.035  20.603   9.455
 6200POPC   PO411232  19.015  20.625   9.155
 6200POPC   GL111233  19.011  20.592   8.855
 6200POPC   GL211234  18.956  20.581   8.855
 6200POPC   C1A11235  19.063  20.596   8.555
 6200POPC   D2A11236  19.020  20.564   8.255
 6200POPC   C3A11237  19.098  20.596   7.955
 6200POPC   C4A11238  19.086  20.619   7.655
 6200POPC   C1B11239  18.886  20.454   8.555
 6200POPC   C2B11240  18.897  20.451   8.255
 6200POPC   C3B11241  18.899  20.434   7.955
 6200POPC   C4B11242  18.904  20.487   7.655
 6201POPC   NC311243  18.333  19.105   9.455
 6201POPC   PO411244  18.282  19.046   9.155
 6201POPC   GL111245  18.300  19.013   8.855
 6201POPC   GL211246  18.278  18.906   8.855
 6201POPC   C1A11247  18.255  19.107   8.555
 6201POPC   D2A11248  18.331  19.051   8.255
 6201POPC   C3A11249  18.272  19.048   7.955
 6201POPC   C4A11250  18.271  19.093   7.655
 6201POPC   C1B11251  18.274  18.819   8.555
 6201POPC   C2B11252  18.313  18.797   8.255
 6201POPC   C3B11253  18.314  18.841   7.955
 6201POPC   C4B11254  18.264  18.784   7.655
 6202POPC   NC311255   0.393  35.366   9.455
 6202POPC   PO411256   0.448  35.374   9.155
 6202POPC   GL111257   0.486  35.305   8.855
 6202POPC   GL211258   0.362  35.281   8.855
 6202POPC   C1A11259   0.396  35.334   8.555
 6202POPC   D2A11260   0.436  35.362   8.255
 6202POPC   C3A11261   0.446  35.333   7.955
 6202POPC   C4A11262   0.443  35.381   7.655
 6202POPC   C1B11263   0.267  35.126   8.555
 6202POPC   C2B11264   0.247  35.197   8.255
 6202POPC   C3B11265   0.289  35.150   7.955
 6202POPC   C4B11266   0.271  35.127   7.655
 6203POPC   NC311267  21.416  25.993   9.455
 6203POPC   PO411268  21.387  26.046   9.155
 6203POPC   GL111269  21.401  26.045   8.855
 6203POPC   GL211270  21.345  26.143   8.855
 6203POPC   C1A11271  21.436  26.043   8.555
 6203POPC   D2A11272  21.401  26.023   8.255
 6203POPC   C3A11273  21.390  26.012   7.955
 6203POPC   C4A11274  21.353  26.082   7.655
 6203POPC   C1B11275  21.405  26.262   8.555
 6203POPC   C2B11276  21.322  26.243   8.255
 6203POPC   C3B11277  21.337  26.253   7.955
 6203POPC   C4B11278  21.325  26.307   7.655
 6204POPC   NC311279  27.615  26.059   9.455
 6204POPC   PO411280  27.550  26.042   9.155
 6204POPC   GL111281  27.579  26.078   8.855
 6204POPC   GL211282  27.691  26.128   8.855
 6204POPC   C1A11283  27.633  26.035   8.555
 6204POPC   D2A11284  27.613  26.072   8.255
 6204POPC   C3A11285  27.610  26.016   7.955
 6204POPC   C4A11286  27.605  26.047   7.655
 6204POPC   C1B11287  27.794  26.240   8.555
 6204POPC   C2B11288  27.708  26.211   8.255
 6204POPC   C3B11289  27.761  26.211   7.955
 6204POPC   C4B11290  27.723  26.243   7.655
 6205POPC   NC311291   0.391  11.269   9.455
 6205POPC   PO411292   0.461  11.318   9.155
 6205POPC   GL111293   0.466  11.335   8.855
 6205POPC   GL211294   0.600  11.315   8.855
 6205POPC   C1A11295   0.459  11.300   8.555
 6205POPC   D2A11296   0.479  11.343   8.255
 6205POPC   C3A11297   0.390  11.320   7.955
 6205POPC   C4A11298   0.455  11.327   7.655
 6205POPC   C1B11299   0.619  11.448   8.555
 6205POPC   C2B11300   0.680  11.422   8.255
 6205POPC   C3B11301   0.617  11.375   7.955
 6205POPC   C4B11302   0.631  11.358   7.655
 6206POPC   NC311303  28.363   1.236   9.455
 6206POPC   PO411304  28.395   1.168   9.155
 6206POPC   GL111305  28.369   1.252   8.855
 6206POPC   GL211306  28.250   1.164   8.855
 6206POPC   C1A11307  28.330   1.194   8.555
 6206POPC   D2A11308  28.376   1.256   8.255
 6206POPC   C3A11309  28.367   1.169   7.955
 6206POPC   C4A11310  28.356   1.202   7.655
 6206POPC   C1B11311  28.189   1.030   8.555
 6206POPC   C2B11312  28.127   1.048   8.255
 6206POPC   C3B11313  28.128   1.119   7.955
 6206POPC   C4B11314  28.121   1.086   7.655
 6207POPC   NC311315   8.931  28.400   9.455
 6207POPC   PO411316   8.979  28.321   9.155
 6207POPC   GL111317   9.016  28.407   8.855
 6207POPC   GL211318   8.984  28.504   8.855
 6207POPC   C1A11319   9.007  28.356   8.555
 6207POPC   D2A11320   9.020  28.386   8.255
 6207POPC   C3A11321   8.995  28.362   7.955
 6207POPC   C4A11322   8.999  28.374   7.655
 6207POPC   C1B11323   9.050  28.618   8.555
 6207POPC   C2B11324   9.070  28.640   8.255
 6207POPC   C3B11325   9.026  28.612   7.955
 6207POPC   C4B11326   8.989  28.593   7.655
 6208POPC   NC311327   5.053  15.953   9.455
 6208POPC   PO411328   5.086  15.999   9.155
 6208POPC   GL111329   5.053  15.940   8.855
 6208POPC   GL211330   5.196  15.873   8.855
 6208POPC   C1A11331   5.085  15.988   8.555
 6208POPC   D2A11332   5.064  15.914   8.255
 6208POPC   C3A11333   5.073  15.978   7.955
 6208POPC   C4A11334   5.054  15.933   7.655
 6208POPC   C1B11335   5.306  15.806   8.555
 6208POPC   C2B11336   5.277  15.807   8.255
 6208POPC   C3B11337   5.274  15.868   7.955
 6208POPC   C4B11338   5.313  15.890   7.655
 6209POPC   NC311339   7.410  15.938   9.455
 6209POPC   PO411340   7.414  15.968   9.155
 6209POPC   GL111341   7.421  15.939   8.855
 6209POPC   GL211342   7.309  15.968   8.855
 6209POPC   C1A11343   7.378  15.966   8.555
 6209POPC   D2A11344   7.459  15.967   8.255
 6209POPC   C3A11345   7.371  15.976   7.955
 6209POPC   C4A11346   7.469  15.921   7.655
 6209POPC   C1B11347   7.160  16.068   8.555
 6209POPC   C2B11348   7.217  16.032   8.255
 6209POPC   C3B11349   7.225  16.021   7.955
 6209POPC   C4B11350   7.205  16.015   7.655
 6210POPC   NC311351  38.462  18.288   9.455
 6210POPC   PO411352  38.465  18.237   9.155
 6210POPC   GL111353  38.480  18.332   8.855
 6210POPC   GL211354  38.458  18.206   8.855
 6210POPC   C1A11355  38.492  18.245   8.555
 6210POPC   D2A11356  38.489  18.279   8.255
 6210POPC   C3A11357  38.441  18.249   7.955
 6210POPC   C4A11358  38.451  18.274   7.655
 6210POPC   C1B11359  38.562  18.072   8.555
 6210POPC   C2B11360  38.552  18.077   8.255
 6210POPC   C3B11361  38.553  18.047   7.955
 6210POPC   C4B11362  38.521  18.070   7.655
 6211POPC   NC311363  36.935  22.113   9.455
 6211POPC   PO411364  36.930  22.130   9.155
 6211POPC   GL111365  36.909  22.139   8.855
 6211POPC   GL211366  36.819  22.221   8.855
 6211POPC   C1A11367  36.949  22.165   8.555
 6211POPC   D2A11368  36.889  22.144   8.255
 6211POPC   C3A11369  36.859  22.169   7.955
 6211POPC   C4A11370  36.949  22.124   7.655
 6211POPC   C1B11371  36.653  22.208   8.555
 6211POPC   C2B11372  36.642  22.224   8.255
 6211POPC   C3B11373  36.691  22.180   7.955
 6211POPC   C4B11374  36.638  22.199   7.655
 6212POPC   NC311375   5.071  41.583   9.455
 6212POPC   PO411376   5.137  41.589   9.155
 6212POPC   GL111377   5.068  41.551   8.855
 6212POPC   GL211378   5.150  41.702   8.855
 6212POPC   C1A11379   5.142  41.552   8.555
 6212POPC   D2A11380   5.125  41.595   8.255
 6212POPC   C3A11381   5.061  41.566   7.955
 6212POPC   C4A11382   5.103  41.545   7.655
 6212POPC   C1B11383   5.181  41.822   8.555
 6212POPC   C2B11384   5.198  41.777   8.255
 6212POPC   C3B11385   5.194  41.763   7.955
 6212POPC   C4B11386   5.210  41.755   7.655
 6213POPC   NC311387  36.148  43.912   9.455
 6213POPC   PO411388  36.087  43.846   9.155
 6213POPC   GL111389  36.112  43.841   8.855
 6213POPC   GL211390  36.223  43.763   8.855
 6213POPC   C1A11391  36.109  43.903   8.555
 6213POPC   D2A11392  36.113  43.904   8.255
 6213POPC   C3A11393  36.105  43.930   7.955
 6213POPC   C4A11394  36.086  43.932   7.655
 6213POPC   C1B11395  36.218  43.670   8.555
 6213POPC   C2B11396  36.218  43.625   8.255
 6213POPC   C3B11397  36.199  43.640   7.955
 6213POPC   C4B11398  36.176  43.607   7.655
 6214POPC   NC311399  38.453  43.852   9.455
 6214POPC   PO411400  38.420  43.928   9.155
 6214POPC   GL111401  38.484  43.912   8.855
 6214POPC   GL211402  38.485  43.760   8.855
 6214POPC   C1A11403  38.501  43.898   8.555
 6214POPC   D2A11404  38.478  43.907   8.255
 6214POPC   C3A11405  38.436  43.878   7.955
 6214POPC   C4A11406  38.476  43.919   7.655
 6214POPC   C1B11407  38.547  43.676   8.555
 6214POPC   C2B11408  38.547  43.645   8.255
 6214POPC   C3B11409  38.488  43.652   7.955
 6214POPC   C4B11410  38.539  43.654   7.655
 6215POPC   NC311411  19.090  18.288   9.455
 6215POPC   PO411412  19.102  18.261   9.155
 6215POPC   GL111413  19.055  18.253   8.855
 6215POPC   GL211414  18.976  18.320   8.855
 6215POPC   C1A11415  19.087  18.241   8.555
 6215POPC   D2A11416  19.032  18.244   8.255
 6215POPC   C3A11417  19.107  18.258   7.955
 6215POPC   C4A11418  19.050  18.295   7.655
 6215POPC   C1B11419  18.855  18.278   8.555
 6215POPC   C2B11420  18.807  18.251   8.255
 6215POPC   C3B11421  18.804  18.289   7.955
 6215POPC   C4B11422  18.782  18.304   7.655
 6216POPC   NC311423  30.698   7.405   9.455
 6216POPC   PO411424  30.648   7.417   9.155
 6216POPC   GL111425  30.667   7.393   8.855
 6216POPC   GL211426  30.617   7.343   8.855
 6216POPC   C1A11427  30.653   7.391   8.555
 6216POPC   D2A11428  30.687   7.444   8.255
 6216POPC   C3A11429  30.678   7.454   7.955
 6216POPC   C4A11430  30.701   7.441   7.655
 6216POPC   C1B11431  30.535   7.222   8.555
 6216POPC   C2B11432  30.512   7.300   8.255
 6216POPC   C3B11433  30.528   7.239   7.955
 6216POPC   C4B11434  30.477   7.298   7.655
 6217POPC   NC311435  43.918  29.124   9.455
 6217POPC   PO411436  43.889  29.193   9.155
 6217POPC   GL111437  43.904  29.139   8.855
 6217POPC   GL211438  43.751  29.219   8.855
 6217POPC   C1A11439  43.926  29.150   8.555
 6217POPC   D2A11440  43.870  29.129   8.255
 6217POPC   C3A11441  43.894  29.136   7.955
 6217POPC   C4A11442  43.883  29.151   7.655
 6217POPC   C1B11443  43.663  29.281   8.555
 6217POPC   C2B11444  43.699  29.340   8.255
 6217POPC   C3B11445  43.712  29.285   7.955
 6217POPC   C4B11446  43.714  29.350   7.655
 6218POPC   NC311447  12.037  33.799   9.455
 6218POPC   PO411448  12.081  33.753   9.155
 6218POPC   GL111449  12.049  33.824   8.855
 6218POPC   GL211450  12.188  33.823   8.855
 6218POPC   C1A11451  12.114  33.797   8.555
 6218POPC   D2A11452  12.111  33.798   8.255
 6218POPC   C3A11453  12.109  33.792   7.955
 6218POPC   C4A11454  12.029  33.845   7.655
 6218POPC   C1B11455  12.289  33.807   8.555
 6218POPC   C2B11456  12.362  33.793   8.255
 6218POPC   C3B11457  12.326  33.868   7.955
 6218POPC   C4B11458  12.362  33.825   7.655
 6219POPC   NC311459   6.656  10.498   9.455
 6219POPC   PO411460   6.654  10.548   9.155
 6219POPC   GL111461   6.667  10.553   8.855
 6219POPC   GL211462   6.507  10.445   8.855
 6219POPC   C1A11463   6.611  10.536   8.555
 6219POPC   D2A11464   6.623  10.541   8.255
 6219POPC   C3A11465   6.691  10.548   7.955
 6219POPC   C4A11466   6.635  10.478   7.655
 6219POPC   C1B11467   6.458  10.392   8.555
 6219POPC   C2B11468   6.457  10.460   8.255
 6219POPC   C3B11469   6.430  10.411   7.955
 6219POPC   C4B11470   6.372  10.421   7.655
 6220POPC   NC311471  29.879   1.171   9.455
 6220POPC   PO411472  29.925   1.190   9.155
 6220POPC   GL111473  29.954   1.214   8.855
 6220POPC   GL211474  30.078   1.257   8.855
 6220POPC   C1A11475  29.895   1.215   8.555
 6220POPC   D2A11476  29.959   1.260   8.255
 6220POPC   C3A11477  29.947   1.166   7.955
 6220POPC   C4A11478  29.884   1.256   7.655
 6220POPC   C1B11479  30.197   1.316   8.555
 6220POPC   C2B11480  30.125   1.344   8.255
 6220POPC   C3B11481  30.180   1.339   7.955
 6220POPC   C4B11482  30.111   1.256   7.655
 6221POPC   NC311483   8.167  36.883   9.455
 6221POPC   PO411484   8.227  36.887   9.155
 6221POPC   GL111485   8.170  36.867   8.855
 6221POPC   GL211486   8.321  36.997   8.855
 6221POPC   C1A11487   8.209  36.951   8.555
 6221POPC   D2A11488   8.171  36.926   8.255
 6221POPC   C3A11489   8.232  36.907   7.955
 6221POPC   C4A11490   8.207  36.868   7.655
 6221POPC   C1B11491   8.378  37.060   8.555
 6221POPC   C2B11492   8.395  37.074   8.255
 6221POPC   C3B11493   8.452  36.993   7.955
 6221POPC   C4B11494   8.463  37.043   7.655
 6222POPC   NC311495  24.461   6.660   9.455
 6222POPC   PO411496  24.441   6.601   9.155
 6222POPC   GL111497  24.454   6.656   8.855
 6222POPC   GL211498  24.353   6.580   8.855
 6222POPC   C1A11499  24.462   6.678   8.555
 6222POPC   D2A11500  24.470   6.609   8.255
 6222POPC   C3A11501  24.470   6.662   7.955
 6222POPC   C4A11502  24.522   6.600   7.655
 6222POPC   C1B11503  24.327   6.435   8.555
 6222POPC   C2B11504  24.278   6.455   8.255
 6222POPC   C3B11505  24.325   6.446   7.955
 6222POPC   C4B11506  24.306   6.509   7.655
 6223POPC   NC311507  24.475  26.807   9.455
 6223POPC   PO411508  24.461  26.826   9.155
 6223POPC   GL111509  24.520  26.834   8.855
 6223POPC   GL211510  24.609  26.919   8.855
 6223POPC   C1A11511  24.531  26.771   8.555
 6223POPC   D2A11512  24.483  26.865   8.255
 6223POPC   C3A11513  24.457  26.775   7.955
 6223POPC   C4A11514  24.506  26.772   7.655
 6223POPC   C1B11515  24.654  26.999   8.555
 6223POPC   C2B11516  24.650  27.048   8.255
 6223POPC   C3B11517  24.646  26.997   7.955
 6223POPC   C4B11518  24.650  27.034   7.655
 6224POPC   NC311519  42.323  19.836   9.455
 6224POPC   PO411520  42.383  19.824   9.155
 6224POPC   GL111521  42.321  19.808   8.855
 6224POPC   GL211522  42.200  19.882   8.855
 6224POPC   C1A11523  42.305  19.851   8.555
 6224POPC   D2A11524  42.373  19.826   8.255
 6224POPC   C3A11525  42.331  19.845   7.955
 6224POPC   C4A11526  42.309  19.879   7.655
 6224POPC   C1B11527  42.131  19.953   8.555
 6224POPC   C2B11528  42.152  19.975   8.255
 6224POPC   C3B11529  42.110  19.981   7.955
 6224POPC   C4B11530  42.162  19.949   7.655
 6225POPC   NC311531  43.859  41.519   9.455
 6225POPC   PO411532  43.845  41.530   9.155
 6225POPC   GL111533  43.836  41.548   8.855
 6225POPC   GL211534  44.005  41.532   8.855
 6225POPC   C1A11535  43.862  41.568   8.555
 6225POPC   D2A11536  43.918  41.602   8.255
 6225POPC   C3A11537  43.909  41.602   7.955
 6225POPC   C4A11538  43.924  41.522   7.655
 6225POPC   C1B11539  44.113  41.471   8.555
 6225POPC   C2B11540  44.119  41.505   8.255
 6225POPC   C3B11541  44.073  41.444   7.955
 6225POPC   C4B11542  44.153  41.451   7.655
 6226POPC   NC311543  11.292  33.008   9.455
 6226POPC   PO411544  11.348  33.011   9.155
 6226POPC   GL111545  11.283  33.031   8.855
 6226POPC   GL211546  11.355  32.881   8.855
 6226POPC   C1A11547  11.328  33.000   8.555
 6226POPC   D2A11548  11.345  33.021   8.255
 6226POPC   C3A11549  11.266  32.981   7.955
 6226POPC   C4A11550  11.286  33.024   7.655
 6226POPC   C1B11551  11.354  32.739   8.555
 6226POPC   C2B11552  11.345  32.783   8.255
 6226POPC   C3B11553  11.340  32.763   7.955
 6226POPC   C4B11554  11.343  32.780   7.655
 6227POPC   NC311555  34.565  43.842   9.455
 6227POPC   PO411556  34.564  43.894   9.155
 6227POPC   GL111557  34.529  43.929   8.855
 6227POPC   GL211558  34.603  43.751   8.855
 6227POPC   C1A11559  34.571  43.935   8.555
 6227POPC   D2A11560  34.579  43.861   8.255
 6227POPC   C3A11561  34.613  43.859   7.955
 6227POPC   C4A11562  34.546  43.919   7.655
 6227POPC   C1B11563  34.575  43.684   8.555
 6227POPC   C2B11564  34.527  43.688   8.255
 6227POPC   C3B11565  34.484  43.614   7.955
 6227POPC   C4B11566  34.538  43.678   7.655
 6228POPC   NC311567  15.922   1.964   9.455
 6228POPC   PO411568  15.920   1.991   9.155
 6228POPC   GL111569  15.960   1.996   8.855
 6228POPC   GL211570  16.072   1.985   8.855
 6228POPC   C1A11571  15.990   1.996   8.555
 6228POPC   D2A11572  15.930   1.965   8.255
 6228POPC   C3A11573  15.972   1.964   7.955
 6228POPC   C4A11574  15.943   1.993   7.655
 6228POPC   C1B11575  16.213   2.016   8.555
 6228POPC   C2B11576  16.225   2.006   8.255
 6228POPC   C3B11577  16.211   2.071   7.955
 6228POPC   C4B11578  16.182   2.077   7.655
 6229POPC   NC311579  39.262  33.769   9.455
 6229POPC   PO411580  39.208  33.752   9.155
 6229POPC   GL111581  39.256  33.845   8.855
 6229POPC   GL211582  39.115  33.881   8.855
 6229POPC   C1A11583  39.259  33.829   8.555
 6229POPC   D2A11584  39.276  33.758   8.255
 6229POPC   C3A11585  39.212  33.792   7.955
 6229POPC   C4A11586  39.270  33.782   7.655
 6229POPC   C1B11587  39.065  34.006   8.555
 6229POPC   C2B11588  39.095  34.023   8.255
 6229POPC   C3B11589  39.057  33.973   7.955
 6229POPC   C4B11590  39.118  34.039   7.655
 6230POPC   NC311591  36.878  40.017   9.455
 6230POPC   PO411592  36.887  39.974   9.155
 6230POPC   GL111593  36.861  39.995   8.855
 6230POPC   GL211594  37.000  40.074   8.855
 6230POPC   C1A11595  36.941  39.988   8.555
 6230POPC   D2A11596  36.860  40.012   8.255
 6230POPC   C3A11597  36.916  40.026   7.955
 6230POPC   C4A11598  36.911  39.976   7.655
 6230POPC   C1B11599  37.070  40.256   8.555
 6230POPC   C2B11600  36.988  40.188   8.255
 6230POPC   C3B11601  37.070  40.259   7.955
 6230POPC   C4B11602  37.060  40.229   7.655
 6231POPC   NC311603  37.676  25.283   9.455
 6231POPC   PO411604  37.704  25.306   9.155
 6231POPC   GL111605  37.684  25.270   8.855
 6231POPC   GL211606  37.777  25.372   8.855
 6231POPC   C1A11607  37.639  25.286   8.555
 6231POPC   D2A11608  37.679  25.239   8.255
 6231POPC   C3A11609  37.728  25.236   7.955
 6231POPC   C4A11610  37.673  25.246   7.655
 6231POPC   C1B11611  37.902  25.391   8.555
 6231POPC   C2B11612  37.880  25.428   8.255
 6231POPC   C3B11613  37.905  25.439   7.955
 6231POPC   C4B11614  37.835  25.452   7.655
 6232POPC   NC311615  21.422  24.510   9.455
 6232POPC   PO411616  21.367  24.487   9.155
 6232POPC   GL111617  21.388  24.506   8.855
 6232POPC   GL211618  21.457  24.561   8.855
 6232POPC   C1A11619  21.373  24.495   8.555
 6232POPC   D2A11620  21.412  24.451   8.255
 6232POPC   C3A11621  21.411  24.441   7.955
 6232POPC   C4A11622  21.350  24.454   7.655
 6232POPC   C1B11623  21.522  24.760   8.555
 6232POPC   C2B11624  21.521  24.667   8.255
 6232POPC   C3B11625  21.549  24.741   7.955
 6232POPC   C4B11626  21.483  24.753   7.655
 6233POPC   NC311627  42.369  40.003   9.455
 6233POPC   PO411628  42.349  39.962   9.155
 6233POPC   GL111629  42.381  40.056   8.855
 6233POPC   GL211630  42.417  40.067   8.855
 6233POPC   C1A11631  42.359  40.021   8.555
 6233POPC   D2A11632  42.293  40.054   8.255
 6233POPC   C3A11633  42.333  39.986   7.955
 6233POPC   C4A11634  42.289  40.053   7.655
 6233POPC   C1B11635  42.555  40.184   8.555
 6233POPC   C2B11636  42.499  40.128   8.255
 6233POPC   C3B11637  42.490  40.143   7.955
 6233POPC   C4B11638  42.486  40.158   7.655
 6234POPC   NC311639  14.439  43.112   9.455
 6234POPC   PO411640  14.433  43.104   9.155
 6234POPC   GL111641  14.372  43.136   8.855
 6234POPC   GL211642  14.318  43.255   8.855
 6234POPC   C1A11643  14.413  43.157   8.555
 6234POPC   D2A11644  14.453  43.094   8.255
 6234POPC   C3A11645  14.358  43.155   7.955
 6234POPC   C4A11646  14.424  43.130   7.655
 6234POPC   C1B11647  14.320  43.315   8.555
 6234POPC   C2B11648  14.281  43.297   8.255
 6234POPC   C3B11649  14.287  43.311   7.955
 6234POPC   C4B11650  14.346  43.317   7.655
 6235POPC   NC311651  14.354  26.088   9.455
 6235POPC   PO411652  14.399  26.046   9.155
 6235POPC   GL111653  14.451  25.993   8.855
 6235POPC   GL211654  14.360  25.932   8.855
 6235POPC   C1A11655  14.426  26.065   8.555
 6235POPC   D2A11656  14.416  26.076   8.255
 6235POPC   C3A11657  14.431  26.071   7.955
 6235POPC   C4A11658  14.422  26.028   7.655
 6235POPC   C1B11659  14.254  25.836   8.555
 6235POPC   C2B11660  14.197  25.842   8.255
 6235POPC   C3B11661  14.267  25.843   7.955
 6235POPC   C4B11662  14.206  25.914   7.655
 6236POPC   NC311663   6.668  19.831   9.455
 6236POPC   PO411664   6.658  19.851   9.155
 6236POPC   GL111665   6.689  19.796   8.855
 6236POPC   GL211666   6.505  19.897   8.855
 6236POPC   C1A11667   6.627  19.869   8.555
 6236POPC   D2A11668   6.631  19.812   8.255
 6236POPC   C3A11669   6.678  19.825   7.955
 6236POPC   C4A11670   6.614  19.835   7.655
 6236POPC   C1B11671   6.420  19.976   8.555
 6236POPC   C2B11672   6.456  19.954   8.255
 6236POPC   C3B11673   6.453  20.029   7.955
 6236POPC   C4B11674   6.473  20.037   7.655
 6237POPC   NC311675   7.429  40.752   9.455
 6237POPC   PO411676   7.395  40.832   9.155
 6237POPC   GL111677   7.426  40.759   8.855
 6237POPC   GL211678   7.310  40.729   8.855
 6237POPC   C1A11679   7.424  40.773   8.555
 6237POPC   D2A11680   7.413  40.812   8.255
 6237POPC   C3A11681   7.437  40.778   7.955
 6237POPC   C4A11682   7.452  40.795   7.655
 6237POPC   C1B11683   7.178  40.677   8.555
 6237POPC   C2B11684   7.247  40.674   8.255
 6237POPC   C3B11685   7.235  40.622   7.955
 6237POPC   C4B11686   7.166  40.688   7.655
 6238POPC   NC311687  20.575  33.039   9.455
 6238POPC   PO411688  20.567  33.058   9.155
 6238POPC   GL111689  20.643  33.047   8.855
 6238POPC   GL211690  20.776  33.096   8.855
 6238POPC   C1A11691  20.644  33.040   8.555
 6238POPC   D2A11692  20.629  33.057   8.255
 6238POPC   C3A11693  20.638  33.047   7.955
 6238POPC   C4A11694  20.563  33.061   7.655
 6238POPC   C1B11695  20.834  33.059   8.555
 6238POPC   C2B11696  20.872  33.039   8.255
 6238POPC   C3B11697  20.892  33.108   7.955
 6238POPC   C4B11698  20.900  33.098   7.655
 6239POPC   NC311699   5.094   8.209   9.455
 6239POPC   PO411700   5.138   8.163   9.155
 6239POPC   GL111701   5.062   8.207   8.855
 6239POPC   GL211702   5.143   8.103   8.855
 6239POPC   C1A11703   5.091   8.219   8.555
 6239POPC   D2A11704   5.134   8.208   8.255
 6239POPC   C3A11705   5.093   8.192   7.955
 6239POPC   C4A11706   5.101   8.187   7.655
 6239POPC   C1B11707   5.124   7.946   8.555
 6239POPC   C2B11708   5.135   7.948   8.255
 6239POPC   C3B11709   5.090   7.953   7.955
 6239POPC   C4B11710   5.088   7.912   7.655
 6240POPC   NC311711  43.087  38.471   9.455
 6240POPC   PO411712  43.096  38.495   9.155
 6240POPC   GL111713  43.125  38.462   8.855
 6240POPC   GL211714  43.224  38.320   8.855
 6240POPC   C1A11715  43.138  38.429   8.555
 6240POPC   D2A11716  43.132  38.439   8.255
 6240POPC   C3A11717  43.115  38.452   7.955
 6240POPC   C4A11718  43.103  38.419   7.655
 6240POPC   C1B11719  43.267  38.266   8.555
 6240POPC   C2B11720  43.301  38.302   8.255
 6240POPC   C3B11721  43.301  38.268   7.955
 6240POPC   C4B11722  43.313  38.275   7.655
 6241POPC   NC311723   1.978  35.401   9.455
 6241POPC   PO411724   1.988  35.304   9.155
 6241POPC   GL111725   1.946  35.384   8.855
 6241POPC   GL211726   2.054  35.259   8.855
 6241POPC   C1A11727   1.991  35.384   8.555
 6241POPC   D2A11728   1.954  35.344   8.255
 6241POPC   C3A11729   1.994  35.311   7.955
 6241POPC   C4A11730   1.960  35.328   7.655
 6241POPC   C1B11731   2.050  35.130   8.555
 6241POPC   C2B11732   2.053  35.130   8.255
 6241POPC   C3B11733   2.037  35.098   7.955
 6241POPC   C4B11734   2.074  35.141   7.655
 6242POPC   NC311735  44.698  15.178   9.455
 6242POPC   PO411736  44.669  15.153   9.155
 6242POPC   GL111737  44.667  15.131   8.855
 6242POPC   GL211738  44.748  15.102   8.855
 6242POPC   C1A11739  44.664  15.176   8.555
 6242POPC   D2A11740  44.636  15.178   8.255
 6242POPC   C3A11741  44.655  15.198   7.955
 6242POPC   C4A11742  44.626  15.161   7.655
 6242POPC   C1B11743  44.725  14.906   8.555
 6242POPC   C2B11744  44.723  14.962   8.255
 6242POPC   C3B11745  44.798  14.911   7.955
 6242POPC   C4B11746  44.731  14.926   7.655
 6243POPC   NC311747  27.624   5.823   9.455
 6243POPC   PO411748  27.551   5.875   9.155
 6243POPC   GL111749  27.576   5.825   8.855
 6243POPC   GL211750  27.519   5.976   8.855
 6243POPC   C1A11751  27.627   5.889   8.555
 6243POPC   D2A11752  27.563   5.826   8.255
 6243POPC   C3A11753  27.560   5.844   7.955
 6243POPC   C4A11754  27.558   5.907   7.655
 6243POPC   C1B11755  27.452   6.104   8.555
 6243POPC   C2B11756  27.410   6.042   8.255
 6243POPC   C3B11757  27.438   6.059   7.955
 6243POPC   C4B11758  27.462   6.099   7.655
 6244POPC   NC311759  37.653  14.361   9.455
 6244POPC   PO411760  37.630  14.419   9.155
 6244POPC   GL111761  37.648  14.403   8.855
 6244POPC   GL211762  37.534  14.427   8.855
 6244POPC   C1A11763  37.657  14.378   8.555
 6244POPC   D2A11764  37.714  14.422   8.255
 6244POPC   C3A11765  37.721  14.408   7.955
 6244POPC   C4A11766  37.680  14.426   7.655
 6244POPC   C1B11767  37.446  14.440   8.555
 6244POPC   C2B11768  37.459  14.447   8.255
 6244POPC   C3B11769  37.380  14.408   7.955
 6244POPC   C4B11770  37.449  14.407   7.655
 6245POPC   NC311771   0.437  24.531   9.455
 6245POPC   PO411772   0.400  24.529   9.155
 6245POPC   GL111773   0.482  24.493   8.855
 6245POPC   GL211774   0.324  24.394   8.855
 6245POPC   C1A11775   0.482  24.518   8.555
 6245POPC   D2A11776   0.478  24.462   8.255
 6245POPC   C3A11777   0.412  24.448   7.955
 6245POPC   C4A11778   0.440  24.456   7.655
 6245POPC   C1B11779   0.190  24.357   8.555
 6245POPC   C2B11780   0.191  24.368   8.255
 6245POPC   C3B11781   0.168  24.400   7.955
 6245POPC   C4B11782   0.177  24.426   7.655
 6246POPC   NC311783  43.109   0.440   9.455
 6246POPC   PO411784  43.148   0.477   9.155
 6246POPC   GL111785  43.111   0.468   8.855
 6246POPC   GL211786  42.970   0.383   8.855
 6246POPC   C1A11787  43.149   0.456   8.555
 6246POPC   D2A11788  43.092   0.388   8.255
 6246POPC   C3A11789  43.062   0.455   7.955
 6246POPC   C4A11790  43.115   0.456   7.655
 6246POPC   C1B11791  42.968   0.242   8.555
 6246POPC   C2B11792  42.879   0.262   8.255
 6246POPC   C3B11793  42.968   0.312   7.955
 6246POPC   C4B11794  42.963   0.244   7.655
 6247POPC   NC311795   0.421   8.934   9.455
 6247POPC   PO411796   0.477   8.963   9.155
 6247POPC   GL111797   0.462   8.979   8.855
 6247POPC   GL211798   0.496   8.847   8.855
 6247POPC   C1A11799   0.464   8.941   8.555
 6247POPC   D2A11800   0.431   8.928   8.255
 6247POPC   C3A11801   0.458   9.004   7.955
 6247POPC   C4A11802   0.487   9.004   7.655
 6247POPC   C1B11803   0.521   8.758   8.555
 6247POPC   C2B11804   0.542   8.767   8.255
 6247POPC   C3B11805   0.462   8.758   7.955
 6247POPC   C4B11806   0.481   8.716   7.655
 6248POPC   NC311807  29.175  16.687   9.455
 6248POPC   PO411808  29.149  16.717   9.155
 6248POPC   GL111809  29.127  16.695   8.855
 6248POPC   GL211810  29.075  16.713   8.855
 6248POPC   C1A11811  29.144  16.709   8.555
 6248POPC   D2A11812  29.147  16.743   8.255
 6248POPC   C3A11813  29.104  16.709   7.955
 6248POPC   C4A11814  29.149  16.776   7.655
 6248POPC   C1B11815  28.913  16.619   8.555
 6248POPC   C2B11816  28.918  16.675   8.255
 6248POPC   C3B11817  28.905  16.622   7.955
 6248POPC   C4B11818  28.865  16.605   7.655
 6249POPC   NC311819  32.200  11.324   9.455
 6249POPC   PO411820  32.207  11.318   9.155
 6249POPC   GL111821  32.278  11.327   8.855
 6249POPC   GL211822  32.339  11.278   8.855
 6249POPC   C1A11823  32.292  11.313   8.555
 6249POPC   D2A11824  32.268  11.288   8.255
 6249POPC   C3A11825  32.294  11.319   7.955
 6249POPC   C4A11826  32.238  11.339   7.655
 6249POPC   C1B11827  32.448  11.190   8.555
 6249POPC   C2B11828  32.486  11.182   8.255
 6249POPC   C3B11829  32.484  11.215   7.955
 6249POPC   C4B11830  32.475  11.159   7.655
 6250POPC   NC311831   5.906  34.611   9.455
 6250POPC   PO411832   5.905  34.532   9.155
 6250POPC   GL111833   5.894  34.610   8.855
 6250POPC   GL211834   5.792  34.566   8.855
 6250POPC   C1A11835   5.866  34.532   8.555
 6250POPC   D2A11836   5.894  34.592   8.255
 6250POPC   C3A11837   5.864  34.618   7.955
 6250POPC   C4A11838   5.903  34.598   7.655
 6250POPC   C1B11839   5.684  34.425   8.555
 6250POPC   C2B11840   5.646  34.502   8.255
 6250POPC   C3B11841   5.679  34.501   7.955
 6250POPC   C4B11842   5.609  34.514   7.655
 6251POPC   NC311843  24.453  15.934   9.455
 6251POPC   PO411844  24.487  15.990   9.155
 6251POPC   GL111845  24.501  15.926   8.855
 6251POPC   GL211846  24.614  15.907   8.855
 6251POPC   C1A11847  24.492  16.000   8.555
 6251POPC   D2A11848  24.518  15.986   8.255
 6251POPC   C3A11849  24.483  15.928   7.955
 6251POPC   C4A11850  24.483  15.919   7.655
 6251POPC   C1B11851  24.635  15.753   8.555
 6251POPC   C2B11852  24.651  15.760   8.255
 6251POPC   C3B11853  24.707  15.815   7.955
 6251POPC   C4B11854  24.706  15.748   7.655
 6252POPC   NC311855  15.193  40.803   9.455
 6252POPC   PO411856  15.143  40.808   9.155
 6252POPC   GL111857  15.152  40.779   8.855
 6252POPC   GL211858  15.035  40.708   8.855
 6252POPC   C1A11859  15.212  40.796   8.555
 6252POPC   D2A11860  15.200  40.792   8.255
 6252POPC   C3A11861  15.158  40.796   7.955
 6252POPC   C4A11862  15.197  40.744   7.655
 6252POPC   C1B11863  14.980  40.653   8.555
 6252POPC   C2B11864  14.948  40.746   8.255
 6252POPC   C3B11865  14.943  40.698   7.955
 6252POPC   C4B11866  14.969  40.719   7.655
 6253POPC   NC311867  41.547  30.745   9.455
 6253POPC   PO411868  41.514  30.650   9.155
 6253POPC   GL111869  41.509  30.700   8.855
 6253POPC   GL211870  41.560  30.865   8.855
 6253POPC   C1A11871  41.583  30.720   8.555
 6253POPC   D2A11872  41.512  30.670   8.255
 6253POPC   C3A11873  41.552  30.685   7.955
 6253POPC   C4A11874  41.565  30.653   7.655
 6253POPC   C1B11875  41.474  30.913   8.555
 6253POPC   C2B11876  41.549  30.909   8.255
 6253POPC   C3B11877  41.477  30.912   7.955
 6253POPC   C4B11878  41.477  30.986   7.655
 6254POPC   NC311879  36.102  40.007   9.455
 6254POPC   PO411880  36.155  40.048   9.155
 6254POPC   GL111881  36.092  39.967   8.855
 6254POPC   GL211882  36.048  40.106   8.855
 6254POPC   C1A11883  36.176  40.006   8.555
 6254POPC   D2A11884  36.081  39.965   8.255
 6254POPC   C3A11885  36.167  39.986   7.955
 6254POPC   C4A11886  36.133  39.971   7.655
 6254POPC   C1B11887  36.013  40.198   8.555
 6254POPC   C2B11888  36.054  40.272   8.255
 6254POPC   C3B11889  36.071  40.211   7.955
 6254POPC   C4B11890  36.104  40.232   7.655
 6255POPC   NC311891  21.388  20.651   9.455
 6255POPC   PO411892  21.364  20.584   9.155
 6255POPC   GL111893  21.347  20.659   8.855
 6255POPC   GL211894  21.560  20.586   8.855
 6255POPC   C1A11895  21.423  20.588   8.555
 6255POPC   D2A11896  21.379  20.625   8.255
 6255POPC   C3A11897  21.414  20.563   7.955
 6255POPC   C4A11898  21.427  20.583   7.655
 6255POPC   C1B11899  21.590  20.625   8.555
 6255POPC   C2B11900  21.625  20.616   8.255
 6255POPC   C3B11901  21.647  20.666   7.955
 6255POPC   C4B11902  21.638  20.685   7.655
 6256POPC   NC311903  26.041   3.529   9.455
 6256POPC   PO411904  26.034   3.562   9.155
 6256POPC   GL111905  26.033   3.574   8.855
 6256POPC   GL211906  25.959   3.451   8.855
 6256POPC   C1A11907  26.022   3.534   8.555
 6256POPC   D2A11908  25.999   3.542   8.255
 6256POPC   C3A11909  26.033   3.586   7.955
 6256POPC   C4A11910  25.997   3.511   7.655
 6256POPC   C1B11911  25.807   3.359   8.555
 6256POPC   C2B11912  25.843   3.382   8.255
 6256POPC   C3B11913  25.874   3.343   7.955
 6256POPC   C4B11914  25.887   3.385   7.655
 6257POPC   NC311915   6.627  42.303   9.455
 6257POPC   PO411916   6.603  42.369   9.155
 6257POPC   GL111917   6.632  42.331   8.855
 6257POPC   GL211918   6.630  42.227   8.855
 6257POPC   C1A11919   6.668  42.374   8.555
 6257POPC   D2A11920   6.662  42.329   8.255
 6257POPC   C3A11921   6.661  42.306   7.955
 6257POPC   C4A11922   6.664  42.296   7.655
 6257POPC   C1B11923   6.536  42.050   8.555
 6257POPC   C2B11924   6.541  42.049   8.255
 6257POPC   C3B11925   6.567  42.124   7.955
 6257POPC   C4B11926   6.549  42.072   7.655
 6258POPC   NC311927  31.468  21.421   9.455
 6258POPC   PO411928  31.469  21.361   9.155
 6258POPC   GL111929  31.434  21.423   8.855
 6258POPC   GL211930  31.532  21.557   8.855
 6258POPC   C1A11931  31.425  21.418   8.555
 6258POPC   D2A11932  31.491  21.398   8.255
 6258POPC   C3A11933  31.512  21.387   7.955
 6258POPC   C4A11934  31.437  21.399   7.655
 6258POPC   C1B11935  31.500  21.640   8.555
 6258POPC   C2B11936  31.494  21.639   8.255
 6258POPC   C3B11937  31.547  21.654   7.955
 6258POPC   C4B11938  31.564  21.593   7.655
 6259POPC   NC311939   6.645  31.520   9.455
 6259POPC   PO411940   6.638  31.472   9.155
 6259POPC   GL111941   6.668  31.451   8.855
 6259POPC   GL211942   6.780  31.444   8.855
 6259POPC   C1A11943   6.610  31.504   8.555
 6259POPC   D2A11944   6.601  31.462   8.255
 6259POPC   C3A11945   6.671  31.425   7.955
 6259POPC   C4A11946   6.602  31.460   7.655
 6259POPC   C1B11947   6.895  31.405   8.555
 6259POPC   C2B11948   6.893  31.367   8.255
 6259POPC   C3B11949   6.910  31.392   7.955
 6259POPC   C4B11950   6.838  31.381   7.655
 6260POPC   NC311951  25.289  41.546   9.455
 6260POPC   PO411952  25.312  41.572   9.155
 6260POPC   GL111953  25.262  41.564   8.855
 6260POPC   GL211954  25.329  41.719   8.855
 6260POPC   C1A11955  25.284  41.584   8.555
 6260POPC   D2A11956  25.269  41.570   8.255
 6260POPC   C3A11957  25.235  41.587   7.955
 6260POPC   C4A11958  25.260  41.595   7.655
 6260POPC   C1B11959  25.336  41.802   8.555
 6260POPC   C2B11960  25.362  41.815   8.255
 6260POPC   C3B11961  25.331  41.751   7.955
 6260POPC   C4B11962  25.356  41.742   7.655
 6261POPC   NC311963  44.690  18.274   9.455
 6261POPC   PO411964  44.700  18.295   9.155
 6261POPC   GL111965  44.697  18.239   8.855
 6261POPC   GL211966  44.666  18.145   8.855
 6261POPC   C1A11967  44.662  18.312   8.555
 6261POPC   D2A11968  44.646  18.318   8.255
 6261POPC   C3A11969  44.709  18.324   7.955
 6261POPC   C4A11970  44.672  18.299   7.655
 6261POPC   C1B11971  44.750  18.042   8.555
 6261POPC   C2B11972  44.765  18.069   8.255
 6261POPC   C3B11973  44.729  18.067   7.955
 6261POPC   C4B11974  44.784  18.007   7.655
 6262POPC   NC311975  36.106   4.282   9.455
 6262POPC   PO411976  36.147   4.291   9.155
 6262POPC   GL111977  36.121   4.323   8.855
 6262POPC   GL211978  36.053   4.437   8.855
 6262POPC   C1A11979  36.166   4.363   8.555
 6262POPC   D2A11980  36.088   4.280   8.255
 6262POPC   C3A11981  36.098   4.325   7.955
 6262POPC   C4A11982  36.135   4.331   7.655
 6262POPC   C1B11983  36.062   4.534   8.555
 6262POPC   C2B11984  36.038   4.573   8.255
 6262POPC   C3B11985  36.001   4.573   7.955
 6262POPC   C4B11986  36.021   4.564   7.655
 6263POPC   NC311987   1.958   0.464   9.455
 6263POPC   PO411988   2.017   0.426   9.155
 6263POPC   GL111989   1.945   0.407   8.855
 6263POPC   GL211990   2.088   0.409   8.855
 6263POPC   C1A11991   1.983   0.488   8.555
 6263POPC   D2A11992   1.998   0.424   8.255
 6263POPC   C3A11993   1.965   0.482   7.955
 6263POPC   C4A11994   2.009   0.456   7.655
 6263POPC   C1B11995   2.281   0.381   8.555
 6263POPC   C2B11996   2.192   0.336   8.255
 6263POPC   C3B11997   2.192   0.352   7.955
 6263POPC   C4B11998   2.257   0.378   7.655
 6264POPC   NC311999   8.162  12.109   9.455
 6264POPC   PO412000   8.238  12.106   9.155
 6264POPC   GL112001   8.245  12.051   8.855
 6264POPC   GL212002   8.196  11.980   8.855
 6264POPC   C1A12003   8.165  12.080   8.555
 6264POPC   D2A12004   8.194  12.078   8.255
 6264POPC   C3A12005   8.154  12.073   7.955
 6264POPC   C4A12006   8.215  12.124   7.655
 6264POPC   C1B12007   8.167  11.855   8.555
 6264POPC   C2B12008   8.133  11.855   8.255
 6264POPC   C3B12009   8.169  11.868   7.955
 6264POPC   C4B12010   8.134  11.805   7.655
 6265POPC   NC312011   2.790  19.835   9.455
 6265POPC   PO412012   2.727  19.790   9.155
 6265POPC   GL112013   2.739  19.884   8.855
 6265POPC   GL212014   2.666  19.785   8.855
 6265POPC   C1A12015   2.743  19.855   8.555
 6265POPC   D2A12016   2.756  19.819   8.255
 6265POPC   C3A12017   2.751  19.868   7.955
 6265POPC   C4A12018   2.738  19.828   7.655
 6265POPC   C1B12019   2.501  19.786   8.555
 6265POPC   C2B12020   2.567  19.815   8.255
 6265POPC   C3B12021   2.542  19.770   7.955
 6265POPC   C4B12022   2.559  19.757   7.655
 6266POPC   NC312023   1.221   1.213   9.455
 6266POPC   PO412024   1.203   1.213   9.155
 6266POPC   GL112025   1.219   1.244   8.855
 6266POPC   GL212026   1.144   1.336   8.855
 6266POPC   C1A12027   1.189   1.178   8.555
 6266POPC   D2A12028   1.262   1.178   8.255
 6266POPC   C3A12029   1.251   1.180   7.955
 6266POPC   C4A12030   1.164   1.183   7.655
 6266POPC   C1B12031   1.121   1.420   8.555
 6266POPC   C2B12032   1.125   1.440   8.255
 6266POPC   C3B12033   1.059   1.402   7.955
 6266POPC   C4B12034   1.069   1.447   7.655
 6267POPC   NC312035  20.639  19.099   9.455
 6267POPC   PO412036  20.628  19.056   9.155
 6267POPC   GL112037  20.623  19.107   8.855
 6267POPC   GL212038  20.651  19.146   8.855
 6267POPC   C1A12039  20.571  19.104   8.555
 6267POPC   D2A12040  20.655  19.024   8.255
 6267POPC   C3A12041  20.628  19.103   7.955
 6267POPC   C4A12042  20.658  19.082   7.655
 6267POPC   C1B12043  20.590  19.338   8.555
 6267POPC   C2B12044  20.610  19.267   8.255
 6267POPC   C3B12045  20.632  19.292   7.955
 6267POPC   C4B12046  20.575  19.343   7.655
 6268POPC   NC312047  36.155  44.663   9.455
 6268POPC   PO412048  36.101  44.619   9.155
 6268POPC   GL112049  36.144  44.694   8.855
 6268POPC   GL212050  36.012  44.772   8.855
 6268POPC   C1A12051  36.138  44.677   8.555
 6268POPC   D2A12052  36.079  44.616   8.255
 6268POPC   C3A12053  36.083  44.651   7.955
 6268POPC   C4A12054  36.170  44.708   7.655
 6268POPC   C1B12055  35.921  44.843   8.555
 6268POPC   C2B12056  35.887  44.812   8.255
 6268POPC   C3B12057  35.962  44.824   7.955
 6268POPC   C4B12058  35.945  44.836   7.655
 6269POPC   NC312059  41.574  37.676   9.455
 6269POPC   PO412060  41.520  37.702   9.155
 6269POPC   GL112061  41.531  37.714   8.855
 6269POPC   GL212062  41.530  37.792   8.855
 6269POPC   C1A12063  41.524  37.710   8.555
 6269POPC   D2A12064  41.510  37.702   8.255
 6269POPC   C3A12065  41.520  37.696   7.955
 6269POPC   C4A12066  41.604  37.644   7.655
 6269POPC   C1B12067  41.543  37.941   8.555
 6269POPC   C2B12068  41.485  37.935   8.255
 6269POPC   C3B12069  41.514  37.892   7.955
 6269POPC   C4B12070  41.559  37.975   7.655
 6270POPC   NC312071   0.433   3.529   9.455
 6270POPC   PO412072   0.425   3.509   9.155
 6270POPC   GL112073   0.477   3.526   8.855
 6270POPC   GL212074   0.364   3.587   8.855
 6270POPC   C1A12075   0.463   3.525   8.555
 6270POPC   D2A12076   0.449   3.526   8.255
 6270POPC   C3A12077   0.411   3.494   7.955
 6270POPC   C4A12078   0.440   3.528   7.655
 6270POPC   C1B12079   0.220   3.662   8.555
 6270POPC   C2B12080   0.265   3.685   8.255
 6270POPC   C3B12081   0.197   3.654   7.955
 6270POPC   C4B12082   0.288   3.745   7.655
 6271POPC   NC312083  29.894  38.408   9.455
 6271POPC   PO412084  29.955  38.436   9.155
 6271POPC   GL112085  29.912  38.489   8.855
 6271POPC   GL212086  30.050  38.438   8.855
 6271POPC   C1A12087  29.881  38.452   8.555
 6271POPC   D2A12088  29.947  38.479   8.255
 6271POPC   C3A12089  29.877  38.478   7.955
 6271POPC   C4A12090  29.893  38.490   7.655
 6271POPC   C1B12091  30.157  38.408   8.555
 6271POPC   C2B12092  30.139  38.408   8.255
 6271POPC   C3B12093  30.132  38.397   7.955
 6271POPC   C4B12094  30.102  38.340   7.655
 6272POPC   NC312095  26.771  30.651   9.455
 6272POPC   PO412096  26.772  30.657   9.155
 6272POPC   GL112097  26.809  30.677   8.855
 6272POPC   GL212098  26.971  30.709   8.855
 6272POPC   C1A12099  26.830  30.708   8.555
 6272POPC   D2A12100  26.813  30.716   8.255
 6272POPC   C3A12101  26.842  30.746   7.955
 6272POPC   C4A12102  26.846  30.718   7.655
 6272POPC   C1B12103  27.075  30.603   8.555
 6272POPC   C2B12104  27.016  30.696   8.255
 6272POPC   C3B12105  27.018  30.677   7.955
 6272POPC   C4B12106  27.058  30.644   7.655
 6273POPC   NC312107  44.675  37.630   9.455
 6273POPC   PO412108  44.618  37.630   9.155
 6273POPC   GL112109  44.622  37.674   8.855
 6273POPC   GL212110  44.591  37.604   8.855
 6273POPC   C1A12111  44.635  37.720   8.555
 6273POPC   D2A12112  44.664  37.701   8.255
 6273POPC   C3A12113  44.635  37.718   7.955
 6273POPC   C4A12114  44.687  37.644   7.655
 6273POPC   C1B12115  44.384  37.590   8.555
 6273POPC   C2B12116  44.385  37.641   8.255
 6273POPC   C3B12117  44.385  37.563   7.955
 6273POPC   C4B12118  44.441  37.556   7.655
 6274POPC   NC312119   2.039  26.864   9.455
 6274POPC   PO412120   1.945  26.787   9.155
 6274POPC   GL112121   1.992  26.857   8.855
 6274POPC   GL212122   1.842  26.877   8.855
 6274POPC   C1A12123   2.040  26.773   8.555
 6274POPC   D2A12124   1.944  26.837   8.255
 6274POPC   C3A12125   1.963  26.819   7.955
 6274POPC   C4A12126   2.004  26.805   7.655
 6274POPC   C1B12127   1.758  26.951   8.555
 6274POPC   C2B12128   1.719  26.950   8.255
 6274POPC   C3B12129   1.750  26.944   7.955
 6274POPC   C4B12130   1.794  26.895   7.655
 6275POPC   NC312131   9.735  19.813   9.455
 6275POPC   PO412132   9.787  19.853   9.155
 6275POPC   GL112133   9.715  19.798   8.855
 6275POPC   GL212134   9.720  19.708   8.855
 6275POPC   C1A12135   9.703  19.810   8.555
 6275POPC   D2A12136   9.770  19.856   8.255
 6275POPC   C3A12137   9.789  19.791   7.955
 6275POPC   C4A12138   9.719  19.857   7.655
 6275POPC   C1B12139   9.689  19.634   8.555
 6275POPC   C2B12140   9.716  19.638   8.255
 6275POPC   C3B12141   9.646  19.559   7.955
 6275POPC   C4B12142   9.637  19.572   7.655
 6276POPC   NC312143  10.512  22.928   9.455
 6276POPC   PO412144  10.555  22.983   9.155
 6276POPC   GL112145  10.479  22.917   8.855
 6276POPC   GL212146  10.588  23.063   8.855
 6276POPC   C1A12147  10.571  22.948   8.555
 6276POPC   D2A12148  10.507  22.900   8.255
 6276POPC   C3A12149  10.514  22.955   7.955
 6276POPC   C4A12150  10.487  22.965   7.655
 6276POPC   C1B12151  10.750  23.158   8.555
 6276POPC   C2B12152  10.718  23.106   8.255
 6276POPC   C3B12153  10.745  23.139   7.955
 6276POPC   C4B12154  10.651  23.105   7.655
 6277POPC   NC312155  26.056  11.271   9.455
 6277POPC   PO412156  26.046  11.296   9.155
 6277POPC   GL112157  26.035  11.344   8.855
 6277POPC   GL212158  26.121  11.364   8.855
 6277POPC   C1A12159  26.066  11.330   8.555
 6277POPC   D2A12160  26.029  11.264   8.255
 6277POPC   C3A12161  26.053  11.287   7.955
 6277POPC   C4A12162  26.037  11.281   7.655
 6277POPC   C1B12163  26.265  11.416   8.555
 6277POPC   C2B12164  26.259  11.468   8.255
 6277POPC   C3B12165  26.227  11.379   7.955
 6277POPC   C4B12166  26.308  11.389   7.655
 6278POPC   NC312167  23.758  39.248   9.455
 6278POPC   PO412168  23.707  39.271   9.155
 6278POPC   GL112169  23.717  39.272   8.855
 6278POPC   GL212170  23.720  39.383   8.855
 6278POPC   C1A12171  23.704  39.189   8.555
 6278POPC   D2A12172  23.743  39.243   8.255
 6278POPC   C3A12173  23.675  39.204   7.955
 6278POPC   C4A12174  23.683  39.268   7.655
 6278POPC   C1B12175  23.726  39.425   8.555
 6278POPC   C2B12176  23.775  39.471   8.255
 6278POPC   C3B12177  23.727  39.508   7.955
 6278POPC   C4B12178  23.794  39.495   7.655
 6279POPC   NC312179   1.965  43.085   9.455
 6279POPC   PO412180   1.999  43.062   9.155
 6279POPC   GL112181   1.969  43.123   8.855
 6279POPC   GL212182   1.979  42.951   8.855
 6279POPC   C1A12183   2.034  43.089   8.555
 6279POPC   D2A12184   2.007  43.072   8.255
 6279POPC   C3A12185   1.979  43.146   7.955
 6279POPC   C4A12186   2.009  43.135   7.655
 6279POPC   C1B12187   2.084  42.867   8.555
 6279POPC   C2B12188   2.104  42.852   8.255
 6279POPC   C3B12189   2.060  42.900   7.955
 6279POPC   C4B12190   2.080  42.850   7.655
 6280POPC   NC312191  16.734  20.626   9.455
 6280POPC   PO412192  16.718  20.652   9.155
 6280POPC   GL112193  16.685  20.574   8.855
 6280POPC   GL212194  16.814  20.546   8.855
 6280POPC   C1A12195  16.699  20.566   8.555
 6280POPC   D2A12196  16.757  20.619   8.255
 6280POPC   C3A12197  16.763  20.599   7.955
 6280POPC   C4A12198  16.721  20.578   7.655
 6280POPC   C1B12199  16.937  20.522   8.555
 6280POPC   C2B12200  16.959  20.588   8.255
 6280POPC   C3B12201  16.932  20.599   7.955
 6280POPC   C4B12202  16.939  20.543   7.655
 6281POPC   NC312203  21.422  16.725   9.455
 6281POPC   PO412204  21.350  16.745   9.155
 6281POPC   GL112205  21.367  16.720   8.855
 6281POPC   GL212206  21.412  16.646   8.855
 6281POPC   C1A12207  21.435  16.731   8.555
 6281POPC   D2A12208  21.350  16.751   8.255
 6281POPC   C3A12209  21.383  16.714   7.955
 6281POPC   C4A12210  21.366  16.759   7.655
 6281POPC   C1B12211  21.322  16.526   8.555
 6281POPC   C2B12212  21.320  16.458   8.255
 6281POPC   C3B12213  21.347  16.496   7.955
 6281POPC   C4B12214  21.351  16.484   7.655
 6282POPC   NC312215  40.734  43.876   9.455
 6282POPC   PO412216  40.800  43.870   9.155
 6282POPC   GL112217  40.812  43.934   8.855
 6282POPC   GL212218  40.824  43.765   8.855
 6282POPC   C1A12219  40.762  43.846   8.555
 6282POPC   D2A12220  40.824  43.911   8.255
 6282POPC   C3A12221  40.806  43.933   7.955
 6282POPC   C4A12222  40.800  43.850   7.655
 6282POPC   C1B12223  40.917  43.665   8.555
 6282POPC   C2B12224  40.962  43.677   8.255
 6282POPC   C3B12225  40.905  43.727   7.955
 6282POPC   C4B12226  40.965  43.709   7.655
 6283POPC   NC312227  27.544  15.147   9.455
 6283POPC   PO412228  27.598  15.211   9.155
 6283POPC   GL112229  27.622  15.178   8.855
 6283POPC   GL212230  27.477  15.192   8.855
 6283POPC   C1A12231  27.545  15.171   8.555
 6283POPC   D2A12232  27.543  15.135   8.255
 6283POPC   C3A12233  27.625  15.216   7.955
 6283POPC   C4A12234  27.579  15.160   7.655
 6283POPC   C1B12235  27.368  15.084   8.555
 6283POPC   C2B12236  27.317  15.144   8.255
 6283POPC   C3B12237  27.349  15.170   7.955
 6283POPC   C4B12238  27.374  15.139   7.655
 6284POPC   NC312239  25.288   8.998   9.455
 6284POPC   PO412240  25.312   8.966   9.155
 6284POPC   GL112241  25.290   8.954   8.855
 6284POPC   GL212242  25.244   9.068   8.855
 6284POPC   C1A12243  25.239   9.013   8.555
 6284POPC   D2A12244  25.260   8.940   8.255
 6284POPC   C3A12245  25.262   8.941   7.955
 6284POPC   C4A12246  25.270   8.936   7.655
 6284POPC   C1B12247  25.242   9.240   8.555
 6284POPC   C2B12248  25.214   9.202   8.255
 6284POPC   C3B12249  25.168   9.191   7.955
 6284POPC   C4B12250  25.211   9.172   7.655
 6285POPC   NC312251   6.682  13.600   9.455
 6285POPC   PO412252   6.615  13.610   9.155
 6285POPC   GL112253   6.684  13.646   8.855
 6285POPC   GL212254   6.579  13.504   8.855
 6285POPC   C1A12255   6.619  13.604   8.555
 6285POPC   D2A12256   6.628  13.672   8.255
 6285POPC   C3A12257   6.617  13.677   7.955
 6285POPC   C4A12258   6.622  13.620   7.655
 6285POPC   C1B12259   6.564  13.390   8.555
 6285POPC   C2B12260   6.598  13.406   8.255
 6285POPC   C3B12261   6.598  13.366   7.955
 6285POPC   C4B12262   6.627  13.384   7.655
 6286POPC   NC312263  29.960   8.941   9.455
 6286POPC   PO412264  29.922   8.970   9.155
 6286POPC   GL112265  29.939   8.974   8.855
 6286POPC   GL212266  29.883   9.037   8.855
 6286POPC   C1A12267  29.933   8.937   8.555
 6286POPC   D2A12268  29.922   8.970   8.255
 6286POPC   C3A12269  29.960   8.946   7.955
 6286POPC   C4A12270  29.935   8.993   7.655
 6286POPC   C1B12271  29.795   9.156   8.555
 6286POPC   C2B12272  29.782   9.144   8.255
 6286POPC   C3B12273  29.793   9.198   7.955
 6286POPC   C4B12274  29.803   9.180   7.655
 6287POPC   NC312275  33.755  43.108   9.455
 6287POPC   PO412276  33.842  43.076   9.155
 6287POPC   GL112277  33.813  43.148   8.855
 6287POPC   GL212278  33.879  43.065   8.855
 6287POPC   C1A12279  33.841  43.094   8.555
 6287POPC   D2A12280  33.766  43.091   8.255
 6287POPC   C3A12281  33.771  43.155   7.955
 6287POPC   C4A12282  33.815  43.126   7.655
 6287POPC   C1B12283  33.968  42.899   8.555
 6287POPC   C2B12284  34.023  42.893   8.255
 6287POPC   C3B12285  33.981  42.923   7.955
 6287POPC   C4B12286  33.983  42.916   7.655
 6288POPC   NC312287   8.221  12.832   9.455
 6288POPC   PO412288   8.185  12.902   9.155
 6288POPC   GL112289   8.233  12.866   8.855
 6288POPC   GL212290   8.320  12.914   8.855
 6288POPC   C1A12291   8.205  12.859   8.555
 6288POPC   D2A12292   8.191  12.842   8.255
 6288POPC   C3A12293   8.151  12.857   7.955
 6288POPC   C4A12294   8.149  12.834   7.655
 6288POPC   C1B12295   8.351  13.077   8.555
 6288POPC   C2B12296   8.316  13.090   8.255
 6288POPC   C3B12297   8.383  13.031   7.955
 6288POPC   C4B12298   8.333  13.009   7.655
 6289POPC   NC312299   2.752   1.943   9.455
 6289POPC   PO412300   2.758   1.955   9.155
 6289POPC   GL112301   2.797   2.032   8.855
 6289POPC   GL212302   2.872   1.877   8.855
 6289POPC   C1A12303   2.807   1.951   8.555
 6289POPC   D2A12304   2.760   1.940   8.255
 6289POPC   C3A12305   2.743   1.992   7.955
 6289POPC   C4A12306   2.738   1.976   7.655
 6289POPC   C1B12307   3.022   1.894   8.555
 6289POPC   C2B12308   2.983   1.904   8.255
 6289POPC   C3B12309   2.955   1.886   7.955
 6289POPC   C4B12310   2.926   1.896   7.655
 6290POPC   NC312311   6.694  15.909   9.455
 6290POPC   PO412312   6.632  15.959   9.155
 6290POPC   GL112313   6.657  15.929   8.855
 6290POPC   GL212314   6.730  15.903   8.855
 6290POPC   C1A12315   6.649  15.969   8.555
 6290POPC   D2A12316   6.599  15.946   8.255
 6290POPC   C3A12317   6.620  16.003   7.955
 6290POPC   C4A12318   6.637  15.980   7.655
 6290POPC   C1B12319   6.899  15.961   8.555
 6290POPC   C2B12320   6.908  15.954   8.255
 6290POPC   C3B12321   6.893  15.966   7.955
 6290POPC   C4B12322   6.910  15.978   7.655
 6291POPC   NC312323  28.341  23.731   9.455
 6291POPC   PO412324  28.383  23.724   9.155
 6291POPC   GL112325  28.393  23.669   8.855
 6291POPC   GL212326  28.378  23.841   8.855
 6291POPC   C1A12327  28.363  23.735   8.555
 6291POPC   D2A12328  28.382  23.734   8.255
 6291POPC   C3A12329  28.368  23.685   7.955
 6291POPC   C4A12330  28.354  23.757   7.655
 6291POPC   C1B12331  28.385  23.986   8.555
 6291POPC   C2B12332  28.412  23.985   8.255
 6291POPC   C3B12333  28.393  23.934   7.955
 6291POPC   C4B12334  28.390  23.962   7.655
 6292POPC   NC312335  25.236  39.988   9.455
 6292POPC   PO412336  25.292  39.987   9.155
 6292POPC   GL112337  25.260  39.992   8.855
 6292POPC   GL212338  25.383  40.061   8.855
 6292POPC   C1A12339  25.297  39.978   8.555
 6292POPC   D2A12340  25.243  39.971   8.255
 6292POPC   C3A12341  25.245  39.984   7.955
 6292POPC   C4A12342  25.252  39.975   7.655
 6292POPC   C1B12343  25.502  40.119   8.555
 6292POPC   C2B12344  25.479  40.123   8.255
 6292POPC   C3B12345  25.513  40.129   7.955
 6292POPC   C4B12346  25.457  40.075   7.655
 6293POPC   NC312347  40.805  40.825   9.455
 6293POPC   PO412348  40.794  40.789   9.155
 6293POPC   GL112349  40.821  40.758   8.855
 6293POPC   GL212350  40.705  40.703   8.855
 6293POPC   C1A12351  40.800  40.785   8.555
 6293POPC   D2A12352  40.759  40.798   8.255
 6293POPC   C3A12353  40.746  40.805   7.955
 6293POPC   C4A12354  40.772  40.773   7.655
 6293POPC   C1B12355  40.619  40.658   8.555
 6293POPC   C2B12356  40.638  40.578   8.255
 6293POPC   C3B12357  40.608  40.633   7.955
 6293POPC   C4B12358  40.587  40.662   7.655
 6294POPC   NC312359  14.393  40.814   9.455
 6294POPC   PO412360  14.408  40.774   9.155
 6294POPC   GL112361  14.453  40.764   8.855
 6294POPC   GL212362  14.331  40.663   8.855
 6294POPC   C1A12363  14.356  40.792   8.555
 6294POPC   D2A12364  14.392  40.801   8.255
 6294POPC   C3A12365  14.450  40.811   7.955
 6294POPC   C4A12366  14.412  40.746   7.655
 6294POPC   C1B12367  14.197  40.563   8.555
 6294POPC   C2B12368  14.210  40.613   8.255
 6294POPC   C3B12369  14.249  40.572   7.955
 6294POPC   C4B12370  14.200  40.630   7.655
 6295POPC   NC312371   8.994  30.739   9.455
 6295POPC   PO412372   8.987  30.658   9.155
 6295POPC   GL112373   8.979  30.738   8.855
 6295POPC   GL212374   8.956  30.541   8.855
 6295POPC   C1A12375   8.923  30.665   8.555
 6295POPC   D2A12376   9.022  30.684   8.255
 6295POPC   C3A12377   9.002  30.649   7.955
 6295POPC   C4A12378   8.970  30.648   7.655
 6295POPC   C1B12379   8.975  30.408   8.555
 6295POPC   C2B12380   9.009  30.472   8.255
 6295POPC   C3B12381   9.039  30.452   7.955
 6295POPC   C4B12382   9.034  30.457   7.655
 6296POPC   NC312383  34.619  36.117   9.455
 6296POPC   PO412384  34.586  36.106   9.155
 6296POPC   GL112385  34.527  36.167   8.855
 6296POPC   GL212386  34.517  36.263   8.855
 6296POPC   C1A12387  34.561  36.093   8.555
 6296POPC   D2A12388  34.552  36.137   8.255
 6296POPC   C3A12389  34.547  36.142   7.955
 6296POPC   C4A12390  34.547  36.165   7.655
 6296POPC   C1B12391  34.563  36.406   8.555
 6296POPC   C2B12392  34.483  36.406   8.255
 6296POPC   C3B12393  34.563  36.340   7.955
 6296POPC   C4B12394  34.575  36.381   7.655
 6297POPC   NC312395  37.632  22.956   9.455
 6297POPC   PO412396  37.723  22.916   9.155
 6297POPC   GL112397  37.719  22.918   8.855
 6297POPC   GL212398  37.536  22.992   8.855
 6297POPC   C1A12399  37.682  22.973   8.555
 6297POPC   D2A12400  37.682  22.892   8.255
 6297POPC   C3A12401  37.652  22.932   7.955
 6297POPC   C4A12402  37.724  22.927   7.655
 6297POPC   C1B12403  37.465  23.030   8.555
 6297POPC   C2B12404  37.454  23.025   8.255
 6297POPC   C3B12405  37.461  22.994   7.955
 6297POPC   C4B12406  37.468  23.014   7.655
 6298POPC   NC312407  26.075   1.954   9.455
 6298POPC   PO412408  26.046   2.002   9.155
 6298POPC   GL112409  26.082   2.008   8.855
 6298POPC   GL212410  25.951   1.928   8.855
 6298POPC   C1A12411  26.005   1.960   8.555
 6298POPC   D2A12412  26.071   1.997   8.255
 6298POPC   C3A12413  26.012   1.960   7.955
 6298POPC   C4A12414  26.072   1.980   7.655
 6298POPC   C1B12415  25.847   1.947   8.555
 6298POPC   C2B12416  25.837   1.957   8.255
 6298POPC   C3B12417  25.817   1.911   7.955
 6298POPC   C4B12418  25.835   1.922   7.655
 6299POPC   NC312419  30.670  21.429   9.455
 6299POPC   PO412420  30.688  21.434   9.155
 6299POPC   GL112421  30.705  21.426   8.855
 6299POPC   GL212422  30.804  21.483   8.855
 6299POPC   C1A12423  30.678  21.340   8.555
 6299POPC   D2A12424  30.659  21.432   8.255
 6299POPC   C3A12425  30.678  21.390   7.955
 6299POPC   C4A12426  30.659  21.356   7.655
 6299POPC   C1B12427  30.871  21.538   8.555
 6299POPC   C2B12428  30.941  21.548   8.255
 6299POPC   C3B12429  30.884  21.506   7.955
 6299POPC   C4B12430  30.925  21.517   7.655
 6300POPC   NC312431  33.750   1.241   9.455
 6300POPC   PO412432  33.809   1.236   9.155
 6300POPC   GL112433  33.782   1.204   8.855
 6300POPC   GL212434  33.733   1.320   8.855
 6300POPC   C1A12435  33.754   1.216   8.555
 6300POPC   D2A12436  33.817   1.203   8.255
 6300POPC   C3A12437  33.786   1.177   7.955
 6300POPC   C4A12438  33.807   1.257   7.655
 6300POPC   C1B12439  33.704   1.401   8.555
 6300POPC   C2B12440  33.729   1.478   8.255
 6300POPC   C3B12441  33.678   1.463   7.955
 6300POPC   C4B12442  33.674   1.465   7.655
 6301POPC   NC312443  26.861  22.206   9.455
 6301POPC   PO412444  26.796  22.199   9.155
 6301POPC   GL112445  26.794  22.138   8.855
 6301POPC   GL212446  26.890  22.329   8.855
 6301POPC   C1A12447  26.784  22.141   8.555
 6301POPC   D2A12448  26.819  22.178   8.255
 6301POPC   C3A12449  26.825  22.147   7.955
 6301POPC   C4A12450  26.793  22.124   7.655
 6301POPC   C1B12451  26.848  22.451   8.555
 6301POPC   C2B12452  26.849  22.402   8.255
 6301POPC   C3B12453  26.849  22.390   7.955
 6301POPC   C4B12454  26.888  22.386   7.655
 6302POPC   NC312455  18.248  43.080   9.455
 6302POPC   PO412456  18.255  43.093   9.155
 6302POPC   GL112457  18.313  43.068   8.855
 6302POPC   GL212458  18.351  43.036   8.855
 6302POPC   C1A12459  18.254  43.098   8.555
 6302POPC   D2A12460  18.257  43.071   8.255
 6302POPC   C3A12461  18.280  43.124   7.955
 6302POPC   C4A12462  18.238  43.094   7.655
 6302POPC   C1B12463  18.333  42.845   8.555
 6302POPC   C2B12464  18.377  42.914   8.255
 6302POPC   C3B12465  18.371  42.873   7.955
 6302POPC   C4B12466  18.391  42.857   7.655
 6303POPC   NC312467  36.884   4.307   9.455
 6303POPC   PO412468  36.874   4.287   9.155
 6303POPC   GL112469  36.927   4.322   8.855
 6303POPC   GL212470  36.786   4.308   8.855
 6303POPC   C1A12471  36.903   4.284   8.555
 6303POPC   D2A12472  36.859   4.316   8.255
 6303POPC   C3A12473  36.924   4.330   7.955
 6303POPC   C4A12474  36.877   4.324   7.655
 6303POPC   C1B12475  36.676   4.285   8.555
 6303POPC   C2B12476  36.639   4.276   8.255
 6303POPC   C3B12477  36.694   4.221   7.955
 6303POPC   C4B12478  36.629   4.215   7.655
 6304POPC   NC312479  43.063  26.031   9.455
 6304POPC   PO412480  43.147  26.045   9.155
 6304POPC   GL112481  43.071  25.996   8.855
 6304POPC   GL212482  43.113  26.127   8.855
 6304POPC   C1A12483  43.105  26.019   8.555
 6304POPC   D2A12484  43.133  26.037   8.255
 6304POPC   C3A12485  43.063  26.017   7.955
 6304POPC   C4A12486  43.123  26.033   7.655
 6304POPC   C1B12487  43.074  26.290   8.555
 6304POPC   C2B12488  42.997  26.265   8.255
 6304POPC   C3B12489  42.984  26.304   7.955
 6304POPC   C4B12490  43.076  26.316   7.655
 6305POPC   NC312491  10.522  38.422   9.455
 6305POPC   PO412492  10.483  38.499   9.155
 6305POPC   GL112493  10.549  38.410   8.855
 6305POPC   GL212494  10.518  38.609   8.855
 6305POPC   C1A12495  10.560  38.443   8.555
 6305POPC   D2A12496  10.539  38.456   8.255
 6305POPC   C3A12497  10.573  38.406   7.955
 6305POPC   C4A12498  10.525  38.451   7.655
 6305POPC   C1B12499  10.542  38.716   8.555
 6305POPC   C2B12500  10.562  38.662   8.255
 6305POPC   C3B12501  10.585  38.656   7.955
 6305POPC   C4B12502  10.509  38.749   7.655
 6306POPC   NC312503   5.848  36.119   9.455
 6306POPC   PO412504   5.915  36.152   9.155
 6306POPC   GL112505   5.870  36.160   8.855
 6306POPC   GL212506   5.723  36.165   8.855
 6306POPC   C1A12507   5.873  36.099   8.555
 6306POPC   D2A12508   5.842  36.093   8.255
 6306POPC   C3A12509   5.910  36.102   7.955
 6306POPC   C4A12510   5.917  36.111   7.655
 6306POPC   C1B12511   5.617  36.156   8.555
 6306POPC   C2B12512   5.649  36.152   8.255
 6306POPC   C3B12513   5.616  36.116   7.955
 6306POPC   C4B12514   5.594  36.182   7.655
 6307POPC   NC312515  42.290   8.180   9.455
 6307POPC   PO412516  42.298   8.234   9.155
 6307POPC   GL112517  42.338   8.240   8.855
 6307POPC   GL212518  42.191   8.165   8.855
 6307POPC   C1A12519  42.336   8.198   8.555
 6307POPC   D2A12520  42.351   8.175   8.255
 6307POPC   C3A12521  42.344   8.243   7.955
 6307POPC   C4A12522  42.338   8.157   7.655
 6307POPC   C1B12523  42.076   8.112   8.555
 6307POPC   C2B12524  42.057   8.122   8.255
 6307POPC   C3B12525  42.131   8.137   7.955
 6307POPC   C4B12526  42.078   8.103   7.655
 6308POPC   NC312527  32.220  36.897   9.455
 6308POPC   PO412528  32.223  36.924   9.155
 6308POPC   GL112529  32.224  36.923   8.855
 6308POPC   GL212530  32.275  36.827   8.855
 6308POPC   C1A12531  32.289  36.933   8.555
 6308POPC   D2A12532  32.224  36.854   8.255
 6308POPC   C3A12533  32.268  36.861   7.955
 6308POPC   C4A12534  32.220  36.882   7.655
 6308POPC   C1B12535  32.391  36.672   8.555
 6308POPC   C2B12536  32.357  36.656   8.255
 6308POPC   C3B12537  32.331  36.668   7.955
 6308POPC   C4B12538  32.371  36.652   7.655
 6309POPC   NC312539  16.705  28.354   9.455
 6309POPC   PO412540  16.712  28.414   9.155
 6309POPC   GL112541  16.743  28.363   8.855
 6309POPC   GL212542  16.703  28.491   8.855
 6309POPC   C1A12543  16.754  28.372   8.555
 6309POPC   D2A12544  16.717  28.369   8.255
 6309POPC   C3A12545  16.759  28.409   7.955
 6309POPC   C4A12546  16.715  28.349   7.655
 6309POPC   C1B12547  16.569  28.547   8.555
 6309POPC   C2B12548  16.580  28.606   8.255
 6309POPC   C3B12549  16.561  28.602   7.955
 6309POPC   C4B12550  16.628  28.599   7.655
 6310POPC   NC312551  29.157  26.826   9.455
 6310POPC   PO412552  29.099  26.851   9.155
 6310POPC   GL112553  29.132  26.777   8.855
 6310POPC   GL212554  29.166  26.904   8.855
 6310POPC   C1A12555  29.147  26.771   8.555
 6310POPC   D2A12556  29.189  26.791   8.255
 6310POPC   C3A12557  29.128  26.821   7.955
 6310POPC   C4A12558  29.131  26.794   7.655
 6310POPC   C1B12559  29.083  27.038   8.555
 6310POPC   C2B12560  29.089  27.034   8.255
 6310POPC   C3B12561  29.093  27.054   7.955
 6310POPC   C4B12562  29.152  27.069   7.655
 6311POPC   NC312563  41.511  36.101   9.455
 6311POPC   PO412564  41.535  36.112   9.155
 6311POPC   GL112565  41.550  36.095   8.855
 6311POPC   GL212566  41.476  36.006   8.855
 6311POPC   C1A12567  41.539  36.151   8.555
 6311POPC   D2A12568  41.526  36.081   8.255
 6311POPC   C3A12569  41.540  36.104   7.955
 6311POPC   C4A12570  41.525  36.128   7.655
 6311POPC   C1B12571  41.421  35.941   8.555
 6311POPC   C2B12572  41.433  35.872   8.255
 6311POPC   C3B12573  41.481  35.947   7.955
 6311POPC   C4B12574  41.408  35.916   7.655
 6312POPC   NC312575   1.969  36.918   9.455
 6312POPC   PO412576   2.033  36.885   9.155
 6312POPC   GL112577   2.013  36.902   8.855
 6312POPC   GL212578   2.040  36.986   8.855
 6312POPC   C1A12579   1.987  36.871   8.555
 6312POPC   D2A12580   1.980  36.875   8.255
 6312POPC   C3A12581   1.977  36.920   7.955
 6312POPC   C4A12582   2.033  36.913   7.655
 6312POPC   C1B12583   2.024  37.127   8.555
 6312POPC   C2B12584   1.989  37.138   8.255
 6312POPC   C3B12585   2.050  37.150   7.955
 6312POPC   C4B12586   2.044  37.177   7.655
 6313POPC   NC312587  10.572  22.146   9.455
 6313POPC   PO412588  10.507  22.205   9.155
 6313POPC   GL112589  10.499  22.128   8.855
 6313POPC   GL212590  10.397  22.165   8.855
 6313POPC   C1A12591  10.567  22.190   8.555
 6313POPC   D2A12592  10.574  22.185   8.255
 6313POPC   C3A12593  10.522  22.129   7.955
 6313POPC   C4A12594  10.552  22.119   7.655
 6313POPC   C1B12595  10.233  22.143   8.555
 6313POPC   C2B12596  10.321  22.154   8.255
 6313POPC   C3B12597  10.319  22.154   7.955
 6313POPC   C4B12598  10.320  22.082   7.655
 6314POPC   NC312599  36.165   2.030   9.455
 6314POPC   PO412600  36.173   2.020   9.155
 6314POPC   GL112601  36.166   1.956   8.855
 6314POPC   GL212602  36.194   1.833   8.855
 6314POPC   C1A12603  36.162   1.981   8.555
 6314POPC   D2A12604  36.157   1.982   8.255
 6314POPC   C3A12605  36.084   1.994   7.955
 6314POPC   C4A12606  36.101   2.010   7.655
 6314POPC   C1B12607  36.191   1.737   8.555
 6314POPC   C2B12608  36.223   1.710   8.255
 6314POPC   C3B12609  36.232   1.783   7.955
 6314POPC   C4B12610  36.214   1.754   7.655
 6315POPC   NC312611   5.822  12.115   9.455
 6315POPC   PO412612   5.849  12.087   9.155
 6315POPC   GL112613   5.826  12.120   8.855
 6315POPC   GL212614   5.955  11.928   8.855
 6315POPC   C1A12615   5.872  12.092   8.555
 6315POPC   D2A12616   5.887  12.031   8.255
 6315POPC   C3A12617   5.839  12.027   7.955
 6315POPC   C4A12618   5.877  12.049   7.655
 6315POPC   C1B12619   6.005  11.882   8.555
 6315POPC   C2B12620   5.971  11.830   8.255
 6315POPC   C3B12621   6.041  11.840   7.955
 6315POPC   C4B12622   6.024  11.827   7.655
 6316POPC   NC312623   1.963  31.456   9.455
 6316POPC   PO412624   1.955  31.499   9.155
 6316POPC   GL112625   1.954  31.422   8.855
 6316POPC   GL212626   1.921  31.545   8.855
 6316POPC   C1A12627   2.037  31.517   8.555
 6316POPC   D2A12628   2.026  31.444   8.255
 6316POPC   C3A12629   1.960  31.504   7.955
 6316POPC   C4A12630   2.040  31.424   7.655
 6316POPC   C1B12631   1.812  31.571   8.555
 6316POPC   C2B12632   1.735  31.580   8.255
 6316POPC   C3B12633   1.727  31.572   7.955
 6316POPC   C4B12634   1.786  31.597   7.655
 6317POPC   NC312635  14.409  19.026   9.455
 6317POPC   PO412636  14.405  19.097   9.155
 6317POPC   GL112637  14.453  19.049   8.855
 6317POPC   GL212638  14.266  18.973   8.855
 6317POPC   C1A12639  14.397  19.088   8.555
 6317POPC   D2A12640  14.357  19.038   8.255
 6317POPC   C3A12641  14.404  19.067   7.955
 6317POPC   C4A12642  14.400  19.045   7.655
 6317POPC   C1B12643  14.206  18.937   8.555
 6317POPC   C2B12644  14.186  18.882   8.255
 6317POPC   C3B12645  14.184  18.909   7.955
 6317POPC   C4B12646  14.178  18.845   7.655
 6318POPC   NC312647  11.347   4.359   9.455
 6318POPC   PO412648  11.330   4.346   9.155
 6318POPC   GL112649  11.341   4.348   8.855
 6318POPC   GL212650  11.370   4.473   8.855
 6318POPC   C1A12651  11.266   4.338   8.555
 6318POPC   D2A12652  11.335   4.274   8.255
 6318POPC   C3A12653  11.259   4.359   7.955
 6318POPC   C4A12654  11.250   4.281   7.655
 6318POPC   C1B12655  11.377   4.557   8.555
 6318POPC   C2B12656  11.301   4.578   8.255
 6318POPC   C3B12657  11.392   4.610   7.955
 6318POPC   C4B12658  11.362   4.562   7.655
 6319POPC   NC312659  24.483  14.448   9.455
 6319POPC   PO412660  24.527  14.368   9.155
 6319POPC   GL112661  24.479  14.358   8.855
 6319POPC   GL212662  24.378  14.373   8.855
 6319POPC   C1A12663  24.485  14.386   8.555
 6319POPC   D2A12664  24.440  14.452   8.255
 6319POPC   C3A12665  24.527  14.378   7.955
 6319POPC   C4A12666  24.489  14.400   7.655
 6319POPC   C1B12667  24.194  14.349   8.555
 6319POPC   C2B12668  24.243  14.394   8.255
 6319POPC   C3B12669  24.252  14.429   7.955
 6319POPC   C4B12670  24.202  14.394   7.655
 6320POPC   NC312671   5.918  44.685   9.455
 6320POPC   PO412672   5.841  44.659   9.155
 6320POPC   GL112673   5.908  44.640   8.855
 6320POPC   GL212674   5.741  44.588   8.855
 6320POPC   C1A12675   5.838  44.697   8.555
 6320POPC   D2A12676   5.883  44.704   8.255
 6320POPC   C3A12677   5.862  44.624   7.955
 6320POPC   C4A12678   5.823  44.657   7.655
 6320POPC   C1B12679   5.610  44.632   8.555
 6320POPC   C2B12680   5.631  44.597   8.255
 6320POPC   C3B12681   5.667  44.536   7.955
 6320POPC   C4B12682   5.633  44.548   7.655
 6321POPC   NC312683  42.325  15.133   9.455
 6321POPC   PO412684  42.293  15.210   9.155
 6321POPC   GL112685  42.323  15.143   8.855
 6321POPC   GL212686  42.393  15.286   8.855
 6321POPC   C1A12687  42.287  15.175   8.555
 6321POPC   D2A12688  42.351  15.149   8.255
 6321POPC   C3A12689  42.331  15.217   7.955
 6321POPC   C4A12690  42.359  15.155   7.655
 6321POPC   C1B12691  42.423  15.472   8.555
 6321POPC   C2B12692  42.391  15.390   8.255
 6321POPC   C3B12693  42.379  15.396   7.955
 6321POPC   C4B12694  42.418  15.448   7.655
 6322POPC   NC312695   8.986   1.231   9.455
 6322POPC   PO412696   8.958   1.218   9.155
 6322POPC   GL112697   9.006   1.194   8.855
 6322POPC   GL212698   8.943   1.047   8.855
 6322POPC   C1A12699   8.981   1.185   8.555
 6322POPC   D2A12700   9.011   1.167   8.255
 6322POPC   C3A12701   8.940   1.180   7.955
 6322POPC   C4A12702   8.955   1.204   7.655
 6322POPC   C1B12703   8.906   0.995   8.555
 6322POPC   C2B12704   8.961   1.006   8.255
 6322POPC   C3B12705   8.983   0.992   7.955
 6322POPC   C4B12706   8.932   0.982   7.655
 6323POPC   NC312707  43.069   1.988   9.455
 6323POPC   PO412708  43.071   1.972   9.155
 6323POPC   GL112709  43.083   1.955   8.855
 6323POPC   GL212710  43.174   1.891   8.855
 6323POPC   C1A12711  43.074   1.997   8.555
 6323POPC   D2A12712  43.149   2.033   8.255
 6323POPC   C3A12713  43.097   1.989   7.955
 6323POPC   C4A12714  43.143   2.013   7.655
 6323POPC   C1B12715  43.245   1.795   8.555
 6323POPC   C2B12716  43.165   1.720   8.255
 6323POPC   C3B12717  43.239   1.766   7.955
 6323POPC   C4B12718  43.251   1.737   7.655
 6324POPC   NC312719  38.414  32.270   9.455
 6324POPC   PO412720  38.503  32.269   9.155
 6324POPC   GL112721  38.409  32.273   8.855
 6324POPC   GL212722  38.303  32.191   8.855
 6324POPC   C1A12723  38.462  32.264   8.555
 6324POPC   D2A12724  38.441  32.250   8.255
 6324POPC   C3A12725  38.468  32.268   7.955
 6324POPC   C4A12726  38.497  32.259   7.655
 6324POPC   C1B12727  38.184  32.157   8.555
 6324POPC   C2B12728  38.173  32.220   8.255
 6324POPC   C3B12729  38.195  32.133   7.955
 6324POPC   C4B12730  38.194  32.217   7.655
 6325POPC   NC312731  42.384  11.306   9.455
 6325POPC   PO412732  42.348  11.345   9.155
 6325POPC   GL112733  42.382  11.283   8.855
 6325POPC   GL212734  42.281  11.465   8.855
 6325POPC   C1A12735  42.351  11.302   8.555
 6325POPC   D2A12736  42.290  11.270   8.255
 6325POPC   C3A12737  42.341  11.251   7.955
 6325POPC   C4A12738  42.338  11.303   7.655
 6325POPC   C1B12739  42.292  11.566   8.555
 6325POPC   C2B12740  42.294  11.519   8.255
 6325POPC   C3B12741  42.274  11.499   7.955
 6325POPC   C4B12742  42.279  11.561   7.655
 6326POPC   NC312743  44.683   9.722   9.455
 6326POPC   PO412744  44.627   9.708   9.155
 6326POPC   GL112745  44.690   9.796   8.855
 6326POPC   GL212746  44.710   9.911   8.855
 6326POPC   C1A12747  44.693   9.756   8.555
 6326POPC   D2A12748  44.639   9.782   8.255
 6326POPC   C3A12749  44.649   9.724   7.955
 6326POPC   C4A12750  44.630   9.790   7.655
 6326POPC   C1B12751  44.747   9.958   8.555
 6326POPC   C2B12752  44.700   9.964   8.255
 6326POPC   C3B12753  44.690  10.005   7.955
 6326POPC   C4B12754  44.752   9.983   7.655
 6327POPC   NC312755  28.364   6.627   9.455
 6327POPC   PO412756  28.405   6.652   9.155
 6327POPC   GL112757  28.415   6.599   8.855
 6327POPC   GL212758  28.398   6.553   8.855
 6327POPC   C1A12759  28.334   6.691   8.555
 6327POPC   D2A12760  28.323   6.651   8.255
 6327POPC   C3A12761  28.352   6.620   7.955
 6327POPC   C4A12762  28.341   6.616   7.655
 6327POPC   C1B12763  28.480   6.406   8.555
 6327POPC   C2B12764  28.535   6.399   8.255
 6327POPC   C3B12765  28.502   6.380   7.955
 6327POPC   C4B12766  28.487   6.398   7.655
 6328POPC   NC312767   1.247   7.403   9.455
 6328POPC   PO412768   1.202   7.463   9.155
 6328POPC   GL112769   1.228   7.418   8.855
 6328POPC   GL212770   1.353   7.410   8.855
 6328POPC   C1A12771   1.262   7.390   8.555
 6328POPC   D2A12772   1.206   7.449   8.255
 6328POPC   C3A12773   1.216   7.373   7.955
 6328POPC   C4A12774   1.229   7.435   7.655
 6328POPC   C1B12775   1.463   7.474   8.555
 6328POPC   C2B12776   1.478   7.482   8.255
 6328POPC   C3B12777   1.485   7.540   7.955
 6328POPC   C4B12778   1.464   7.517   7.655
 6329POPC   NC312779  37.706  42.326   9.455
 6329POPC   PO412780  37.675  42.295   9.155
 6329POPC   GL112781  37.702  42.330   8.855
 6329POPC   GL212782  37.521  42.432   8.855
 6329POPC   C1A12783  37.655  42.302   8.555
 6329POPC   D2A12784  37.631  42.364   8.255
 6329POPC   C3A12785  37.715  42.378   7.955
 6329POPC   C4A12786  37.673  42.296   7.655
 6329POPC   C1B12787  37.482  42.453   8.555
 6329POPC   C2B12788  37.445  42.464   8.255
 6329POPC   C3B12789  37.499  42.468   7.955
 6329POPC   C4B12790  37.413  42.424   7.655
 6330POPC   NC312791  37.686  32.293   9.455
 6330POPC   PO412792  37.642  32.210   9.155
 6330POPC   GL112793  37.662  32.253   8.855
 6330POPC   GL212794  37.705  32.363   8.855
 6330POPC   C1A12795  37.716  32.231   8.555
 6330POPC   D2A12796  37.658  32.216   8.255
 6330POPC   C3A12797  37.630  32.298   7.955
 6330POPC   C4A12798  37.678  32.219   7.655
 6330POPC   C1B12799  37.661  32.492   8.555
 6330POPC   C2B12800  37.661  32.525   8.255
 6330POPC   C3B12801  37.657  32.474   7.955
 6330POPC   C4B12802  37.610  32.485   7.655
 6331POPC   NC312803  12.858   7.412   9.455
 6331POPC   PO412804  12.862   7.390   9.155
 6331POPC   GL112805  12.890   7.435   8.855
 6331POPC   GL212806  12.724   7.545   8.855
 6331POPC   C1A12807  12.838   7.374   8.555
 6331POPC   D2A12808  12.830   7.413   8.255
 6331POPC   C3A12809  12.836   7.466   7.955
 6331POPC   C4A12810  12.899   7.426   7.655
 6331POPC   C1B12811  12.643   7.609   8.555
 6331POPC   C2B12812  12.665   7.594   8.255
 6331POPC   C3B12813  12.684   7.596   7.955
 6331POPC   C4B12814  12.666   7.628   7.655
 6332POPC   NC312815  11.253  43.136   9.455
 6332POPC   PO412816  11.265  43.062   9.155
 6332POPC   GL112817  11.255  43.081   8.855
 6332POPC   GL212818  11.184  43.072   8.855
 6332POPC   C1A12819  11.273  43.158   8.555
 6332POPC   D2A12820  11.326  43.087   8.255
 6332POPC   C3A12821  11.291  43.100   7.955
 6332POPC   C4A12822  11.326  43.113   7.655
 6332POPC   C1B12823  11.055  43.081   8.555
 6332POPC   C2B12824  11.082  43.141   8.255
 6332POPC   C3B12825  11.065  43.151   7.955
 6332POPC   C4B12826  11.061  43.085   7.655
 6333POPC   NC312827  43.856  37.636   9.455
 6333POPC   PO412828  43.892  37.685   9.155
 6333POPC   GL112829  43.915  37.662   8.855
 6333POPC   GL212830  43.992  37.701   8.855
 6333POPC   C1A12831  43.899  37.714   8.555
 6333POPC   D2A12832  43.926  37.708   8.255
 6333POPC   C3A12833  43.921  37.703   7.955
 6333POPC   C4A12834  43.898  37.718   7.655
 6333POPC   C1B12835  44.128  37.732   8.555
 6333POPC   C2B12836  44.077  37.780   8.255
 6333POPC   C3B12837  44.151  37.722   7.955
 6333POPC   C4B12838  44.118  37.720   7.655
 6334POPC   NC312839  21.397   4.325   9.455
 6334POPC   PO412840  21.344   4.303   9.155
 6334POPC   GL112841  21.372   4.321   8.855
 6334POPC   GL212842  21.530   4.357   8.855
 6334POPC   C1A12843  21.417   4.285   8.555
 6334POPC   D2A12844  21.354   4.362   8.255
 6334POPC   C3A12845  21.408   4.287   7.955
 6334POPC   C4A12846  21.395   4.334   7.655
 6334POPC   C1B12847  21.642   4.425   8.555
 6334POPC   C2B12848  21.618   4.333   8.255
 6334POPC   C3B12849  21.614   4.394   7.955
 6334POPC   C4B12850  21.665   4.331   7.655
 6335POPC   NC312851  15.229  15.931   9.455
 6335POPC   PO412852  15.207  15.980   9.155
 6335POPC   GL112853  15.130  15.912   8.855
 6335POPC   GL212854  15.040  15.995   8.855
 6335POPC   C1A12855  15.171  15.974   8.555
 6335POPC   D2A12856  15.149  15.959   8.255
 6335POPC   C3A12857  15.133  15.955   7.955
 6335POPC   C4A12858  15.185  15.942   7.655
 6335POPC   C1B12859  14.938  15.971   8.555
 6335POPC   C2B12860  14.934  16.022   8.255
 6335POPC   C3B12861  14.974  15.988   7.955
 6335POPC   C4B12862  14.938  15.948   7.655
 6336POPC   NC312863  43.898   2.806   9.455
 6336POPC   PO412864  43.891   2.800   9.155
 6336POPC   GL112865  43.913   2.723   8.855
 6336POPC   GL212866  43.957   2.815   8.855
 6336POPC   C1A12867  43.853   2.767   8.555
 6336POPC   D2A12868  43.894   2.785   8.255
 6336POPC   C3A12869  43.887   2.784   7.955
 6336POPC   C4A12870  43.855   2.734   7.655
 6336POPC   C1B12871  44.101   2.947   8.555
 6336POPC   C2B12872  44.117   2.973   8.255
 6336POPC   C3B12873  44.096   2.924   7.955
 6336POPC   C4B12874  44.025   2.930   7.655
 6337POPC   NC312875   7.409  16.699   9.455
 6337POPC   PO412876   7.398  16.759   9.155
 6337POPC   GL112877   7.456  16.745   8.855
 6337POPC   GL212878   7.451  16.904   8.855
 6337POPC   C1A12879   7.374  16.724   8.555
 6337POPC   D2A12880   7.413  16.690   8.255
 6337POPC   C3A12881   7.440  16.779   7.955
 6337POPC   C4A12882   7.376  16.704   7.655
 6337POPC   C1B12883   7.405  16.952   8.555
 6337POPC   C2B12884   7.392  16.979   8.255
 6337POPC   C3B12885   7.359  16.935   7.955
 6337POPC   C4B12886   7.427  16.997   7.655
 6338POPC   NC312887  32.242  19.875   9.455
 6338POPC   PO412888  32.214  19.787   9.155
 6338POPC   GL112889  32.249  19.827   8.855
 6338POPC   GL212890  32.186  19.704   8.855
 6338POPC   C1A12891  32.249  19.809   8.555
 6338POPC   D2A12892  32.210  19.814   8.255
 6338POPC   C3A12893  32.294  19.792   7.955
 6338POPC   C4A12894  32.214  19.828   7.655
 6338POPC   C1B12895  32.060  19.616   8.555
 6338POPC   C2B12896  32.073  19.648   8.255
 6338POPC   C3B12897  32.061  19.628   7.955
 6338POPC   C4B12898  32.026  19.701   7.655
 6339POPC   NC312899   9.795  42.365   9.455
 6339POPC   PO412900   9.715  42.349   9.155
 6339POPC   GL112901   9.715  42.295   8.855
 6339POPC   GL212902   9.747  42.420   8.855
 6339POPC   C1A12903   9.779  42.285   8.555
 6339POPC   D2A12904   9.778  42.362   8.255
 6339POPC   C3A12905   9.740  42.351   7.955
 6339POPC   C4A12906   9.771  42.382   7.655
 6339POPC   C1B12907   9.693  42.620   8.555
 6339POPC   C2B12908   9.678  42.622   8.255
 6339POPC   C3B12909   9.707  42.562   7.955
 6339POPC   C4B12910   9.733  42.628   7.655
 6340POPC   NC312911   2.723  15.947   9.455
 6340POPC   PO412912   2.761  15.961   9.155
 6340POPC   GL112913   2.731  15.962   8.855
 6340POPC   GL212914   2.855  16.031   8.855
 6340POPC   C1A12915   2.749  15.905   8.555
 6340POPC   D2A12916   2.723  15.924   8.255
 6340POPC   C3A12917   2.803  15.974   7.955
 6340POPC   C4A12918   2.809  15.946   7.655
 6340POPC   C1B12919   2.925  16.115   8.555
 6340POPC   C2B12920   2.927  16.130   8.255
 6340POPC   C3B12921   2.973  16.085   7.955
 6340POPC   C4B12922   2.957  16.119   7.655
 6341POPC   NC312923  17.549  32.286   9.455
 6341POPC   PO412924  17.496  32.297   9.155
 6341POPC   GL112925  17.470  32.297   8.855
 6341POPC   GL212926  17.518  32.402   8.855
 6341POPC   C1A12927  17.527  32.296   8.555
 6341POPC   D2A12928  17.509  32.255   8.255
 6341POPC   C3A12929  17.536  32.279   7.955
 6341POPC   C4A12930  17.544  32.210   7.655
 6341POPC   C1B12931  17.661  32.500   8.555
 6341POPC   C2B12932  17.627  32.444   8.255
 6341POPC   C3B12933  17.596  32.429   7.955
 6341POPC   C4B12934  17.587  32.422   7.655
 6342POPC   NC312935  22.941   0.427   9.455
 6342POPC   PO412936  22.923   0.468   9.155
 6342POPC   GL112937  22.904   0.409   8.855
 6342POPC   GL212938  22.971   0.347   8.855
 6342POPC   C1A12939  22.988   0.473   8.555
 6342POPC   D2A12940  22.899   0.397   8.255
 6342POPC   C3A12941  22.959   0.436   7.955
 6342POPC   C4A12942  22.906   0.395   7.655
 6342POPC   C1B12943  23.107   0.227   8.555
 6342POPC   C2B12944  23.088   0.205   8.255
 6342POPC   C3B12945  23.120   0.271   7.955
 6342POPC   C4B12946  23.083   0.202   7.655
 6343POPC   NC312947   3.573   9.794   9.455
 6343POPC   PO412948   3.501   9.772   9.155
 6343POPC   GL112949   3.580   9.762   8.855
 6343POPC   GL212950   3.496   9.887   8.855
 6343POPC   C1A12951   3.522   9.701   8.555
 6343POPC   D2A12952   3.550   9.750   8.255
 6343POPC   C3A12953   3.551   9.721   7.955
 6343POPC   C4A12954   3.520   9.740   7.655
 6343POPC   C1B12955   3.500  10.045   8.555
 6343POPC   C2B12956   3.482  10.006   8.255
 6343POPC   C3B12957   3.497  10.018   7.955
 6343POPC   C4B12958   3.547  10.024   7.655
 6344POPC   NC312959  39.225  24.504   9.455
 6344POPC   PO412960  39.218  24.463   9.155
 6344POPC   GL112961  39.243  24.440   8.855
 6344POPC   GL212962  39.196  24.347   8.855
 6344POPC   C1A12963  39.219  24.442   8.555
 6344POPC   D2A12964  39.279  24.465   8.255
 6344POPC   C3A12965  39.195  24.491   7.955
 6344POPC   C4A12966  39.253  24.520   7.655
 6344POPC   C1B12967  39.194  24.264   8.555
 6344POPC   C2B12968  39.208  24.205   8.255
 6344POPC   C3B12969  39.224  24.225   7.955
 6344POPC   C4B12970  39.255  24.257   7.655
 6345POPC   NC312971  24.519  12.077   9.455
 6345POPC   PO412972  24.482  12.106   9.155
 6345POPC   GL112973  24.440  12.079   8.855
 6345POPC   GL212974  24.358  12.191   8.855
 6345POPC   C1A12975  24.508  12.125   8.555
 6345POPC   D2A12976  24.452  12.051   8.255
 6345POPC   C3A12977  24.485  12.073   7.955
 6345POPC   C4A12978  24.481  12.080   7.655
 6345POPC   C1B12979  24.312  12.240   8.555
 6345POPC   C2B12980  24.343  12.284   8.255
 6345POPC   C3B12981  24.358  12.285   7.955
 6345POPC   C4B12982  24.338  12.221   7.655
 6346POPC   NC312983  33.783   9.015   9.455
 6346POPC   PO412984  33.781   8.949   9.155
 6346POPC   GL112985  33.826   8.996   8.855
 6346POPC   GL212986  33.897   8.878   8.855
 6346POPC   C1A12987  33.762   8.955   8.555
 6346POPC   D2A12988  33.821   9.018   8.255
 6346POPC   C3A12989  33.778   8.971   7.955
 6346POPC   C4A12990  33.790   8.978   7.655
 6346POPC   C1B12991  33.917   8.777   8.555
 6346POPC   C2B12992  33.909   8.755   8.255
 6346POPC   C3B12993  33.866   8.774   7.955
 6346POPC   C4B12994  33.866   8.710   7.655
 6347POPC   NC312995   0.459  13.618   9.455
 6347POPC   PO412996   0.423  13.656   9.155
 6347POPC   GL112997   0.476  13.583   8.855
 6347POPC   GL212998   0.582  13.626   8.855
 6347POPC   C1A12999   0.470  13.644   8.555
 6347POPC   D2A13000   0.462  13.642   8.255
 6347POPC   C3A13001   0.439  13.670   7.955
 6347POPC   C4A13002   0.448  13.674   7.655
 6347POPC   C1B13003   0.683  13.598   8.555
 6347POPC   C2B13004   0.671  13.563   8.255
 6347POPC   C3B13005   0.687  13.610   7.955
 6347POPC   C4B13006   0.717  13.637   7.655
 6348POPC   NC313007  20.568  17.529   9.455
 6348POPC   PO413008  20.604  17.530   9.155
 6348POPC   GL113009  20.586  17.509   8.855
 6348POPC   GL213010  20.716  17.434   8.855
 6348POPC   C1A13011  20.575  17.514   8.555
 6348POPC   D2A13012  20.564  17.548   8.255
 6348POPC   C3A13013  20.568  17.465   7.955
 6348POPC   C4A13014  20.629  17.484   7.655
 6348POPC   C1B13015  20.800  17.350   8.555
 6348POPC   C2B13016  20.766  17.340   8.255
 6348POPC   C3B13017  20.740  17.330   7.955
 6348POPC   C4B13018  20.782  17.348   7.655
 6349POPC   NC313019  16.000  42.308   9.455
 6349POPC   PO413020  15.948  42.369   9.155
 6349POPC   GL113021  15.944  42.291   8.855
 6349POPC   GL213022  15.983  42.494   8.855
 6349POPC   C1A13023  16.000  42.346   8.555
 6349POPC   D2A13024  15.933  42.338   8.255
 6349POPC   C3A13025  15.951  42.371   7.955
 6349POPC   C4A13026  15.933  42.328   7.655
 6349POPC   C1B13027  15.996  42.536   8.555
 6349POPC   C2B13028  15.969  42.544   8.255
 6349POPC   C3B13029  15.955  42.623   7.955
 6349POPC   C4B13030  15.968  42.589   7.655
 6350POPC   NC313031  23.753  40.054   9.455
 6350POPC   PO413032  23.726  40.012   9.155
 6350POPC   GL113033  23.693  40.041   8.855
 6350POPC   GL213034  23.683  40.103   8.855
 6350POPC   C1A13035  23.705  40.019   8.555
 6350POPC   D2A13036  23.752  40.012   8.255
 6350POPC   C3A13037  23.666  40.050   7.955
 6350POPC   C4A13038  23.726  40.016   7.655
 6350POPC   C1B13039  23.694  40.233   8.555
 6350POPC   C2B13040  23.642  40.294   8.255
 6350POPC   C3B13041  23.705  40.241   7.955
 6350POPC   C4B13042  23.638  40.210   7.655
 6351POPC   NC313043  22.136  30.726   9.455
 6351POPC   PO413044  22.115  30.716   9.155
 6351POPC   GL113045  22.114  30.720   8.855
 6351POPC   GL213046  22.277  30.606   8.855
 6351POPC   C1A13047  22.142  30.746   8.555
 6351POPC   D2A13048  22.130  30.670   8.255
 6351POPC   C3A13049  22.184  30.708   7.955
 6351POPC   C4A13050  22.145  30.728   7.655
 6351POPC   C1B13051  22.381  30.564   8.555
 6351POPC   C2B13052  22.371  30.515   8.255
 6351POPC   C3B13053  22.381  30.489   7.955
 6351POPC   C4B13054  22.345  30.560   7.655
 6352POPC   NC313055   5.902  21.355   9.455
 6352POPC   PO413056   5.878  21.412   9.155
 6352POPC   GL113057   5.853  21.346   8.855
 6352POPC   GL213058   5.946  21.371   8.855
 6352POPC   C1A13059   5.837  21.413   8.555
 6352POPC   D2A13060   5.854  21.359   8.255
 6352POPC   C3A13061   5.858  21.364   7.955
 6352POPC   C4A13062   5.914  21.388   7.655
 6352POPC   C1B13063   6.095  21.380   8.555
 6352POPC   C2B13064   6.080  21.403   8.255
 6352POPC   C3B13065   6.072  21.471   7.955
 6352POPC   C4B13066   6.077  21.383   7.655
 6353POPC   NC313067  11.325   8.158   9.455
 6353POPC   PO413068  11.283   8.179   9.155
 6353POPC   GL113069  11.259   8.183   8.855
 6353POPC   GL213070  11.230   8.136   8.855
 6353POPC   C1A13071  11.333   8.174   8.555
 6353POPC   D2A13072  11.295   8.170   8.255
 6353POPC   C3A13073  11.303   8.242   7.955
 6353POPC   C4A13074  11.305   8.177   7.655
 6353POPC   C1B13075  11.124   8.043   8.555
 6353POPC   C2B13076  11.119   8.045   8.255
 6353POPC   C3B13077  11.113   8.119   7.955
 6353POPC   C4B13078  11.079   8.063   7.655
 6354POPC   NC313079  34.590   8.176   9.455
 6354POPC   PO413080  34.542   8.174   9.155
 6354POPC   GL113081  34.548   8.177   8.855
 6354POPC   GL213082  34.527   8.105   8.855
 6354POPC   C1A13083  34.595   8.206   8.555
 6354POPC   D2A13084  34.602   8.235   8.255
 6354POPC   C3A13085  34.596   8.216   7.955
 6354POPC   C4A13086  34.574   8.152   7.655
 6354POPC   C1B13087  34.407   7.935   8.555
 6354POPC   C2B13088  34.433   7.973   8.255
 6354POPC   C3B13089  34.401   7.970   7.955
 6354POPC   C4B13090  34.421   8.025   7.655
 6355POPC   NC313091  15.986  40.013   9.455
 6355POPC   PO413092  15.963  40.021   9.155
 6355POPC   GL113093  16.000  39.975   8.855
 6355POPC   GL213094  15.810  39.967   8.855
 6355POPC   C1A13095  15.948  40.012   8.555
 6355POPC   D2A13096  15.994  39.993   8.255
 6355POPC   C3A13097  15.993  39.989   7.955
 6355POPC   C4A13098  15.932  39.994   7.655
 6355POPC   C1B13099  15.734  39.860   8.555
 6355POPC   C2B13100  15.775  39.835   8.255
 6355POPC   C3B13101  15.739  39.851   7.955
 6355POPC   C4B13102  15.772  39.831   7.655
 6356POPC   NC313103  29.897   0.481   9.455
 6356POPC   PO413104  29.967   0.485   9.155
 6356POPC   GL113105  29.968   0.399   8.855
 6356POPC   GL213106  29.912   0.520   8.855
 6356POPC   C1A13107  29.950   0.404   8.555
 6356POPC   D2A13108  29.944   0.402   8.255
 6356POPC   C3A13109  29.878   0.438   7.955
 6356POPC   C4A13110  29.922   0.433   7.655
 6356POPC   C1B13111  29.878   0.680   8.555
 6356POPC   C2B13112  29.921   0.720   8.255
 6356POPC   C3B13113  29.903   0.678   7.955
 6356POPC   C4B13114  29.847   0.676   7.655
 6357POPC   NC313115  35.398  34.567   9.455
 6357POPC   PO413116  35.344  34.581   9.155
 6357POPC   GL113117  35.322  34.593   8.855
 6357POPC   GL213118  35.241  34.649   8.855
 6357POPC   C1A13119  35.322  34.547   8.555
 6357POPC   D2A13120  35.397  34.621   8.255
 6357POPC   C3A13121  35.363  34.602   7.955
 6357POPC   C4A13122  35.356  34.584   7.655
 6357POPC   C1B13123  35.163  34.800   8.555
 6357POPC   C2B13124  35.240  34.764   8.255
 6357POPC   C3B13125  35.166  34.745   7.955
 6357POPC   C4B13126  35.240  34.759   7.655
 6358POPC   NC313127  15.913   9.018   9.455
 6358POPC   PO413128  15.956   8.978   9.155
 6358POPC   GL113129  15.937   9.021   8.855
 6358POPC   GL213130  16.037   9.087   8.855
 6358POPC   C1A13131  15.977   9.020   8.555
 6358POPC   D2A13132  15.954   8.926   8.255
 6358POPC   C3A13133  15.974   8.980   7.955
 6358POPC   C4A13134  15.934   8.975   7.655
 6358POPC   C1B13135  16.064   9.121   8.555
 6358POPC   C2B13136  16.061   9.129   8.255
 6358POPC   C3B13137  16.059   9.125   7.955
 6358POPC   C4B13138  16.063   9.186   7.655
 6359POPC   NC313139   1.945  25.240   9.455
 6359POPC   PO413140   2.016  25.282   9.155
 6359POPC   GL113141   1.950  25.258   8.855
 6359POPC   GL213142   2.063  25.338   8.855
 6359POPC   C1A13143   1.984  25.259   8.555
 6359POPC   D2A13144   1.952  25.279   8.255
 6359POPC   C3A13145   1.960  25.246   7.955
 6359POPC   C4A13146   1.977  25.291   7.655
 6359POPC   C1B13147   2.217  25.317   8.555
 6359POPC   C2B13148   2.236  25.286   8.255
 6359POPC   C3B13149   2.281  25.343   7.955
 6359POPC   C4B13150   2.244  25.319   7.655
 6360POPC   NC313151  21.424  31.492   9.455
 6360POPC   PO413152  21.381  31.481   9.155
 6360POPC   GL113153  21.373  31.425   8.855
 6360POPC   GL213154  21.327  31.363   8.855
 6360POPC   C1A13155  21.341  31.425   8.555
 6360POPC   D2A13156  21.393  31.490   8.255
 6360POPC   C3A13157  21.372  31.518   7.955
 6360POPC   C4A13158  21.390  31.447   7.655
 6360POPC   C1B13159  21.307  31.188   8.555
 6360POPC   C2B13160  21.297  31.259   8.255
 6360POPC   C3B13161  21.310  31.269   7.955
 6360POPC   C4B13162  21.311  31.212   7.655
 6361POPC   NC313163  33.835  32.986   9.455
 6361POPC   PO413164  33.827  33.068   9.155
 6361POPC   GL113165  33.839  33.020   8.855
 6361POPC   GL213166  33.656  33.138   8.855
 6361POPC   C1A13167  33.813  33.035   8.555
 6361POPC   D2A13168  33.783  33.073   8.255
 6361POPC   C3A13169  33.836  33.033   7.955
 6361POPC   C4A13170  33.780  33.012   7.655
 6361POPC   C1B13171  33.633  33.180   8.555
 6361POPC   C2B13172  33.595  33.219   8.255
 6361POPC   C3B13173  33.622  33.193   7.955
 6361POPC   C4B13174  33.627  33.167   7.655
 6362POPC   NC313175   2.775  16.753   9.455
 6362POPC   PO413176   2.726  16.702   9.155
 6362POPC   GL113177   2.729  16.682   8.855
 6362POPC   GL213178   2.646  16.619   8.855
 6362POPC   C1A13179   2.796  16.780   8.555
 6362POPC   D2A13180   2.729  16.692   8.255
 6362POPC   C3A13181   2.737  16.706   7.955
 6362POPC   C4A13182   2.738  16.751   7.655
 6362POPC   C1B13183   2.598  16.577   8.555
 6362POPC   C2B13184   2.571  16.604   8.255
 6362POPC   C3B13185   2.616  16.534   7.955
 6362POPC   C4B13186   2.539  16.560   7.655
 6363POPC   NC313187  26.057  29.101   9.455
 6363POPC   PO413188  26.025  29.112   9.155
 6363POPC   GL113189  26.062  29.174   8.855
 6363POPC   GL213190  25.986  29.175   8.855
 6363POPC   C1A13191  26.061  29.116   8.555
 6363POPC   D2A13192  26.022  29.110   8.255
 6363POPC   C3A13193  26.014  29.120   7.955
 6363POPC   C4A13194  26.072  29.163   7.655
 6363POPC   C1B13195  25.853  29.319   8.555
 6363POPC   C2B13196  25.858  29.289   8.255
 6363POPC   C3B13197  25.799  29.318   7.955
 6363POPC   C4B13198  25.838  29.315   7.655
 6364POPC   NC313199  29.947  12.884   9.455
 6364POPC   PO413200  29.891  12.846   9.155
 6364POPC   GL113201  29.889  12.832   8.855
 6364POPC   GL213202  29.878  13.014   8.855
 6364POPC   C1A13203  29.925  12.825   8.555
 6364POPC   D2A13204  29.955  12.893   8.255
 6364POPC   C3A13205  29.949  12.893   7.955
 6364POPC   C4A13206  29.875  12.869   7.655
 6364POPC   C1B13207  29.846  13.074   8.555
 6364POPC   C2B13208  29.822  13.105   8.255
 6364POPC   C3B13209  29.802  13.075   7.955
 6364POPC   C4B13210  29.809  13.085   7.655
 6365POPC   NC313211  19.057   5.887   9.455
 6365POPC   PO413212  19.031   5.872   9.155
 6365POPC   GL113213  19.060   5.856   8.855
 6365POPC   GL213214  18.902   5.800   8.855
 6365POPC   C1A13215  19.045   5.896   8.555
 6365POPC   D2A13216  19.053   5.850   8.255
 6365POPC   C3A13217  19.077   5.867   7.955
 6365POPC   C4A13218  19.017   5.865   7.655
 6365POPC   C1B13219  18.799   5.782   8.555
 6365POPC   C2B13220  18.809   5.737   8.255
 6365POPC   C3B13221  18.784   5.756   7.955
 6365POPC   C4B13222  18.820   5.761   7.655
 6366POPC   NC313223  40.017  29.970   9.455
 6366POPC   PO413224  39.979  29.904   9.155
 6366POPC   GL113225  40.057  29.908   8.855
 6366POPC   GL213226  39.994  29.830   8.855
 6366POPC   C1A13227  39.959  29.946   8.555
 6366POPC   D2A13228  40.011  29.952   8.255
 6366POPC   C3A13229  39.989  29.907   7.955
 6366POPC   C4A13230  39.972  29.963   7.655
 6366POPC   C1B13231  39.878  29.738   8.555
 6366POPC   C2B13232  39.900  29.732   8.255
 6366POPC   C3B13233  39.853  29.679   7.955
 6366POPC   C4B13234  39.924  29.688   7.655
 6367POPC   NC313235  27.637   0.426   9.455
 6367POPC   PO413236  27.616   0.481   9.155
 6367POPC   GL113237  27.623   0.484   8.855
 6367POPC   GL213238  27.700   0.365   8.855
 6367POPC   C1A13239  27.567   0.421   8.555
 6367POPC   D2A13240  27.578   0.396   8.255
 6367POPC   C3A13241  27.578   0.482   7.955
 6367POPC   C4A13242  27.571   0.424   7.655
 6367POPC   C1B13243  27.706   0.169   8.555
 6367POPC   C2B13244  27.691   0.191   8.255
 6367POPC   C3B13245  27.733   0.257   7.955
 6367POPC   C4B13246  27.673   0.247   7.655
 6368POPC   NC313247  37.634   0.474   9.455
 6368POPC   PO413248  37.658   0.423   9.155
 6368POPC   GL113249  37.720   0.423   8.855
 6368POPC   GL213250  37.836   0.404   8.855
 6368POPC   C1A13251  37.698   0.395   8.555
 6368POPC   D2A13252  37.676   0.417   8.255
 6368POPC   C3A13253  37.644   0.396   7.955
 6368POPC   C4A13254  37.640   0.389   7.655
 6368POPC   C1B13255  37.933   0.398   8.555
 6368POPC   C2B13256  37.898   0.396   8.255
 6368POPC   C3B13257  37.960   0.421   7.955
 6368POPC   C4B13258  37.908   0.406   7.655
 6369POPC   NC313259   2.027   8.925   9.455
 6369POPC   PO413260   2.039   8.950   9.155
 6369POPC   GL113261   1.953   9.017   8.855
 6369POPC   GL213262   1.990   9.106   8.855
 6369POPC   C1A13263   1.941   8.949   8.555
 6369POPC   D2A13264   2.011   8.935   8.255
 6369POPC   C3A13265   2.013   8.958   7.955
 6369POPC   C4A13266   2.028   8.979   7.655
 6369POPC   C1B13267   2.026   9.222   8.555
 6369POPC   C2B13268   1.981   9.188   8.255
 6369POPC   C3B13269   2.003   9.189   7.955
 6369POPC   C4B13270   1.979   9.199   7.655
 6370POPC   NC313271  35.324  43.147   9.455
 6370POPC   PO413272  35.367  43.075   9.155
 6370POPC   GL113273  35.336  43.074   8.855
 6370POPC   GL213274  35.229  43.034   8.855
 6370POPC   C1A13275  35.361  43.079   8.555
 6370POPC   D2A13276  35.328  43.078   8.255
 6370POPC   C3A13277  35.303  43.107   7.955
 6370POPC   C4A13278  35.348  43.112   7.655
 6370POPC   C1B13279  35.092  43.027   8.555
 6370POPC   C2B13280  35.082  42.976   8.255
 6370POPC   C3B13281  35.138  43.045   7.955
 6370POPC   C4B13282  35.087  43.042   7.655
 6371POPC   NC313283  16.766   7.375   9.455
 6371POPC   PO413284  16.730   7.406   9.155
 6371POPC   GL113285  16.719   7.457   8.855
 6371POPC   GL213286  16.839   7.437   8.855
 6371POPC   C1A13287  16.757   7.427   8.555
 6371POPC   D2A13288  16.714   7.457   8.255
 6371POPC   C3A13289  16.705   7.416   7.955
 6371POPC   C4A13290  16.733   7.419   7.655
 6371POPC   C1B13291  16.980   7.352   8.555
 6371POPC   C2B13292  16.970   7.322   8.255
 6371POPC   C3B13293  16.980   7.385   7.955
 6371POPC   C4B13294  16.932   7.372   7.655
 6372POPC   NC313295  19.036  19.058   9.455
 6372POPC   PO413296  19.017  19.076   9.155
 6372POPC   GL113297  19.105  19.082   8.855
 6372POPC   GL213298  18.927  18.958   8.855
 6372POPC   C1A13299  19.053  19.076   8.555
 6372POPC   D2A13300  19.095  19.096   8.255
 6372POPC   C3A13301  19.035  19.016   7.955
 6372POPC   C4A13302  19.038  19.032   7.655
 6372POPC   C1B13303  18.871  18.891   8.555
 6372POPC   C2B13304  18.897  18.867   8.255
 6372POPC   C3B13305  18.866  18.892   7.955
 6372POPC   C4B13306  18.915  18.912   7.655
 6373POPC   NC313307  29.117   8.200   9.455
 6373POPC   PO413308  29.152   8.215   9.155
 6373POPC   GL113309  29.140   8.159   8.855
 6373POPC   GL213310  29.113   8.083   8.855
 6373POPC   C1A13311  29.097   8.167   8.555
 6373POPC   D2A13312  29.178   8.183   8.255
 6373POPC   C3A13313  29.118   8.161   7.955
 6373POPC   C4A13314  29.113   8.150   7.655
 6373POPC   C1B13315  29.065   7.996   8.555
 6373POPC   C2B13316  29.039   7.911   8.255
 6373POPC   C3B13317  29.112   7.941   7.955
 6373POPC   C4B13318  29.124   7.916   7.655
 6374POPC   NC313319  32.225   8.933   9.455
 6374POPC   PO413320  32.267   8.991   9.155
 6374POPC   GL113321  32.278   9.006   8.855
 6374POPC   GL213322  32.364   9.009   8.855
 6374POPC   C1A13323  32.200   8.973   8.555
 6374POPC   D2A13324  32.239   8.928   8.255
 6374POPC   C3A13325  32.252   8.997   7.955
 6374POPC   C4A13326  32.256   8.960   7.655
 6374POPC   C1B13327  32.463   9.027   8.555
 6374POPC   C2B13328  32.514   9.028   8.255
 6374POPC   C3B13329  32.447   9.022   7.955
 6374POPC   C4B13330  32.481   9.042   7.655
 6375POPC   NC313331  17.464  44.700   9.455
 6375POPC   PO413332  17.501  44.615   9.155
 6375POPC   GL113333  17.490  44.710   8.855
 6375POPC   GL213334  17.503  44.791   8.855
 6375POPC   C1A13335  17.490  44.639   8.555
 6375POPC   D2A13336  17.477  44.634   8.255
 6375POPC   C3A13337  17.531  44.621   7.955
 6375POPC   C4A13338  17.509  44.676   7.655
 6375POPC   C1B13339  17.509  44.874   8.555
 6375POPC   C2B13340  17.550  44.870   8.255
 6375POPC   C3B13341  17.479  44.891   7.955
 6375POPC   C4B13342  17.470  44.935   7.655
 6376POPC   NC313343  20.599   2.804   9.455
 6376POPC   PO413344  20.605   2.814   9.155
 6376POPC   GL113345  20.584   2.729   8.855
 6376POPC   GL213346  20.654   2.900   8.855
 6376POPC   C1A13347  20.589   2.784   8.555
 6376POPC   D2A13348  20.615   2.778   8.255
 6376POPC   C3A13349  20.569   2.761   7.955
 6376POPC   C4A13350  20.599   2.798   7.655
 6376POPC   C1B13351  20.765   3.028   8.555
 6376POPC   C2B13352  20.701   2.965   8.255
 6376POPC   C3B13353  20.678   2.947   7.955
 6376POPC   C4B13354  20.736   2.959   7.655
 6377POPC   NC313355  24.490  43.896   9.455
 6377POPC   PO413356  24.504  43.910   9.155
 6377POPC   GL113357  24.504  43.931   8.855
 6377POPC   GL213358  24.551  43.841   8.855
 6377POPC   C1A13359  24.447  43.857   8.555
 6377POPC   D2A13360  24.451  43.882   8.255
 6377POPC   C3A13361  24.521  43.893   7.955
 6377POPC   C4A13362  24.532  43.906   7.655
 6377POPC   C1B13363  24.730  43.725   8.555
 6377POPC   C2B13364  24.656  43.777   8.255
 6377POPC   C3B13365  24.712  43.771   7.955
 6377POPC   C4B13366  24.721  43.752   7.655
 6378POPC   NC313367  29.901  20.595   9.455
 6378POPC   PO413368  29.934  20.581   9.155
 6378POPC   GL113369  29.922  20.623   8.855
 6378POPC   GL213370  29.776  20.631   8.855
 6378POPC   C1A13371  29.902  20.639   8.555
 6378POPC   D2A13372  29.951  20.564   8.255
 6378POPC   C3A13373  29.900  20.652   7.955
 6378POPC   C4A13374  29.946  20.601   7.655
 6378POPC   C1B13375  29.672  20.632   8.555
 6378POPC   C2B13376  29.660  20.638   8.255
 6378POPC   C3B13377  29.673  20.604   7.955
 6378POPC   C4B13378  29.713  20.574   7.655
 6379POPC   NC313379   6.661  41.593   9.455
 6379POPC   PO413380   6.618  41.560   9.155
 6379POPC   GL113381   6.681  41.569   8.855
 6379POPC   GL213382   6.620  41.644   8.855
 6379POPC   C1A13383   6.628  41.531   8.555
 6379POPC   D2A13384   6.621  41.594   8.255
 6379POPC   C3A13385   6.608  41.593   7.955
 6379POPC   C4A13386   6.649  41.558   7.655
 6379POPC   C1B13387   6.487  41.811   8.555
 6379POPC   C2B13388   6.550  41.773   8.255
 6379POPC   C3B13389   6.489  41.739   7.955
 6379POPC   C4B13390   6.553  41.760   7.655
 6380POPC   NC313391  15.928  19.044   9.455
 6380POPC   PO413392  15.939  19.053   9.155
 6380POPC   GL113393  15.970  19.083   8.855
 6380POPC   GL213394  15.803  19.139   8.855
 6380POPC   C1A13395  15.995  19.097   8.555
 6380POPC   D2A13396  15.912  19.089   8.255
 6380POPC   C3A13397  15.995  19.039   7.955
 6380POPC   C4A13398  15.934  19.044   7.655
 6380POPC   C1B13399  15.674  19.079   8.555
 6380POPC   C2B13400  15.690  19.116   8.255
 6380POPC   C3B13401  15.762  19.086   7.955
 6380POPC   C4B13402  15.739  19.129   7.655
 6381POPC   NC313403   6.678   6.676   9.455
 6381POPC   PO413404   6.662   6.626   9.155
 6381POPC   GL113405   6.644   6.680   8.855
 6381POPC   GL213406   6.491   6.702   8.855
 6381POPC   C1A13407   6.621   6.605   8.555
 6381POPC   D2A13408   6.672   6.616   8.255
 6381POPC   C3A13409   6.678   6.663   7.955
 6381POPC   C4A13410   6.633   6.599   7.655
 6381POPC   C1B13411   6.366   6.657   8.555
 6381POPC   C2B13412   6.430   6.703   8.255
 6381POPC   C3B13413   6.423   6.613   7.955
 6381POPC   C4B13414   6.403   6.697   7.655
 6382POPC   NC313415   0.406   2.797   9.455
 6382POPC   PO413416   0.414   2.775   9.155
 6382POPC   GL113417   0.452   2.777   8.855
 6382POPC   GL213418   0.406   2.854   8.855
 6382POPC   C1A13419   0.416   2.717   8.555
 6382POPC   D2A13420   0.484   2.780   8.255
 6382POPC   C3A13421   0.402   2.766   7.955
 6382POPC   C4A13422   0.486   2.807   7.655
 6382POPC   C1B13423   0.392   2.993   8.555
 6382POPC   C2B13424   0.401   2.981   8.255
 6382POPC   C3B13425   0.428   3.004   7.955
 6382POPC   C4B13426   0.429   3.052   7.655
 6383POPC   NC313427   8.189   9.752   9.455
 6383POPC   PO413428   8.173   9.715   9.155
 6383POPC   GL113429   8.175   9.710   8.855
 6383POPC   GL213430   8.053   9.699   8.855
 6383POPC   C1A13431   8.182   9.786   8.555
 6383POPC   D2A13432   8.189   9.754   8.255
 6383POPC   C3A13433   8.197   9.712   7.955
 6383POPC   C4A13434   8.208   9.746   7.655
 6383POPC   C1B13435   7.933   9.673   8.555
 6383POPC   C2B13436   7.917   9.633   8.255
 6383POPC   C3B13437   7.955   9.690   7.955
 6383POPC   C4B13438   7.913   9.686   7.655
 6384POPC   NC313439  33.767  35.335   9.455
 6384POPC   PO413440  33.845  35.359   9.155
 6384POPC   GL113441  33.802  35.364   8.855
 6384POPC   GL213442  33.911  35.434   8.855
 6384POPC   C1A13443  33.829  35.397   8.555
 6384POPC   D2A13444  33.818  35.399   8.255
 6384POPC   C3A13445  33.844  35.307   7.955
 6384POPC   C4A13446  33.777  35.345   7.655
 6384POPC   C1B13447  34.013  35.566   8.555
 6384POPC   C2B13448  33.994  35.524   8.255
 6384POPC   C3B13449  33.946  35.564   7.955
 6384POPC   C4B13450  34.017  35.512   7.655
 6385POPC   NC313451  33.774  33.788   9.455
 6385POPC   PO413452  33.791  33.766   9.155
 6385POPC   GL113453  33.756  33.780   8.855
 6385POPC   GL213454  33.875  33.944   8.855
 6385POPC   C1A13455  33.761  33.764   8.555
 6385POPC   D2A13456  33.763  33.787   8.255
 6385POPC   C3A13457  33.758  33.840   7.955
 6385POPC   C4A13458  33.835  33.771   7.655
 6385POPC   C1B13459  33.897  34.007   8.555
 6385POPC   C2B13460  33.969  34.004   8.255
 6385POPC   C3B13461  33.977  33.969   7.955
 6385POPC   C4B13462  33.901  34.008   7.655
 6386POPC   NC313463   5.075  19.822   9.455
 6386POPC   PO413464   5.125  19.787   9.155
 6386POPC   GL113465   5.123  19.868   8.855
 6386POPC   GL213466   5.005  19.706   8.855
 6386POPC   C1A13467   5.105  19.840   8.555
 6386POPC   D2A13468   5.050  19.824   8.255
 6386POPC   C3A13469   5.099  19.787   7.955
 6386POPC   C4A13470   5.069  19.789   7.655
 6386POPC   C1B13471   4.994  19.640   8.555
 6386POPC   C2B13472   4.957  19.642   8.255
 6386POPC   C3B13473   5.050  19.590   7.955
 6386POPC   C4B13474   5.006  19.642   7.655
 6387POPC   NC313475  36.950  36.928   9.455
 6387POPC   PO413476  36.911  36.892   9.155
 6387POPC   GL113477  36.878  36.868   8.855
 6387POPC   GL213478  36.762  37.000   8.855
 6387POPC   C1A13479  36.885  36.906   8.555
 6387POPC   D2A13480  36.874  36.898   8.255
 6387POPC   C3A13481  36.886  36.875   7.955
 6387POPC   C4A13482  36.909  36.902   7.655
 6387POPC   C1B13483  36.671  37.005   8.555
 6387POPC   C2B13484  36.669  37.008   8.255
 6387POPC   C3B13485  36.693  37.065   7.955
 6387POPC   C4B13486  36.747  37.094   7.655
 6388POPC   NC313487  18.292  26.775   9.455
 6388POPC   PO413488  18.313  26.837   9.155
 6388POPC   GL113489  18.274  26.850   8.855
 6388POPC   GL213490  18.335  26.948   8.855
 6388POPC   C1A13491  18.287  26.837   8.555
 6388POPC   D2A13492  18.252  26.797   8.255
 6388POPC   C3A13493  18.301  26.796   7.955
 6388POPC   C4A13494  18.331  26.830   7.655
 6388POPC   C1B13495  18.446  26.977   8.555
 6388POPC   C2B13496  18.471  27.043   8.255
 6388POPC   C3B13497  18.435  26.994   7.955
 6388POPC   C4B13498  18.430  27.006   7.655
 6389POPC   NC313499  15.936  25.217   9.455
 6389POPC   PO413500  15.998  25.222   9.155
 6389POPC   GL113501  15.940  25.306   8.855
 6389POPC   GL213502  16.094  25.373   8.855
 6389POPC   C1A13503  15.922  25.238   8.555
 6389POPC   D2A13504  15.952  25.278   8.255
 6389POPC   C3A13505  15.917  25.233   7.955
 6389POPC   C4A13506  15.908  25.222   7.655
 6389POPC   C1B13507  16.158  25.427   8.555
 6389POPC   C2B13508  16.189  25.401   8.255
 6389POPC   C3B13509  16.154  25.448   7.955
 6389POPC   C4B13510  16.111  25.373   7.655
 6390POPC   NC313511   6.646   8.229   9.455
 6390POPC   PO413512   6.674   8.206   9.155
 6390POPC   GL113513   6.689   8.201   8.855
 6390POPC   GL213514   6.619   8.094   8.855
 6390POPC   C1A13515   6.607   8.241   8.555
 6390POPC   D2A13516   6.595   8.231   8.255
 6390POPC   C3A13517   6.598   8.155   7.955
 6390POPC   C4A13518   6.659   8.173   7.655
 6390POPC   C1B13519   6.527   7.983   8.555
 6390POPC   C2B13520   6.501   7.992   8.255
 6390POPC   C3B13521   6.575   7.960   7.955
 6390POPC   C4B13522   6.543   7.975   7.655
 6391POPC   NC313523  22.195   4.330   9.455
 6391POPC   PO413524  22.122   4.316   9.155
 6391POPC   GL113525  22.123   4.336   8.855
 6391POPC   GL213526  22.148   4.148   8.855
 6391POPC   C1A13527  22.115   4.330   8.555
 6391POPC   D2A13528  22.123   4.318   8.255
 6391POPC   C3A13529  22.204   4.280   7.955
 6391POPC   C4A13530  22.128   4.321   7.655
 6391POPC   C1B13531  22.102   4.052   8.555
 6391POPC   C2B13532  22.119   4.065   8.255
 6391POPC   C3B13533  22.177   4.066   7.955
 6391POPC   C4B13534  22.147   4.069   7.655
 6392POPC   NC313535   8.924  21.337   9.455
 6392POPC   PO413536   8.981  21.374   9.155
 6392POPC   GL113537   8.985  21.417   8.855
 6392POPC   GL213538   8.886  21.484   8.855
 6392POPC   C1A13539   8.986  21.340   8.555
 6392POPC   D2A13540   9.021  21.423   8.255
 6392POPC   C3A13541   9.004  21.376   7.955
 6392POPC   C4A13542   8.989  21.390   7.655
 6392POPC   C1B13543   8.816  21.625   8.555
 6392POPC   C2B13544   8.792  21.559   8.255
 6392POPC   C3B13545   8.887  21.595   7.955
 6392POPC   C4B13546   8.877  21.568   7.655
 6393POPC   NC313547  43.888  36.905   9.455
 6393POPC   PO413548  43.837  36.881   9.155
 6393POPC   GL113549  43.935  36.875   8.855
 6393POPC   GL213550  43.937  37.023   8.855
 6393POPC   C1A13551  43.910  36.937   8.555
 6393POPC   D2A13552  43.919  36.934   8.255
 6393POPC   C3A13553  43.873  36.896   7.955
 6393POPC   C4A13554  43.882  36.880   7.655
 6393POPC   C1B13555  44.101  37.086   8.555
 6393POPC   C2B13556  44.011  37.134   8.255
 6393POPC   C3B13557  44.028  37.106   7.955
 6393POPC   C4B13558  44.051  37.076   7.655
 6394POPC   NC313559  39.238  38.477   9.455
 6394POPC   PO413560  39.277  38.479   9.155
 6394POPC   GL113561  39.245  38.484   8.855
 6394POPC   GL213562  39.128  38.490   8.855
 6394POPC   C1A13563  39.220  38.412   8.555
 6394POPC   D2A13564  39.269  38.409   8.255
 6394POPC   C3A13565  39.201  38.489   7.955
 6394POPC   C4A13566  39.207  38.405   7.655
 6394POPC   C1B13567  38.992  38.532   8.555
 6394POPC   C2B13568  39.054  38.604   8.255
 6394POPC   C3B13569  38.996  38.548   7.955
 6394POPC   C4B13570  39.021  38.528   7.655
 6395POPC   NC313571  36.107   5.140   9.455
 6395POPC   PO413572  36.098   5.141   9.155
 6395POPC   GL113573  36.162   5.057   8.855
 6395POPC   GL213574  36.050   4.965   8.855
 6395POPC   C1A13575  36.152   5.096   8.555
 6395POPC   D2A13576  36.085   5.050   8.255
 6395POPC   C3A13577  36.149   5.116   7.955
 6395POPC   C4A13578  36.082   5.124   7.655
 6395POPC   C1B13579  35.952   4.884   8.555
 6395POPC   C2B13580  35.980   4.942   8.255
 6395POPC   C3B13581  35.895   4.975   7.955
 6395POPC   C4B13582  35.964   4.949   7.655
 6396POPC   NC313583   5.886   5.066   9.455
 6396POPC   PO413584   5.891   5.078   9.155
 6396POPC   GL113585   5.909   5.131   8.855
 6396POPC   GL213586   5.745   5.055   8.855
 6396POPC   C1A13587   5.895   5.079   8.555
 6396POPC   D2A13588   5.886   5.074   8.255
 6396POPC   C3A13589   5.833   5.136   7.955
 6396POPC   C4A13590   5.873   5.055   7.655
 6396POPC   C1B13591   5.585   5.063   8.555
 6396POPC   C2B13592   5.636   5.039   8.255
 6396POPC   C3B13593   5.608   5.099   7.955
 6396POPC   C4B13594   5.630   5.037   7.655
 6397POPC   NC313595  40.791   6.627   9.455
 6397POPC   PO413596  40.734   6.656   9.155
 6397POPC   GL113597  40.752   6.685   8.855
 6397POPC   GL213598  40.753   6.786   8.855
 6397POPC   C1A13599  40.781   6.635   8.555
 6397POPC   D2A13600  40.751   6.639   8.255
 6397POPC   C3A13601  40.739   6.639   7.955
 6397POPC   C4A13602  40.796   6.672   7.655
 6397POPC   C1B13603  40.673   6.873   8.555
 6397POPC   C2B13604  40.703   6.877   8.255
 6397POPC   C3B13605  40.729   6.883   7.955
 6397POPC   C4B13606  40.701   6.920   7.655
 6398POPC   NC313607  43.865  17.523   9.455
 6398POPC   PO413608  43.844  17.459   9.155
 6398POPC   GL113609  43.897  17.539   8.855
 6398POPC   GL213610  43.768  17.463   8.855
 6398POPC   C1A13611  43.875  17.533   8.555
 6398POPC   D2A13612  43.850  17.476   8.255
 6398POPC   C3A13613  43.916  17.502   7.955
 6398POPC   C4A13614  43.906  17.524   7.655
 6398POPC   C1B13615  43.657  17.412   8.555
 6398POPC   C2B13616  43.631  17.461   8.255
 6398POPC   C3B13617  43.640  17.402   7.955
 6398POPC   C4B13618  43.640  17.386   7.655
 6399POPC   NC313619   8.164  43.906   9.455
 6399POPC   PO413620   8.176  43.923   9.155
 6399POPC   GL113621   8.207  43.855   8.855
 6399POPC   GL213622   8.194  43.776   8.855
 6399POPC   C1A13623   8.160  43.858   8.555
 6399POPC   D2A13624   8.242  43.884   8.255
 6399POPC   C3A13625   8.208  43.892   7.955
 6399POPC   C4A13626   8.168  43.857   7.655
 6399POPC   C1B13627   8.202  43.616   8.555
 6399POPC   C2B13628   8.205  43.609   8.255
 6399POPC   C3B13629   8.218  43.652   7.955
 6399POPC   C4B13630   8.288  43.632   7.655
 6400POPC   NC313631  40.754   7.390   9.455
 6400POPC   PO413632  40.781   7.459   9.155
 6400POPC   GL113633  40.789   7.428   8.855
 6400POPC   GL213634  40.731   7.309   8.855
 6400POPC   C1A13635  40.825   7.439   8.555
 6400POPC   D2A13636  40.741   7.425   8.255
 6400POPC   C3A13637  40.733   7.460   7.955
 6400POPC   C4A13638  40.765   7.453   7.655
 6400POPC   C1B13639  40.727   7.206   8.555
 6400POPC   C2B13640  40.667   7.201   8.255
 6400POPC   C3B13641  40.720   7.135   7.955
 6400POPC   C4B13642  40.679   7.169   7.655
 6401POPC   NC313643  24.451  25.216   9.455
 6401POPC   PO413644  24.483  25.219   9.155
 6401POPC   GL113645  24.522  25.254   8.855
 6401POPC   GL213646  24.623  25.172   8.855
 6401POPC   C1A13647  24.488  25.277   8.555
 6401POPC   D2A13648  24.534  25.305   8.255
 6401POPC   C3A13649  24.521  25.268   7.955
 6401POPC   C4A13650  24.503  25.238   7.655
 6401POPC   C1B13651  24.702  25.186   8.555
 6401POPC   C2B13652  24.672  25.171   8.255
 6401POPC   C3B13653  24.719  25.177   7.955
 6401POPC   C4B13654  24.697  25.173   7.655
 6402POPC   NC313655   2.001  29.889   9.455
 6402POPC   PO413656   1.974  29.879   9.155
 6402POPC   GL113657   1.958  29.910   8.855
 6402POPC   GL213658   2.061  29.998   8.855
 6402POPC   C1A13659   1.941  29.963   8.555
 6402POPC   D2A13660   1.974  29.962   8.255
 6402POPC   C3A13661   2.011  29.956   7.955
 6402POPC   C4A13662   1.952  29.970   7.655
 6402POPC   C1B13663   2.215  29.993   8.555
 6402POPC   C2B13664   2.188  30.023   8.255
 6402POPC   C3B13665   2.247  30.061   7.955
 6402POPC   C4B13666   2.205  30.007   7.655
 6403POPC   NC313667   0.399  32.241   9.455
 6403POPC   PO413668   0.433  32.246   9.155
 6403POPC   GL113669   0.469  32.291   8.855
 6403POPC   GL213670   0.563  32.189   8.855
 6403POPC   C1A13671   0.449  32.251   8.555
 6403POPC   D2A13672   0.389  32.292   8.255
 6403POPC   C3A13673   0.468  32.199   7.955
 6403POPC   C4A13674   0.401  32.211   7.655
 6403POPC   C1B13675   0.690  32.165   8.555
 6403POPC   C2B13676   0.671  32.159   8.255
 6403POPC   C3B13677   0.666  32.157   7.955
 6403POPC   C4B13678   0.720  32.243   7.655
 6404POPC   NC313679  19.787  27.603   9.455
 6404POPC   PO413680  19.860  27.592   9.155
 6404POPC   GL113681  19.831  27.543   8.855
 6404POPC   GL213682  20.000  27.524   8.855
 6404POPC   C1A13683  19.868  27.577   8.555
 6404POPC   D2A13684  19.865  27.589   8.255
 6404POPC   C3A13685  19.853  27.586   7.955
 6404POPC   C4A13686  19.846  27.618   7.655
 6404POPC   C1B13687  20.039  27.504   8.555
 6404POPC   C2B13688  20.094  27.523   8.255
 6404POPC   C3B13689  20.117  27.495   7.955
 6404POPC   C4B13690  20.034  27.546   7.655
 6405POPC   NC313691  36.912  32.270   9.455
 6405POPC   PO413692  36.953  32.205   9.155
 6405POPC   GL113693  36.953  32.200   8.855
 6405POPC   GL213694  36.823  32.185   8.855
 6405POPC   C1A13695  36.925  32.232   8.555
 6405POPC   D2A13696  36.919  32.200   8.255
 6405POPC   C3A13697  36.940  32.258   7.955
 6405POPC   C4A13698  36.872  32.260   7.655
 6405POPC   C1B13699  36.672  32.099   8.555
 6405POPC   C2B13700  36.657  32.138   8.255
 6405POPC   C3B13701  36.647  32.079   7.955
 6405POPC   C4B13702  36.724  32.084   7.655
 6406POPC   NC313703   5.906   2.802   9.455
 6406POPC   PO413704   5.841   2.768   9.155
 6406POPC   GL113705   5.880   2.768   8.855
 6406POPC   GL213706   5.942   2.853   8.855
 6406POPC   C1A13707   5.885   2.796   8.555
 6406POPC   D2A13708   5.855   2.788   8.255
 6406POPC   C3A13709   5.869   2.781   7.955
 6406POPC   C4A13710   5.823   2.744   7.655
 6406POPC   C1B13711   6.014   2.983   8.555
 6406POPC   C2B13712   6.039   2.943   8.255
 6406POPC   C3B13713   6.016   2.952   7.955
 6406POPC   C4B13714   6.026   3.031   7.655
 6407POPC   NC313715  23.671   6.616   9.455
 6407POPC   PO413716  23.709   6.666   9.155
 6407POPC   GL113717  23.677   6.668   8.855
 6407POPC   GL213718  23.692   6.711   8.855
 6407POPC   C1A13719  23.723   6.608   8.555
 6407POPC   D2A13720  23.684   6.687   8.255
 6407POPC   C3A13721  23.716   6.661   7.955
 6407POPC   C4A13722  23.697   6.652   7.655
 6407POPC   C1B13723  23.588   6.835   8.555
 6407POPC   C2B13724  23.594   6.895   8.255
 6407POPC   C3B13725  23.604   6.826   7.955
 6407POPC   C4B13726  23.663   6.875   7.655
 6408POPC   NC313727  29.110   8.973   9.455
 6408POPC   PO413728  29.135   8.936   9.155
 6408POPC   GL113729  29.133   9.016   8.855
 6408POPC   GL213730  29.244   9.089   8.855
 6408POPC   C1A13731  29.155   9.009   8.555
 6408POPC   D2A13732  29.144   8.930   8.255
 6408POPC   C3A13733  29.184   9.007   7.955
 6408POPC   C4A13734  29.162   8.980   7.655
 6408POPC   C1B13735  29.253   9.229   8.555
 6408POPC   C2B13736  29.226   9.240   8.255
 6408POPC   C3B13737  29.256   9.145   7.955
 6408POPC   C4B13738  29.259   9.202   7.655
 6409POPC   NC313739  11.308  36.159   9.455
 6409POPC   PO413740  11.289  36.107   9.155
 6409POPC   GL113741  11.321  36.122   8.855
 6409POPC   GL213742  11.238  36.176   8.855
 6409POPC   C1A13743  11.286  36.083   8.555
 6409POPC   D2A13744  11.309  36.136   8.255
 6409POPC   C3A13745  11.328  36.166   7.955
 6409POPC   C4A13746  11.311  36.123   7.655
 6409POPC   C1B13747  11.122  36.317   8.555
 6409POPC   C2B13748  11.143  36.299   8.255
 6409POPC   C3B13749  11.140  36.254   7.955
 6409POPC   C4B13750  11.095  36.316   7.655
 6410POPC   NC313751  33.827  36.870   9.455
 6410POPC   PO413752  33.801  36.886   9.155
 6410POPC   GL113753  33.849  36.899   8.855
 6410POPC   GL213754  33.882  36.917   8.855
 6410POPC   C1A13755  33.815  36.875   8.555
 6410POPC   D2A13756  33.794  36.931   8.255
 6410POPC   C3A13757  33.832  36.902   7.955
 6410POPC   C4A13758  33.794  36.908   7.655
 6410POPC   C1B13759  34.065  36.940   8.555
 6410POPC   C2B13760  34.098  36.923   8.255
 6410POPC   C3B13761  34.059  36.888   7.955
 6410POPC   C4B13762  34.029  36.898   7.655
 6411POPC   NC313763  38.499  19.874   9.455
 6411POPC   PO413764  38.423  19.841   9.155
 6411POPC   GL113765  38.482  19.851   8.855
 6411POPC   GL213766  38.352  19.839   8.855
 6411POPC   C1A13767  38.455  19.790   8.555
 6411POPC   D2A13768  38.466  19.809   8.255
 6411POPC   C3A13769  38.465  19.851   7.955
 6411POPC   C4A13770  38.407  19.883   7.655
 6411POPC   C1B13771  38.248  19.799   8.555
 6411POPC   C2B13772  38.232  19.771   8.255
 6411POPC   C3B13773  38.222  19.742   7.955
 6411POPC   C4B13774  38.184  19.806   7.655
 6412POPC   NC313775  33.771  39.256   9.455
 6412POPC   PO413776  33.776  39.251   9.155
 6412POPC   GL113777  33.796  39.238   8.855
 6412POPC   GL213778  33.786  39.377   8.855
 6412POPC   C1A13779  33.842  39.240   8.555
 6412POPC   D2A13780  33.802  39.234   8.255
 6412POPC   C3A13781  33.829  39.201   7.955
 6412POPC   C4A13782  33.784  39.249   7.655
 6412POPC   C1B13783  33.733  39.411   8.555
 6412POPC   C2B13784  33.658  39.441   8.255
 6412POPC   C3B13785  33.705  39.499   7.955
 6412POPC   C4B13786  33.725  39.466   7.655
 6413POPC   NC313787  16.752  13.612   9.455
 6413POPC   PO413788  16.701  13.634   9.155
 6413POPC   GL113789  16.748  13.656   8.855
 6413POPC   GL213790  16.616  13.625   8.855
 6413POPC   C1A13791  16.710  13.615   8.555
 6413POPC   D2A13792  16.719  13.612   8.255
 6413POPC   C3A13793  16.778  13.588   7.955
 6413POPC   C4A13794  16.776  13.647   7.655
 6413POPC   C1B13795  16.481  13.547   8.555
 6413POPC   C2B13796  16.493  13.576   8.255
 6413POPC   C3B13797  16.511  13.572   7.955
 6413POPC   C4B13798  16.462  13.560   7.655
 6414POPC   NC313799  16.710   1.225   9.455
 6414POPC   PO413800  16.694   1.182   9.155
 6414POPC   GL113801  16.729   1.238   8.855
 6414POPC   GL213802  16.758   1.289   8.855
 6414POPC   C1A13803  16.682   1.260   8.555
 6414POPC   D2A13804  16.737   1.164   8.255
 6414POPC   C3A13805  16.766   1.214   7.955
 6414POPC   C4A13806  16.781   1.249   7.655
 6414POPC   C1B13807  16.893   1.462   8.555
 6414POPC   C2B13808  16.870   1.441   8.255
 6414POPC   C3B13809  16.890   1.441   7.955
 6414POPC   C4B13810  16.826   1.434   7.655
 6415POPC   NC313811  32.219   8.228   9.455
 6415POPC   PO413812  32.260   8.186   9.155
 6415POPC   GL113813  32.270   8.192   8.855
 6415POPC   GL213814  32.136   8.296   8.855
 6415POPC   C1A13815  32.205   8.162   8.555
 6415POPC   D2A13816  32.212   8.157   8.255
 6415POPC   C3A13817  32.293   8.219   7.955
 6415POPC   C4A13818  32.266   8.231   7.655
 6415POPC   C1B13819  32.078   8.337   8.555
 6415POPC   C2B13820  32.120   8.386   8.255
 6415POPC   C3B13821  32.053   8.365   7.955
 6415POPC   C4B13822  32.029   8.369   7.655
 6416POPC   NC313823   5.053  39.226   9.455
 6416POPC   PO413824   5.106  39.220   9.155
 6416POPC   GL113825   5.103  39.227   8.855
 6416POPC   GL213826   5.217  39.265   8.855
 6416POPC   C1A13827   5.054  39.209   8.555
 6416POPC   D2A13828   5.122  39.229   8.255
 6416POPC   C3A13829   5.067  39.249   7.955
 6416POPC   C4A13830   5.087  39.185   7.655
 6416POPC   C1B13831   5.336  39.163   8.555
 6416POPC   C2B13832   5.328  39.210   8.255
 6416POPC   C3B13833   5.361  39.202   7.955
 6416POPC   C4B13834   5.308  39.195   7.655
 6417POPC   NC313835   6.630  12.872   9.455
 6417POPC   PO413836   6.692  12.854   9.155
 6417POPC   GL113837   6.640  12.819   8.855
 6417POPC   GL213838   6.712  12.923   8.855
 6417POPC   C1A13839   6.675  12.810   8.555
 6417POPC   D2A13840   6.619  12.826   8.255
 6417POPC   C3A13841   6.597  12.828   7.955
 6417POPC   C4A13842   6.675  12.878   7.655
 6417POPC   C1B13843   6.810  13.016   8.555
 6417POPC   C2B13844   6.844  12.967   8.255
 6417POPC   C3B13845   6.824  13.024   7.955
 6417POPC   C4B13846   6.803  12.991   7.655
 6418POPC   NC313847   3.515  20.620   9.455
 6418POPC   PO413848   3.575  20.581   9.155
 6418POPC   GL113849   3.560  20.583   8.855
 6418POPC   GL213850   3.445  20.734   8.855
 6418POPC   C1A13851   3.580  20.584   8.555
 6418POPC   D2A13852   3.532  20.643   8.255
 6418POPC   C3A13853   3.519  20.604   7.955
 6418POPC   C4A13854   3.583  20.620   7.655
 6418POPC   C1B13855   3.366  20.737   8.555
 6418POPC   C2B13856   3.311  20.799   8.255
 6418POPC   C3B13857   3.305  20.784   7.955
 6418POPC   C4B13858   3.301  20.752   7.655
 6419POPC   NC313859  26.780  39.988   9.455
 6419POPC   PO413860  26.783  39.962   9.155
 6419POPC   GL113861  26.838  40.022   8.855
 6419POPC   GL213862  26.700  39.947   8.855
 6419POPC   C1A13863  26.793  39.991   8.555
 6419POPC   D2A13864  26.815  39.966   8.255
 6419POPC   C3A13865  26.846  39.958   7.955
 6419POPC   C4A13866  26.781  39.976   7.655
 6419POPC   C1B13867  26.594  39.808   8.555
 6419POPC   C2B13868  26.632  39.803   8.255
 6419POPC   C3B13869  26.590  39.879   7.955
 6419POPC   C4B13870  26.636  39.898   7.655
 6420POPC   NC313871  36.870  26.013   9.455
 6420POPC   PO413872  36.882  26.076   9.155
 6420POPC   GL113873  36.909  26.084   8.855
 6420POPC   GL213874  36.907  25.897   8.855
 6420POPC   C1A13875  36.902  26.031   8.555
 6420POPC   D2A13876  36.864  26.008   8.255
 6420POPC   C3A13877  36.941  26.054   7.955
 6420POPC   C4A13878  36.926  26.013   7.655
 6420POPC   C1B13879  36.935  25.830   8.555
 6420POPC   C2B13880  36.923  25.842   8.255
 6420POPC   C3B13881  36.913  25.794   7.955
 6420POPC   C4B13882  36.882  25.782   7.655
 6421POPC   NC313883  43.867  12.029   9.455
 6421POPC   PO413884  43.888  12.047   9.155
 6421POPC   GL113885  43.908  12.103   8.855
 6421POPC   GL213886  43.968  11.962   8.855
 6421POPC   C1A13887  43.923  12.053   8.555
 6421POPC   D2A13888  43.892  12.064   8.255
 6421POPC   C3A13889  43.913  12.072   7.955
 6421POPC   C4A13890  43.929  12.111   7.655
 6421POPC   C1B13891  44.009  11.888   8.555
 6421POPC   C2B13892  43.978  11.838   8.255
 6421POPC   C3B13893  44.042  11.804   7.955
 6421POPC   C4B13894  43.959  11.817   7.655
 6422POPC   NC313895   6.644  34.625   9.455
 6422POPC   PO413896   6.657  34.617   9.155
 6422POPC   GL113897   6.663  34.555   8.855
 6422POPC   GL213898   6.649  34.424   8.855
 6422POPC   C1A13899   6.595  34.564   8.555
 6422POPC   D2A13900   6.626  34.574   8.255
 6422POPC   C3A13901   6.595  34.600   7.955
 6422POPC   C4A13902   6.595  34.565   7.655
 6422POPC   C1B13903   6.667  34.282   8.555
 6422POPC   C2B13904   6.734  34.303   8.255
 6422POPC   C3B13905   6.716  34.365   7.955
 6422POPC   C4B13906   6.662  34.281   7.655
 6423POPC   NC313907  29.949  39.962   9.455
 6423POPC   PO413908  29.967  39.968   9.155
 6423POPC   GL113909  29.873  40.032   8.855
 6423POPC   GL213910  29.990  40.107   8.855
 6423POPC   C1A13911  29.971  40.023   8.555
 6423POPC   D2A13912  29.886  40.026   8.255
 6423POPC   C3A13913  29.920  40.026   7.955
 6423POPC   C4A13914  29.943  39.957   7.655
 6423POPC   C1B13915  30.052  40.190   8.555
 6423POPC   C2B13916  30.071  40.211   8.255
 6423POPC   C3B13917  30.029  40.181   7.955
 6423POPC   C4B13918  30.079  40.188   7.655
 6424POPC   NC313919  31.511  36.099   9.455
 6424POPC   PO413920  31.480  36.161   9.155
 6424POPC   GL113921  31.519  36.080   8.855
 6424POPC   GL213922  31.434  35.977   8.855
 6424POPC   C1A13923  31.517  36.176   8.555
 6424POPC   D2A13924  31.436  36.122   8.255
 6424POPC   C3A13925  31.479  36.082   7.955
 6424POPC   C4A13926  31.440  36.114   7.655
 6424POPC   C1B13927  31.487  35.839   8.555
 6424POPC   C2B13928  31.451  35.835   8.255
 6424POPC   C3B13929  31.432  35.913   7.955
 6424POPC   C4B13930  31.505  35.918   7.655
 6425POPC   NC313931  26.779   5.080   9.455
 6425POPC   PO413932  26.827   5.107   9.155
 6425POPC   GL113933  26.815   5.100   8.855
 6425POPC   GL213934  26.895   5.024   8.855
 6425POPC   C1A13935  26.838   5.051   8.555
 6425POPC   D2A13936  26.824   5.122   8.255
 6425POPC   C3A13937  26.849   5.059   7.955
 6425POPC   C4A13938  26.840   5.112   7.655
 6425POPC   C1B13939  26.988   5.002   8.555
 6425POPC   C2B13940  27.050   4.991   8.255
 6425POPC   C3B13941  27.076   5.009   7.955
 6425POPC   C4B13942  27.039   4.934   7.655
 6426POPC   NC313943  26.001   2.770   9.455
 6426POPC   PO413944  26.003   2.808   9.155
 6426POPC   GL113945  26.008   2.737   8.855
 6426POPC   GL213946  26.103   2.658   8.855
 6426POPC   C1A13947  26.076   2.743   8.555
 6426POPC   D2A13948  26.031   2.775   8.255
 6426POPC   C3A13949  26.084   2.756   7.955
 6426POPC   C4A13950  26.021   2.722   7.655
 6426POPC   C1B13951  26.254   2.589   8.555
 6426POPC   C2B13952  26.214   2.608   8.255
 6426POPC   C3B13953  26.270   2.590   7.955
 6426POPC   C4B13954  26.300   2.669   7.655
 6427POPC   NC313955  36.909  20.610   9.455
 6427POPC   PO413956  36.937  20.567   9.155
 6427POPC   GL113957  36.919  20.652   8.855
 6427POPC   GL213958  37.036  20.561   8.855
 6427POPC   C1A13959  36.901  20.570   8.555
 6427POPC   D2A13960  36.920  20.648   8.255
 6427POPC   C3A13961  36.949  20.575   7.955
 6427POPC   C4A13962  36.858  20.583   7.655
 6427POPC   C1B13963  37.136  20.468   8.555
 6427POPC   C2B13964  37.089  20.477   8.255
 6427POPC   C3B13965  37.138  20.479   7.955
 6427POPC   C4B13966  37.103  20.429   7.655
 6428POPC   NC313967  28.359  43.133   9.455
 6428POPC   PO413968  28.416  43.066   9.155
 6428POPC   GL113969  28.414  43.083   8.855
 6428POPC   GL213970  28.385  42.962   8.855
 6428POPC   C1A13971  28.345  43.094   8.555
 6428POPC   D2A13972  28.400  43.157   8.255
 6428POPC   C3A13973  28.368  43.150   7.955
 6428POPC   C4A13974  28.417  43.142   7.655
 6428POPC   C1B13975  28.409  42.852   8.555
 6428POPC   C2B13976  28.335  42.905   8.255
 6428POPC   C3B13977  28.406  42.866   7.955
 6428POPC   C4B13978  28.403  42.842   7.655
 6429POPC   NC313979  14.453  42.297   9.455
 6429POPC   PO413980  14.405  42.302   9.155
 6429POPC   GL113981  14.356  42.348   8.855
 6429POPC   GL213982  14.314  42.296   8.855
 6429POPC   C1A13983  14.421  42.372   8.555
 6429POPC   D2A13984  14.363  42.330   8.255
 6429POPC   C3A13985  14.450  42.319   7.955
 6429POPC   C4A13986  14.402  42.315   7.655
 6429POPC   C1B13987  14.182  42.226   8.555
 6429POPC   C2B13988  14.156  42.172   8.255
 6429POPC   C3B13989  14.188  42.214   7.955
 6429POPC   C4B13990  14.154  42.157   7.655
 6430POPC   NC313991  10.477  37.692   9.455
 6430POPC   PO413992  10.544  37.673   9.155
 6430POPC   GL113993  10.545  37.660   8.855
 6430POPC   GL213994  10.573  37.775   8.855
 6430POPC   C1A13995  10.495  37.632   8.555
 6430POPC   D2A13996  10.512  37.706   8.255
 6430POPC   C3A13997  10.479  37.679   7.955
 6430POPC   C4A13998  10.548  37.687   7.655
 6430POPC   C1B13999  10.560  37.899   8.555
 6430POPC   C2B14000  10.581  37.900   8.255
 6430POPC   C3B14001  10.574  37.913   7.955
 6430POPC   C4B14002  10.532  37.891   7.655
 6431POPC   NC314003  36.903  43.924   9.455
 6431POPC   PO414004  36.952  43.867   9.155
 6431POPC   GL114005  36.936  43.873   8.855
 6431POPC   GL214006  37.024  43.735   8.855
 6431POPC   C1A14007  36.866  43.920   8.555
 6431POPC   D2A14008  36.887  43.882   8.255
 6431POPC   C3A14009  36.920  43.865   7.955
 6431POPC   C4A14010  36.939  43.884   7.655
 6431POPC   C1B14011  37.023  43.650   8.555
 6431POPC   C2B14012  37.084  43.732   8.255
 6431POPC   C3B14013  37.024  43.726   7.955
 6431POPC   C4B14014  37.087  43.719   7.655
 6432POPC   NC314015   5.828   1.991   9.455
 6432POPC   PO414016   5.888   2.037   9.155
 6432POPC   GL114017   5.835   2.035   8.855
 6432POPC   GL214018   5.745   2.080   8.855
 6432POPC   C1A14019   5.849   2.035   8.555
 6432POPC   D2A14020   5.846   1.941   8.255
 6432POPC   C3A14021   5.870   2.014   7.955
 6432POPC   C4A14022   5.836   2.033   7.655
 6432POPC   C1B14023   5.620   2.093   8.555
 6432POPC   C2B14024   5.685   2.119   8.255
 6432POPC   C3B14025   5.646   2.141   7.955
 6432POPC   C4B14026   5.671   2.138   7.655
 6433POPC   NC314027  10.527   8.952   9.455
 6433POPC   PO414028  10.514   8.965   9.155
 6433POPC   GL114029  10.546   9.006   8.855
 6433POPC   GL214030  10.626   8.885   8.855
 6433POPC   C1A14031  10.569   8.945   8.555
 6433POPC   D2A14032  10.565   8.973   8.255
 6433POPC   C3A14033  10.559   8.978   7.955
 6433POPC   C4A14034  10.532   8.992   7.655
 6433POPC   C1B14035  10.796   8.890   8.555
 6433POPC   C2B14036  10.709   8.885   8.255
 6433POPC   C3B14037  10.743   8.884   7.955
 6433POPC   C4B14038  10.750   8.858   7.655
 6434POPC   NC314039  18.263   3.554   9.455
 6434POPC   PO414040  18.326   3.514   9.155
 6434POPC   GL114041  18.316   3.547   8.855
 6434POPC   GL214042  18.215   3.446   8.855
 6434POPC   C1A14043  18.277   3.550   8.555
 6434POPC   D2A14044  18.237   3.554   8.255
 6434POPC   C3A14045  18.261   3.512   7.955
 6434POPC   C4A14046  18.237   3.545   7.655
 6434POPC   C1B14047  18.095   3.419   8.555
 6434POPC   C2B14048  18.092   3.439   8.255
 6434POPC   C3B14049  18.095   3.458   7.955
 6434POPC   C4B14050  18.087   3.414   7.655
 6435POPC   NC314051  23.744  32.289   9.455
 6435POPC   PO414052  23.690  32.274   9.155
 6435POPC   GL114053  23.728  32.289   8.855
 6435POPC   GL214054  23.814  32.359   8.855
 6435POPC   C1A14055  23.669  32.290   8.555
 6435POPC   D2A14056  23.760  32.292   8.255
 6435POPC   C3A14057  23.735  32.205   7.955
 6435POPC   C4A14058  23.752  32.259   7.655
 6435POPC   C1B14059  23.945  32.416   8.555
 6435POPC   C2B14060  23.897  32.404   8.255
 6435POPC   C3B14061  23.869  32.430   7.955
 6435POPC   C4B14062  23.855  32.414   7.655
 6436POPC   NC314063  38.425  34.617   9.455
 6436POPC   PO414064  38.436  34.609   9.155
 6436POPC   GL114065  38.481  34.585   8.855
 6436POPC   GL214066  38.545  34.672   8.855
 6436POPC   C1A14067  38.413  34.603   8.555
 6436POPC   D2A14068  38.482  34.562   8.255
 6436POPC   C3A14069  38.471  34.607   7.955
 6436POPC   C4A14070  38.477  34.543   7.655
 6436POPC   C1B14071  38.681  34.654   8.555
 6436POPC   C2B14072  38.679  34.661   8.255
 6436POPC   C3B14073  38.708  34.643   7.955
 6436POPC   C4B14074  38.697  34.705   7.655
 6437POPC   NC314075  16.688   5.841   9.455
 6437POPC   PO414076  16.706   5.819   9.155
 6437POPC   GL114077  16.754   5.832   8.855
 6437POPC   GL214078  16.764   5.792   8.855
 6437POPC   C1A14079  16.761   5.880   8.555
 6437POPC   D2A14080  16.710   5.860   8.255
 6437POPC   C3A14081  16.712   5.863   7.955
 6437POPC   C4A14082  16.763   5.838   7.655
 6437POPC   C1B14083  16.821   5.643   8.555
 6437POPC   C2B14084  16.815   5.668   8.255
 6437POPC   C3B14085  16.784   5.617   7.955
 6437POPC   C4B14086  16.740   5.596   7.655
 6438POPC   NC314087  33.841  39.981   9.455
 6438POPC   PO414088  33.756  40.037   9.155
 6438POPC   GL114089  33.775  40.023   8.855
 6438POPC   GL214090  33.706  39.944   8.855
 6438POPC   C1A14091  33.808  39.982   8.555
 6438POPC   D2A14092  33.780  39.991   8.255
 6438POPC   C3A14093  33.768  40.037   7.955
 6438POPC   C4A14094  33.764  40.010   7.655
 6438POPC   C1B14095  33.641  39.862   8.555
 6438POPC   C2B14096  33.629  39.818   8.255
 6438POPC   C3B14097  33.614  39.841   7.955
 6438POPC   C4B14098  33.637  39.852   7.655
 6439POPC   NC314099  23.722  17.501   9.455
 6439POPC   PO414100  23.689  17.550   9.155
 6439POPC   GL114101  23.688  17.487   8.855
 6439POPC   GL214102  23.790  17.414   8.855
 6439POPC   C1A14103  23.749  17.552   8.555
 6439POPC   D2A14104  23.720  17.504   8.255
 6439POPC   C3A14105  23.764  17.511   7.955
 6439POPC   C4A14106  23.684  17.470   7.655
 6439POPC   C1B14107  23.768  17.307   8.555
 6439POPC   C2B14108  23.801  17.260   8.255
 6439POPC   C3B14109  23.843  17.276   7.955
 6439POPC   C4B14110  23.820  17.303   7.655
 6440POPC   NC314111  13.581  43.854   9.455
 6440POPC   PO414112  13.582  43.913   9.155
 6440POPC   GL114113  13.645  43.860   8.855
 6440POPC   GL214114  13.527  43.877   8.855
 6440POPC   C1A14115  13.592  43.875   8.555
 6440POPC   D2A14116  13.584  43.889   8.255
 6440POPC   C3A14117  13.675  43.852   7.955
 6440POPC   C4A14118  13.581  43.849   7.655
 6440POPC   C1B14119  13.414  43.924   8.555
 6440POPC   C2B14120  13.398  43.926   8.255
 6440POPC   C3B14121  13.410  43.945   7.955
 6440POPC   C4B14122  13.379  43.939   7.655
 6441POPC   NC314123  26.836  15.932   9.455
 6441POPC   PO414124  26.796  15.981   9.155
 6441POPC   GL114125  26.858  15.925   8.855
 6441POPC   GL214126  26.910  15.943   8.855
 6441POPC   C1A14127  26.790  15.937   8.555
 6441POPC   D2A14128  26.792  15.935   8.255
 6441POPC   C3A14129  26.853  15.999   7.955
 6441POPC   C4A14130  26.805  16.003   7.655
 6441POPC   C1B14131  27.092  15.901   8.555
 6441POPC   C2B14132  27.095  15.873   8.255
 6441POPC   C3B14133  27.090  15.880   7.955
 6441POPC   C4B14134  27.075  15.898   7.655
 6442POPC   NC314135  26.083  12.891   9.455
 6442POPC   PO414136  26.041  12.827   9.155
 6442POPC   GL114137  26.078  12.869   8.855
 6442POPC   GL214138  26.130  12.904   8.855
 6442POPC   C1A14139  26.032  12.891   8.555
 6442POPC   D2A14140  26.004  12.848   8.255
 6442POPC   C3A14141  26.054  12.808   7.955
 6442POPC   C4A14142  26.037  12.860   7.655
 6442POPC   C1B14143  26.264  12.992   8.555
 6442POPC   C2B14144  26.211  13.035   8.255
 6442POPC   C3B14145  26.296  13.028   7.955
 6442POPC   C4B14146  26.237  12.972   7.655
 6443POPC   NC314147  22.186   5.832   9.455
 6443POPC   PO414148  22.201   5.834   9.155
 6443POPC   GL114149  22.209   5.889   8.855
 6443POPC   GL214150  22.065   5.914   8.855
 6443POPC   C1A14151  22.127   5.887   8.555
 6443POPC   D2A14152  22.171   5.819   8.255
 6443POPC   C3A14153  22.146   5.913   7.955
 6443POPC   C4A14154  22.129   5.863   7.655
 6443POPC   C1B14155  21.929   5.905   8.555
 6443POPC   C2B14156  21.883   5.881   8.255
 6443POPC   C3B14157  21.930   5.836   7.955
 6443POPC   C4B14158  21.926   5.892   7.655
 6444POPC   NC314159  38.434   2.735   9.455
 6444POPC   PO414160  38.495   2.758   9.155
 6444POPC   GL114161  38.468   2.767   8.855
 6444POPC   GL214162  38.348   2.635   8.855
 6444POPC   C1A14163  38.410   2.740   8.555
 6444POPC   D2A14164  38.437   2.732   8.255
 6444POPC   C3A14165  38.422   2.812   7.955
 6444POPC   C4A14166  38.412   2.728   7.655
 6444POPC   C1B14167  38.307   2.550   8.555
 6444POPC   C2B14168  38.320   2.620   8.255
 6444POPC   C3B14169  38.260   2.583   7.955
 6444POPC   C4B14170  38.268   2.571   7.655
 6445POPC   NC314171  15.910  14.367   9.455
 6445POPC   PO414172  15.917  14.412   9.155
 6445POPC   GL114173  15.980  14.414   8.855
 6445POPC   GL214174  15.955  14.544   8.855
 6445POPC   C1A14175  15.932  14.401   8.555
 6445POPC   D2A14176  15.944  14.385   8.255
 6445POPC   C3A14177  15.969  14.385   7.955
 6445POPC   C4A14178  15.957  14.421   7.655
 6445POPC   C1B14179  16.069  14.631   8.555
 6445POPC   C2B14180  16.035  14.645   8.255
 6445POPC   C3B14181  16.045  14.649   7.955
 6445POPC   C4B14182  15.981  14.600   7.655
 6446POPC   NC314183  41.587  28.395   9.455
 6446POPC   PO414184  41.538  28.406   9.155
 6446POPC   GL114185  41.542  28.337   8.855
 6446POPC   GL214186  41.403  28.414   8.855
 6446POPC   C1A14187  41.532  28.371   8.555
 6446POPC   D2A14188  41.577  28.412   8.255
 6446POPC   C3A14189  41.589  28.366   7.955
 6446POPC   C4A14190  41.578  28.373   7.655
 6446POPC   C1B14191  41.286  28.388   8.555
 6446POPC   C2B14192  41.261  28.366   8.255
 6446POPC   C3B14193  41.320  28.382   7.955
 6446POPC   C4B14194  41.278  28.328   7.655
 6447POPC   NC314195  29.911  10.535   9.455
 6447POPC   PO414196  29.912  10.491   9.155
 6447POPC   GL114197  29.935  10.480   8.855
 6447POPC   GL214198  29.992  10.459   8.855
 6447POPC   C1A14199  29.924  10.477   8.555
 6447POPC   D2A14200  29.955  10.494   8.255
 6447POPC   C3A14201  29.961  10.540   7.955
 6447POPC   C4A14202  29.914  10.569   7.655
 6447POPC   C1B14203  30.148  10.391   8.555
 6447POPC   C2B14204  30.151  10.329   8.255
 6447POPC   C3B14205  30.123  10.329   7.955
 6447POPC   C4B14206  30.104  10.323   7.655
 6448POPC   NC314207   9.755  33.044   9.455
 6448POPC   PO414208   9.744  32.987   9.155
 6448POPC   GL114209   9.699  33.028   8.855
 6448POPC   GL214210   9.735  33.100   8.855
 6448POPC   C1A14211   9.763  33.000   8.555
 6448POPC   D2A14212   9.718  33.071   8.255
 6448POPC   C3A14213   9.720  33.061   7.955
 6448POPC   C4A14214   9.718  33.012   7.655
 6448POPC   C1B14215   9.688  33.250   8.555
 6448POPC   C2B14216   9.712  33.297   8.255
 6448POPC   C3B14217   9.705  33.266   7.955
 6448POPC   C4B14218   9.656  33.271   7.655
 6449POPC   NC314219  36.088  33.766   9.455
 6449POPC   PO414220  36.103  33.811   9.155
 6449POPC   GL114221  36.173  33.806   8.855
 6449POPC   GL214222  35.961  33.739   8.855
 6449POPC   C1A14223  36.175  33.848   8.555
 6449POPC   D2A14224  36.154  33.840   8.255
 6449POPC   C3A14225  36.154  33.795   7.955
 6449POPC   C4A14226  36.100  33.812   7.655
 6449POPC   C1B14227  35.856  33.737   8.555
 6449POPC   C2B14228  35.847  33.694   8.255
 6449POPC   C3B14229  35.932  33.753   7.955
 6449POPC   C4B14230  35.893  33.694   7.655
 6450POPC   NC314231   9.703   9.782   9.455
 6450POPC   PO414232   9.792   9.740   9.155
 6450POPC   GL114233   9.770   9.707   8.855
 6450POPC   GL214234   9.753   9.898   8.855
 6450POPC   C1A14235   9.719   9.731   8.555
 6450POPC   D2A14236   9.726   9.745   8.255
 6450POPC   C3A14237   9.796   9.786   7.955
 6450POPC   C4A14238   9.704   9.724   7.655
 6450POPC   C1B14239   9.760  10.030   8.555
 6450POPC   C2B14240   9.683   9.958   8.255
 6450POPC   C3B14241   9.692   9.953   7.955
 6450POPC   C4B14242   9.773  10.008   7.655
 6451POPC   NC314243   3.552  38.425   9.455
 6451POPC   PO414244   3.547  38.434   9.155
 6451POPC   GL114245   3.570  38.448   8.855
 6451POPC   GL214246   3.430  38.478   8.855
 6451POPC   C1A14247   3.494  38.478   8.555
 6451POPC   D2A14248   3.548  38.425   8.255
 6451POPC   C3A14249   3.557  38.498   7.955
 6451POPC   C4A14250   3.549  38.473   7.655
 6451POPC   C1B14251   3.347  38.438   8.555
 6451POPC   C2B14252   3.263  38.381   8.255
 6451POPC   C3B14253   3.254  38.407   7.955
 6451POPC   C4B14254   3.322  38.452   7.655
 6452POPC   NC314255  13.670  15.972   9.455
 6452POPC   PO414256  13.654  15.939   9.155
 6452POPC   GL114257  13.672  15.914   8.855
 6452POPC   GL214258  13.505  15.984   8.855
 6452POPC   C1A14259  13.612  15.960   8.555
 6452POPC   D2A14260  13.673  15.969   8.255
 6452POPC   C3A14261  13.662  15.944   7.955
 6452POPC   C4A14262  13.634  15.931   7.655
 6452POPC   C1B14263  13.400  15.968   8.555
 6452POPC   C2B14264  13.404  16.028   8.255
 6452POPC   C3B14265  13.367  15.970   7.955
 6452POPC   C4B14266  13.416  15.967   7.655
 6453POPC   NC314267   1.188   8.181   9.455
 6453POPC   PO414268   1.248   8.167   9.155
 6453POPC   GL114269   1.203   8.206   8.855
 6453POPC   GL214270   1.313   8.275   8.855
 6453POPC   C1A14271   1.235   8.149   8.555
 6453POPC   D2A14272   1.206   8.183   8.255
 6453POPC   C3A14273   1.261   8.237   7.955
 6453POPC   C4A14274   1.254   8.197   7.655
 6453POPC   C1B14275   1.434   8.322   8.555
 6453POPC   C2B14276   1.417   8.354   8.255
 6453POPC   C3B14277   1.365   8.366   7.955
 6453POPC   C4B14278   1.384   8.312   7.655
 6454POPC   NC314279  14.417   3.504   9.455
 6454POPC   PO414280  14.413   3.521   9.155
 6454POPC   GL114281  14.407   3.496   8.855
 6454POPC   GL214282  14.536   3.572   8.855
 6454POPC   C1A14283  14.423   3.513   8.555
 6454POPC   D2A14284  14.415   3.514   8.255
 6454POPC   C3A14285  14.428   3.573   7.955
 6454POPC   C4A14286  14.431   3.534   7.655
 6454POPC   C1B14287  14.609   3.559   8.555
 6454POPC   C2B14288  14.678   3.513   8.255
 6454POPC   C3B14289  14.650   3.568   7.955
 6454POPC   C4B14290  14.699   3.542   7.655
 6455POPC   NC314291  31.440  29.926   9.455
 6455POPC   PO414292  31.458  29.880   9.155
 6455POPC   GL114293  31.453  29.882   8.855
 6455POPC   GL214294  31.529  29.841   8.855
 6455POPC   C1A14295  31.491  29.967   8.555
 6455POPC   D2A14296  31.453  29.910   8.255
 6455POPC   C3A14297  31.450  29.900   7.955
 6455POPC   C4A14298  31.497  29.964   7.655
 6455POPC   C1B14299  31.634  29.709   8.555
 6455POPC   C2B14300  31.632  29.749   8.255
 6455POPC   C3B14301  31.560  29.724   7.955
 6455POPC   C4B14302  31.599  29.660   7.655
 6456POPC   NC314303  43.110  35.373   9.455
 6456POPC   PO414304  43.139  35.313   9.155
 6456POPC   GL114305  43.097  35.340   8.855
 6456POPC   GL214306  43.059  35.484   8.855
 6456POPC   C1A14307  43.074  35.313   8.555
 6456POPC   D2A14308  43.076  35.325   8.255
 6456POPC   C3A14309  43.133  35.397   7.955
 6456POPC   C4A14310  43.102  35.389   7.655
 6456POPC   C1B14311  43.122  35.585   8.555
 6456POPC   C2B14312  43.118  35.635   8.255
 6456POPC   C3B14313  43.132  35.638   7.955
 6456POPC   C4B14314  43.089  35.614   7.655
 6457POPC   NC314315  23.763   5.141   9.455
 6457POPC   PO414316  23.750   5.075   9.155
 6457POPC   GL114317  23.668   5.075   8.855
 6457POPC   GL214318  23.563   5.112   8.855
 6457POPC   C1A14319  23.692   5.100   8.555
 6457POPC   D2A14320  23.713   5.127   8.255
 6457POPC   C3A14321  23.751   5.142   7.955
 6457POPC   C4A14322  23.687   5.127   7.655
 6457POPC   C1B14323  23.494   5.182   8.555
 6457POPC   C2B14324  23.447   5.226   8.255
 6457POPC   C3B14325  23.513   5.253   7.955
 6457POPC   C4B14326  23.510   5.175   7.655
 6458POPC   NC314327  36.125   1.200   9.455
 6458POPC   PO414328  36.169   1.225   9.155
 6458POPC   GL114329  36.163   1.191   8.855
 6458POPC   GL214330  36.054   1.116   8.855
 6458POPC   C1A14331  36.118   1.185   8.555
 6458POPC   D2A14332  36.083   1.232   8.255
 6458POPC   C3A14333  36.122   1.184   7.955
 6458POPC   C4A14334  36.086   1.167   7.655
 6458POPC   C1B14335  35.937   1.108   8.555
 6458POPC   C2B14336  35.903   1.045   8.255
 6458POPC   C3B14337  35.925   1.075   7.955
 6458POPC   C4B14338  35.952   1.025   7.655
 6459POPC   NC314339  33.068  29.964   9.455
 6459POPC   PO414340  32.998  29.942   9.155
 6459POPC   GL114341  33.065  29.881   8.855
 6459POPC   GL214342  32.945  29.788   8.855
 6459POPC   C1A14343  33.020  29.939   8.555
 6459POPC   D2A14344  32.991  29.928   8.255
 6459POPC   C3A14345  32.976  29.913   7.955
 6459POPC   C4A14346  33.066  29.968   7.655
 6459POPC   C1B14347  32.889  29.693   8.555
 6459POPC   C2B14348  32.879  29.706   8.255
 6459POPC   C3B14349  32.803  29.757   7.955
 6459POPC   C4B14350  32.856  29.763   7.655
 6460POPC   NC314351  35.368   1.236   9.455
 6460POPC   PO414352  35.335   1.205   9.155
 6460POPC   GL114353  35.401   1.223   8.855
 6460POPC   GL214354  35.436   1.143   8.855
 6460POPC   C1A14355  35.335   1.185   8.555
 6460POPC   D2A14356  35.392   1.254   8.255
 6460POPC   C3A14357  35.358   1.258   7.955
 6460POPC   C4A14358  35.355   1.247   7.655
 6460POPC   C1B14359  35.605   1.076   8.555
 6460POPC   C2B14360  35.569   1.121   8.255
 6460POPC   C3B14361  35.597   1.079   7.955
 6460POPC   C4B14362  35.560   1.065   7.655
 6461POPC   NC314363  26.018  31.521   9.455
 6461POPC   PO414364  26.036  31.448   9.155
 6461POPC   GL114365  26.055  31.492   8.855
 6461POPC   GL214366  25.958  31.519   8.855
 6461POPC   C1A14367  25.998  31.468   8.555
 6461POPC   D2A14368  26.001  31.497   8.255
 6461POPC   C3A14369  26.047  31.500   7.955
 6461POPC   C4A14370  25.996  31.448   7.655
 6461POPC   C1B14371  25.878  31.583   8.555
 6461POPC   C2B14372  25.803  31.622   8.255
 6461POPC   C3B14373  25.833  31.592   7.955
 6461POPC   C4B14374  25.878  31.627   7.655
 6462POPC   NC314375   3.569  33.062   9.455
 6462POPC   PO414376   3.504  32.978   9.155
 6462POPC   GL114377   3.576  32.991   8.855
 6462POPC   GL214378   3.509  32.905   8.855
 6462POPC   C1A14379   3.511  33.037   8.555
 6462POPC   D2A14380   3.506  33.051   8.255
 6462POPC   C3A14381   3.507  33.042   7.955
 6462POPC   C4A14382   3.507  33.039   7.655
 6462POPC   C1B14383   3.455  32.828   8.555
 6462POPC   C2B14384   3.519  32.753   8.255
 6462POPC   C3B14385   3.534  32.749   7.955
 6462POPC   C4B14386   3.498  32.770   7.655
 6463POPC   NC314387  41.522   2.017   9.455
 6463POPC   PO414388  41.608   2.034   9.155
 6463POPC   GL114389  41.547   1.985   8.855
 6463POPC   GL214390  41.635   1.893   8.855
 6463POPC   C1A14391  41.529   1.974   8.555
 6463POPC   D2A14392  41.540   1.944   8.255
 6463POPC   C3A14393  41.547   2.000   7.955
 6463POPC   C4A14394  41.534   1.989   7.655
 6463POPC   C1B14395  41.751   1.823   8.555
 6463POPC   C2B14396  41.665   1.815   8.255
 6463POPC   C3B14397  41.703   1.797   7.955
 6463POPC   C4B14398  41.705   1.784   7.655
 6464POPC   NC314399  19.077  41.598   9.455
 6464POPC   PO414400  19.100  41.602   9.155
 6464POPC   GL114401  19.070  41.598   8.855
 6464POPC   GL214402  19.021  41.483   8.855
 6464POPC   C1A14403  19.013  41.535   8.555
 6464POPC   D2A14404  19.023  41.583   8.255
 6464POPC   C3A14405  19.011  41.536   7.955
 6464POPC   C4A14406  19.057  41.558   7.655
 6464POPC   C1B14407  19.053  41.272   8.555
 6464POPC   C2B14408  18.975  41.294   8.255
 6464POPC   C3B14409  19.010  41.329   7.955
 6464POPC   C4B14410  18.967  41.355   7.655
 6465POPC   NC314411  23.675  22.982   9.455
 6465POPC   PO414412  23.720  22.893   9.155
 6465POPC   GL114413  23.763  22.928   8.855
 6465POPC   GL214414  23.799  22.846   8.855
 6465POPC   C1A14415  23.715  22.985   8.555
 6465POPC   D2A14416  23.668  22.947   8.255
 6465POPC   C3A14417  23.675  22.916   7.955
 6465POPC   C4A14418  23.747  22.980   7.655
 6465POPC   C1B14419  23.863  22.772   8.555
 6465POPC   C2B14420  23.883  22.833   8.255
 6465POPC   C3B14421  23.867  22.785   7.955
 6465POPC   C4B14422  23.928  22.811   7.655
 6466POPC   NC314423  16.768  12.897   9.455
 6466POPC   PO414424  16.693  12.839   9.155
 6466POPC   GL114425  16.736  12.824   8.855
 6466POPC   GL214426  16.733  12.769   8.855
 6466POPC   C1A14427  16.762  12.830   8.555
 6466POPC   D2A14428  16.717  12.879   8.255
 6466POPC   C3A14429  16.711  12.843   7.955
 6466POPC   C4A14430  16.773  12.881   7.655
 6466POPC   C1B14431  16.681  12.588   8.555
 6466POPC   C2B14432  16.663  12.636   8.255
 6466POPC   C3B14433  16.674  12.647   7.955
 6466POPC   C4B14434  16.671  12.576   7.655
 6467POPC   NC314435  40.779  32.223   9.455
 6467POPC   PO414436  40.801  32.250   9.155
 6467POPC   GL114437  40.746  32.261   8.855
 6467POPC   GL214438  40.816  32.344   8.855
 6467POPC   C1A14439  40.827  32.290   8.555
 6467POPC   D2A14440  40.778  32.288   8.255
 6467POPC   C3A14441  40.737  32.236   7.955
 6467POPC   C4A14442  40.775  32.249   7.655
 6467POPC   C1B14443  40.969  32.410   8.555
 6467POPC   C2B14444  40.916  32.424   8.255
 6467POPC   C3B14445  40.943  32.452   7.955
 6467POPC   C4B14446  40.884  32.448   7.655
 6468POPC   NC314447  18.259  22.939   9.455
 6468POPC   PO414448  18.312  22.981   9.155
 6468POPC   GL114449  18.311  22.927   8.855
 6468POPC   GL214450  18.402  22.980   8.855
 6468POPC   C1A14451  18.238  22.903   8.555
 6468POPC   D2A14452  18.311  22.965   8.255
 6468POPC   C3A14453  18.245  22.925   7.955
 6468POPC   C4A14454  18.316  22.896   7.655
 6468POPC   C1B14455  18.530  22.991   8.555
 6468POPC   C2B14456  18.537  22.956   8.255
 6468POPC   C3B14457  18.496  22.991   7.955
 6468POPC   C4B14458  18.571  22.960   7.655
 6469POPC   NC314459  40.832  37.655   9.455
 6469POPC   PO414460  40.806  37.709   9.155
 6469POPC   GL114461  40.795  37.653   8.855
 6469POPC   GL214462  40.724  37.517   8.855
 6469POPC   C1A14463  40.775  37.632   8.555
 6469POPC   D2A14464  40.746  37.729   8.255
 6469POPC   C3A14465  40.759  37.649   7.955
 6469POPC   C4A14466  40.770  37.715   7.655
 6469POPC   C1B14467  40.717  37.469   8.555
 6469POPC   C2B14468  40.706  37.458   8.255
 6469POPC   C3B14469  40.727  37.480   7.955
 6469POPC   C4B14470  40.694  37.479   7.655
 6470POPC   NC314471  14.401  36.903   9.455
 6470POPC   PO414472  14.434  36.942   9.155
 6470POPC   GL114473  14.381  36.924   8.855
 6470POPC   GL214474  14.293  36.845   8.855
 6470POPC   C1A14475  14.364  36.866   8.555
 6470POPC   D2A14476  14.446  36.860   8.255
 6470POPC   C3A14477  14.392  36.934   7.955
 6470POPC   C4A14478  14.371  36.910   7.655
 6470POPC   C1B14479  14.227  36.752   8.555
 6470POPC   C2B14480  14.171  36.781   8.255
 6470POPC   C3B14481  14.180  36.698   7.955
 6470POPC   C4B14482  14.258  36.715   7.655
 6471POPC   NC314483  16.714  40.792   9.455
 6471POPC   PO414484  16.700  40.775   9.155
 6471POPC   GL114485  16.716  40.756   8.855
 6471POPC   GL214486  16.757  40.927   8.855
 6471POPC   C1A14487  16.710  40.782   8.555
 6471POPC   D2A14488  16.698  40.818   8.255
 6471POPC   C3A14489  16.725  40.776   7.955
 6471POPC   C4A14490  16.753  40.787   7.655
 6471POPC   C1B14491  16.775  40.991   8.555
 6471POPC   C2B14492  16.832  41.020   8.255
 6471POPC   C3B14493  16.814  41.057   7.955
 6471POPC   C4B14494  16.850  41.064   7.655
 6472POPC   NC314495   5.840  19.872   9.455
 6472POPC   PO414496   5.856  19.796   9.155
 6472POPC   GL114497   5.891  19.794   8.855
 6472POPC   GL214498   5.966  19.829   8.855
 6472POPC   C1A14499   5.825  19.871   8.555
 6472POPC   D2A14500   5.884  19.878   8.255
 6472POPC   C3A14501   5.908  19.871   7.955
 6472POPC   C4A14502   5.828  19.878   7.655
 6472POPC   C1B14503   6.075  19.927   8.555
 6472POPC   C2B14504   6.123  19.856   8.255
 6472POPC   C3B14505   6.153  19.922   7.955
 6472POPC   C4B14506   6.131  19.880   7.655
 6473POPC   NC314507  15.178  22.927   9.455
 6473POPC   PO414508  15.223  22.970   9.155
 6473POPC   GL114509  15.196  22.931   8.855
 6473POPC   GL214510  15.117  23.024   8.855
 6473POPC   C1A14511  15.183  22.910   8.555
 6473POPC   D2A14512  15.146  22.943   8.255
 6473POPC   C3A14513  15.218  22.945   7.955
 6473POPC   C4A14514  15.194  22.955   7.655
 6473POPC   C1B14515  15.019  23.152   8.555
 6473POPC   C2B14516  15.026  23.113   8.255
 6473POPC   C3B14517  15.054  23.161   7.955
 6473POPC   C4B14518  15.024  23.153   7.655
 6474POPC   NC314519  31.455  12.885   9.455
 6474POPC   PO414520  31.477  12.842   9.155
 6474POPC   GL114521  31.486  12.828   8.855
 6474POPC   GL214522  31.462  12.756   8.855
 6474POPC   C1A14523  31.475  12.834   8.555
 6474POPC   D2A14524  31.428  12.838   8.255
 6474POPC   C3A14525  31.479  12.869   7.955
 6474POPC   C4A14526  31.490  12.809   7.655
 6474POPC   C1B14527  31.559  12.607   8.555
 6474POPC   C2B14528  31.529  12.581   8.255
 6474POPC   C3B14529  31.491  12.620   7.955
 6474POPC   C4B14530  31.543  12.621   7.655
 6475POPC   NC314531  31.465  44.616   9.455
 6475POPC   PO414532  31.434  44.626   9.155
 6475POPC   GL114533  31.495  44.633   8.855
 6475POPC   GL214534  31.605  44.627   8.855
 6475POPC   C1A14535  31.474  44.613   8.555
 6475POPC   D2A14536  31.438  44.630   8.255
 6475POPC   C3A14537  31.491  44.662   7.955
 6475POPC   C4A14538  31.512  44.618   7.655
 6475POPC   C1B14539  31.636  44.564   8.555
 6475POPC   C2B14540  31.656  44.511   8.255
 6475POPC   C3B14541  31.711  44.557   7.955
 6475POPC   C4B14542  31.666  44.545   7.655
 6476POPC   NC314543  43.083  18.310   9.455
 6476POPC   PO414544  43.156  18.235   9.155
 6476POPC   GL114545  43.122  18.309   8.855
 6476POPC   GL214546  43.131  18.382   8.855
 6476POPC   C1A14547  43.119  18.256   8.555
 6476POPC   D2A14548  43.077  18.268   8.255
 6476POPC   C3A14549  43.109  18.329   7.955
 6476POPC   C4A14550  43.090  18.311   7.655
 6476POPC   C1B14551  43.168  18.499   8.555
 6476POPC   C2B14552  43.178  18.504   8.255
 6476POPC   C3B14553  43.108  18.572   7.955
 6476POPC   C4B14554  43.145  18.516   7.655
 6477POPC   NC314555  12.803  38.445   9.455
 6477POPC   PO414556  12.862  38.432   9.155
 6477POPC   GL114557  12.859  38.480   8.855
 6477POPC   GL214558  12.931  38.470   8.855
 6477POPC   C1A14559  12.875  38.498   8.555
 6477POPC   D2A14560  12.880  38.498   8.255
 6477POPC   C3A14561  12.864  38.443   7.955
 6477POPC   C4A14562  12.884  38.492   7.655
 6477POPC   C1B14563  13.051  38.395   8.555
 6477POPC   C2B14564  13.130  38.440   8.255
 6477POPC   C3B14565  13.140  38.423   7.955
 6477POPC   C4B14566  13.094  38.368   7.655
 6478POPC   NC314567  25.262   9.779   9.455
 6478POPC   PO414568  25.286   9.715   9.155
 6478POPC   GL114569  25.269   9.720   8.855
 6478POPC   GL214570  25.292   9.622   8.855
 6478POPC   C1A14571  25.306   9.707   8.555
 6478POPC   D2A14572  25.287   9.743   8.255
 6478POPC   C3A14573  25.242   9.759   7.955
 6478POPC   C4A14574  25.301   9.752   7.655
 6478POPC   C1B14575  25.433   9.535   8.555
 6478POPC   C2B14576  25.427   9.535   8.255
 6478POPC   C3B14577  25.396   9.496   7.955
 6478POPC   C4B14578  25.363   9.584   7.655
 6479POPC   NC314579  17.537  29.931   9.455
 6479POPC   PO414580  17.524  29.931   9.155
 6479POPC   GL114581  17.501  29.885   8.855
 6479POPC   GL214582  17.539  30.088   8.855
 6479POPC   C1A14583  17.532  29.883   8.555
 6479POPC   D2A14584  17.479  29.882   8.255
 6479POPC   C3A14585  17.529  29.966   7.955
 6479POPC   C4A14586  17.506  29.910   7.655
 6479POPC   C1B14587  17.513  30.170   8.555
 6479POPC   C2B14588  17.527  30.122   8.255
 6479POPC   C3B14589  17.448  30.196   7.955
 6479POPC   C4B14590  17.465  30.210   7.655
 6480POPC   NC314591   0.466  30.697   9.455
 6480POPC   PO414592   0.437  30.663   9.155
 6480POPC   GL114593   0.416  30.743   8.855
 6480POPC   GL214594   0.530  30.740   8.855
 6480POPC   C1A14595   0.434  30.669   8.555
 6480POPC   D2A14596   0.418  30.685   8.255
 6480POPC   C3A14597   0.407  30.648   7.955
 6480POPC   C4A14598   0.431  30.671   7.655
 6480POPC   C1B14599   0.584  30.897   8.555
 6480POPC   C2B14600   0.609  30.848   8.255
 6480POPC   C3B14601   0.668  30.853   7.955
 6480POPC   C4B14602   0.624  30.895   7.655
 6481POPC   NC314603  33.013  43.155   9.455
 6481POPC   PO414604  33.026  43.114   9.155
 6481POPC   GL114605  32.985  43.133   8.855
 6481POPC   GL214606  33.098  42.973   8.855
 6481POPC   C1A14607  33.034  43.122   8.555
 6481POPC   D2A14608  33.047  43.136   8.255
 6481POPC   C3A14609  33.012  43.125   7.955
 6481POPC   C4A14610  33.020  43.094   7.655
 6481POPC   C1B14611  33.100  42.830   8.555
 6481POPC   C2B14612  33.116  42.856   8.255
 6481POPC   C3B14613  33.092  42.890   7.955
 6481POPC   C4B14614  33.131  42.876   7.655
 6482POPC   NC314615  12.813   8.986   9.455
 6482POPC   PO414616  12.859   8.945   9.155
 6482POPC   GL114617  12.878   8.932   8.855
 6482POPC   GL214618  12.957   8.838   8.855
 6482POPC   C1A14619  12.818   9.010   8.555
 6482POPC   D2A14620  12.858   8.925   8.255
 6482POPC   C3A14621  12.805   8.931   7.955
 6482POPC   C4A14622  12.897   8.941   7.655
 6482POPC   C1B14623  12.984   8.723   8.555
 6482POPC   C2B14624  12.999   8.734   8.255
 6482POPC   C3B14625  12.982   8.755   7.955
 6482POPC   C4B14626  13.009   8.745   7.655
 6483POPC   NC314627  31.478  11.256   9.455
 6483POPC   PO414628  31.470  11.298   9.155
 6483POPC   GL114629  31.494  11.256   8.855
 6483POPC   GL214630  31.324  11.310   8.855
 6483POPC   C1A14631  31.438  11.315   8.555
 6483POPC   D2A14632  31.514  11.253   8.255
 6483POPC   C3A14633  31.438  11.299   7.955
 6483POPC   C4A14634  31.452  11.291   7.655
 6483POPC   C1B14635  31.221  11.438   8.555
 6483POPC   C2B14636  31.205  11.455   8.255
 6483POPC   C3B14637  31.268  11.428   7.955
 6483POPC   C4B14638  31.290  11.438   7.655
 6484POPC   NC314639   1.992   9.764   9.455
 6484POPC   PO414640   1.971   9.728   9.155
 6484POPC   GL114641   1.961   9.715   8.855
 6484POPC   GL214642   1.867   9.803   8.855
 6484POPC   C1A14643   1.962   9.784   8.555
 6484POPC   D2A14644   2.035   9.780   8.255
 6484POPC   C3A14645   2.033   9.746   7.955
 6484POPC   C4A14646   2.008   9.775   7.655
 6484POPC   C1B14647   1.738   9.906   8.555
 6484POPC   C2B14648   1.819   9.861   8.255
 6484POPC   C3B14649   1.787   9.909   7.955
 6484POPC   C4B14650   1.812   9.885   7.655
 6485POPC   NC314651   1.995   2.742   9.455
 6485POPC   PO414652   1.979   2.748   9.155
 6485POPC   GL114653   1.940   2.723   8.855
 6485POPC   GL214654   2.121   2.712   8.855
 6485POPC   C1A14655   1.982   2.751   8.555
 6485POPC   D2A14656   1.973   2.757   8.255
 6485POPC   C3A14657   1.978   2.784   7.955
 6485POPC   C4A14658   1.964   2.786   7.655
 6485POPC   C1B14659   2.196   2.592   8.555
 6485POPC   C2B14660   2.238   2.652   8.255
 6485POPC   C3B14661   2.209   2.602   7.955
 6485POPC   C4B14662   2.234   2.652   7.655
 6486POPC   NC314663  35.394  32.251   9.455
 6486POPC   PO414664  35.353  32.262   9.155
 6486POPC   GL114665  35.339  32.206   8.855
 6486POPC   GL214666  35.462  32.189   8.855
 6486POPC   C1A14667  35.337  32.234   8.555
 6486POPC   D2A14668  35.395  32.293   8.255
 6486POPC   C3A14669  35.360  32.270   7.955
 6486POPC   C4A14670  35.372  32.244   7.655
 6486POPC   C1B14671  35.594  32.105   8.555
 6486POPC   C2B14672  35.559  32.102   8.255
 6486POPC   C3B14673  35.555  32.145   7.955
 6486POPC   C4B14674  35.549  32.087   7.655
 6487POPC   NC314675  17.502  14.396   9.455
 6487POPC   PO414676  17.487  14.425   9.155
 6487POPC   GL114677  17.479  14.380   8.855
 6487POPC   GL214678  17.463  14.499   8.855
 6487POPC   C1A14679  17.502  14.413   8.555
 6487POPC   D2A14680  17.501  14.428   8.255
 6487POPC   C3A14681  17.494  14.415   7.955
 6487POPC   C4A14682  17.493  14.385   7.655
 6487POPC   C1B14683  17.501  14.673   8.555
 6487POPC   C2B14684  17.410  14.673   8.255
 6487POPC   C3B14685  17.478  14.615   7.955
 6487POPC   C4B14686  17.415  14.679   7.655
 6488POPC   NC314687  36.892   3.522   9.455
 6488POPC   PO414688  36.889   3.499   9.155
 6488POPC   GL114689  36.860   3.494   8.855
 6488POPC   GL214690  36.816   3.593   8.855
 6488POPC   C1A14691  36.870   3.572   8.555
 6488POPC   D2A14692  36.872   3.504   8.255
 6488POPC   C3A14693  36.861   3.523   7.955
 6488POPC   C4A14694  36.917   3.578   7.655
 6488POPC   C1B14695  36.634   3.639   8.555
 6488POPC   C2B14696  36.644   3.663   8.255
 6488POPC   C3B14697  36.624   3.612   7.955
 6488POPC   C4B14698  36.657   3.652   7.655
 6489POPC   NC314699  14.424  43.879   9.455
 6489POPC   PO414700  14.368  43.839   9.155
 6489POPC   GL114701  14.427  43.896   8.855
 6489POPC   GL214702  14.288  43.905   8.855
 6489POPC   C1A14703  14.426  43.877   8.555
 6489POPC   D2A14704  14.375  43.935   8.255
 6489POPC   C3A14705  14.432  43.865   7.955
 6489POPC   C4A14706  14.354  43.934   7.655
 6489POPC   C1B14707  14.114  43.986   8.555
 6489POPC   C2B14708  14.178  43.971   8.255
 6489POPC   C3B14709  14.133  43.923   7.955
 6489POPC   C4B14710  14.184  43.912   7.655
 6490POPC   NC314711   2.719  12.804   9.455
 6490POPC   PO414712   2.807  12.811   9.155
 6490POPC   GL114713   2.814  12.895   8.855
 6490POPC   GL214714   2.595  12.798   8.855
 6490POPC   C1A14715   2.752  12.806   8.555
 6490POPC   D2A14716   2.731  12.870   8.255
 6490POPC   C3A14717   2.810  12.869   7.955
 6490POPC   C4A14718   2.723  12.828   7.655
 6490POPC   C1B14719   2.476  12.851   8.555
 6490POPC   C2B14720   2.509  12.852   8.255
 6490POPC   C3B14721   2.495  12.846   7.955
 6490POPC   C4B14722   2.536  12.805   7.655
 6491POPC   NC314723  43.911   3.506   9.455
 6491POPC   PO414724  43.857   3.549   9.155
 6491POPC   GL114725  43.935   3.504   8.855
 6491POPC   GL214726  44.031   3.512   8.855
 6491POPC   C1A14727  43.909   3.538   8.555
 6491POPC   D2A14728  43.854   3.519   8.255
 6491POPC   C3A14729  43.895   3.585   7.955
 6491POPC   C4A14730  43.869   3.514   7.655
 6491POPC   C1B14731  44.083   3.463   8.555
 6491POPC   C2B14732  44.155   3.470   8.255
 6491POPC   C3B14733  44.165   3.480   7.955
 6491POPC   C4B14734  44.160   3.516   7.655
 6492POPC   NC314735   1.982  22.898   9.455
 6492POPC   PO414736   1.967  22.911   9.155
 6492POPC   GL114737   1.985  22.941   8.855
 6492POPC   GL214738   2.099  23.076   8.855
 6492POPC   C1A14739   1.969  22.923   8.555
 6492POPC   D2A14740   1.989  22.892   8.255
 6492POPC   C3A14741   2.032  22.956   7.955
 6492POPC   C4A14742   1.958  22.908   7.655
 6492POPC   C1B14743   2.092  23.169   8.555
 6492POPC   C2B14744   2.098  23.189   8.255
 6492POPC   C3B14745   2.153  23.103   7.955
 6492POPC   C4B14746   2.164  23.134   7.655
 6493POPC   NC314747  21.382  14.439   9.455
 6493POPC   PO414748  21.354  14.432   9.155
 6493POPC   GL114749  21.425  14.451   8.855
 6493POPC   GL214750  21.308  14.267   8.855
 6493POPC   C1A14751  21.340  14.422   8.555
 6493POPC   D2A14752  21.370  14.413   8.255
 6493POPC   C3A14753  21.407  14.356   7.955
 6493POPC   C4A14754  21.407  14.388   7.655
 6493POPC   C1B14755  21.253  14.167   8.555
 6493POPC   C2B14756  21.206  14.161   8.255
 6493POPC   C3B14757  21.259  14.252   7.955
 6493POPC   C4B14758  21.198  14.196   7.655
 6494POPC   NC314759   8.944  10.571   9.455
 6494POPC   PO414760   9.004  10.538   9.155
 6494POPC   GL114761   8.952  10.525   8.855
 6494POPC   GL214762   8.969  10.659   8.855
 6494POPC   C1A14763   8.952  10.515   8.555
 6494POPC   D2A14764   9.003  10.520   8.255
 6494POPC   C3A14765   8.952  10.500   7.955
 6494POPC   C4A14766   8.976  10.523   7.655
 6494POPC   C1B14767   8.948  10.752   8.555
 6494POPC   C2B14768   8.861  10.746   8.255
 6494POPC   C3B14769   8.933  10.728   7.955
 6494POPC   C4B14770   8.928  10.719   7.655
 6495POPC   NC314771  36.130  29.191   9.455
 6495POPC   PO414772  36.156  29.139   9.155
 6495POPC   GL114773  36.168  29.156   8.855
 6495POPC   GL214774  36.175  29.060   8.855
 6495POPC   C1A14775  36.086  29.158   8.555
 6495POPC   D2A14776  36.155  29.186   8.255
 6495POPC   C3A14777  36.119  29.174   7.955
 6495POPC   C4A14778  36.177  29.101   7.655
 6495POPC   C1B14779  36.254  28.943   8.555
 6495POPC   C2B14780  36.211  28.950   8.255
 6495POPC   C3B14781  36.243  28.881   7.955
 6495POPC   C4B14782  36.189  28.928   7.655
 6496POPC   NC314783  14.418  22.118   9.455
 6496POPC   PO414784  14.431  22.203   9.155
 6496POPC   GL114785  14.388  22.142   8.855
 6496POPC   GL214786  14.569  22.076   8.855
 6496POPC   C1A14787  14.406  22.210   8.555
 6496POPC   D2A14788  14.376  22.136   8.255
 6496POPC   C3A14789  14.363  22.207   7.955
 6496POPC   C4A14790  14.439  22.201   7.655
 6496POPC   C1B14791  14.621  22.045   8.555
 6496POPC   C2B14792  14.601  22.103   8.255
 6496POPC   C3B14793  14.659  22.061   7.955
 6496POPC   C4B14794  14.615  22.031   7.655
 6497POPC   NC314795  44.651  12.043   9.455
 6497POPC   PO414796  44.654  12.105   9.155
 6497POPC   GL114797  44.618  12.084   8.855
 6497POPC   GL214798  44.512  12.081   8.855
 6497POPC   C1A14799  44.616  12.082   8.555
 6497POPC   D2A14800  44.704  12.076   8.255
 6497POPC   C3A14801  44.706  12.051   7.955
 6497POPC   C4A14802  44.625  12.038   7.655
 6497POPC   C1B14803  44.392  12.122   8.555
 6497POPC   C2B14804  44.408  12.122   8.255
 6497POPC   C3B14805  44.427  12.133   7.955
 6497POPC   C4B14806  44.425  12.132   7.655
 6498POPC   NC314807  15.958  16.765   9.455
 6498POPC   PO414808  15.920  16.711   9.155
 6498POPC   GL114809  15.952  16.688   8.855
 6498POPC   GL214810  15.816  16.679   8.855
 6498POPC   C1A14811  15.912  16.686   8.555
 6498POPC   D2A14812  15.950  16.770   8.255
 6498POPC   C3A14813  15.969  16.739   7.955
 6498POPC   C4A14814  15.942  16.741   7.655
 6498POPC   C1B14815  15.780  16.545   8.555
 6498POPC   C2B14816  15.731  16.594   8.255
 6498POPC   C3B14817  15.744  16.582   7.955
 6498POPC   C4B14818  15.769  16.567   7.655
 6499POPC   NC314819  19.844  22.941   9.455
 6499POPC   PO414820  19.786  22.927   9.155
 6499POPC   GL114821  19.791  22.954   8.855
 6499POPC   GL214822  19.924  23.050   8.855
 6499POPC   C1A14823  19.849  22.906   8.555
 6499POPC   D2A14824  19.831  22.900   8.255
 6499POPC   C3A14825  19.807  22.916   7.955
 6499POPC   C4A14826  19.791  22.969   7.655
 6499POPC   C1B14827  20.004  23.113   8.555
 6499POPC   C2B14828  20.087  23.093   8.255
 6499POPC   C3B14829  20.003  23.062   7.955
 6499POPC   C4B14830  20.052  23.043   7.655
 6500POPC   NC314831  27.625  41.534   9.455
 6500POPC   PO414832  27.595  41.592   9.155
 6500POPC   GL114833  27.585  41.518   8.855
 6500POPC   GL214834  27.724  41.592   8.855
 6500POPC   C1A14835  27.607  41.587   8.555
 6500POPC   D2A14836  27.637  41.528   8.255
 6500POPC   C3A14837  27.576  41.595   7.955
 6500POPC   C4A14838  27.612  41.564   7.655
 6500POPC   C1B14839  27.769  41.639   8.555
 6500POPC   C2B14840  27.807  41.641   8.255
 6500POPC   C3B14841  27.859  41.631   7.955
 6500POPC   C4B14842  27.818  41.714   7.655
 6501POPC   NC314843   8.244  34.624   9.455
 6501POPC   PO414844   8.184  34.583   9.155
 6501POPC   GL114845   8.166  34.550   8.855
 6501POPC   GL214846   8.329  34.611   8.855
 6501POPC   C1A14847   8.188  34.612   8.555
 6501POPC   D2A14848   8.147  34.532   8.255
 6501POPC   C3A14849   8.224  34.545   7.955
 6501POPC   C4A14850   8.243  34.549   7.655
 6501POPC   C1B14851   8.402  34.729   8.555
 6501POPC   C2B14852   8.446  34.711   8.255
 6501POPC   C3B14853   8.389  34.714   7.955
 6501POPC   C4B14854   8.469  34.651   7.655
 6502POPC   NC314855  18.265  14.405   9.455
 6502POPC   PO414856  18.300  14.361   9.155
 6502POPC   GL114857  18.300  14.399   8.855
 6502POPC   GL214858  18.135  14.405   8.855
 6502POPC   C1A14859  18.243  14.425   8.555
 6502POPC   D2A14860  18.272  14.379   8.255
 6502POPC   C3A14861  18.333  14.424   7.955
 6502POPC   C4A14862  18.299  14.441   7.655
 6502POPC   C1B14863  18.040  14.294   8.555
 6502POPC   C2B14864  18.025  14.292   8.255
 6502POPC   C3B14865  18.024  14.378   7.955
 6502POPC   C4B14866  18.090  14.358   7.655
 6503POPC   NC314867  17.466  26.784   9.455
 6503POPC   PO414868  17.459  26.858   9.155
 6503POPC   GL114869  17.526  26.800   8.855
 6503POPC   GL214870  17.586  26.849   8.855
 6503POPC   C1A14871  17.548  26.804   8.555
 6503POPC   D2A14872  17.495  26.835   8.255
 6503POPC   C3A14873  17.472  26.855   7.955
 6503POPC   C4A14874  17.547  26.787   7.655
 6503POPC   C1B14875  17.751  26.812   8.555
 6503POPC   C2B14876  17.744  26.743   8.255
 6503POPC   C3B14877  17.716  26.759   7.955
 6503POPC   C4B14878  17.728  26.828   7.655
 6504POPC   NC314879  30.743  31.496   9.455
 6504POPC   PO414880  30.730  31.435   9.155
 6504POPC   GL114881  30.698  31.486   8.855
 6504POPC   GL214882  30.626  31.420   8.855
 6504POPC   C1A14883  30.714  31.436   8.555
 6504POPC   D2A14884  30.734  31.519   8.255
 6504POPC   C3A14885  30.684  31.508   7.955
 6504POPC   C4A14886  30.727  31.435   7.655
 6504POPC   C1B14887  30.509  31.251   8.555
 6504POPC   C2B14888  30.518  31.229   8.255
 6504POPC   C3B14889  30.539  31.278   7.955
 6504POPC   C4B14890  30.529  31.248   7.655
 6505POPC   NC314891  43.897  18.241   9.455
 6505POPC   PO414892  43.877  18.306   9.155
 6505POPC   GL114893  43.851  18.255   8.855
 6505POPC   GL214894  43.859  18.433   8.855
 6505POPC   C1A14895  43.864  18.252   8.555
 6505POPC   D2A14896  43.927  18.279   8.255
 6505POPC   C3A14897  43.895  18.242   7.955
 6505POPC   C4A14898  43.841  18.332   7.655
 6505POPC   C1B14899  43.730  18.541   8.555
 6505POPC   C2B14900  43.728  18.524   8.255
 6505POPC   C3B14901  43.805  18.485   7.955
 6505POPC   C4B14902  43.745  18.467   7.655
 6506POPC   NC314903  28.410  43.912   9.455
 6506POPC   PO414904  28.345  43.917   9.155
 6506POPC   GL114905  28.416  43.881   8.855
 6506POPC   GL214906  28.451  43.963   8.855
 6506POPC   C1A14907  28.320  43.872   8.555
 6506POPC   D2A14908  28.365  43.864   8.255
 6506POPC   C3A14909  28.417  43.921   7.955
 6506POPC   C4A14910  28.388  43.904   7.655
 6506POPC   C1B14911  28.448  44.090   8.555
 6506POPC   C2B14912  28.441  44.083   8.255
 6506POPC   C3B14913  28.500  44.127   7.955
 6506POPC   C4B14914  28.511  44.069   7.655
 6507POPC   NC314915  39.244   1.964   9.455
 6507POPC   PO414916  39.239   1.989   9.155
 6507POPC   GL114917  39.266   2.027   8.855
 6507POPC   GL214918  39.331   2.077   8.855
 6507POPC   C1A14919  39.250   2.007   8.555
 6507POPC   D2A14920  39.187   1.983   8.255
 6507POPC   C3A14921  39.212   2.032   7.955
 6507POPC   C4A14922  39.238   1.976   7.655
 6507POPC   C1B14923  39.450   2.178   8.555
 6507POPC   C2B14924  39.393   2.115   8.255
 6507POPC   C3B14925  39.418   2.136   7.955
 6507POPC   C4B14926  39.414   2.084   7.655
 6508POPC   NC314927   1.190  14.415   9.455
 6508POPC   PO414928   1.182  14.359   9.155
 6508POPC   GL114929   1.253  14.434   8.855
 6508POPC   GL214930   1.109  14.310   8.855
 6508POPC   C1A14931   1.209  14.393   8.555
 6508POPC   D2A14932   1.216  14.444   8.255
 6508POPC   C3A14933   1.237  14.366   7.955
 6508POPC   C4A14934   1.248  14.402   7.655
 6508POPC   C1B14935   0.992  14.197   8.555
 6508POPC   C2B14936   0.989  14.197   8.255
 6508POPC   C3B14937   1.009  14.206   7.955
 6508POPC   C4B14938   1.049  14.201   7.655
 6509POPC   NC314939  25.306  27.634   9.455
 6509POPC   PO414940  25.259  27.568   9.155
 6509POPC   GL114941  25.305  27.604   8.855
 6509POPC   GL214942  25.410  27.638   8.855
 6509POPC   C1A14943  25.302  27.633   8.555
 6509POPC   D2A14944  25.259  27.562   8.255
 6509POPC   C3A14945  25.309  27.550   7.955
 6509POPC   C4A14946  25.248  27.547   7.655
 6509POPC   C1B14947  25.536  27.647   8.555
 6509POPC   C2B14948  25.488  27.580   8.255
 6509POPC   C3B14949  25.499  27.624   7.955
 6509POPC   C4B14950  25.525  27.584   7.655
 6510POPC   NC314951  15.992   8.169   9.455
 6510POPC   PO414952  16.000   8.193   9.155
 6510POPC   GL114953  15.998   8.223   8.855
 6510POPC   GL214954  15.973   8.047   8.855
 6510POPC   C1A14955  15.921   8.185   8.555
 6510POPC   D2A14956  16.003   8.231   8.255
 6510POPC   C3A14957  15.941   8.185   7.955
 6510POPC   C4A14958  15.919   8.216   7.655
 6510POPC   C1B14959  15.966   7.997   8.555
 6510POPC   C2B14960  16.030   7.955   8.255
 6510POPC   C3B14961  15.985   7.962   7.955
 6510POPC   C4B14962  16.039   7.933   7.655
 6511POPC   NC314963  15.137  43.066   9.455
 6511POPC   PO414964  15.222  43.076   9.155
 6511POPC   GL114965  15.198  43.130   8.855
 6511POPC   GL214966  15.345  43.108   8.855
 6511POPC   C1A14967  15.171  43.103   8.555
 6511POPC   D2A14968  15.190  43.109   8.255
 6511POPC   C3A14969  15.181  43.147   7.955
 6511POPC   C4A14970  15.228  43.061   7.655
 6511POPC   C1B14971  15.420  43.197   8.555
 6511POPC   C2B14972  15.444  43.164   8.255
 6511POPC   C3B14973  15.368  43.228   7.955
 6511POPC   C4B14974  15.459  43.160   7.655
 6512POPC   NC314975  28.384  44.621   9.455
 6512POPC   PO414976  28.341  44.705   9.155
 6512POPC   GL114977  28.414  44.656   8.855
 6512POPC   GL214978  28.296  44.541   8.855
 6512POPC   C1A14979  28.326  44.641   8.555
 6512POPC   D2A14980  28.342  44.667   8.255
 6512POPC   C3A14981  28.346  44.623   7.955
 6512POPC   C4A14982  28.326  44.691   7.655
 6512POPC   C1B14983  28.188  44.543   8.555
 6512POPC   C2B14984  28.121  44.465   8.255
 6512POPC   C3B14985  28.210  44.548   7.955
 6512POPC   C4B14986  28.140  44.530   7.655
 6513POPC   NC314987  40.826  36.950   9.455
 6513POPC   PO414988  40.791  36.892   9.155
 6513POPC   GL114989  40.787  36.876   8.855
 6513POPC   GL214990  40.903  37.006   8.855
 6513POPC   C1A14991  40.816  36.900   8.555
 6513POPC   D2A14992  40.826  36.858   8.255
 6513POPC   C3A14993  40.769  36.944   7.955
 6513POPC   C4A14994  40.772  36.951   7.655
 6513POPC   C1B14995  40.988  37.000   8.555
 6513POPC   C2B14996  40.953  37.070   8.255
 6513POPC   C3B14997  41.021  37.005   7.955
 6513POPC   C4B14998  41.039  37.036   7.655
 6514POPC   NC314999  26.039  10.477   9.455
 6514POPC   PO415000  26.005  10.567   9.155
 6514POPC   GL115001  26.076  10.562   8.855
 6514POPC   GL215002  26.170  10.563   8.855
 6514POPC   C1A15003  26.039  10.477   8.555
 6514POPC   D2A15004  26.018  10.493   8.255
 6514POPC   C3A15005  25.997  10.560   7.955
 6514POPC   C4A15006  25.993  10.539   7.655
 6514POPC   C1B15007  26.280  10.624   8.555
 6514POPC   C2B15008  26.267  10.636   8.255
 6514POPC   C3B15009  26.291  10.665   7.955
 6514POPC   C4B15010  26.268  10.579   7.655
 6515POPC   NC315011  43.133  16.765   9.455
 6515POPC   PO415012  43.108  16.766   9.155
 6515POPC   GL115013  43.081  16.684   8.855
 6515POPC   GL215014  43.149  16.635   8.855
 6515POPC   C1A15015  43.110  16.682   8.555
 6515POPC   D2A15016  43.146  16.761   8.255
 6515POPC   C3A15017  43.153  16.735   7.955
 6515POPC   C4A15018  43.079  16.759   7.655
 6515POPC   C1B15019  43.258  16.545   8.555
 6515POPC   C2B15020  43.241  16.542   8.255
 6515POPC   C3B15021  43.255  16.555   7.955
 6515POPC   C4B15022  43.259  16.515   7.655
 6516POPC   NC315023  23.697   1.204   9.455
 6516POPC   PO415024  23.705   1.174   9.155
 6516POPC   GL115025  23.746   1.220   8.855
 6516POPC   GL215026  23.762   1.145   8.855
 6516POPC   C1A15027  23.706   1.218   8.555
 6516POPC   D2A15028  23.761   1.262   8.255
 6516POPC   C3A15029  23.738   1.216   7.955
 6516POPC   C4A15030  23.722   1.170   7.655
 6516POPC   C1B15031  23.797   0.966   8.555
 6516POPC   C2B15032  23.822   1.045   8.255
 6516POPC   C3B15033  23.827   1.020   7.955
 6516POPC   C4B15034  23.838   1.044   7.655
 6517POPC   NC315035  12.034   2.743   9.455
 6517POPC   PO415036  12.035   2.784   9.155
 6517POPC   GL115037  12.062   2.798   8.855
 6517POPC   GL215038  11.946   2.738   8.855
 6517POPC   C1A15039  12.115   2.774   8.555
 6517POPC   D2A15040  12.113   2.795   8.255
 6517POPC   C3A15041  12.034   2.762   7.955
 6517POPC   C4A15042  12.032   2.722   7.655
 6517POPC   C1B15043  11.820   2.721   8.555
 6517POPC   C2B15044  11.839   2.751   8.255
 6517POPC   C3B15045  11.834   2.751   7.955
 6517POPC   C4B15046  11.859   2.756   7.655
 6518POPC   NC315047  27.640   1.263   9.455
 6518POPC   PO415048  27.623   1.263   9.155
 6518POPC   GL115049  27.631   1.223   8.855
 6518POPC   GL215050  27.628   1.323   8.855
 6518POPC   C1A15051  27.619   1.246   8.555
 6518POPC   D2A15052  27.629   1.187   8.255
 6518POPC   C3A15053  27.609   1.235   7.955
 6518POPC   C4A15054  27.586   1.234   7.655
 6518POPC   C1B15055  27.713   1.455   8.555
 6518POPC   C2B15056  27.665   1.453   8.255
 6518POPC   C3B15057  27.747   1.434   7.955
 6518POPC   C4B15058  27.691   1.412   7.655
 6519POPC   NC315059  21.387  43.132   9.455
 6519POPC   PO415060  21.367  43.124   9.155
 6519POPC   GL115061  21.406  43.096   8.855
 6519POPC   GL215062  21.465  43.209   8.855
 6519POPC   C1A15063  21.362  43.096   8.555
 6519POPC   D2A15064  21.436  43.064   8.255
 6519POPC   C3A15065  21.364  43.075   7.955
 6519POPC   C4A15066  21.388  43.156   7.655
 6519POPC   C1B15067  21.577  43.307   8.555
 6519POPC   C2B15068  21.576  43.278   8.255
 6519POPC   C3B15069  21.545  43.235   7.955
 6519POPC   C4B15070  21.581  43.246   7.655
 6520POPC   NC315071  21.395  43.921   9.455
 6520POPC   PO415072  21.362  43.917   9.155
 6520POPC   GL115073  21.391  43.921   8.855
 6520POPC   GL215074  21.371  43.981   8.855
 6520POPC   C1A15075  21.347  43.915   8.555
 6520POPC   D2A15076  21.390  43.935   8.255
 6520POPC   C3A15077  21.393  43.900   7.955
 6520POPC   C4A15078  21.381  43.921   7.655
 6520POPC   C1B15079  21.425  44.081   8.555
 6520POPC   C2B15080  21.418  44.141   8.255
 6520POPC   C3B15081  21.450  44.138   7.955
 6520POPC   C4B15082  21.422  44.110   7.655
 6521POPC   NC315083  36.134  30.666   9.455
 6521POPC   PO415084  36.089  30.706   9.155
 6521POPC   GL115085  36.099  30.657   8.855
 6521POPC   GL215086  36.184  30.761   8.855
 6521POPC   C1A15087  36.087  30.696   8.555
 6521POPC   D2A15088  36.092  30.648   8.255
 6521POPC   C3A15089  36.175  30.726   7.955
 6521POPC   C4A15090  36.118  30.731   7.655
 6521POPC   C1B15091  36.230  30.878   8.555
 6521POPC   C2B15092  36.276  30.939   8.255
 6521POPC   C3B15093  36.222  30.858   7.955
 6521POPC   C4B15094  36.283  30.945   7.655
 6522POPC   NC315095  43.843  22.959   9.455
 6522POPC   PO415096  43.896  22.906   9.155
 6522POPC   GL115097  43.909  22.957   8.855
 6522POPC   GL215098  43.993  22.838   8.855
 6522POPC   C1A15099  43.892  22.932   8.555
 6522POPC   D2A15100  43.914  22.965   8.255
 6522POPC   C3A15101  43.891  22.929   7.955
 6522POPC   C4A15102  43.885  22.958   7.655
 6522POPC   C1B15103  44.004  22.729   8.555
 6522POPC   C2B15104  44.027  22.769   8.255
 6522POPC   C3B15105  43.975  22.741   7.955
 6522POPC   C4B15106  44.040  22.736   7.655
 6523POPC   NC315107  37.665  35.351   9.455
 6523POPC   PO415108  37.676  35.365   9.155
 6523POPC   GL115109  37.705  35.368   8.855
 6523POPC   GL215110  37.799  35.416   8.855
 6523POPC   C1A15111  37.726  35.399   8.555
 6523POPC   D2A15112  37.649  35.369   8.255
 6523POPC   C3A15113  37.637  35.327   7.955
 6523POPC   C4A15114  37.663  35.377   7.655
 6523POPC   C1B15115  37.869  35.398   8.555
 6523POPC   C2B15116  37.878  35.489   8.255
 6523POPC   C3B15117  37.923  35.448   7.955
 6523POPC   C4B15118  37.870  35.415   7.655
 6524POPC   NC315119   1.981   5.114   9.455
 6524POPC   PO415120   1.977   5.133   9.155
 6524POPC   GL115121   1.942   5.063   8.855
 6524POPC   GL215122   1.863   5.089   8.855
 6524POPC   C1A15123   1.978   5.098   8.555
 6524POPC   D2A15124   2.016   5.135   8.255
 6524POPC   C3A15125   2.039   5.046   7.955
 6524POPC   C4A15126   1.974   5.086   7.655
 6524POPC   C1B15127   1.778   4.958   8.555
 6524POPC   C2B15128   1.743   4.989   8.255
 6524POPC   C3B15129   1.753   4.980   7.955
 6524POPC   C4B15130   1.799   5.035   7.655
 6525POPC   NC315131  14.416  34.595   9.455
 6525POPC   PO415132  14.443  34.589   9.155
 6525POPC   GL115133  14.427  34.601   8.855
 6525POPC   GL215134  14.381  34.448   8.855
 6525POPC   C1A15135  14.373  34.616   8.555
 6525POPC   D2A15136  14.366  34.537   8.255
 6525POPC   C3A15137  14.381  34.615   7.955
 6525POPC   C4A15138  14.358  34.621   7.655
 6525POPC   C1B15139  14.353  34.308   8.555
 6525POPC   C2B15140  14.414  34.367   8.255
 6525POPC   C3B15141  14.343  34.311   7.955
 6525POPC   C4B15142  14.340  34.310   7.655
 6526POPC   NC315143  41.602  19.792   9.455
 6526POPC   PO415144  41.550  19.809   9.155
 6526POPC   GL115145  41.557  19.874   8.855
 6526POPC   GL215146  41.608  19.746   8.855
 6526POPC   C1A15147  41.599  19.792   8.555
 6526POPC   D2A15148  41.556  19.816   8.255
 6526POPC   C3A15149  41.519  19.796   7.955
 6526POPC   C4A15150  41.578  19.831   7.655
 6526POPC   C1B15151  41.655  19.632   8.555
 6526POPC   C2B15152  41.696  19.575   8.255
 6526POPC   C3B15153  41.665  19.573   7.955
 6526POPC   C4B15154  41.620  19.612   7.655
 6527POPC   NC315155  13.673  10.536   9.455
 6527POPC   PO415156  13.649  10.510   9.155
 6527POPC   GL115157  13.578  10.526   8.855
 6527POPC   GL215158  13.457  10.476   8.855
 6527POPC   C1A15159  13.667  10.560   8.555
 6527POPC   D2A15160  13.660  10.571   8.255
 6527POPC   C3A15161  13.649  10.475   7.955
 6527POPC   C4A15162  13.620  10.568   7.655
 6527POPC   C1B15163  13.355  10.483   8.555
 6527POPC   C2B15164  13.347  10.493   8.255
 6527POPC   C3B15165  13.342  10.503   7.955
 6527POPC   C4B15166  13.348  10.448   7.655
 6528POPC   NC315167  28.392  26.046   9.455
 6528POPC   PO415168  28.332  26.052   9.155
 6528POPC   GL115169  28.409  26.013   8.855
 6528POPC   GL215170  28.269  25.923   8.855
 6528POPC   C1A15171  28.347  26.066   8.555
 6528POPC   D2A15172  28.387  26.034   8.255
 6528POPC   C3A15173  28.396  26.014   7.955
 6528POPC   C4A15174  28.328  26.083   7.655
 6528POPC   C1B15175  28.195  25.850   8.555
 6528POPC   C2B15176  28.226  25.829   8.255
 6528POPC   C3B15177  28.205  25.844   7.955
 6528POPC   C4B15178  28.261  25.815   7.655
 6529POPC   NC315179  16.687  27.639   9.455
 6529POPC   PO415180  16.730  27.616   9.155
 6529POPC   GL115181  16.731  27.553   8.855
 6529POPC   GL215182  16.864  27.658   8.855
 6529POPC   C1A15183  16.763  27.587   8.555
 6529POPC   D2A15184  16.689  27.608   8.255
 6529POPC   C3A15185  16.691  27.561   7.955
 6529POPC   C4A15186  16.771  27.586   7.655
 6529POPC   C1B15187  16.967  27.729   8.555
 6529POPC   C2B15188  16.922  27.683   8.255
 6529POPC   C3B15189  16.906  27.750   7.955
 6529POPC   C4B15190  16.936  27.684   7.655
 6530POPC   NC315191  22.942  23.711   9.455
 6530POPC   PO415192  22.921  23.731   9.155
 6530POPC   GL115193  22.916  23.707   8.855
 6530POPC   GL215194  22.960  23.797   8.855
 6530POPC   C1A15195  22.972  23.726   8.555
 6530POPC   D2A15196  22.888  23.697   8.255
 6530POPC   C3A15197  22.972  23.668   7.955
 6530POPC   C4A15198  22.968  23.683   7.655
 6530POPC   C1B15199  22.919  23.930   8.555
 6530POPC   C2B15200  22.867  23.920   8.255
 6530POPC   C3B15201  22.868  24.006   7.955
 6530POPC   C4B15202  22.899  23.972   7.655
 6531POPC   NC315203  43.842  15.938   9.455
 6531POPC   PO415204  43.906  15.934   9.155
 6531POPC   GL115205  43.840  15.987   8.855
 6531POPC   GL215206  43.950  16.006   8.855
 6531POPC   C1A15207  43.915  15.967   8.555
 6531POPC   D2A15208  43.923  15.911   8.255
 6531POPC   C3A15209  43.934  15.906   7.955
 6531POPC   C4A15210  43.859  15.976   7.655
 6531POPC   C1B15211  44.026  16.180   8.555
 6531POPC   C2B15212  44.080  16.177   8.255
 6531POPC   C3B15213  44.072  16.189   7.955
 6531POPC   C4B15214  44.052  16.198   7.655
 6532POPC   NC315215   5.111  38.461   9.455
 6532POPC   PO415216   5.060  38.440   9.155
 6532POPC   GL115217   5.123  38.461   8.855
 6532POPC   GL215218   5.054  38.328   8.855
 6532POPC   C1A15219   5.106  38.432   8.555
 6532POPC   D2A15220   5.097  38.486   8.255
 6532POPC   C3A15221   5.104  38.444   7.955
 6532POPC   C4A15222   5.097  38.443   7.655
 6532POPC   C1B15223   5.109  38.218   8.555
 6532POPC   C2B15224   5.096  38.236   8.255
 6532POPC   C3B15225   5.023  38.180   7.955
 6532POPC   C4B15226   5.072  38.164   7.655
 6533POPC   NC315227  23.710  38.423   9.455
 6533POPC   PO415228  23.687  38.494   9.155
 6533POPC   GL115229  23.714  38.467   8.855
 6533POPC   GL215230  23.820  38.364   8.855
 6533POPC   C1A15231  23.754  38.479   8.555
 6533POPC   D2A15232  23.738  38.503   8.255
 6533POPC   C3A15233  23.674  38.443   7.955
 6533POPC   C4A15234  23.707  38.465   7.655
 6533POPC   C1B15235  23.866  38.341   8.555
 6533POPC   C2B15236  23.868  38.313   8.255
 6533POPC   C3B15237  23.956  38.322   7.955
 6533POPC   C4B15238  23.940  38.292   7.655
 6534POPC   NC315239  32.292  30.676   9.455
 6534POPC   PO415240  32.256  30.710   9.155
 6534POPC   GL115241  32.212  30.732   8.855
 6534POPC   GL215242  32.172  30.793   8.855
 6534POPC   C1A15243  32.264  30.664   8.555
 6534POPC   D2A15244  32.227  30.737   8.255
 6534POPC   C3A15245  32.220  30.647   7.955
 6534POPC   C4A15246  32.245  30.692   7.655
 6534POPC   C1B15247  32.133  30.970   8.555
 6534POPC   C2B15248  32.187  30.961   8.255
 6534POPC   C3B15249  32.119  30.935   7.955
 6534POPC   C4B15250  32.123  30.948   7.655
 6535POPC   NC315251  44.643  39.985   9.455
 6535POPC   PO415252  44.706  40.047   9.155
 6535POPC   GL115253  44.664  40.004   8.855
 6535POPC   GL215254  44.672  40.087   8.855
 6535POPC   C1A15255  44.677  39.984   8.555
 6535POPC   D2A15256  44.665  40.048   8.255
 6535POPC   C3A15257  44.704  40.018   7.955
 6535POPC   C4A15258  44.638  40.031   7.655
 6535POPC   C1B15259  44.648  40.249   8.555
 6535POPC   C2B15260  44.587  40.232   8.255
 6535POPC   C3B15261  44.630  40.279   7.955
 6535POPC   C4B15262  44.667  40.226   7.655
 6536POPC   NC315263  34.625   3.590   9.455
 6536POPC   PO415264  34.584   3.553   9.155
 6536POPC   GL115265  34.619   3.569   8.855
 6536POPC   GL215266  34.562   3.375   8.855
 6536POPC   C1A15267  34.534   3.589   8.555
 6536POPC   D2A15268  34.590   3.514   8.255
 6536POPC   C3A15269  34.560   3.494   7.955
 6536POPC   C4A15270  34.624   3.545   7.655
 6536POPC   C1B15271  34.566   3.270   8.555
 6536POPC   C2B15272  34.593   3.277   8.255
 6536POPC   C3B15273  34.597   3.276   7.955
 6536POPC   C4B15274  34.616   3.342   7.655
 6537POPC   NC315275  17.529   6.625   9.455
 6537POPC   PO415276  17.515   6.687   9.155
 6537POPC   GL115277  17.472   6.679   8.855
 6537POPC   GL215278  17.510   6.814   8.855
 6537POPC   C1A15279  17.491   6.635   8.555
 6537POPC   D2A15280  17.487   6.665   8.255
 6537POPC   C3A15281  17.513   6.668   7.955
 6537POPC   C4A15282  17.514   6.647   7.655
 6537POPC   C1B15283  17.464   6.862   8.555
 6537POPC   C2B15284  17.455   6.899   8.255
 6537POPC   C3B15285  17.483   6.839   7.955
 6537POPC   C4B15286  17.473   6.850   7.655
 6538POPC   NC315287  43.926   5.912   9.455
 6538POPC   PO415288  43.923   5.843   9.155
 6538POPC   GL115289  43.920   5.831   8.855
 6538POPC   GL215290  44.038   5.953   8.855
 6538POPC   C1A15291  43.900   5.860   8.555
 6538POPC   D2A15292  43.892   5.881   8.255
 6538POPC   C3A15293  43.895   5.851   7.955
 6538POPC   C4A15294  43.848   5.822   7.655
 6538POPC   C1B15295  44.098   5.997   8.555
 6538POPC   C2B15296  44.122   5.926   8.255
 6538POPC   C3B15297  44.157   5.955   7.955
 6538POPC   C4B15298  44.127   5.957   7.655
 6539POPC   NC315299  35.364   2.764   9.455
 6539POPC   PO415300  35.356   2.790   9.155
 6539POPC   GL115301  35.373   2.772   8.855
 6539POPC   GL215302  35.420   2.818   8.855
 6539POPC   C1A15303  35.306   2.770   8.555
 6539POPC   D2A15304  35.385   2.805   8.255
 6539POPC   C3A15305  35.340   2.806   7.955
 6539POPC   C4A15306  35.392   2.737   7.655
 6539POPC   C1B15307  35.558   2.879   8.555
 6539POPC   C2B15308  35.593   2.845   8.255
 6539POPC   C3B15309  35.623   2.882   7.955
 6539POPC   C4B15310  35.564   2.860   7.655
 6540POPC   NC315311  29.187  30.648   9.455
 6540POPC   PO415312  29.156  30.668   9.155
 6540POPC   GL115313  29.139  30.710   8.855
 6540POPC   GL215314  29.198  30.606   8.855
 6540POPC   C1A15315  29.146  30.677   8.555
 6540POPC   D2A15316  29.188  30.652   8.255
 6540POPC   C3A15317  29.179  30.665   7.955
 6540POPC   C4A15318  29.167  30.732   7.655
 6540POPC   C1B15319  29.183  30.457   8.555
 6540POPC   C2B15320  29.202  30.473   8.255
 6540POPC   C3B15321  29.185  30.445   7.955
 6540POPC   C4B15322  29.194  30.487   7.655
 6541POPC   NC315323   0.428   5.877   9.455
 6541POPC   PO415324   0.399   5.919   9.155
 6541POPC   GL115325   0.424   5.853   8.855
 6541POPC   GL215326   0.573   5.836   8.855
 6541POPC   C1A15327   0.431   5.833   8.555
 6541POPC   D2A15328   0.407   5.838   8.255
 6541POPC   C3A15329   0.485   5.841   7.955
 6541POPC   C4A15330   0.449   5.841   7.655
 6541POPC   C1B15331   0.685   5.755   8.555
 6541POPC   C2B15332   0.625   5.748   8.255
 6541POPC   C3B15333   0.696   5.699   7.955
 6541POPC   C4B15334   0.680   5.688   7.655
 6542POPC   NC315335   4.342   5.858   9.455
 6542POPC   PO415336   4.336   5.886   9.155
 6542POPC   GL115337   4.275   5.889   8.855
 6542POPC   GL215338   4.362   5.966   8.855
 6542POPC   C1A15339   4.345   5.919   8.555
 6542POPC   D2A15340   4.306   5.841   8.255
 6542POPC   C3A15341   4.341   5.836   7.955
 6542POPC   C4A15342   4.291   5.911   7.655
 6542POPC   C1B15343   4.386   6.098   8.555
 6542POPC   C2B15344   4.303   6.151   8.255
 6542POPC   C3B15345   4.374   6.134   7.955
 6542POPC   C4B15346   4.293   6.094   7.655
 6543POPC   NC315347   7.407  44.654   9.455
 6543POPC   PO415348   7.378  44.628   9.155
 6543POPC   GL115349   7.465  44.643   8.855
 6543POPC   GL215350   7.403  44.498   8.855
 6543POPC   C1A15351   7.374  44.648   8.555
 6543POPC   D2A15352   7.465  44.710   8.255
 6543POPC   C3A15353   7.371  44.681   7.955
 6543POPC   C4A15354   7.451  44.688   7.655
 6543POPC   C1B15355   7.438  44.459   8.555
 6543POPC   C2B15356   7.394  44.390   8.255
 6543POPC   C3B15357   7.424  44.370   7.955
 6543POPC   C4B15358   7.392  44.430   7.655
 6544POPC   NC315359  32.278   0.448   9.455
 6544POPC   PO415360  32.257   0.398   9.155
 6544POPC   GL115361  32.249   0.438   8.855
 6544POPC   GL215362  32.368   0.357   8.855
 6544POPC   C1A15363  32.293   0.440   8.555
 6544POPC   D2A15364  32.202   0.436   8.255
 6544POPC   C3A15365  32.252   0.407   7.955
 6544POPC   C4A15366  32.278   0.458   7.655
 6544POPC   C1B15367  32.447   0.359   8.555
 6544POPC   C2B15368  32.484   0.341   8.255
 6544POPC   C3B15369  32.482   0.289   7.955
 6544POPC   C4B15370  32.483   0.293   7.655
 6545POPC   NC315371  24.496   5.104   9.455
 6545POPC   PO415372  24.529   5.110   9.155
 6545POPC   GL115373  24.514   5.066   8.855
 6545POPC   GL215374  24.551   5.212   8.855
 6545POPC   C1A15375  24.528   5.122   8.555
 6545POPC   D2A15376  24.507   5.113   8.255
 6545POPC   C3A15377  24.474   5.133   7.955
 6545POPC   C4A15378  24.459   5.119   7.655
 6545POPC   C1B15379  24.649   5.302   8.555
 6545POPC   C2B15380  24.616   5.299   8.255
 6545POPC   C3B15381  24.612   5.316   7.955
 6545POPC   C4B15382  24.607   5.281   7.655
 6546POPC   NC315383  16.764   5.079   9.455
 6546POPC   PO415384  16.773   5.045   9.155
 6546POPC   GL115385  16.742   5.090   8.855
 6546POPC   GL215386  16.841   5.172   8.855
 6546POPC   C1A15387  16.722   5.100   8.555
 6546POPC   D2A15388  16.764   5.048   8.255
 6546POPC   C3A15389  16.742   5.082   7.955
 6546POPC   C4A15390  16.762   5.088   7.655
 6546POPC   C1B15391  16.937   5.173   8.555
 6546POPC   C2B15392  16.987   5.257   8.255
 6546POPC   C3B15393  16.969   5.252   7.955
 6546POPC   C4B15394  16.993   5.190   7.655
 6547POPC   NC315395  27.586  44.652   9.455
 6547POPC   PO415396  27.624  44.695   9.155
 6547POPC   GL115397  27.577  44.692   8.855
 6547POPC   GL215398  27.557  44.558   8.855
 6547POPC   C1A15399  27.558  44.678   8.555
 6547POPC   D2A15400  27.596  44.678   8.255
 6547POPC   C3A15401  27.562  44.697   7.955
 6547POPC   C4A15402  27.585  44.699   7.655
 6547POPC   C1B15403  27.590  44.368   8.555
 6547POPC   C2B15404  27.601  44.382   8.255
 6547POPC   C3B15405  27.634  44.376   7.955
 6547POPC   C4B15406  27.668  44.370   7.655
 6548POPC   NC315407   6.602  33.011   9.455
 6548POPC   PO415408   6.637  33.058   9.155
 6548POPC   GL115409   6.638  32.993   8.855
 6548POPC   GL215410   6.551  33.022   8.855
 6548POPC   C1A15411   6.597  33.022   8.555
 6548POPC   D2A15412   6.673  32.985   8.255
 6548POPC   C3A15413   6.652  32.981   7.955
 6548POPC   C4A15414   6.654  32.996   7.655
 6548POPC   C1B15415   6.385  33.072   8.555
 6548POPC   C2B15416   6.379  33.113   8.255
 6548POPC   C3B15417   6.402  33.077   7.955
 6548POPC   C4B15418   6.354  33.041   7.655
 6549POPC   NC315419  23.690  26.032   9.455
 6549POPC   PO415420  23.763  26.032   9.155
 6549POPC   GL115421  23.689  26.059   8.855
 6549POPC   GL215422  23.802  25.884   8.855
 6549POPC   C1A15423  23.749  26.013   8.555
 6549POPC   D2A15424  23.723  26.038   8.255
 6549POPC   C3A15425  23.689  26.040   7.955
 6549POPC   C4A15426  23.705  26.039   7.655
 6549POPC   C1B15427  23.852  25.806   8.555
 6549POPC   C2B15428  23.790  25.806   8.255
 6549POPC   C3B15429  23.828  25.788   7.955
 6549POPC   C4B15430  23.837  25.854   7.655
 6550POPC   NC315431  40.046  19.857   9.455
 6550POPC   PO415432  40.042  19.865   9.155
 6550POPC   GL115433  40.003  19.876   8.855
 6550POPC   GL215434  40.080  19.681   8.855
 6550POPC   C1A15435  39.974  19.821   8.555
 6550POPC   D2A15436  39.963  19.860   8.255
 6550POPC   C3A15437  39.993  19.851   7.955
 6550POPC   C4A15438  40.005  19.882   7.655
 6550POPC   C1B15439  40.071  19.649   8.555
 6550POPC   C2B15440  40.082  19.606   8.255
 6550POPC   C3B15441  40.102  19.566   7.955
 6550POPC   C4B15442  40.076  19.637   7.655
 6551POPC   NC315443   1.235  13.671   9.455
 6551POPC   PO415444   1.224  13.645   9.155
 6551POPC   GL115445   1.247  13.655   8.855
 6551POPC   GL215446   1.337  13.736   8.855
 6551POPC   C1A15447   1.204  13.588   8.555
 6551POPC   D2A15448   1.259  13.622   8.255
 6551POPC   C3A15449   1.218  13.634   7.955
 6551POPC   C4A15450   1.190  13.595   7.655
 6551POPC   C1B15451   1.413  13.738   8.555
 6551POPC   C2B15452   1.436  13.758   8.255
 6551POPC   C3B15453   1.384  13.794   7.955
 6551POPC   C4B15454   1.378  13.822   7.655
 6552POPC   NC315455  41.544  43.875   9.455
 6552POPC   PO415456  41.574  43.924   9.155
 6552POPC   GL115457  41.539  43.855   8.855
 6552POPC   GL215458  41.451  43.818   8.855
 6552POPC   C1A15459  41.596  43.923   8.555
 6552POPC   D2A15460  41.560  43.859   8.255
 6552POPC   C3A15461  41.543  43.869   7.955
 6552POPC   C4A15462  41.514  43.862   7.655
 6552POPC   C1B15463  41.459  43.698   8.555
 6552POPC   C2B15464  41.411  43.673   8.255
 6552POPC   C3B15465  41.382  43.725   7.955
 6552POPC   C4B15466  41.450  43.637   7.655
 6553POPC   NC315467  25.259  25.231   9.455
 6553POPC   PO415468  25.310  25.230   9.155
 6553POPC   GL115469  25.307  25.291   8.855
 6553POPC   GL215470  25.304  25.410   8.855
 6553POPC   C1A15471  25.225  25.232   8.555
 6553POPC   D2A15472  25.281  25.306   8.255
 6553POPC   C3A15473  25.229  25.299   7.955
 6553POPC   C4A15474  25.271  25.281   7.655
 6553POPC   C1B15475  25.389  25.540   8.555
 6553POPC   C2B15476  25.299  25.454   8.255
 6553POPC   C3B15477  25.322  25.501   7.955
 6553POPC   C4B15478  25.295  25.471   7.655
 6554POPC   NC315479  43.851   5.083   9.455
 6554POPC   PO415480  43.852   5.100   9.155
 6554POPC   GL115481  43.908   5.120   8.855
 6554POPC   GL215482  43.907   5.209   8.855
 6554POPC   C1A15483  43.898   5.106   8.555
 6554POPC   D2A15484  43.929   5.139   8.255
 6554POPC   C3A15485  43.905   5.044   7.955
 6554POPC   C4A15486  43.894   5.083   7.655
 6554POPC   C1B15487  43.796   5.325   8.555
 6554POPC   C2B15488  43.806   5.363   8.255
 6554POPC   C3B15489  43.799   5.297   7.955
 6554POPC   C4B15490  43.852   5.298   7.655
 6555POPC   NC315491  44.703  38.422   9.455
 6555POPC   PO415492  44.668  38.420   9.155
 6555POPC   GL115493  44.624  38.422   8.855
 6555POPC   GL215494  44.649  38.310   8.855
 6555POPC   C1A15495  44.621  38.430   8.555
 6555POPC   D2A15496  44.707  38.489   8.255
 6555POPC   C3A15497  44.677  38.493   7.955
 6555POPC   C4A15498  44.697  38.459   7.655
 6555POPC   C1B15499  44.760  38.218   8.555
 6555POPC   C2B15500  44.754  38.209   8.255
 6555POPC   C3B15501  44.721  38.187   7.955
 6555POPC   C4B15502  44.697  38.242   7.655
 6556POPC   NC315503  32.297  29.116   9.455
 6556POPC   PO415504  32.229  29.105   9.155
 6556POPC   GL115505  32.210  29.169   8.855
 6556POPC   GL215506  32.153  29.072   8.855
 6556POPC   C1A15507  32.219  29.162   8.555
 6556POPC   D2A15508  32.209  29.120   8.255
 6556POPC   C3A15509  32.288  29.186   7.955
 6556POPC   C4A15510  32.291  29.190   7.655
 6556POPC   C1B15511  32.016  28.984   8.555
 6556POPC   C2B15512  32.082  28.993   8.255
 6556POPC   C3B15513  32.060  29.025   7.955
 6556POPC   C4B15514  32.026  28.949   7.655
 6557POPC   NC315515  29.916  16.760   9.455
 6557POPC   PO415516  29.884  16.726   9.155
 6557POPC   GL115517  29.872  16.713   8.855
 6557POPC   GL215518  29.791  16.747   8.855
 6557POPC   C1A15519  29.884  16.739   8.555
 6557POPC   D2A15520  29.970  16.707   8.255
 6557POPC   C3A15521  29.960  16.735   7.955
 6557POPC   C4A15522  29.913  16.762   7.655
 6557POPC   C1B15523  29.718  16.719   8.555
 6557POPC   C2B15524  29.687  16.629   8.255
 6557POPC   C3B15525  29.629  16.670   7.955
 6557POPC   C4B15526  29.675  16.680   7.655
 6558POPC   NC315527  10.568  43.106   9.455
 6558POPC   PO415528  10.534  43.078   9.155
 6558POPC   GL115529  10.490  43.125   8.855
 6558POPC   GL215530  10.616  43.134   8.855
 6558POPC   C1A15531  10.489  43.116   8.555
 6558POPC   D2A15532  10.493  43.144   8.255
 6558POPC   C3A15533  10.528  43.142   7.955
 6558POPC   C4A15534  10.556  43.088   7.655
 6558POPC   C1B15535  10.780  43.122   8.555
 6558POPC   C2B15536  10.734  43.204   8.255
 6558POPC   C3B15537  10.738  43.160   7.955
 6558POPC   C4B15538  10.758  43.126   7.655
 6559POPC   NC315539  28.354  25.252   9.455
 6559POPC   PO415540  28.402  25.261   9.155
 6559POPC   GL115541  28.336  25.224   8.855
 6559POPC   GL215542  28.312  25.333   8.855
 6559POPC   C1A15543  28.363  25.291   8.555
 6559POPC   D2A15544  28.337  25.246   8.255
 6559POPC   C3A15545  28.371  25.260   7.955
 6559POPC   C4A15546  28.412  25.229   7.655
 6559POPC   C1B15547  28.229  25.478   8.555
 6559POPC   C2B15548  28.191  25.423   8.255
 6559POPC   C3B15549  28.226  25.425   7.955
 6559POPC   C4B15550  28.186  25.464   7.655
 6560POPC   NC315551  37.647   2.800   9.455
 6560POPC   PO415552  37.646   2.779   9.155
 6560POPC   GL115553  37.635   2.739   8.855
 6560POPC   GL215554  37.705   2.620   8.855
 6560POPC   C1A15555  37.702   2.801   8.555
 6560POPC   D2A15556  37.651   2.766   8.255
 6560POPC   C3A15557  37.727   2.775   7.955
 6560POPC   C4A15558  37.706   2.717   7.655
 6560POPC   C1B15559  37.737   2.550   8.555
 6560POPC   C2B15560  37.760   2.509   8.255
 6560POPC   C3B15561  37.699   2.560   7.955
 6560POPC   C4B15562  37.694   2.500   7.655
 6561POPC   NC315563   5.867  17.459   9.455
 6561POPC   PO415564   5.889  17.469   9.155
 6561POPC   GL115565   5.852  17.555   8.855
 6561POPC   GL215566   5.751  17.492   8.855
 6561POPC   C1A15567   5.865  17.471   8.555
 6561POPC   D2A15568   5.879  17.520   8.255
 6561POPC   C3A15569   5.875  17.482   7.955
 6561POPC   C4A15570   5.855  17.519   7.655
 6561POPC   C1B15571   5.643  17.453   8.555
 6561POPC   C2B15572   5.627  17.436   8.255
 6561POPC   C3B15573   5.602  17.480   7.955
 6561POPC   C4B15574   5.614  17.531   7.655
 6562POPC   NC315575  31.507   2.755   9.455
 6562POPC   PO415576  31.517   2.727   9.155
 6562POPC   GL115577  31.488   2.749   8.855
 6562POPC   GL215578  31.440   2.875   8.855
 6562POPC   C1A15579  31.455   2.774   8.555
 6562POPC   D2A15580  31.463   2.740   8.255
 6562POPC   C3A15581  31.458   2.778   7.955
 6562POPC   C4A15582  31.484   2.761   7.655
 6562POPC   C1B15583  31.402   3.057   8.555
 6562POPC   C2B15584  31.432   3.050   8.255
 6562POPC   C3B15585  31.466   3.020   7.955
 6562POPC   C4B15586  31.378   3.054   7.655
 6563POPC   NC315587  17.489   0.414   9.455
 6563POPC   PO415588  17.469   0.420   9.155
 6563POPC   GL115589  17.544   0.401   8.855
 6563POPC   GL215590  17.561   0.552   8.855
 6563POPC   C1A15591  17.520   0.443   8.555
 6563POPC   D2A15592  17.495   0.404   8.255
 6563POPC   C3A15593  17.554   0.473   7.955
 6563POPC   C4A15594  17.484   0.471   7.655
 6563POPC   C1B15595  17.567   0.718   8.555
 6563POPC   C2B15596  17.610   0.681   8.255
 6563POPC   C3B15597  17.605   0.705   7.955
 6563POPC   C4B15598  17.616   0.650   7.655
 6564POPC   NC315599  10.498   5.085   9.455
 6564POPC   PO415600  10.552   5.107   9.155
 6564POPC   GL115601  10.514   5.091   8.855
 6564POPC   GL215602  10.663   5.172   8.855
 6564POPC   C1A15603  10.530   5.131   8.555
 6564POPC   D2A15604  10.572   5.092   8.255
 6564POPC   C3A15605  10.532   5.063   7.955
 6564POPC   C4A15606  10.561   5.079   7.655
 6564POPC   C1B15607  10.796   5.194   8.555
 6564POPC   C2B15608  10.768   5.148   8.255
 6564POPC   C3B15609  10.798   5.160   7.955
 6564POPC   C4B15610  10.751   5.176   7.655
 6565POPC   NC315611  23.753  12.844   9.455
 6565POPC   PO415612  23.752  12.896   9.155
 6565POPC   GL115613  23.691  12.842   8.855
 6565POPC   GL215614  23.731  12.935   8.855
 6565POPC   C1A15615  23.747  12.829   8.555
 6565POPC   D2A15616  23.726  12.841   8.255
 6565POPC   C3A15617  23.683  12.839   7.955
 6565POPC   C4A15618  23.727  12.864   7.655
 6565POPC   C1B15619  23.615  13.065   8.555
 6565POPC   C2B15620  23.679  13.108   8.255
 6565POPC   C3B15621  23.638  13.078   7.955
 6565POPC   C4B15622  23.622  13.140   7.655
 6566POPC   NC315623  43.881  33.751   9.455
 6566POPC   PO415624  43.906  33.840   9.155
 6566POPC   GL115625  43.848  33.792   8.855
 6566POPC   GL215626  43.998  33.835   8.855
 6566POPC   C1A15627  43.920  33.809   8.555
 6566POPC   D2A15628  43.847  33.824   8.255
 6566POPC   C3A15629  43.857  33.766   7.955
 6566POPC   C4A15630  43.894  33.754   7.655
 6566POPC   C1B15631  44.175  33.820   8.555
 6566POPC   C2B15632  44.111  33.867   8.255
 6566POPC   C3B15633  44.178  33.870   7.955
 6566POPC   C4B15634  44.153  33.800   7.655
 6567POPC   NC315635  26.812   5.897   9.455
 6567POPC   PO415636  26.832   5.900   9.155
 6567POPC   GL115637  26.768   5.893   8.855
 6567POPC   GL215638  26.821   5.717   8.855
 6567POPC   C1A15639  26.833   5.911   8.555
 6567POPC   D2A15640  26.796   5.845   8.255
 6567POPC   C3A15641  26.801   5.842   7.955
 6567POPC   C4A15642  26.840   5.874   7.655
 6567POPC   C1B15643  26.891   5.626   8.555
 6567POPC   C2B15644  26.879   5.580   8.255
 6567POPC   C3B15645  26.805   5.609   7.955
 6567POPC   C4B15646  26.812   5.636   7.655
 6568POPC   NC315647   7.440   9.702   9.455
 6568POPC   PO415648   7.456   9.754   9.155
 6568POPC   GL115649   7.429   9.752   8.855
 6568POPC   GL215650   7.350   9.654   8.855
 6568POPC   C1A15651   7.439   9.743   8.555
 6568POPC   D2A15652   7.444   9.742   8.255
 6568POPC   C3A15653   7.422   9.756   7.955
 6568POPC   C4A15654   7.435   9.724   7.655
 6568POPC   C1B15655   7.191   9.677   8.555
 6568POPC   C2B15656   7.183   9.643   8.255
 6568POPC   C3B15657   7.183   9.613   7.955
 6568POPC   C4B15658   7.170   9.589   7.655
 6569POPC   NC315659  35.391  40.776   9.455
 6569POPC   PO415660  35.305  40.816   9.155
 6569POPC   GL115661  35.359  40.750   8.855
 6569POPC   GL215662  35.521  40.701   8.855
 6569POPC   C1A15663  35.309  40.798   8.555
 6569POPC   D2A15664  35.343  40.817   8.255
 6569POPC   C3A15665  35.328  40.828   7.955
 6569POPC   C4A15666  35.349  40.797   7.655
 6569POPC   C1B15667  35.561  40.738   8.555
 6569POPC   C2B15668  35.602  40.712   8.255
 6569POPC   C3B15669  35.594  40.712   7.955
 6569POPC   C4B15670  35.629  40.675   7.655
 6570POPC   NC315671  14.418   2.792   9.455
 6570POPC   PO415672  14.386   2.760   9.155
 6570POPC   GL115673  14.369   2.755   8.855
 6570POPC   GL215674  14.343   2.653   8.855
 6570POPC   C1A15675  14.434   2.739   8.555
 6570POPC   D2A15676  14.445   2.724   8.255
 6570POPC   C3A15677  14.438   2.797   7.955
 6570POPC   C4A15678  14.359   2.719   7.655
 6570POPC   C1B15679  14.238   2.607   8.555
 6570POPC   C2B15680  14.241   2.604   8.255
 6570POPC   C3B15681  14.227   2.527   7.955
 6570POPC   C4B15682  14.284   2.543   7.655
 6571POPC   NC315683  19.848  22.204   9.455
 6571POPC   PO415684  19.858  22.184   9.155
 6571POPC   GL115685  19.854  22.154   8.855
 6571POPC   GL215686  19.768  22.238   8.855
 6571POPC   C1A15687  19.883  22.189   8.555
 6571POPC   D2A15688  19.831  22.187   8.255
 6571POPC   C3A15689  19.854  22.194   7.955
 6571POPC   C4A15690  19.880  22.141   7.655
 6571POPC   C1B15691  19.657  22.315   8.555
 6571POPC   C2B15692  19.640  22.361   8.255
 6571POPC   C3B15693  19.651  22.359   7.955
 6571POPC   C4B15694  19.639  22.291   7.655
 6572POPC   NC315695  30.658  14.439   9.455
 6572POPC   PO415696  30.687  14.423   9.155
 6572POPC   GL115697  30.732  14.425   8.855
 6572POPC   GL215698  30.737  14.455   8.855
 6572POPC   C1A15699  30.721  14.438   8.555
 6572POPC   D2A15700  30.695  14.403   8.255
 6572POPC   C3A15701  30.689  14.390   7.955
 6572POPC   C4A15702  30.736  14.373   7.655
 6572POPC   C1B15703  30.802  14.640   8.555
 6572POPC   C2B15704  30.877  14.646   8.255
 6572POPC   C3B15705  30.878  14.584   7.955
 6572POPC   C4B15706  30.874  14.559   7.655
 6573POPC   NC315707   0.457  43.889   9.455
 6573POPC   PO415708   0.450  43.930   9.155
 6573POPC   GL115709   0.421  43.901   8.855
 6573POPC   GL215710   0.279  43.819   8.855
 6573POPC   C1A15711   0.388  43.852   8.555
 6573POPC   D2A15712   0.477  43.894   8.255
 6573POPC   C3A15713   0.445  43.889   7.955
 6573POPC   C4A15714   0.487  43.850   7.655
 6573POPC   C1B15715   0.223  43.850   8.555
 6573POPC   C2B15716   0.170  43.773   8.255
 6573POPC   C3B15717   0.165  43.824   7.955
 6573POPC   C4B15718   0.189  43.855   7.655
 6574POPC   NC315719  33.001  19.852   9.455
 6574POPC   PO415720  33.031  19.836   9.155
 6574POPC   GL115721  33.056  19.859   8.855
 6574POPC   GL215722  32.974  19.917   8.855
 6574POPC   C1A15723  33.011  19.824   8.555
 6574POPC   D2A15724  32.981  19.852   8.255
 6574POPC   C3A15725  33.004  19.806   7.955
 6574POPC   C4A15726  32.991  19.802   7.655
 6574POPC   C1B15727  32.868  19.942   8.555
 6574POPC   C2B15728  32.848  20.033   8.255
 6574POPC   C3B15729  32.789  20.034   7.955
 6574POPC   C4B15730  32.842  19.996   7.655
 6575POPC   NC315731  26.836  10.555   9.455
 6575POPC   PO415732  26.816  10.490   9.155
 6575POPC   GL115733  26.831  10.540   8.855
 6575POPC   GL215734  26.959  10.523   8.855
 6575POPC   C1A15735  26.792  10.548   8.555
 6575POPC   D2A15736  26.862  10.567   8.255
 6575POPC   C3A15737  26.823  10.492   7.955
 6575POPC   C4A15738  26.815  10.490   7.655
 6575POPC   C1B15739  27.043  10.487   8.555
 6575POPC   C2B15740  27.069  10.472   8.255
 6575POPC   C3B15741  27.011  10.433   7.955
 6575POPC   C4B15742  27.013  10.396   7.655
 6576POPC   NC315743  12.034  42.377   9.455
 6576POPC   PO415744  12.120  42.325   9.155
 6576POPC   GL115745  12.089  42.319   8.855
 6576POPC   GL215746  12.108  42.171   8.855
 6576POPC   C1A15747  12.105  42.317   8.555
 6576POPC   D2A15748  12.046  42.361   8.255
 6576POPC   C3A15749  12.099  42.383   7.955
 6576POPC   C4A15750  12.086  42.286   7.655
 6576POPC   C1B15751  12.102  42.107   8.555
 6576POPC   C2B15752  12.133  42.058   8.255
 6576POPC   C3B15753  12.173  42.097   7.955
 6576POPC   C4B15754  12.174  42.099   7.655
 6577POPC   NC315755   7.461  34.594   9.455
 6577POPC   PO415756   7.376  34.616   9.155
 6577POPC   GL115757   7.418  34.555   8.855
 6577POPC   GL215758   7.311  34.598   8.855
 6577POPC   C1A15759   7.418  34.611   8.555
 6577POPC   D2A15760   7.371  34.554   8.255
 6577POPC   C3A15761   7.399  34.602   7.955
 6577POPC   C4A15762   7.447  34.590   7.655
 6577POPC   C1B15763   7.126  34.639   8.555
 6577POPC   C2B15764   7.213  34.581   8.255
 6577POPC   C3B15765   7.125  34.619   7.955
 6577POPC   C4B15766   7.188  34.560   7.655
 6578POPC   NC315767   2.763  34.577   9.455
 6578POPC   PO415768   2.770  34.581   9.155
 6578POPC   GL115769   2.722  34.539   8.855
 6578POPC   GL215770   2.659  34.728   8.855
 6578POPC   C1A15771   2.773  34.556   8.555
 6578POPC   D2A15772   2.767  34.556   8.255
 6578POPC   C3A15773   2.812  34.595   7.955
 6578POPC   C4A15774   2.728  34.552   7.655
 6578POPC   C1B15775   2.649  34.840   8.555
 6578POPC   C2B15776   2.684  34.838   8.255
 6578POPC   C3B15777   2.688  34.792   7.955
 6578POPC   C4B15778   2.631  34.811   7.655
 6579POPC   NC315779  36.888   5.093   9.455
 6579POPC   PO415780  36.870   5.053   9.155
 6579POPC   GL115781  36.950   5.119   8.855
 6579POPC   GL215782  37.007   5.020   8.855
 6579POPC   C1A15783  36.940   5.140   8.555
 6579POPC   D2A15784  36.893   5.098   8.255
 6579POPC   C3A15785  36.934   5.123   7.955
 6579POPC   C4A15786  36.876   5.135   7.655
 6579POPC   C1B15787  37.061   4.894   8.555
 6579POPC   C2B15788  37.054   4.894   8.255
 6579POPC   C3B15789  37.020   4.863   7.955
 6579POPC   C4B15790  37.040   4.869   7.655
 6580POPC   NC315791  26.803  43.084   9.455
 6580POPC   PO415792  26.854  43.092   9.155
 6580POPC   GL115793  26.815  43.125   8.855
 6580POPC   GL215794  26.708  43.214   8.855
 6580POPC   C1A15795  26.826  43.108   8.555
 6580POPC   D2A15796  26.804  43.061   8.255
 6580POPC   C3A15797  26.798  43.065   7.955
 6580POPC   C4A15798  26.767  43.122   7.655
 6580POPC   C1B15799  26.631  43.193   8.555
 6580POPC   C2B15800  26.591  43.206   8.255
 6580POPC   C3B15801  26.638  43.258   7.955
 6580POPC   C4B15802  26.559  43.269   7.655
 6581POPC   NC315803  29.880   9.709   9.455
 6581POPC   PO415804  29.878   9.781   9.155
 6581POPC   GL115805  29.935   9.745   8.855
 6581POPC   GL215806  29.974   9.872   8.855
 6581POPC   C1A15807  29.922   9.706   8.555
 6581POPC   D2A15808  29.962   9.698   8.255
 6581POPC   C3A15809  29.909   9.752   7.955
 6581POPC   C4A15810  29.891   9.706   7.655
 6581POPC   C1B15811  30.085   9.915   8.555
 6581POPC   C2B15812  30.096   9.946   8.255
 6581POPC   C3B15813  30.152   9.895   7.955
 6581POPC   C4B15814  30.129   9.897   7.655
 6582POPC   NC315815  25.280  26.003   9.455
 6582POPC   PO415816  25.286  26.072   9.155
 6582POPC   GL115817  25.222  26.055   8.855
 6582POPC   GL215818  25.242  26.159   8.855
 6582POPC   C1A15819  25.315  26.041   8.555
 6582POPC   D2A15820  25.227  26.049   8.255
 6582POPC   C3A15821  25.223  26.052   7.955
 6582POPC   C4A15822  25.247  26.029   7.655
 6582POPC   C1B15823  25.108  26.255   8.555
 6582POPC   C2B15824  25.171  26.230   8.255
 6582POPC   C3B15825  25.135  26.248   7.955
 6582POPC   C4B15826  25.109  26.221   7.655
 6583POPC   NC315827  27.598  15.958   9.455
 6583POPC   PO415828  27.578  15.949   9.155
 6583POPC   GL115829  27.613  15.955   8.855
 6583POPC   GL215830  27.473  16.024   8.855
 6583POPC   C1A15831  27.596  15.952   8.555
 6583POPC   D2A15832  27.640  15.922   8.255
 6583POPC   C3A15833  27.598  15.934   7.955
 6583POPC   C4A15834  27.562  15.972   7.655
 6583POPC   C1B15835  27.358  16.013   8.555
 6583POPC   C2B15836  27.375  15.995   8.255
 6583POPC   C3B15837  27.355  16.008   7.955
 6583POPC   C4B15838  27.340  15.992   7.655
 6584POPC   NC315839  38.410  44.639   9.455
 6584POPC   PO415840  38.468  44.673   9.155
 6584POPC   GL115841  38.450  44.626   8.855
 6584POPC   GL215842  38.603  44.665   8.855
 6584POPC   C1A15843  38.425  44.672   8.555
 6584POPC   D2A15844  38.415  44.697   8.255
 6584POPC   C3A15845  38.407  44.696   7.955
 6584POPC   C4A15846  38.503  44.675   7.655
 6584POPC   C1B15847  38.713  44.707   8.555
 6584POPC   C2B15848  38.736  44.683   8.255
 6584POPC   C3B15849  38.659  44.717   7.955
 6584POPC   C4B15850  38.661  44.650   7.655
 6585POPC   NC315851  13.656  39.219   9.455
 6585POPC   PO415852  13.633  39.209   9.155
 6585POPC   GL115853  13.652  39.216   8.855
 6585POPC   GL215854  13.668  39.335   8.855
 6585POPC   C1A15855  13.669  39.242   8.555
 6585POPC   D2A15856  13.672  39.193   8.255
 6585POPC   C3A15857  13.673  39.245   7.955
 6585POPC   C4A15858  13.588  39.277   7.655
 6585POPC   C1B15859  13.628  39.509   8.555
 6585POPC   C2B15860  13.677  39.444   8.255
 6585POPC   C3B15861  13.630  39.476   7.955
 6585POPC   C4B15862  13.672  39.476   7.655
 6586POPC   NC315863  22.186  26.772   9.455
 6586POPC   PO415864  22.159  26.803   9.155
 6586POPC   GL115865  22.211  26.864   8.855
 6586POPC   GL215866  22.247  26.938   8.855
 6586POPC   C1A15867  22.139  26.852   8.555
 6586POPC   D2A15868  22.199  26.831   8.255
 6586POPC   C3A15869  22.145  26.773   7.955
 6586POPC   C4A15870  22.125  26.784   7.655
 6586POPC   C1B15871  22.284  27.031   8.555
 6586POPC   C2B15872  22.289  27.086   8.255
 6586POPC   C3B15873  22.257  27.074   7.955
 6586POPC   C4B15874  22.261  27.048   7.655
 6587POPC   NC315875   8.951  40.819   9.455
 6587POPC   PO415876   8.940  40.757   9.155
 6587POPC   GL115877   8.968  40.807   8.855
 6587POPC   GL215878   9.046  40.638   8.855
 6587POPC   C1A15879   8.976  40.737   8.555
 6587POPC   D2A15880   9.009  40.799   8.255
 6587POPC   C3A15881   8.957  40.815   7.955
 6587POPC   C4A15882   8.953  40.781   7.655
 6587POPC   C1B15883   9.124  40.568   8.555
 6587POPC   C2B15884   9.111  40.599   8.255
 6587POPC   C3B15885   9.162  40.575   7.955
 6587POPC   C4B15886   9.107  40.537   7.655
 6588POPC   NC315887  39.981  23.700   9.455
 6588POPC   PO415888  39.987  23.758   9.155
 6588POPC   GL115889  39.982  23.706   8.855
 6588POPC   GL215890  40.064  23.590   8.855
 6588POPC   C1A15891  39.974  23.734   8.555
 6588POPC   D2A15892  39.972  23.677   8.255
 6588POPC   C3A15893  39.962  23.760   7.955
 6588POPC   C4A15894  40.015  23.746   7.655
 6588POPC   C1B15895  40.081  23.499   8.555
 6588POPC   C2B15896  40.033  23.497   8.255
 6588POPC   C3B15897  40.083  23.460   7.955
 6588POPC   C4B15898  40.033  23.469   7.655
 6589POPC   NC315899   8.165  33.017   9.455
 6589POPC   PO415900   8.162  33.014   9.155
 6589POPC   GL115901   8.148  32.989   8.855
 6589POPC   GL215902   8.251  33.075   8.855
 6589POPC   C1A15903   8.178  33.052   8.555
 6589POPC   D2A15904   8.240  33.017   8.255
 6589POPC   C3A15905   8.240  33.024   7.955
 6589POPC   C4A15906   8.178  32.992   7.655
 6589POPC   C1B15907   8.342  33.219   8.555
 6589POPC   C2B15908   8.386  33.214   8.255
 6589POPC   C3B15909   8.348  33.185   7.955
 6589POPC   C4B15910   8.345  33.185   7.655
 6590POPC   NC315911   6.691  19.063   9.455
 6590POPC   PO415912   6.650  19.095   9.155
 6590POPC   GL115913   6.631  19.027   8.855
 6590POPC   GL215914   6.656  18.909   8.855
 6590POPC   C1A15915   6.683  19.090   8.555
 6590POPC   D2A15916   6.676  19.014   8.255
 6590POPC   C3A15917   6.630  19.069   7.955
 6590POPC   C4A15918   6.659  19.013   7.655
 6590POPC   C1B15919   6.616  18.777   8.555
 6590POPC   C2B15920   6.652  18.791   8.255
 6590POPC   C3B15921   6.597  18.848   7.955
 6590POPC   C4B15922   6.679  18.795   7.655
 6591POPC   NC315923  33.766   2.716   9.455
 6591POPC   PO415924  33.806   2.716   9.155
 6591POPC   GL115925  33.757   2.781   8.855
 6591POPC   GL215926  33.858   2.627   8.855
 6591POPC   C1A15927  33.827   2.757   8.555
 6591POPC   D2A15928  33.807   2.783   8.255
 6591POPC   C3A15929  33.814   2.791   7.955
 6591POPC   C4A15930  33.762   2.772   7.655
 6591POPC   C1B15931  33.840   2.554   8.555
 6591POPC   C2B15932  33.859   2.535   8.255
 6591POPC   C3B15933  33.811   2.515   7.955
 6591POPC   C4B15934  33.812   2.517   7.655
 6592POPC   NC315935  43.141  32.246   9.455
 6592POPC   PO415936  43.136  32.294   9.155
 6592POPC   GL115937  43.121  32.277   8.855
 6592POPC   GL215938  43.051  32.213   8.855
 6592POPC   C1A15939  43.070  32.226   8.555
 6592POPC   D2A15940  43.122  32.263   8.255
 6592POPC   C3A15941  43.148  32.265   7.955
 6592POPC   C4A15942  43.076  32.282   7.655
 6592POPC   C1B15943  42.959  32.038   8.555
 6592POPC   C2B15944  42.883  32.035   8.255
 6592POPC   C3B15945  42.932  32.078   7.955
 6592POPC   C4B15946  42.878  32.103   7.655
 6593POPC   NC315947  15.211  19.855   9.455
 6593POPC   PO415948  15.151  19.884   9.155
 6593POPC   GL115949  15.169  19.834   8.855
 6593POPC   GL215950  15.042  19.944   8.855
 6593POPC   C1A15951  15.157  19.798   8.555
 6593POPC   D2A15952  15.151  19.800   8.255
 6593POPC   C3A15953  15.145  19.786   7.955
 6593POPC   C4A15954  15.196  19.821   7.655
 6593POPC   C1B15955  14.972  19.998   8.555
 6593POPC   C2B15956  15.024  20.010   8.255
 6593POPC   C3B15957  15.038  19.996   7.955
 6593POPC   C4B15958  14.980  20.044   7.655
 6594POPC   NC315959   5.136  29.188   9.455
 6594POPC   PO415960   5.079  29.187   9.155
 6594POPC   GL115961   5.111  29.169   8.855
 6594POPC   GL215962   5.153  28.997   8.855
 6594POPC   C1A15963   5.060  29.144   8.555
 6594POPC   D2A15964   5.130  29.185   8.255
 6594POPC   C3A15965   5.120  29.129   7.955
 6594POPC   C4A15966   5.072  29.150   7.655
 6594POPC   C1B15967   5.138  28.872   8.555
 6594POPC   C2B15968   5.146  28.886   8.255
 6594POPC   C3B15969   5.174  28.877   7.955
 6594POPC   C4B15970   5.156  28.869   7.655
 6595POPC   NC315971  14.431   4.305   9.455
 6595POPC   PO415972  14.360   4.324   9.155
 6595POPC   GL115973  14.407   4.281   8.855
 6595POPC   GL215974  14.525   4.350   8.855
 6595POPC   C1A15975  14.405   4.336   8.555
 6595POPC   D2A15976  14.392   4.315   8.255
 6595POPC   C3A15977  14.367   4.333   7.955
 6595POPC   C4A15978  14.434   4.302   7.655
 6595POPC   C1B15979  14.551   4.514   8.555
 6595POPC   C2B15980  14.575   4.457   8.255
 6595POPC   C3B15981  14.614   4.477   7.955
 6595POPC   C4B15982  14.615   4.462   7.655
 6596POPC   NC315983  23.746  43.898   9.455
 6596POPC   PO415984  23.675  43.905   9.155
 6596POPC   GL115985  23.697  43.933   8.855
 6596POPC   GL215986  23.633  43.863   8.855
 6596POPC   C1A15987  23.734  43.848   8.555
 6596POPC   D2A15988  23.698  43.859   8.255
 6596POPC   C3A15989  23.681  43.875   7.955
 6596POPC   C4A15990  23.697  43.846   7.655
 6596POPC   C1B15991  23.485  43.886   8.555
 6596POPC   C2B15992  23.463  43.947   8.255
 6596POPC   C3B15993  23.443  43.948   7.955
 6596POPC   C4B15994  23.440  43.901   7.655
 6597POPC   NC315995   4.311  29.876   9.455
 6597POPC   PO415996   4.273  29.898   9.155
 6597POPC   GL115997   4.306  29.875   8.855
 6597POPC   GL215998   4.437  29.996   8.855
 6597POPC   C1A15999   4.291  29.963   8.555
 6597POPC   D2A16000   4.300  29.887   8.255
 6597POPC   C3A16001   4.334  29.875   7.955
 6597POPC   C4A16002   4.268  29.927   7.655
 6597POPC   C1B16003   4.502  30.095   8.555
 6597POPC   C2B16004   4.498  30.029   8.255
 6597POPC   C3B16005   4.559  30.041   7.955
 6597POPC   C4B16006   4.502  30.080   7.655
 6598POPC   NC316007   5.822  18.274   9.455
 6598POPC   PO416008   5.887  18.236   9.155
 6598POPC   GL116009   5.871  18.323   8.855
 6598POPC   GL216010   5.980  18.281   8.855
 6598POPC   C1A16011   5.832  18.283   8.555
 6598POPC   D2A16012   5.836  18.308   8.255
 6598POPC   C3A16013   5.828  18.272   7.955
 6598POPC   C4A16014   5.918  18.286   7.655
 6598POPC   C1B16015   6.102  18.346   8.555
 6598POPC   C2B16016   6.072  18.308   8.255
 6598POPC   C3B16017   6.122  18.314   7.955
 6598POPC   C4B16018   6.151  18.394   7.655
 6599POPC   NC316019  35.398  29.166   9.455
 6599POPC   PO416020  35.351  29.185   9.155
 6599POPC   GL116021  35.396  29.159   8.855
 6599POPC   GL216022  35.392  29.021   8.855
 6599POPC   C1A16023  35.313  29.098   8.555
 6599POPC   D2A16024  35.307  29.140   8.255
 6599POPC   C3A16025  35.361  29.125   7.955
 6599POPC   C4A16026  35.398  29.155   7.655
 6599POPC   C1B16027  35.388  28.903   8.555
 6599POPC   C2B16028  35.427  28.865   8.255
 6599POPC   C3B16029  35.364  28.934   7.955
 6599POPC   C4B16030  35.392  28.884   7.655
 6600POPC   NC316031  36.130   7.412   9.455
 6600POPC   PO416032  36.093   7.382   9.155
 6600POPC   GL116033  36.083   7.439   8.855
 6600POPC   GL216034  36.212   7.325   8.855
 6600POPC   C1A16035  36.174   7.433   8.555
 6600POPC   D2A16036  36.151   7.445   8.255
 6600POPC   C3A16037  36.137   7.434   7.955
 6600POPC   C4A16038  36.108   7.419   7.655
 6600POPC   C1B16039  36.268   7.206   8.555
 6600POPC   C2B16040  36.188   7.177   8.255
 6600POPC   C3B16041  36.178   7.212   7.955
 6600POPC   C4B16042  36.203   7.155   7.655
 6601POPC   NC316043  26.822  29.888   9.455
 6601POPC   PO416044  26.785  29.962   9.155
 6601POPC   GL116045  26.861  29.900   8.855
 6601POPC   GL216046  26.664  29.919   8.855
 6601POPC   C1A16047  26.825  29.878   8.555
 6601POPC   D2A16048  26.774  29.943   8.255
 6601POPC   C3A16049  26.779  29.921   7.955
 6601POPC   C4A16050  26.828  29.908   7.655
 6601POPC   C1B16051  26.564  29.892   8.555
 6601POPC   C2B16052  26.605  29.874   8.255
 6601POPC   C3B16053  26.609  29.938   7.955
 6601POPC   C4B16054  26.531  29.962   7.655
 6602POPC   NC316055   1.263  15.212   9.455
 6602POPC   PO416056   1.223  15.198   9.155
 6602POPC   GL116057   1.249  15.199   8.855
 6602POPC   GL216058   1.105  15.162   8.855
 6602POPC   C1A16059   1.168  15.132   8.555
 6602POPC   D2A16060   1.186  15.186   8.255
 6602POPC   C3A16061   1.194  15.207   7.955
 6602POPC   C4A16062   1.210  15.197   7.655
 6602POPC   C1B16063   0.985  15.131   8.555
 6602POPC   C2B16064   0.998  15.117   8.255
 6602POPC   C3B16065   0.977  15.144   7.955
 6602POPC   C4B16066   0.938  15.062   7.655
 6603POPC   NC316067  14.427   7.390   9.455
 6603POPC   PO416068  14.451   7.415   9.155
 6603POPC   GL116069  14.430   7.471   8.855
 6603POPC   GL216070  14.538   7.356   8.855
 6603POPC   C1A16071  14.389   7.390   8.555
 6603POPC   D2A16072  14.380   7.465   8.255
 6603POPC   C3A16073  14.411   7.456   7.955
 6603POPC   C4A16074  14.444   7.446   7.655
 6603POPC   C1B16075  14.638   7.283   8.555
 6603POPC   C2B16076  14.603   7.244   8.255
 6603POPC   C3B16077  14.580   7.265   7.955
 6603POPC   C4B16078  14.559   7.248   7.655
 6604POPC   NC316079  17.490   5.073   9.455
 6604POPC   PO416080  17.499   5.132   9.155
 6604POPC   GL116081  17.479   5.137   8.855
 6604POPC   GL216082  17.581   4.975   8.855
 6604POPC   C1A16083  17.531   5.074   8.555
 6604POPC   D2A16084  17.548   5.114   8.255
 6604POPC   C3A16085  17.493   5.075   7.955
 6604POPC   C4A16086  17.494   5.077   7.655
 6604POPC   C1B16087  17.561   4.874   8.555
 6604POPC   C2B16088  17.558   4.847   8.255
 6604POPC   C3B16089  17.575   4.866   7.955
 6604POPC   C4B16090  17.525   4.884   7.655
 6605POPC   NC316091   0.425  34.548   9.455
 6605POPC   PO416092   0.457  34.562   9.155
 6605POPC   GL116093   0.402  34.532   8.855
 6605POPC   GL216094   0.579  34.504   8.855
 6605POPC   C1A16095   0.471  34.584   8.555
 6605POPC   D2A16096   0.482  34.582   8.255
 6605POPC   C3A16097   0.421  34.529   7.955
 6605POPC   C4A16098   0.435  34.594   7.655
 6605POPC   C1B16099   0.647  34.529   8.555
 6605POPC   C2B16100   0.681  34.462   8.255
 6605POPC   C3B16101   0.632  34.460   7.955
 6605POPC   C4B16102   0.708  34.516   7.655
 6606POPC   NC316103  33.016   5.129   9.455
 6606POPC   PO416104  33.027   5.103   9.155
 6606POPC   GL116105  33.045   5.122   8.855
 6606POPC   GL216106  32.951   4.995   8.855
 6606POPC   C1A16107  33.056   5.120   8.555
 6606POPC   D2A16108  33.025   5.058   8.255
 6606POPC   C3A16109  33.032   5.075   7.955
 6606POPC   C4A16110  32.999   5.111   7.655
 6606POPC   C1B16111  32.842   4.874   8.555
 6606POPC   C2B16112  32.849   4.910   8.255
 6606POPC   C3B16113  32.902   4.868   7.955
 6606POPC   C4B16114  32.895   4.920   7.655
 6607POPC   NC316115  30.652  16.775   9.455
 6607POPC   PO416116  30.736  16.722   9.155
 6607POPC   GL116117  30.733  16.771   8.855
 6607POPC   GL216118  30.597  16.782   8.855
 6607POPC   C1A16119  30.740  16.743   8.555
 6607POPC   D2A16120  30.732  16.717   8.255
 6607POPC   C3A16121  30.686  16.719   7.955
 6607POPC   C4A16122  30.717  16.711   7.655
 6607POPC   C1B16123  30.536  16.915   8.555
 6607POPC   C2B16124  30.548  16.909   8.255
 6607POPC   C3B16125  30.519  16.842   7.955
 6607POPC   C4B16126  30.464  16.851   7.655
 6608POPC   NC316127   7.392  39.191   9.455
 6608POPC   PO416128   7.468  39.204   9.155
 6608POPC   GL116129   7.374  39.216   8.855
 6608POPC   GL216130   7.553  39.249   8.855
 6608POPC   C1A16131   7.371  39.263   8.555
 6608POPC   D2A16132   7.392  39.266   8.255
 6608POPC   C3A16133   7.461  39.257   7.955
 6608POPC   C4A16134   7.436  39.269   7.655
 6608POPC   C1B16135   7.691  39.300   8.555
 6608POPC   C2B16136   7.686  39.310   8.255
 6608POPC   C3B16137   7.689  39.296   7.955
 6608POPC   C4B16138   7.647  39.263   7.655
 6609POPC   NC316139  19.865   3.527   9.455
 6609POPC   PO416140  19.798   3.509   9.155
 6609POPC   GL116141  19.796   3.590   8.855
 6609POPC   GL216142  19.796   3.629   8.855
 6609POPC   C1A16143  19.861   3.574   8.555
 6609POPC   D2A16144  19.866   3.519   8.255
 6609POPC   C3A16145  19.812   3.563   7.955
 6609POPC   C4A16146  19.814   3.534   7.655
 6609POPC   C1B16147  19.809   3.751   8.555
 6609POPC   C2B16148  19.751   3.738   8.255
 6609POPC   C3B16149  19.727   3.763   7.955
 6609POPC   C4B16150  19.793   3.808   7.655
 6610POPC   NC316151  42.288  26.812   9.455
 6610POPC   PO416152  42.320  26.787   9.155
 6610POPC   GL116153  42.302  26.793   8.855
 6610POPC   GL216154  42.369  26.929   8.855
 6610POPC   C1A16155  42.375  26.827   8.555
 6610POPC   D2A16156  42.286  26.781   8.255
 6610POPC   C3A16157  42.296  26.803   7.955
 6610POPC   C4A16158  42.321  26.813   7.655
 6610POPC   C1B16159  42.269  27.101   8.555
 6610POPC   C2B16160  42.285  27.093   8.255
 6610POPC   C3B16161  42.270  27.047   7.955
 6610POPC   C4B16162  42.299  27.070   7.655
 6611POPC   NC316163  38.464   3.587   9.455
 6611POPC   PO416164  38.490   3.563   9.155
 6611POPC   GL116165  38.488   3.585   8.855
 6611POPC   GL216166  38.323   3.410   8.855
 6611POPC   C1A16167  38.416   3.525   8.555
 6611POPC   D2A16168  38.465   3.588   8.255
 6611POPC   C3A16169  38.466   3.550   7.955
 6611POPC   C4A16170  38.451   3.518   7.655
 6611POPC   C1B16171  38.286   3.391   8.555
 6611POPC   C2B16172  38.306   3.405   8.255
 6611POPC   C3B16173  38.280   3.356   7.955
 6611POPC   C4B16174  38.268   3.342   7.655
 6612POPC   NC316175   3.556  13.638   9.455
 6612POPC   PO416176   3.570  13.625   9.155
 6612POPC   GL116177   3.548  13.654   8.855
 6612POPC   GL216178   3.539  13.468   8.855
 6612POPC   C1A16179   3.506  13.649   8.555
 6612POPC   D2A16180   3.492  13.582   8.255
 6612POPC   C3A16181   3.519  13.613   7.955
 6612POPC   C4A16182   3.501  13.597   7.655
 6612POPC   C1B16183   3.676  13.412   8.555
 6612POPC   C2B16184   3.670  13.381   8.255
 6612POPC   C3B16185   3.616  13.345   7.955
 6612POPC   C4B16186   3.584  13.390   7.655
 6613POPC   NC316187   7.372  38.438   9.455
 6613POPC   PO416188   7.417  38.497   9.155
 6613POPC   GL116189   7.401  38.461   8.855
 6613POPC   GL216190   7.259  38.399   8.855
 6613POPC   C1A16191   7.432  38.465   8.555
 6613POPC   D2A16192   7.416  38.416   8.255
 6613POPC   C3A16193   7.470  38.498   7.955
 6613POPC   C4A16194   7.419  38.485   7.655
 6613POPC   C1B16195   7.233  38.337   8.555
 6613POPC   C2B16196   7.140  38.361   8.255
 6613POPC   C3B16197   7.159  38.382   7.955
 6613POPC   C4B16198   7.196  38.343   7.655
 6614POPC   NC316199  29.914   7.399   9.455
 6614POPC   PO416200  29.958   7.422   9.155
 6614POPC   GL116201  29.950   7.451   8.855
 6614POPC   GL216202  30.068   7.516   8.855
 6614POPC   C1A16203  29.950   7.435   8.555
 6614POPC   D2A16204  29.921   7.397   8.255
 6614POPC   C3A16205  29.931   7.413   7.955
 6614POPC   C4A16206  29.914   7.398   7.655
 6614POPC   C1B16207  30.161   7.575   8.555
 6614POPC   C2B16208  30.156   7.557   8.255
 6614POPC   C3B16209  30.088   7.533   7.955
 6614POPC   C4B16210  30.119   7.546   7.655
 6615POPC   NC316211  31.488   2.002   9.455
 6615POPC   PO416212  31.493   1.957   9.155
 6615POPC   GL116213  31.501   2.004   8.855
 6615POPC   GL216214  31.341   1.954   8.855
 6615POPC   C1A16215  31.463   2.027   8.555
 6615POPC   D2A16216  31.460   1.982   8.255
 6615POPC   C3A16217  31.486   1.961   7.955
 6615POPC   C4A16218  31.449   2.039   7.655
 6615POPC   C1B16219  31.259   1.840   8.555
 6615POPC   C2B16220  31.330   1.842   8.255
 6615POPC   C3B16221  31.316   1.814   7.955
 6615POPC   C4B16222  31.257   1.836   7.655
 6616POPC   NC316223   6.648  30.692   9.455
 6616POPC   PO416224   6.650  30.744   9.155
 6616POPC   GL116225   6.624  30.664   8.855
 6616POPC   GL216226   6.694  30.632   8.855
 6616POPC   C1A16227   6.639  30.675   8.555
 6616POPC   D2A16228   6.638  30.672   8.255
 6616POPC   C3A16229   6.622  30.672   7.955
 6616POPC   C4A16230   6.674  30.691   7.655
 6616POPC   C1B16231   6.849  30.495   8.555
 6616POPC   C2B16232   6.850  30.486   8.255
 6616POPC   C3B16233   6.794  30.488   7.955
 6616POPC   C4B16234   6.845  30.490   7.655
 6617POPC   NC316235  13.643  12.055   9.455
 6617POPC   PO416236  13.623  12.068   9.155
 6617POPC   GL116237  13.638  12.027   8.855
 6617POPC   GL216238  13.512  12.072   8.855
 6617POPC   C1A16239  13.665  12.084   8.555
 6617POPC   D2A16240  13.602  12.049   8.255
 6617POPC   C3A16241  13.622  12.099   7.955
 6617POPC   C4A16242  13.648  12.096   7.655
 6617POPC   C1B16243  13.359  12.108   8.555
 6617POPC   C2B16244  13.408  12.188   8.255
 6617POPC   C3B16245  13.365  12.120   7.955
 6617POPC   C4B16246  13.351  12.190   7.655
 6618POPC   NC316247  35.356  19.884   9.455
 6618POPC   PO416248  35.400  19.830   9.155
 6618POPC   GL116249  35.351  19.790   8.855
 6618POPC   GL216250  35.385  19.663   8.855
 6618POPC   C1A16251  35.371  19.866   8.555
 6618POPC   D2A16252  35.321  19.820   8.255
 6618POPC   C3A16253  35.372  19.883   7.955
 6618POPC   C4A16254  35.375  19.826   7.655
 6618POPC   C1B16255  35.329  19.634   8.555
 6618POPC   C2B16256  35.325  19.627   8.255
 6618POPC   C3B16257  35.360  19.612   7.955
 6618POPC   C4B16258  35.361  19.575   7.655
 6619POPC   NC316259  22.181  43.083   9.455
 6619POPC   PO416260  22.192  43.074   9.155
 6619POPC   GL116261  22.201  43.100   8.855
 6619POPC   GL216262  22.190  43.180   8.855
 6619POPC   C1A16263  22.123  43.102   8.555
 6619POPC   D2A16264  22.120  43.124   8.255
 6619POPC   C3A16265  22.142  43.151   7.955
 6619POPC   C4A16266  22.115  43.103   7.655
 6619POPC   C1B16267  22.260  43.347   8.555
 6619POPC   C2B16268  22.281  43.375   8.255
 6619POPC   C3B16269  22.228  43.344   7.955
 6619POPC   C4B16270  22.235  43.379   7.655
 6620POPC   NC316271  19.058   4.281   9.455
 6620POPC   PO416272  19.066   4.346   9.155
 6620POPC   GL116273  19.047   4.301   8.855
 6620POPC   GL216274  19.134   4.465   8.855
 6620POPC   C1A16275  19.063   4.280   8.555
 6620POPC   D2A16276  19.079   4.312   8.255
 6620POPC   C3A16277  19.066   4.334   7.955
 6620POPC   C4A16278  19.053   4.295   7.655
 6620POPC   C1B16279  19.166   4.525   8.555
 6620POPC   C2B16280  19.098   4.545   8.255
 6620POPC   C3B16281  19.110   4.559   7.955
 6620POPC   C4B16282  19.105   4.570   7.655
 6621POPC   NC316283   6.607   9.009   9.455
 6621POPC   PO416284   6.666   9.020   9.155
 6621POPC   GL116285   6.652   8.941   8.855
 6621POPC   GL216286   6.634   9.050   8.855
 6621POPC   C1A16287   6.672   8.940   8.555
 6621POPC   D2A16288   6.678   8.947   8.255
 6621POPC   C3A16289   6.672   8.958   7.955
 6621POPC   C4A16290   6.676   8.957   7.655
 6621POPC   C1B16291   6.705   9.175   8.555
 6621POPC   C2B16292   6.634   9.252   8.255
 6621POPC   C3B16293   6.607   9.260   7.955
 6621POPC   C4B16294   6.693   9.181   7.655
 6622POPC   NC316295  26.081   5.891   9.455
 6622POPC   PO416296  26.008   5.886   9.155
 6622POPC   GL116297  26.030   5.842   8.855
 6622POPC   GL216298  26.014   5.789   8.855
 6622POPC   C1A16299  26.055   5.836   8.555
 6622POPC   D2A16300  26.067   5.876   8.255
 6622POPC   C3A16301  26.053   5.858   7.955
 6622POPC   C4A16302  26.001   5.880   7.655
 6622POPC   C1B16303  25.959   5.617   8.555
 6622POPC   C2B16304  25.947   5.672   8.255
 6622POPC   C3B16305  26.002   5.649   7.955
 6622POPC   C4B16306  25.957   5.671   7.655
 6623POPC   NC316307  27.582   4.295   9.455
 6623POPC   PO416308  27.591   4.330   9.155
 6623POPC   GL116309  27.638   4.304   8.855
 6623POPC   GL216310  27.497   4.237   8.855
 6623POPC   C1A16311  27.622   4.274   8.555
 6623POPC   D2A16312  27.597   4.295   8.255
 6623POPC   C3A16313  27.546   4.320   7.955
 6623POPC   C4A16314  27.633   4.337   7.655
 6623POPC   C1B16315  27.426   4.195   8.555
 6623POPC   C2B16316  27.413   4.217   8.255
 6623POPC   C3B16317  27.410   4.199   7.955
 6623POPC   C4B16318  27.425   4.171   7.655
 6624POPC   NC316319  28.404  28.373   9.455
 6624POPC   PO416320  28.344  28.373   9.155
 6624POPC   GL116321  28.357  28.322   8.855
 6624POPC   GL216322  28.375  28.297   8.855
 6624POPC   C1A16323  28.377  28.353   8.555
 6624POPC   D2A16324  28.346  28.372   8.255
 6624POPC   C3A16325  28.382  28.377   7.955
 6624POPC   C4A16326  28.358  28.385   7.655
 6624POPC   C1B16327  28.332  28.161   8.555
 6624POPC   C2B16328  28.275  28.135   8.255
 6624POPC   C3B16329  28.267  28.165   7.955
 6624POPC   C4B16330  28.262  28.145   7.655
 6625POPC   NC316331   8.219  31.510   9.455
 6625POPC   PO416332   8.168  31.487   9.155
 6625POPC   GL116333   8.219  31.481   8.855
 6625POPC   GL216334   8.327  31.542   8.855
 6625POPC   C1A16335   8.172  31.473   8.555
 6625POPC   D2A16336   8.233  31.434   8.255
 6625POPC   C3A16337   8.245  31.455   7.955
 6625POPC   C4A16338   8.212  31.499   7.655
 6625POPC   C1B16339   8.480  31.569   8.555
 6625POPC   C2B16340   8.490  31.542   8.255
 6625POPC   C3B16341   8.440  31.497   7.955
 6625POPC   C4B16342   8.436  31.536   7.655
 6626POPC   NC316343  14.425  33.828   9.455
 6626POPC   PO416344  14.373  33.802   9.155
 6626POPC   GL116345  14.366  33.804   8.855
 6626POPC   GL216346  14.292  33.846   8.855
 6626POPC   C1A16347  14.376  33.786   8.555
 6626POPC   D2A16348  14.446  33.793   8.255
 6626POPC   C3A16349  14.421  33.781   7.955
 6626POPC   C4A16350  14.390  33.778   7.655
 6626POPC   C1B16351  14.177  33.784   8.555
 6626POPC   C2B16352  14.197  33.781   8.255
 6626POPC   C3B16353  14.162  33.792   7.955
 6626POPC   C4B16354  14.156  33.826   7.655
 6627POPC   NC316355  39.209   7.415   9.455
 6627POPC   PO416356  39.261   7.438   9.155
 6627POPC   GL116357  39.255   7.431   8.855
 6627POPC   GL216358  39.288   7.318   8.855
 6627POPC   C1A16359  39.255   7.410   8.555
 6627POPC   D2A16360  39.229   7.395   8.255
 6627POPC   C3A16361  39.253   7.456   7.955
 6627POPC   C4A16362  39.280   7.423   7.655
 6627POPC   C1B16363  39.304   7.197   8.555
 6627POPC   C2B16364  39.312   7.207   8.255
 6627POPC   C3B16365  39.367   7.212   7.955
 6627POPC   C4B16366  39.371   7.178   7.655
 6628POPC   NC316367  27.596  43.063   9.455
 6628POPC   PO416368  27.580  43.148   9.155
 6628POPC   GL116369  27.587  43.138   8.855
 6628POPC   GL216370  27.648  43.194   8.855
 6628POPC   C1A16371  27.569  43.108   8.555
 6628POPC   D2A16372  27.576  43.065   8.255
 6628POPC   C3A16373  27.559  43.075   7.955
 6628POPC   C4A16374  27.578  43.133   7.655
 6628POPC   C1B16375  27.759  43.289   8.555
 6628POPC   C2B16376  27.828  43.214   8.255
 6628POPC   C3B16377  27.845  43.273   7.955
 6628POPC   C4B16378  27.819  43.279   7.655
 6629POPC   NC316379  38.449   7.464   9.455
 6629POPC   PO416380  38.480   7.373   9.155
 6629POPC   GL116381  38.469   7.419   8.855
 6629POPC   GL216382  38.596   7.444   8.855
 6629POPC   C1A16383  38.436   7.400   8.555
 6629POPC   D2A16384  38.503   7.399   8.255
 6629POPC   C3A16385  38.406   7.454   7.955
 6629POPC   C4A16386  38.419   7.375   7.655
 6629POPC   C1B16387  38.684   7.380   8.555
 6629POPC   C2B16388  38.743   7.378   8.255
 6629POPC   C3B16389  38.690   7.382   7.955
 6629POPC   C4B16390  38.694   7.348   7.655
 6630POPC   NC316391  10.477   5.883   9.455
 6630POPC   PO416392  10.538   5.888   9.155
 6630POPC   GL116393  10.555   5.866   8.855
 6630POPC   GL216394  10.608   5.913   8.855
 6630POPC   C1A16395  10.557   5.852   8.555
 6630POPC   D2A16396  10.498   5.822   8.255
 6630POPC   C3A16397  10.524   5.905   7.955
 6630POPC   C4A16398  10.546   5.852   7.655
 6630POPC   C1B16399  10.685   5.967   8.555
 6630POPC   C2B16400  10.772   6.001   8.255
 6630POPC   C3B16401  10.743   6.037   7.955
 6630POPC   C4B16402  10.732   5.970   7.655
 6631POPC   NC316403  38.436   0.394   9.455
 6631POPC   PO416404  38.423   0.450   9.155
 6631POPC   GL116405  38.496   0.482   8.855
 6631POPC   GL216406  38.542   0.437   8.855
 6631POPC   C1A16407  38.411   0.440   8.555
 6631POPC   D2A16408  38.478   0.459   8.255
 6631POPC   C3A16409  38.503   0.404   7.955
 6631POPC   C4A16410  38.455   0.426   7.655
 6631POPC   C1B16411  38.663   0.376   8.555
 6631POPC   C2B16412  38.649   0.345   8.255
 6631POPC   C3B16413  38.717   0.342   7.955
 6631POPC   C4B16414  38.670   0.304   7.655
 6632POPC   NC316415  29.135  43.872   9.455
 6632POPC   PO416416  29.150  43.914   9.155
 6632POPC   GL116417  29.134  43.895   8.855
 6632POPC   GL216418  29.058  43.828   8.855
 6632POPC   C1A16419  29.107  43.877   8.555
 6632POPC   D2A16420  29.108  43.872   8.255
 6632POPC   C3A16421  29.194  43.915   7.955
 6632POPC   C4A16422  29.125  43.932   7.655
 6632POPC   C1B16423  28.896  43.734   8.555
 6632POPC   C2B16424  28.896  43.796   8.255
 6632POPC   C3B16425  28.884  43.787   7.955
 6632POPC   C4B16426  28.904  43.809   7.655
 6633POPC   NC316427  11.291   7.398   9.455
 6633POPC   PO416428  11.282   7.460   9.155
 6633POPC   GL116429  11.265   7.412   8.855
 6633POPC   GL216430  11.395   7.442   8.855
 6633POPC   C1A16431  11.271   7.396   8.555
 6633POPC   D2A16432  11.256   7.373   8.255
 6633POPC   C3A16433  11.265   7.382   7.955
 6633POPC   C4A16434  11.268   7.462   7.655
 6633POPC   C1B16435  11.519   7.406   8.555
 6633POPC   C2B16436  11.549   7.434   8.255
 6633POPC   C3B16437  11.593   7.378   7.955
 6633POPC   C4B16438  11.585   7.374   7.655
 6634POPC   NC316439   8.198   5.885   9.455
 6634POPC   PO416440   8.180   5.914   9.155
 6634POPC   GL116441   8.169   5.832   8.855
 6634POPC   GL216442   8.219   5.992   8.855
 6634POPC   C1A16443   8.236   5.855   8.555
 6634POPC   D2A16444   8.170   5.900   8.255
 6634POPC   C3A16445   8.156   5.886   7.955
 6634POPC   C4A16446   8.219   5.878   7.655
 6634POPC   C1B16447   8.202   6.114   8.555
 6634POPC   C2B16448   8.213   6.088   8.255
 6634POPC   C3B16449   8.244   6.158   7.955
 6634POPC   C4B16450   8.297   6.132   7.655
 6635POPC   NC316451   2.029  38.439   9.455
 6635POPC   PO416452   1.985  38.499   9.155
 6635POPC   GL116453   2.010  38.464   8.855
 6635POPC   GL216454   2.102  38.410   8.855
 6635POPC   C1A16455   1.986  38.440   8.555
 6635POPC   D2A16456   1.992  38.408   8.255
 6635POPC   C3A16457   1.976  38.465   7.955
 6635POPC   C4A16458   1.942  38.433   7.655
 6635POPC   C1B16459   2.279  38.397   8.555
 6635POPC   C2B16460   2.233  38.393   8.255
 6635POPC   C3B16461   2.267  38.368   7.955
 6635POPC   C4B16462   2.238  38.358   7.655
 6636POPC   NC316463  44.695  19.038   9.455
 6636POPC   PO416464  44.624  19.038   9.155
 6636POPC   GL116465  44.640  19.074   8.855
 6636POPC   GL216466  44.672  18.951   8.855
 6636POPC   C1A16467  44.669  19.086   8.555
 6636POPC   D2A16468  44.661  19.021   8.255
 6636POPC   C3A16469  44.629  19.082   7.955
 6636POPC   C4A16470  44.695  19.059   7.655
 6636POPC   C1B16471  44.624  18.845   8.555
 6636POPC   C2B16472  44.628  18.813   8.255
 6636POPC   C3B16473  44.704  18.763   7.955
 6636POPC   C4B16474  44.654  18.792   7.655
 6637POPC   NC316475   4.311  13.619   9.455
 6637POPC   PO416476   4.309  13.605   9.155
 6637POPC   GL116477   4.271  13.599   8.855
 6637POPC   GL216478   4.425  13.600   8.855
 6637POPC   C1A16479   4.354  13.598   8.555
 6637POPC   D2A16480   4.315  13.619   8.255
 6637POPC   C3A16481   4.344  13.595   7.955
 6637POPC   C4A16482   4.342  13.653   7.655
 6637POPC   C1B16483   4.551  13.556   8.555
 6637POPC   C2B16484   4.579  13.497   8.255
 6637POPC   C3B16485   4.511  13.558   7.955
 6637POPC   C4B16486   4.513  13.529   7.655
 6638POPC   NC316487   7.404   8.941   9.455
 6638POPC   PO416488   7.446   9.018   9.155
 6638POPC   GL116489   7.449   9.002   8.855
 6638POPC   GL216490   7.513   9.066   8.855
 6638POPC   C1A16491   7.374   9.004   8.555
 6638POPC   D2A16492   7.426   8.942   8.255
 6638POPC   C3A16493   7.464   8.976   7.955
 6638POPC   C4A16494   7.383   8.928   7.655
 6638POPC   C1B16495   7.537   9.177   8.555
 6638POPC   C2B16496   7.611   9.162   8.255
 6638POPC   C3B16497   7.594   9.184   7.955
 6638POPC   C4B16498   7.620   9.166   7.655
 6639POPC   NC316499  26.834  27.561   9.455
 6639POPC   PO416500  26.835  27.580   9.155
 6639POPC   GL116501  26.793  27.567   8.855
 6639POPC   GL216502  26.692  27.550   8.855
 6639POPC   C1A16503  26.782  27.634   8.555
 6639POPC   D2A16504  26.811  27.545   8.255
 6639POPC   C3A16505  26.827  27.623   7.955
 6639POPC   C4A16506  26.846  27.558   7.655
 6639POPC   C1B16507  26.611  27.489   8.555
 6639POPC   C2B16508  26.585  27.421   8.255
 6639POPC   C3B16509  26.578  27.473   7.955
 6639POPC   C4B16510  26.580  27.413   7.655
 6640POPC   NC316511  35.345  39.264   9.455
 6640POPC   PO416512  35.318  39.264   9.155
 6640POPC   GL116513  35.361  39.212   8.855
 6640POPC   GL216514  35.491  39.299   8.855
 6640POPC   C1A16515  35.398  39.245   8.555
 6640POPC   D2A16516  35.344  39.183   8.255
 6640POPC   C3A16517  35.312  39.240   7.955
 6640POPC   C4A16518  35.370  39.200   7.655
 6640POPC   C1B16519  35.573  39.361   8.555
 6640POPC   C2B16520  35.585  39.397   8.255
 6640POPC   C3B16521  35.568  39.403   7.955
 6640POPC   C4B16522  35.585  39.409   7.655
 6641POPC   NC316523   9.714  38.413   9.455
 6641POPC   PO416524   9.725  38.483   9.155
 6641POPC   GL116525   9.741  38.474   8.855
 6641POPC   GL216526   9.812  38.358   8.855
 6641POPC   C1A16527   9.704  38.466   8.555
 6641POPC   D2A16528   9.706  38.407   8.255
 6641POPC   C3A16529   9.779  38.484   7.955
 6641POPC   C4A16530   9.777  38.457   7.655
 6641POPC   C1B16531   9.855  38.273   8.555
 6641POPC   C2B16532   9.852  38.239   8.255
 6641POPC   C3B16533   9.842  38.239   7.955
 6641POPC   C4B16534   9.913  38.278   7.655
 6642POPC   NC316535  43.904  38.439   9.455
 6642POPC   PO416536  43.935  38.425   9.155
 6642POPC   GL116537  43.923  38.456   8.855
 6642POPC   GL216538  43.958  38.564   8.855
 6642POPC   C1A16539  43.880  38.499   8.555
 6642POPC   D2A16540  43.844  38.432   8.255
 6642POPC   C3A16541  43.837  38.407   7.955
 6642POPC   C4A16542  43.930  38.480   7.655
 6642POPC   C1B16543  43.978  38.645   8.555
 6642POPC   C2B16544  43.972  38.681   8.255
 6642POPC   C3B16545  43.998  38.692   7.955
 6642POPC   C4B16546  43.981  38.652   7.655
 6643POPC   NC316547  31.455  43.117   9.455
 6643POPC   PO416548  31.503  43.118   9.155
 6643POPC   GL116549  31.497  43.061   8.855
 6643POPC   GL216550  31.476  43.211   8.855
 6643POPC   C1A16551  31.492  43.151   8.555
 6643POPC   D2A16552  31.434  43.160   8.255
 6643POPC   C3A16553  31.426  43.148   7.955
 6643POPC   C4A16554  31.434  43.078   7.655
 6643POPC   C1B16555  31.572  43.315   8.555
 6643POPC   C2B16556  31.616  43.346   8.255
 6643POPC   C3B16557  31.571  43.320   7.955
 6643POPC   C4B16558  31.541  43.348   7.655
 6644POPC   NC316559  26.816   6.603   9.455
 6644POPC   PO416560  26.787   6.616   9.155
 6644POPC   GL116561  26.827   6.680   8.855
 6644POPC   GL216562  26.879   6.695   8.855
 6644POPC   C1A16563  26.842   6.631   8.555
 6644POPC   D2A16564  26.769   6.600   8.255
 6644POPC   C3A16565  26.824   6.676   7.955
 6644POPC   C4A16566  26.775   6.617   7.655
 6644POPC   C1B16567  27.029   6.841   8.555
 6644POPC   C2B16568  27.007   6.831   8.255
 6644POPC   C3B16569  27.045   6.821   7.955
 6644POPC   C4B16570  27.024   6.805   7.655
 6645POPC   NC316571  17.463  41.598   9.455
 6645POPC   PO416572  17.497  41.543   9.155
 6645POPC   GL116573  17.470  41.544   8.855
 6645POPC   GL216574  17.364  41.578   8.855
 6645POPC   C1A16575  17.464  41.604   8.555
 6645POPC   D2A16576  17.492  41.533   8.255
 6645POPC   C3A16577  17.495  41.517   7.955
 6645POPC   C4A16578  17.457  41.519   7.655
 6645POPC   C1B16579  17.304  41.531   8.555
 6645POPC   C2B16580  17.215  41.532   8.255
 6645POPC   C3B16581  17.293  41.548   7.955
 6645POPC   C4B16582  17.299  41.540   7.655
 6646POPC   NC316583  25.228  43.845   9.455
 6646POPC   PO416584  25.299  43.920   9.155
 6646POPC   GL116585  25.315  43.881   8.855
 6646POPC   GL216586  25.396  43.840   8.855
 6646POPC   C1A16587  25.257  43.905   8.555
 6646POPC   D2A16588  25.248  43.873   8.255
 6646POPC   C3A16589  25.264  43.884   7.955
 6646POPC   C4A16590  25.296  43.916   7.655
 6646POPC   C1B16591  25.490  43.691   8.555
 6646POPC   C2B16592  25.419  43.717   8.255
 6646POPC   C3B16593  25.421  43.742   7.955
 6646POPC   C4B16594  25.466  43.763   7.655
 6647POPC   NC316595   5.124  44.709   9.455
 6647POPC   PO416596   5.086  44.645   9.155
 6647POPC   GL116597   5.074  44.626   8.855
 6647POPC   GL216598   5.122  44.769   8.855
 6647POPC   C1A16599   5.076  44.626   8.555
 6647POPC   D2A16600   5.084  44.703   8.255
 6647POPC   C3A16601   5.045  44.641   7.955
 6647POPC   C4A16602   5.120  44.668   7.655
 6647POPC   C1B16603   5.192  44.931   8.555
 6647POPC   C2B16604   5.259  44.897   8.255
 6647POPC   C3B16605   5.256  44.911   7.955
 6647POPC   C4B16606   5.240  44.844   7.655
 6648POPC   NC316607  10.495  42.368   9.455
 6648POPC   PO416608  10.517  42.316   9.155
 6648POPC   GL116609  10.493  42.356   8.855
 6648POPC   GL216610  10.562  42.192   8.855
 6648POPC   C1A16611  10.529  42.286   8.555
 6648POPC   D2A16612  10.484  42.349   8.255
 6648POPC   C3A16613  10.503  42.369   7.955
 6648POPC   C4A16614  10.517  42.365   7.655
 6648POPC   C1B16615  10.535  42.076   8.555
 6648POPC   C2B16616  10.515  42.092   8.255
 6648POPC   C3B16617  10.512  42.045   7.955
 6648POPC   C4B16618  10.495  42.077   7.655
 6649POPC   NC316619  39.200  26.024   9.455
 6649POPC   PO416620  39.280  26.080   9.155
 6649POPC   GL116621  39.271  26.039   8.855
 6649POPC   GL216622  39.294  25.975   8.855
 6649POPC   C1A16623  39.227  26.009   8.555
 6649POPC   D2A16624  39.198  26.071   8.255
 6649POPC   C3A16625  39.250  26.001   7.955
 6649POPC   C4A16626  39.270  26.006   7.655
 6649POPC   C1B16627  39.363  25.793   8.555
 6649POPC   C2B16628  39.348  25.829   8.255
 6649POPC   C3B16629  39.343  25.763   7.955
 6649POPC   C4B16630  39.310  25.799   7.655
 6650POPC   NC316631  21.370  33.818   9.455
 6650POPC   PO416632  21.390  33.791   9.155
 6650POPC   GL116633  21.405  33.824   8.855
 6650POPC   GL216634  21.289  33.778   8.855
 6650POPC   C1A16635  21.411  33.812   8.555
 6650POPC   D2A16636  21.354  33.831   8.255
 6650POPC   C3A16637  21.357  33.752   7.955
 6650POPC   C4A16638  21.374  33.777   7.655
 6650POPC   C1B16639  21.102  33.747   8.555
 6650POPC   C2B16640  21.153  33.760   8.255
 6650POPC   C3B16641  21.172  33.827   7.955
 6650POPC   C4B16642  21.087  33.805   7.655
 6651POPC   NC316643  35.330  30.693   9.455
 6651POPC   PO416644  35.314  30.698   9.155
 6651POPC   GL116645  35.369  30.662   8.855
 6651POPC   GL216646  35.220  30.626   8.855
 6651POPC   C1A16647  35.321  30.723   8.555
 6651POPC   D2A16648  35.372  30.651   8.255
 6651POPC   C3A16649  35.336  30.722   7.955
 6651POPC   C4A16650  35.311  30.694   7.655
 6651POPC   C1B16651  35.155  30.636   8.555
 6651POPC   C2B16652  35.077  30.655   8.255
 6651POPC   C3B16653  35.110  30.655   7.955
 6651POPC   C4B16654  35.062  30.657   7.655
 6652POPC   NC316655   5.829  43.123   9.455
 6652POPC   PO416656   5.868  43.149   9.155
 6652POPC   GL116657   5.852  43.132   8.855
 6652POPC   GL216658   5.972  43.194   8.855
 6652POPC   C1A16659   5.899  43.118   8.555
 6652POPC   D2A16660   5.904  43.109   8.255
 6652POPC   C3A16661   5.839  43.144   7.955
 6652POPC   C4A16662   5.889  43.116   7.655
 6652POPC   C1B16663   6.106  43.225   8.555
 6652POPC   C2B16664   6.100  43.217   8.255
 6652POPC   C3B16665   6.100  43.267   7.955
 6652POPC   C4B16666   6.142  43.244   7.655
 6653POPC   NC316667  22.188  40.025   9.455
 6653POPC   PO416668  22.192  40.010   9.155
 6653POPC   GL116669  22.135  40.009   8.855
 6653POPC   GL216670  22.081  40.077   8.855
 6653POPC   C1A16671  22.112  40.004   8.555
 6653POPC   D2A16672  22.170  39.971   8.255
 6653POPC   C3A16673  22.209  40.054   7.955
 6653POPC   C4A16674  22.180  40.016   7.655
 6653POPC   C1B16675  21.962  40.249   8.555
 6653POPC   C2B16676  21.982  40.202   8.255
 6653POPC   C3B16677  22.022  40.217   7.955
 6653POPC   C4B16678  21.999  40.187   7.655
 6654POPC   NC316679  33.000   7.388   9.455
 6654POPC   PO416680  33.050   7.468   9.155
 6654POPC   GL116681  33.049   7.422   8.855
 6654POPC   GL216682  33.107   7.371   8.855
 6654POPC   C1A16683  33.041   7.439   8.555
 6654POPC   D2A16684  32.980   7.425   8.255
 6654POPC   C3A16685  32.983   7.377   7.955
 6654POPC   C4A16686  33.025   7.416   7.655
 6654POPC   C1B16687  33.253   7.239   8.555
 6654POPC   C2B16688  33.222   7.256   8.255
 6654POPC   C3B16689  33.241   7.202   7.955
 6654POPC   C4B16690  33.201   7.246   7.655
 6655POPC   NC316691  43.126   9.739   9.455
 6655POPC   PO416692  43.128   9.728   9.155
 6655POPC   GL116693  43.077   9.731   8.855
 6655POPC   GL216694  42.965   9.671   8.855
 6655POPC   C1A16695  43.142   9.782   8.555
 6655POPC   D2A16696  43.126   9.704   8.255
 6655POPC   C3A16697  43.068   9.745   7.955
 6655POPC   C4A16698  43.083   9.725   7.655
 6655POPC   C1B16699  42.887   9.699   8.555
 6655POPC   C2B16700  42.892   9.677   8.255
 6655POPC   C3B16701  42.844   9.711   7.955
 6655POPC   C4B16702  42.864   9.732   7.655
 6656POPC   NC316703   0.398   0.392   9.455
 6656POPC   PO416704   0.395   0.439   9.155
 6656POPC   GL116705   0.481   0.415   8.855
 6656POPC   GL216706   0.306   0.400   8.855
 6656POPC   C1A16707   0.434   0.469   8.555
 6656POPC   D2A16708   0.431   0.475   8.255
 6656POPC   C3A16709   0.477   0.444   7.955
 6656POPC   C4A16710   0.388   0.447   7.655
 6656POPC   C1B16711   0.225   0.284   8.555
 6656POPC   C2B16712   0.192   0.321   8.255
 6656POPC   C3B16713   0.172   0.337   7.955
 6656POPC   C4B16714   0.172   0.318   7.655
 6657POPC   NC316715  13.648  42.286   9.455
 6657POPC   PO416716  13.581  42.294   9.155
 6657POPC   GL116717  13.610  42.295   8.855
 6657POPC   GL216718  13.573  42.480   8.855
 6657POPC   C1A16719  13.586  42.348   8.555
 6657POPC   D2A16720  13.649  42.358   8.255
 6657POPC   C3A16721  13.636  42.335   7.955
 6657POPC   C4A16722  13.666  42.296   7.655
 6657POPC   C1B16723  13.455  42.582   8.555
 6657POPC   C2B16724  13.484  42.508   8.255
 6657POPC   C3B16725  13.521  42.511   7.955
 6657POPC   C4B16726  13.436  42.574   7.655
 6658POPC   NC316727  19.827  29.149   9.455
 6658POPC   PO416728  19.809  29.160   9.155
 6658POPC   GL116729  19.868  29.132   8.855
 6658POPC   GL216730  19.948  29.117   8.855
 6658POPC   C1A16731  19.837  29.174   8.555
 6658POPC   D2A16732  19.864  29.116   8.255
 6658POPC   C3A16733  19.796  29.148   7.955
 6658POPC   C4A16734  19.797  29.158   7.655
 6658POPC   C1B16735  20.021  29.015   8.555
 6658POPC   C2B16736  20.094  29.063   8.255
 6658POPC   C3B16737  20.067  29.026   7.955
 6658POPC   C4B16738  20.044  29.011   7.655
 6659POPC   NC316739  10.498  12.071   9.455
 6659POPC   PO416740  10.492  12.105   9.155
 6659POPC   GL116741  10.547  12.109   8.855
 6659POPC   GL216742  10.458  11.951   8.855
 6659POPC   C1A16743  10.478  12.087   8.555
 6659POPC   D2A16744  10.538  12.075   8.255
 6659POPC   C3A16745  10.509  12.123   7.955
 6659POPC   C4A16746  10.559  12.124   7.655
 6659POPC   C1B16747  10.327  11.872   8.555
 6659POPC   C2B16748  10.399  11.851   8.255
 6659POPC   C3B16749  10.419  11.863   7.955
 6659POPC   C4B16750  10.373  11.838   7.655
 6660POPC   NC316751  14.364   9.752   9.455
 6660POPC   PO416752  14.397   9.789   9.155
 6660POPC   GL116753  14.417   9.785   8.855
 6660POPC   GL216754  14.530   9.696   8.855
 6660POPC   C1A16755  14.429   9.753   8.555
 6660POPC   D2A16756  14.372   9.770   8.255
 6660POPC   C3A16757  14.441   9.798   7.955
 6660POPC   C4A16758  14.386   9.757   7.655
 6660POPC   C1B16759  14.660   9.745   8.555
 6660POPC   C2B16760  14.668   9.747   8.255
 6660POPC   C3B16761  14.665   9.763   7.955
 6660POPC   C4B16762  14.678   9.731   7.655
 6661POPC   NC316763  39.999  44.648   9.455
 6661POPC   PO416764  39.985  44.634   9.155
 6661POPC   GL116765  40.053  44.614   8.855
 6661POPC   GL216766  39.934  44.566   8.855
 6661POPC   C1A16767  40.001  44.668   8.555
 6661POPC   D2A16768  40.055  44.645   8.255
 6661POPC   C3A16769  40.012  44.635   7.955
 6661POPC   C4A16770  40.030  44.648   7.655
 6661POPC   C1B16771  39.882  44.467   8.555
 6661POPC   C2B16772  39.886  44.462   8.255
 6661POPC   C3B16773  39.897  44.417   7.955
 6661POPC   C4B16774  39.852  44.437   7.655
 6662POPC   NC316775  22.137  29.181   9.455
 6662POPC   PO416776  22.203  29.148   9.155
 6662POPC   GL116777  22.193  29.184   8.855
 6662POPC   GL216778  22.041  29.082   8.855
 6662POPC   C1A16779  22.190  29.131   8.555
 6662POPC   D2A16780  22.136  29.192   8.255
 6662POPC   C3A16781  22.190  29.126   7.955
 6662POPC   C4A16782  22.176  29.191   7.655
 6662POPC   C1B16783  22.022  28.957   8.555
 6662POPC   C2B16784  22.028  28.946   8.255
 6662POPC   C3B16785  21.968  28.966   7.955
 6662POPC   C4B16786  21.989  28.904   7.655
 6663POPC   NC316787  44.672  29.949   9.455
 6663POPC   PO416788  44.666  29.916   9.155
 6663POPC   GL116789  44.681  29.958   8.855
 6663POPC   GL216790  44.745  29.861   8.855
 6663POPC   C1A16791  44.623  29.952   8.555
 6663POPC   D2A16792  44.656  29.909   8.255
 6663POPC   C3A16793  44.665  29.904   7.955
 6663POPC   C4A16794  44.667  29.873   7.655
 6663POPC   C1B16795  44.876  29.827   8.555
 6663POPC   C2B16796  44.863  29.766   8.255
 6663POPC   C3B16797  44.830  29.818   7.955
 6663POPC   C4B16798  44.855  29.788   7.655
 6664POPC   NC316799   5.821   3.587   9.455
 6664POPC   PO416800   5.872   3.584   9.155
 6664POPC   GL116801   5.833   3.513   8.855
 6664POPC   GL216802   5.835   3.405   8.855
 6664POPC   C1A16803   5.885   3.546   8.555
 6664POPC   D2A16804   5.821   3.564   8.255
 6664POPC   C3A16805   5.856   3.572   7.955
 6664POPC   C4A16806   5.897   3.569   7.655
 6664POPC   C1B16807   5.780   3.332   8.555
 6664POPC   C2B16808   5.729   3.277   8.255
 6664POPC   C3B16809   5.726   3.340   7.955
 6664POPC   C4B16810   5.780   3.302   7.655
 6665POPC   NC316811   5.055  14.392   9.455
 6665POPC   PO416812   5.142  14.406   9.155
 6665POPC   GL116813   5.115  14.400   8.855
 6665POPC   GL216814   5.130  14.290   8.855
 6665POPC   C1A16815   5.080  14.379   8.555
 6665POPC   D2A16816   5.103  14.358   8.255
 6665POPC   C3A16817   5.132  14.381   7.955
 6665POPC   C4A16818   5.047  14.422   7.655
 6665POPC   C1B16819   5.244  14.170   8.555
 6665POPC   C2B16820   5.171  14.164   8.255
 6665POPC   C3B16821   5.205  14.167   7.955
 6665POPC   C4B16822   5.218  14.142   7.655
 6666POPC   NC316823  12.032  44.641   9.455
 6666POPC   PO416824  12.093  44.629   9.155
 6666POPC   GL116825  12.029  44.643   8.855
 6666POPC   GL216826  12.113  44.518   8.855
 6666POPC   C1A16827  12.063  44.636   8.555
 6666POPC   D2A16828  12.125  44.648   8.255
 6666POPC   C3A16829  12.046  44.658   7.955
 6666POPC   C4A16830  12.033  44.626   7.655
 6666POPC   C1B16831  12.131  44.381   8.555
 6666POPC   C2B16832  12.106  44.465   8.255
 6666POPC   C3B16833  12.139  44.458   7.955
 6666POPC   C4B16834  12.081  44.390   7.655
 6667POPC   NC316835  22.945  26.793   9.455
 6667POPC   PO416836  22.891  26.846   9.155
 6667POPC   GL116837  22.893  26.862   8.855
 6667POPC   GL216838  22.906  26.717   8.855
 6667POPC   C1A16839  22.939  26.779   8.555
 6667POPC   D2A16840  22.941  26.811   8.255
 6667POPC   C3A16841  22.898  26.784   7.955
 6667POPC   C4A16842  22.927  26.811   7.655
 6667POPC   C1B16843  22.814  26.568   8.555
 6667POPC   C2B16844  22.812  26.636   8.255
 6667POPC   C3B16845  22.773  26.563   7.955
 6667POPC   C4B16846  22.825  26.608   7.655
 6668POPC   NC316847   1.190  42.295   9.455
 6668POPC   PO416848   1.195  42.357   9.155
 6668POPC   GL116849   1.214  42.300   8.855
 6668POPC   GL216850   1.138  42.290   8.855
 6668POPC   C1A16851   1.216  42.311   8.555
 6668POPC   D2A16852   1.263  42.353   8.255
 6668POPC   C3A16853   1.244  42.372   7.955
 6668POPC   C4A16854   1.258  42.318   7.655
 6668POPC   C1B16855   1.003  42.250   8.555
 6668POPC   C2B16856   0.919  42.255   8.255
 6668POPC   C3B16857   0.951  42.278   7.955
 6668POPC   C4B16858   0.984  42.307   7.655
 6669POPC   NC316859   3.501  30.702   9.455
 6669POPC   PO416860   3.537  30.720   9.155
 6669POPC   GL116861   3.565  30.676   8.855
 6669POPC   GL216862   3.538  30.602   8.855
 6669POPC   C1A16863   3.541  30.649   8.555
 6669POPC   D2A16864   3.493  30.736   8.255
 6669POPC   C3A16865   3.550  30.728   7.955
 6669POPC   C4A16866   3.500  30.725   7.655
 6669POPC   C1B16867   3.635  30.421   8.555
 6669POPC   C2B16868   3.623  30.451   8.255
 6669POPC   C3B16869   3.620  30.450   7.955
 6669POPC   C4B16870   3.631  30.474   7.655
 6670POPC   NC316871  25.311  24.508   9.455
 6670POPC   PO416872  25.246  24.468   9.155
 6670POPC   GL116873  25.286  24.457   8.855
 6670POPC   GL216874  25.360  24.502   8.855
 6670POPC   C1A16875  25.232  24.485   8.555
 6670POPC   D2A16876  25.222  24.483   8.255
 6670POPC   C3A16877  25.240  24.517   7.955
 6670POPC   C4A16878  25.251  24.443   7.655
 6670POPC   C1B16879  25.546  24.464   8.555
 6670POPC   C2B16880  25.495  24.460   8.255
 6670POPC   C3B16881  25.558  24.445   7.955
 6670POPC   C4B16882  25.484  24.477   7.655
 6671POPC   NC316883  32.997  36.138   9.455
 6671POPC   PO416884  33.040  36.123   9.155
 6671POPC   GL116885  32.996  36.093   8.855
 6671POPC   GL216886  32.998  36.217   8.855
 6671POPC   C1A16887  33.054  36.103   8.555
 6671POPC   D2A16888  33.056  36.144   8.255
 6671POPC   C3A16889  32.998  36.089   7.955
 6671POPC   C4A16890  33.066  36.094   7.655
 6671POPC   C1B16891  32.961  36.353   8.555
 6671POPC   C2B16892  32.934  36.395   8.255
 6671POPC   C3B16893  32.947  36.409   7.955
 6671POPC   C4B16894  32.975  36.337   7.655
 6672POPC   NC316895  22.924   5.842   9.455
 6672POPC   PO416896  22.968   5.919   9.155
 6672POPC   GL116897  22.954   5.907   8.855
 6672POPC   GL216898  23.010   5.744   8.855
 6672POPC   C1A16899  22.940   5.879   8.555
 6672POPC   D2A16900  22.982   5.882   8.255
 6672POPC   C3A16901  22.894   5.918   7.955
 6672POPC   C4A16902  22.911   5.851   7.655
 6672POPC   C1B16903  23.059   5.602   8.555
 6672POPC   C2B16904  23.010   5.653   8.255
 6672POPC   C3B16905  23.023   5.612   7.955
 6672POPC   C4B16906  23.066   5.631   7.655
 6673POPC   NC316907   8.996   7.393   9.455
 6673POPC   PO416908   8.925   7.449   9.155
 6673POPC   GL116909   9.019   7.452   8.855
 6673POPC   GL216910   8.994   7.572   8.855
 6673POPC   C1A16911   8.934   7.374   8.555
 6673POPC   D2A16912   8.980   7.442   8.255
 6673POPC   C3A16913   8.952   7.460   7.955
 6673POPC   C4A16914   9.016   7.429   7.655
 6673POPC   C1B16915   8.946   7.712   8.555
 6673POPC   C2B16916   8.925   7.692   8.255
 6673POPC   C3B16917   8.982   7.719   7.955
 6673POPC   C4B16918   8.957   7.634   7.655
 6674POPC   NC316919   6.666  14.406   9.455
 6674POPC   PO416920   6.600  14.376   9.155
 6674POPC   GL116921   6.613  14.425   8.855
 6674POPC   GL216922   6.560  14.291   8.855
 6674POPC   C1A16923   6.646  14.442   8.555
 6674POPC   D2A16924   6.637  14.410   8.255
 6674POPC   C3A16925   6.646  14.445   7.955
 6674POPC   C4A16926   6.689  14.403   7.655
 6674POPC   C1B16927   6.614  14.204   8.555
 6674POPC   C2B16928   6.573  14.164   8.255
 6674POPC   C3B16929   6.559  14.213   7.955
 6674POPC   C4B16930   6.602  14.142   7.655
 6675POPC   NC316931   4.310  39.195   9.455
 6675POPC   PO416932   4.299  39.234   9.155
 6675POPC   GL116933   4.330  39.245   8.855
 6675POPC   GL216934   4.459  39.258   8.855
 6675POPC   C1A16935   4.352  39.259   8.555
 6675POPC   D2A16936   4.341  39.225   8.255
 6675POPC   C3A16937   4.331  39.223   7.955
 6675POPC   C4A16938   4.365  39.187   7.655
 6675POPC   C1B16939   4.536  39.229   8.555
 6675POPC   C2B16940   4.574  39.182   8.255
 6675POPC   C3B16941   4.587  39.190   7.955
 6675POPC   C4B16942   4.528  39.243   7.655
 6676POPC   NC316943  26.821   2.746   9.455
 6676POPC   PO416944  26.812   2.795   9.155
 6676POPC   GL116945  26.843   2.725   8.855
 6676POPC   GL216946  26.681   2.824   8.855
 6676POPC   C1A16947  26.857   2.765   8.555
 6676POPC   D2A16948  26.852   2.781   8.255
 6676POPC   C3A16949  26.842   2.746   7.955
 6676POPC   C4A16950  26.815   2.794   7.655
 6676POPC   C1B16951  26.686   2.945   8.555
 6676POPC   C2B16952  26.659   2.995   8.255
 6676POPC   C3B16953  26.675   2.985   7.955
 6676POPC   C4B16954  26.657   2.980   7.655
 6677POPC   NC316955  25.256  32.984   9.455
 6677POPC   PO416956  25.252  32.979   9.155
 6677POPC   GL116957  25.231  33.004   8.855
 6677POPC   GL216958  25.179  33.020   8.855
 6677POPC   C1A16959  25.276  33.056   8.555
 6677POPC   D2A16960  25.242  33.054   8.255
 6677POPC   C3A16961  25.300  32.977   7.955
 6677POPC   C4A16962  25.263  33.060   7.655
 6677POPC   C1B16963  24.976  33.093   8.555
 6677POPC   C2B16964  25.068  33.036   8.255
 6677POPC   C3B16965  25.037  33.050   7.955
 6677POPC   C4B16966  25.039  33.128   7.655
 6678POPC   NC316967  20.632  14.412   9.455
 6678POPC   PO416968  20.605  14.407   9.155
 6678POPC   GL116969  20.568  14.450   8.855
 6678POPC   GL216970  20.550  14.544   8.855
 6678POPC   C1A16971  20.605  14.436   8.555
 6678POPC   D2A16972  20.640  14.363   8.255
 6678POPC   C3A16973  20.619  14.446   7.955
 6678POPC   C4A16974  20.659  14.354   7.655
 6678POPC   C1B16975  20.574  14.644   8.555
 6678POPC   C2B16976  20.570  14.595   8.255
 6678POPC   C3B16977  20.525  14.682   7.955
 6678POPC   C4B16978  20.557  14.632   7.655
 6679POPC   NC316979  17.518  25.225   9.455
 6679POPC   PO416980  17.525  25.241   9.155
 6679POPC   GL116981  17.547  25.253   8.855
 6679POPC   GL216982  17.439  25.366   8.855
 6679POPC   C1A16983  17.526  25.222   8.555
 6679POPC   D2A16984  17.518  25.278   8.255
 6679POPC   C3A16985  17.467  25.292   7.955
 6679POPC   C4A16986  17.519  25.305   7.655
 6679POPC   C1B16987  17.284  25.450   8.555
 6679POPC   C2B16988  17.252  25.449   8.255
 6679POPC   C3B16989  17.302  25.402   7.955
 6679POPC   C4B16990  17.341  25.385   7.655
 6680POPC   NC316991   9.785  43.903   9.455
 6680POPC   PO416992   9.706  43.933   9.155
 6680POPC   GL116993   9.724  43.857   8.855
 6680POPC   GL216994   9.720  43.988   8.855
 6680POPC   C1A16995   9.739  43.928   8.555
 6680POPC   D2A16996   9.767  43.901   8.255
 6680POPC   C3A16997   9.765  43.858   7.955
 6680POPC   C4A16998   9.725  43.930   7.655
 6680POPC   C1B16999   9.676  44.131   8.555
 6680POPC   C2B17000   9.627  44.169   8.255
 6680POPC   C3B17001   9.705  44.111   7.955
 6680POPC   C4B17002   9.659  44.148   7.655
 6681POPC   NC317003  13.588   8.937   9.455
 6681POPC   PO417004  13.654   8.926   9.155
 6681POPC   GL117005  13.653   8.964   8.855
 6681POPC   GL217006  13.563   9.109   8.855
 6681POPC   C1A17007  13.589   9.016   8.555
 6681POPC   D2A17008  13.642   8.944   8.255
 6681POPC   C3A17009  13.589   9.021   7.955
 6681POPC   C4A17010  13.666   8.959   7.655
 6681POPC   C1B17011  13.515   9.160   8.555
 6681POPC   C2B17012  13.442   9.144   8.255
 6681POPC   C3B17013  13.494   9.175   7.955
 6681POPC   C4B17014  13.466   9.177   7.655
 6682POPC   NC317015  11.321  12.078   9.455
 6682POPC   PO417016  11.326  12.050   9.155
 6682POPC   GL117017  11.273  12.115   8.855
 6682POPC   GL217018  11.376  12.196   8.855
 6682POPC   C1A17019  11.297  12.105   8.555
 6682POPC   D2A17020  11.304  12.117   8.255
 6682POPC   C3A17021  11.289  12.104   7.955
 6682POPC   C4A17022  11.322  12.045   7.655
 6682POPC   C1B17023  11.440  12.193   8.555
 6682POPC   C2B17024  11.483  12.229   8.255
 6682POPC   C3B17025  11.522  12.212   7.955
 6682POPC   C4B17026  11.502  12.214   7.655
 6683POPC   NC317027  21.381   6.598   9.455
 6683POPC   PO417028  21.394   6.675   9.155
 6683POPC   GL117029  21.347   6.595   8.855
 6683POPC   GL217030  21.268   6.663   8.855
 6683POPC   C1A17031  21.425   6.642   8.555
 6683POPC   D2A17032  21.395   6.601   8.255
 6683POPC   C3A17033  21.347   6.605   7.955
 6683POPC   C4A17034  21.337   6.627   7.655
 6683POPC   C1B17035  21.113   6.562   8.555
 6683POPC   C2B17036  21.119   6.629   8.255
 6683POPC   C3B17037  21.134   6.566   7.955
 6683POPC   C4B17038  21.098   6.534   7.655
 6684POPC   NC317039  39.258   0.481   9.455
 6684POPC   PO417040  39.205   0.399   9.155
 6684POPC   GL117041  39.263   0.456   8.855
 6684POPC   GL217042  39.176   0.601   8.855
 6684POPC   C1A17043  39.236   0.456   8.555
 6684POPC   D2A17044  39.206   0.441   8.255
 6684POPC   C3A17045  39.211   0.476   7.955
 6684POPC   C4A17046  39.242   0.395   7.655
 6684POPC   C1B17047  39.140   0.692   8.555
 6684POPC   C2B17048  39.126   0.714   8.255
 6684POPC   C3B17049  39.148   0.644   7.955
 6684POPC   C4B17050  39.134   0.696   7.655
 6685POPC   NC317051   2.771  39.259   9.455
 6685POPC   PO417052   2.742  39.252   9.155
 6685POPC   GL117053   2.792  39.243   8.855
 6685POPC   GL217054   2.701  39.308   8.855
 6685POPC   C1A17055   2.766  39.205   8.555
 6685POPC   D2A17056   2.727  39.230   8.255
 6685POPC   C3A17057   2.770  39.189   7.955
 6685POPC   C4A17058   2.780  39.273   7.655
 6685POPC   C1B17059   2.584  39.331   8.555
 6685POPC   C2B17060   2.547  39.338   8.255
 6685POPC   C3B17061   2.574  39.302   7.955
 6685POPC   C4B17062   2.532  39.364   7.655
 6686POPC   NC317063  13.660  24.474   9.455
 6686POPC   PO417064  13.635  24.537   9.155
 6686POPC   GL117065  13.609  24.522   8.855
 6686POPC   GL217066  13.633  24.354   8.855
 6686POPC   C1A17067  13.601  24.516   8.555
 6686POPC   D2A17068  13.666  24.520   8.255
 6686POPC   C3A17069  13.599  24.449   7.955
 6686POPC   C4A17070  13.670  24.451   7.655
 6686POPC   C1B17071  13.738  24.279   8.555
 6686POPC   C2B17072  13.701  24.304   8.255
 6686POPC   C3B17073  13.681  24.248   7.955
 6686POPC   C4B17074  13.701  24.247   7.655
 6687POPC   NC317075  26.018  38.499   9.455
 6687POPC   PO417076  26.046  38.470   9.155
 6687POPC   GL117077  26.009  38.451   8.855
 6687POPC   GL217078  25.902  38.476   8.855
 6687POPC   C1A17079  26.028  38.416   8.555
 6687POPC   D2A17080  26.030  38.422   8.255
 6687POPC   C3A17081  26.050  38.412   7.955
 6687POPC   C4A17082  26.083  38.435   7.655
 6687POPC   C1B17083  25.806  38.526   8.555
 6687POPC   C2B17084  25.822  38.575   8.255
 6687POPC   C3B17085  25.846  38.592   7.955
 6687POPC   C4B17086  25.840  38.573   7.655
 6688POPC   NC317087  19.050  14.409   9.455
 6688POPC   PO417088  19.012  14.371   9.155
 6688POPC   GL117089  19.035  14.361   8.855
 6688POPC   GL217090  19.211  14.404   8.855
 6688POPC   C1A17091  19.040  14.393   8.555
 6688POPC   D2A17092  19.088  14.388   8.255
 6688POPC   C3A17093  19.103  14.381   7.955
 6688POPC   C4A17094  19.100  14.397   7.655
 6688POPC   C1B17095  19.340  14.390   8.555
 6688POPC   C2B17096  19.319  14.367   8.255
 6688POPC   C3B17097  19.347  14.399   7.955
 6688POPC   C4B17098  19.321  14.408   7.655
 6689POPC   NC317099   4.304  38.462   9.455
 6689POPC   PO417100   4.361  38.485   9.155
 6689POPC   GL117101   4.297  38.470   8.855
 6689POPC   GL217102   4.468  38.564   8.855
 6689POPC   C1A17103   4.358  38.463   8.555
 6689POPC   D2A17104   4.338  38.415   8.255
 6689POPC   C3A17105   4.320  38.489   7.955
 6689POPC   C4A17106   4.359  38.473   7.655
 6689POPC   C1B17107   4.485  38.555   8.555
 6689POPC   C2B17108   4.581  38.604   8.255
 6689POPC   C3B17109   4.554  38.587   7.955
 6689POPC   C4B17110   4.574  38.586   7.655
 6690POPC   NC317111  15.985   4.283   9.455
 6690POPC   PO417112  15.938   4.337   9.155
 6690POPC   GL117113  15.992   4.273   8.855
 6690POPC   GL217114  15.831   4.392   8.855
 6690POPC   C1A17115  15.963   4.315   8.555
 6690POPC   D2A17116  15.975   4.269   8.255
 6690POPC   C3A17117  15.975   4.298   7.955
 6690POPC   C4A17118  15.959   4.359   7.655
 6690POPC   C1B17119  15.705   4.396   8.555
 6690POPC   C2B17120  15.750   4.418   8.255
 6690POPC   C3B17121  15.761   4.397   7.955
 6690POPC   C4B17122  15.717   4.367   7.655
 6691POPC   NC317123  42.323  30.702   9.455
 6691POPC   PO417124  42.313  30.705   9.155
 6691POPC   GL117125  42.358  30.728   8.855
 6691POPC   GL217126  42.356  30.569   8.855
 6691POPC   C1A17127  42.288  30.676   8.555
 6691POPC   D2A17128  42.289  30.702   8.255
 6691POPC   C3A17129  42.328  30.659   7.955
 6691POPC   C4A17130  42.378  30.684   7.655
 6691POPC   C1B17131  42.468  30.528   8.555
 6691POPC   C2B17132  42.450  30.464   8.255
 6691POPC   C3B17133  42.446  30.486   7.955
 6691POPC   C4B17134  42.441  30.534   7.655
 6692POPC   NC317135  39.262  22.181   9.455
 6692POPC   PO417136  39.244  22.180   9.155
 6692POPC   GL117137  39.268  22.140   8.855
 6692POPC   GL217138  39.297  22.009   8.855
 6692POPC   C1A17139  39.206  22.170   8.555
 6692POPC   D2A17140  39.270  22.185   8.255
 6692POPC   C3A17141  39.240  22.188   7.955
 6692POPC   C4A17142  39.268  22.131   7.655
 6692POPC   C1B17143  39.391  21.908   8.555
 6692POPC   C2B17144  39.355  21.946   8.255
 6692POPC   C3B17145  39.378  21.911   7.955
 6692POPC   C4B17146  39.385  21.914   7.655
 6693POPC   NC317147  29.191   9.758   9.455
 6693POPC   PO417148  29.112   9.723   9.155
 6693POPC   GL117149  29.169   9.747   8.855
 6693POPC   GL217150  29.185   9.897   8.855
 6693POPC   C1A17151  29.124   9.755   8.555
 6693POPC   D2A17152  29.177   9.746   8.255
 6693POPC   C3A17153  29.138   9.731   7.955
 6693POPC   C4A17154  29.158   9.770   7.655
 6693POPC   C1B17155  29.142   9.990   8.555
 6693POPC   C2B17156  29.152  10.046   8.255
 6693POPC   C3B17157  29.115  10.027   7.955
 6693POPC   C4B17158  29.159  10.042   7.655
 6694POPC   NC317159  15.185  12.045   9.455
 6694POPC   PO417160  15.171  12.113   9.155
 6694POPC   GL117161  15.215  12.035   8.855
 6694POPC   GL217162  15.056  12.013   8.855
 6694POPC   C1A17163  15.153  12.112   8.555
 6694POPC   D2A17164  15.153  12.099   8.255
 6694POPC   C3A17165  15.207  12.028   7.955
 6694POPC   C4A17166  15.200  12.071   7.655
 6694POPC   C1B17167  15.006  11.935   8.555
 6694POPC   C2B17168  15.003  11.992   8.255
 6694POPC   C3B17169  14.976  11.992   7.955
 6694POPC   C4B17170  14.968  11.931   7.655
 6695POPC   NC317171  30.694   5.864   9.455
 6695POPC   PO417172  30.647   5.836   9.155
 6695POPC   GL117173  30.690   5.830   8.855
 6695POPC   GL217174  30.635   5.911   8.855
 6695POPC   C1A17175  30.729   5.903   8.555
 6695POPC   D2A17176  30.706   5.831   8.255
 6695POPC   C3A17177  30.726   5.858   7.955
 6695POPC   C4A17178  30.733   5.853   7.655
 6695POPC   C1B17179  30.464   6.013   8.555
 6695POPC   C2B17180  30.551   5.997   8.255
 6695POPC   C3B17181  30.496   5.995   7.955
 6695POPC   C4B17182  30.487   6.006   7.655
 6696POPC   NC317183   7.441  37.691   9.455
 6696POPC   PO417184   7.386  37.669   9.155
 6696POPC   GL117185   7.436  37.673   8.855
 6696POPC   GL217186   7.550  37.745   8.855
 6696POPC   C1A17187   7.463  37.665   8.555
 6696POPC   D2A17188   7.450  37.633   8.255
 6696POPC   C3A17189   7.376  37.664   7.955
 6696POPC   C4A17190   7.410  37.638   7.655
 6696POPC   C1B17191   7.654  37.820   8.555
 6696POPC   C2B17192   7.685  37.793   8.255
 6696POPC   C3B17193   7.669  37.794   7.955
 6696POPC   C4B17194   7.660  37.777   7.655
 6697POPC   NC317195   3.570   5.118   9.455
 6697POPC   PO417196   3.548   5.139   9.155
 6697POPC   GL117197   3.527   5.127   8.855
 6697POPC   GL217198   3.422   5.138   8.855
 6697POPC   C1A17199   3.509   5.070   8.555
 6697POPC   D2A17200   3.518   5.060   8.255
 6697POPC   C3A17201   3.572   5.119   7.955
 6697POPC   C4A17202   3.569   5.085   7.655
 6697POPC   C1B17203   3.299   5.077   8.555
 6697POPC   C2B17204   3.322   5.070   8.255
 6697POPC   C3B17205   3.298   5.062   7.955
 6697POPC   C4B17206   3.250   5.108   7.655
 6698POPC   NC317207  12.847  43.854   9.455
 6698POPC   PO417208  12.882  43.884   9.155
 6698POPC   GL117209  12.810  43.839   8.855
 6698POPC   GL217210  12.905  43.930   8.855
 6698POPC   C1A17211  12.898  43.930   8.555
 6698POPC   D2A17212  12.866  43.843   8.255
 6698POPC   C3A17213  12.874  43.875   7.955
 6698POPC   C4A17214  12.876  43.885   7.655
 6698POPC   C1B17215  13.027  44.105   8.555
 6698POPC   C2B17216  13.009  44.046   8.255
 6698POPC   C3B17217  13.046  44.044   7.955
 6698POPC   C4B17218  13.046  44.037   7.655
 6699POPC   NC317219  20.585  20.642   9.455
 6699POPC   PO417220  20.629  20.615   9.155
 6699POPC   GL117221  20.637  20.653   8.855
 6699POPC   GL217222  20.488  20.499   8.855
 6699POPC   C1A17223  20.581  20.620   8.555
 6699POPC   D2A17224  20.595  20.561   8.255
 6699POPC   C3A17225  20.602  20.627   7.955
 6699POPC   C4A17226  20.657  20.641   7.655
 6699POPC   C1B17227  20.420  20.494   8.555
 6699POPC   C2B17228  20.456  20.499   8.255
 6699POPC   C3B17229  20.395  20.424   7.955
 6699POPC   C4B17230  20.388  20.419   7.655
 6700POPC   NC317231   1.978  44.654   9.455
 6700POPC   PO417232   1.991  44.691   9.155
 6700POPC   GL117233   1.980  44.647   8.855
 6700POPC   GL217234   1.873  44.596   8.855
 6700POPC   C1A17235   1.990  44.701   8.555
 6700POPC   D2A17236   1.952  44.643   8.255
 6700POPC   C3A17237   1.954  44.612   7.955
 6700POPC   C4A17238   2.006  44.697   7.655
 6700POPC   C1B17239   1.817  44.478   8.555
 6700POPC   C2B17240   1.806  44.423   8.255
 6700POPC   C3B17241   1.866  44.511   7.955
 6700POPC   C4B17242   1.868  44.476   7.655
 6701POPC   NC317243  12.893   5.880   9.455
 6701POPC   PO417244  12.866   5.888   9.155
 6701POPC   GL117245  12.892   5.907   8.855
 6701POPC   GL217246  12.692   5.928   8.855
 6701POPC   C1A17247  12.839   5.894   8.555
 6701POPC   D2A17248  12.886   5.900   8.255
 6701POPC   C3A17249  12.880   5.864   7.955
 6701POPC   C4A17250  12.808   5.886   7.655
 6701POPC   C1B17251  12.602   5.944   8.555
 6701POPC   C2B17252  12.600   5.935   8.255
 6701POPC   C3B17253  12.677   5.995   7.955
 6701POPC   C4B17254  12.596   5.939   7.655
 6702POPC   NC317255  40.048  33.070   9.455
 6702POPC   PO417256  40.039  33.037   9.155
 6702POPC   GL117257  40.020  32.999   8.855
 6702POPC   GL217258  39.972  33.149   8.855
 6702POPC   C1A17259  39.979  33.062   8.555
 6702POPC   D2A17260  40.003  33.027   8.255
 6702POPC   C3A17261  40.052  33.059   7.955
 6702POPC   C4A17262  40.027  32.999   7.655
 6702POPC   C1B17263  39.800  33.172   8.555
 6702POPC   C2B17264  39.863  33.218   8.255
 6702POPC   C3B17265  39.845  33.185   7.955
 6702POPC   C4B17266  39.867  33.246   7.655
 6703POPC   NC317267  11.272  40.828   9.455
 6703POPC   PO417268  11.284  40.741   9.155
 6703POPC   GL117269  11.322  40.810   8.855
 6703POPC   GL217270  11.395  40.741   8.855
 6703POPC   C1A17271  11.304  40.736   8.555
 6703POPC   D2A17272  11.306  40.780   8.255
 6703POPC   C3A17273  11.313  40.818   7.955
 6703POPC   C4A17274  11.333  40.753   7.655
 6703POPC   C1B17275  11.510  40.583   8.555
 6703POPC   C2B17276  11.451  40.593   8.255
 6703POPC   C3B17277  11.447  40.576   7.955
 6703POPC   C4B17278  11.475  40.655   7.655
 6704POPC   NC317279  33.810  11.331   9.455
 6704POPC   PO417280  33.827  11.345   9.155
 6704POPC   GL117281  33.762  11.334   8.855
 6704POPC   GL217282  33.759  11.412   8.855
 6704POPC   C1A17283  33.774  11.310   8.555
 6704POPC   D2A17284  33.783  11.262   8.255
 6704POPC   C3A17285  33.758  11.288   7.955
 6704POPC   C4A17286  33.778  11.327   7.655
 6704POPC   C1B17287  33.679  11.517   8.555
 6704POPC   C2B17288  33.766  11.510   8.255
 6704POPC   C3B17289  33.757  11.584   7.955
 6704POPC   C4B17290  33.711  11.527   7.655
 6705POPC   NC317291  29.143   7.383   9.455
 6705POPC   PO417292  29.097   7.439   9.155
 6705POPC   GL117293  29.169   7.392   8.855
 6705POPC   GL217294  29.029   7.361   8.855
 6705POPC   C1A17295  29.192   7.380   8.555
 6705POPC   D2A17296  29.170   7.393   8.255
 6705POPC   C3A17297  29.119   7.402   7.955
 6705POPC   C4A17298  29.173   7.379   7.655
 6705POPC   C1B17299  28.916   7.375   8.555
 6705POPC   C2B17300  28.876   7.379   8.255
 6705POPC   C3B17301  28.853   7.417   7.955
 6705POPC   C4B17302  28.876   7.354   7.655
 6706POPC   NC317303  38.436  28.347   9.455
 6706POPC   PO417304  38.460  28.339   9.155
 6706POPC   GL117305  38.460  28.325   8.855
 6706POPC   GL217306  38.506  28.306   8.855
 6706POPC   C1A17307  38.429  28.349   8.555
 6706POPC   D2A17308  38.475  28.379   8.255
 6706POPC   C3A17309  38.486  28.340   7.955
 6706POPC   C4A17310  38.482  28.324   7.655
 6706POPC   C1B17311  38.661  28.155   8.555
 6706POPC   C2B17312  38.641  28.151   8.255
 6706POPC   C3B17313  38.636  28.204   7.955
 6706POPC   C4B17314  38.650  28.173   7.655
 6707POPC   NC317315  40.787   3.537   9.455
 6707POPC   PO417316  40.742   3.572   9.155
 6707POPC   GL117317  40.812   3.574   8.855
 6707POPC   GL217318  40.728   3.630   8.855
 6707POPC   C1A17319  40.798   3.509   8.555
 6707POPC   D2A17320  40.768   3.507   8.255
 6707POPC   C3A17321  40.747   3.501   7.955
 6707POPC   C4A17322  40.768   3.567   7.655
 6707POPC   C1B17323  40.612   3.728   8.555
 6707POPC   C2B17324  40.607   3.702   8.255
 6707POPC   C3B17325  40.546   3.652   7.955
 6707POPC   C4B17326  40.564   3.721   7.655
 6708POPC   NC317327  17.461  43.088   9.455
 6708POPC   PO417328  17.465  43.139   9.155
 6708POPC   GL117329  17.461  43.131   8.855
 6708POPC   GL217330  17.359  43.094   8.855
 6708POPC   C1A17331  17.486  43.087   8.555
 6708POPC   D2A17332  17.523  43.101   8.255
 6708POPC   C3A17333  17.548  43.112   7.955
 6708POPC   C4A17334  17.479  43.119   7.655
 6708POPC   C1B17335  17.342  42.968   8.555
 6708POPC   C2B17336  17.337  43.026   8.255
 6708POPC   C3B17337  17.287  42.989   7.955
 6708POPC   C4B17338  17.261  42.989   7.655
 6709POPC   NC317339   3.590  43.848   9.455
 6709POPC   PO417340   3.579  43.905   9.155
 6709POPC   GL117341   3.586  43.857   8.855
 6709POPC   GL217342   3.420  43.902   8.855
 6709POPC   C1A17343   3.589  43.862   8.555
 6709POPC   D2A17344   3.523  43.876   8.255
 6709POPC   C3A17345   3.580  43.858   7.955
 6709POPC   C4A17346   3.578  43.889   7.655
 6709POPC   C1B17347   3.352  43.987   8.555
 6709POPC   C2B17348   3.321  43.979   8.255
 6709POPC   C3B17349   3.293  44.042   7.955
 6709POPC   C4B17350   3.329  43.994   7.655
 6710POPC   NC317351   0.429   1.189   9.455
 6710POPC   PO417352   0.394   1.249   9.155
 6710POPC   GL117353   0.453   1.211   8.855
 6710POPC   GL217354   0.479   1.348   8.855
 6710POPC   C1A17355   0.468   1.240   8.555
 6710POPC   D2A17356   0.463   1.165   8.255
 6710POPC   C3A17357   0.486   1.215   7.955
 6710POPC   C4A17358   0.477   1.178   7.655
 6710POPC   C1B17359   0.427   1.443   8.555
 6710POPC   C2B17360   0.408   1.488   8.255
 6710POPC   C3B17361   0.447   1.437   7.955
 6710POPC   C4B17362   0.381   1.451   7.655
 6711POPC   NC317363  43.845  22.157   9.455
 6711POPC   PO417364  43.857  22.117   9.155
 6711POPC   GL117365  43.873  22.127   8.855
 6711POPC   GL217366  43.728  22.207   8.855
 6711POPC   C1A17367  43.923  22.146   8.555
 6711POPC   D2A17368  43.852  22.129   8.255
 6711POPC   C3A17369  43.890  22.191   7.955
 6711POPC   C4A17370  43.907  22.154   7.655
 6711POPC   C1B17371  43.689  22.220   8.555
 6711POPC   C2B17372  43.624  22.230   8.255
 6711POPC   C3B17373  43.610  22.236   7.955
 6711POPC   C4B17374  43.611  22.269   7.655
 6712POPC   NC317375  13.584   3.566   9.455
 6712POPC   PO417376  13.650   3.502   9.155
 6712POPC   GL117377  13.600   3.532   8.855
 6712POPC   GL217378  13.757   3.552   8.855
 6712POPC   C1A17379  13.599   3.541   8.555
 6712POPC   D2A17380  13.640   3.570   8.255
 6712POPC   C3A17381  13.615   3.584   7.955
 6712POPC   C4A17382  13.663   3.506   7.655
 6712POPC   C1B17383  13.910   3.574   8.555
 6712POPC   C2B17384  13.915   3.533   8.255
 6712POPC   C3B17385  13.863   3.551   7.955
 6712POPC   C4B17386  13.841   3.544   7.655
 6713POPC   NC317387   2.727  38.467   9.455
 6713POPC   PO417388   2.794  38.470   9.155
 6713POPC   GL117389   2.756  38.407   8.855
 6713POPC   GL217390   2.739  38.603   8.855
 6713POPC   C1A17391   2.813  38.408   8.555
 6713POPC   D2A17392   2.754  38.429   8.255
 6713POPC   C3A17393   2.726  38.463   7.955
 6713POPC   C4A17394   2.762  38.443   7.655
 6713POPC   C1B17395   2.761  38.681   8.555
 6713POPC   C2B17396   2.738  38.731   8.255
 6713POPC   C3B17397   2.754  38.695   7.955
 6713POPC   C4B17398   2.707  38.692   7.655
 6714POPC   NC317399  37.700  19.814   9.455
 6714POPC   PO417400  37.685  19.792   9.155
 6714POPC   GL117401  37.677  19.839   8.855
 6714POPC   GL217402  37.534  19.777   8.855
 6714POPC   C1A17403  37.683  19.830   8.555
 6714POPC   D2A17404  37.720  19.789   8.255
 6714POPC   C3A17405  37.661  19.854   7.955
 6714POPC   C4A17406  37.683  19.869   7.655
 6714POPC   C1B17407  37.384  19.861   8.555
 6714POPC   C2B17408  37.423  19.850   8.255
 6714POPC   C3B17409  37.448  19.821   7.955
 6714POPC   C4B17410  37.446  19.847   7.655
 6715POPC   NC317411   0.462  33.051   9.455
 6715POPC   PO417412   0.453  32.995   9.155
 6715POPC   GL117413   0.456  33.066   8.855
 6715POPC   GL217414   0.439  33.193   8.855
 6715POPC   C1A17415   0.432  33.066   8.555
 6715POPC   D2A17416   0.424  33.009   8.255
 6715POPC   C3A17417   0.451  33.033   7.955
 6715POPC   C4A17418   0.452  33.002   7.655
 6715POPC   C1B17419   0.498  33.245   8.555
 6715POPC   C2B17420   0.517  33.259   8.255
 6715POPC   C3B17421   0.467  33.267   7.955
 6715POPC   C4B17422   0.502  33.258   7.655
 6716POPC   NC317423   8.234  36.079   9.455
 6716POPC   PO417424   8.241  36.079   9.155
 6716POPC   GL117425   8.197  36.089   8.855
 6716POPC   GL217426   8.144  36.202   8.855
 6716POPC   C1A17427   8.231  36.087   8.555
 6716POPC   D2A17428   8.153  36.154   8.255
 6716POPC   C3A17429   8.165  36.167   7.955
 6716POPC   C4A17430   8.196  36.127   7.655
 6716POPC   C1B17431   7.987  36.351   8.555
 6716POPC   C2B17432   8.044  36.287   8.255
 6716POPC   C3B17433   7.995  36.307   7.955
 6716POPC   C4B17434   7.985  36.291   7.655
 6717POPC   NC317435  18.321  16.686   9.455
 6717POPC   PO417436  18.259  16.730   9.155
 6717POPC   GL117437  18.283  16.694   8.855
 6717POPC   GL217438  18.414  16.618   8.855
 6717POPC   C1A17439  18.324  16.725   8.555
 6717POPC   D2A17440  18.258  16.709   8.255
 6717POPC   C3A17441  18.290  16.754   7.955
 6717POPC   C4A17442  18.317  16.702   7.655
 6717POPC   C1B17443  18.484  16.610   8.555
 6717POPC   C2B17444  18.528  16.637   8.255
 6717POPC   C3B17445  18.531  16.611   7.955
 6717POPC   C4B17446  18.469  16.601   7.655
 6718POPC   NC317447  43.891  24.484   9.455
 6718POPC   PO417448  43.903  24.483   9.155
 6718POPC   GL117449  43.868  24.484   8.855
 6718POPC   GL217450  43.965  24.490   8.855
 6718POPC   C1A17451  43.875  24.517   8.555
 6718POPC   D2A17452  43.841  24.496   8.255
 6718POPC   C3A17453  43.898  24.474   7.955
 6718POPC   C4A17454  43.864  24.526   7.655
 6718POPC   C1B17455  44.102  24.490   8.555
 6718POPC   C2B17456  44.178  24.494   8.255
 6718POPC   C3B17457  44.106  24.471   7.955
 6718POPC   C4B17458  44.121  24.540   7.655
 6719POPC   NC317459  31.436  36.907   9.455
 6719POPC   PO417460  31.477  36.864   9.155
 6719POPC   GL117461  31.472  36.946   8.855
 6719POPC   GL217462  31.378  36.814   8.855
 6719POPC   C1A17463  31.493  36.940   8.555
 6719POPC   D2A17464  31.454  36.952   8.255
 6719POPC   C3A17465  31.433  36.907   7.955
 6719POPC   C4A17466  31.479  36.934   7.655
 6719POPC   C1B17467  31.351  36.686   8.555
 6719POPC   C2B17468  31.347  36.700   8.255
 6719POPC   C3B17469  31.348  36.670   7.955
 6719POPC   C4B17470  31.347  36.711   7.655
 6720POPC   NC317471  17.511   3.516   9.455
 6720POPC   PO417472  17.477   3.547   9.155
 6720POPC   GL117473  17.493   3.557   8.855
 6720POPC   GL217474  17.592   3.403   8.855
 6720POPC   C1A17475  17.543   3.551   8.555
 6720POPC   D2A17476  17.501   3.587   8.255
 6720POPC   C3A17477  17.485   3.495   7.955
 6720POPC   C4A17478  17.472   3.520   7.655
 6720POPC   C1B17479  17.710   3.385   8.555
 6720POPC   C2B17480  17.701   3.359   8.255
 6720POPC   C3B17481  17.678   3.338   7.955
 6720POPC   C4B17482  17.651   3.384   7.655
 6721POPC   NC317483   6.627  32.293   9.455
 6721POPC   PO417484   6.602  32.291   9.155
 6721POPC   GL117485   6.607  32.246   8.855
 6721POPC   GL217486   6.767  32.135   8.855
 6721POPC   C1A17487   6.686  32.232   8.555
 6721POPC   D2A17488   6.613  32.264   8.255
 6721POPC   C3A17489   6.659  32.242   7.955
 6721POPC   C4A17490   6.597  32.283   7.655
 6721POPC   C1B17491   6.882  32.076   8.555
 6721POPC   C2B17492   6.874  32.073   8.255
 6721POPC   C3B17493   6.883  32.061   7.955
 6721POPC   C4B17494   6.818  32.148   7.655
 6722POPC   NC317495  29.139  12.816   9.455
 6722POPC   PO417496  29.114  12.842   9.155
 6722POPC   GL117497  29.135  12.865   8.855
 6722POPC   GL217498  29.283  12.894   8.855
 6722POPC   C1A17499  29.173  12.816   8.555
 6722POPC   D2A17500  29.178  12.843   8.255
 6722POPC   C3A17501  29.168  12.816   7.955
 6722POPC   C4A17502  29.096  12.844   7.655
 6722POPC   C1B17503  29.368  12.885   8.555
 6722POPC   C2B17504  29.382  12.799   8.255
 6722POPC   C3B17505  29.425  12.834   7.955
 6722POPC   C4B17506  29.379  12.839   7.655
 6723POPC   NC317507  21.339  35.314   9.455
 6723POPC   PO417508  21.417  35.326   9.155
 6723POPC   GL117509  21.361  35.318   8.855
 6723POPC   GL217510  21.393  35.198   8.855
 6723POPC   C1A17511  21.361  35.359   8.555
 6723POPC   D2A17512  21.407  35.390   8.255
 6723POPC   C3A17513  21.428  35.372   7.955
 6723POPC   C4A17514  21.352  35.337   7.655
 6723POPC   C1B17515  21.522  35.147   8.555
 6723POPC   C2B17516  21.495  35.107   8.255
 6723POPC   C3B17517  21.444  35.168   7.955
 6723POPC   C4B17518  21.523  35.147   7.655
 6724POPC   NC317519   9.717  26.851   9.455
 6724POPC   PO417520   9.740  26.841   9.155
 6724POPC   GL117521   9.752  26.826   8.855
 6724POPC   GL217522   9.612  26.877   8.855
 6724POPC   C1A17523   9.740  26.780   8.555
 6724POPC   D2A17524   9.785  26.772   8.255
 6724POPC   C3A17525   9.782  26.793   7.955
 6724POPC   C4A17526   9.782  26.829   7.655
 6724POPC   C1B17527   9.536  26.970   8.555
 6724POPC   C2B17528   9.534  26.971   8.255
 6724POPC   C3B17529   9.538  26.958   7.955
 6724POPC   C4B17530   9.560  26.960   7.655
 6725POPC   NC317531  30.708   0.393   9.455
 6725POPC   PO417532  30.746   0.436   9.155
 6725POPC   GL117533  30.706   0.476   8.855
 6725POPC   GL217534  30.677   0.536   8.855
 6725POPC   C1A17535  30.687   0.449   8.555
 6725POPC   D2A17536  30.651   0.417   8.255
 6725POPC   C3A17537  30.695   0.401   7.955
 6725POPC   C4A17538  30.727   0.458   7.655
 6725POPC   C1B17539  30.664   0.638   8.555
 6725POPC   C2B17540  30.630   0.643   8.255
 6725POPC   C3B17541  30.659   0.660   7.955
 6725POPC   C4B17542  30.610   0.681   7.655
 6726POPC   NC317543  38.483  23.751   9.455
 6726POPC   PO417544  38.422  23.714   9.155
 6726POPC   GL117545  38.432  23.693   8.855
 6726POPC   GL217546  38.493  23.796   8.855
 6726POPC   C1A17547  38.474  23.698   8.555
 6726POPC   D2A17548  38.470  23.717   8.255
 6726POPC   C3A17549  38.500  23.677   7.955
 6726POPC   C4A17550  38.414  23.754   7.655
 6726POPC   C1B17551  38.563  23.933   8.555
 6726POPC   C2B17552  38.627  23.943   8.255
 6726POPC   C3B17553  38.594  23.883   7.955
 6726POPC   C4B17554  38.571  23.900   7.655
 6727POPC   NC317555  40.733  22.189   9.455
 6727POPC   PO417556  40.798  22.189   9.155
 6727POPC   GL117557  40.796  22.169   8.855
 6727POPC   GL217558  40.724  22.237   8.855
 6727POPC   C1A17559  40.763  22.136   8.555
 6727POPC   D2A17560  40.735  22.190   8.255
 6727POPC   C3A17561  40.760  22.171   7.955
 6727POPC   C4A17562  40.737  22.164   7.655
 6727POPC   C1B17563  40.587  22.405   8.555
 6727POPC   C2B17564  40.663  22.356   8.255
 6727POPC   C3B17565  40.653  22.387   7.955
 6727POPC   C4B17566  40.643  22.374   7.655
 6728POPC   NC317567  43.072  14.441   9.455
 6728POPC   PO417568  43.074  14.370   9.155
 6728POPC   GL117569  43.112  14.404   8.855
 6728POPC   GL217570  42.990  14.495   8.855
 6728POPC   C1A17571  43.128  14.365   8.555
 6728POPC   D2A17572  43.149  14.372   8.255
 6728POPC   C3A17573  43.112  14.431   7.955
 6728POPC   C4A17574  43.155  14.419   7.655
 6728POPC   C1B17575  42.841  14.499   8.555
 6728POPC   C2B17576  42.903  14.559   8.255
 6728POPC   C3B17577  42.851  14.560   7.955
 6728POPC   C4B17578  42.842  14.536   7.655
 6729POPC   NC317579  36.920  44.625   9.455
 6729POPC   PO417580  36.880  44.660   9.155
 6729POPC   GL117581  36.938  44.638   8.855
 6729POPC   GL217582  36.841  44.693   8.855
 6729POPC   C1A17583  36.906  44.698   8.555
 6729POPC   D2A17584  36.898  44.661   8.255
 6729POPC   C3A17585  36.917  44.664   7.955
 6729POPC   C4A17586  36.907  44.692   7.655
 6729POPC   C1B17587  36.706  44.764   8.555
 6729POPC   C2B17588  36.714  44.824   8.255
 6729POPC   C3B17589  36.659  44.770   7.955
 6729POPC   C4B17590  36.676  44.781   7.655
 6730POPC   NC317591  19.865  33.812   9.455
 6730POPC   PO417592  19.852  33.845   9.155
 6730POPC   GL117593  19.829  33.760   8.855
 6730POPC   GL217594  19.756  33.697   8.855
 6730POPC   C1A17595  19.880  33.839   8.555
 6730POPC   D2A17596  19.786  33.776   8.255
 6730POPC   C3A17597  19.868  33.764   7.955
 6730POPC   C4A17598  19.852  33.798   7.655
 6730POPC   C1B17599  19.704  33.630   8.555
 6730POPC   C2B17600  19.637  33.571   8.255
 6730POPC   C3B17601  19.674  33.634   7.955
 6730POPC   C4B17602  19.708  33.608   7.655
 6731POPC   NC317603   4.272  12.812   9.455
 6731POPC   PO417604   4.342  12.844   9.155
 6731POPC   GL117605   4.318  12.838   8.855
 6731POPC   GL217606   4.413  12.830   8.855
 6731POPC   C1A17607   4.281  12.841   8.555
 6731POPC   D2A17608   4.364  12.887   8.255
 6731POPC   C3A17609   4.331  12.863   7.955
 6731POPC   C4A17610   4.317  12.870   7.655
 6731POPC   C1B17611   4.541  12.948   8.555
 6731POPC   C2B17612   4.544  12.887   8.255
 6731POPC   C3B17613   4.554  12.902   7.955
 6731POPC   C4B17614   4.560  12.924   7.655
 6732POPC   NC317615  20.660  19.815   9.455
 6732POPC   PO417616  20.648  19.877   9.155
 6732POPC   GL117617  20.598  19.804   8.855
 6732POPC   GL217618  20.531  19.752   8.855
 6732POPC   C1A17619  20.643  19.859   8.555
 6732POPC   D2A17620  20.571  19.851   8.255
 6732POPC   C3A17621  20.565  19.827   7.955
 6732POPC   C4A17622  20.604  19.857   7.655
 6732POPC   C1B17623  20.464  19.619   8.555
 6732POPC   C2B17624  20.400  19.692   8.255
 6732POPC   C3B17625  20.470  19.693   7.955
 6732POPC   C4B17626  20.408  19.617   7.655
 6733POPC   NC317627   8.205  30.651   9.455
 6733POPC   PO417628   8.246  30.715   9.155
 6733POPC   GL117629   8.198  30.699   8.855
 6733POPC   GL217630   8.188  30.836   8.855
 6733POPC   C1A17631   8.236  30.735   8.555
 6733POPC   D2A17632   8.212  30.692   8.255
 6733POPC   C3A17633   8.153  30.658   7.955
 6733POPC   C4A17634   8.231  30.711   7.655
 6733POPC   C1B17635   8.264  30.916   8.555
 6733POPC   C2B17636   8.208  30.967   8.255
 6733POPC   C3B17637   8.231  30.935   7.955
 6733POPC   C4B17638   8.275  30.945   7.655
 6734POPC   NC317639  12.831  44.679   9.455
 6734POPC   PO417640  12.881  44.646   9.155
 6734POPC   GL117641  12.885  44.665   8.855
 6734POPC   GL217642  12.825  44.828   8.855
 6734POPC   C1A17643  12.817  44.703   8.555
 6734POPC   D2A17644  12.851  44.679   8.255
 6734POPC   C3A17645  12.817  44.711   7.955
 6734POPC   C4A17646  12.828  44.688   7.655
 6734POPC   C1B17647  12.877  44.947   8.555
 6734POPC   C2B17648  12.920  44.870   8.255
 6734POPC   C3B17649  12.913  44.894   7.955
 6734POPC   C4B17650  12.832  44.957   7.655
 6735POPC   NC317651  42.285  13.665   9.455
 6735POPC   PO417652  42.329  13.675   9.155
 6735POPC   GL117653  42.356  13.643   8.855
 6735POPC   GL217654  42.257  13.567   8.855
 6735POPC   C1A17655  42.295  13.643   8.555
 6735POPC   D2A17656  42.295  13.670   8.255
 6735POPC   C3A17657  42.308  13.643   7.955
 6735POPC   C4A17658  42.289  13.635   7.655
 6735POPC   C1B17659  42.080  13.525   8.555
 6735POPC   C2B17660  42.083  13.524   8.255
 6735POPC   C3B17661  42.121  13.469   7.955
 6735POPC   C4B17662  42.155  13.461   7.655
 6736POPC   NC317663  34.614  39.961   9.455
 6736POPC   PO417664  34.612  40.021   9.155
 6736POPC   GL117665  34.576  39.987   8.855
 6736POPC   GL217666  34.635  40.083   8.855
 6736POPC   C1A17667  34.551  40.004   8.555
 6736POPC   D2A17668  34.583  39.999   8.255
 6736POPC   C3A17669  34.578  39.997   7.955
 6736POPC   C4A17670  34.571  39.973   7.655
 6736POPC   C1B17671  34.618  40.299   8.555
 6736POPC   C2B17672  34.586  40.228   8.255
 6736POPC   C3B17673  34.559  40.272   7.955
 6736POPC   C4B17674  34.577  40.284   7.655
 6737POPC   NC317675  19.795  41.550   9.455
 6737POPC   PO417676  19.810  41.599   9.155
 6737POPC   GL117677  19.845  41.518   8.855
 6737POPC   GL217678  19.758  41.485   8.855
 6737POPC   C1A17679  19.804  41.551   8.555
 6737POPC   D2A17680  19.812  41.566   8.255
 6737POPC   C3A17681  19.807  41.511   7.955
 6737POPC   C4A17682  19.831  41.555   7.655
 6737POPC   C1B17683  19.661  41.334   8.555
 6737POPC   C2B17684  19.734  41.365   8.255
 6737POPC   C3B17685  19.688  41.330   7.955
 6737POPC   C4B17686  19.689  41.305   7.655
 6738POPC   NC317687  37.676  44.631   9.455
 6738POPC   PO417688  37.700  44.667   9.155
 6738POPC   GL117689  37.719  44.627   8.855
 6738POPC   GL217690  37.607  44.578   8.855
 6738POPC   C1A17691  37.717  44.652   8.555
 6738POPC   D2A17692  37.656  44.698   8.255
 6738POPC   C3A17693  37.713  44.648   7.955
 6738POPC   C4A17694  37.638  44.702   7.655
 6738POPC   C1B17695  37.657  44.428   8.555
 6738POPC   C2B17696  37.577  44.393   8.255
 6738POPC   C3B17697  37.602  44.398   7.955
 6738POPC   C4B17698  37.577  44.418   7.655
 6739POPC   NC317699  35.364  33.046   9.455
 6739POPC   PO417700  35.346  33.007   9.155
 6739POPC   GL117701  35.361  32.990   8.855
 6739POPC   GL217702  35.472  33.028   8.855
 6739POPC   C1A17703  35.387  33.058   8.555
 6739POPC   D2A17704  35.386  32.989   8.255
 6739POPC   C3A17705  35.334  33.072   7.955
 6739POPC   C4A17706  35.387  33.071   7.655
 6739POPC   C1B17707  35.601  33.091   8.555
 6739POPC   C2B17708  35.539  33.157   8.255
 6739POPC   C3B17709  35.596  33.075   7.955
 6739POPC   C4B17710  35.564  33.144   7.655
 6740POPC   NC317711   8.197  38.469   9.455
 6740POPC   PO417712   8.205  38.415   9.155
 6740POPC   GL117713   8.170  38.431   8.855
 6740POPC   GL217714   8.276  38.382   8.855
 6740POPC   C1A17715   8.233  38.453   8.555
 6740POPC   D2A17716   8.214  38.440   8.255
 6740POPC   C3A17717   8.222  38.424   7.955
 6740POPC   C4A17718   8.149  38.463   7.655
 6740POPC   C1B17719   8.314  38.252   8.555
 6740POPC   C2B17720   8.327  38.265   8.255
 6740POPC   C3B17721   8.296  38.273   7.955
 6740POPC   C4B17722   8.356  38.207   7.655
 6741POPC   NC317723  43.083  43.931   9.455
 6741POPC   PO417724  43.111  43.923   9.155
 6741POPC   GL117725  43.148  43.897   8.855
 6741POPC   GL217726  42.956  43.809   8.855
 6741POPC   C1A17727  43.078  43.924   8.555
 6741POPC   D2A17728  43.071  43.877   8.255
 6741POPC   C3A17729  43.157  43.892   7.955
 6741POPC   C4A17730  43.104  43.913   7.655
 6741POPC   C1B17731  42.890  43.783   8.555
 6741POPC   C2B17732  42.900  43.726   8.255
 6741POPC   C3B17733  42.892  43.771   7.955
 6741POPC   C4B17734  42.925  43.769   7.655
 6742POPC   NC317735  44.627  44.621   9.455
 6742POPC   PO417736  44.639  44.678   9.155
 6742POPC   GL117737  44.674  44.694   8.855
 6742POPC   GL217738  44.680  44.542   8.855
 6742POPC   C1A17739  44.692  44.622   8.555
 6742POPC   D2A17740  44.709  44.640   8.255
 6742POPC   C3A17741  44.668  44.693   7.955
 6742POPC   C4A17742  44.640  44.695   7.655
 6742POPC   C1B17743  44.731  44.468   8.555
 6742POPC   C2B17744  44.763  44.415   8.255
 6742POPC   C3B17745  44.729  44.424   7.955
 6742POPC   C4B17746  44.734  44.453   7.655
 6743POPC   NC317747  26.786  15.188   9.455
 6743POPC   PO417748  26.849  15.217   9.155
 6743POPC   GL117749  26.850  15.138   8.855
 6743POPC   GL217750  26.695  15.217   8.855
 6743POPC   C1A17751  26.781  15.192   8.555
 6743POPC   D2A17752  26.811  15.142   8.255
 6743POPC   C3A17753  26.828  15.167   7.955
 6743POPC   C4A17754  26.805  15.184   7.655
 6743POPC   C1B17755  26.586  15.219   8.555
 6743POPC   C2B17756  26.603  15.292   8.255
 6743POPC   C3B17757  26.627  15.248   7.955
 6743POPC   C4B17758  26.541  15.299   7.655
 6744POPC   NC317759  22.892   1.232   9.455
 6744POPC   PO417760  22.894   1.185   9.155
 6744POPC   GL117761  22.949   1.238   8.855
 6744POPC   GL217762  22.991   1.149   8.855
 6744POPC   C1A17763  22.947   1.174   8.555
 6744POPC   D2A17764  22.904   1.234   8.255
 6744POPC   C3A17765  22.981   1.203   7.955
 6744POPC   C4A17766  22.954   1.252   7.655
 6744POPC   C1B17767  23.070   1.001   8.555
 6744POPC   C2B17768  23.101   1.017   8.255
 6744POPC   C3B17769  23.093   1.035   7.955
 6744POPC   C4B17770  23.135   0.997   7.655
 6745POPC   NC317771  35.325  28.418   9.455
 6745POPC   PO417772  35.325  28.397   9.155
 6745POPC   GL117773  35.398  28.381   8.855
 6745POPC   GL217774  35.228  28.314   8.855
 6745POPC   C1A17775  35.398  28.323   8.555
 6745POPC   D2A17776  35.312  28.396   8.255
 6745POPC   C3A17777  35.318  28.399   7.955
 6745POPC   C4A17778  35.315  28.396   7.655
 6745POPC   C1B17779  35.091  28.271   8.555
 6745POPC   C2B17780  35.143  28.293   8.255
 6745POPC   C3B17781  35.126  28.271   7.955
 6745POPC   C4B17782  35.113  28.265   7.655
 6746POPC   NC317783  26.802  23.749   9.455
 6746POPC   PO417784  26.841  23.726   9.155
 6746POPC   GL117785  26.821  23.698   8.855
 6746POPC   GL217786  26.901  23.686   8.855
 6746POPC   C1A17787  26.867  23.701   8.555
 6746POPC   D2A17788  26.803  23.717   8.255
 6746POPC   C3A17789  26.866  23.695   7.955
 6746POPC   C4A17790  26.864  23.754   7.655
 6746POPC   C1B17791  27.075  23.751   8.555
 6746POPC   C2B17792  27.026  23.769   8.255
 6746POPC   C3B17793  27.024  23.739   7.955
 6746POPC   C4B17794  27.085  23.784   7.655
 6747POPC   NC317795  12.087  21.413   9.455
 6747POPC   PO417796  12.066  21.417   9.155
 6747POPC   GL117797  12.032  21.412   8.855
 6747POPC   GL217798  12.149  21.304   8.855
 6747POPC   C1A17799  12.118  21.342   8.555
 6747POPC   D2A17800  12.103  21.369   8.255
 6747POPC   C3A17801  12.094  21.432   7.955
 6747POPC   C4A17802  12.050  21.407   7.655
 6747POPC   C1B17803  12.127  21.134   8.555
 6747POPC   C2B17804  12.156  21.126   8.255
 6747POPC   C3B17805  12.191  21.179   7.955
 6747POPC   C4B17806  12.191  21.157   7.655
 6748POPC   NC317807   9.005  43.925   9.455
 6748POPC   PO417808   8.947  43.912   9.155
 6748POPC   GL117809   8.947  43.931   8.855
 6748POPC   GL217810   9.050  43.844   8.855
 6748POPC   C1A17811   8.924  43.926   8.555
 6748POPC   D2A17812   8.934  43.930   8.255
 6748POPC   C3A17813   8.980  43.886   7.955
 6748POPC   C4A17814   8.934  43.848   7.655
 6748POPC   C1B17815   9.242  43.771   8.555
 6748POPC   C2B17816   9.168  43.777   8.255
 6748POPC   C3B17817   9.160  43.826   7.955
 6748POPC   C4B17818   9.157  43.789   7.655
 6749POPC   NC317819  15.193   6.649   9.455
 6749POPC   PO417820  15.211   6.634   9.155
 6749POPC   GL117821  15.166   6.674   8.855
 6749POPC   GL217822  15.280   6.486   8.855
 6749POPC   C1A17823  15.207   6.657   8.555
 6749POPC   D2A17824  15.182   6.694   8.255
 6749POPC   C3A17825  15.157   6.666   7.955
 6749POPC   C4A17826  15.187   6.639   7.655
 6749POPC   C1B17827  15.274   6.460   8.555
 6749POPC   C2B17828  15.333   6.457   8.255
 6749POPC   C3B17829  15.296   6.401   7.955
 6749POPC   C4B17830  15.265   6.377   7.655
 6750POPC   NC317831   4.295  36.904   9.455
 6750POPC   PO417832   4.324  36.872   9.155
 6750POPC   GL117833   4.271  36.916   8.855
 6750POPC   GL217834   4.335  37.039   8.855
 6750POPC   C1A17835   4.365  36.878   8.555
 6750POPC   D2A17836   4.305  36.932   8.255
 6750POPC   C3A17837   4.312  36.934   7.955
 6750POPC   C4A17838   4.312  36.929   7.655
 6750POPC   C1B17839   4.407  37.154   8.555
 6750POPC   C2B17840   4.392  37.112   8.255
 6750POPC   C3B17841   4.427  37.137   7.955
 6750POPC   C4B17842   4.449  37.110   7.655
 6751POPC   NC317843  26.056  25.290   9.455
 6751POPC   PO417844  25.999  25.227   9.155
 6751POPC   GL117845  26.035  25.225   8.855
 6751POPC   GL217846  26.131  25.245   8.855
 6751POPC   C1A17847  26.001  25.312   8.555
 6751POPC   D2A17848  25.997  25.226   8.255
 6751POPC   C3A17849  26.090  25.313   7.955
 6751POPC   C4A17850  25.992  25.305   7.655
 6751POPC   C1B17851  26.277  25.247   8.555
 6751POPC   C2B17852  26.290  25.218   8.255
 6751POPC   C3B17853  26.324  25.191   7.955
 6751POPC   C4B17854  26.259  25.204   7.655
 6752POPC   NC317855  25.287  32.206   9.455
 6752POPC   PO417856  25.286  32.282   9.155
 6752POPC   GL117857  25.218  32.246   8.855
 6752POPC   GL217858  25.409  32.251   8.855
 6752POPC   C1A17859  25.258  32.231   8.555
 6752POPC   D2A17860  25.314  32.267   8.255
 6752POPC   C3A17861  25.256  32.276   7.955
 6752POPC   C4A17862  25.281  32.229   7.655
 6752POPC   C1B17863  25.467  32.267   8.555
 6752POPC   C2B17864  25.503  32.342   8.255
 6752POPC   C3B17865  25.543  32.286   7.955
 6752POPC   C4B17866  25.479  32.272   7.655
 6753POPC   NC317867  33.004   3.508   9.455
 6753POPC   PO417868  33.066   3.575   9.155
 6753POPC   GL117869  33.046   3.587   8.855
 6753POPC   GL217870  32.938   3.584   8.855
 6753POPC   C1A17871  32.980   3.559   8.555
 6753POPC   D2A17872  33.034   3.531   8.255
 6753POPC   C3A17873  33.066   3.579   7.955
 6753POPC   C4A17874  33.056   3.501   7.655
 6753POPC   C1B17875  32.784   3.585   8.555
 6753POPC   C2B17876  32.789   3.566   8.255
 6753POPC   C3B17877  32.789   3.543   7.955
 6753POPC   C4B17878  32.766   3.575   7.655
 6754POPC   NC317879  17.477  24.507   9.455
 6754POPC   PO417880  17.493  24.483   9.155
 6754POPC   GL117881  17.517  24.481   8.855
 6754POPC   GL217882  17.663  24.425   8.855
 6754POPC   C1A17883  17.476  24.529   8.555
 6754POPC   D2A17884  17.525  24.500   8.255
 6754POPC   C3A17885  17.553  24.440   7.955
 6754POPC   C4A17886  17.553  24.499   7.655
 6754POPC   C1B17887  17.690  24.346   8.555
 6754POPC   C2B17888  17.734  24.370   8.255
 6754POPC   C3B17889  17.764  24.397   7.955
 6754POPC   C4B17890  17.709  24.340   7.655
 6755POPC   NC317891  33.831  42.367   9.455
 6755POPC   PO417892  33.784  42.321   9.155
 6755POPC   GL117893  33.761  42.328   8.855
 6755POPC   GL217894  33.818  42.252   8.855
 6755POPC   C1A17895  33.757  42.361   8.555
 6755POPC   D2A17896  33.784  42.370   8.255
 6755POPC   C3A17897  33.795  42.360   7.955
 6755POPC   C4A17898  33.801  42.290   7.655
 6755POPC   C1B17899  33.837  42.062   8.555
 6755POPC   C2B17900  33.762  42.088   8.255
 6755POPC   C3B17901  33.746  42.036   7.955
 6755POPC   C4B17902  33.794  42.075   7.655
 6756POPC   NC317903  32.201   9.765   9.455
 6756POPC   PO417904  32.264   9.758   9.155
 6756POPC   GL117905  32.263   9.750   8.855
 6756POPC   GL217906  32.152   9.643   8.855
 6756POPC   C1A17907  32.233   9.777   8.555
 6756POPC   D2A17908  32.285   9.788   8.255
 6756POPC   C3A17909  32.199   9.725   7.955
 6756POPC   C4A17910  32.272   9.742   7.655
 6756POPC   C1B17911  32.025   9.591   8.555
 6756POPC   C2B17912  32.061   9.641   8.255
 6756POPC   C3B17913  32.026   9.561   7.955
 6756POPC   C4B17914  32.055   9.630   7.655
 6757POPC   NC317915  19.873  31.519   9.455
 6757POPC   PO417916  19.825  31.513   9.155
 6757POPC   GL117917  19.792  31.446   8.855
 6757POPC   GL217918  19.750  31.615   8.855
 6757POPC   C1A17919  19.802  31.454   8.555
 6757POPC   D2A17920  19.793  31.491   8.255
 6757POPC   C3A17921  19.833  31.424   7.955
 6757POPC   C4A17922  19.818  31.428   7.655
 6757POPC   C1B17923  19.662  31.711   8.555
 6757POPC   C2B17924  19.701  31.691   8.255
 6757POPC   C3B17925  19.678  31.694   7.955
 6757POPC   C4B17926  19.652  31.672   7.655
 6758POPC   NC317927   8.220  13.578   9.455
 6758POPC   PO417928   8.187  13.624   9.155
 6758POPC   GL117929   8.206  13.602   8.855
 6758POPC   GL217930   8.136  13.774   8.855
 6758POPC   C1A17931   8.193  13.578   8.555
 6758POPC   D2A17932   8.176  13.642   8.255
 6758POPC   C3A17933   8.196  13.635   7.955
 6758POPC   C4A17934   8.166  13.603   7.655
 6758POPC   C1B17935   8.095  13.878   8.555
 6758POPC   C2B17936   8.151  13.893   8.255
 6758POPC   C3B17937   8.157  13.859   7.955
 6758POPC   C4B17938   8.099  13.871   7.655
 6759POPC   NC317939  31.521  39.217   9.455
 6759POPC   PO417940  31.510  39.226   9.155
 6759POPC   GL117941  31.520  39.247   8.855
 6759POPC   GL217942  31.467  39.309   8.855
 6759POPC   C1A17943  31.515  39.268   8.555
 6759POPC   D2A17944  31.439  39.263   8.255
 6759POPC   C3A17945  31.485  39.254   7.955
 6759POPC   C4A17946  31.457  39.244   7.655
 6759POPC   C1B17947  31.527  39.463   8.555
 6759POPC   C2B17948  31.572  39.509   8.255
 6759POPC   C3B17949  31.560  39.497   7.955
 6759POPC   C4B17950  31.508  39.462   7.655
 6760POPC   NC317951   0.390  26.029   9.455
 6760POPC   PO417952   0.484  26.020   9.155
 6760POPC   GL117953   0.469  26.055   8.855
 6760POPC   GL217954   0.558  25.929   8.855
 6760POPC   C1A17955   0.432  26.037   8.555
 6760POPC   D2A17956   0.435  26.060   8.255
 6760POPC   C3A17957   0.478  26.002   7.955
 6760POPC   C4A17958   0.411  26.063   7.655
 6760POPC   C1B17959   0.612  25.891   8.555
 6760POPC   C2B17960   0.694  25.953   8.255
 6760POPC   C3B17961   0.622  25.865   7.955
 6760POPC   C4B17962   0.679  25.922   7.655
 6761POPC   NC317963  36.148  42.349   9.455
 6761POPC   PO417964  36.104  42.346   9.155
 6761POPC   GL117965  36.165  42.368   8.855
 6761POPC   GL217966  36.053  42.193   8.855
 6761POPC   C1A17967  36.083  42.336   8.555
 6761POPC   D2A17968  36.108  42.302   8.255
 6761POPC   C3A17969  36.172  42.320   7.955
 6761POPC   C4A17970  36.138  42.361   7.655
 6761POPC   C1B17971  36.003  42.133   8.555
 6761POPC   C2B17972  35.985  42.114   8.255
 6761POPC   C3B17973  35.954  42.190   7.955
 6761POPC   C4B17974  35.995  42.152   7.655
 6762POPC   NC317975  43.851   4.334   9.455
 6762POPC   PO417976  43.839   4.274   9.155
 6762POPC   GL117977  43.935   4.348   8.855
 6762POPC   GL217978  43.944   4.419   8.855
 6762POPC   C1A17979  43.905   4.347   8.555
 6762POPC   D2A17980  43.849   4.352   8.255
 6762POPC   C3A17981  43.864   4.338   7.955
 6762POPC   C4A17982  43.836   4.337   7.655
 6762POPC   C1B17983  44.094   4.468   8.555
 6762POPC   C2B17984  44.062   4.509   8.255
 6762POPC   C3B17985  44.058   4.541   7.955
 6762POPC   C4B17986  44.038   4.531   7.655
 6763POPC   NC317987  41.517   3.521   9.455
 6763POPC   PO417988  41.514   3.560   9.155
 6763POPC   GL117989  41.574   3.514   8.855
 6763POPC   GL217990  41.502   3.674   8.855
 6763POPC   C1A17991  41.519   3.508   8.555
 6763POPC   D2A17992  41.594   3.584   8.255
 6763POPC   C3A17993  41.579   3.520   7.955
 6763POPC   C4A17994  41.573   3.537   7.655
 6763POPC   C1B17995  41.501   3.726   8.555
 6763POPC   C2B17996  41.503   3.817   8.255
 6763POPC   C3B17997  41.433   3.766   7.955
 6763POPC   C4B17998  41.443   3.792   7.655
 6764POPC   NC317999   1.172  21.390   9.455
 6764POPC   PO418000   1.241  21.410   9.155
 6764POPC   GL118001   1.238  21.352   8.855
 6764POPC   GL218002   1.158  21.357   8.855
 6764POPC   C1A18003   1.209  21.429   8.555
 6764POPC   D2A18004   1.238  21.370   8.255
 6764POPC   C3A18005   1.229  21.390   7.955
 6764POPC   C4A18006   1.214  21.365   7.655
 6764POPC   C1B18007   0.962  21.262   8.555
 6764POPC   C2B18008   1.051  21.206   8.255
 6764POPC   C3B18009   1.016  21.272   7.955
 6764POPC   C4B18010   0.983  21.199   7.655
 6765POPC   NC318011  15.942  32.215   9.455
 6765POPC   PO418012  15.920  32.209   9.155
 6765POPC   GL118013  15.949  32.210   8.855
 6765POPC   GL218014  15.899  32.109   8.855
 6765POPC   C1A18015  15.989  32.253   8.555
 6765POPC   D2A18016  15.968  32.253   8.255
 6765POPC   C3A18017  15.988  32.235   7.955
 6765POPC   C4A18018  15.986  32.226   7.655
 6765POPC   C1B18019  15.783  32.068   8.555
 6765POPC   C2B18020  15.862  31.988   8.255
 6765POPC   C3B18021  15.864  32.029   7.955
 6765POPC   C4B18022  15.809  32.032   7.655
 6766POPC   NC318023  35.324  35.396   9.455
 6766POPC   PO418024  35.389  35.346   9.155
 6766POPC   GL118025  35.380  35.309   8.855
 6766POPC   GL218026  35.291  35.286   8.855
 6766POPC   C1A18027  35.372  35.401   8.555
 6766POPC   D2A18028  35.400  35.307   8.255
 6766POPC   C3A18029  35.361  35.333   7.955
 6766POPC   C4A18030  35.327  35.328   7.655
 6766POPC   C1B18031  35.175  35.146   8.555
 6766POPC   C2B18032  35.118  35.194   8.255
 6766POPC   C3B18033  35.207  35.229   7.955
 6766POPC   C4B18034  35.196  35.187   7.655
 6767POPC   NC318035  22.891  15.203   9.455
 6767POPC   PO418036  22.899  15.221   9.155
 6767POPC   GL118037  22.926  15.186   8.855
 6767POPC   GL218038  22.780  15.184   8.855
 6767POPC   C1A18039  22.907  15.185   8.555
 6767POPC   D2A18040  22.922  15.166   8.255
 6767POPC   C3A18041  22.945  15.212   7.955
 6767POPC   C4A18042  22.946  15.190   7.655
 6767POPC   C1B18043  22.661  15.240   8.555
 6767POPC   C2B18044  22.686  15.250   8.255
 6767POPC   C3B18045  22.679  15.288   7.955
 6767POPC   C4B18046  22.713  15.275   7.655
 6768POPC   NC318047  39.224  13.594   9.455
 6768POPC   PO418048  39.280  13.674   9.155
 6768POPC   GL118049  39.234  13.627   8.855
 6768POPC   GL218050  39.327  13.596   8.855
 6768POPC   C1A18051  39.218  13.663   8.555
 6768POPC   D2A18052  39.236  13.581   8.255
 6768POPC   C3A18053  39.230  13.675   7.955
 6768POPC   C4A18054  39.237  13.606   7.655
 6768POPC   C1B18055  39.414  13.532   8.555
 6768POPC   C2B18056  39.467  13.474   8.255
 6768POPC   C3B18057  39.484  13.489   7.955
 6768POPC   C4B18058  39.483  13.513   7.655
 6769POPC   NC318059  19.869  40.793   9.455
 6769POPC   PO418060  19.883  40.814   9.155
 6769POPC   GL118061  19.838  40.775   8.855
 6769POPC   GL218062  19.935  40.796   8.855
 6769POPC   C1A18063  19.824  40.779   8.555
 6769POPC   D2A18064  19.830  40.770   8.255
 6769POPC   C3A18065  19.805  40.824   7.955
 6769POPC   C4A18066  19.821  40.772   7.655
 6769POPC   C1B18067  20.102  40.874   8.555
 6769POPC   C2B18068  20.049  40.944   8.255
 6769POPC   C3B18069  20.071  40.890   7.955
 6769POPC   C4B18070  20.101  40.882   7.655
 6770POPC   NC318071  36.169  35.348   9.455
 6770POPC   PO418072  36.092  35.312   9.155
 6770POPC   GL118073  36.148  35.361   8.855
 6770POPC   GL218074  35.994  35.280   8.855
 6770POPC   C1A18075  36.114  35.344   8.555
 6770POPC   D2A18076  36.086  35.382   8.255
 6770POPC   C3A18077  36.166  35.375   7.955
 6770POPC   C4A18078  36.082  35.345   7.655
 6770POPC   C1B18079  35.859  35.252   8.555
 6770POPC   C2B18080  35.905  35.333   8.255
 6770POPC   C3B18081  35.906  35.300   7.955
 6770POPC   C4B18082  35.930  35.302   7.655
 6771POPC   NC318083  39.200  14.376   9.455
 6771POPC   PO418084  39.198  14.388   9.155
 6771POPC   GL118085  39.231  14.372   8.855
 6771POPC   GL218086  39.325  14.312   8.855
 6771POPC   C1A18087  39.190  14.409   8.555
 6771POPC   D2A18088  39.235  14.396   8.255
 6771POPC   C3A18089  39.216  14.370   7.955
 6771POPC   C4A18090  39.243  14.365   7.655
 6771POPC   C1B18091  39.472  14.352   8.555
 6771POPC   C2B18092  39.422  14.330   8.255
 6771POPC   C3B18093  39.476  14.337   7.955
 6771POPC   C4B18094  39.434  14.278   7.655
 6772POPC   NC318095   0.416  10.552   9.455
 6772POPC   PO418096   0.468  10.572   9.155
 6772POPC   GL118097   0.421  10.496   8.855
 6772POPC   GL218098   0.478  10.668   8.855
 6772POPC   C1A18099   0.458  10.541   8.555
 6772POPC   D2A18100   0.452  10.562   8.255
 6772POPC   C3A18101   0.445  10.571   7.955
 6772POPC   C4A18102   0.405  10.516   7.655
 6772POPC   C1B18103   0.528  10.765   8.555
 6772POPC   C2B18104   0.456  10.731   8.255
 6772POPC   C3B18105   0.529  10.762   7.955
 6772POPC   C4B18106   0.457  10.792   7.655
 6773POPC   NC318107  29.945   2.796   9.455
 6773POPC   PO418108  29.878   2.749   9.155
 6773POPC   GL118109  29.924   2.753   8.855
 6773POPC   GL218110  29.796   2.846   8.855
 6773POPC   C1A18111  29.952   2.796   8.555
 6773POPC   D2A18112  29.897   2.758   8.255
 6773POPC   C3A18113  29.943   2.760   7.955
 6773POPC   C4A18114  29.922   2.726   7.655
 6773POPC   C1B18115  29.694   2.923   8.555
 6773POPC   C2B18116  29.742   2.893   8.255
 6773POPC   C3B18117  29.730   2.886   7.955
 6773POPC   C4B18118  29.729   2.941   7.655
 6774POPC   NC318119  29.183   2.775   9.455
 6774POPC   PO418120  29.148   2.787   9.155
 6774POPC   GL118121  29.096   2.775   8.855
 6774POPC   GL218122  29.177   2.924   8.855
 6774POPC   C1A18123  29.116   2.803   8.555
 6774POPC   D2A18124  29.151   2.763   8.255
 6774POPC   C3A18125  29.178   2.736   7.955
 6774POPC   C4A18126  29.128   2.786   7.655
 6774POPC   C1B18127  29.161   2.987   8.555
 6774POPC   C2B18128  29.175   3.009   8.255
 6774POPC   C3B18129  29.214   3.016   7.955
 6774POPC   C4B18130  29.193   3.045   7.655
 6775POPC   NC318131  32.258   3.507   9.455
 6775POPC   PO418132  32.295   3.513   9.155
 6775POPC   GL118133  32.265   3.542   8.855
 6775POPC   GL218134  32.323   3.561   8.855
 6775POPC   C1A18135  32.206   3.574   8.555
 6775POPC   D2A18136  32.240   3.575   8.255
 6775POPC   C3A18137  32.246   3.576   7.955
 6775POPC   C4A18138  32.282   3.568   7.655
 6775POPC   C1B18139  32.491   3.600   8.555
 6775POPC   C2B18140  32.455   3.579   8.255
 6775POPC   C3B18141  32.501   3.570   7.955
 6775POPC   C4B18142  32.493   3.639   7.655
 6776POPC   NC318143  18.244  19.817   9.455
 6776POPC   PO418144  18.308  19.837   9.155
 6776POPC   GL118145  18.255  19.828   8.855
 6776POPC   GL218146  18.236  19.932   8.855
 6776POPC   C1A18147  18.253  19.871   8.555
 6776POPC   D2A18148  18.276  19.848   8.255
 6776POPC   C3A18149  18.256  19.870   7.955
 6776POPC   C4A18150  18.297  19.824   7.655
 6776POPC   C1B18151  18.230  20.106   8.555
 6776POPC   C2B18152  18.206  20.061   8.255
 6776POPC   C3B18153  18.222  20.086   7.955
 6776POPC   C4B18154  18.192  20.095   7.655
 6777POPC   NC318155  44.620  25.236   9.455
 6777POPC   PO418156  44.697  25.280   9.155
 6777POPC   GL118157  44.635  25.311   8.855
 6777POPC   GL218158  44.792  25.267   8.855
 6777POPC   C1A18159  44.669  25.234   8.555
 6777POPC   D2A18160  44.624  25.232   8.255
 6777POPC   C3A18161  44.688  25.242   7.955
 6777POPC   C4A18162  44.701  25.282   7.655
 6777POPC   C1B18163  44.881  25.203   8.555
 6777POPC   C2B18164  44.886  25.190   8.255
 6777POPC   C3B18165  44.934  25.250   7.955
 6777POPC   C4B18166  44.947  25.273   7.655
 6778POPC   NC318167  39.217  35.355   9.455
 6778POPC   PO418168  39.278  35.356   9.155
 6778POPC   GL118169  39.208  35.320   8.855
 6778POPC   GL218170  39.113  35.360   8.855
 6778POPC   C1A18171  39.182  35.375   8.555
 6778POPC   D2A18172  39.261  35.309   8.255
 6778POPC   C3A18173  39.212  35.345   7.955
 6778POPC   C4A18174  39.235  35.304   7.655
 6778POPC   C1B18175  38.959  35.445   8.555
 6778POPC   C2B18176  38.968  35.471   8.255
 6778POPC   C3B18177  38.966  35.426   7.955
 6778POPC   C4B18178  38.946  35.463   7.655
 6779POPC   NC318179  17.457  15.981   9.455
 6779POPC   PO418180  17.465  15.962   9.155
 6779POPC   GL118181  17.547  15.954   8.855
 6779POPC   GL218182  17.585  16.024   8.855
 6779POPC   C1A18183  17.506  16.004   8.555
 6779POPC   D2A18184  17.529  15.998   8.255
 6779POPC   C3A18185  17.490  15.940   7.955
 6779POPC   C4A18186  17.470  15.975   7.655
 6779POPC   C1B18187  17.732  15.996   8.555
 6779POPC   C2B18188  17.759  16.029   8.255
 6779POPC   C3B18189  17.734  16.048   7.955
 6779POPC   C4B18190  17.727  15.988   7.655
 6780POPC   NC318191   6.646   1.184   9.455
 6780POPC   PO418192   6.654   1.179   9.155
 6780POPC   GL118193   6.644   1.212   8.855
 6780POPC   GL218194   6.547   1.313   8.855
 6780POPC   C1A18195   6.667   1.252   8.555
 6780POPC   D2A18196   6.597   1.171   8.255
 6780POPC   C3A18197   6.628   1.234   7.955
 6780POPC   C4A18198   6.617   1.247   7.655
 6780POPC   C1B18199   6.497   1.488   8.555
 6780POPC   C2B18200   6.577   1.439   8.255
 6780POPC   C3B18201   6.572   1.416   7.955
 6780POPC   C4B18202   6.536   1.467   7.655
 6781POPC   NC318203  18.263  25.256   9.455
 6781POPC   PO418204  18.302  25.258   9.155
 6781POPC   GL118205  18.323  25.240   8.855
 6781POPC   GL218206  18.261  25.166   8.855
 6781POPC   C1A18207  18.312  25.241   8.555
 6781POPC   D2A18208  18.250  25.293   8.255
 6781POPC   C3A18209  18.304  25.300   7.955
 6781POPC   C4A18210  18.302  25.293   7.655
 6781POPC   C1B18211  18.224  25.065   8.555
 6781POPC   C2B18212  18.214  25.029   8.255
 6781POPC   C3B18213  18.223  24.994   7.955
 6781POPC   C4B18214  18.199  25.043   7.655
 6782POPC   NC318215  30.682  42.288   9.455
 6782POPC   PO418216  30.707  42.334   9.155
 6782POPC   GL118217  30.727  42.377   8.855
 6782POPC   GL218218  30.566  42.334   8.855
 6782POPC   C1A18219  30.687  42.362   8.555
 6782POPC   D2A18220  30.667  42.296   8.255
 6782POPC   C3A18221  30.663  42.353   7.955
 6782POPC   C4A18222  30.685  42.381   7.655
 6782POPC   C1B18223  30.492  42.395   8.555
 6782POPC   C2B18224  30.462  42.394   8.255
 6782POPC   C3B18225  30.498  42.413   7.955
 6782POPC   C4B18226  30.444  42.361   7.655
 6783POPC   NC318227  43.082   8.965   9.455
 6783POPC   PO418228  43.135   8.984   9.155
 6783POPC   GL118229  43.100   8.979   8.855
 6783POPC   GL218230  43.218   9.016   8.855
 6783POPC   C1A18231  43.132   9.014   8.555
 6783POPC   D2A18232  43.103   8.966   8.255
 6783POPC   C3A18233  43.065   8.935   7.955
 6783POPC   C4A18234  43.083   9.006   7.655
 6783POPC   C1B18235  43.371   9.027   8.555
 6783POPC   C2B18236  43.326   9.058   8.255
 6783POPC   C3B18237  43.327   9.080   7.955
 6783POPC   C4B18238  43.331   9.056   7.655
 6784POPC   NC318239  27.622  40.785   9.455
 6784POPC   PO418240  27.565  40.733   9.155
 6784POPC   GL118241  27.618  40.831   8.855
 6784POPC   GL218242  27.644  40.943   8.855
 6784POPC   C1A18243  27.603  40.806   8.555
 6784POPC   D2A18244  27.622  40.817   8.255
 6784POPC   C3A18245  27.587  40.795   7.955
 6784POPC   C4A18246  27.547  40.827   7.655
 6784POPC   C1B18247  27.623  41.021   8.555
 6784POPC   C2B18248  27.587  41.068   8.255
 6784POPC   C3B18249  27.560  41.004   7.955
 6784POPC   C4B18250  27.575  41.039   7.655
 6785POPC   NC318251   2.805  17.550   9.455
 6785POPC   PO418252   2.796  17.497   9.155
 6785POPC   GL118253   2.760  17.470   8.855
 6785POPC   GL218254   2.926  17.447   8.855
 6785POPC   C1A18255   2.787  17.517   8.555
 6785POPC   D2A18256   2.762  17.542   8.255
 6785POPC   C3A18257   2.797  17.506   7.955
 6785POPC   C4A18258   2.793  17.477   7.655
 6785POPC   C1B18259   3.009  17.500   8.555
 6785POPC   C2B18260   3.051  17.440   8.255
 6785POPC   C3B18261   2.993  17.475   7.955
 6785POPC   C4B18262   3.017  17.483   7.655
 6786POPC   NC318263   4.276  21.433   9.455
 6786POPC   PO418264   4.280  21.339   9.155
 6786POPC   GL118265   4.323  21.409   8.855
 6786POPC   GL218266   4.285  21.305   8.855
 6786POPC   C1A18267   4.353  21.365   8.555
 6786POPC   D2A18268   4.330  21.428   8.255
 6786POPC   C3A18269   4.298  21.356   7.955
 6786POPC   C4A18270   4.335  21.353   7.655
 6786POPC   C1B18271   4.369  21.187   8.555
 6786POPC   C2B18272   4.335  21.105   8.255
 6786POPC   C3B18273   4.299  21.155   7.955
 6786POPC   C4B18274   4.326  21.105   7.655
 6787POPC   NC318275   0.391  12.820   9.455
 6787POPC   PO418276   0.443  12.857   9.155
 6787POPC   GL118277   0.485  12.837   8.855
 6787POPC   GL218278   0.481  12.934   8.855
 6787POPC   C1A18279   0.458  12.834   8.555
 6787POPC   D2A18280   0.445  12.859   8.255
 6787POPC   C3A18281   0.429  12.867   7.955
 6787POPC   C4A18282   0.466  12.879   7.655
 6787POPC   C1B18283   0.545  13.044   8.555
 6787POPC   C2B18284   0.533  13.085   8.255
 6787POPC   C3B18285   0.486  13.072   7.955
 6787POPC   C4B18286   0.558  13.088   7.655
 6788POPC   NC318287  35.367   0.476   9.455
 6788POPC   PO418288  35.326   0.454   9.155
 6788POPC   GL118289  35.369   0.392   8.855
 6788POPC   GL218290  35.191   0.484   8.855
 6788POPC   C1A18291  35.302   0.401   8.555
 6788POPC   D2A18292  35.324   0.434   8.255
 6788POPC   C3A18293  35.316   0.481   7.955
 6788POPC   C4A18294  35.389   0.469   7.655
 6788POPC   C1B18295  35.073   0.552   8.555
 6788POPC   C2B18296  35.152   0.575   8.255
 6788POPC   C3B18297  35.135   0.526   7.955
 6788POPC   C4B18298  35.133   0.502   7.655
 6789POPC   NC318299  26.028   6.633   9.455
 6789POPC   PO418300  26.069   6.651   9.155
 6789POPC   GL118301  25.993   6.609   8.855
 6789POPC   GL218302  25.982   6.614   8.855
 6789POPC   C1A18303  25.999   6.639   8.555
 6789POPC   D2A18304  26.066   6.660   8.255
 6789POPC   C3A18305  26.035   6.620   7.955
 6789POPC   C4A18306  26.018   6.619   7.655
 6789POPC   C1B18307  25.865   6.461   8.555
 6789POPC   C2B18308  25.875   6.534   8.255
 6789POPC   C3B18309  25.802   6.524   7.955
 6789POPC   C4B18310  25.844   6.512   7.655
 6790POPC   NC318311  13.626  36.888   9.455
 6790POPC   PO418312  13.611  36.899   9.155
 6790POPC   GL118313  13.661  36.885   8.855
 6790POPC   GL218314  13.661  37.007   8.855
 6790POPC   C1A18315  13.676  36.930   8.555
 6790POPC   D2A18316  13.647  36.947   8.255
 6790POPC   C3A18317  13.637  36.866   7.955
 6790POPC   C4A18318  13.668  36.945   7.655
 6790POPC   C1B18319  13.751  37.077   8.555
 6790POPC   C2B18320  13.822  37.064   8.255
 6790POPC   C3B18321  13.792  37.049   7.955
 6790POPC   C4B18322  13.796  37.143   7.655
 6791POPC   NC318323  42.356  41.519   9.455
 6791POPC   PO418324  42.301  41.569   9.155
 6791POPC   GL118325  42.349  41.576   8.855
 6791POPC   GL218326  42.374  41.643   8.855
 6791POPC   C1A18327  42.338  41.536   8.555
 6791POPC   D2A18328  42.383  41.513   8.255
 6791POPC   C3A18329  42.353  41.509   7.955
 6791POPC   C4A18330  42.317  41.546   7.655
 6791POPC   C1B18331  42.367  41.835   8.555
 6791POPC   C2B18332  42.375  41.826   8.255
 6791POPC   C3B18333  42.426  41.788   7.955
 6791POPC   C4B18334  42.328  41.775   7.655
 6792POPC   NC318335  26.067  39.245   9.455
 6792POPC   PO418336  26.088  39.201   9.155
 6792POPC   GL118337  26.079  39.264   8.855
 6792POPC   GL218338  25.897  39.267   8.855
 6792POPC   C1A18339  26.026  39.256   8.555
 6792POPC   D2A18340  26.013  39.272   8.255
 6792POPC   C3A18341  26.013  39.249   7.955
 6792POPC   C4A18342  26.085  39.242   7.655
 6792POPC   C1B18343  25.813  39.187   8.555
 6792POPC   C2B18344  25.746  39.170   8.255
 6792POPC   C3B18345  25.820  39.167   7.955
 6792POPC   C4B18346  25.810  39.184   7.655
 6793POPC   NC318347  30.689   2.775   9.455
 6793POPC   PO418348  30.729   2.756   9.155
 6793POPC   GL118349  30.719   2.722   8.855
 6793POPC   GL218350  30.822   2.801   8.855
 6793POPC   C1A18351  30.744   2.775   8.555
 6793POPC   D2A18352  30.741   2.791   8.255
 6793POPC   C3A18353  30.709   2.782   7.955
 6793POPC   C4A18354  30.734   2.813   7.655
 6793POPC   C1B18355  30.886   2.933   8.555
 6793POPC   C2B18356  30.868   2.887   8.255
 6793POPC   C3B18357  30.913   2.934   7.955
 6793POPC   C4B18358  30.909   2.892   7.655
 6794POPC   NC318359  28.373  39.281   9.455
 6794POPC   PO418360  28.324  39.247   9.155
 6794POPC   GL118361  28.405  39.234   8.855
 6794POPC   GL218362  28.527  39.259   8.855
 6794POPC   C1A18363  28.336  39.236   8.555
 6794POPC   D2A18364  28.405  39.231   8.255
 6794POPC   C3A18365  28.369  39.253   7.955
 6794POPC   C4A18366  28.399  39.203   7.655
 6794POPC   C1B18367  28.586  39.398   8.555
 6794POPC   C2B18368  28.564  39.393   8.255
 6794POPC   C3B18369  28.628  39.390   7.955
 6794POPC   C4B18370  28.571  39.335   7.655
 6795POPC   NC318371   7.418  13.656   9.455
 6795POPC   PO418372   7.400  13.650   9.155
 6795POPC   GL118373   7.454  13.619   8.855
 6795POPC   GL218374   7.547  13.536   8.855
 6795POPC   C1A18375   7.406  13.660   8.555
 6795POPC   D2A18376   7.431  13.663   8.255
 6795POPC   C3A18377   7.408  13.602   7.955
 6795POPC   C4A18378   7.421  13.603   7.655
 6795POPC   C1B18379   7.646  13.549   8.555
 6795POPC   C2B18380   7.663  13.573   8.255
 6795POPC   C3B18381   7.614  13.523   7.955
 6795POPC   C4B18382   7.659  13.568   7.655
 6796POPC   NC318383  12.093   7.440   9.455
 6796POPC   PO418384  12.071   7.406   9.155
 6796POPC   GL118385  12.108   7.432   8.855
 6796POPC   GL218386  12.053   7.262   8.855
 6796POPC   C1A18387  12.032   7.442   8.555
 6796POPC   D2A18388  12.093   7.439   8.255
 6796POPC   C3A18389  12.069   7.416   7.955
 6796POPC   C4A18390  12.114   7.446   7.655
 6796POPC   C1B18391  12.012   7.123   8.555
 6796POPC   C2B18392  12.004   7.191   8.255
 6796POPC   C3B18393  12.015   7.221   7.955
 6796POPC   C4B18394  12.042   7.156   7.655
 6797POPC   NC318395   1.167  12.891   9.455
 6797POPC   PO418396   1.243  12.891   9.155
 6797POPC   GL118397   1.252  12.813   8.855
 6797POPC   GL218398   1.277  12.962   8.855
 6797POPC   C1A18399   1.197  12.825   8.555
 6797POPC   D2A18400   1.189  12.901   8.255
 6797POPC   C3A18401   1.173  12.826   7.955
 6797POPC   C4A18402   1.224  12.879   7.655
 6797POPC   C1B18403   1.399  12.977   8.555
 6797POPC   C2B18404   1.350  13.057   8.255
 6797POPC   C3B18405   1.369  13.033   7.955
 6797POPC   C4B18406   1.427  12.983   7.655
 6798POPC   NC318407   6.605  44.656   9.455
 6798POPC   PO418408   6.612  44.698   9.155
 6798POPC   GL118409   6.602  44.698   8.855
 6798POPC   GL218410   6.802  44.618   8.855
 6798POPC   C1A18411   6.628  44.624   8.555
 6798POPC   D2A18412   6.610  44.649   8.255
 6798POPC   C3A18413   6.662  44.690   7.955
 6798POPC   C4A18414   6.676  44.677   7.655
 6798POPC   C1B18415   6.839  44.538   8.555
 6798POPC   C2B18416   6.861  44.561   8.255
 6798POPC   C3B18417   6.842  44.494   7.955
 6798POPC   C4B18418   6.821  44.509   7.655
 6799POPC   NC318419  38.445  30.713   9.455
 6799POPC   PO418420  38.460  30.699   9.155
 6799POPC   GL118421  38.478  30.722   8.855
 6799POPC   GL218422  38.455  30.600   8.855
 6799POPC   C1A18423  38.463  30.746   8.555
 6799POPC   D2A18424  38.468  30.677   8.255
 6799POPC   C3A18425  38.410  30.716   7.955
 6799POPC   C4A18426  38.416  30.657   7.655
 6799POPC   C1B18427  38.493  30.479   8.555
 6799POPC   C2B18428  38.484  30.435   8.255
 6799POPC   C3B18429  38.429  30.463   7.955
 6799POPC   C4B18430  38.476  30.453   7.655
 6800POPC   NC318431  32.270  40.007   9.455
 6800POPC   PO418432  32.255  40.017   9.155
 6800POPC   GL118433  32.210  40.000   8.855
 6800POPC   GL218434  32.315  39.915   8.855
 6800POPC   C1A18435  32.275  39.963   8.555
 6800POPC   D2A18436  32.227  40.037   8.255
 6800POPC   C3A18437  32.204  40.057   7.955
 6800POPC   C4A18438  32.227  39.995   7.655
 6800POPC   C1B18439  32.297  39.733   8.555
 6800POPC   C2B18440  32.366  39.771   8.255
 6800POPC   C3B18441  32.347  39.817   7.955
 6800POPC   C4B18442  32.348  39.759   7.655
 6801POPC   NC318443   0.434   9.744   9.455
 6801POPC   PO418444   0.438   9.703   9.155
 6801POPC   GL118445   0.477   9.767   8.855
 6801POPC   GL218446   0.451   9.872   8.855
 6801POPC   C1A18447   0.435   9.731   8.555
 6801POPC   D2A18448   0.392   9.711   8.255
 6801POPC   C3A18449   0.432   9.720   7.955
 6801POPC   C4A18450   0.391   9.743   7.655
 6801POPC   C1B18451   0.391   9.959   8.555
 6801POPC   C2B18452   0.390   9.967   8.255
 6801POPC   C3B18453   0.368   9.990   7.955
 6801POPC   C4B18454   0.385   9.974   7.655
 6802POPC   NC318455   9.014  20.637   9.455
 6802POPC   PO418456   8.972  20.586   9.155
 6802POPC   GL118457   9.012  20.623   8.855
 6802POPC   GL218458   9.092  20.740   8.855
 6802POPC   C1A18459   8.950  20.584   8.555
 6802POPC   D2A18460   9.000  20.649   8.255
 6802POPC   C3A18461   8.966  20.608   7.955
 6802POPC   C4A18462   8.955  20.640   7.655
 6802POPC   C1B18463   9.171  20.818   8.555
 6802POPC   C2B18464   9.129  20.789   8.255
 6802POPC   C3B18465   9.142  20.826   7.955
 6802POPC   C4B18466   9.164  20.792   7.655
 6803POPC   NC318467  42.286  22.930   9.455
 6803POPC   PO418468  42.359  22.923   9.155
 6803POPC   GL118469  42.352  22.972   8.855
 6803POPC   GL218470  42.447  22.818   8.855
 6803POPC   C1A18471  42.315  22.958   8.555
 6803POPC   D2A18472  42.304  22.950   8.255
 6803POPC   C3A18473  42.296  22.888   7.955
 6803POPC   C4A18474  42.383  22.906   7.655
 6803POPC   C1B18475  42.478  22.689   8.555
 6803POPC   C2B18476  42.462  22.714   8.255
 6803POPC   C3B18477  42.468  22.768   7.955
 6803POPC   C4B18478  42.441  22.734   7.655
 6804POPC   NC318479  26.825  26.814   9.455
 6804POPC   PO418480  26.785  26.827   9.155
 6804POPC   GL118481  26.851  26.844   8.855
 6804POPC   GL218482  26.794  26.931   8.855
 6804POPC   C1A18483  26.796  26.818   8.555
 6804POPC   D2A18484  26.860  26.770   8.255
 6804POPC   C3A18485  26.852  26.839   7.955
 6804POPC   C4A18486  26.824  26.865   7.655
 6804POPC   C1B18487  26.704  26.994   8.555
 6804POPC   C2B18488  26.657  27.077   8.255
 6804POPC   C3B18489  26.651  27.020   7.955
 6804POPC   C4B18490  26.705  27.071   7.655
 6805POPC   NC318491   8.926  12.037   9.455
 6805POPC   PO418492   8.976  12.077   9.155
 6805POPC   GL118493   8.975  12.094   8.855
 6805POPC   GL218494   8.991  11.960   8.855
 6805POPC   C1A18495   8.949  12.075   8.555
 6805POPC   D2A18496   8.984  12.085   8.255
 6805POPC   C3A18497   8.941  12.105   7.955
 6805POPC   C4A18498   9.007  12.040   7.655
 6805POPC   C1B18499   8.988  11.813   8.555
 6805POPC   C2B18500   9.031  11.868   8.255
 6805POPC   C3B18501   8.981  11.833   7.955
 6805POPC   C4B18502   9.023  11.872   7.655
 6806POPC   NC318503  14.434  26.848   9.455
 6806POPC   PO418504  14.417  26.818   9.155
 6806POPC   GL118505  14.378  26.788   8.855
 6806POPC   GL218506  14.367  26.906   8.855
 6806POPC   C1A18507  14.424  26.844   8.555
 6806POPC   D2A18508  14.432  26.792   8.255
 6806POPC   C3A18509  14.375  26.860   7.955
 6806POPC   C4A18510  14.427  26.840   7.655
 6806POPC   C1B18511  14.283  27.089   8.555
 6806POPC   C2B18512  14.312  27.051   8.255
 6806POPC   C3B18513  14.311  27.059   7.955
 6806POPC   C4B18514  14.292  27.031   7.655
 6807POPC   NC318515  24.500  29.117   9.455
 6807POPC   PO418516  24.534  29.167   9.155
 6807POPC   GL118517  24.461  29.164   8.855
 6807POPC   GL218518  24.429  29.073   8.855
 6807POPC   C1A18519  24.448  29.182   8.555
 6807POPC   D2A18520  24.507  29.096   8.255
 6807POPC   C3A18521  24.492  29.097   7.955
 6807POPC   C4A18522  24.462  29.148   7.655
 6807POPC   C1B18523  24.442  28.926   8.555
 6807POPC   C2B18524  24.453  28.911   8.255
 6807POPC   C3B18525  24.414  28.923   7.955
 6807POPC   C4B18526  24.458  28.927   7.655
 6808POPC   NC318527  23.698  28.325   9.455
 6808POPC   PO418528  23.721  28.385   9.155
 6808POPC   GL118529  23.686  28.387   8.855
 6808POPC   GL218530  23.689  28.512   8.855
 6808POPC   C1A18531  23.762  28.328   8.555
 6808POPC   D2A18532  23.690  28.365   8.255
 6808POPC   C3A18533  23.753  28.320   7.955
 6808POPC   C4A18534  23.748  28.370   7.655
 6808POPC   C1B18535  23.664  28.635   8.555
 6808POPC   C2B18536  23.667  28.652   8.255
 6808POPC   C3B18537  23.603  28.625   7.955
 6808POPC   C4B18538  23.597  28.577   7.655
 6809POPC   NC318539  32.253  32.978   9.455
 6809POPC   PO418540  32.199  33.000   9.155
 6809POPC   GL118541  32.223  33.013   8.855
 6809POPC   GL218542  32.258  32.884   8.855
 6809POPC   C1A18543  32.246  33.006   8.555
 6809POPC   D2A18544  32.281  33.039   8.255
 6809POPC   C3A18545  32.277  32.980   7.955
 6809POPC   C4A18546  32.277  33.032   7.655
 6809POPC   C1B18547  32.213  32.811   8.555
 6809POPC   C2B18548  32.301  32.725   8.255
 6809POPC   C3B18549  32.282  32.788   7.955
 6809POPC   C4B18550  32.207  32.774   7.655
 6810POPC   NC318551   7.451  12.039   9.455
 6810POPC   PO418552   7.444  12.065   9.155
 6810POPC   GL118553   7.417  12.032   8.855
 6810POPC   GL218554   7.278  12.014   8.855
 6810POPC   C1A18555   7.471  12.106   8.555
 6810POPC   D2A18556   7.392  12.057   8.255
 6810POPC   C3A18557   7.424  12.031   7.955
 6810POPC   C4A18558   7.419  12.092   7.655
 6810POPC   C1B18559   7.257  11.947   8.555
 6810POPC   C2B18560   7.223  11.901   8.255
 6810POPC   C3B18561   7.200  11.907   7.955
 6810POPC   C4B18562   7.257  11.937   7.655
 6811POPC   NC318563  36.087   0.464   9.455
 6811POPC   PO418564  36.099   0.404   9.155
 6811POPC   GL118565  36.095   0.455   8.855
 6811POPC   GL218566  36.191   0.490   8.855
 6811POPC   C1A18567  36.094   0.472   8.555
 6811POPC   D2A18568  36.090   0.445   8.255
 6811POPC   C3A18569  36.142   0.414   7.955
 6811POPC   C4A18570  36.135   0.463   7.655
 6811POPC   C1B18571  36.311   0.583   8.555
 6811POPC   C2B18572  36.319   0.540   8.255
 6811POPC   C3B18573  36.358   0.536   7.955
 6811POPC   C4B18574  36.346   0.559   7.655
 6812POPC   NC318575  29.179  13.629   9.455
 6812POPC   PO418576  29.186  13.677   9.155
 6812POPC   GL118577  29.154  13.670   8.855
 6812POPC   GL218578  29.231  13.651   8.855
 6812POPC   C1A18579  29.101  13.670   8.555
 6812POPC   D2A18580  29.162  13.664   8.255
 6812POPC   C3A18581  29.125  13.657   7.955
 6812POPC   C4A18582  29.171  13.630   7.655
 6812POPC   C1B18583  29.355  13.717   8.555
 6812POPC   C2B18584  29.430  13.718   8.255
 6812POPC   C3B18585  29.349  13.683   7.955
 6812POPC   C4B18586  29.431  13.734   7.655
 6813POPC   NC318587  44.694  29.127   9.455
 6813POPC   PO418588  44.684  29.185   9.155
 6813POPC   GL118589  44.689  29.133   8.855
 6813POPC   GL218590  44.728  29.239   8.855
 6813POPC   C1A18591  44.648  29.147   8.555
 6813POPC   D2A18592  44.632  29.102   8.255
 6813POPC   C3A18593  44.625  29.167   7.955
 6813POPC   C4A18594  44.638  29.180   7.655
 6813POPC   C1B18595  44.811  29.353   8.555
 6813POPC   C2B18596  44.851  29.364   8.255
 6813POPC   C3B18597  44.861  29.290   7.955
 6813POPC   C4B18598  44.838  29.343   7.655
 6814POPC   NC318599  15.164  19.105   9.455
 6814POPC   PO418600  15.179  19.026   9.155
 6814POPC   GL118601  15.210  19.074   8.855
 6814POPC   GL218602  15.244  18.929   8.855
 6814POPC   C1A18603  15.168  19.084   8.555
 6814POPC   D2A18604  15.224  19.029   8.255
 6814POPC   C3A18605  15.217  19.040   7.955
 6814POPC   C4A18606  15.214  19.072   7.655
 6814POPC   C1B18607  15.249  18.856   8.555
 6814POPC   C2B18608  15.210  18.868   8.255
 6814POPC   C3B18609  15.218  18.796   7.955
 6814POPC   C4B18610  15.211  18.786   7.655
 6815POPC   NC318611   6.665   2.756   9.455
 6815POPC   PO418612   6.678   2.731   9.155
 6815POPC   GL118613   6.599   2.795   8.855
 6815POPC   GL218614   6.639   2.666   8.855
 6815POPC   C1A18615   6.683   2.729   8.555
 6815POPC   D2A18616   6.614   2.735   8.255
 6815POPC   C3A18617   6.666   2.774   7.955
 6815POPC   C4A18618   6.635   2.757   7.655
 6815POPC   C1B18619   6.711   2.482   8.555
 6815POPC   C2B18620   6.727   2.479   8.255
 6815POPC   C3B18621   6.726   2.562   7.955
 6815POPC   C4B18622   6.689   2.490   7.655
 6816POPC   NC318623  42.317  42.302   9.455
 6816POPC   PO418624  42.363  42.353   9.155
 6816POPC   GL118625  42.377  42.379   8.855
 6816POPC   GL218626  42.307  42.161   8.855
 6816POPC   C1A18627  42.337  42.341   8.555
 6816POPC   D2A18628  42.372  42.314   8.255
 6816POPC   C3A18629  42.316  42.323   7.955
 6816POPC   C4A18630  42.383  42.331   7.655
 6816POPC   C1B18631  42.372  42.099   8.555
 6816POPC   C2B18632  42.352  42.105   8.255
 6816POPC   C3B18633  42.384  42.038   7.955
 6816POPC   C4B18634  42.371  42.045   7.655
 6817POPC   NC318635  12.036  11.270   9.455
 6817POPC   PO418636  12.109  11.256   9.155
 6817POPC   GL118637  12.103  11.330   8.855
 6817POPC   GL218638  11.956  11.331   8.855
 6817POPC   C1A18639  12.045  11.337   8.555
 6817POPC   D2A18640  12.074  11.317   8.255
 6817POPC   C3A18641  12.094  11.287   7.955
 6817POPC   C4A18642  12.057  11.316   7.655
 6817POPC   C1B18643  11.808  11.283   8.555
 6817POPC   C2B18644  11.793  11.264   8.255
 6817POPC   C3B18645  11.848  11.307   7.955
 6817POPC   C4B18646  11.875  11.282   7.655
 6818POPC   NC318647  20.608   3.589   9.455
 6818POPC   PO418648  20.608   3.561   9.155
 6818POPC   GL118649  20.576   3.545   8.855
 6818POPC   GL218650  20.697   3.608   8.855
 6818POPC   C1A18651  20.580   3.494   8.555
 6818POPC   D2A18652  20.623   3.541   8.255
 6818POPC   C3A18653  20.648   3.561   7.955
 6818POPC   C4A18654  20.578   3.558   7.655
 6818POPC   C1B18655  20.805   3.617   8.555
 6818POPC   C2B18656  20.806   3.577   8.255
 6818POPC   C3B18657  20.813   3.628   7.955
 6818POPC   C4B18658  20.884   3.599   7.655
 6819POPC   NC318659  22.196  33.047   9.455
 6819POPC   PO418660  22.128  33.062   9.155
 6819POPC   GL118661  22.191  32.978   8.855
 6819POPC   GL218662  22.261  32.938   8.855
 6819POPC   C1A18663  22.151  33.018   8.555
 6819POPC   D2A18664  22.197  33.074   8.255
 6819POPC   C3A18665  22.202  33.040   7.955
 6819POPC   C4A18666  22.136  33.003   7.655
 6819POPC   C1B18667  22.427  32.866   8.555
 6819POPC   C2B18668  22.397  32.849   8.255
 6819POPC   C3B18669  22.400  32.901   7.955
 6819POPC   C4B18670  22.377  32.877   7.655
 6820POPC   NC318671  43.089  34.595   9.455
 6820POPC   PO418672  43.093  34.560   9.155
 6820POPC   GL118673  43.156  34.617   8.855
 6820POPC   GL218674  42.938  34.565   8.855
 6820POPC   C1A18675  43.113  34.579   8.555
 6820POPC   D2A18676  43.061  34.603   8.255
 6820POPC   C3A18677  43.158  34.580   7.955
 6820POPC   C4A18678  43.134  34.613   7.655
 6820POPC   C1B18679  42.858  34.549   8.555
 6820POPC   C2B18680  42.870  34.621   8.255
 6820POPC   C3B18681  42.847  34.528   7.955
 6820POPC   C4B18682  42.889  34.588   7.655
 6821POPC   NC318683  40.807  14.367   9.455
 6821POPC   PO418684  40.785  14.386   9.155
 6821POPC   GL118685  40.772  14.377   8.855
 6821POPC   GL218686  40.767  14.315   8.855
 6821POPC   C1A18687  40.803  14.407   8.555
 6821POPC   D2A18688  40.744  14.386   8.255
 6821POPC   C3A18689  40.765  14.358   7.955
 6821POPC   C4A18690  40.782  14.445   7.655
 6821POPC   C1B18691  40.708  14.178   8.555
 6821POPC   C2B18692  40.702  14.179   8.255
 6821POPC   C3B18693  40.793  14.165   7.955
 6821POPC   C4B18694  40.757  14.174   7.655
 6822POPC   NC318695  15.229  24.508   9.455
 6822POPC   PO418696  15.130  24.525   9.155
 6822POPC   GL118697  15.213  24.469   8.855
 6822POPC   GL218698  15.054  24.367   8.855
 6822POPC   C1A18699  15.142  24.497   8.555
 6822POPC   D2A18700  15.149  24.527   8.255
 6822POPC   C3A18701  15.136  24.497   7.955
 6822POPC   C4A18702  15.148  24.506   7.655
 6822POPC   C1B18703  15.009  24.312   8.555
 6822POPC   C2B18704  14.963  24.341   8.255
 6822POPC   C3B18705  14.963  24.261   7.955
 6822POPC   C4B18706  15.040  24.271   7.655
 6823POPC   NC318707  36.869  21.359   9.455
 6823POPC   PO418708  36.929  21.345   9.155
 6823POPC   GL118709  36.861  21.356   8.855
 6823POPC   GL218710  36.885  21.260   8.855
 6823POPC   C1A18711  36.887  21.414   8.555
 6823POPC   D2A18712  36.860  21.424   8.255
 6823POPC   C3A18713  36.879  21.408   7.955
 6823POPC   C4A18714  36.899  21.412   7.655
 6823POPC   C1B18715  36.748  21.210   8.555
 6823POPC   C2B18716  36.779  21.150   8.255
 6823POPC   C3B18717  36.794  21.124   7.955
 6823POPC   C4B18718  36.736  21.191   7.655
 6824POPC   NC318719  14.414  44.664   9.455
 6824POPC   PO418720  14.443  44.637   9.155
 6824POPC   GL118721  14.363  44.690   8.855
 6824POPC   GL218722  14.345  44.750   8.855
 6824POPC   C1A18723  14.395  44.707   8.555
 6824POPC   D2A18724  14.374  44.620   8.255
 6824POPC   C3A18725  14.371  44.628   7.955
 6824POPC   C4A18726  14.424  44.643   7.655
 6824POPC   C1B18727  14.318  44.935   8.555
 6824POPC   C2B18728  14.325  44.947   8.255
 6824POPC   C3B18729  14.352  44.866   7.955
 6824POPC   C4B18730  14.357  44.894   7.655
 6825POPC   NC318731   1.210  44.666   9.455
 6825POPC   PO418732   1.176  44.624   9.155
 6825POPC   GL118733   1.229  44.687   8.855
 6825POPC   GL218734   1.320  44.624   8.855
 6825POPC   C1A18735   1.208  44.658   8.555
 6825POPC   D2A18736   1.255  44.685   8.255
 6825POPC   C3A18737   1.192  44.644   7.955
 6825POPC   C4A18738   1.172  44.664   7.655
 6825POPC   C1B18739   1.442  44.500   8.555
 6825POPC   C2B18740   1.395  44.552   8.255
 6825POPC   C3B18741   1.475  44.544   7.955
 6825POPC   C4B18742   1.462  44.509   7.655
 6826POPC   NC318743  41.522  22.142   9.455
 6826POPC   PO418744  41.597  22.189   9.155
 6826POPC   GL118745  41.522  22.202   8.855
 6826POPC   GL218746  41.586  22.011   8.855
 6826POPC   C1A18747  41.512  22.123   8.555
 6826POPC   D2A18748  41.546  22.145   8.255
 6826POPC   C3A18749  41.576  22.133   7.955
 6826POPC   C4A18750  41.551  22.157   7.655
 6826POPC   C1B18751  41.600  21.972   8.555
 6826POPC   C2B18752  41.674  21.968   8.255
 6826POPC   C3B18753  41.679  21.888   7.955
 6826POPC   C4B18754  41.626  21.975   7.655
 6827POPC   NC318755  19.846  39.991   9.455
 6827POPC   PO418756  19.882  40.038   9.155
 6827POPC   GL118757  19.787  39.961   8.855
 6827POPC   GL218758  19.814  39.847   8.855
 6827POPC   C1A18759  19.839  40.020   8.555
 6827POPC   D2A18760  19.826  39.965   8.255
 6827POPC   C3A18761  19.798  40.038   7.955
 6827POPC   C4A18762  19.878  40.010   7.655
 6827POPC   C1B18763  19.845  39.761   8.555
 6827POPC   C2B18764  19.865  39.807   8.255
 6827POPC   C3B18765  19.869  39.798   7.955
 6827POPC   C4B18766  19.847  39.758   7.655
 6828POPC   NC318767   9.715   1.257   9.455
 6828POPC   PO418768   9.754   1.170   9.155
 6828POPC   GL118769   9.731   1.227   8.855
 6828POPC   GL218770   9.822   1.307   8.855
 6828POPC   C1A18771   9.773   1.191   8.555
 6828POPC   D2A18772   9.742   1.221   8.255
 6828POPC   C3A18773   9.727   1.226   7.955
 6828POPC   C4A18774   9.736   1.237   7.655
 6828POPC   C1B18775   9.899   1.400   8.555
 6828POPC   C2B18776   9.912   1.456   8.255
 6828POPC   C3B18777   9.864   1.454   7.955
 6828POPC   C4B18778   9.891   1.463   7.655
 6829POPC   NC318779   4.310  19.018   9.455
 6829POPC   PO418780   4.366  19.084   9.155
 6829POPC   GL118781   4.338  19.022   8.855
 6829POPC   GL218782   4.375  19.181   8.855
 6829POPC   C1A18783   4.279  19.060   8.555
 6829POPC   D2A18784   4.348  19.107   8.255
 6829POPC   C3A18785   4.294  19.083   7.955
 6829POPC   C4A18786   4.364  19.030   7.655
 6829POPC   C1B18787   4.474  19.310   8.555
 6829POPC   C2B18788   4.478  19.263   8.255
 6829POPC   C3B18789   4.426  19.246   7.955
 6829POPC   C4B18790   4.427  19.241   7.655
 6830POPC   NC318791  44.699  42.360   9.455
 6830POPC   PO418792  44.702  42.331   9.155
 6830POPC   GL118793  44.678  42.315   8.855
 6830POPC   GL218794  44.742  42.248   8.855
 6830POPC   C1A18795  44.679  42.384   8.555
 6830POPC   D2A18796  44.612  42.351   8.255
 6830POPC   C3A18797  44.624  42.289   7.955
 6830POPC   C4A18798  44.710  42.346   7.655
 6830POPC   C1B18799  44.751  42.079   8.555
 6830POPC   C2B18800  44.766  42.075   8.255
 6830POPC   C3B18801  44.828  42.139   7.955
 6830POPC   C4B18802  44.844  42.151   7.655
 6831POPC   NC318803  12.832   1.958   9.455
 6831POPC   PO418804  12.847   2.008   9.155
 6831POPC   GL118805  12.836   1.982   8.855
 6831POPC   GL218806  12.788   1.892   8.855
 6831POPC   C1A18807  12.822   1.978   8.555
 6831POPC   D2A18808  12.804   2.039   8.255
 6831POPC   C3A18809  12.815   1.991   7.955
 6831POPC   C4A18810  12.869   2.022   7.655
 6831POPC   C1B18811  12.770   1.768   8.555
 6831POPC   C2B18812  12.748   1.776   8.255
 6831POPC   C3B18813  12.712   1.712   7.955
 6831POPC   C4B18814  12.726   1.797   7.655
 6832POPC   NC318815   9.718   2.785   9.455
 6832POPC   PO418816   9.734   2.801   9.155
 6832POPC   GL118817   9.767   2.788   8.855
 6832POPC   GL218818   9.750   2.652   8.855
 6832POPC   C1A18819   9.793   2.752   8.555
 6832POPC   D2A18820   9.729   2.768   8.255
 6832POPC   C3A18821   9.745   2.762   7.955
 6832POPC   C4A18822   9.775   2.804   7.655
 6832POPC   C1B18823   9.730   2.526   8.555
 6832POPC   C2B18824   9.803   2.520   8.255
 6832POPC   C3B18825   9.769   2.504   7.955
 6832POPC   C4B18826   9.773   2.549   7.655
 6833POPC   NC318827  24.516  22.903   9.455
 6833POPC   PO418828  24.480  22.967   9.155
 6833POPC   GL118829  24.449  22.903   8.855
 6833POPC   GL218830  24.608  22.976   8.855
 6833POPC   C1A18831  24.492  22.893   8.555
 6833POPC   D2A18832  24.479  22.960   8.255
 6833POPC   C3A18833  24.532  22.919   7.955
 6833POPC   C4A18834  24.502  22.893   7.655
 6833POPC   C1B18835  24.736  22.988   8.555
 6833POPC   C2B18836  24.710  23.002   8.255
 6833POPC   C3B18837  24.773  22.957   7.955
 6833POPC   C4B18838  24.726  22.994   7.655
 6834POPC   NC318839  16.000  40.749   9.455
 6834POPC   PO418840  15.920  40.832   9.155
 6834POPC   GL118841  15.986  40.784   8.855
 6834POPC   GL218842  15.901  40.866   8.855
 6834POPC   C1A18843  15.930  40.774   8.555
 6834POPC   D2A18844  15.952  40.745   8.255
 6834POPC   C3A18845  15.924  40.756   7.955
 6834POPC   C4A18846  15.924  40.802   7.655
 6834POPC   C1B18847  15.813  41.044   8.555
 6834POPC   C2B18848  15.850  41.006   8.255
 6834POPC   C3B18849  15.830  40.988   7.955
 6834POPC   C4B18850  15.857  40.952   7.655
 6835POPC   NC318851   5.899  13.624   9.455
 6835POPC   PO418852   5.846  13.607   9.155
 6835POPC   GL118853   5.900  13.670   8.855
 6835POPC   GL218854   5.800  13.714   8.855
 6835POPC   C1A18855   5.868  13.596   8.555
 6835POPC   D2A18856   5.845  13.584   8.255
 6835POPC   C3A18857   5.841  13.616   7.955
 6835POPC   C4A18858   5.870  13.599   7.655
 6835POPC   C1B18859   5.658  13.849   8.555
 6835POPC   C2B18860   5.688  13.778   8.255
 6835POPC   C3B18861   5.730  13.825   7.955
 6835POPC   C4B18862   5.642  13.783   7.655
 6836POPC   NC318863  32.222  44.658   9.455
 6836POPC   PO418864  32.216  44.697   9.155
 6836POPC   GL118865  32.204  44.666   8.855
 6836POPC   GL218866  32.397  44.584   8.855
 6836POPC   C1A18867  32.217  44.621   8.555
 6836POPC   D2A18868  32.282  44.643   8.255
 6836POPC   C3A18869  32.223  44.688   7.955
 6836POPC   C4A18870  32.241  44.654   7.655
 6836POPC   C1B18871  32.445  44.633   8.555
 6836POPC   C2B18872  32.526  44.603   8.255
 6836POPC   C3B18873  32.524  44.583   7.955
 6836POPC   C4B18874  32.503  44.568   7.655
 6837POPC   NC318875   2.012  39.995   9.455
 6837POPC   PO418876   1.968  39.970   9.155
 6837POPC   GL118877   2.000  40.014   8.855
 6837POPC   GL218878   2.119  40.071   8.855
 6837POPC   C1A18879   1.994  39.996   8.555
 6837POPC   D2A18880   2.034  39.958   8.255
 6837POPC   C3A18881   1.977  40.045   7.955
 6837POPC   C4A18882   2.026  39.966   7.655
 6837POPC   C1B18883   2.156  40.144   8.555
 6837POPC   C2B18884   2.145  40.166   8.255
 6837POPC   C3B18885   2.163  40.115   7.955
 6837POPC   C4B18886   2.186  40.173   7.655
 6838POPC   NC318887  15.932  11.276   9.455
 6838POPC   PO418888  16.003  11.291   9.155
 6838POPC   GL118889  15.997  11.284   8.855
 6838POPC   GL218890  15.899  11.167   8.855
 6838POPC   C1A18891  15.972  11.341   8.555
 6838POPC   D2A18892  16.005  11.263   8.255
 6838POPC   C3A18893  15.930  11.322   7.955
 6838POPC   C4A18894  15.933  11.257   7.655
 6838POPC   C1B18895  15.821  11.118   8.555
 6838POPC   C2B18896  15.824  11.079   8.255
 6838POPC   C3B18897  15.799  11.129   7.955
 6838POPC   C4B18898  15.798  11.133   7.655
 6839POPC   NC318899  21.393   2.792   9.455
 6839POPC   PO418900  21.417   2.749   9.155
 6839POPC   GL118901  21.390   2.738   8.855
 6839POPC   GL218902  21.328   2.841   8.855
 6839POPC   C1A18903  21.402   2.778   8.555
 6839POPC   D2A18904  21.369   2.797   8.255
 6839POPC   C3A18905  21.353   2.792   7.955
 6839POPC   C4A18906  21.404   2.731   7.655
 6839POPC   C1B18907  21.316   3.028   8.555
 6839POPC   C2B18908  21.314   3.055   8.255
 6839POPC   C3B18909  21.317   3.050   7.955
 6839POPC   C4B18910  21.332   2.970   7.655
 6840POPC   NC318911  15.994  44.678   9.455
 6840POPC   PO418912  15.967  44.646   9.155
 6840POPC   GL118913  15.955  44.655   8.855
 6840POPC   GL218914  15.859  44.601   8.855
 6840POPC   C1A18915  15.943  44.668   8.555
 6840POPC   D2A18916  15.972  44.673   8.255
 6840POPC   C3A18917  15.949  44.698   7.955
 6840POPC   C4A18918  15.986  44.682   7.655
 6840POPC   C1B18919  15.715  44.515   8.555
 6840POPC   C2B18920  15.750  44.511   8.255
 6840POPC   C3B18921  15.775  44.512   7.955
 6840POPC   C4B18922  15.786  44.551   7.655
 6841POPC   NC318923   3.574  29.184   9.455
 6841POPC   PO418924   3.538  29.120   9.155
 6841POPC   GL118925   3.581  29.140   8.855
 6841POPC   GL218926   3.551  28.975   8.855
 6841POPC   C1A18927   3.562  29.120   8.555
 6841POPC   D2A18928   3.508  29.133   8.255
 6841POPC   C3A18929   3.508  29.107   7.955
 6841POPC   C4A18930   3.566  29.153   7.655
 6841POPC   C1B18931   3.587  28.886   8.555
 6841POPC   C2B18932   3.538  28.875   8.255
 6841POPC   C3B18933   3.578  28.847   7.955
 6841POPC   C4B18934   3.500  28.937   7.655
 6842POPC   NC318935   1.192   0.416   9.455
 6842POPC   PO418936   1.177   0.454   9.155
 6842POPC   GL118937   1.190   0.404   8.855
 6842POPC   GL218938   1.165   0.316   8.855
 6842POPC   C1A18939   1.230   0.442   8.555
 6842POPC   D2A18940   1.254   0.453   8.255
 6842POPC   C3A18941   1.255   0.483   7.955
 6842POPC   C4A18942   1.222   0.475   7.655
 6842POPC   C1B18943   1.192   0.188   8.555
 6842POPC   C2B18944   1.229   0.174   8.255
 6842POPC   C3B18945   1.146   0.180   7.955
 6842POPC   C4B18946   1.240   0.207   7.655
 6843POPC   NC318947  40.761  39.275   9.455
 6843POPC   PO418948  40.821  39.277   9.155
 6843POPC   GL118949  40.747  39.251   8.855
 6843POPC   GL218950  40.865  39.187   8.855
 6843POPC   C1A18951  40.812  39.215   8.555
 6843POPC   D2A18952  40.734  39.216   8.255
 6843POPC   C3A18953  40.759  39.244   7.955
 6843POPC   C4A18954  40.785  39.215   7.655
 6843POPC   C1B18955  41.006  39.103   8.555
 6843POPC   C2B18956  41.036  39.100   8.255
 6843POPC   C3B18957  40.971  39.070   7.955
 6843POPC   C4B18958  41.040  39.126   7.655
 6844POPC   NC318959  25.295   4.276   9.455
 6844POPC   PO418960  25.308   4.293   9.155
 6844POPC   GL118961  25.224   4.302   8.855
 6844POPC   GL218962  25.311   4.399   8.855
 6844POPC   C1A18963  25.293   4.274   8.555
 6844POPC   D2A18964  25.232   4.367   8.255
 6844POPC   C3A18965  25.275   4.305   7.955
 6844POPC   C4A18966  25.271   4.276   7.655
 6844POPC   C1B18967  25.388   4.554   8.555
 6844POPC   C2B18968  25.427   4.462   8.255
 6844POPC   C3B18969  25.475   4.510   7.955
 6844POPC   C4B18970  25.449   4.513   7.655
 6845POPC   NC318971  17.524  17.458   9.455
 6845POPC   PO418972  17.459  17.507   9.155
 6845POPC   GL118973  17.460  17.462   8.855
 6845POPC   GL218974  17.493  17.582   8.855
 6845POPC   C1A18975  17.477  17.538   8.555
 6845POPC   D2A18976  17.463  17.554   8.255
 6845POPC   C3A18977  17.539  17.508   7.955
 6845POPC   C4A18978  17.523  17.470   7.655
 6845POPC   C1B18979  17.524  17.753   8.555
 6845POPC   C2B18980  17.538  17.735   8.255
 6845POPC   C3B18981  17.604  17.763   7.955
 6845POPC   C4B18982  17.599  17.792   7.655
 6846POPC   NC318983  40.765  19.048   9.455
 6846POPC   PO418984  40.787  19.084   9.155
 6846POPC   GL118985  40.745  19.102   8.855
 6846POPC   GL218986  40.650  18.949   8.855
 6846POPC   C1A18987  40.757  19.102   8.555
 6846POPC   D2A18988  40.754  19.078   8.255
 6846POPC   C3A18989  40.797  19.098   7.955
 6846POPC   C4A18990  40.793  19.063   7.655
 6846POPC   C1B18991  40.573  18.941   8.555
 6846POPC   C2B18992  40.562  18.946   8.255
 6846POPC   C3B18993  40.594  18.911   7.955
 6846POPC   C4B18994  40.593  18.884   7.655
 6847POPC   NC318995   9.700  21.381   9.455
 6847POPC   PO418996   9.718  21.393   9.155
 6847POPC   GL118997   9.756  21.426   8.855
 6847POPC   GL218998   9.764  21.549   8.855
 6847POPC   C1A18999   9.767  21.350   8.555
 6847POPC   D2A19000   9.758  21.385   8.255
 6847POPC   C3A19001   9.744  21.394   7.955
 6847POPC   C4A19002   9.784  21.382   7.655
 6847POPC   C1B19003   9.724  21.666   8.555
 6847POPC   C2B19004   9.730  21.609   8.255
 6847POPC   C3B19005   9.768  21.618   7.955
 6847POPC   C4B19006   9.714  21.637   7.655
 6848POPC   NC319007  18.315   4.281   9.455
 6848POPC   PO419008  18.243   4.282   9.155
 6848POPC   GL119009  18.268   4.319   8.855
 6848POPC   GL219010  18.430   4.334   8.855
 6848POPC   C1A19011  18.236   4.295   8.555
 6848POPC   D2A19012  18.268   4.327   8.255
 6848POPC   C3A19013  18.249   4.294   7.955
 6848POPC   C4A19014  18.285   4.331   7.655
 6848POPC   C1B19015  18.539   4.354   8.555
 6848POPC   C2B19016  18.485   4.291   8.255
 6848POPC   C3B19017  18.504   4.328   7.955
 6848POPC   C4B19018  18.539   4.334   7.655
 6849POPC   NC319019   5.883  11.254   9.455
 6849POPC   PO419020   5.845  11.288   9.155
 6849POPC   GL119021   5.883  11.284   8.855
 6849POPC   GL219022   5.977  11.226   8.855
 6849POPC   C1A19023   5.836  11.323   8.555
 6849POPC   D2A19024   5.841  11.273   8.255
 6849POPC   C3A19025   5.848  11.287   7.955
 6849POPC   C4A19026   5.821  11.254   7.655
 6849POPC   C1B19027   6.055  11.188   8.555
 6849POPC   C2B19028   6.079  11.187   8.255
 6849POPC   C3B19029   6.149  11.204   7.955
 6849POPC   C4B19030   6.115  11.250   7.655
 6850POPC   NC319031   7.375  31.517   9.455
 6850POPC   PO419032   7.464  31.522   9.155
 6850POPC   GL119033   7.465  31.491   8.855
 6850POPC   GL219034   7.509  31.539   8.855
 6850POPC   C1A19035   7.373  31.440   8.555
 6850POPC   D2A19036   7.435  31.497   8.255
 6850POPC   C3A19037   7.465  31.452   7.955
 6850POPC   C4A19038   7.445  31.426   7.655
 6850POPC   C1B19039   7.498  31.736   8.555
 6850POPC   C2B19040   7.514  31.681   8.255
 6850POPC   C3B19041   7.554  31.651   7.955
 6850POPC   C4B19042   7.562  31.687   7.655
 6851POPC   NC319043  12.808  42.326   9.455
 6851POPC   PO419044  12.825  42.376   9.155
 6851POPC   GL119045  12.898  42.372   8.855
 6851POPC   GL219046  13.016  42.337   8.855
 6851POPC   C1A19047  12.897  42.345   8.555
 6851POPC   D2A19048  12.815  42.328   8.255
 6851POPC   C3A19049  12.848  42.372   7.955
 6851POPC   C4A19050  12.866  42.367   7.655
 6851POPC   C1B19051  13.136  42.297   8.555
 6851POPC   C2B19052  13.100  42.294   8.255
 6851POPC   C3B19053  13.080  42.224   7.955
 6851POPC   C4B19054  13.080  42.302   7.655
 6852POPC   NC319055  33.758  31.442   9.455
 6852POPC   PO419056  33.836  31.502   9.155
 6852POPC   GL119057  33.788  31.506   8.855
 6852POPC   GL219058  33.689  31.461   8.855
 6852POPC   C1A19059  33.822  31.452   8.555
 6852POPC   D2A19060  33.806  31.487   8.255
 6852POPC   C3A19061  33.760  31.498   7.955
 6852POPC   C4A19062  33.829  31.514   7.655
 6852POPC   C1B19063  33.521  31.390   8.555
 6852POPC   C2B19064  33.530  31.416   8.255
 6852POPC   C3B19065  33.577  31.371   7.955
 6852POPC   C4B19066  33.558  31.393   7.655
 6853POPC   NC319067  22.182  37.643   9.455
 6853POPC   PO419068  22.196  37.678   9.155
 6853POPC   GL119069  22.198  37.633   8.855
 6853POPC   GL219070  22.202  37.590   8.855
 6853POPC   C1A19071  22.113  37.685   8.555
 6853POPC   D2A19072  22.210  37.709   8.255
 6853POPC   C3A19073  22.149  37.647   7.955
 6853POPC   C4A19074  22.193  37.641   7.655
 6853POPC   C1B19075  22.187  37.475   8.555
 6853POPC   C2B19076  22.214  37.382   8.255
 6853POPC   C3B19077  22.221  37.407   7.955
 6853POPC   C4B19078  22.212  37.474   7.655
 6854POPC   NC319079  12.870  18.248   9.455
 6854POPC   PO419080  12.891  18.261   9.155
 6854POPC   GL119081  12.839  18.279   8.855
 6854POPC   GL219082  12.968  18.254   8.855
 6854POPC   C1A19083  12.807  18.304   8.555
 6854POPC   D2A19084  12.895  18.268   8.255
 6854POPC   C3A19085  12.893  18.235   7.955
 6854POPC   C4A19086  12.831  18.262   7.655
 6854POPC   C1B19087  13.027  18.196   8.555
 6854POPC   C2B19088  13.055  18.145   8.255
 6854POPC   C3B19089  13.062  18.139   7.955
 6854POPC   C4B19090  13.079  18.172   7.655
 6855POPC   NC319091  37.712  41.518   9.455
 6855POPC   PO419092  37.643  41.527   9.155
 6855POPC   GL119093  37.652  41.594   8.855
 6855POPC   GL219094  37.712  41.427   8.855
 6855POPC   C1A19095  37.702  41.530   8.555
 6855POPC   D2A19096  37.715  41.512   8.255
 6855POPC   C3A19097  37.660  41.520   7.955
 6855POPC   C4A19098  37.674  41.600   7.655
 6855POPC   C1B19099  37.761  41.327   8.555
 6855POPC   C2B19100  37.777  41.273   8.255
 6855POPC   C3B19101  37.735  41.331   7.955
 6855POPC   C4B19102  37.786  41.286   7.655
 6856POPC   NC319103   8.233   8.968   9.455
 6856POPC   PO419104   8.231   9.019   9.155
 6856POPC   GL119105   8.168   8.968   8.855
 6856POPC   GL219106   8.179   8.864   8.855
 6856POPC   C1A19107   8.246   8.983   8.555
 6856POPC   D2A19108   8.154   8.944   8.255
 6856POPC   C3A19109   8.231   8.923   7.955
 6856POPC   C4A19110   8.189   8.970   7.655
 6856POPC   C1B19111   8.270   8.765   8.555
 6856POPC   C2B19112   8.214   8.748   8.255
 6856POPC   C3B19113   8.273   8.756   7.955
 6856POPC   C4B19114   8.295   8.719   7.655
 6857POPC   NC319115  26.022  15.134   9.455
 6857POPC   PO419116  26.064  15.147   9.155
 6857POPC   GL119117  26.068  15.227   8.855
 6857POPC   GL219118  26.135  15.245   8.855
 6857POPC   C1A19119  26.044  15.210   8.555
 6857POPC   D2A19120  26.037  15.218   8.255
 6857POPC   C3A19121  26.038  15.195   7.955
 6857POPC   C4A19122  26.028  15.145   7.655
 6857POPC   C1B19123  26.326  15.232   8.555
 6857POPC   C2B19124  26.270  15.229   8.255
 6857POPC   C3B19125  26.290  15.190   7.955
 6857POPC   C4B19126  26.245  15.201   7.655
 6858POPC   NC319127  12.824   8.159   9.455
 6858POPC   PO419128  12.881   8.157   9.155
 6858POPC   GL119129  12.880   8.192   8.855
 6858POPC   GL219130  13.011   8.150   8.855
 6858POPC   C1A19131  12.842   8.226   8.555
 6858POPC   D2A19132  12.868   8.164   8.255
 6858POPC   C3A19133  12.837   8.211   7.955
 6858POPC   C4A19134  12.808   8.168   7.655
 6858POPC   C1B19135  13.067   8.187   8.555
 6858POPC   C2B19136  13.140   8.219   8.255
 6858POPC   C3B19137  13.102   8.154   7.955
 6858POPC   C4B19138  13.054   8.172   7.655
 6859POPC   NC319139  29.961  43.926   9.455
 6859POPC   PO419140  29.898  43.903   9.155
 6859POPC   GL119141  29.958  43.843   8.855
 6859POPC   GL219142  29.884  43.773   8.855
 6859POPC   C1A19143  29.919  43.904   8.555
 6859POPC   D2A19144  29.905  43.924   8.255
 6859POPC   C3A19145  29.894  43.879   7.955
 6859POPC   C4A19146  29.947  43.894   7.655
 6859POPC   C1B19147  29.903  43.656   8.555
 6859POPC   C2B19148  29.902  43.633   8.255
 6859POPC   C3B19149  29.918  43.684   7.955
 6859POPC   C4B19150  29.961  43.605   7.655
 6860POPC   NC319151  30.741   4.320   9.455
 6860POPC   PO419152  30.741   4.307   9.155
 6860POPC   GL119153  30.654   4.306   8.855
 6860POPC   GL219154  30.648   4.464   8.855
 6860POPC   C1A19155  30.675   4.318   8.555
 6860POPC   D2A19156  30.675   4.294   8.255
 6860POPC   C3A19157  30.664   4.344   7.955
 6860POPC   C4A19158  30.741   4.304   7.655
 6860POPC   C1B19159  30.638   4.560   8.555
 6860POPC   C2B19160  30.714   4.612   8.255
 6860POPC   C3B19161  30.639   4.569   7.955
 6860POPC   C4B19162  30.703   4.599   7.655
 6861POPC   NC319163  16.779  17.553   9.455
 6861POPC   PO419164  16.734  17.543   9.155
 6861POPC   GL119165  16.708  17.510   8.855
 6861POPC   GL219166  16.780  17.591   8.855
 6861POPC   C1A19167  16.705  17.462   8.555
 6861POPC   D2A19168  16.718  17.534   8.255
 6861POPC   C3A19169  16.705  17.528   7.955
 6861POPC   C4A19170  16.764  17.546   7.655
 6861POPC   C1B19171  16.829  17.765   8.555
 6861POPC   C2B19172  16.812  17.715   8.255
 6861POPC   C3B19173  16.819  17.760   7.955
 6861POPC   C4B19174  16.856  17.756   7.655
 6862POPC   NC319175  40.768  13.631   9.455
 6862POPC   PO419176  40.745  13.600   9.155
 6862POPC   GL119177  40.793  13.618   8.855
 6862POPC   GL219178  40.796  13.551   8.855
 6862POPC   C1A19179  40.747  13.628   8.555
 6862POPC   D2A19180  40.814  13.622   8.255
 6862POPC   C3A19181  40.776  13.632   7.955
 6862POPC   C4A19182  40.815  13.623   7.655
 6862POPC   C1B19183  40.712  13.340   8.555
 6862POPC   C2B19184  40.740  13.394   8.255
 6862POPC   C3B19185  40.746  13.400   7.955
 6862POPC   C4B19186  40.736  13.376   7.655
 6863POPC   NC319187  37.668  33.839   9.455
 6863POPC   PO419188  37.658  33.764   9.155
 6863POPC   GL119189  37.646  33.792   8.855
 6863POPC   GL219190  37.785  33.894   8.855
 6863POPC   C1A19191  37.693  33.768   8.555
 6863POPC   D2A19192  37.696  33.818   8.255
 6863POPC   C3A19193  37.644  33.774   7.955
 6863POPC   C4A19194  37.655  33.788   7.655
 6863POPC   C1B19195  37.830  33.940   8.555
 6863POPC   C2B19196  37.894  34.000   8.255
 6863POPC   C3B19197  37.893  33.989   7.955
 6863POPC   C4B19198  37.814  34.020   7.655
 6864POPC   NC319199  13.640   5.843   9.455
 6864POPC   PO419200  13.620   5.836   9.155
 6864POPC   GL119201  13.617   5.866   8.855
 6864POPC   GL219202  13.645   5.753   8.855
 6864POPC   C1A19203  13.665   5.831   8.555
 6864POPC   D2A19204  13.623   5.898   8.255
 6864POPC   C3A19205  13.665   5.919   7.955
 6864POPC   C4A19206  13.587   5.861   7.655
 6864POPC   C1B19207  13.696   5.669   8.555
 6864POPC   C2B19208  13.686   5.593   8.255
 6864POPC   C3B19209  13.723   5.622   7.955
 6864POPC   C4B19210  13.722   5.637   7.655
 6865POPC   NC319211  32.271   2.762   9.455
 6865POPC   PO419212  32.221   2.730   9.155
 6865POPC   GL119213  32.274   2.736   8.855
 6865POPC   GL219214  32.309   2.842   8.855
 6865POPC   C1A19215  32.285   2.757   8.555
 6865POPC   D2A19216  32.222   2.765   8.255
 6865POPC   C3A19217  32.208   2.803   7.955
 6865POPC   C4A19218  32.201   2.806   7.655
 6865POPC   C1B19219  32.488   2.919   8.555
 6865POPC   C2B19220  32.446   2.936   8.255
 6865POPC   C3B19221  32.409   2.908   7.955
 6865POPC   C4B19222  32.412   2.896   7.655
 6866POPC   NC319223  40.010  27.577   9.455
 6866POPC   PO419224  39.976  27.636   9.155
 6866POPC   GL119225  40.020  27.548   8.855
 6866POPC   GL219226  40.127  27.576   8.855
 6866POPC   C1A19227  39.963  27.562   8.555
 6866POPC   D2A19228  40.029  27.577   8.255
 6866POPC   C3A19229  39.983  27.594   7.955
 6866POPC   C4A19230  39.989  27.639   7.655
 6866POPC   C1B19231  40.185  27.433   8.555
 6866POPC   C2B19232  40.178  27.493   8.255
 6866POPC   C3B19233  40.184  27.488   7.955
 6866POPC   C4B19234  40.209  27.442   7.655
 6867POPC   NC319235  10.506   2.755   9.455
 6867POPC   PO419236  10.560   2.796   9.155
 6867POPC   GL119237  10.513   2.795   8.855
 6867POPC   GL219238  10.523   2.882   8.855
 6867POPC   C1A19239  10.557   2.806   8.555
 6867POPC   D2A19240  10.566   2.777   8.255
 6867POPC   C3A19241  10.517   2.758   7.955
 6867POPC   C4A19242  10.516   2.784   7.655
 6867POPC   C1B19243  10.554   2.980   8.555
 6867POPC   C2B19244  10.602   2.998   8.255
 6867POPC   C3B19245  10.601   3.025   7.955
 6867POPC   C4B19246  10.622   2.971   7.655
 6868POPC   NC319247  30.689  12.875   9.455
 6868POPC   PO419248  30.659  12.878   9.155
 6868POPC   GL119249  30.681  12.845   8.855
 6868POPC   GL219250  30.665  12.942   8.855
 6868POPC   C1A19251  30.656  12.852   8.555
 6868POPC   D2A19252  30.712  12.812   8.255
 6868POPC   C3A19253  30.706  12.862   7.955
 6868POPC   C4A19254  30.675  12.865   7.655
 6868POPC   C1B19255  30.705  13.130   8.555
 6868POPC   C2B19256  30.749  13.080   8.255
 6868POPC   C3B19257  30.774  13.051   7.955
 6868POPC   C4B19258  30.737  13.101   7.655
 6869POPC   NC319259  23.738  29.898   9.455
 6869POPC   PO419260  23.667  29.966   9.155
 6869POPC   GL119261  23.711  29.897   8.855
 6869POPC   GL219262  23.864  29.901   8.855
 6869POPC   C1A19263  23.691  29.914   8.555
 6869POPC   D2A19264  23.742  29.894   8.255
 6869POPC   C3A19265  23.680  29.932   7.955
 6869POPC   C4A19266  23.712  29.921   7.655
 6869POPC   C1B19267  23.924  29.803   8.555
 6869POPC   C2B19268  23.936  29.839   8.255
 6869POPC   C3B19269  23.894  29.767   7.955
 6869POPC   C4B19270  23.958  29.754   7.655
 6870POPC   NC319271  27.634  42.303   9.455
 6870POPC   PO419272  27.611  42.304   9.155
 6870POPC   GL119273  27.564  42.307   8.855
 6870POPC   GL219274  27.533  42.413   8.855
 6870POPC   C1A19275  27.551  42.345   8.555
 6870POPC   D2A19276  27.596  42.330   8.255
 6870POPC   C3A19277  27.629  42.337   7.955
 6870POPC   C4A19278  27.556  42.353   7.655
 6870POPC   C1B19279  27.500  42.541   8.555
 6870POPC   C2B19280  27.490  42.538   8.255
 6870POPC   C3B19281  27.474  42.582   7.955
 6870POPC   C4B19282  27.478  42.584   7.655
 6871POPC   NC319283  41.513  36.875   9.455
 6871POPC   PO419284  41.519  36.857   9.155
 6871POPC   GL119285  41.565  36.934   8.855
 6871POPC   GL219286  41.517  37.012   8.855
 6871POPC   C1A19287  41.520  36.949   8.555
 6871POPC   D2A19288  41.574  36.897   8.255
 6871POPC   C3A19289  41.544  36.951   7.955
 6871POPC   C4A19290  41.599  36.872   7.655
 6871POPC   C1B19291  41.434  37.088   8.555
 6871POPC   C2B19292  41.378  37.064   8.255
 6871POPC   C3B19293  41.428  37.095   7.955
 6871POPC   C4B19294  41.417  37.079   7.655
 6872POPC   NC319295  34.546  10.490   9.455
 6872POPC   PO419296  34.607  10.475   9.155
 6872POPC   GL119297  34.567  10.567   8.855
 6872POPC   GL219298  34.455  10.496   8.855
 6872POPC   C1A19299  34.615  10.485   8.555
 6872POPC   D2A19300  34.548  10.486   8.255
 6872POPC   C3A19301  34.562  10.488   7.955
 6872POPC   C4A19302  34.527  10.525   7.655
 6872POPC   C1B19303  34.345  10.372   8.555
 6872POPC   C2B19304  34.388  10.354   8.255
 6872POPC   C3B19305  34.367  10.394   7.955
 6872POPC   C4B19306  34.323  10.430   7.655
 6873POPC   NC319307  19.878  25.247   9.455
 6873POPC   PO419308  19.863  25.238   9.155
 6873POPC   GL119309  19.857  25.307   8.855
 6873POPC   GL219310  19.901  25.127   8.855
 6873POPC   C1A19311  19.814  25.270   8.555
 6873POPC   D2A19312  19.816  25.253   8.255
 6873POPC   C3A19313  19.822  25.233   7.955
 6873POPC   C4A19314  19.801  25.312   7.655
 6873POPC   C1B19315  19.883  25.054   8.555
 6873POPC   C2B19316  19.892  25.013   8.255
 6873POPC   C3B19317  19.861  24.990   7.955
 6873POPC   C4B19318  19.917  25.033   7.655
 6874POPC   NC319319   2.730  43.836   9.455
 6874POPC   PO419320   2.752  43.870   9.155
 6874POPC   GL119321   2.720  43.889   8.855
 6874POPC   GL219322   2.779  43.812   8.855
 6874POPC   C1A19323   2.813  43.855   8.555
 6874POPC   D2A19324   2.786  43.852   8.255
 6874POPC   C3A19325   2.806  43.881   7.955
 6874POPC   C4A19326   2.761  43.874   7.655
 6874POPC   C1B19327   2.810  43.637   8.555
 6874POPC   C2B19328   2.886  43.618   8.255
 6874POPC   C3B19329   2.865  43.618   7.955
 6874POPC   C4B19330   2.883  43.637   7.655
 6875POPC   NC319331  29.943  29.948   9.455
 6875POPC   PO419332  29.901  29.967   9.155
 6875POPC   GL119333  29.919  29.925   8.855
 6875POPC   GL219334  29.792  29.994   8.855
 6875POPC   C1A19335  29.908  29.907   8.555
 6875POPC   D2A19336  29.892  29.915   8.255
 6875POPC   C3A19337  29.925  29.909   7.955
 6875POPC   C4A19338  29.961  29.880   7.655
 6875POPC   C1B19339  29.701  30.071   8.555
 6875POPC   C2B19340  29.741  30.103   8.255
 6875POPC   C3B19341  29.730  30.119   7.955
 6875POPC   C4B19342  29.746  30.074   7.655
 6876POPC   NC319343  20.598  41.538   9.455
 6876POPC   PO419344  20.578  41.559   9.155
 6876POPC   GL119345  20.613  41.599   8.855
 6876POPC   GL219346  20.780  41.593   8.855
 6876POPC   C1A19347  20.628  41.562   8.555
 6876POPC   D2A19348  20.658  41.524   8.255
 6876POPC   C3A19349  20.639  41.547   7.955
 6876POPC   C4A19350  20.648  41.565   7.655
 6876POPC   C1B19351  20.860  41.528   8.555
 6876POPC   C2B19352  20.860  41.551   8.255
 6876POPC   C3B19353  20.817  41.573   7.955
 6876POPC   C4B19354  20.869  41.572   7.655
 6877POPC   NC319355  11.256   5.869   9.455
 6877POPC   PO419356  11.280   5.887   9.155
 6877POPC   GL119357  11.330   5.852   8.855
 6877POPC   GL219358  11.227   5.841   8.855
 6877POPC   C1A19359  11.342   5.906   8.555
 6877POPC   D2A19360  11.267   5.852   8.255
 6877POPC   C3A19361  11.252   5.911   7.955
 6877POPC   C4A19362  11.296   5.830   7.655
 6877POPC   C1B19363  11.023   5.760   8.555
 6877POPC   C2B19364  11.109   5.782   8.255
 6877POPC   C3B19365  11.048   5.811   7.955
 6877POPC   C4B19366  11.064   5.739   7.655
 6878POPC   NC319367  40.017  20.602   9.455
 6878POPC   PO419368  40.026  20.566   9.155
 6878POPC   GL119369  39.957  20.655   8.855
 6878POPC   GL219370  39.932  20.494   8.855
 6878POPC   C1A19371  40.026  20.627   8.555
 6878POPC   D2A19372  39.960  20.631   8.255
 6878POPC   C3A19373  40.044  20.582   7.955
 6878POPC   C4A19374  40.053  20.613   7.655
 6878POPC   C1B19375  39.766  20.419   8.555
 6878POPC   C2B19376  39.827  20.511   8.255
 6878POPC   C3B19377  39.841  20.441   7.955
 6878POPC   C4B19378  39.844  20.458   7.655
 6879POPC   NC319379  39.986  19.034   9.455
 6879POPC   PO419380  40.048  19.026   9.155
 6879POPC   GL119381  40.051  19.068   8.855
 6879POPC   GL219382  39.947  19.141   8.855
 6879POPC   C1A19383  40.019  19.009   8.555
 6879POPC   D2A19384  40.038  19.047   8.255
 6879POPC   C3A19385  40.001  19.025   7.955
 6879POPC   C4A19386  40.055  19.069   7.655
 6879POPC   C1B19387  39.841  19.251   8.555
 6879POPC   C2B19388  39.858  19.221   8.255
 6879POPC   C3B19389  39.847  19.233   7.955
 6879POPC   C4B19390  39.842  19.199   7.655
 6880POPC   NC319391  22.945   3.499   9.455
 6880POPC   PO419392  22.952   3.517   9.155
 6880POPC   GL119393  22.975   3.510   8.855
 6880POPC   GL219394  22.972   3.672   8.855
 6880POPC   C1A19395  22.895   3.499   8.555
 6880POPC   D2A19396  22.897   3.570   8.255
 6880POPC   C3A19397  22.977   3.527   7.955
 6880POPC   C4A19398  22.934   3.532   7.655
 6880POPC   C1B19399  23.062   3.777   8.555
 6880POPC   C2B19400  23.078   3.758   8.255
 6880POPC   C3B19401  23.092   3.717   7.955
 6880POPC   C4B19402  23.027   3.804   7.655
 6881POPC   NC319403  39.261  43.153   9.455
 6881POPC   PO419404  39.208  43.140   9.155
 6881POPC   GL119405  39.191  43.096   8.855
 6881POPC   GL219406  39.092  43.051   8.855
 6881POPC   C1A19407  39.219  43.072   8.555
 6881POPC   D2A19408  39.189  43.152   8.255
 6881POPC   C3A19409  39.227  43.125   7.955
 6881POPC   C4A19410  39.185  43.064   7.655
 6881POPC   C1B19411  39.068  42.932   8.555
 6881POPC   C2B19412  39.071  42.990   8.255
 6881POPC   C3B19413  39.085  42.978   7.955
 6881POPC   C4B19414  39.079  42.932   7.655
 6882POPC   NC319415  29.906  40.761   9.455
 6882POPC   PO419416  29.874  40.795   9.155
 6882POPC   GL119417  29.898  40.798   8.855
 6882POPC   GL219418  29.816  40.876   8.855
 6882POPC   C1A19419  29.885  40.741   8.555
 6882POPC   D2A19420  29.959  40.766   8.255
 6882POPC   C3A19421  29.963  40.797   7.955
 6882POPC   C4A19422  29.876  40.752   7.655
 6882POPC   C1B19423  29.800  40.989   8.555
 6882POPC   C2B19424  29.809  41.004   8.255
 6882POPC   C3B19425  29.755  41.028   7.955
 6882POPC   C4B19426  29.766  41.025   7.655
 6883POPC   NC319427   2.786  21.340   9.455
 6883POPC   PO419428   2.789  21.341   9.155
 6883POPC   GL119429   2.755  21.398   8.855
 6883POPC   GL219430   2.855  21.364   8.855
 6883POPC   C1A19431   2.752  21.375   8.555
 6883POPC   D2A19432   2.720  21.341   8.255
 6883POPC   C3A19433   2.795  21.430   7.955
 6883POPC   C4A19434   2.743  21.372   7.655
 6883POPC   C1B19435   3.045  21.362   8.555
 6883POPC   C2B19436   2.990  21.350   8.255
 6883POPC   C3B19437   3.036  21.320   7.955
 6883POPC   C4B19438   3.053  21.281   7.655
 6884POPC   NC319439  40.792  44.702   9.455
 6884POPC   PO419440  40.813  44.615   9.155
 6884POPC   GL119441  40.764  44.685   8.855
 6884POPC   GL219442  40.721  44.553   8.855
 6884POPC   C1A19443  40.791  44.633   8.555
 6884POPC   D2A19444  40.792  44.652   8.255
 6884POPC   C3A19445  40.785  44.687   7.955
 6884POPC   C4A19446  40.817  44.613   7.655
 6884POPC   C1B19447  40.599  44.570   8.555
 6884POPC   C2B19448  40.601  44.483   8.255
 6884POPC   C3B19449  40.532  44.561   7.955
 6884POPC   C4B19450  40.621  44.544   7.655
 6885POPC   NC319451   3.492  37.692   9.455
 6885POPC   PO419452   3.555  37.715   9.155
 6885POPC   GL119453   3.528  37.719   8.855
 6885POPC   GL219454   3.453  37.678   8.855
 6885POPC   C1A19455   3.519  37.687   8.555
 6885POPC   D2A19456   3.566  37.715   8.255
 6885POPC   C3A19457   3.524  37.719   7.955
 6885POPC   C4A19458   3.553  37.632   7.655
 6885POPC   C1B19459   3.263  37.673   8.555
 6885POPC   C2B19460   3.332  37.665   8.255
 6885POPC   C3B19461   3.258  37.658   7.955
 6885POPC   C4B19462   3.245  37.664   7.655
 6886POPC   NC319463  27.618  12.033   9.455
 6886POPC   PO419464  27.637  12.089   9.155
 6886POPC   GL119465  27.595  12.108   8.855
 6886POPC   GL219466  27.642  11.944   8.855
 6886POPC   C1A19467  27.557  12.112   8.555
 6886POPC   D2A19468  27.610  12.087   8.255
 6886POPC   C3A19469  27.564  12.056   7.955
 6886POPC   C4A19470  27.564  12.046   7.655
 6886POPC   C1B19471  27.610  11.823   8.555
 6886POPC   C2B19472  27.601  11.799   8.255
 6886POPC   C3B19473  27.645  11.799   7.955
 6886POPC   C4B19474  27.631  11.829   7.655
 6887POPC   NC319475   3.538  14.402   9.455
 6887POPC   PO419476   3.584  14.444   9.155
 6887POPC   GL119477   3.526  14.452   8.855
 6887POPC   GL219478   3.524  14.282   8.855
 6887POPC   C1A19479   3.589  14.451   8.555
 6887POPC   D2A19480   3.500  14.428   8.255
 6887POPC   C3A19481   3.504  14.385   7.955
 6887POPC   C4A19482   3.525  14.372   7.655
 6887POPC   C1B19483   3.413  14.151   8.555
 6887POPC   C2B19484   3.425  14.188   8.255
 6887POPC   C3B19485   3.454  14.227   7.955
 6887POPC   C4B19486   3.396  14.233   7.655
 6888POPC   NC319487  19.084  21.345   9.455
 6888POPC   PO419488  19.029  21.407   9.155
 6888POPC   GL119489  19.053  21.370   8.855
 6888POPC   GL219490  19.047  21.245   8.855
 6888POPC   C1A19491  19.079  21.351   8.555
 6888POPC   D2A19492  19.079  21.389   8.255
 6888POPC   C3A19493  19.022  21.405   7.955
 6888POPC   C4A19494  19.075  21.366   7.655
 6888POPC   C1B19495  19.109  21.118   8.555
 6888POPC   C2B19496  19.152  21.146   8.255
 6888POPC   C3B19497  19.126  21.187   7.955
 6888POPC   C4B19498  19.058  21.106   7.655
 6889POPC   NC319499  28.326  24.539   9.455
 6889POPC   PO419500  28.320  24.452   9.155
 6889POPC   GL119501  28.397  24.460   8.855
 6889POPC   GL219502  28.262  24.553   8.855
 6889POPC   C1A19503  28.391  24.522   8.555
 6889POPC   D2A19504  28.332  24.455   8.255
 6889POPC   C3A19505  28.362  24.522   7.955
 6889POPC   C4A19506  28.404  24.459   7.655
 6889POPC   C1B19507  28.298  24.665   8.555
 6889POPC   C2B19508  28.221  24.696   8.255
 6889POPC   C3B19509  28.242  24.672   7.955
 6889POPC   C4B19510  28.299  24.740   7.655
 6890POPC   NC319511  25.230   8.204   9.455
 6890POPC   PO419512  25.220   8.160   9.155
 6890POPC   GL119513  25.297   8.151   8.855
 6890POPC   GL219514  25.115   8.186   8.855
 6890POPC   C1A19515  25.284   8.191   8.555
 6890POPC   D2A19516  25.230   8.231   8.255
 6890POPC   C3A19517  25.244   8.178   7.955
 6890POPC   C4A19518  25.255   8.165   7.655
 6890POPC   C1B19519  25.011   8.073   8.555
 6890POPC   C2B19520  25.057   8.129   8.255
 6890POPC   C3B19521  24.996   8.072   7.955
 6890POPC   C4B19522  25.010   8.142   7.655
 6891POPC   NC319523   5.917  19.068   9.455
 6891POPC   PO419524   5.907  19.029   9.155
 6891POPC   GL119525   5.885  19.057   8.855
 6891POPC   GL219526   5.795  19.145   8.855
 6891POPC   C1A19527   5.881  19.065   8.555
 6891POPC   D2A19528   5.824  19.026   8.255
 6891POPC   C3A19529   5.886  19.055   7.955
 6891POPC   C4A19530   5.902  19.072   7.655
 6891POPC   C1B19531   5.741  19.301   8.555
 6891POPC   C2B19532   5.722  19.254   8.255
 6891POPC   C3B19533   5.719  19.290   7.955
 6891POPC   C4B19534   5.708  19.296   7.655
 6892POPC   NC319535   5.085  40.008   9.455
 6892POPC   PO419536   5.096  39.960   9.155
 6892POPC   GL119537   5.140  40.024   8.855
 6892POPC   GL219538   5.156  39.933   8.855
 6892POPC   C1A19539   5.070  40.000   8.555
 6892POPC   D2A19540   5.073  39.964   8.255
 6892POPC   C3A19541   5.094  40.027   7.955
 6892POPC   C4A19542   5.068  40.050   7.655
 6892POPC   C1B19543   5.314  39.823   8.555
 6892POPC   C2B19544   5.313  39.779   8.255
 6892POPC   C3B19545   5.279  39.786   7.955
 6892POPC   C4B19546   5.254  39.788   7.655
 6893POPC   NC319547   1.212   8.941   9.455
 6893POPC   PO419548   1.258   8.944   9.155
 6893POPC   GL119549   1.202   9.010   8.855
 6893POPC   GL219550   1.072   8.985   8.855
 6893POPC   C1A19551   1.249   8.986   8.555
 6893POPC   D2A19552   1.233   8.976   8.255
 6893POPC   C3A19553   1.242   8.984   7.955
 6893POPC   C4A19554   1.264   8.947   7.655
 6893POPC   C1B19555   0.994   9.043   8.555
 6893POPC   C2B19556   0.947   9.071   8.255
 6893POPC   C3B19557   0.979   9.065   7.955
 6893POPC   C4B19558   0.951   9.000   7.655
 6894POPC   NC319559  34.555   5.138   9.455
 6894POPC   PO419560  34.548   5.119   9.155
 6894POPC   GL119561  34.533   5.096   8.855
 6894POPC   GL219562  34.575   5.020   8.855
 6894POPC   C1A19563  34.596   5.077   8.555
 6894POPC   D2A19564  34.619   5.132   8.255
 6894POPC   C3A19565  34.607   5.059   7.955
 6894POPC   C4A19566  34.553   5.075   7.655
 6894POPC   C1B19567  34.659   4.808   8.555
 6894POPC   C2B19568  34.607   4.849   8.255
 6894POPC   C3B19569  34.649   4.848   7.955
 6894POPC   C4B19570  34.615   4.854   7.655
 6895POPC   NC319571   6.633  38.421   9.455
 6895POPC   PO419572   6.677  38.470   9.155
 6895POPC   GL119573   6.692  38.464   8.855
 6895POPC   GL219574   6.619  38.626   8.855
 6895POPC   C1A19575   6.644  38.476   8.555
 6895POPC   D2A19576   6.595  38.432   8.255
 6895POPC   C3A19577   6.619  38.482   7.955
 6895POPC   C4A19578   6.666  38.422   7.655
 6895POPC   C1B19579   6.678  38.710   8.555
 6895POPC   C2B19580   6.635  38.661   8.255
 6895POPC   C3B19581   6.637  38.752   7.955
 6895POPC   C4B19582   6.586  38.754   7.655
 6896POPC   NC319583  26.078   8.211   9.455
 6896POPC   PO419584  26.012   8.237   9.155
 6896POPC   GL119585  26.056   8.236   8.855
 6896POPC   GL219586  26.056   8.080   8.855
 6896POPC   C1A19587  26.026   8.179   8.555
 6896POPC   D2A19588  25.996   8.152   8.255
 6896POPC   C3A19589  26.007   8.188   7.955
 6896POPC   C4A19590  25.997   8.155   7.655
 6896POPC   C1B19591  26.065   7.987   8.555
 6896POPC   C2B19592  26.033   7.980   8.255
 6896POPC   C3B19593  26.035   7.988   7.955
 6896POPC   C4B19594  26.052   7.959   7.655
 6897POPC   NC319595  37.722  16.700   9.455
 6897POPC   PO419596  37.720  16.738   9.155
 6897POPC   GL119597  37.648  16.718   8.855
 6897POPC   GL219598  37.823  16.755   8.855
 6897POPC   C1A19599  37.662  16.759   8.555
 6897POPC   D2A19600  37.672  16.684   8.255
 6897POPC   C3A19601  37.728  16.706   7.955
 6897POPC   C4A19602  37.678  16.755   7.655
 6897POPC   C1B19603  37.939  16.757   8.555
 6897POPC   C2B19604  37.947  16.732   8.255
 6897POPC   C3B19605  37.923  16.775   7.955
 6897POPC   C4B19606  37.908  16.782   7.655
 6898POPC   NC319607  30.718  41.601   9.455
 6898POPC   PO419608  30.680  41.558   9.155
 6898POPC   GL119609  30.681  41.525   8.855
 6898POPC   GL219610  30.583  41.605   8.855
 6898POPC   C1A19611  30.716  41.545   8.555
 6898POPC   D2A19612  30.648  41.544   8.255
 6898POPC   C3A19613  30.699  41.522   7.955
 6898POPC   C4A19614  30.703  41.530   7.655
 6898POPC   C1B19615  30.556  41.694   8.555
 6898POPC   C2B19616  30.541  41.757   8.255
 6898POPC   C3B19617  30.525  41.761   7.955
 6898POPC   C4B19618  30.481  41.722   7.655
 6899POPC   NC319619  28.390   7.433   9.455
 6899POPC   PO419620  28.393   7.464   9.155
 6899POPC   GL119621  28.319   7.444   8.855
 6899POPC   GL219622  28.298   7.496   8.855
 6899POPC   C1A19623  28.384   7.375   8.555
 6899POPC   D2A19624  28.357   7.388   8.255
 6899POPC   C3A19625  28.338   7.412   7.955
 6899POPC   C4A19626  28.402   7.388   7.655
 6899POPC   C1B19627  28.136   7.606   8.555
 6899POPC   C2B19628  28.159   7.585   8.255
 6899POPC   C3B19629  28.189   7.567   7.955
 6899POPC   C4B19630  28.139   7.555   7.655
 6900POPC   NC319631   3.497  43.159   9.455
 6900POPC   PO419632   3.504  43.068   9.155
 6900POPC   GL119633   3.553  43.097   8.855
 6900POPC   GL219634   3.590  43.019   8.855
 6900POPC   C1A19635   3.515  43.101   8.555
 6900POPC   D2A19636   3.526  43.121   8.255
 6900POPC   C3A19637   3.522  43.151   7.955
 6900POPC   C4A19638   3.508  43.155   7.655
 6900POPC   C1B19639   3.731  42.939   8.555
 6900POPC   C2B19640   3.727  42.954   8.255
 6900POPC   C3B19641   3.782  42.944   7.955
 6900POPC   C4B19642   3.713  42.992   7.655
 6901POPC   NC319643  44.662   9.013   9.455
 6901POPC   PO419644  44.667   9.001   9.155
 6901POPC   GL119645  44.638   9.005   8.855
 6901POPC   GL219646  44.670   9.053   8.855
 6901POPC   C1A19647  44.622   9.015   8.555
 6901POPC   D2A19648  44.686   8.956   8.255
 6901POPC   C3A19649  44.629   8.926   7.955
 6901POPC   C4A19650  44.668   8.999   7.655
 6901POPC   C1B19651  44.783   9.168   8.555
 6901POPC   C2B19652  44.785   9.180   8.255
 6901POPC   C3B19653  44.773   9.240   7.955
 6901POPC   C4B19654  44.706   9.180   7.655
 6902POPC   NC319655  24.455  27.611   9.455
 6902POPC   PO419656  24.472  27.622   9.155
 6902POPC   GL119657  24.443  27.562   8.855
 6902POPC   GL219658  24.421  27.726   8.855
 6902POPC   C1A19659  24.522  27.565   8.555
 6902POPC   D2A19660  24.535  27.567   8.255
 6902POPC   C3A19661  24.521  27.632   7.955
 6902POPC   C4A19662  24.517  27.602   7.655
 6902POPC   C1B19663  24.380  27.821   8.555
 6902POPC   C2B19664  24.351  27.752   8.255
 6902POPC   C3B19665  24.301  27.836   7.955
 6902POPC   C4B19666  24.329  27.822   7.655
 6903POPC   NC319667  26.820   1.245   9.455
 6903POPC   PO419668  26.803   1.218   9.155
 6903POPC   GL119669  26.784   1.195   8.855
 6903POPC   GL219670  26.806   1.081   8.855
 6903POPC   C1A19671  26.833   1.177   8.555
 6903POPC   D2A19672  26.799   1.209   8.255
 6903POPC   C3A19673  26.852   1.186   7.955
 6903POPC   C4A19674  26.795   1.166   7.655
 6903POPC   C1B19675  26.732   0.981   8.555
 6903POPC   C2B19676  26.759   0.927   8.255
 6903POPC   C3B19677  26.720   0.945   7.955
 6903POPC   C4B19678  26.696   0.996   7.655
 6904POPC   NC319679  38.412  25.226   9.455
 6904POPC   PO419680  38.503  25.241   9.155
 6904POPC   GL119681  38.487  25.255   8.855
 6904POPC   GL219682  38.526  25.327   8.855
 6904POPC   C1A19683  38.499  25.222   8.555
 6904POPC   D2A19684  38.444  25.285   8.255
 6904POPC   C3A19685  38.479  25.232   7.955
 6904POPC   C4A19686  38.482  25.313   7.655
 6904POPC   C1B19687  38.663  25.435   8.555
 6904POPC   C2B19688  38.643  25.406   8.255
 6904POPC   C3B19689  38.578  25.419   7.955
 6904POPC   C4B19690  38.647  25.416   7.655
 6905POPC   NC319691   8.205   0.469   9.455
 6905POPC   PO419692   8.226   0.418   9.155
 6905POPC   GL119693   8.188   0.439   8.855
 6905POPC   GL219694   8.234   0.515   8.855
 6905POPC   C1A19695   8.157   0.412   8.555
 6905POPC   D2A19696   8.238   0.418   8.255
 6905POPC   C3A19697   8.191   0.449   7.955
 6905POPC   C4A19698   8.177   0.485   7.655
 6905POPC   C1B19699   8.282   0.656   8.555
 6905POPC   C2B19700   8.344   0.669   8.255
 6905POPC   C3B19701   8.328   0.672   7.955
 6905POPC   C4B19702   8.284   0.665   7.655
 6906POPC   NC319703  18.318   5.909   9.455
 6906POPC   PO419704  18.289   5.918   9.155
 6906POPC   GL119705  18.266   5.821   8.855
 6906POPC   GL219706  18.218   6.023   8.855
 6906POPC   C1A19707  18.238   5.895   8.555
 6906POPC   D2A19708  18.304   5.918   8.255
 6906POPC   C3A19709  18.269   5.854   7.955
 6906POPC   C4A19710  18.250   5.882   7.655
 6906POPC   C1B19711  18.193   6.145   8.555
 6906POPC   C2B19712  18.268   6.134   8.255
 6906POPC   C3B19713  18.188   6.161   7.955
 6906POPC   C4B19714  18.203   6.150   7.655
 6907POPC   NC319715  41.514   8.169   9.455
 6907POPC   PO419716  41.516   8.214   9.155
 6907POPC   GL119717  41.544   8.242   8.855
 6907POPC   GL219718  41.395   8.208   8.855
 6907POPC   C1A19719  41.571   8.183   8.555
 6907POPC   D2A19720  41.573   8.225   8.255
 6907POPC   C3A19721  41.565   8.193   7.955
 6907POPC   C4A19722  41.604   8.244   7.655
 6907POPC   C1B19723  41.271   8.183   8.555
 6907POPC   C2B19724  41.310   8.168   8.255
 6907POPC   C3B19725  41.263   8.193   7.955
 6907POPC   C4B19726  41.354   8.155   7.655
 6908POPC   NC319727  36.169  29.969   9.455
 6908POPC   PO419728  36.103  29.920   9.155
 6908POPC   GL119729  36.112  29.890   8.855
 6908POPC   GL219730  36.034  29.883   8.855
 6908POPC   C1A19731  36.082  29.920   8.555
 6908POPC   D2A19732  36.170  29.900   8.255
 6908POPC   C3A19733  36.089  29.943   7.955
 6908POPC   C4A19734  36.100  29.902   7.655
 6908POPC   C1B19735  35.948  29.804   8.555
 6908POPC   C2B19736  35.962  29.789   8.255
 6908POPC   C3B19737  35.900  29.741   7.955
 6908POPC   C4B19738  35.965  29.759   7.655
 6909POPC   NC319739   1.190   5.095   9.455
 6909POPC   PO419740   1.262   5.055   9.155
 6909POPC   GL119741   1.176   5.075   8.855
 6909POPC   GL219742   1.259   5.024   8.855
 6909POPC   C1A19743   1.239   5.114   8.555
 6909POPC   D2A19744   1.241   5.058   8.255
 6909POPC   C3A19745   1.172   5.063   7.955
 6909POPC   C4A19746   1.230   5.102   7.655
 6909POPC   C1B19747   1.334   4.879   8.555
 6909POPC   C2B19748   1.338   4.908   8.255
 6909POPC   C3B19749   1.424   4.892   7.955
 6909POPC   C4B19750   1.413   4.933   7.655
 6910POPC   NC319751  17.491  23.691   9.455
 6910POPC   PO419752  17.551  23.667   9.155
 6910POPC   GL119753  17.486  23.737   8.855
 6910POPC   GL219754  17.581  23.841   8.855
 6910POPC   C1A19755  17.522  23.735   8.555
 6910POPC   D2A19756  17.522  23.699   8.255
 6910POPC   C3A19757  17.539  23.705   7.955
 6910POPC   C4A19758  17.549  23.678   7.655
 6910POPC   C1B19759  17.570  23.988   8.555
 6910POPC   C2B19760  17.602  23.937   8.255
 6910POPC   C3B19761  17.568  23.951   7.955
 6910POPC   C4B19762  17.640  23.928   7.655
 6911POPC   NC319763   3.583  39.183   9.455
 6911POPC   PO419764   3.536  39.234   9.155
 6911POPC   GL119765   3.532  39.279   8.855
 6911POPC   GL219766   3.661  39.162   8.855
 6911POPC   C1A19767   3.521  39.257   8.555
 6911POPC   D2A19768   3.558  39.230   8.255
 6911POPC   C3A19769   3.563  39.257   7.955
 6911POPC   C4A19770   3.562  39.216   7.655
 6911POPC   C1B19771   3.768  39.072   8.555
 6911POPC   C2B19772   3.768  39.071   8.255
 6911POPC   C3B19773   3.771  39.114   7.955
 6911POPC   C4B19774   3.760  39.056   7.655
 6912POPC   NC319775  21.348  42.384   9.455
 6912POPC   PO419776  21.428  42.294   9.155
 6912POPC   GL119777  21.421  42.287   8.855
 6912POPC   GL219778  21.382  42.438   8.855
 6912POPC   C1A19779  21.405  42.374   8.555
 6912POPC   D2A19780  21.434  42.319   8.255
 6912POPC   C3A19781  21.368  42.379   7.955
 6912POPC   C4A19782  21.422  42.288   7.655
 6912POPC   C1B19783  21.408  42.620   8.555
 6912POPC   C2B19784  21.410  42.622   8.255
 6912POPC   C3B19785  21.438  42.578   7.955
 6912POPC   C4B19786  21.405  42.562   7.655
 6913POPC   NC319787  17.509  31.429   9.455
 6913POPC   PO419788  17.481  31.487   9.155
 6913POPC   GL119789  17.482  31.443   8.855
 6913POPC   GL219790  17.607  31.544   8.855
 6913POPC   C1A19791  17.525  31.438   8.555
 6913POPC   D2A19792  17.538  31.510   8.255
 6913POPC   C3A19793  17.460  31.429   7.955
 6913POPC   C4A19794  17.521  31.452   7.655
 6913POPC   C1B19795  17.722  31.554   8.555
 6913POPC   C2B19796  17.747  31.565   8.255
 6913POPC   C3B19797  17.729  31.486   7.955
 6913POPC   C4B19798  17.783  31.542   7.655
 6914POPC   NC319799  37.717  38.421   9.455
 6914POPC   PO419800  37.675  38.454   9.155
 6914POPC   GL119801  37.725  38.443   8.855
 6914POPC   GL219802  37.529  38.550   8.855
 6914POPC   C1A19803  37.683  38.425   8.555
 6914POPC   D2A19804  37.699  38.476   8.255
 6914POPC   C3A19805  37.664  38.427   7.955
 6914POPC   C4A19806  37.667  38.501   7.655
 6914POPC   C1B19807  37.428  38.582   8.555
 6914POPC   C2B19808  37.434  38.553   8.255
 6914POPC   C3B19809  37.505  38.629   7.955
 6914POPC   C4B19810  37.446  38.564   7.655
 6915POPC   NC319811  12.068  39.959   9.455
 6915POPC   PO419812  12.083  39.999   9.155
 6915POPC   GL119813  12.089  40.054   8.855
 6915POPC   GL219814  12.066  39.918   8.855
 6915POPC   C1A19815  12.103  40.005   8.555
 6915POPC   D2A19816  12.079  39.976   8.255
 6915POPC   C3A19817  12.119  39.960   7.955
 6915POPC   C4A19818  12.094  40.049   7.655
 6915POPC   C1B19819  11.957  39.806   8.555
 6915POPC   C2B19820  11.989  39.733   8.255
 6915POPC   C3B19821  12.013  39.736   7.955
 6915POPC   C4B19822  12.000  39.786   7.655
 6916POPC   NC319823  29.147  24.458   9.455
 6916POPC   PO419824  29.188  24.445   9.155
 6916POPC   GL119825  29.167  24.522   8.855
 6916POPC   GL219826  29.099  24.392   8.855
 6916POPC   C1A19827  29.116  24.492   8.555
 6916POPC   D2A19828  29.119  24.514   8.255
 6916POPC   C3A19829  29.180  24.515   7.955
 6916POPC   C4A19830  29.154  24.515   7.655
 6916POPC   C1B19831  28.990  24.292   8.555
 6916POPC   C2B19832  28.931  24.283   8.255
 6916POPC   C3B19833  28.951  24.321   7.955
 6916POPC   C4B19834  28.984  24.321   7.655
 6917POPC   NC319835  39.983   6.604   9.455
 6917POPC   PO419836  39.970   6.668   9.155
 6917POPC   GL119837  40.016   6.667   8.855
 6917POPC   GL219838  40.025   6.802   8.855
 6917POPC   C1A19839  39.975   6.690   8.555
 6917POPC   D2A19840  39.987   6.677   8.255
 6917POPC   C3A19841  40.040   6.669   7.955
 6917POPC   C4A19842  39.977   6.641   7.655
 6917POPC   C1B19843  40.102   6.839   8.555
 6917POPC   C2B19844  40.080   6.879   8.255
 6917POPC   C3B19845  40.112   6.912   7.955
 6917POPC   C4B19846  40.160   6.853   7.655
 6918POPC   NC319847  41.575  25.219   9.455
 6918POPC   PO419848  41.521  25.255   9.155
 6918POPC   GL119849  41.569  25.257   8.855
 6918POPC   GL219850  41.473  25.294   8.855
 6918POPC   C1A19851  41.592  25.279   8.555
 6918POPC   D2A19852  41.585  25.229   8.255
 6918POPC   C3A19853  41.559  25.216   7.955
 6918POPC   C4A19854  41.525  25.261   7.655
 6918POPC   C1B19855  41.403  25.433   8.555
 6918POPC   C2B19856  41.402  25.465   8.255
 6918POPC   C3B19857  41.372  25.463   7.955
 6918POPC   C4B19858  41.378  25.373   7.655
 6919POPC   NC319859  10.508  25.233   9.455
 6919POPC   PO419860  10.540  25.314   9.155
 6919POPC   GL119861  10.554  25.276   8.855
 6919POPC   GL219862  10.590  25.370   8.855
 6919POPC   C1A19863  10.536  25.300   8.555
 6919POPC   D2A19864  10.508  25.297   8.255
 6919POPC   C3A19865  10.567  25.239   7.955
 6919POPC   C4A19866  10.480  25.230   7.655
 6919POPC   C1B19867  10.729  25.414   8.555
 6919POPC   C2B19868  10.730  25.462   8.255
 6919POPC   C3B19869  10.739  25.409   7.955
 6919POPC   C4B19870  10.686  25.433   7.655
 6920POPC   NC319871   5.901   7.438   9.455
 6920POPC   PO419872   5.881   7.406   9.155
 6920POPC   GL119873   5.913   7.404   8.855
 6920POPC   GL219874   5.980   7.428   8.855
 6920POPC   C1A19875   5.913   7.451   8.555
 6920POPC   D2A19876   5.847   7.428   8.255
 6920POPC   C3A19877   5.905   7.416   7.955
 6920POPC   C4A19878   5.885   7.447   7.655
 6920POPC   C1B19879   6.138   7.466   8.555
 6920POPC   C2B19880   6.107   7.402   8.255
 6920POPC   C3B19881   6.126   7.403   7.955
 6920POPC   C4B19882   6.155   7.467   7.655
 6921POPC   NC319883  15.944  41.538   9.455
 6921POPC   PO419884  15.973  41.553   9.155
 6921POPC   GL119885  15.924  41.582   8.855
 6921POPC   GL219886  16.084  41.485   8.855
 6921POPC   C1A19887  15.984  41.577   8.555
 6921POPC   D2A19888  15.935  41.579   8.255
 6921POPC   C3A19889  15.994  41.561   7.955
 6921POPC   C4A19890  15.948  41.517   7.655
 6921POPC   C1B19891  16.180  41.468   8.555
 6921POPC   C2B19892  16.223  41.488   8.255
 6921POPC   C3B19893  16.175  41.449   7.955
 6921POPC   C4B19894  16.177  41.420   7.655
 6922POPC   NC319895   5.869  43.878   9.455
 6922POPC   PO419896   5.855  43.890   9.155
 6922POPC   GL119897   5.820  43.866   8.855
 6922POPC   GL219898   5.904  43.791   8.855
 6922POPC   C1A19899   5.840  43.867   8.555
 6922POPC   D2A19900   5.883  43.845   8.255
 6922POPC   C3A19901   5.916  43.872   7.955
 6922POPC   C4A19902   5.891  43.891   7.655
 6922POPC   C1B19903   5.926  43.636   8.555
 6922POPC   C2B19904   6.011  43.698   8.255
 6922POPC   C3B19905   5.960  43.622   7.955
 6922POPC   C4B19906   5.928  43.649   7.655
 6923POPC   NC319907   1.182  16.721   9.455
 6923POPC   PO419908   1.181  16.734   9.155
 6923POPC   GL119909   1.246  16.719   8.855
 6923POPC   GL219910   1.139  16.788   8.855
 6923POPC   C1A19911   1.257  16.699   8.555
 6923POPC   D2A19912   1.258  16.730   8.255
 6923POPC   C3A19913   1.261  16.758   7.955
 6923POPC   C4A19914   1.232  16.760   7.655
 6923POPC   C1B19915   0.957  16.840   8.555
 6923POPC   C2B19916   0.976  16.826   8.255
 6923POPC   C3B19917   0.949  16.868   7.955
 6923POPC   C4B19918   0.996  16.880   7.655
 6924POPC   NC319919  40.770  28.342   9.455
 6924POPC   PO419920  40.773  28.361   9.155
 6924POPC   GL119921  40.739  28.332   8.855
 6924POPC   GL219922  40.731  28.478   8.855
 6924POPC   C1A19923  40.814  28.358   8.555
 6924POPC   D2A19924  40.820  28.345   8.255
 6924POPC   C3A19925  40.780  28.411   7.955
 6924POPC   C4A19926  40.821  28.347   7.655
 6924POPC   C1B19927  40.720  28.630   8.555
 6924POPC   C2B19928  40.746  28.639   8.255
 6924POPC   C3B19929  40.742  28.614   7.955
 6924POPC   C4B19930  40.669  28.586   7.655
 6925POPC   NC319931  20.596  30.744   9.455
 6925POPC   PO419932  20.649  30.680   9.155
 6925POPC   GL119933  20.619  30.669   8.855
 6925POPC   GL219934  20.533  30.542   8.855
 6925POPC   C1A19935  20.593  30.740   8.555
 6925POPC   D2A19936  20.635  30.740   8.255
 6925POPC   C3A19937  20.561  30.691   7.955
 6925POPC   C4A19938  20.611  30.707   7.655
 6925POPC   C1B19939  20.472  30.529   8.555
 6925POPC   C2B19940  20.485  30.498   8.255
 6925POPC   C3B19941  20.519  30.492   7.955
 6925POPC   C4B19942  20.494  30.444   7.655
 6926POPC   NC319943  15.934  12.087   9.455
 6926POPC   PO419944  15.989  12.059   9.155
 6926POPC   GL119945  15.965  12.048   8.855
 6926POPC   GL219946  16.004  12.196   8.855
 6926POPC   C1A19947  15.984  12.090   8.555
 6926POPC   D2A19948  16.001  12.117   8.255
 6926POPC   C3A19949  15.927  12.088   7.955
 6926POPC   C4A19950  15.964  12.113   7.655
 6926POPC   C1B19951  16.124  12.278   8.555
 6926POPC   C2B19952  16.129  12.235   8.255
 6926POPC   C3B19953  16.075  12.313   7.955
 6926POPC   C4B19954  16.143  12.315   7.655
 6927POPC   NC319955  26.073  43.864   9.455
 6927POPC   PO419956  26.088  43.873   9.155
 6927POPC   GL119957  26.069  43.894   8.855
 6927POPC   GL219958  26.167  43.773   8.855
 6927POPC   C1A19959  26.063  43.909   8.555
 6927POPC   D2A19960  26.007  43.857   8.255
 6927POPC   C3A19961  26.013  43.903   7.955
 6927POPC   C4A19962  26.048  43.838   7.655
 6927POPC   C1B19963  26.218  43.730   8.555
 6927POPC   C2B19964  26.218  43.720   8.255
 6927POPC   C3B19965  26.199  43.745   7.955
 6927POPC   C4B19966  26.221  43.673   7.655
 6928POPC   NC319967  36.865  27.577   9.455
 6928POPC   PO419968  36.926  27.636   9.155
 6928POPC   GL119969  36.855  27.572   8.855
 6928POPC   GL219970  36.803  27.649   8.855
 6928POPC   C1A19971  36.923  27.594   8.555
 6928POPC   D2A19972  36.918  27.634   8.255
 6928POPC   C3A19973  36.941  27.547   7.955
 6928POPC   C4A19974  36.903  27.591   7.655
 6928POPC   C1B19975  36.671  27.683   8.555
 6928POPC   C2B19976  36.639  27.758   8.255
 6928POPC   C3B19977  36.651  27.745   7.955
 6928POPC   C4B19978  36.637  27.712   7.655
 6929POPC   NC319979  25.244  12.027   9.455
 6929POPC   PO419980  25.312  12.066   9.155
 6929POPC   GL119981  25.296  12.057   8.855
 6929POPC   GL219982  25.172  12.046   8.855
 6929POPC   C1A19983  25.313  12.036   8.555
 6929POPC   D2A19984  25.229  12.077   8.255
 6929POPC   C3A19985  25.232  12.075   7.955
 6929POPC   C4A19986  25.307  12.041   7.655
 6929POPC   C1B19987  25.020  11.943   8.555
 6929POPC   C2B19988  25.083  11.938   8.255
 6929POPC   C3B19989  25.037  11.963   7.955
 6929POPC   C4B19990  24.991  11.955   7.655
 6930POPC   NC319991  39.207  26.837   9.455
 6930POPC   PO419992  39.273  26.840   9.155
 6930POPC   GL119993  39.263  26.768   8.855
 6930POPC   GL219994  39.208  26.716   8.855
 6930POPC   C1A19995  39.226  26.799   8.555
 6930POPC   D2A19996  39.181  26.821   8.255
 6930POPC   C3A19997  39.274  26.768   7.955
 6930POPC   C4A19998  39.247  26.853   7.655
 6930POPC   C1B19999  39.102  26.589   8.555
 6930POPC   C2B20000  39.112  26.640   8.255
 6930POPC   C3B20001  39.142  26.620   7.955
 6930POPC   C4B20002  39.070  26.642   7.655
 6931POPC   NC320003   5.110  12.844   9.455
 6931POPC   PO420004   5.094  12.868   9.155
 6931POPC   GL120005   5.135  12.806   8.855
 6931POPC   GL220006   5.241  12.883   8.855
 6931POPC   C1A20007   5.134  12.806   8.555
 6931POPC   D2A20008   5.143  12.901   8.255
 6931POPC   C3A20009   5.058  12.899   7.955
 6931POPC   C4A20010   5.079  12.869   7.655
 6931POPC   C1B20011   5.339  12.957   8.555
 6931POPC   C2B20012   5.262  12.978   8.255
 6931POPC   C3B20013   5.272  13.000   7.955
 6931POPC   C4B20014   5.301  12.965   7.655
 6932POPC   NC320015  19.798  43.126   9.455
 6932POPC   PO420016  19.869  43.154   9.155
 6932POPC   GL120017  19.789  43.116   8.855
 6932POPC   GL220018  19.751  43.084   8.855
 6932POPC   C1A20019  19.859  43.084   8.555
 6932POPC   D2A20020  19.857  43.079   8.255
 6932POPC   C3A20021  19.884  43.119   7.955
 6932POPC   C4A20022  19.802  43.141   7.655
 6932POPC   C1B20023  19.602  43.094   8.555
 6932POPC   C2B20024  19.619  43.052   8.255
 6932POPC   C3B20025  19.592  43.077   7.955
 6932POPC   C4B20026  19.602  43.076   7.655
 6933POPC   NC320027  25.288   0.423   9.455
 6933POPC   PO420028  25.254   0.487   9.155
 6933POPC   GL120029  25.278   0.458   8.855
 6933POPC   GL220030  25.199   0.500   8.855
 6933POPC   C1A20031  25.242   0.400   8.555
 6933POPC   D2A20032  25.244   0.449   8.255
 6933POPC   C3A20033  25.291   0.393   7.955
 6933POPC   C4A20034  25.279   0.401   7.655
 6933POPC   C1B20035  25.113   0.585   8.555
 6933POPC   C2B20036  25.068   0.630   8.255
 6933POPC   C3B20037  25.077   0.574   7.955
 6933POPC   C4B20038  25.044   0.586   7.655
 6934POPC   NC320039   4.325  16.768   9.455
 6934POPC   PO420040   4.358  16.738   9.155
 6934POPC   GL120041   4.289  16.707   8.855
 6934POPC   GL220042   4.219  16.806   8.855
 6934POPC   C1A20043   4.287  16.742   8.555
 6934POPC   D2A20044   4.336  16.707   8.255
 6934POPC   C3A20045   4.347  16.696   7.955
 6934POPC   C4A20046   4.366  16.778   7.655
 6934POPC   C1B20047   4.131  16.920   8.555
 6934POPC   C2B20048   4.116  16.947   8.255
 6934POPC   C3B20049   4.152  16.896   7.955
 6934POPC   C4B20050   4.181  16.895   7.655
 6935POPC   NC320051  11.281  34.565   9.455
 6935POPC   PO420052  11.308  34.618   9.155
 6935POPC   GL120053  11.270  34.554   8.855
 6935POPC   GL220054  11.216  34.502   8.855
 6935POPC   C1A20055  11.333  34.548   8.555
 6935POPC   D2A20056  11.294  34.534   8.255
 6935POPC   C3A20057  11.285  34.538   7.955
 6935POPC   C4A20058  11.294  34.625   7.655
 6935POPC   C1B20059  11.114  34.383   8.555
 6935POPC   C2B20060  11.173  34.412   8.255
 6935POPC   C3B20061  11.178  34.438   7.955
 6935POPC   C4B20062  11.170  34.398   7.655
 6936POPC   NC320063   7.455  32.235   9.455
 6936POPC   PO420064   7.390  32.227   9.155
 6936POPC   GL120065   7.444  32.215   8.855
 6936POPC   GL220066   7.429  32.119   8.855
 6936POPC   C1A20067   7.419  32.295   8.555
 6936POPC   D2A20068   7.373  32.226   8.255
 6936POPC   C3A20069   7.413  32.217   7.955
 6936POPC   C4A20070   7.460  32.296   7.655
 6936POPC   C1B20071   7.432  31.980   8.555
 6936POPC   C2B20072   7.403  32.009   8.255
 6936POPC   C3B20073   7.416  31.976   7.955
 6936POPC   C4B20074   7.413  32.000   7.655
 6937POPC   NC320075   5.825  14.420   9.455
 6937POPC   PO420076   5.896  14.377   9.155
 6937POPC   GL120077   5.853  14.404   8.855
 6937POPC   GL220078   5.974  14.476   8.855
 6937POPC   C1A20079   5.826  14.363   8.555
 6937POPC   D2A20080   5.902  14.425   8.255
 6937POPC   C3A20081   5.915  14.436   7.955
 6937POPC   C4A20082   5.844  14.369   7.655
 6937POPC   C1B20083   6.055  14.597   8.555
 6937POPC   C2B20084   6.062  14.647   8.255
 6937POPC   C3B20085   6.065  14.552   7.955
 6937POPC   C4B20086   6.011  14.568   7.655
 6938POPC   NC320087  29.148  18.317   9.455
 6938POPC   PO420088  29.118  18.238   9.155
 6938POPC   GL120089  29.158  18.250   8.855
 6938POPC   GL220090  29.208  18.405   8.855
 6938POPC   C1A20091  29.097  18.314   8.555
 6938POPC   D2A20092  29.114  18.298   8.255
 6938POPC   C3A20093  29.154  18.233   7.955
 6938POPC   C4A20094  29.188  18.252   7.655
 6938POPC   C1B20095  29.251  18.491   8.555
 6938POPC   C2B20096  29.216  18.521   8.255
 6938POPC   C3B20097  29.232  18.514   7.955
 6938POPC   C4B20098  29.263  18.492   7.655
 6939POPC   NC320099  42.359   0.419   9.455
 6939POPC   PO420100  42.331   0.431   9.155
 6939POPC   GL120101  42.339   0.424   8.855
 6939POPC   GL220102  42.215   0.363   8.855
 6939POPC   C1A20103  42.370   0.442   8.555
 6939POPC   D2A20104  42.380   0.425   8.255
 6939POPC   C3A20105  42.376   0.413   7.955
 6939POPC   C4A20106  42.312   0.464   7.655
 6939POPC   C1B20107  42.169   0.262   8.555
 6939POPC   C2B20108  42.121   0.244   8.255
 6939POPC   C3B20109  42.168   0.304   7.955
 6939POPC   C4B20110  42.102   0.311   7.655
 6940POPC   NC320111  40.753  40.006   9.455
 6940POPC   PO420112  40.785  40.042   9.155
 6940POPC   GL120113  40.829  39.997   8.855
 6940POPC   GL220114  40.784  39.908   8.855
 6940POPC   C1A20115  40.832  40.010   8.555
 6940POPC   D2A20116  40.822  39.983   8.255
 6940POPC   C3A20117  40.735  40.019   7.955
 6940POPC   C4A20118  40.759  39.994   7.655
 6940POPC   C1B20119  40.826  39.776   8.555
 6940POPC   C2B20120  40.863  39.803   8.255
 6940POPC   C3B20121  40.908  39.776   7.955
 6940POPC   C4B20122  40.822  39.791   7.655
 6941POPC   NC320123   0.446  19.102   9.455
 6941POPC   PO420124   0.443  19.028   9.155
 6941POPC   GL120125   0.405  19.085   8.855
 6941POPC   GL220126   0.476  19.187   8.855
 6941POPC   C1A20127   0.476  19.060   8.555
 6941POPC   D2A20128   0.478  19.052   8.255
 6941POPC   C3A20129   0.444  19.040   7.955
 6941POPC   C4A20130   0.446  19.097   7.655
 6941POPC   C1B20131   0.560  19.220   8.555
 6941POPC   C2B20132   0.559  19.272   8.255
 6941POPC   C3B20133   0.623  19.253   7.955
 6941POPC   C4B20134   0.621  19.248   7.655
 6942POPC   NC320135  15.932  26.067   9.455
 6942POPC   PO420136  15.972  25.996   9.155
 6942POPC   GL120137  15.994  26.053   8.855
 6942POPC   GL220138  15.835  26.080   8.855
 6942POPC   C1A20139  15.998  26.087   8.555
 6942POPC   D2A20140  15.907  26.024   8.255
 6942POPC   C3A20141  15.963  26.021   7.955
 6942POPC   C4A20142  15.905  26.050   7.655
 6942POPC   C1B20143  15.744  26.211   8.555
 6942POPC   C2B20144  15.750  26.139   8.255
 6942POPC   C3B20145  15.762  26.150   7.955
 6942POPC   C4B20146  15.781  26.171   7.655
 6943POPC   NC320147  23.749  15.989   9.455
 6943POPC   PO420148  23.758  15.965   9.155
 6943POPC   GL120149  23.680  15.973   8.855
 6943POPC   GL220150  23.627  15.862   8.855
 6943POPC   C1A20151  23.690  15.988   8.555
 6943POPC   D2A20152  23.747  15.993   8.255
 6943POPC   C3A20153  23.748  15.977   7.955
 6943POPC   C4A20154  23.674  15.982   7.655
 6943POPC   C1B20155  23.558  15.698   8.555
 6943POPC   C2B20156  23.552  15.739   8.255
 6943POPC   C3B20157  23.638  15.758   7.955
 6943POPC   C4B20158  23.557  15.730   7.655
 6944POPC   NC320159  22.957  43.125   9.455
 6944POPC   PO420160  22.966  43.094   9.155
 6944POPC   GL120161  22.932  43.118   8.855
 6944POPC   GL220162  23.061  43.030   8.855
 6944POPC   C1A20163  22.980  43.094   8.555
 6944POPC   D2A20164  22.930  43.134   8.255
 6944POPC   C3A20165  22.906  43.107   7.955
 6944POPC   C4A20166  22.909  43.088   7.655
 6944POPC   C1B20167  23.119  42.994   8.555
 6944POPC   C2B20168  23.127  42.943   8.255
 6944POPC   C3B20169  23.118  42.905   7.955
 6944POPC   C4B20170  23.129  42.898   7.655
 6945POPC   NC320171  23.704  40.772   9.455
 6945POPC   PO420172  23.722  40.752   9.155
 6945POPC   GL120173  23.670  40.800   8.855
 6945POPC   GL220174  23.640  40.793   8.855
 6945POPC   C1A20175  23.746  40.801   8.555
 6945POPC   D2A20176  23.682  40.782   8.255
 6945POPC   C3A20177  23.698  40.805   7.955
 6945POPC   C4A20178  23.708  40.796   7.655
 6945POPC   C1B20179  23.477  40.860   8.555
 6945POPC   C2B20180  23.433  40.883   8.255
 6945POPC   C3B20181  23.447  40.892   7.955
 6945POPC   C4B20182  23.516  40.914   7.655
 6946POPC   NC320183  40.769  15.952   9.455
 6946POPC   PO420184  40.733  15.963   9.155
 6946POPC   GL120185  40.746  16.003   8.855
 6946POPC   GL220186  40.689  16.089   8.855
 6946POPC   C1A20187  40.751  16.003   8.555
 6946POPC   D2A20188  40.784  15.961   8.255
 6946POPC   C3A20189  40.803  15.919   7.955
 6946POPC   C4A20190  40.828  15.960   7.655
 6946POPC   C1B20191  40.560  16.167   8.555
 6946POPC   C2B20192  40.608  16.148   8.255
 6946POPC   C3B20193  40.609  16.102   7.955
 6946POPC   C4B20194  40.614  16.168   7.655
 6947POPC   NC320195  18.259  27.616   9.455
 6947POPC   PO420196  18.284  27.565   9.155
 6947POPC   GL120197  18.294  27.585   8.855
 6947POPC   GL220198  18.309  27.697   8.855
 6947POPC   C1A20199  18.292  27.628   8.555
 6947POPC   D2A20200  18.269  27.573   8.255
 6947POPC   C3A20201  18.268  27.558   7.955
 6947POPC   C4A20202  18.269  27.548   7.655
 6947POPC   C1B20203  18.351  27.872   8.555
 6947POPC   C2B20204  18.305  27.828   8.255
 6947POPC   C3B20205  18.264  27.834   7.955
 6947POPC   C4B20206  18.298  27.851   7.655
 6948POPC   NC320207   5.826  15.192   9.455
 6948POPC   PO420208   5.884  15.160   9.155
 6948POPC   GL120209   5.908  15.225   8.855
 6948POPC   GL220210   5.818  15.099   8.855
 6948POPC   C1A20211   5.845  15.214   8.555
 6948POPC   D2A20212   5.894  15.141   8.255
 6948POPC   C3A20213   5.845  15.188   7.955
 6948POPC   C4A20214   5.873  15.226   7.655
 6948POPC   C1B20215   5.765  14.929   8.555
 6948POPC   C2B20216   5.787  14.956   8.255
 6948POPC   C3B20217   5.791  14.927   7.955
 6948POPC   C4B20218   5.825  14.989   7.655
 6949POPC   NC320219  30.740  40.787   9.455
 6949POPC   PO420220  30.708  40.767   9.155
 6949POPC   GL120221  30.730  40.752   8.855
 6949POPC   GL220222  30.702  40.929   8.855
 6949POPC   C1A20223  30.649  40.818   8.555
 6949POPC   D2A20224  30.699  40.818   8.255
 6949POPC   C3A20225  30.722  40.747   7.955
 6949POPC   C4A20226  30.721  40.770   7.655
 6949POPC   C1B20227  30.726  40.983   8.555
 6949POPC   C2B20228  30.679  41.041   8.255
 6949POPC   C3B20229  30.746  41.016   7.955
 6949POPC   C4B20230  30.735  41.050   7.655
 6950POPC   NC320231  39.235  27.635   9.455
 6950POPC   PO420232  39.190  27.545   9.155
 6950POPC   GL120233  39.225  27.598   8.855
 6950POPC   GL220234  39.141  27.453   8.855
 6950POPC   C1A20235  39.185  27.569   8.555
 6950POPC   D2A20236  39.278  27.632   8.255
 6950POPC   C3A20237  39.217  27.545   7.955
 6950POPC   C4A20238  39.209  27.562   7.655
 6950POPC   C1B20239  39.142  27.408   8.555
 6950POPC   C2B20240  39.104  27.335   8.255
 6950POPC   C3B20241  39.109  27.350   7.955
 6950POPC   C4B20242  39.088  27.394   7.655
 6951POPC   NC320243  16.761  24.505   9.455
 6951POPC   PO420244  16.681  24.453   9.155
 6951POPC   GL120245  16.759  24.459   8.855
 6951POPC   GL220246  16.689  24.425   8.855
 6951POPC   C1A20247  16.721  24.493   8.555
 6951POPC   D2A20248  16.736  24.465   8.255
 6951POPC   C3A20249  16.716  24.476   7.955
 6951POPC   C4A20250  16.751  24.487   7.655
 6951POPC   C1B20251  16.596  24.321   8.555
 6951POPC   C2B20252  16.547  24.324   8.255
 6951POPC   C3B20253  16.637  24.298   7.955
 6951POPC   C4B20254  16.615  24.322   7.655
 6952POPC   NC320255  13.659  37.642   9.455
 6952POPC   PO420256  13.669  37.638   9.155
 6952POPC   GL120257  13.609  37.721   8.855
 6952POPC   GL220258  13.796  37.641   8.855
 6952POPC   C1A20259  13.624  37.631   8.555
 6952POPC   D2A20260  13.644  37.634   8.255
 6952POPC   C3A20261  13.632  37.665   7.955
 6952POPC   C4A20262  13.597  37.716   7.655
 6952POPC   C1B20263  13.821  37.619   8.555
 6952POPC   C2B20264  13.878  37.583   8.255
 6952POPC   C3B20265  13.877  37.622   7.955
 6952POPC   C4B20266  13.910  37.632   7.655
 6953POPC   NC320267  36.897  29.099   9.455
 6953POPC   PO420268  36.927  29.104   9.155
 6953POPC   GL120269  36.931  29.156   8.855
 6953POPC   GL220270  36.931  29.092   8.855
 6953POPC   C1A20271  36.884  29.175   8.555
 6953POPC   D2A20272  36.932  29.107   8.255
 6953POPC   C3A20273  36.898  29.169   7.955
 6953POPC   C4A20274  36.866  29.163   7.655
 6953POPC   C1B20275  37.031  28.959   8.555
 6953POPC   C2B20276  37.047  28.924   8.255
 6953POPC   C3B20277  37.054  28.926   7.955
 6953POPC   C4B20278  37.029  28.979   7.655
 6954POPC   NC320279  16.758  15.911   9.455
 6954POPC   PO420280  16.719  15.931   9.155
 6954POPC   GL120281  16.688  15.926   8.855
 6954POPC   GL220282  16.663  16.042   8.855
 6954POPC   C1A20283  16.779  15.929   8.555
 6954POPC   D2A20284  16.715  15.964   8.255
 6954POPC   C3A20285  16.734  15.971   7.955
 6954POPC   C4A20286  16.697  15.925   7.655
 6954POPC   C1B20287  16.492  16.142   8.555
 6954POPC   C2B20288  16.527  16.100   8.255
 6954POPC   C3B20289  16.491  16.095   7.955
 6954POPC   C4B20290  16.526  16.128   7.655
 6955POPC   NC320291  29.898   3.566   9.455
 6955POPC   PO420292  29.879   3.590   9.155
 6955POPC   GL120293  29.968   3.549   8.855
 6955POPC   GL220294  29.996   3.456   8.855
 6955POPC   C1A20295  29.931   3.537   8.555
 6955POPC   D2A20296  29.898   3.539   8.255
 6955POPC   C3A20297  29.970   3.492   7.955
 6955POPC   C4A20298  29.902   3.575   7.655
 6955POPC   C1B20299  30.059   3.372   8.555
 6955POPC   C2B20300  30.056   3.398   8.255
 6955POPC   C3B20301  30.059   3.326   7.955
 6955POPC   C4B20302  30.071   3.343   7.655
 6956POPC   NC320303  19.827  24.515   9.455
 6956POPC   PO420304  19.876  24.484   9.155
 6956POPC   GL120305  19.875  24.463   8.855
 6956POPC   GL220306  19.825  24.648   8.855
 6956POPC   C1A20307  19.828  24.505   8.555
 6956POPC   D2A20308  19.881  24.522   8.255
 6956POPC   C3A20309  19.815  24.473   7.955
 6956POPC   C4A20310  19.865  24.500   7.655
 6956POPC   C1B20311  19.789  24.770   8.555
 6956POPC   C2B20312  19.797  24.740   8.255
 6956POPC   C3B20313  19.763  24.747   7.955
 6956POPC   C4B20314  19.754  24.694   7.655
 6957POPC   NC320315  28.391  22.203   9.455
 6957POPC   PO420316  28.339  22.177   9.155
 6957POPC   GL120317  28.334  22.147   8.855
 6957POPC   GL220318  28.254  22.159   8.855
 6957POPC   C1A20319  28.378  22.160   8.555
 6957POPC   D2A20320  28.392  22.159   8.255
 6957POPC   C3A20321  28.370  22.117   7.955
 6957POPC   C4A20322  28.369  22.140   7.655
 6957POPC   C1B20323  28.100  22.056   8.555
 6957POPC   C2B20324  28.182  22.041   8.255
 6957POPC   C3B20325  28.099  22.105   7.955
 6957POPC   C4B20326  28.132  22.062   7.655
 6958POPC   NC320327  36.863   5.863   9.455
 6958POPC   PO420328  36.916   5.901   9.155
 6958POPC   GL120329  36.900   5.868   8.855
 6958POPC   GL220330  36.759   5.831   8.855
 6958POPC   C1A20331  36.937   5.819   8.555
 6958POPC   D2A20332  36.873   5.868   8.255
 6958POPC   C3A20333  36.951   5.821   7.955
 6958POPC   C4A20334  36.856   5.889   7.655
 6958POPC   C1B20335  36.622   5.890   8.555
 6958POPC   C2B20336  36.680   5.858   8.255
 6958POPC   C3B20337  36.615   5.884   7.955
 6958POPC   C4B20338  36.638   5.889   7.655
 6959POPC   NC320339  29.906  32.287   9.455
 6959POPC   PO420340  29.956  32.241   9.155
 6959POPC   GL120341  29.963  32.236   8.855
 6959POPC   GL220342  30.002  32.089   8.855
 6959POPC   C1A20343  29.913  32.242   8.555
 6959POPC   D2A20344  29.872  32.210   8.255
 6959POPC   C3A20345  29.873  32.262   7.955
 6959POPC   C4A20346  29.890  32.242   7.655
 6959POPC   C1B20347  30.060  32.065   8.555
 6959POPC   C2B20348  30.010  32.015   8.255
 6959POPC   C3B20349  30.051  32.020   7.955
 6959POPC   C4B20350  29.976  32.058   7.655
 6960POPC   NC320351   6.598  36.945   9.455
 6960POPC   PO420352   6.648  36.910   9.155
 6960POPC   GL120353   6.619  36.910   8.855
 6960POPC   GL220354   6.636  36.745   8.855
 6960POPC   C1A20355   6.611  36.859   8.555
 6960POPC   D2A20356   6.638  36.858   8.255
 6960POPC   C3A20357   6.630  36.859   7.955
 6960POPC   C4A20358   6.683  36.926   7.655
 6960POPC   C1B20359   6.540  36.708   8.555
 6960POPC   C2B20360   6.553  36.687   8.255
 6960POPC   C3B20361   6.545  36.676   7.955
 6960POPC   C4B20362   6.540  36.645   7.655
 6961POPC   NC320363  38.447   4.294   9.455
 6961POPC   PO420364  38.453   4.277   9.155
 6961POPC   GL120365  38.444   4.329   8.855
 6961POPC   GL220366  38.347   4.304   8.855
 6961POPC   C1A20367  38.477   4.351   8.555
 6961POPC   D2A20368  38.491   4.308   8.255
 6961POPC   C3A20369  38.491   4.300   7.955
 6961POPC   C4A20370  38.490   4.350   7.655
 6961POPC   C1B20371  38.209   4.178   8.555
 6961POPC   C2B20372  38.280   4.163   8.255
 6961POPC   C3B20373  38.202   4.219   7.955
 6961POPC   C4B20374  38.195   4.229   7.655
 6962POPC   NC320375   6.683  18.283   9.455
 6962POPC   PO420376   6.603  18.332   9.155
 6962POPC   GL120377   6.619  18.297   8.855
 6962POPC   GL220378   6.659  18.142   8.855
 6962POPC   C1A20379   6.612  18.325   8.555
 6962POPC   D2A20380   6.667  18.253   8.255
 6962POPC   C3A20381   6.624  18.324   7.955
 6962POPC   C4A20382   6.633  18.293   7.655
 6962POPC   C1B20383   6.632  17.997   8.555
 6962POPC   C2B20384   6.548  18.002   8.255
 6962POPC   C3B20385   6.562  17.993   7.955
 6962POPC   C4B20386   6.636  18.029   7.655
 6963POPC   NC320387  22.156  20.609   9.455
 6963POPC   PO420388  22.193  20.588   9.155
 6963POPC   GL120389  22.144  20.655   8.855
 6963POPC   GL220390  22.320  20.588   8.855
 6963POPC   C1A20391  22.141  20.594   8.555
 6963POPC   D2A20392  22.137  20.608   8.255
 6963POPC   C3A20393  22.176  20.579   7.955
 6963POPC   C4A20394  22.208  20.578   7.655
 6963POPC   C1B20395  22.374  20.562   8.555
 6963POPC   C2B20396  22.443  20.557   8.255
 6963POPC   C3B20397  22.410  20.560   7.955
 6963POPC   C4B20398  22.421  20.564   7.655
 6964POPC   NC320399  41.557  10.475   9.455
 6964POPC   PO420400  41.602  10.480   9.155
 6964POPC   GL120401  41.560  10.497   8.855
 6964POPC   GL220402  41.509  10.600   8.855
 6964POPC   C1A20403  41.558  10.550   8.555
 6964POPC   D2A20404  41.527  10.493   8.255
 6964POPC   C3A20405  41.581  10.532   7.955
 6964POPC   C4A20406  41.595  10.537   7.655
 6964POPC   C1B20407  41.380  10.689   8.555
 6964POPC   C2B20408  41.383  10.690   8.255
 6964POPC   C3B20409  41.400  10.647   7.955
 6964POPC   C4B20410  41.327  10.654   7.655
 6965POPC   NC320411  44.652  39.187   9.455
 6965POPC   PO420412  44.624  39.267   9.155
 6965POPC   GL120413  44.619  39.242   8.855
 6965POPC   GL220414  44.660  39.340   8.855
 6965POPC   C1A20415  44.665  39.228   8.555
 6965POPC   D2A20416  44.618  39.189   8.255
 6965POPC   C3A20417  44.656  39.262   7.955
 6965POPC   C4A20418  44.682  39.213   7.655
 6965POPC   C1B20419  44.704  39.491   8.555
 6965POPC   C2B20420  44.716  39.485   8.255
 6965POPC   C3B20421  44.759  39.497   7.955
 6965POPC   C4B20422  44.759  39.470   7.655
 6966POPC   NC320423   5.060  18.300   9.455
 6966POPC   PO420424   5.134  18.318   9.155
 6966POPC   GL120425   5.080  18.270   8.855
 6966POPC   GL220426   5.176  18.184   8.855
 6966POPC   C1A20427   5.122  18.271   8.555
 6966POPC   D2A20428   5.091  18.306   8.255
 6966POPC   C3A20429   5.131  18.254   7.955
 6966POPC   C4A20430   5.070  18.251   7.655
 6966POPC   C1B20431   5.291  18.139   8.555
 6966POPC   C2B20432   5.261  18.146   8.255
 6966POPC   C3B20433   5.294  18.111   7.955
 6966POPC   C4B20434   5.306  18.104   7.655
 6967POPC   NC320435  44.619  22.138   9.455
 6967POPC   PO420436  44.636  22.211   9.155
 6967POPC   GL120437  44.678  22.143   8.855
 6967POPC   GL220438  44.688  22.325   8.855
 6967POPC   C1A20439  44.628  22.136   8.555
 6967POPC   D2A20440  44.707  22.167   8.255
 6967POPC   C3A20441  44.635  22.165   7.955
 6967POPC   C4A20442  44.683  22.199   7.655
 6967POPC   C1B20443  44.636  22.373   8.555
 6967POPC   C2B20444  44.624  22.363   8.255
 6967POPC   C3B20445  44.677  22.431   7.955
 6967POPC   C4B20446  44.707  22.414   7.655
 6968POPC   NC320447  12.843  35.352   9.455
 6968POPC   PO420448  12.841  35.387   9.155
 6968POPC   GL120449  12.899  35.313   8.855
 6968POPC   GL220450  12.956  35.296   8.855
 6968POPC   C1A20451  12.875  35.389   8.555
 6968POPC   D2A20452  12.830  35.388   8.255
 6968POPC   C3A20453  12.887  35.339   7.955
 6968POPC   C4A20454  12.832  35.369   7.655
 6968POPC   C1B20455  13.093  35.220   8.555
 6968POPC   C2B20456  13.134  35.255   8.255
 6968POPC   C3B20457  13.121  35.246   7.955
 6968POPC   C4B20458  13.054  35.237   7.655
 6969POPC   NC320459  28.381  12.837   9.455
 6969POPC   PO420460  28.390  12.835   9.155
 6969POPC   GL120461  28.335  12.849   8.855
 6969POPC   GL220462  28.415  12.987   8.855
 6969POPC   C1A20463  28.414  12.857   8.555
 6969POPC   D2A20464  28.409  12.846   8.255
 6969POPC   C3A20465  28.387  12.885   7.955
 6969POPC   C4A20466  28.329  12.832   7.655
 6969POPC   C1B20467  28.427  13.041   8.555
 6969POPC   C2B20468  28.480  13.123   8.255
 6969POPC   C3B20469  28.430  13.073   7.955
 6969POPC   C4B20470  28.466  13.074   7.655
 6970POPC   NC320471  40.814  35.381   9.455
 6970POPC   PO420472  40.752  35.400   9.155
 6970POPC   GL120473  40.766  35.362   8.855
 6970POPC   GL220474  40.700  35.287   8.855
 6970POPC   C1A20475  40.796  35.367   8.555
 6970POPC   D2A20476  40.787  35.366   8.255
 6970POPC   C3A20477  40.749  35.307   7.955
 6970POPC   C4A20478  40.826  35.382   7.655
 6970POPC   C1B20479  40.590  35.320   8.555
 6970POPC   C2B20480  40.541  35.259   8.255
 6970POPC   C3B20481  40.540  35.278   7.955
 6970POPC   C4B20482  40.497  35.274   7.655
 6971POPC   NC320483  12.044  35.349   9.455
 6971POPC   PO420484  12.077  35.313   9.155
 6971POPC   GL120485  12.048  35.303   8.855
 6971POPC   GL220486  12.029  35.433   8.855
 6971POPC   C1A20487  12.046  35.382   8.555
 6971POPC   D2A20488  12.123  35.366   8.255
 6971POPC   C3A20489  12.048  35.326   7.955
 6971POPC   C4A20490  12.090  35.314   7.655
 6971POPC   C1B20491  11.884  35.538   8.555
 6971POPC   C2B20492  11.917  35.533   8.255
 6971POPC   C3B20493  11.931  35.516   7.955
 6971POPC   C4B20494  11.928  35.558   7.655
 6972POPC   NC320495  27.596  10.542   9.455
 6972POPC   PO420496  27.571  10.532   9.155
 6972POPC   GL120497  27.626  10.508   8.855
 6972POPC   GL220498  27.500  10.514   8.855
 6972POPC   C1A20499  27.568  10.530   8.555
 6972POPC   D2A20500  27.554  10.536   8.255
 6972POPC   C3A20501  27.557  10.522   7.955
 6972POPC   C4A20502  27.567  10.506   7.655
 6972POPC   C1B20503  27.388  10.471   8.555
 6972POPC   C2B20504  27.387  10.471   8.255
 6972POPC   C3B20505  27.376  10.438   7.955
 6972POPC   C4B20506  27.307  10.422   7.655
 6973POPC   NC320507   8.212   7.427   9.455
 6973POPC   PO420508   8.184   7.417   9.155
 6973POPC   GL120509   8.232   7.434   8.855
 6973POPC   GL220510   8.200   7.534   8.855
 6973POPC   C1A20511   8.246   7.441   8.555
 6973POPC   D2A20512   8.195   7.413   8.255
 6973POPC   C3A20513   8.184   7.425   7.955
 6973POPC   C4A20514   8.209   7.395   7.655
 6973POPC   C1B20515   8.185   7.629   8.555
 6973POPC   C2B20516   8.186   7.718   8.255
 6973POPC   C3B20517   8.171   7.706   7.955
 6973POPC   C4B20518   8.197   7.670   7.655
 6974POPC   NC320519  43.889  12.844   9.455
 6974POPC   PO420520  43.882  12.814   9.155
 6974POPC   GL120521  43.890  12.815   8.855
 6974POPC   GL220522  43.844  12.939   8.855
 6974POPC   C1A20523  43.905  12.820   8.555
 6974POPC   D2A20524  43.857  12.895   8.255
 6974POPC   C3A20525  43.932  12.826   7.955
 6974POPC   C4A20526  43.867  12.895   7.655
 6974POPC   C1B20527  43.855  13.080   8.555
 6974POPC   C2B20528  43.826  13.072   8.255
 6974POPC   C3B20529  43.835  13.058   7.955
 6974POPC   C4B20530  43.810  13.062   7.655
 6975POPC   NC320531   4.335   7.440   9.455
 6975POPC   PO420532   4.268   7.379   9.155
 6975POPC   GL120533   4.360   7.418   8.855
 6975POPC   GL220534   4.260   7.358   8.855
 6975POPC   C1A20535   4.353   7.401   8.555
 6975POPC   D2A20536   4.345   7.403   8.255
 6975POPC   C3A20537   4.274   7.446   7.955
 6975POPC   C4A20538   4.278   7.429   7.655
 6975POPC   C1B20539   4.131   7.203   8.555
 6975POPC   C2B20540   4.186   7.196   8.255
 6975POPC   C3B20541   4.117   7.248   7.955
 6975POPC   C4B20542   4.130   7.204   7.655
 6976POPC   NC320543  22.153  35.308   9.455
 6976POPC   PO420544  22.201  35.375   9.155
 6976POPC   GL120545  22.117  35.326   8.855
 6976POPC   GL220546  22.219  35.304   8.855
 6976POPC   C1A20547  22.162  35.352   8.555
 6976POPC   D2A20548  22.167  35.391   8.255
 6976POPC   C3A20549  22.123  35.322   7.955
 6976POPC   C4A20550  22.143  35.383   7.655
 6976POPC   C1B20551  22.353  35.108   8.555
 6976POPC   C2B20552  22.303  35.193   8.255
 6976POPC   C3B20553  22.333  35.193   7.955
 6976POPC   C4B20554  22.302  35.180   7.655
 6977POPC   NC320555  20.631  24.525   9.455
 6977POPC   PO420556  20.610  24.527   9.155
 6977POPC   GL120557  20.657  24.444   8.855
 6977POPC   GL220558  20.509  24.467   8.855
 6977POPC   C1A20559  20.605  24.480   8.555
 6977POPC   D2A20560  20.586  24.483   8.255
 6977POPC   C3A20561  20.579  24.449   7.955
 6977POPC   C4A20562  20.638  24.466   7.655
 6977POPC   C1B20563  20.326  24.511   8.555
 6977POPC   C2B20564  20.389  24.537   8.255
 6977POPC   C3B20565  20.410  24.485   7.955
 6977POPC   C4B20566  20.326  24.502   7.655
 6978POPC   NC320567  19.883  16.736   9.455
 6978POPC   PO420568  19.859  16.731   9.155
 6978POPC   GL120569  19.865  16.766   8.855
 6978POPC   GL220570  19.779  16.578   8.855
 6978POPC   C1A20571  19.815  16.744   8.555
 6978POPC   D2A20572  19.819  16.685   8.255
 6978POPC   C3A20573  19.839  16.708   7.955
 6978POPC   C4A20574  19.860  16.688   7.655
 6978POPC   C1B20575  19.760  16.446   8.555
 6978POPC   C2B20576  19.762  16.449   8.255
 6978POPC   C3B20577  19.846  16.496   7.955
 6978POPC   C4B20578  19.847  16.460   7.655
 6979POPC   NC320579  43.105  33.061   9.455
 6979POPC   PO420580  43.062  33.063   9.155
 6979POPC   GL120581  43.145  33.067   8.855
 6979POPC   GL220582  43.188  32.918   8.855
 6979POPC   C1A20583  43.150  32.975   8.555
 6979POPC   D2A20584  43.072  33.012   8.255
 6979POPC   C3A20585  43.113  33.017   7.955
 6979POPC   C4A20586  43.076  32.981   7.655
 6979POPC   C1B20587  43.274  32.819   8.555
 6979POPC   C2B20588  43.279  32.799   8.255
 6979POPC   C3B20589  43.291  32.818   7.955
 6979POPC   C4B20590  43.263  32.845   7.655
 6980POPC   NC320591  41.512  33.049   9.455
 6980POPC   PO420592  41.600  33.062   9.155
 6980POPC   GL120593  41.605  33.007   8.855
 6980POPC   GL220594  41.509  33.155   8.855
 6980POPC   C1A20595  41.523  33.007   8.555
 6980POPC   D2A20596  41.525  33.041   8.255
 6980POPC   C3A20597  41.564  32.977   7.955
 6980POPC   C4A20598  41.564  33.000   7.655
 6980POPC   C1B20599  41.526  33.226   8.555
 6980POPC   C2B20600  41.483  33.255   8.255
 6980POPC   C3B20601  41.520  33.242   7.955
 6980POPC   C4B20602  41.535  33.236   7.655
 6981POPC   NC320603  26.777  12.032   9.455
 6981POPC   PO420604  26.841  12.057   9.155
 6981POPC   GL120605  26.785  12.060   8.855
 6981POPC   GL220606  26.881  12.244   8.855
 6981POPC   C1A20607  26.848  12.050   8.555
 6981POPC   D2A20608  26.793  12.122   8.255
 6981POPC   C3A20609  26.801  12.060   7.955
 6981POPC   C4A20610  26.776  12.121   7.655
 6981POPC   C1B20611  26.885  12.301   8.555
 6981POPC   C2B20612  26.928  12.295   8.255
 6981POPC   C3B20613  26.868  12.308   7.955
 6981POPC   C4B20614  26.841  12.353   7.655
 6982POPC   NC320615  24.510  13.614   9.455
 6982POPC   PO420616  24.482  13.621   9.155
 6982POPC   GL120617  24.440  13.666   8.855
 6982POPC   GL220618  24.465  13.549   8.855
 6982POPC   C1A20619  24.493  13.608   8.555
 6982POPC   D2A20620  24.448  13.634   8.255
 6982POPC   C3A20621  24.522  13.590   7.955
 6982POPC   C4A20622  24.532  13.637   7.655
 6982POPC   C1B20623  24.419  13.398   8.555
 6982POPC   C2B20624  24.337  13.353   8.255
 6982POPC   C3B20625  24.377  13.412   7.955
 6982POPC   C4B20626  24.376  13.436   7.655
 6983POPC   NC320627  17.478   5.864   9.455
 6983POPC   PO420628  17.492   5.891   9.155
 6983POPC   GL120629  17.554   5.862   8.855
 6983POPC   GL220630  17.490   5.791   8.855
 6983POPC   C1A20631  17.536   5.864   8.555
 6983POPC   D2A20632  17.538   5.830   8.255
 6983POPC   C3A20633  17.500   5.852   7.955
 6983POPC   C4A20634  17.487   5.884   7.655
 6983POPC   C1B20635  17.498   5.609   8.555
 6983POPC   C2B20636  17.454   5.665   8.255
 6983POPC   C3B20637  17.456   5.642   7.955
 6983POPC   C4B20638  17.427   5.623   7.655
 6984POPC   NC320639  22.969  29.889   9.455
 6984POPC   PO420640  22.947  29.875   9.155
 6984POPC   GL120641  22.902  29.908   8.855
 6984POPC   GL220642  22.995  29.961   8.855
 6984POPC   C1A20643  22.924  29.907   8.555
 6984POPC   D2A20644  22.981  29.890   8.255
 6984POPC   C3A20645  22.950  29.872   7.955
 6984POPC   C4A20646  22.892  29.933   7.655
 6984POPC   C1B20647  23.140  30.077   8.555
 6984POPC   C2B20648  23.156  30.013   8.255
 6984POPC   C3B20649  23.144  30.056   7.955
 6984POPC   C4B20650  23.119  30.100   7.655
 6985POPC   NC320651  12.075   5.131   9.455
 6985POPC   PO420652  12.092   5.139   9.155
 6985POPC   GL120653  12.079   5.087   8.855
 6985POPC   GL220654  12.041   4.967   8.855
 6985POPC   C1A20655  12.111   5.054   8.555
 6985POPC   D2A20656  12.089   5.043   8.255
 6985POPC   C3A20657  12.117   5.071   7.955
 6985POPC   C4A20658  12.081   5.118   7.655
 6985POPC   C1B20659  12.136   4.843   8.555
 6985POPC   C2B20660  12.061   4.849   8.255
 6985POPC   C3B20661  12.090   4.847   7.955
 6985POPC   C4B20662  12.074   4.826   7.655
 6986POPC   NC320663  38.423  41.554   9.455
 6986POPC   PO420664  38.430  41.597   9.155
 6986POPC   GL120665  38.489  41.561   8.855
 6986POPC   GL220666  38.585  41.492   8.855
 6986POPC   C1A20667  38.436  41.559   8.555
 6986POPC   D2A20668  38.409  41.544   8.255
 6986POPC   C3A20669  38.417  41.557   7.955
 6986POPC   C4A20670  38.444  41.532   7.655
 6986POPC   C1B20671  38.637  41.476   8.555
 6986POPC   C2B20672  38.691  41.469   8.255
 6986POPC   C3B20673  38.717  41.441   7.955
 6986POPC   C4B20674  38.634  41.448   7.655
 6987POPC   NC320675   0.410  40.008   9.455
 6987POPC   PO420676   0.419  40.048   9.155
 6987POPC   GL120677   0.416  40.013   8.855
 6987POPC   GL220678   0.580  39.958   8.855
 6987POPC   C1A20679   0.465  40.031   8.555
 6987POPC   D2A20680   0.436  39.994   8.255
 6987POPC   C3A20681   0.423  40.011   7.955
 6987POPC   C4A20682   0.389  40.012   7.655
 6987POPC   C1B20683   0.649  39.880   8.555
 6987POPC   C2B20684   0.680  39.887   8.255
 6987POPC   C3B20685   0.630  39.829   7.955
 6987POPC   C4B20686   0.672  39.831   7.655
 6988POPC   NC320687   4.319  15.187   9.455
 6988POPC   PO420688   4.336  15.197   9.155
 6988POPC   GL120689   4.273  15.177   8.855
 6988POPC   GL220690   4.323  15.309   8.855
 6988POPC   C1A20691   4.341  15.154   8.555
 6988POPC   D2A20692   4.286  15.133   8.255
 6988POPC   C3A20693   4.269  15.166   7.955
 6988POPC   C4A20694   4.330  15.197   7.655
 6988POPC   C1B20695   4.331  15.387   8.555
 6988POPC   C2B20696   4.365  15.466   8.255
 6988POPC   C3B20697   4.383  15.412   7.955
 6988POPC   C4B20698   4.298  15.428   7.655
 6989POPC   NC320699  35.370   3.559   9.455
 6989POPC   PO420700  35.323   3.583   9.155
 6989POPC   GL120701  35.317   3.548   8.855
 6989POPC   GL220702  35.222   3.634   8.855
 6989POPC   C1A20703  35.375   3.493   8.555
 6989POPC   D2A20704  35.324   3.515   8.255
 6989POPC   C3A20705  35.373   3.538   7.955
 6989POPC   C4A20706  35.366   3.543   7.655
 6989POPC   C1B20707  35.155   3.623   8.555
 6989POPC   C2B20708  35.125   3.662   8.255
 6989POPC   C3B20709  35.156   3.636   7.955
 6989POPC   C4B20710  35.111   3.680   7.655
 6990POPC   NC320711   7.443  22.130   9.455
 6990POPC   PO420712   7.406  22.125   9.155
 6990POPC   GL120713   7.399  22.119   8.855
 6990POPC   GL220714   7.431  22.060   8.855
 6990POPC   C1A20715   7.454  22.154   8.555
 6990POPC   D2A20716   7.426  22.138   8.255
 6990POPC   C3A20717   7.453  22.121   7.955
 6990POPC   C4A20718   7.396  22.153   7.655
 6990POPC   C1B20719   7.509  21.960   8.555
 6990POPC   C2B20720   7.525  21.931   8.255
 6990POPC   C3B20721   7.491  21.921   7.955
 6990POPC   C4B20722   7.484  21.962   7.655
 6991POPC   NC320723  25.306  13.593   9.455
 6991POPC   PO420724  25.243  13.627   9.155
 6991POPC   GL120725  25.293  13.594   8.855
 6991POPC   GL220726  25.391  13.582   8.855
 6991POPC   C1A20727  25.258  13.633   8.555
 6991POPC   D2A20728  25.291  13.644   8.255
 6991POPC   C3A20729  25.254  13.587   7.955
 6991POPC   C4A20730  25.217  13.606   7.655
 6991POPC   C1B20731  25.478  13.525   8.555
 6991POPC   C2B20732  25.515  13.571   8.255
 6991POPC   C3B20733  25.482  13.559   7.955
 6991POPC   C4B20734  25.495  13.598   7.655
 6992POPC   NC320735  16.704  44.677   9.455
 6992POPC   PO420736  16.760  44.620   9.155
 6992POPC   GL120737  16.726  44.696   8.855
 6992POPC   GL220738  16.825  44.680   8.855
 6992POPC   C1A20739  16.727  44.659   8.555
 6992POPC   D2A20740  16.741  44.656   8.255
 6992POPC   C3A20741  16.730  44.654   7.955
 6992POPC   C4A20742  16.752  44.645   7.655
 6992POPC   C1B20743  16.963  44.740   8.555
 6992POPC   C2B20744  16.993  44.743   8.255
 6992POPC   C3B20745  17.007  44.680   7.955
 6992POPC   C4B20746  16.934  44.715   7.655
 6993POPC   NC320747  15.935  15.183   9.455
 6993POPC   PO420748  15.916  15.180   9.155
 6993POPC   GL120749  15.972  15.196   8.855
 6993POPC   GL220750  15.884  15.279   8.855
 6993POPC   C1A20751  15.942  15.216   8.555
 6993POPC   D2A20752  15.905  15.163   8.255
 6993POPC   C3A20753  15.929  15.196   7.955
 6993POPC   C4A20754  15.970  15.165   7.655
 6993POPC   C1B20755  15.742  15.348   8.555
 6993POPC   C2B20756  15.793  15.386   8.255
 6993POPC   C3B20757  15.805  15.384   7.955
 6993POPC   C4B20758  15.756  15.369   7.655
 6994POPC   NC320759  24.532  30.717   9.455
 6994POPC   PO420760  24.506  30.715   9.155
 6994POPC   GL120761  24.494  30.738   8.855
 6994POPC   GL220762  24.576  30.552   8.855
 6994POPC   C1A20763  24.537  30.722   8.555
 6994POPC   D2A20764  24.444  30.717   8.255
 6994POPC   C3A20765  24.447  30.660   7.955
 6994POPC   C4A20766  24.440  30.706   7.655
 6994POPC   C1B20767  24.641  30.491   8.555
 6994POPC   C2B20768  24.681  30.516   8.255
 6994POPC   C3B20769  24.596  30.516   7.955
 6994POPC   C4B20770  24.641  30.515   7.655
 6995POPC   NC320771   9.731   6.611   9.455
 6995POPC   PO420772   9.783   6.644   9.155
 6995POPC   GL120773   9.734   6.623   8.855
 6995POPC   GL220774   9.766   6.721   8.855
 6995POPC   C1A20775   9.785   6.651   8.555
 6995POPC   D2A20776   9.718   6.604   8.255
 6995POPC   C3A20777   9.791   6.634   7.955
 6995POPC   C4A20778   9.738   6.599   7.655
 6995POPC   C1B20779   9.846   6.903   8.555
 6995POPC   C2B20780   9.838   6.937   8.255
 6995POPC   C3B20781   9.805   6.920   7.955
 6995POPC   C4B20782   9.784   6.909   7.655
 6996POPC   NC320783   1.232  15.966   9.455
 6996POPC   PO420784   1.227  15.979   9.155
 6996POPC   GL120785   1.169  15.958   8.855
 6996POPC   GL220786   1.243  16.066   8.855
 6996POPC   C1A20787   1.240  16.000   8.555
 6996POPC   D2A20788   1.247  15.914   8.255
 6996POPC   C3A20789   1.208  15.948   7.955
 6996POPC   C4A20790   1.223  15.958   7.655
 6996POPC   C1B20791   1.179  16.171   8.555
 6996POPC   C2B20792   1.160  16.165   8.255
 6996POPC   C3B20793   1.220  16.155   7.955
 6996POPC   C4B20794   1.206  16.224   7.655
 6997POPC   NC320795  22.196  40.815   9.455
 6997POPC   PO420796  22.194  40.775   9.155
 6997POPC   GL120797  22.155  40.765   8.855
 6997POPC   GL220798  22.293  40.876   8.855
 6997POPC   C1A20799  22.129  40.751   8.555
 6997POPC   D2A20800  22.190  40.759   8.255
 6997POPC   C3A20801  22.114  40.784   7.955
 6997POPC   C4A20802  22.181  40.761   7.655
 6997POPC   C1B20803  22.330  40.948   8.555
 6997POPC   C2B20804  22.389  40.892   8.255
 6997POPC   C3B20805  22.329  40.935   7.955
 6997POPC   C4B20806  22.414  40.951   7.655
 6998POPC   NC320807   2.004  37.717   9.455
 6998POPC   PO420808   1.978  37.698   9.155
 6998POPC   GL120809   1.973  37.721   8.855
 6998POPC   GL220810   1.883  37.675   8.855
 6998POPC   C1A20811   1.969  37.702   8.555
 6998POPC   D2A20812   1.951  37.726   8.255
 6998POPC   C3A20813   1.949  37.715   7.955
 6998POPC   C4A20814   2.016  37.632   7.655
 6998POPC   C1B20815   1.753  37.709   8.555
 6998POPC   C2B20816   1.751  37.626   8.255
 6998POPC   C3B20817   1.712  37.658   7.955
 6998POPC   C4B20818   1.788  37.622   7.655
 6999POPC   NC320819   5.088  33.761   9.455
 6999POPC   PO420820   5.096  33.797   9.155
 6999POPC   GL120821   5.140  33.816   8.855
 6999POPC   GL220822   5.022  33.881   8.855
 6999POPC   C1A20823   5.124  33.814   8.555
 6999POPC   D2A20824   5.102  33.797   8.255
 6999POPC   C3A20825   5.089  33.780   7.955
 6999POPC   C4A20826   5.091  33.767   7.655
 6999POPC   C1B20827   4.912  33.965   8.555
 6999POPC   C2B20828   4.887  33.970   8.255
 6999POPC   C3B20829   4.948  34.018   7.955
 6999POPC   C4B20830   4.910  34.037   7.655
 7000POPC   NC320831  35.360   5.835   9.455
 7000POPC   PO420832  35.397   5.886   9.155
 7000POPC   GL120833  35.311   5.842   8.855
 7000POPC   GL220834  35.459   5.952   8.855
 7000POPC   C1A20835  35.316   5.911   8.555
 7000POPC   D2A20836  35.378   5.918   8.255
 7000POPC   C3A20837  35.302   5.860   7.955
 7000POPC   C4A20838  35.331   5.830   7.655
 7000POPC   C1B20839  35.475   6.073   8.555
 7000POPC   C2B20840  35.551   6.060   8.255
 7000POPC   C3B20841  35.530   6.094   7.955
 7000POPC   C4B20842  35.493   6.040   7.655
 7001POPC   NC320843   6.658  16.765   9.455
 7001POPC   PO420844   6.666  16.705   9.155
 7001POPC   GL120845   6.639  16.735   8.855
 7001POPC   GL220846   6.516  16.703   8.855
 7001POPC   C1A20847   6.660  16.764   8.555
 7001POPC   D2A20848   6.661  16.707   8.255
 7001POPC   C3A20849   6.685  16.743   7.955
 7001POPC   C4A20850   6.646  16.731   7.655
 7001POPC   C1B20851   6.399  16.639   8.555
 7001POPC   C2B20852   6.385  16.698   8.255
 7001POPC   C3B20853   6.446  16.704   7.955
 7001POPC   C4B20854   6.381  16.666   7.655
 7002POPC   NC320855  26.828  13.664   9.455
 7002POPC   PO420856  26.828  13.579   9.155
 7002POPC   GL120857  26.802  13.658   8.855
 7002POPC   GL220858  26.777  13.539   8.855
 7002POPC   C1A20859  26.780  13.594   8.555
 7002POPC   D2A20860  26.770  13.647   8.255
 7002POPC   C3A20861  26.827  13.612   7.955
 7002POPC   C4A20862  26.779  13.642   7.655
 7002POPC   C1B20863  26.803  13.364   8.555
 7002POPC   C2B20864  26.764  13.348   8.255
 7002POPC   C3B20865  26.728  13.428   7.955
 7002POPC   C4B20866  26.789  13.391   7.655
 7003POPC   NC320867  14.426   8.986   9.455
 7003POPC   PO420868  14.380   8.959   9.155
 7003POPC   GL120869  14.442   8.984   8.855
 7003POPC   GL220870  14.414   8.892   8.855
 7003POPC   C1A20871  14.405   8.995   8.555
 7003POPC   D2A20872  14.374   8.979   8.255
 7003POPC   C3A20873  14.388   8.935   7.955
 7003POPC   C4A20874  14.412   8.972   7.655
 7003POPC   C1B20875  14.479   8.756   8.555
 7003POPC   C2B20876  14.526   8.751   8.255
 7003POPC   C3B20877  14.475   8.724   7.955
 7003POPC   C4B20878  14.480   8.761   7.655
 7004POPC   NC320879  20.620  22.116   9.455
 7004POPC   PO420880  20.649  22.185   9.155
 7004POPC   GL120881  20.633  22.158   8.855
 7004POPC   GL220882  20.757  22.182   8.855
 7004POPC   C1A20883  20.561  22.135   8.555
 7004POPC   D2A20884  20.565  22.174   8.255
 7004POPC   C3A20885  20.608  22.114   7.955
 7004POPC   C4A20886  20.658  22.115   7.655
 7004POPC   C1B20887  20.818  22.122   8.555
 7004POPC   C2B20888  20.836  22.141   8.255
 7004POPC   C3B20889  20.846  22.159   7.955
 7004POPC   C4B20890  20.885  22.112   7.655
 7005POPC   NC320891   5.853  36.948   9.455
 7005POPC   PO420892   5.917  36.910   9.155
 7005POPC   GL120893   5.838  36.951   8.855
 7005POPC   GL220894   5.997  36.875   8.855
 7005POPC   C1A20895   5.875  36.867   8.555
 7005POPC   D2A20896   5.874  36.946   8.255
 7005POPC   C3A20897   5.853  36.878   7.955
 7005POPC   C4A20898   5.909  36.863   7.655
 7005POPC   C1B20899   6.141  36.899   8.555
 7005POPC   C2B20900   6.106  36.882   8.255
 7005POPC   C3B20901   6.134  36.827   7.955
 7005POPC   C4B20902   6.160  36.906   7.655
 7006POPC   NC320903   8.152  21.433   9.455
 7006POPC   PO420904   8.223  21.380   9.155
 7006POPC   GL120905   8.230  21.368   8.855
 7006POPC   GL220906   8.133  21.235   8.855
 7006POPC   C1A20907   8.163  21.351   8.555
 7006POPC   D2A20908   8.185  21.342   8.255
 7006POPC   C3A20909   8.180  21.367   7.955
 7006POPC   C4A20910   8.170  21.427   7.655
 7006POPC   C1B20911   8.141  21.173   8.555
 7006POPC   C2B20912   8.138  21.097   8.255
 7006POPC   C3B20913   8.151  21.164   7.955
 7006POPC   C4B20914   8.169  21.116   7.655
 7007POPC   NC320915  34.551  42.294   9.455
 7007POPC   PO420916  34.554  42.375   9.155
 7007POPC   GL120917  34.561  42.323   8.855
 7007POPC   GL220918  34.441  42.307   8.855
 7007POPC   C1A20919  34.614  42.372   8.555
 7007POPC   D2A20920  34.568  42.295   8.255
 7007POPC   C3A20921  34.574  42.351   7.955
 7007POPC   C4A20922  34.620  42.331   7.655
 7007POPC   C1B20923  34.366  42.238   8.555
 7007POPC   C2B20924  34.398  42.218   8.255
 7007POPC   C3B20925  34.341  42.269   7.955
 7007POPC   C4B20926  34.348  42.249   7.655
 7008POPC   NC320927  15.171  44.711   9.455
 7008POPC   PO420928  15.148  44.662   9.155
 7008POPC   GL120929  15.198  44.617   8.855
 7008POPC   GL220930  15.098  44.550   8.855
 7008POPC   C1A20931  15.136  44.614   8.555
 7008POPC   D2A20932  15.216  44.676   8.255
 7008POPC   C3A20933  15.192  44.652   7.955
 7008POPC   C4A20934  15.185  44.619   7.655
 7008POPC   C1B20935  15.004  44.535   8.555
 7008POPC   C2B20936  15.016  44.460   8.255
 7008POPC   C3B20937  14.993  44.505   7.955
 7008POPC   C4B20938  14.964  44.451   7.655
 7009POPC   NC320939  23.704  31.463   9.455
 7009POPC   PO420940  23.687  31.455   9.155
 7009POPC   GL120941  23.715  31.521   8.855
 7009POPC   GL220942  23.628  31.561   8.855
 7009POPC   C1A20943  23.746  31.430   8.555
 7009POPC   D2A20944  23.674  31.441   8.255
 7009POPC   C3A20945  23.740  31.457   7.955
 7009POPC   C4A20946  23.742  31.442   7.655
 7009POPC   C1B20947  23.531  31.555   8.555
 7009POPC   C2B20948  23.519  31.545   8.255
 7009POPC   C3B20949  23.472  31.565   7.955
 7009POPC   C4B20950  23.508  31.561   7.655
 7010POPC   NC320951  20.567  42.299   9.455
 7010POPC   PO420952  20.641  42.303   9.155
 7010POPC   GL120953  20.626  42.310   8.855
 7010POPC   GL220954  20.762  42.364   8.855
 7010POPC   C1A20955  20.568  42.333   8.555
 7010POPC   D2A20956  20.607  42.302   8.255
 7010POPC   C3A20957  20.624  42.346   7.955
 7010POPC   C4A20958  20.658  42.302   7.655
 7010POPC   C1B20959  20.848  42.358   8.555
 7010POPC   C2B20960  20.865  42.349   8.255
 7010POPC   C3B20961  20.890  42.340   7.955
 7010POPC   C4B20962  20.828  42.323   7.655
 7011POPC   NC320963  20.584  40.824   9.455
 7011POPC   PO420964  20.620  40.833   9.155
 7011POPC   GL120965  20.597  40.762   8.855
 7011POPC   GL220966  20.546  40.761   8.855
 7011POPC   C1A20967  20.652  40.818   8.555
 7011POPC   D2A20968  20.582  40.786   8.255
 7011POPC   C3A20969  20.575  40.798   7.955
 7011POPC   C4A20970  20.644  40.816   7.655
 7011POPC   C1B20971  20.398  40.652   8.555
 7011POPC   C2B20972  20.379  40.629   8.255
 7011POPC   C3B20973  20.366  40.662   7.955
 7011POPC   C4B20974  20.348  40.681   7.655
 7012POPC   NC320975  29.113  35.348   9.455
 7012POPC   PO420976  29.177  35.386   9.155
 7012POPC   GL120977  29.106  35.400   8.855
 7012POPC   GL220978  29.218  35.304   8.855
 7012POPC   C1A20979  29.100  35.367   8.555
 7012POPC   D2A20980  29.125  35.347   8.255
 7012POPC   C3A20981  29.178  35.338   7.955
 7012POPC   C4A20982  29.128  35.336   7.655
 7012POPC   C1B20983  29.350  35.224   8.555
 7012POPC   C2B20984  29.379  35.204   8.255
 7012POPC   C3B20985  29.300  35.200   7.955
 7012POPC   C4B20986  29.318  35.163   7.655
 7013POPC   NC320987  26.827  12.819   9.455
 7013POPC   PO420988  26.770  12.805   9.155
 7013POPC   GL120989  26.851  12.874   8.855
 7013POPC   GL220990  26.762  12.946   8.855
 7013POPC   C1A20991  26.824  12.809   8.555
 7013POPC   D2A20992  26.850  12.896   8.255
 7013POPC   C3A20993  26.827  12.859   7.955
 7013POPC   C4A20994  26.843  12.820   7.655
 7013POPC   C1B20995  26.675  13.030   8.555
 7013POPC   C2B20996  26.720  13.032   8.255
 7013POPC   C3B20997  26.735  13.085   7.955
 7013POPC   C4B20998  26.679  13.097   7.655
 7014POPC   NC320999  44.676  30.730   9.455
 7014POPC   PO421000  44.683  30.721   9.155
 7014POPC   GL121001  44.702  30.739   8.855
 7014POPC   GL221002  44.533  30.751   8.855
 7014POPC   C1A21003  44.707  30.657   8.555
 7014POPC   D2A21004  44.622  30.654   8.255
 7014POPC   C3A21005  44.618  30.664   7.955
 7014POPC   C4A21006  44.639  30.649   7.655
 7014POPC   C1B21007  44.479  30.805   8.555
 7014POPC   C2B21008  44.414  30.857   8.255
 7014POPC   C3B21009  44.409  30.852   7.955
 7014POPC   C4B21010  44.408  30.848   7.655
 7015POPC   NC321011  44.678  10.478   9.455
 7015POPC   PO421012  44.699  10.572   9.155
 7015POPC   GL121013  44.649  10.502   8.855
 7015POPC   GL221014  44.530  10.520   8.855
 7015POPC   C1A21015  44.682  10.552   8.555
 7015POPC   D2A21016  44.695  10.538   8.255
 7015POPC   C3A21017  44.710  10.507   7.955
 7015POPC   C4A21018  44.613  10.524   7.655
 7015POPC   C1B21019  44.413  10.546   8.555
 7015POPC   C2B21020  44.366  10.559   8.255
 7015POPC   C3B21021  44.390  10.548   7.955
 7015POPC   C4B21022  44.374  10.483   7.655
 7016POPC   NC321023  19.869  20.646   9.455
 7016POPC   PO421024  19.835  20.655   9.155
 7016POPC   GL121025  19.788  20.596   8.855
 7016POPC   GL221026  19.741  20.699   8.855
 7016POPC   C1A21027  19.835  20.590   8.555
 7016POPC   D2A21028  19.880  20.639   8.255
 7016POPC   C3A21029  19.850  20.589   7.955
 7016POPC   C4A21030  19.787  20.618   7.655
 7016POPC   C1B21031  19.705  20.792   8.555
 7016POPC   C2B21032  19.753  20.862   8.255
 7016POPC   C3B21033  19.669  20.835   7.955
 7016POPC   C4B21034  19.685  20.780   7.655
 7017POPC   NC321035   0.414  41.534   9.455
 7017POPC   PO421036   0.432  41.547   9.155
 7017POPC   GL121037   0.395  41.521   8.855
 7017POPC   GL221038   0.538  41.569   8.855
 7017POPC   C1A21039   0.452  41.555   8.555
 7017POPC   D2A21040   0.466  41.571   8.255
 7017POPC   C3A21041   0.449  41.533   7.955
 7017POPC   C4A21042   0.444  41.591   7.655
 7017POPC   C1B21043   0.661  41.468   8.555
 7017POPC   C2B21044   0.630  41.513   8.255
 7017POPC   C3B21045   0.646  41.475   7.955
 7017POPC   C4B21046   0.709  41.456   7.655
 7018POPC   NC321047  38.406   5.055   9.455
 7018POPC   PO421048  38.466   5.131   9.155
 7018POPC   GL121049  38.460   5.067   8.855
 7018POPC   GL221050  38.512   5.177   8.855
 7018POPC   C1A21051  38.486   5.136   8.555
 7018POPC   D2A21052  38.486   5.143   8.255
 7018POPC   C3A21053  38.438   5.070   7.955
 7018POPC   C4A21054  38.477   5.079   7.655
 7018POPC   C1B21055  38.471   5.339   8.555
 7018POPC   C2B21056  38.472   5.366   8.255
 7018POPC   C3B21057  38.466   5.381   7.955
 7018POPC   C4B21058  38.491   5.347   7.655
 7019POPC   NC321059  43.906  39.266   9.455
 7019POPC   PO421060  43.929  39.197   9.155
 7019POPC   GL121061  43.845  39.220   8.855
 7019POPC   GL221062  43.873  39.104   8.855
 7019POPC   C1A21063  43.856  39.244   8.555
 7019POPC   D2A21064  43.851  39.280   8.255
 7019POPC   C3A21065  43.856  39.222   7.955
 7019POPC   C4A21066  43.902  39.229   7.655
 7019POPC   C1B21067  43.844  38.951   8.555
 7019POPC   C2B21068  43.896  38.964   8.255
 7019POPC   C3B21069  43.912  38.992   7.955
 7019POPC   C4B21070  43.887  38.947   7.655
 7020POPC   NC321071  22.984  26.033   9.455
 7020POPC   PO421072  22.986  26.059   9.155
 7020POPC   GL121073  22.948  26.036   8.855
 7020POPC   GL221074  22.829  25.929   8.855
 7020POPC   C1A21075  22.949  26.009   8.555
 7020POPC   D2A21076  22.911  26.082   8.255
 7020POPC   C3A21077  22.972  25.993   7.955
 7020POPC   C4A21078  22.965  25.995   7.655
 7020POPC   C1B21079  22.791  25.894   8.555
 7020POPC   C2B21080  22.710  25.869   8.255
 7020POPC   C3B21081  22.717  25.875   7.955
 7020POPC   C4B21082  22.706  25.849   7.655
 7021POPC   NC321083  19.829  18.306   9.455
 7021POPC   PO421084  19.793  18.256   9.155
 7021POPC   GL121085  19.851  18.318   8.855
 7021POPC   GL221086  19.697  18.383   8.855
 7021POPC   C1A21087  19.829  18.292   8.555
 7021POPC   D2A21088  19.823  18.310   8.255
 7021POPC   C3A21089  19.823  18.261   7.955
 7021POPC   C4A21090  19.847  18.317   7.655
 7021POPC   C1B21091  19.590  18.428   8.555
 7021POPC   C2B21092  19.663  18.433   8.255
 7021POPC   C3B21093  19.617  18.406   7.955
 7021POPC   C4B21094  19.678  18.470   7.655
 7022POPC   NC321095  12.870  26.027   9.455
 7022POPC   PO421096  12.814  26.012   9.155
 7022POPC   GL121097  12.895  26.028   8.855
 7022POPC   GL221098  12.993  26.090   8.855
 7022POPC   C1A21099  12.836  26.055   8.555
 7022POPC   D2A21100  12.824  25.994   8.255
 7022POPC   C3A21101  12.891  26.086   7.955
 7022POPC   C4A21102  12.873  26.091   7.655
 7022POPC   C1B21103  13.106  26.081   8.555
 7022POPC   C2B21104  13.071  26.093   8.255
 7022POPC   C3B21105  13.129  26.073   7.955
 7022POPC   C4B21106  13.063  26.124   7.655
 7023POPC   NC321107   0.484  16.758   9.455
 7023POPC   PO421108   0.402  16.704   9.155
 7023POPC   GL121109   0.481  16.711   8.855
 7023POPC   GL221110   0.383  16.709   8.855
 7023POPC   C1A21111   0.424  16.751   8.555
 7023POPC   D2A21112   0.401  16.705   8.255
 7023POPC   C3A21113   0.437  16.684   7.955
 7023POPC   C4A21114   0.401  16.722   7.655
 7023POPC   C1B21115   0.220  16.597   8.555
 7023POPC   C2B21116   0.218  16.551   8.255
 7023POPC   C3B21117   0.193  16.579   7.955
 7023POPC   C4B21118   0.228  16.606   7.655
 7024POPC   NC321119  11.274   5.089   9.455
 7024POPC   PO421120  11.297   5.125   9.155
 7024POPC   GL121121  11.273   5.085   8.855
 7024POPC   GL221122  11.308   4.971   8.855
 7024POPC   C1A21123  11.271   5.089   8.555
 7024POPC   D2A21124  11.279   5.048   8.255
 7024POPC   C3A21125  11.281   5.052   7.955
 7024POPC   C4A21126  11.281   5.123   7.655
 7024POPC   C1B21127  11.291   4.821   8.555
 7024POPC   C2B21128  11.284   4.868   8.255
 7024POPC   C3B21129  11.289   4.897   7.955
 7024POPC   C4B21130  11.242   4.838   7.655
 7025POPC   NC321131  40.790   4.275   9.455
 7025POPC   PO421132  40.748   4.320   9.155
 7025POPC   GL121133  40.749   4.267   8.855
 7025POPC   GL221134  40.840   4.350   8.855
 7025POPC   C1A21135  40.829   4.280   8.555
 7025POPC   D2A21136  40.812   4.276   8.255
 7025POPC   C3A21137  40.767   4.311   7.955
 7025POPC   C4A21138  40.784   4.315   7.655
 7025POPC   C1B21139  40.987   4.446   8.555
 7025POPC   C2B21140  40.950   4.459   8.255
 7025POPC   C3B21141  40.991   4.470   7.955
 7025POPC   C4B21142  41.039   4.438   7.655
 7026POPC   NC321143  22.167  31.440   9.455
 7026POPC   PO421144  22.211  31.466   9.155
 7026POPC   GL121145  22.145  31.456   8.855
 7026POPC   GL221146  22.238  31.349   8.855
 7026POPC   C1A21147  22.177  31.510   8.555
 7026POPC   D2A21148  22.121  31.438   8.255
 7026POPC   C3A21149  22.166  31.447   7.955
 7026POPC   C4A21150  22.184  31.472   7.655
 7026POPC   C1B21151  22.276  31.312   8.555
 7026POPC   C2B21152  22.340  31.253   8.255
 7026POPC   C3B21153  22.325  31.233   7.955
 7026POPC   C4B21154  22.319  31.256   7.655
 7027POPC   NC321155  12.883  37.692   9.455
 7027POPC   PO421156  12.807  37.709   9.155
 7027POPC   GL121157  12.885  37.709   8.855
 7027POPC   GL221158  12.948  37.672   8.855
 7027POPC   C1A21159  12.891  37.685   8.555
 7027POPC   D2A21160  12.853  37.651   8.255
 7027POPC   C3A21161  12.829  37.684   7.955
 7027POPC   C4A21162  12.817  37.696   7.655
 7027POPC   C1B21163  13.100  37.692   8.555
 7027POPC   C2B21164  13.134  37.716   8.255
 7027POPC   C3B21165  13.125  37.695   7.955
 7027POPC   C4B21166  13.126  37.719   7.655
 7028POPC   NC321167   3.546  41.579   9.455
 7028POPC   PO421168   3.549  41.521   9.155
 7028POPC   GL121169   3.527  41.587   8.855
 7028POPC   GL221170   3.375  41.645   8.855
 7028POPC   C1A21171   3.574  41.582   8.555
 7028POPC   D2A21172   3.533  41.563   8.255
 7028POPC   C3A21173   3.577  41.584   7.955
 7028POPC   C4A21174   3.533  41.582   7.655
 7028POPC   C1B21175   3.330  41.686   8.555
 7028POPC   C2B21176   3.306  41.632   8.255
 7028POPC   C3B21177   3.312  41.629   7.955
 7028POPC   C4B21178   3.274  41.684   7.655
 7029POPC   NC321179  12.088  39.192   9.455
 7029POPC   PO421180  12.094  39.191   9.155
 7029POPC   GL121181  12.042  39.218   8.855
 7029POPC   GL221182  11.965  39.269   8.855
 7029POPC   C1A21183  12.079  39.233   8.555
 7029POPC   D2A21184  12.088  39.256   8.255
 7029POPC   C3A21185  12.093  39.201   7.955
 7029POPC   C4A21186  12.028  39.222   7.655
 7029POPC   C1B21187  11.881  39.416   8.555
 7029POPC   C2B21188  11.920  39.437   8.255
 7029POPC   C3B21189  11.944  39.423   7.955
 7029POPC   C4B21190  11.891  39.383   7.655
 7030POPC   NC321191  32.215  35.347   9.455
 7030POPC   PO421192  32.215  35.376   9.155
 7030POPC   GL121193  32.289  35.391   8.855
 7030POPC   GL221194  32.283  35.271   8.855
 7030POPC   C1A21195  32.209  35.338   8.555
 7030POPC   D2A21196  32.263  35.326   8.255
 7030POPC   C3A21197  32.286  35.393   7.955
 7030POPC   C4A21198  32.225  35.313   7.655
 7030POPC   C1B21199  32.408  35.160   8.555
 7030POPC   C2B21200  32.361  35.161   8.255
 7030POPC   C3B21201  32.384  35.122   7.955
 7030POPC   C4B21202  32.419  35.202   7.655
 7031POPC   NC321203  10.533  21.345   9.455
 7031POPC   PO421204  10.519  21.338   9.155
 7031POPC   GL121205  10.557  21.368   8.855
 7031POPC   GL221206  10.655  21.395   8.855
 7031POPC   C1A21207  10.549  21.395   8.555
 7031POPC   D2A21208  10.554  21.434   8.255
 7031POPC   C3A21209  10.557  21.421   7.955
 7031POPC   C4A21210  10.474  21.394   7.655
 7031POPC   C1B21211  10.747  21.361   8.555
 7031POPC   C2B21212  10.730  21.322   8.255
 7031POPC   C3B21213  10.795  21.377   7.955
 7031POPC   C4B21214  10.813  21.358   7.655
 7032POPC   NC321215  38.431  26.780   9.455
 7032POPC   PO421216  38.483  26.845   9.155
 7032POPC   GL121217  38.415  26.867   8.855
 7032POPC   GL221218  38.511  26.658   8.855
 7032POPC   C1A21219  38.463  26.814   8.555
 7032POPC   D2A21220  38.485  26.845   8.255
 7032POPC   C3A21221  38.427  26.829   7.955
 7032POPC   C4A21222  38.500  26.861   7.655
 7032POPC   C1B21223  38.587  26.599   8.555
 7032POPC   C2B21224  38.502  26.631   8.255
 7032POPC   C3B21225  38.548  26.602   7.955
 7032POPC   C4B21226  38.538  26.617   7.655
 7033POPC   NC321227  35.307  43.929   9.455
 7033POPC   PO421228  35.398  43.868   9.155
 7033POPC   GL121229  35.314  43.933   8.855
 7033POPC   GL221230  35.340  43.791   8.855
 7033POPC   C1A21231  35.395  43.875   8.555
 7033POPC   D2A21232  35.354  43.838   8.255
 7033POPC   C3A21233  35.379  43.883   7.955
 7033POPC   C4A21234  35.315  43.854   7.655
 7033POPC   C1B21235  35.349  43.666   8.555
 7033POPC   C2B21236  35.364  43.620   8.255
 7033POPC   C3B21237  35.355  43.591   7.955
 7033POPC   C4B21238  35.386  43.671   7.655
 7034POPC   NC321239  10.561   7.457   9.455
 7034POPC   PO421240  10.522   7.401   9.155
 7034POPC   GL121241  10.569   7.386   8.855
 7034POPC   GL221242  10.499   7.557   8.855
 7034POPC   C1A21243  10.484   7.456   8.555
 7034POPC   D2A21244  10.504   7.469   8.255
 7034POPC   C3A21245  10.541   7.405   7.955
 7034POPC   C4A21246  10.498   7.419   7.655
 7034POPC   C1B21247  10.440   7.677   8.555
 7034POPC   C2B21248  10.491   7.716   8.255
 7034POPC   C3B21249  10.481   7.712   7.955
 7034POPC   C4B21250  10.489   7.628   7.655
 7035POPC   NC321251  11.342   3.566   9.455
 7035POPC   PO421252  11.286   3.543   9.155
 7035POPC   GL121253  11.284   3.542   8.855
 7035POPC   GL221254  11.398   3.603   8.855
 7035POPC   C1A21255  11.260   3.585   8.555
 7035POPC   D2A21256  11.340   3.581   8.255
 7035POPC   C3A21257  11.291   3.572   7.955
 7035POPC   C4A21258  11.322   3.577   7.655
 7035POPC   C1B21259  11.579   3.619   8.555
 7035POPC   C2B21260  11.566   3.545   8.255
 7035POPC   C3B21261  11.510   3.552   7.955
 7035POPC   C4B21262  11.554   3.636   7.655
 7036POPC   NC321263  11.287  39.243   9.455
 7036POPC   PO421264  11.289  39.278   9.155
 7036POPC   GL121265  11.299  39.209   8.855
 7036POPC   GL221266  11.278  39.322   8.855
 7036POPC   C1A21267  11.342  39.200   8.555
 7036POPC   D2A21268  11.326  39.224   8.255
 7036POPC   C3A21269  11.266  39.242   7.955
 7036POPC   C4A21270  11.322  39.196   7.655
 7036POPC   C1B21271  11.278  39.516   8.555
 7036POPC   C2B21272  11.277  39.455   8.255
 7036POPC   C3B21273  11.275  39.469   7.955
 7036POPC   C4B21274  11.257  39.513   7.655
 7037POPC   NC321275  29.907  18.275   9.455
 7037POPC   PO421276  29.872  18.255   9.155
 7037POPC   GL121277  29.961  18.236   8.855
 7037POPC   GL221278  29.851  18.124   8.855
 7037POPC   C1A21279  29.954  18.295   8.555
 7037POPC   D2A21280  29.911  18.328   8.255
 7037POPC   C3A21281  29.962  18.244   7.955
 7037POPC   C4A21282  29.891  18.256   7.655
 7037POPC   C1B21283  29.900  17.999   8.555
 7037POPC   C2B21284  29.836  18.037   8.255
 7037POPC   C3B21285  29.894  18.014   7.955
 7037POPC   C4B21286  29.896  18.052   7.655
 7038POPC   NC321287  33.048  37.729   9.455
 7038POPC   PO421288  33.011  37.636   9.155
 7038POPC   GL121289  32.990  37.708   8.855
 7038POPC   GL221290  33.125  37.733   8.855
 7038POPC   C1A21291  32.983  37.709   8.555
 7038POPC   D2A21292  33.028  37.644   8.255
 7038POPC   C3A21293  33.001  37.644   7.955
 7038POPC   C4A21294  33.024  37.632   7.655
 7038POPC   C1B21295  33.314  37.748   8.555
 7038POPC   C2B21296  33.305  37.684   8.255
 7038POPC   C3B21297  33.233  37.717   7.955
 7038POPC   C4B21298  33.242  37.746   7.655
 7039POPC   NC321299  31.520  28.400   9.455
 7039POPC   PO421300  31.499  28.335   9.155
 7039POPC   GL121301  31.429  28.416   8.855
 7039POPC   GL221302  31.454  28.236   8.855
 7039POPC   C1A21303  31.493  28.340   8.555
 7039POPC   D2A21304  31.465  28.418   8.255
 7039POPC   C3A21305  31.482  28.319   7.955
 7039POPC   C4A21306  31.447  28.379   7.655
 7039POPC   C1B21307  31.404  28.121   8.555
 7039POPC   C2B21308  31.430  28.098   8.255
 7039POPC   C3B21309  31.386  28.154   7.955
 7039POPC   C4B21310  31.356  28.105   7.655
 7040POPC   NC321311  10.544  44.640   9.455
 7040POPC   PO421312  10.546  44.637   9.155
 7040POPC   GL121313  10.491  44.682   8.855
 7040POPC   GL221314  10.554  44.748   8.855
 7040POPC   C1A21315  10.562  44.699   8.555
 7040POPC   D2A21316  10.501  44.616   8.255
 7040POPC   C3A21317  10.515  44.664   7.955
 7040POPC   C4A21318  10.568  44.620   7.655
 7040POPC   C1B21319  10.681  44.869   8.555
 7040POPC   C2B21320  10.615  44.847   8.255
 7040POPC   C3B21321  10.636  44.853   7.955
 7040POPC   C4B21322  10.616  44.890   7.655
 7041POPC   NC321323  43.926  25.288   9.455
 7041POPC   PO421324  43.903  25.288   9.155
 7041POPC   GL121325  43.858  25.238   8.855
 7041POPC   GL221326  43.738  25.372   8.855
 7041POPC   C1A21327  43.908  25.279   8.555
 7041POPC   D2A21328  43.861  25.283   8.255
 7041POPC   C3A21329  43.871  25.274   7.955
 7041POPC   C4A21330  43.888  25.297   7.655
 7041POPC   C1B21331  43.717  25.441   8.555
 7041POPC   C2B21332  43.684  25.392   8.255
 7041POPC   C3B21333  43.672  25.460   7.955
 7041POPC   C4B21334  43.665  25.453   7.655
 7042POPC   NC321335  15.984   0.398   9.455
 7042POPC   PO421336  15.914   0.459   9.155
 7042POPC   GL121337  16.005   0.480   8.855
 7042POPC   GL221338  16.038   0.375   8.855
 7042POPC   C1A21339  15.953   0.402   8.555
 7042POPC   D2A21340  15.987   0.403   8.255
 7042POPC   C3A21341  15.920   0.459   7.955
 7042POPC   C4A21342  15.993   0.474   7.655
 7042POPC   C1B21343  16.169   0.321   8.555
 7042POPC   C2B21344  16.150   0.371   8.255
 7042POPC   C3B21345  16.220   0.333   7.955
 7042POPC   C4B21346  16.213   0.365   7.655
 7043POPC   NC321347   1.200  35.392   9.455
 7043POPC   PO421348   1.232  35.338   9.155
 7043POPC   GL121349   1.214  35.375   8.855
 7043POPC   GL221350   1.131  35.446   8.855
 7043POPC   C1A21351   1.208  35.315   8.555
 7043POPC   D2A21352   1.216  35.363   8.255
 7043POPC   C3A21353   1.192  35.378   7.955
 7043POPC   C4A21354   1.248  35.389   7.655
 7043POPC   C1B21355   1.007  35.472   8.555
 7043POPC   C2B21356   0.950  35.431   8.255
 7043POPC   C3B21357   0.961  35.506   7.955
 7043POPC   C4B21358   1.033  35.495   7.655
 7044POPC   NC321359  41.574  44.660   9.455
 7044POPC   PO421360  41.592  44.651   9.155
 7044POPC   GL121361  41.560  44.652   8.855
 7044POPC   GL221362  41.414  44.623   8.855
 7044POPC   C1A21363  41.605  44.688   8.555
 7044POPC   D2A21364  41.548  44.625   8.255
 7044POPC   C3A21365  41.592  44.685   7.955
 7044POPC   C4A21366  41.567  44.649   7.655
 7044POPC   C1B21367  41.329  44.622   8.555
 7044POPC   C2B21368  41.322  44.685   8.255
 7044POPC   C3B21369  41.314  44.672   7.955
 7044POPC   C4B21370  41.300  44.715   7.655
 7045POPC   NC321371  29.938  31.520   9.455
 7045POPC   PO421372  29.947  31.444   9.155
 7045POPC   GL121373  29.892  31.518   8.855
 7045POPC   GL221374  30.042  31.517   8.855
 7045POPC   C1A21375  29.944  31.479   8.555
 7045POPC   D2A21376  29.883  31.508   8.255
 7045POPC   C3A21377  29.910  31.480   7.955
 7045POPC   C4A21378  29.872  31.479   7.655
 7045POPC   C1B21379  30.172  31.572   8.555
 7045POPC   C2B21380  30.126  31.570   8.255
 7045POPC   C3B21381  30.178  31.591   7.955
 7045POPC   C4B21382  30.136  31.569   7.655
 7046POPC   NC321383   1.962   4.331   9.455
 7046POPC   PO421384   2.021   4.276   9.155
 7046POPC   GL121385   1.995   4.319   8.855
 7046POPC   GL221386   1.885   4.235   8.855
 7046POPC   C1A21387   1.976   4.354   8.555
 7046POPC   D2A21388   1.955   4.363   8.255
 7046POPC   C3A21389   1.953   4.355   7.955
 7046POPC   C4A21390   1.951   4.339   7.655
 7046POPC   C1B21391   1.729   4.258   8.555
 7046POPC   C2B21392   1.713   4.227   8.255
 7046POPC   C3B21393   1.760   4.243   7.955
 7046POPC   C4B21394   1.791   4.186   7.655
 7047POPC   NC321395  21.378   5.061   9.455
 7047POPC   PO421396  21.359   5.062   9.155
 7047POPC   GL121397  21.383   5.080   8.855
 7047POPC   GL221398  21.357   4.936   8.855
 7047POPC   C1A21399  21.412   5.085   8.555
 7047POPC   D2A21400  21.407   5.111   8.255
 7047POPC   C3A21401  21.368   5.057   7.955
 7047POPC   C4A21402  21.409   5.082   7.655
 7047POPC   C1B21403  21.300   4.849   8.555
 7047POPC   C2B21404  21.303   4.905   8.255
 7047POPC   C3B21405  21.241   4.885   7.955
 7047POPC   C4B21406  21.278   4.902   7.655
 7048POPC   NC321407  31.449   5.128   9.455
 7048POPC   PO421408  31.490   5.086   9.155
 7048POPC   GL121409  31.453   5.123   8.855
 7048POPC   GL221410  31.536   5.210   8.855
 7048POPC   C1A21411  31.440   5.055   8.555
 7048POPC   D2A21412  31.520   5.074   8.255
 7048POPC   C3A21413  31.459   5.068   7.955
 7048POPC   C4A21414  31.431   5.113   7.655
 7048POPC   C1B21415  31.569   5.342   8.555
 7048POPC   C2B21416  31.571   5.309   8.255
 7048POPC   C3B21417  31.566   5.278   7.955
 7048POPC   C4B21418  31.608   5.312   7.655
 7049POPC   NC321419  44.658  36.140   9.455
 7049POPC   PO421420  44.638  36.172   9.155
 7049POPC   GL121421  44.673  36.111   8.855
 7049POPC   GL221422  44.575  36.083   8.855
 7049POPC   C1A21423  44.688  36.165   8.555
 7049POPC   D2A21424  44.657  36.106   8.255
 7049POPC   C3A21425  44.646  36.121   7.955
 7049POPC   C4A21426  44.659  36.131   7.655
 7049POPC   C1B21427  44.381  36.029   8.555
 7049POPC   C2B21428  44.440  36.031   8.255
 7049POPC   C3B21429  44.464  36.047   7.955
 7049POPC   C4B21430  44.452  36.000   7.655
 7050POPC   NC321431  43.074   4.325   9.455
 7050POPC   PO421432  43.152   4.292   9.155
 7050POPC   GL121433  43.143   4.334   8.855
 7050POPC   GL221434  43.236   4.377   8.855
 7050POPC   C1A21435  43.060   4.362   8.555
 7050POPC   D2A21436  43.092   4.281   8.255
 7050POPC   C3A21437  43.127   4.305   7.955
 7050POPC   C4A21438  43.075   4.320   7.655
 7050POPC   C1B21439  43.370   4.492   8.555
 7050POPC   C2B21440  43.310   4.436   8.255
 7050POPC   C3B21441  43.290   4.457   7.955
 7050POPC   C4B21442  43.290   4.466   7.655
 7051POPC   NC321443  20.589  27.639   9.455
 7051POPC   PO421444  20.607  27.598   9.155
 7051POPC   GL121445  20.624  27.574   8.855
 7051POPC   GL221446  20.540  27.623   8.855
 7051POPC   C1A21447  20.587  27.564   8.555
 7051POPC   D2A21448  20.658  27.625   8.255
 7051POPC   C3A21449  20.640  27.558   7.955
 7051POPC   C4A21450  20.654  27.628   7.655
 7051POPC   C1B21451  20.361  27.675   8.555
 7051POPC   C2B21452  20.332  27.665   8.255
 7051POPC   C3B21453  20.344  27.737   7.955
 7051POPC   C4B21454  20.407  27.734   7.655
 7052POPC   NC321455  29.964  12.111   9.455
 7052POPC   PO421456  29.909  12.034   9.155
 7052POPC   GL121457  29.940  12.115   8.855
 7052POPC   GL221458  29.871  11.974   8.855
 7052POPC   C1A21459  29.970  12.073   8.555
 7052POPC   D2A21460  29.897  12.026   8.255
 7052POPC   C3A21461  29.965  12.049   7.955
 7052POPC   C4A21462  29.970  12.026   7.655
 7052POPC   C1B21463  29.769  11.846   8.555
 7052POPC   C2B21464  29.764  11.882   8.255
 7052POPC   C3B21465  29.762  11.861   7.955
 7052POPC   C4B21466  29.762  11.827   7.655
 7053POPC   NC321467  19.103  30.688   9.455
 7053POPC   PO421468  19.105  30.724   9.155
 7053POPC   GL121469  19.064  30.721   8.855
 7053POPC   GL221470  19.090  30.536   8.855
 7053POPC   C1A21471  19.030  30.707   8.555
 7053POPC   D2A21472  19.033  30.681   8.255
 7053POPC   C3A21473  19.026  30.703   7.955
 7053POPC   C4A21474  19.044  30.673   7.655
 7053POPC   C1B21475  19.120  30.480   8.555
 7053POPC   C2B21476  19.117  30.495   8.255
 7053POPC   C3B21477  19.121  30.501   7.955
 7053POPC   C4B21478  19.090  30.425   7.655
 7054POPC   NC321479  10.563   8.243   9.455
 7054POPC   PO421480  10.523   8.235   9.155
 7054POPC   GL121481  10.511   8.240   8.855
 7054POPC   GL221482  10.644   8.237   8.855
 7054POPC   C1A21483  10.497   8.244   8.555
 7054POPC   D2A21484  10.546   8.230   8.255
 7054POPC   C3A21485  10.475   8.230   7.955
 7054POPC   C4A21486  10.533   8.245   7.655
 7054POPC   C1B21487  10.737   8.190   8.555
 7054POPC   C2B21488  10.782   8.205   8.255
 7054POPC   C3B21489  10.801   8.223   7.955
 7054POPC   C4B21490  10.759   8.200   7.655
 7055POPC   NC321491  19.068   1.210   9.455
 7055POPC   PO421492  19.075   1.256   9.155
 7055POPC   GL121493  19.048   1.190   8.855
 7055POPC   GL221494  18.983   1.358   8.855
 7055POPC   C1A21495  19.024   1.166   8.555
 7055POPC   D2A21496  19.030   1.196   8.255
 7055POPC   C3A21497  19.098   1.217   7.955
 7055POPC   C4A21498  19.023   1.250   7.655
 7055POPC   C1B21499  18.885   1.419   8.555
 7055POPC   C2B21500  18.900   1.367   8.255
 7055POPC   C3B21501  18.913   1.388   7.955
 7055POPC   C4B21502  18.893   1.423   7.655
 7056POPC   NC321503  19.069  33.813   9.455
 7056POPC   PO421504  19.013  33.844   9.155
 7056POPC   GL121505  19.053  33.828   8.855
 7056POPC   GL221506  19.000  33.918   8.855
 7056POPC   C1A21507  19.020  33.811   8.555
 7056POPC   D2A21508  19.023  33.782   8.255
 7056POPC   C3A21509  19.079  33.779   7.955
 7056POPC   C4A21510  19.080  33.824   7.655
 7056POPC   C1B21511  18.852  33.938   8.555
 7056POPC   C2B21512  18.886  33.899   8.255
 7056POPC   C3B21513  18.830  33.935   7.955
 7056POPC   C4B21514  18.822  33.929   7.655
 7057POPC   NC321515  22.161  32.263   9.455
 7057POPC   PO421516  22.208  32.207   9.155
 7057POPC   GL121517  22.131  32.251   8.855
 7057POPC   GL221518  22.246  32.330   8.855
 7057POPC   C1A21519  22.202  32.217   8.555
 7057POPC   D2A21520  22.194  32.252   8.255
 7057POPC   C3A21521  22.204  32.209   7.955
 7057POPC   C4A21522  22.207  32.202   7.655
 7057POPC   C1B21523  22.380  32.394   8.555
 7057POPC   C2B21524  22.333  32.379   8.255
 7057POPC   C3B21525  22.409  32.352   7.955
 7057POPC   C4B21526  22.395  32.367   7.655
 7058POPC   NC321527  25.240  44.660   9.455
 7058POPC   PO421528  25.226  44.689   9.155
 7058POPC   GL121529  25.241  44.619   8.855
 7058POPC   GL221530  25.373  44.720   8.855
 7058POPC   C1A21531  25.254  44.701   8.555
 7058POPC   D2A21532  25.291  44.656   8.255
 7058POPC   C3A21533  25.283  44.682   7.955
 7058POPC   C4A21534  25.312  44.627   7.655
 7058POPC   C1B21535  25.546  44.686   8.555
 7058POPC   C2B21536  25.546  44.672   8.255
 7058POPC   C3B21537  25.488  44.707   7.955
 7058POPC   C4B21538  25.464  44.721   7.655
 7059POPC   NC321539  30.676  29.115   9.455
 7059POPC   PO421540  30.737  29.106   9.155
 7059POPC   GL121541  30.746  29.192   8.855
 7059POPC   GL221542  30.718  28.992   8.855
 7059POPC   C1A21543  30.741  29.132   8.555
 7059POPC   D2A21544  30.678  29.183   8.255
 7059POPC   C3A21545  30.718  29.146   7.955
 7059POPC   C4A21546  30.660  29.173   7.655
 7059POPC   C1B21547  30.813  28.953   8.555
 7059POPC   C2B21548  30.818  28.933   8.255
 7059POPC   C3B21549  30.850  28.976   7.955
 7059POPC   C4B21550  30.810  28.938   7.655
 7060POPC   NC321551   6.631   7.438   9.455
 7060POPC   PO421552   6.682   7.371   9.155
 7060POPC   GL121553   6.660   7.432   8.855
 7060POPC   GL221554   6.602   7.509   8.855
 7060POPC   C1A21555   6.612   7.464   8.555
 7060POPC   D2A21556   6.633   7.421   8.255
 7060POPC   C3A21557   6.670   7.378   7.955
 7060POPC   C4A21558   6.670   7.451   7.655
 7060POPC   C1B21559   6.527   7.681   8.555
 7060POPC   C2B21560   6.484   7.600   8.255
 7060POPC   C3B21561   6.524   7.616   7.955
 7060POPC   C4B21562   6.558   7.603   7.655
 7061POPC   NC321563  18.233  31.483   9.455
 7061POPC   PO421564  18.261  31.510   9.155
 7061POPC   GL121565  18.296  31.495   8.855
 7061POPC   GL221566  18.412  31.396   8.855
 7061POPC   C1A21567  18.280  31.492   8.555
 7061POPC   D2A21568  18.310  31.516   8.255
 7061POPC   C3A21569  18.326  31.521   7.955
 7061POPC   C4A21570  18.303  31.500   7.655
 7061POPC   C1B21571  18.487  31.301   8.555
 7061POPC   C2B21572  18.437  31.318   8.255
 7061POPC   C3B21573  18.415  31.236   7.955
 7061POPC   C4B21574  18.413  31.312   7.655
 7062POPC   NC321575  29.140  40.813   9.455
 7062POPC   PO421576  29.144  40.815   9.155
 7062POPC   GL121577  29.174  40.821   8.855
 7062POPC   GL221578  29.172  40.840   8.855
 7062POPC   C1A21579  29.113  40.759   8.555
 7062POPC   D2A21580  29.097  40.829   8.255
 7062POPC   C3A21581  29.170  40.802   7.955
 7062POPC   C4A21582  29.143  40.810   7.655
 7062POPC   C1B21583  29.337  40.961   8.555
 7062POPC   C2B21584  29.315  41.020   8.255
 7062POPC   C3B21585  29.335  40.972   7.955
 7062POPC   C4B21586  29.280  40.970   7.655
 7063POPC   NC321587  14.370  41.513   9.455
 7063POPC   PO421588  14.408  41.607   9.155
 7063POPC   GL121589  14.354  41.593   8.855
 7063POPC   GL221590  14.288  41.506   8.855
 7063POPC   C1A21591  14.400  41.552   8.555
 7063POPC   D2A21592  14.439  41.569   8.255
 7063POPC   C3A21593  14.372  41.581   7.955
 7063POPC   C4A21594  14.429  41.594   7.655
 7063POPC   C1B21595  14.194  41.452   8.555
 7063POPC   C2B21596  14.176  41.467   8.255
 7063POPC   C3B21597  14.148  41.386   7.955
 7063POPC   C4B21598  14.199  41.436   7.655
 7064POPC   NC321599  37.708   2.011   9.455
 7064POPC   PO421600  37.694   2.004   9.155
 7064POPC   GL121601  37.669   2.036   8.855
 7064POPC   GL221602  37.750   2.151   8.855
 7064POPC   C1A21603  37.729   2.014   8.555
 7064POPC   D2A21604  37.672   1.949   8.255
 7064POPC   C3A21605  37.686   2.011   7.955
 7064POPC   C4A21606  37.676   1.949   7.655
 7064POPC   C1B21607  37.747   2.234   8.555
 7064POPC   C2B21608  37.744   2.258   8.255
 7064POPC   C3B21609  37.702   2.185   7.955
 7064POPC   C4B21610  37.695   2.192   7.655
 7065POPC   NC321611   4.336  41.585   9.455
 7065POPC   PO421612   4.337  41.575   9.155
 7065POPC   GL121613   4.335  41.538   8.855
 7065POPC   GL221614   4.383  41.626   8.855
 7065POPC   C1A21615   4.274  41.568   8.555
 7065POPC   D2A21616   4.275  41.583   8.255
 7065POPC   C3A21617   4.282  41.536   7.955
 7065POPC   C4A21618   4.287  41.560   7.655
 7065POPC   C1B21619   4.465  41.722   8.555
 7065POPC   C2B21620   4.470  41.753   8.255
 7065POPC   C3B21621   4.507  41.799   7.955
 7065POPC   C4B21622   4.485  41.752   7.655
 7066POPC   NC321623   4.275   4.312   9.455
 7066POPC   PO421624   4.270   4.302   9.155
 7066POPC   GL121625   4.316   4.282   8.855
 7066POPC   GL221626   4.240   4.357   8.855
 7066POPC   C1A21627   4.361   4.280   8.555
 7066POPC   D2A21628   4.362   4.338   8.255
 7066POPC   C3A21629   4.331   4.268   7.955
 7066POPC   C4A21630   4.353   4.302   7.655
 7066POPC   C1B21631   4.061   4.407   8.555
 7066POPC   C2B21632   4.073   4.328   8.255
 7066POPC   C3B21633   4.052   4.411   7.955
 7066POPC   C4B21634   4.040   4.419   7.655
 7067POPC   NC321635  19.078  29.910   9.455
 7067POPC   PO421636  19.036  29.937   9.155
 7067POPC   GL121637  19.054  29.932   8.855
 7067POPC   GL221638  19.078  30.085   8.855
 7067POPC   C1A21639  19.085  29.891   8.555
 7067POPC   D2A21640  19.025  29.900   8.255
 7067POPC   C3A21641  19.025  29.918   7.955
 7067POPC   C4A21642  19.097  29.880   7.655
 7067POPC   C1B21643  19.057  30.186   8.555
 7067POPC   C2B21644  19.043  30.120   8.255
 7067POPC   C3B21645  19.074  30.207   7.955
 7067POPC   C4B21646  19.046  30.147   7.655
 7068POPC   NC321647  36.880  12.823   9.455
 7068POPC   PO421648  36.920  12.811   9.155
 7068POPC   GL121649  36.860  12.888   8.855
 7068POPC   GL221650  36.849  12.895   8.855
 7068POPC   C1A21651  36.923  12.813   8.555
 7068POPC   D2A21652  36.920  12.879   8.255
 7068POPC   C3A21653  36.859  12.831   7.955
 7068POPC   C4A21654  36.916  12.870   7.655
 7068POPC   C1B21655  36.727  13.039   8.555
 7068POPC   C2B21656  36.728  13.071   8.255
 7068POPC   C3B21657  36.758  13.072   7.955
 7068POPC   C4B21658  36.699  13.007   7.655
 7069POPC   NC321659  22.162  34.535   9.455
 7069POPC   PO421660  22.130  34.613   9.155
 7069POPC   GL121661  22.127  34.592   8.855
 7069POPC   GL221662  22.094  34.440   8.855
 7069POPC   C1A21663  22.136  34.564   8.555
 7069POPC   D2A21664  22.133  34.557   8.255
 7069POPC   C3A21665  22.148  34.591   7.955
 7069POPC   C4A21666  22.184  34.589   7.655
 7069POPC   C1B21667  22.036  34.396   8.555
 7069POPC   C2B21668  22.034  34.402   8.255
 7069POPC   C3B21669  22.007  34.405   7.955
 7069POPC   C4B21670  21.947  34.379   7.655
 7070POPC   NC321671   7.372   1.259   9.455
 7070POPC   PO421672   7.407   1.245   9.155
 7070POPC   GL121673   7.451   1.228   8.855
 7070POPC   GL221674   7.421   1.354   8.855
 7070POPC   C1A21675   7.461   1.260   8.555
 7070POPC   D2A21676   7.470   1.171   8.255
 7070POPC   C3A21677   7.380   1.164   7.955
 7070POPC   C4A21678   7.440   1.187   7.655
 7070POPC   C1B21679   7.379   1.430   8.555
 7070POPC   C2B21680   7.371   1.432   8.255
 7070POPC   C3B21681   7.339   1.492   7.955
 7070POPC   C4B21682   7.381   1.482   7.655
 7071POPC   NC321683   2.776   5.908   9.455
 7071POPC   PO421684   2.718   5.890   9.155
 7071POPC   GL121685   2.746   5.897   8.855
 7071POPC   GL221686   2.835   5.794   8.855
 7071POPC   C1A21687   2.724   5.831   8.555
 7071POPC   D2A21688   2.750   5.868   8.255
 7071POPC   C3A21689   2.722   5.868   7.955
 7071POPC   C4A21690   2.758   5.891   7.655
 7071POPC   C1B21691   3.015   5.761   8.555
 7071POPC   C2B21692   2.953   5.822   8.255
 7071POPC   C3B21693   2.988   5.801   7.955
 7071POPC   C4B21694   3.032   5.820   7.655
 7072POPC   NC321695  43.139  22.143   9.455
 7072POPC   PO421696  43.110  22.141   9.155
 7072POPC   GL121697  43.159  22.211   8.855
 7072POPC   GL221698  43.055  22.038   8.855
 7072POPC   C1A21699  43.111  22.172   8.555
 7072POPC   D2A21700  43.068  22.120   8.255
 7072POPC   C3A21701  43.071  22.156   7.955
 7072POPC   C4A21702  43.114  22.148   7.655
 7072POPC   C1B21703  42.903  22.015   8.555
 7072POPC   C2B21704  42.925  21.991   8.255
 7072POPC   C3B21705  42.964  22.030   7.955
 7072POPC   C4B21706  42.902  22.036   7.655
 7073POPC   NC321707  41.513  21.376   9.455
 7073POPC   PO421708  41.606  21.382   9.155
 7073POPC   GL121709  41.543  21.345   8.855
 7073POPC   GL221710  41.452  21.381   8.855
 7073POPC   C1A21711  41.569  21.428   8.555
 7073POPC   D2A21712  41.595  21.424   8.255
 7073POPC   C3A21713  41.602  21.375   7.955
 7073POPC   C4A21714  41.599  21.395   7.655
 7073POPC   C1B21715  41.336  21.271   8.555
 7073POPC   C2B21716  41.301  21.259   8.255
 7073POPC   C3B21717  41.362  21.330   7.955
 7073POPC   C4B21718  41.285  21.309   7.655
 7074POPC   NC321719  19.817  19.096   9.455
 7074POPC   PO421720  19.848  19.011   9.155
 7074POPC   GL121721  19.797  19.021   8.855
 7074POPC   GL221722  19.881  19.167   8.855
 7074POPC   C1A21723  19.843  19.045   8.555
 7074POPC   D2A21724  19.855  19.084   8.255
 7074POPC   C3A21725  19.794  19.106   7.955
 7074POPC   C4A21726  19.822  19.076   7.655
 7074POPC   C1B21727  19.938  19.250   8.555
 7074POPC   C2B21728  19.970  19.330   8.255
 7074POPC   C3B21729  19.980  19.294   7.955
 7074POPC   C4B21730  19.923  19.257   7.655
 7075POPC   NC321731   5.098   3.505   9.455
 7075POPC   PO421732   5.119   3.562   9.155
 7075POPC   GL121733   5.047   3.569   8.855
 7075POPC   GL221734   5.049   3.482   8.855
 7075POPC   C1A21735   5.113   3.506   8.555
 7075POPC   D2A21736   5.141   3.525   8.255
 7075POPC   C3A21737   5.081   3.579   7.955
 7075POPC   C4A21738   5.103   3.526   7.655
 7075POPC   C1B21739   4.947   3.368   8.555
 7075POPC   C2B21740   4.974   3.349   8.255
 7075POPC   C3B21741   4.930   3.379   7.955
 7075POPC   C4B21742   4.987   3.355   7.655
 7076POPC   NC321743  44.617   5.087   9.455
 7076POPC   PO421744  44.662   5.131   9.155
 7076POPC   GL121745  44.690   5.128   8.855
 7076POPC   GL221746  44.610   5.025   8.855
 7076POPC   C1A21747  44.625   5.076   8.555
 7076POPC   D2A21748  44.688   5.056   8.255
 7076POPC   C3A21749  44.683   5.086   7.955
 7076POPC   C4A21750  44.684   5.086   7.655
 7076POPC   C1B21751  44.471   4.900   8.555
 7076POPC   C2B21752  44.428   4.891   8.255
 7076POPC   C3B21753  44.436   4.903   7.955
 7076POPC   C4B21754  44.506   4.916   7.655
 7077POPC   NC321755  23.687  30.744   9.455
 7077POPC   PO421756  23.740  30.707   9.155
 7077POPC   GL121757  23.686  30.657   8.855
 7077POPC   GL221758  23.687  30.796   8.855
 7077POPC   C1A21759  23.708  30.720   8.555
 7077POPC   D2A21760  23.694  30.724   8.255
 7077POPC   C3A21761  23.734  30.663   7.955
 7077POPC   C4A21762  23.665  30.673   7.655
 7077POPC   C1B21763  23.674  30.939   8.555
 7077POPC   C2B21764  23.748  30.949   8.255
 7077POPC   C3B21765  23.704  30.901   7.955
 7077POPC   C4B21766  23.733  30.992   7.655
 7078POPC   NC321767  15.914  10.568   9.455
 7078POPC   PO421768  15.924  10.546   9.155
 7078POPC   GL121769  15.960  10.551   8.855
 7078POPC   GL221770  16.026  10.508   8.855
 7078POPC   C1A21771  15.952  10.544   8.555
 7078POPC   D2A21772  15.962  10.496   8.255
 7078POPC   C3A21773  15.947  10.560   7.955
 7078POPC   C4A21774  15.975  10.512   7.655
 7078POPC   C1B21775  16.227  10.424   8.555
 7078POPC   C2B21776  16.157  10.378   8.255
 7078POPC   C3B21777  16.221  10.369   7.955
 7078POPC   C4B21778  16.207  10.448   7.655
 7079POPC   NC321779  34.526  33.031   9.455
 7079POPC   PO421780  34.530  33.064   9.155
 7079POPC   GL121781  34.587  33.015   8.855
 7079POPC   GL221782  34.482  33.024   8.855
 7079POPC   C1A21783  34.560  33.071   8.555
 7079POPC   D2A21784  34.543  33.049   8.255
 7079POPC   C3A21785  34.579  33.003   7.955
 7079POPC   C4A21786  34.575  32.983   7.655
 7079POPC   C1B21787  34.384  32.880   8.555
 7079POPC   C2B21788  34.387  32.928   8.255
 7079POPC   C3B21789  34.299  32.944   7.955
 7079POPC   C4B21790  34.378  32.946   7.655
 7080POPC   NC321791  30.742   5.093   9.455
 7080POPC   PO421792  30.713   5.094   9.155
 7080POPC   GL121793  30.659   5.047   8.855
 7080POPC   GL221794  30.799   5.154   8.855
 7080POPC   C1A21795  30.701   5.090   8.555
 7080POPC   D2A21796  30.724   5.088   8.255
 7080POPC   C3A21797  30.730   5.106   7.955
 7080POPC   C4A21798  30.672   5.141   7.655
 7080POPC   C1B21799  30.862   5.260   8.555
 7080POPC   C2B21800  30.872   5.250   8.255
 7080POPC   C3B21801  30.866   5.337   7.955
 7080POPC   C4B21802  30.836   5.265   7.655
 7081POPC   NC321803  12.080  33.050   9.455
 7081POPC   PO421804  12.026  32.983   9.155
 7081POPC   GL121805  12.077  33.028   8.855
 7081POPC   GL221806  12.175  33.013   8.855
 7081POPC   C1A21807  12.084  33.051   8.555
 7081POPC   D2A21808  12.042  32.987   8.255
 7081POPC   C3A21809  12.040  33.030   7.955
 7081POPC   C4A21810  12.060  32.990   7.655
 7081POPC   C1B21811  12.321  32.855   8.555
 7081POPC   C2B21812  12.294  32.938   8.255
 7081POPC   C3B21813  12.269  32.908   7.955
 7081POPC   C4B21814  12.252  32.935   7.655
 7082POPC   NC321815  14.412  24.440   9.455
 7082POPC   PO421816  14.365  24.529   9.155
 7082POPC   GL121817  14.391  24.454   8.855
 7082POPC   GL221818  14.400  24.357   8.855
 7082POPC   C1A21819  14.399  24.524   8.555
 7082POPC   D2A21820  14.437  24.517   8.255
 7082POPC   C3A21821  14.406  24.453   7.955
 7082POPC   C4A21822  14.400  24.480   7.655
 7082POPC   C1B21823  14.357  24.280   8.555
 7082POPC   C2B21824  14.365  24.238   8.255
 7082POPC   C3B21825  14.412  24.226   7.955
 7082POPC   C4B21826  14.370  24.269   7.655
 7083POPC   NC321827  42.377  15.991   9.455
 7083POPC   PO421828  42.348  15.939   9.155
 7083POPC   GL121829  42.315  15.979   8.855
 7083POPC   GL221830  42.237  15.964   8.855
 7083POPC   C1A21831  42.344  15.915   8.555
 7083POPC   D2A21832  42.364  15.918   8.255
 7083POPC   C3A21833  42.348  15.982   7.955
 7083POPC   C4A21834  42.300  15.947   7.655
 7083POPC   C1B21835  42.114  15.985   8.555
 7083POPC   C2B21836  42.044  15.954   8.255
 7083POPC   C3B21837  42.095  15.949   7.955
 7083POPC   C4B21838  42.084  15.951   7.655
 7084POPC   NC321839   0.483  33.775   9.455
 7084POPC   PO421840   0.426  33.807   9.155
 7084POPC   GL121841   0.465  33.821   8.855
 7084POPC   GL221842   0.394  33.967   8.855
 7084POPC   C1A21843   0.414  33.812   8.555
 7084POPC   D2A21844   0.396  33.764   8.255
 7084POPC   C3A21845   0.463  33.789   7.955
 7084POPC   C4A21846   0.401  33.824   7.655
 7084POPC   C1B21847   0.358  34.036   8.555
 7084POPC   C2B21848   0.363  34.077   8.255
 7084POPC   C3B21849   0.367  34.023   7.955
 7084POPC   C4B21850   0.405  34.004   7.655
 7085POPC   NC321851   7.436  36.086   9.455
 7085POPC   PO421852   7.409  36.176   9.155
 7085POPC   GL121853   7.437  36.141   8.855
 7085POPC   GL221854   7.563  35.997   8.855
 7085POPC   C1A21855   7.427  36.164   8.555
 7085POPC   D2A21856   7.469  36.172   8.255
 7085POPC   C3A21857   7.404  36.134   7.955
 7085POPC   C4A21858   7.431  36.167   7.655
 7085POPC   C1B21859   7.575  35.972   8.555
 7085POPC   C2B21860   7.652  35.920   8.255
 7085POPC   C3B21861   7.649  35.942   7.955
 7085POPC   C4B21862   7.642  35.960   7.655
 7086POPC   NC321863   9.007  32.278   9.455
 7086POPC   PO421864   8.988  32.295   9.155
 7086POPC   GL121865   8.969  32.266   8.855
 7086POPC   GL221866   9.107  32.201   8.855
 7086POPC   C1A21867   8.989  32.202   8.555
 7086POPC   D2A21868   8.923  32.270   8.255
 7086POPC   C3A21869   9.022  32.244   7.955
 7086POPC   C4A21870   8.961  32.277   7.655
 7086POPC   C1B21871   9.188  32.036   8.555
 7086POPC   C2B21872   9.150  32.099   8.255
 7086POPC   C3B21873   9.159  32.066   7.955
 7086POPC   C4B21874   9.113  32.032   7.655
 7087POPC   NC321875  20.620  36.933   9.455
 7087POPC   PO421876  20.579  36.886   9.155
 7087POPC   GL121877  20.567  36.899   8.855
 7087POPC   GL221878  20.755  36.839   8.855
 7087POPC   C1A21879  20.599  36.878   8.555
 7087POPC   D2A21880  20.607  36.902   8.255
 7087POPC   C3A21881  20.647  36.906   7.955
 7087POPC   C4A21882  20.583  36.867   7.655
 7087POPC   C1B21883  20.848  36.760   8.555
 7087POPC   C2B21884  20.866  36.783   8.255
 7087POPC   C3B21885  20.846  36.808   7.955
 7087POPC   C4B21886  20.840  36.753   7.655
 7088POPC   NC321887  22.113  23.718   9.455
 7088POPC   PO421888  22.164  23.678   9.155
 7088POPC   GL121889  22.199  23.675   8.855
 7088POPC   GL221890  22.264  23.757   8.855
 7088POPC   C1A21891  22.157  23.720   8.555
 7088POPC   D2A21892  22.148  23.712   8.255
 7088POPC   C3A21893  22.132  23.682   7.955
 7088POPC   C4A21894  22.139  23.712   7.655
 7088POPC   C1B21895  22.461  23.745   8.555
 7088POPC   C2B21896  22.370  23.706   8.255
 7088POPC   C3B21897  22.372  23.692   7.955
 7088POPC   C4B21898  22.426  23.766   7.655
 7089POPC   NC321899  25.231  40.830   9.455
 7089POPC   PO421900  25.220  40.771   9.155
 7089POPC   GL121901  25.219  40.819   8.855
 7089POPC   GL221902  25.176  40.778   8.855
 7089POPC   C1A21903  25.227  40.773   8.555
 7089POPC   D2A21904  25.235  40.811   8.255
 7089POPC   C3A21905  25.264  40.760   7.955
 7089POPC   C4A21906  25.244  40.763   7.655
 7089POPC   C1B21907  24.994  40.731   8.555
 7089POPC   C2B21908  25.028  40.665   8.255
 7089POPC   C3B21909  24.992  40.716   7.955
 7089POPC   C4B21910  25.071  40.684   7.655
 7090POPC   NC321911   5.873   1.169   9.455
 7090POPC   PO421912   5.859   1.199   9.155
 7090POPC   GL121913   5.897   1.226   8.855
 7090POPC   GL221914   5.734   1.255   8.855
 7090POPC   C1A21915   5.899   1.169   8.555
 7090POPC   D2A21916   5.832   1.197   8.255
 7090POPC   C3A21917   5.861   1.196   7.955
 7090POPC   C4A21918   5.887   1.164   7.655
 7090POPC   C1B21919   5.644   1.227   8.555
 7090POPC   C2B21920   5.569   1.266   8.255
 7090POPC   C3B21921   5.635   1.260   7.955
 7090POPC   C4B21922   5.622   1.200   7.655
 7091POPC   NC321923  26.080  29.939   9.455
 7091POPC   PO421924  26.083  29.947   9.155
 7091POPC   GL121925  26.084  29.940   8.855
 7091POPC   GL221926  26.132  29.809   8.855
 7091POPC   C1A21927  26.048  29.873   8.555
 7091POPC   D2A21928  26.029  29.876   8.255
 7091POPC   C3A21929  26.046  29.912   7.955
 7091POPC   C4A21930  26.001  29.955   7.655
 7091POPC   C1B21931  26.107  29.743   8.555
 7091POPC   C2B21932  26.152  29.716   8.255
 7091POPC   C3B21933  26.150  29.664   7.955
 7091POPC   C4B21934  26.149  29.711   7.655
 7092POPC   NC321935  29.908  30.727   9.455
 7092POPC   PO421936  29.875  30.721   9.155
 7092POPC   GL121937  29.926  30.710   8.855
 7092POPC   GL221938  29.955  30.744   8.855
 7092POPC   C1A21939  29.927  30.734   8.555
 7092POPC   D2A21940  29.899  30.735   8.255
 7092POPC   C3A21941  29.959  30.657   7.955
 7092POPC   C4A21942  29.904  30.697   7.655
 7092POPC   C1B21943  30.075  30.923   8.555
 7092POPC   C2B21944  30.093  30.926   8.255
 7092POPC   C3B21945  30.034  30.836   7.955
 7092POPC   C4B21946  30.060  30.845   7.655
 7093POPC   NC321947  15.132  16.768   9.455
 7093POPC   PO421948  15.163  16.706   9.155
 7093POPC   GL121949  15.141  16.742   8.855
 7093POPC   GL221950  15.148  16.891   8.855
 7093POPC   C1A21951  15.194  16.732   8.555
 7093POPC   D2A21952  15.178  16.716   8.255
 7093POPC   C3A21953  15.155  16.733   7.955
 7093POPC   C4A21954  15.155  16.717   7.655
 7093POPC   C1B21955  15.082  16.950   8.555
 7093POPC   C2B21956  15.134  16.943   8.255
 7093POPC   C3B21957  15.103  16.946   7.955
 7093POPC   C4B21958  15.159  16.926   7.655
 7094POPC   NC321959  40.758  29.178   9.455
 7094POPC   PO421960  40.787  29.171   9.155
 7094POPC   GL121961  40.763  29.187   8.855
 7094POPC   GL221962  40.646  29.129   8.855
 7094POPC   C1A21963  40.822  29.186   8.555
 7094POPC   D2A21964  40.748  29.136   8.255
 7094POPC   C3A21965  40.749  29.113   7.955
 7094POPC   C4A21966  40.754  29.156   7.655
 7094POPC   C1B21967  40.523  29.164   8.555
 7094POPC   C2B21968  40.493  29.117   8.255
 7094POPC   C3B21969  40.581  29.174   7.955
 7094POPC   C4B21970  40.510  29.140   7.655
 7095POPC   NC321971  26.016  17.483   9.455
 7095POPC   PO421972  26.020  17.547   9.155
 7095POPC   GL121973  26.043  17.526   8.855
 7095POPC   GL221974  26.142  17.397   8.855
 7095POPC   C1A21975  26.005  17.466   8.555
 7095POPC   D2A21976  26.014  17.551   8.255
 7095POPC   C3A21977  26.006  17.481   7.955
 7095POPC   C4A21978  26.028  17.465   7.655
 7095POPC   C1B21979  26.186  17.374   8.555
 7095POPC   C2B21980  26.239  17.364   8.255
 7095POPC   C3B21981  26.191  17.393   7.955
 7095POPC   C4B21982  26.247  17.344   7.655
 7096POPC   NC321983  32.235  36.121   9.455
 7096POPC   PO421984  32.283  36.117   9.155
 7096POPC   GL121985  32.206  36.175   8.855
 7096POPC   GL221986  32.136  36.130   8.855
 7096POPC   C1A21987  32.242  36.111   8.555
 7096POPC   D2A21988  32.270  36.082   8.255
 7096POPC   C3A21989  32.239  36.094   7.955
 7096POPC   C4A21990  32.281  36.168   7.655
 7096POPC   C1B21991  32.019  36.231   8.555
 7096POPC   C2B21992  31.979  36.193   8.255
 7096POPC   C3B21993  32.058  36.182   7.955
 7096POPC   C4B21994  32.015  36.166   7.655
 7097POPC   NC321995  29.154  25.254   9.455
 7097POPC   PO421996  29.176  25.252   9.155
 7097POPC   GL121997  29.095  25.277   8.855
 7097POPC   GL221998  29.112  25.395   8.855
 7097POPC   C1A21999  29.137  25.296   8.555
 7097POPC   D2A22000  29.098  25.221   8.255
 7097POPC   C3A22001  29.152  25.292   7.955
 7097POPC   C4A22002  29.123  25.309   7.655
 7097POPC   C1B22003  29.168  25.470   8.555
 7097POPC   C2B22004  29.167  25.546   8.255
 7097POPC   C3B22005  29.113  25.522   7.955
 7097POPC   C4B22006  29.162  25.547   7.655
 7098POPC   NC322007  15.968  21.357   9.455
 7098POPC   PO422008  15.952  21.336   9.155
 7098POPC   GL122009  15.920  21.418   8.855
 7098POPC   GL222010  16.097  21.449   8.855
 7098POPC   C1A22011  15.925  21.419   8.555
 7098POPC   D2A22012  15.981  21.348   8.255
 7098POPC   C3A22013  15.981  21.354   7.955
 7098POPC   C4A22014  15.908  21.411   7.655
 7098POPC   C1B22015  16.221  21.489   8.555
 7098POPC   C2B22016  16.207  21.440   8.255
 7098POPC   C3B22017  16.213  21.464   7.955
 7098POPC   C4B22018  16.205  21.460   7.655
 7099POPC   NC322019  26.853  11.302   9.455
 7099POPC   PO422020  26.861  11.286   9.155
 7099POPC   GL122021  26.863  11.263   8.855
 7099POPC   GL222022  26.949  11.218   8.855
 7099POPC   C1A22023  26.800  11.321   8.555
 7099POPC   D2A22024  26.786  11.298   8.255
 7099POPC   C3A22025  26.769  11.289   7.955
 7099POPC   C4A22026  26.796  11.267   7.655
 7099POPC   C1B22027  27.032  11.174   8.555
 7099POPC   C2B22028  27.033  11.152   8.255
 7099POPC   C3B22029  27.021  11.108   7.955
 7099POPC   C4B22030  26.996  11.122   7.655
 7100POPC   NC322031  12.846  25.216   9.455
 7100POPC   PO422032  12.822  25.234   9.155
 7100POPC   GL122033  12.890  25.248   8.855
 7100POPC   GL222034  12.770  25.226   8.855
 7100POPC   C1A22035  12.825  25.286   8.555
 7100POPC   D2A22036  12.872  25.248   8.255
 7100POPC   C3A22037  12.889  25.294   7.955
 7100POPC   C4A22038  12.808  25.262   7.655
 7100POPC   C1B22039  12.593  25.157   8.555
 7100POPC   C2B22040  12.642  25.099   8.255
 7100POPC   C3B22041  12.623  25.160   7.955
 7100POPC   C4B22042  12.641  25.114   7.655
 7101POPC   NC322043  11.338  40.012   9.455
 7101POPC   PO422044  11.343  39.958   9.155
 7101POPC   GL122045  11.310  39.960   8.855
 7101POPC   GL222046  11.343  40.132   8.855
 7101POPC   C1A22047  11.314  40.046   8.555
 7101POPC   D2A22048  11.345  40.020   8.255
 7101POPC   C3A22049  11.332  40.026   7.955
 7101POPC   C4A22050  11.273  40.050   7.655
 7101POPC   C1B22051  11.247  40.297   8.555
 7101POPC   C2B22052  11.264  40.214   8.255
 7101POPC   C3B22053  11.303  40.272   7.955
 7101POPC   C4B22054  11.303  40.240   7.655
 7102POPC   NC322055  41.556  14.406   9.455
 7102POPC   PO422056  41.583  14.371   9.155
 7102POPC   GL122057  41.523  14.424   8.855
 7102POPC   GL222058  41.472  14.413   8.855
 7102POPC   C1A22059  41.539  14.442   8.555
 7102POPC   D2A22060  41.525  14.385   8.255
 7102POPC   C3A22061  41.538  14.369   7.955
 7102POPC   C4A22062  41.546  14.365   7.655
 7102POPC   C1B22063  41.336  14.493   8.555
 7102POPC   C2B22064  41.275  14.398   8.255
 7102POPC   C3B22065  41.335  14.403   7.955
 7102POPC   C4B22066  41.272  14.460   7.655
 7103POPC   NC322067  21.398  40.044   9.455
 7103POPC   PO422068  21.376  39.978   9.155
 7103POPC   GL122069  21.415  39.960   8.855
 7103POPC   GL222070  21.318  40.083   8.855
 7103POPC   C1A22071  21.436  39.992   8.555
 7103POPC   D2A22072  21.403  39.961   8.255
 7103POPC   C3A22073  21.432  40.053   7.955
 7103POPC   C4A22074  21.392  40.017   7.655
 7103POPC   C1B22075  21.262  40.172   8.555
 7103POPC   C2B22076  21.185  40.218   8.255
 7103POPC   C3B22077  21.232  40.165   7.955
 7103POPC   C4B22078  21.175  40.195   7.655
 7104POPC   NC322079  37.725   6.659   9.455
 7104POPC   PO422080  37.692   6.671   9.155
 7104POPC   GL122081  37.672   6.682   8.855
 7104POPC   GL222082  37.714   6.729   8.855
 7104POPC   C1A22083  37.679   6.601   8.555
 7104POPC   D2A22084  37.643   6.613   8.255
 7104POPC   C3A22085  37.645   6.613   7.955
 7104POPC   C4A22086  37.704   6.660   7.655
 7104POPC   C1B22087  37.685   6.886   8.555
 7104POPC   C2B22088  37.656   6.909   8.255
 7104POPC   C3B22089  37.697   6.908   7.955
 7104POPC   C4B22090  37.694   6.924   7.655
 7105POPC   NC322091  14.415  19.785   9.455
 7105POPC   PO422092  14.407  19.850   9.155
 7105POPC   GL122093  14.441  19.863   8.855
 7105POPC   GL222094  14.514  19.865   8.855
 7105POPC   C1A22095  14.366  19.807   8.555
 7105POPC   D2A22096  14.354  19.842   8.255
 7105POPC   C3A22097  14.397  19.787   7.955
 7105POPC   C4A22098  14.395  19.807   7.655
 7105POPC   C1B22099  14.689  19.888   8.555
 7105POPC   C2B22100  14.649  19.894   8.255
 7105POPC   C3B22101  14.637  19.805   7.955
 7105POPC   C4B22102  14.699  19.816   7.655
 7106POPC   NC322103  43.921  28.368   9.455
 7106POPC   PO422104  43.912  28.392   9.155
 7106POPC   GL122105  43.926  28.397   8.855
 7106POPC   GL222106  43.969  28.400   8.855
 7106POPC   C1A22107  43.839  28.326   8.555
 7106POPC   D2A22108  43.850  28.404   8.255
 7106POPC   C3A22109  43.839  28.387   7.955
 7106POPC   C4A22110  43.852  28.364   7.655
 7106POPC   C1B22111  44.176  28.381   8.555
 7106POPC   C2B22112  44.173  28.388   8.255
 7106POPC   C3B22113  44.114  28.445   7.955
 7106POPC   C4B22114  44.123  28.446   7.655
 7107POPC   NC322115   0.473  36.902   9.455
 7107POPC   PO422116   0.482  36.918   9.155
 7107POPC   GL122117   0.409  36.899   8.855
 7107POPC   GL222118   0.322  36.998   8.855
 7107POPC   C1A22119   0.428  36.884   8.555
 7107POPC   D2A22120   0.472  36.909   8.255
 7107POPC   C3A22121   0.389  36.950   7.955
 7107POPC   C4A22122   0.486  36.926   7.655
 7107POPC   C1B22123   0.269  37.046   8.555
 7107POPC   C2B22124   0.295  37.029   8.255
 7107POPC   C3B22125   0.257  37.114   7.955
 7107POPC   C4B22126   0.225  37.115   7.655
 7108POPC   NC322127  42.384  29.954   9.455
 7108POPC   PO422128  42.350  29.908   9.155
 7108POPC   GL122129  42.306  29.955   8.855
 7108POPC   GL222130  42.354  29.824   8.855
 7108POPC   C1A22131  42.288  29.919   8.555
 7108POPC   D2A22132  42.312  29.882   8.255
 7108POPC   C3A22133  42.376  29.946   7.955
 7108POPC   C4A22134  42.313  29.939   7.655
 7108POPC   C1B22135  42.369  29.637   8.555
 7108POPC   C2B22136  42.303  29.711   8.255
 7108POPC   C3B22137  42.301  29.671   7.955
 7108POPC   C4B22138  42.276  29.681   7.655
 7109POPC   NC322139  36.948  29.910   9.455
 7109POPC   PO422140  36.895  29.949   9.155
 7109POPC   GL122141  36.860  29.909   8.855
 7109POPC   GL222142  36.874  30.004   8.855
 7109POPC   C1A22143  36.857  29.949   8.555
 7109POPC   D2A22144  36.923  29.897   8.255
 7109POPC   C3A22145  36.927  29.871   7.955
 7109POPC   C4A22146  36.914  29.933   7.655
 7109POPC   C1B22147  36.944  30.191   8.555
 7109POPC   C2B22148  36.953  30.167   8.255
 7109POPC   C3B22149  36.897  30.172   7.955
 7109POPC   C4B22150  36.915  30.146   7.655
 7110POPC   NC322151  43.906  11.311   9.455
 7110POPC   PO422152  43.908  11.272   9.155
 7110POPC   GL122153  43.858  11.348   8.855
 7110POPC   GL222154  43.789  11.237   8.855
 7110POPC   C1A22155  43.928  11.312   8.555
 7110POPC   D2A22156  43.880  11.329   8.255
 7110POPC   C3A22157  43.874  11.254   7.955
 7110POPC   C4A22158  43.912  11.266   7.655
 7110POPC   C1B22159  43.774  11.102   8.555
 7110POPC   C2B22160  43.719  11.100   8.255
 7110POPC   C3B22161  43.775  11.084   7.955
 7110POPC   C4B22162  43.689  11.066   7.655
 7111POPC   NC322163   1.191  38.449   9.455
 7111POPC   PO422164   1.240  38.430   9.155
 7111POPC   GL122165   1.236  38.423   8.855
 7111POPC   GL222166   1.297  38.375   8.855
 7111POPC   C1A22167   1.245  38.447   8.555
 7111POPC   D2A22168   1.195  38.442   8.255
 7111POPC   C3A22169   1.220  38.458   7.955
 7111POPC   C4A22170   1.236  38.424   7.655
 7111POPC   C1B22171   1.315  38.268   8.555
 7111POPC   C2B22172   1.388  38.284   8.255
 7111POPC   C3B22173   1.373  38.226   7.955
 7111POPC   C4B22174   1.340  38.246   7.655
 7112POPC   NC322175  29.914  29.134   9.455
 7112POPC   PO422176  29.946  29.167   9.155
 7112POPC   GL122177  29.965  29.148   8.855
 7112POPC   GL222178  29.995  29.209   8.855
 7112POPC   C1A22179  29.887  29.170   8.555
 7112POPC   D2A22180  29.938  29.162   8.255
 7112POPC   C3A22181  29.906  29.158   7.955
 7112POPC   C4A22182  29.938  29.178   7.655
 7112POPC   C1B22183  30.197  29.225   8.555
 7112POPC   C2B22184  30.218  29.213   8.255
 7112POPC   C3B22185  30.197  29.216   7.955
 7112POPC   C4B22186  30.188  29.207   7.655
 7113POPC   NC322187  40.788  20.621   9.455
 7113POPC   PO422188  40.786  20.609   9.155
 7113POPC   GL122189  40.750  20.658   8.855
 7113POPC   GL222190  40.841  20.530   8.855
 7113POPC   C1A22191  40.773  20.597   8.555
 7113POPC   D2A22192  40.808  20.587   8.255
 7113POPC   C3A22193  40.770  20.631   7.955
 7113POPC   C4A22194  40.743  20.571   7.655
 7113POPC   C1B22195  40.811  20.372   8.555
 7113POPC   C2B22196  40.846  20.359   8.255
 7113POPC   C3B22197  40.868  20.377   7.955
 7113POPC   C4B22198  40.828  20.337   7.655
 7114POPC   NC322199  20.579  15.982   9.455
 7114POPC   PO422200  20.638  15.966   9.155
 7114POPC   GL122201  20.656  15.953   8.855
 7114POPC   GL222202  20.438  15.933   8.855
 7114POPC   C1A22203  20.655  15.936   8.555
 7114POPC   D2A22204  20.578  15.913   8.255
 7114POPC   C3A22205  20.644  15.949   7.955
 7114POPC   C4A22206  20.569  15.954   7.655
 7114POPC   C1B22207  20.338  15.952   8.555
 7114POPC   C2B22208  20.322  15.962   8.255
 7114POPC   C3B22209  20.358  16.033   7.955
 7114POPC   C4B22210  20.332  15.985   7.655
 7115POPC   NC322211  24.446  40.765   9.455
 7115POPC   PO422212  24.501  40.733   9.155
 7115POPC   GL122213  24.463  40.735   8.855
 7115POPC   GL222214  24.484  40.881   8.855
 7115POPC   C1A22215  24.533  40.735   8.555
 7115POPC   D2A22216  24.512  40.762   8.255
 7115POPC   C3A22217  24.518  40.808   7.955
 7115POPC   C4A22218  24.473  40.748   7.655
 7115POPC   C1B22219  24.529  41.049   8.555
 7115POPC   C2B22220  24.535  40.991   8.255
 7115POPC   C3B22221  24.584  41.015   7.955
 7115POPC   C4B22222  24.571  41.033   7.655
 7116POPC   NC322223  14.405  33.069   9.455
 7116POPC   PO422224  14.405  33.072   9.155
 7116POPC   GL122225  14.369  33.007   8.855
 7116POPC   GL222226  14.349  33.134   8.855
 7116POPC   C1A22227  14.399  32.982   8.555
 7116POPC   D2A22228  14.411  33.023   8.255
 7116POPC   C3A22229  14.393  33.021   7.955
 7116POPC   C4A22230  14.403  33.010   7.655
 7116POPC   C1B22231  14.248  33.215   8.555
 7116POPC   C2B22232  14.220  33.262   8.255
 7116POPC   C3B22233  14.306  33.224   7.955
 7116POPC   C4B22234  14.245  33.218   7.655
 7117POPC   NC322235   9.744   8.984   9.455
 7117POPC   PO422236   9.750   8.941   9.155
 7117POPC   GL122237   9.794   8.932   8.855
 7117POPC   GL222238   9.673   8.822   8.855
 7117POPC   C1A22239   9.744   8.951   8.555
 7117POPC   D2A22240   9.734   8.933   8.255
 7117POPC   C3A22241   9.750   8.946   7.955
 7117POPC   C4A22242   9.798   8.953   7.655
 7117POPC   C1B22243   9.674   8.750   8.555
 7117POPC   C2B22244   9.671   8.796   8.255
 7117POPC   C3B22245   9.628   8.757   7.955
 7117POPC   C4B22246   9.597   8.723   7.655
 7118POPC   NC322247  19.058  15.206   9.455
 7118POPC   PO422248  19.046  15.151   9.155
 7118POPC   GL122249  19.057  15.162   8.855
 7118POPC   GL222250  19.047  15.012   8.855
 7118POPC   C1A22251  19.048  15.156   8.555
 7118POPC   D2A22252  19.063  15.158   8.255
 7118POPC   C3A22253  19.009  15.138   7.955
 7118POPC   C4A22254  19.040  15.141   7.655
 7118POPC   C1B22255  18.946  14.976   8.555
 7118POPC   C2B22256  18.960  14.940   8.255
 7118POPC   C3B22257  19.013  14.979   7.955
 7118POPC   C4B22258  18.998  14.891   7.655
 7119POPC   NC322259  43.896  35.346   9.455
 7119POPC   PO422260  43.878  35.398   9.155
 7119POPC   GL122261  43.861  35.348   8.855
 7119POPC   GL222262  43.949  35.411   8.855
 7119POPC   C1A22263  43.883  35.394   8.555
 7119POPC   D2A22264  43.858  35.398   8.255
 7119POPC   C3A22265  43.882  35.396   7.955
 7119POPC   C4A22266  43.913  35.393   7.655
 7119POPC   C1B22267  43.969  35.527   8.555
 7119POPC   C2B22268  44.049  35.541   8.255
 7119POPC   C3B22269  44.002  35.581   7.955
 7119POPC   C4B22270  44.047  35.607   7.655
 7120POPC   NC322271  34.566  40.750   9.455
 7120POPC   PO422272  34.578  40.737   9.155
 7120POPC   GL122273  34.548  40.747   8.855
 7120POPC   GL222274  34.558  40.644   8.855
 7120POPC   C1A22275  34.535  40.780   8.555
 7120POPC   D2A22276  34.561  40.744   8.255
 7120POPC   C3A22277  34.533  40.826   7.955
 7120POPC   C4A22278  34.529  40.799   7.655
 7120POPC   C1B22279  34.631  40.571   8.555
 7120POPC   C2B22280  34.643  40.525   8.255
 7120POPC   C3B22281  34.675  40.539   7.955
 7120POPC   C4B22282  34.602  40.585   7.655
 7121POPC   NC322283  36.101   2.793   9.455
 7121POPC   PO422284  36.143   2.750   9.155
 7121POPC   GL122285  36.097   2.784   8.855
 7121POPC   GL222286  36.174   2.683   8.855
 7121POPC   C1A22287  36.115   2.755   8.555
 7121POPC   D2A22288  36.082   2.789   8.255
 7121POPC   C3A22289  36.168   2.761   7.955
 7121POPC   C4A22290  36.165   2.768   7.655
 7121POPC   C1B22291  36.159   2.570   8.555
 7121POPC   C2B22292  36.206   2.570   8.255
 7121POPC   C3B22293  36.150   2.568   7.955
 7121POPC   C4B22294  36.161   2.535   7.655
 7122POPC   NC322295   3.552  36.081   9.455
 7122POPC   PO422296   3.492  36.114   9.155
 7122POPC   GL122297   3.570  36.078   8.855
 7122POPC   GL222298   3.691  36.225   8.855
 7122POPC   C1A22299   3.544  36.136   8.555
 7122POPC   D2A22300   3.512  36.130   8.255
 7122POPC   C3A22301   3.573  36.145   7.955
 7122POPC   C4A22302   3.536  36.122   7.655
 7122POPC   C1B22303   3.725  36.205   8.555
 7122POPC   C2B22304   3.720  36.268   8.255
 7122POPC   C3B22305   3.789  36.264   7.955
 7122POPC   C4B22306   3.742  36.235   7.655
 7123POPC   NC322307  29.165  43.087   9.455
 7123POPC   PO422308  29.189  43.148   9.155
 7123POPC   GL122309  29.097  43.149   8.855
 7123POPC   GL222310  28.998  43.002   8.855
 7123POPC   C1A22311  29.180  43.153   8.555
 7123POPC   D2A22312  29.136  43.083   8.255
 7123POPC   C3A22313  29.179  43.067   7.955
 7123POPC   C4A22314  29.173  43.129   7.655
 7123POPC   C1B22315  28.924  42.968   8.555
 7123POPC   C2B22316  28.972  43.020   8.255
 7123POPC   C3B22317  28.979  42.959   7.955
 7123POPC   C4B22318  28.978  42.946   7.655
 7124POPC   NC322319  15.146   4.269   9.455
 7124POPC   PO422320  15.219   4.285   9.155
 7124POPC   GL122321  15.151   4.317   8.855
 7124POPC   GL222322  15.141   4.246   8.855
 7124POPC   C1A22323  15.209   4.274   8.555
 7124POPC   D2A22324  15.198   4.315   8.255
 7124POPC   C3A22325  15.133   4.304   7.955
 7124POPC   C4A22326  15.208   4.343   7.655
 7124POPC   C1B22327  15.125   4.134   8.555
 7124POPC   C2B22328  15.051   4.078   8.255
 7124POPC   C3B22329  15.099   4.136   7.955
 7124POPC   C4B22330  15.052   4.134   7.655
 7125POPC   NC322331   9.734  35.302   9.455
 7125POPC   PO422332   9.736  35.384   9.155
 7125POPC   GL122333   9.702  35.397   8.855
 7125POPC   GL222334   9.648  35.312   8.855
 7125POPC   C1A22335   9.718  35.341   8.555
 7125POPC   D2A22336   9.703  35.329   8.255
 7125POPC   C3A22337   9.728  35.389   7.955
 7125POPC   C4A22338   9.793  35.353   7.655
 7125POPC   C1B22339   9.498  35.292   8.555
 7125POPC   C2B22340   9.519  35.290   8.255
 7125POPC   C3B22341   9.471  35.290   7.955
 7125POPC   C4B22342   9.530  35.301   7.655
 7126POPC   NC322343  16.722  14.390   9.455
 7126POPC   PO422344  16.698  14.446   9.155
 7126POPC   GL122345  16.715  14.365   8.855
 7126POPC   GL222346  16.769  14.315   8.855
 7126POPC   C1A22347  16.684  14.437   8.555
 7126POPC   D2A22348  16.741  14.377   8.255
 7126POPC   C3A22349  16.730  14.393   7.955
 7126POPC   C4A22350  16.747  14.378   7.655
 7126POPC   C1B22351  16.824  14.177   8.555
 7126POPC   C2B22352  16.799  14.198   8.255
 7126POPC   C3B22353  16.880  14.220   7.955
 7126POPC   C4B22354  16.889  14.227   7.655
 7127POPC   NC322355  26.841   9.742   9.455
 7127POPC   PO422356  26.864   9.766   9.155
 7127POPC   GL122357  26.846   9.772   8.855
 7127POPC   GL222358  26.779   9.611   8.855
 7127POPC   C1A22359  26.817   9.765   8.555
 7127POPC   D2A22360  26.850   9.749   8.255
 7127POPC   C3A22361  26.862   9.777   7.955
 7127POPC   C4A22362  26.853   9.720   7.655
 7127POPC   C1B22363  26.807   9.496   8.555
 7127POPC   C2B22364  26.759   9.508   8.255
 7127POPC   C3B22365  26.800   9.483   7.955
 7127POPC   C4B22366  26.782   9.536   7.655
 7128POPC   NC322367  43.134   5.833   9.455
 7128POPC   PO422368  43.151   5.849   9.155
 7128POPC   GL122369  43.119   5.887   8.855
 7128POPC   GL222370  43.194   5.901   8.855
 7128POPC   C1A22371  43.150   5.887   8.555
 7128POPC   D2A22372  43.098   5.903   8.255
 7128POPC   C3A22373  43.075   5.918   7.955
 7128POPC   C4A22374  43.097   5.833   7.655
 7128POPC   C1B22375  43.369   5.800   8.555
 7128POPC   C2B22376  43.362   5.838   8.255
 7128POPC   C3B22377  43.367   5.859   7.955
 7128POPC   C4B22378  43.326   5.801   7.655
 7129POPC   NC322379  24.445   4.305   9.455
 7129POPC   PO422380  24.480   4.285   9.155
 7129POPC   GL122381  24.442   4.341   8.855
 7129POPC   GL222382  24.435   4.205   8.855
 7129POPC   C1A22383  24.529   4.347   8.555
 7129POPC   D2A22384  24.446   4.360   8.255
 7129POPC   C3A22385  24.539   4.325   7.955
 7129POPC   C4A22386  24.441   4.322   7.655
 7129POPC   C1B22387  24.467   4.027   8.555
 7129POPC   C2B22388  24.493   4.055   8.255
 7129POPC   C3B22389  24.514   4.023   7.955
 7129POPC   C4B22390  24.505   4.023   7.655
 7130POPC   NC322391  25.290  29.182   9.455
 7130POPC   PO422392  25.304  29.183   9.155
 7130POPC   GL122393  25.273  29.193   8.855
 7130POPC   GL222394  25.418  29.189   8.855
 7130POPC   C1A22395  25.241  29.143   8.555
 7130POPC   D2A22396  25.262  29.160   8.255
 7130POPC   C3A22397  25.234  29.139   7.955
 7130POPC   C4A22398  25.281  29.129   7.655
 7130POPC   C1B22399  25.527  29.222   8.555
 7130POPC   C2B22400  25.485  29.241   8.255
 7130POPC   C3B22401  25.545  29.167   7.955
 7130POPC   C4B22402  25.480  29.245   7.655
 7131POPC   NC322403   2.757  22.954   9.455
 7131POPC   PO422404   2.780  22.911   9.155
 7131POPC   GL122405   2.740  22.942   8.855
 7131POPC   GL222406   2.787  23.088   8.855
 7131POPC   C1A22407   2.803  22.898   8.555
 7131POPC   D2A22408   2.740  22.933   8.255
 7131POPC   C3A22409   2.792  22.899   7.955
 7131POPC   C4A22410   2.779  22.957   7.655
 7131POPC   C1B22411   2.874  23.132   8.555
 7131POPC   C2B22412   2.906  23.109   8.255
 7131POPC   C3B22413   2.859  23.125   7.955
 7131POPC   C4B22414   2.901  23.116   7.655
 7132POPC   NC322415  12.824  40.779   9.455
 7132POPC   PO422416  12.825  40.797   9.155
 7132POPC   GL122417  12.823  40.764   8.855
 7132POPC   GL222418  12.787  40.643   8.855
 7132POPC   C1A22419  12.855  40.805   8.555
 7132POPC   D2A22420  12.835  40.798   8.255
 7132POPC   C3A22421  12.837  40.788   7.955
 7132POPC   C4A22422  12.881  40.813   7.655
 7132POPC   C1B22423  12.764  40.605   8.555
 7132POPC   C2B22424  12.767  40.597   8.255
 7132POPC   C3B22425  12.697  40.569   7.955
 7132POPC   C4B22426  12.738  40.548   7.655
 7133POPC   NC322427  40.749  33.821   9.455
 7133POPC   PO422428  40.736  33.839   9.155
 7133POPC   GL122429  40.799  33.768   8.855
 7133POPC   GL222430  40.887  33.817   8.855
 7133POPC   C1A22431  40.812  33.803   8.555
 7133POPC   D2A22432  40.787  33.781   8.255
 7133POPC   C3A22433  40.755  33.832   7.955
 7133POPC   C4A22434  40.760  33.838   7.655
 7133POPC   C1B22435  41.040  33.692   8.555
 7133POPC   C2B22436  41.071  33.730   8.255
 7133POPC   C3B22437  41.001  33.703   7.955
 7133POPC   C4B22438  41.016  33.728   7.655
 7134POPC   NC322439  41.575   4.275   9.455
 7134POPC   PO422440  41.595   4.286   9.155
 7134POPC   GL122441  41.592   4.327   8.855
 7134POPC   GL222442  41.655   4.160   8.855
 7134POPC   C1A22443  41.544   4.278   8.555
 7134POPC   D2A22444  41.609   4.294   8.255
 7134POPC   C3A22445  41.560   4.345   7.955
 7134POPC   C4A22446  41.558   4.319   7.655
 7134POPC   C1B22447  41.630   4.109   8.555
 7134POPC   C2B22448  41.630   4.053   8.255
 7134POPC   C3B22449  41.670   4.119   7.955
 7134POPC   C4B22450  41.655   4.093   7.655
 7135POPC   NC322451  19.078  22.970   9.455
 7135POPC   PO422452  19.039  22.955   9.155
 7135POPC   GL122453  19.079  22.967   8.855
 7135POPC   GL222454  19.208  22.979   8.855
 7135POPC   C1A22455  19.051  22.913   8.555
 7135POPC   D2A22456  19.079  22.957   8.255
 7135POPC   C3A22457  19.080  22.930   7.955
 7135POPC   C4A22458  19.020  22.985   7.655
 7135POPC   C1B22459  19.231  23.116   8.555
 7135POPC   C2B22460  19.281  23.079   8.255
 7135POPC   C3B22461  19.271  23.118   7.955
 7135POPC   C4B22462  19.231  23.036   7.655
 7136POPC   NC322463   0.423  12.083   9.455
 7136POPC   PO422464   0.418  12.117   9.155
 7136POPC   GL122465   0.427  12.048   8.855
 7136POPC   GL222466   0.492  11.925   8.855
 7136POPC   C1A22467   0.436  12.114   8.555
 7136POPC   D2A22468   0.399  12.060   8.255
 7136POPC   C3A22469   0.452  12.087   7.955
 7136POPC   C4A22470   0.410  12.066   7.655
 7136POPC   C1B22471   0.470  11.832   8.555
 7136POPC   C2B22472   0.462  11.813   8.255
 7136POPC   C3B22473   0.455  11.866   7.955
 7136POPC   C4B22474   0.471  11.797   7.655
 7137POPC   NC322475  22.926  32.234   9.455
 7137POPC   PO422476  22.939  32.283   9.155
 7137POPC   GL122477  22.918  32.278   8.855
 7137POPC   GL222478  23.053  32.314   8.855
 7137POPC   C1A22479  22.947  32.272   8.555
 7137POPC   D2A22480  22.889  32.296   8.255
 7137POPC   C3A22481  22.943  32.293   7.955
 7137POPC   C4A22482  22.969  32.257   7.655
 7137POPC   C1B22483  23.226  32.255   8.555
 7137POPC   C2B22484  23.153  32.254   8.255
 7137POPC   C3B22485  23.146  32.303   7.955
 7137POPC   C4B22486  23.232  32.247   7.655
 7138POPC   NC322487  22.945   2.775   9.455
 7138POPC   PO422488  22.946   2.733   9.155
 7138POPC   GL122489  22.973   2.717   8.855
 7138POPC   GL222490  22.778   2.782   8.855
 7138POPC   C1A22491  22.980   2.798   8.555
 7138POPC   D2A22492  22.891   2.737   8.255
 7138POPC   C3A22493  22.926   2.788   7.955
 7138POPC   C4A22494  22.957   2.779   7.655
 7138POPC   C1B22495  22.695   2.854   8.555
 7138POPC   C2B22496  22.706   2.896   8.255
 7138POPC   C3B22497  22.659   2.893   7.955
 7138POPC   C4B22498  22.714   2.843   7.655
 7139POPC   NC322499   3.531  35.367   9.455
 7139POPC   PO422500   3.523  35.324   9.155
 7139POPC   GL122501   3.544  35.353   8.855
 7139POPC   GL222502   3.420  35.388   8.855
 7139POPC   C1A22503   3.583  35.337   8.555
 7139POPC   D2A22504   3.519  35.381   8.255
 7139POPC   C3A22505   3.492  35.384   7.955
 7139POPC   C4A22506   3.581  35.391   7.655
 7139POPC   C1B22507   3.305  35.302   8.555
 7139POPC   C2B22508   3.255  35.314   8.255
 7139POPC   C3B22509   3.340  35.349   7.955
 7139POPC   C4B22510   3.292  35.304   7.655
 7140POPC   NC322511   7.422  14.453   9.455
 7140POPC   PO422512   7.470  14.379   9.155
 7140POPC   GL122513   7.469  14.383   8.855
 7140POPC   GL222514   7.561  14.332   8.855
 7140POPC   C1A22515   7.371  14.364   8.555
 7140POPC   D2A22516   7.465  14.384   8.255
 7140POPC   C3A22517   7.463  14.399   7.955
 7140POPC   C4A22518   7.385  14.405   7.655
 7140POPC   C1B22519   7.628  14.397   8.555
 7140POPC   C2B22520   7.652  14.307   8.255
 7140POPC   C3B22521   7.660  14.340   7.955
 7140POPC   C4B22522   7.687  14.316   7.655
 7141POPC   NC322523   9.736  41.552   9.455
 7141POPC   PO422524   9.792  41.582   9.155
 7141POPC   GL122525   9.782  41.541   8.855
 7141POPC   GL222526   9.642  41.476   8.855
 7141POPC   C1A22527   9.777  41.512   8.555
 7141POPC   D2A22528   9.798  41.568   8.255
 7141POPC   C3A22529   9.781  41.561   7.955
 7141POPC   C4A22530   9.744  41.582   7.655
 7141POPC   C1B22531   9.505  41.420   8.555
 7141POPC   C2B22532   9.474  41.500   8.255
 7141POPC   C3B22533   9.509  41.485   7.955
 7141POPC   C4B22534   9.567  41.494   7.655
 7142POPC   NC322535  37.716  37.714   9.455
 7142POPC   PO422536  37.677  37.652   9.155
 7142POPC   GL122537  37.683  37.684   8.855
 7142POPC   GL222538  37.813  37.559   8.855
 7142POPC   C1A22539  37.673  37.683   8.555
 7142POPC   D2A22540  37.655  37.726   8.255
 7142POPC   C3A22541  37.708  37.656   7.955
 7142POPC   C4A22542  37.714  37.651   7.655
 7142POPC   C1B22543  37.856  37.563   8.555
 7142POPC   C2B22544  37.908  37.522   8.255
 7142POPC   C3B22545  37.897  37.567   7.955
 7142POPC   C4B22546  37.894  37.558   7.655
 7143POPC   NC322547  19.849  21.401   9.455
 7143POPC   PO422548  19.853  21.426   9.155
 7143POPC   GL122549  19.877  21.419   8.855
 7143POPC   GL222550  19.983  21.440   8.855
 7143POPC   C1A22551  19.859  21.362   8.555
 7143POPC   D2A22552  19.820  21.352   8.255
 7143POPC   C3A22553  19.865  21.362   7.955
 7143POPC   C4A22554  19.869  21.411   7.655
 7143POPC   C1B22555  20.005  21.485   8.555
 7143POPC   C2B22556  20.060  21.537   8.255
 7143POPC   C3B22557  20.073  21.517   7.955
 7143POPC   C4B22558  20.052  21.505   7.655
 7144POPC   NC322559  41.608  41.587   9.455
 7144POPC   PO422560  41.537  41.562   9.155
 7144POPC   GL122561  41.509  41.549   8.855
 7144POPC   GL222562  41.693  41.546   8.855
 7144POPC   C1A22563  41.509  41.523   8.555
 7144POPC   D2A22564  41.545  41.538   8.255
 7144POPC   C3A22565  41.589  41.592   7.955
 7144POPC   C4A22566  41.515  41.539   7.655
 7144POPC   C1B22567  41.846  41.548   8.555
 7144POPC   C2B22568  41.768  41.551   8.255
 7144POPC   C3B22569  41.779  41.517   7.955
 7144POPC   C4B22570  41.820  41.521   7.655
 7145POPC   NC322571  11.309  26.784   9.455
 7145POPC   PO422572  11.268  26.806   9.155
 7145POPC   GL122573  11.262  26.840   8.855
 7145POPC   GL222574  11.180  26.737   8.855
 7145POPC   C1A22575  11.344  26.772   8.555
 7145POPC   D2A22576  11.257  26.867   8.255
 7145POPC   C3A22577  11.279  26.820   7.955
 7145POPC   C4A22578  11.313  26.797   7.655
 7145POPC   C1B22579  11.132  26.643   8.555
 7145POPC   C2B22580  11.122  26.718   8.255
 7145POPC   C3B22581  11.059  26.677   7.955
 7145POPC   C4B22582  11.062  26.667   7.655
 7146POPC   NC322583   5.054   5.858   9.455
 7146POPC   PO422584   5.101   5.894   9.155
 7146POPC   GL122585   5.045   5.824   8.855
 7146POPC   GL222586   5.224   5.805   8.855
 7146POPC   C1A22587   5.070   5.881   8.555
 7146POPC   D2A22588   5.096   5.825   8.255
 7146POPC   C3A22589   5.120   5.857   7.955
 7146POPC   C4A22590   5.065   5.896   7.655
 7146POPC   C1B22591   5.273   5.755   8.555
 7146POPC   C2B22592   5.300   5.693   8.255
 7146POPC   C3B22593   5.319   5.722   7.955
 7146POPC   C4B22594   5.282   5.724   7.655
 7147POPC   NC322595  41.534  12.099   9.455
 7147POPC   PO422596  41.547  12.122   9.155
 7147POPC   GL122597  41.567  12.034   8.855
 7147POPC   GL222598  41.596  12.221   8.855
 7147POPC   C1A22599  41.536  12.109   8.555
 7147POPC   D2A22600  41.579  12.070   8.255
 7147POPC   C3A22601  41.509  12.120   7.955
 7147POPC   C4A22602  41.582  12.103   7.655
 7147POPC   C1B22603  41.523  12.318   8.555
 7147POPC   C2B22604  41.508  12.371   8.255
 7147POPC   C3B22605  41.501  12.293   7.955
 7147POPC   C4B22606  41.541  12.364   7.655
 7148POPC   NC322607  44.690  40.776   9.455
 7148POPC   PO422608  44.712  40.799   9.155
 7148POPC   GL122609  44.656  40.762   8.855
 7148POPC   GL222610  44.630  40.709   8.855
 7148POPC   C1A22611  44.617  40.783   8.555
 7148POPC   D2A22612  44.638  40.756   8.255
 7148POPC   C3A22613  44.702  40.815   7.955
 7148POPC   C4A22614  44.675  40.832   7.655
 7148POPC   C1B22615  44.544  40.627   8.555
 7148POPC   C2B22616  44.538  40.554   8.255
 7148POPC   C3B22617  44.514  40.572   7.955
 7148POPC   C4B22618  44.502  40.582   7.655
 7149POPC   NC322619  36.176  24.473   9.455
 7149POPC   PO422620  36.153  24.519   9.155
 7149POPC   GL122621  36.079  24.520   8.855
 7149POPC   GL222622  36.212  24.415   8.855
 7149POPC   C1A22623  36.093  24.515   8.555
 7149POPC   D2A22624  36.087  24.472   8.255
 7149POPC   C3A22625  36.097  24.508   7.955
 7149POPC   C4A22626  36.173  24.528   7.655
 7149POPC   C1B22627  36.291  24.343   8.555
 7149POPC   C2B22628  36.313  24.350   8.255
 7149POPC   C3B22629  36.318  24.339   7.955
 7149POPC   C4B22630  36.300  24.320   7.655
 7150POPC   NC322631   8.216   6.619   9.455
 7150POPC   PO422632   8.198   6.664   9.155
 7150POPC   GL122633   8.198   6.684   8.855
 7150POPC   GL222634   8.278   6.672   8.855
 7150POPC   C1A22635   8.183   6.664   8.555
 7150POPC   D2A22636   8.182   6.619   8.255
 7150POPC   C3A22637   8.162   6.676   7.955
 7150POPC   C4A22638   8.161   6.647   7.655
 7150POPC   C1B22639   8.489   6.672   8.555
 7150POPC   C2B22640   8.469   6.665   8.255
 7150POPC   C3B22641   8.449   6.720   7.955
 7150POPC   C4B22642   8.438   6.706   7.655
 7151POPC   NC322643   5.899  15.971   9.455
 7151POPC   PO422644   5.886  15.964   9.155
 7151POPC   GL122645   5.840  15.939   8.855
 7151POPC   GL222646   6.000  15.979   8.855
 7151POPC   C1A22647   5.855  15.938   8.555
 7151POPC   D2A22648   5.819  15.988   8.255
 7151POPC   C3A22649   5.887  15.992   7.955
 7151POPC   C4A22650   5.839  15.985   7.655
 7151POPC   C1B22651   6.091  15.945   8.555
 7151POPC   C2B22652   6.115  16.025   8.255
 7151POPC   C3B22653   6.073  15.972   7.955
 7151POPC   C4B22654   6.090  15.996   7.655
 7152POPC   NC322655   3.550  42.321   9.455
 7152POPC   PO422656   3.540  42.367   9.155
 7152POPC   GL122657   3.582  42.341   8.855
 7152POPC   GL222658   3.429  42.221   8.855
 7152POPC   C1A22659   3.499  42.364   8.555
 7152POPC   D2A22660   3.548  42.340   8.255
 7152POPC   C3A22661   3.526  42.315   7.955
 7152POPC   C4A22662   3.505  42.286   7.655
 7152POPC   C1B22663   3.363  42.187   8.555
 7152POPC   C2B22664   3.344  42.183   8.255
 7152POPC   C3B22665   3.350  42.158   7.955
 7152POPC   C4B22666   3.365  42.170   7.655
 7153POPC   NC322667   2.783  10.541   9.455
 7153POPC   PO422668   2.806  10.574   9.155
 7153POPC   GL122669   2.789  10.477   8.855
 7153POPC   GL222670   2.630  10.463   8.855
 7153POPC   C1A22671   2.812  10.540   8.555
 7153POPC   D2A22672   2.758  10.563   8.255
 7153POPC   C3A22673   2.812  10.540   7.955
 7153POPC   C4A22674   2.731  10.570   7.655
 7153POPC   C1B22675   2.511  10.476   8.555
 7153POPC   C2B22676   2.553  10.412   8.255
 7153POPC   C3B22677   2.523  10.443   7.955
 7153POPC   C4B22678   2.550  10.414   7.655
 7154POPC   NC322679  15.194  26.826   9.455
 7154POPC   PO422680  15.172  26.822   9.155
 7154POPC   GL122681  15.130  26.779   8.855
 7154POPC   GL222682  15.313  26.818   8.855
 7154POPC   C1A22683  15.162  26.830   8.555
 7154POPC   D2A22684  15.157  26.857   8.255
 7154POPC   C3A22685  15.221  26.820   7.955
 7154POPC   C4A22686  15.187  26.837   7.655
 7154POPC   C1B22687  15.375  26.705   8.555
 7154POPC   C2B22688  15.446  26.743   8.255
 7154POPC   C3B22689  15.380  26.677   7.955
 7154POPC   C4B22690  15.422  26.687   7.655
 7155POPC   NC322691  39.280  28.405   9.455
 7155POPC   PO422692  39.218  28.370   9.155
 7155POPC   GL122693  39.207  28.384   8.855
 7155POPC   GL222694  39.363  28.381   8.855
 7155POPC   C1A22695  39.246  28.367   8.555
 7155POPC   D2A22696  39.276  28.337   8.255
 7155POPC   C3A22697  39.246  28.405   7.955
 7155POPC   C4A22698  39.278  28.372   7.655
 7155POPC   C1B22699  39.518  28.318   8.555
 7155POPC   C2B22700  39.509  28.325   8.255
 7155POPC   C3B22701  39.443  28.383   7.955
 7155POPC   C4B22702  39.504  28.375   7.655
 7156POPC   NC322703  19.804  23.689   9.455
 7156POPC   PO422704  19.848  23.719   9.155
 7156POPC   GL122705  19.789  23.687   8.855
 7156POPC   GL222706  19.919  23.597   8.855
 7156POPC   C1A22707  19.809  23.736   8.555
 7156POPC   D2A22708  19.790  23.694   8.255
 7156POPC   C3A22709  19.864  23.717   7.955
 7156POPC   C4A22710  19.819  23.704   7.655
 7156POPC   C1B22711  19.963  23.516   8.555
 7156POPC   C2B22712  19.982  23.530   8.255
 7156POPC   C3B22713  19.995  23.561   7.955
 7156POPC   C4B22714  20.017  23.476   7.655
 7157POPC   NC322715  21.391  15.179   9.455
 7157POPC   PO422716  21.342  15.197   9.155
 7157POPC   GL122717  21.371  15.181   8.855
 7157POPC   GL222718  21.342  15.283   8.855
 7157POPC   C1A22719  21.344  15.193   8.555
 7157POPC   D2A22720  21.409  15.169   8.255
 7157POPC   C3A22721  21.382  15.162   7.955
 7157POPC   C4A22722  21.409  15.198   7.655
 7157POPC   C1B22723  21.230  15.444   8.555
 7157POPC   C2B22724  21.235  15.420   8.255
 7157POPC   C3B22725  21.223  15.409   7.955
 7157POPC   C4B22726  21.286  15.436   7.655
 7158POPC   NC322727  40.020   1.970   9.455
 7158POPC   PO422728  40.029   2.022   9.155
 7158POPC   GL122729  40.013   1.962   8.855
 7158POPC   GL222730  39.949   1.824   8.855
 7158POPC   C1A22731  40.022   1.997   8.555
 7158POPC   D2A22732  39.980   1.949   8.255
 7158POPC   C3A22733  40.054   1.942   7.955
 7158POPC   C4A22734  40.011   1.981   7.655
 7158POPC   C1B22735  39.929   1.787   8.555
 7158POPC   C2B22736  39.979   1.754   8.255
 7158POPC   C3B22737  39.935   1.696   7.955
 7158POPC   C4B22738  39.928   1.710   7.655
 7159POPC   NC322739   2.761   9.711   9.455
 7159POPC   PO422740   2.811   9.709   9.155
 7159POPC   GL122741   2.751   9.790   8.855
 7159POPC   GL222742   2.617   9.690   8.855
 7159POPC   C1A22743   2.735   9.794   8.555
 7159POPC   D2A22744   2.777   9.722   8.255
 7159POPC   C3A22745   2.785   9.699   7.955
 7159POPC   C4A22746   2.796   9.725   7.655
 7159POPC   C1B22747   2.560   9.683   8.555
 7159POPC   C2B22748   2.484   9.701   8.255
 7159POPC   C3B22749   2.503   9.618   7.955
 7159POPC   C4B22750   2.534   9.689   7.655
 7160POPC   NC322751  12.034  10.530   9.455
 7160POPC   PO422752  12.107  10.508   9.155
 7160POPC   GL122753  12.118  10.565   8.855
 7160POPC   GL222754  12.036  10.676   8.855
 7160POPC   C1A22755  12.040  10.549   8.555
 7160POPC   D2A22756  12.117  10.488   8.255
 7160POPC   C3A22757  12.117  10.491   7.955
 7160POPC   C4A22758  12.088  10.552   7.655
 7160POPC   C1B22759  12.043  10.757   8.555
 7160POPC   C2B22760  12.054  10.739   8.255
 7160POPC   C3B22761  11.984  10.723   7.955
 7160POPC   C4B22762  11.997  10.807   7.655
 7161POPC   NC322763  36.883  13.623   9.455
 7161POPC   PO422764  36.875  13.628   9.155
 7161POPC   GL122765  36.946  13.635   8.855
 7161POPC   GL222766  36.969  13.703   8.855
 7161POPC   C1A22767  36.919  13.652   8.555
 7161POPC   D2A22768  36.920  13.641   8.255
 7161POPC   C3A22769  36.892  13.648   7.955
 7161POPC   C4A22770  36.938  13.620   7.655
 7161POPC   C1B22771  37.093  13.703   8.555
 7161POPC   C2B22772  37.158  13.735   8.255
 7161POPC   C3B22773  37.156  13.739   7.955
 7161POPC   C4B22774  37.154  13.728   7.655
 7162POPC   NC322775  22.146  15.929   9.455
 7162POPC   PO422776  22.161  15.911   9.155
 7162POPC   GL122777  22.195  15.909   8.855
 7162POPC   GL222778  22.072  15.912   8.855
 7162POPC   C1A22779  22.159  15.962   8.555
 7162POPC   D2A22780  22.195  15.974   8.255
 7162POPC   C3A22781  22.123  15.930   7.955
 7162POPC   C4A22782  22.152  15.955   7.655
 7162POPC   C1B22783  22.021  15.738   8.555
 7162POPC   C2B22784  21.953  15.738   8.255
 7162POPC   C3B22785  22.017  15.743   7.955
 7162POPC   C4B22786  22.025  15.745   7.655
 7163POPC   NC322787   0.419  14.386   9.455
 7163POPC   PO422788   0.405  14.388   9.155
 7163POPC   GL122789   0.388  14.398   8.855
 7163POPC   GL222790   0.304  14.444   8.855
 7163POPC   C1A22791   0.454  14.356   8.555
 7163POPC   D2A22792   0.398  14.427   8.255
 7163POPC   C3A22793   0.433  14.380   7.955
 7163POPC   C4A22794   0.432  14.402   7.655
 7163POPC   C1B22795   0.152  14.427   8.555
 7163POPC   C2B22796   0.172  14.443   8.255
 7163POPC   C3B22797   0.213  14.445   7.955
 7163POPC   C4B22798   0.178  14.485   7.655
 7164POPC   NC322799  42.354  21.362   9.455
 7164POPC   PO422800  42.302  21.363   9.155
 7164POPC   GL122801  42.356  21.361   8.855
 7164POPC   GL222802  42.441  21.344   8.855
 7164POPC   C1A22803  42.329  21.417   8.555
 7164POPC   D2A22804  42.308  21.392   8.255
 7164POPC   C3A22805  42.321  21.404   7.955
 7164POPC   C4A22806  42.384  21.380   7.655
 7164POPC   C1B22807  42.525  21.207   8.555
 7164POPC   C2B22808  42.559  21.179   8.255
 7164POPC   C3B22809  42.547  21.175   7.955
 7164POPC   C4B22810  42.565  21.182   7.655
 7165POPC   NC322811  12.831  36.949   9.455
 7165POPC   PO422812  12.845  36.906   9.155
 7165POPC   GL122813  12.871  36.873   8.855
 7165POPC   GL222814  12.756  37.010   8.855
 7165POPC   C1A22815  12.887  36.887   8.555
 7165POPC   D2A22816  12.815  36.886   8.255
 7165POPC   C3A22817  12.816  36.909   7.955
 7165POPC   C4A22818  12.806  36.926   7.655
 7165POPC   C1B22819  12.699  37.068   8.555
 7165POPC   C2B22820  12.625  37.116   8.255
 7165POPC   C3B22821  12.721  37.050   7.955
 7165POPC   C4B22822  12.723  37.095   7.655
 7166POPC   NC322823  33.066  29.148   9.455
 7166POPC   PO422824  33.000  29.161   9.155
 7166POPC   GL122825  33.053  29.174   8.855
 7166POPC   GL222826  33.141  29.039   8.855
 7166POPC   C1A22827  32.978  29.174   8.555
 7166POPC   D2A22828  33.042  29.098   8.255
 7166POPC   C3A22829  33.072  29.154   7.955
 7166POPC   C4A22830  33.071  29.193   7.655
 7166POPC   C1B22831  33.244  29.042   8.555
 7166POPC   C2B22832  33.214  29.064   8.255
 7166POPC   C3B22833  33.202  29.046   7.955
 7166POPC   C4B22834  33.261  29.027   7.655
 7167POPC   NC322835  17.518  22.211   9.455
 7167POPC   PO422836  17.476  22.137   9.155
 7167POPC   GL122837  17.523  22.166   8.855
 7167POPC   GL222838  17.477  22.054   8.855
 7167POPC   C1A22839  17.497  22.121   8.555
 7167POPC   D2A22840  17.543  22.180   8.255
 7167POPC   C3A22841  17.462  22.194   7.955
 7167POPC   C4A22842  17.550  22.208   7.655
 7167POPC   C1B22843  17.572  21.952   8.555
 7167POPC   C2B22844  17.509  21.873   8.255
 7167POPC   C3B22845  17.501  21.903   7.955
 7167POPC   C4B22846  17.482  21.908   7.655
 7168POPC   NC322847  10.490  40.784   9.455
 7168POPC   PO422848  10.553  40.742   9.155
 7168POPC   GL122849  10.492  40.733   8.855
 7168POPC   GL222850  10.628  40.758   8.855
 7168POPC   C1A22851  10.535  40.764   8.555
 7168POPC   D2A22852  10.540  40.770   8.255
 7168POPC   C3A22853  10.502  40.773   7.955
 7168POPC   C4A22854  10.518  40.755   7.655
 7168POPC   C1B22855  10.798  40.705   8.555
 7168POPC   C2B22856  10.760  40.746   8.255
 7168POPC   C3B22857  10.816  40.770   7.955
 7168POPC   C4B22858  10.722  40.714   7.655
 7169POPC   NC322859  42.373  12.041   9.455
 7169POPC   PO422860  42.285  12.075   9.155
 7169POPC   GL122861  42.364  12.082   8.855
 7169POPC   GL222862  42.226  12.065   8.855
 7169POPC   C1A22863  42.291  12.094   8.555
 7169POPC   D2A22864  42.302  12.092   8.255
 7169POPC   C3A22865  42.291  12.125   7.955
 7169POPC   C4A22866  42.311  12.070   7.655
 7169POPC   C1B22867  42.115  11.951   8.555
 7169POPC   C2B22868  42.072  11.937   8.255
 7169POPC   C3B22869  42.101  11.963   7.955
 7169POPC   C4B22870  42.151  11.968   7.655
 7170POPC   NC322871   0.431  23.698   9.455
 7170POPC   PO422872   0.453  23.684   9.155
 7170POPC   GL122873   0.472  23.686   8.855
 7170POPC   GL222874   0.567  23.746   8.855
 7170POPC   C1A22875   0.459  23.729   8.555
 7170POPC   D2A22876   0.487  23.664   8.255
 7170POPC   C3A22877   0.478  23.718   7.955
 7170POPC   C4A22878   0.440  23.695   7.655
 7170POPC   C1B22879   0.700  23.736   8.555
 7170POPC   C2B22880   0.698  23.734   8.255
 7170POPC   C3B22881   0.669  23.763   7.955
 7170POPC   C4B22882   0.714  23.747   7.655
 7171POPC   NC322883   4.356  29.141   9.455
 7171POPC   PO422884   4.269  29.138   9.155
 7171POPC   GL122885   4.312  29.143   8.855
 7171POPC   GL222886   4.367  29.061   8.855
 7171POPC   C1A22887   4.278  29.159   8.555
 7171POPC   D2A22888   4.336  29.167   8.255
 7171POPC   C3A22889   4.307  29.175   7.955
 7171POPC   C4A22890   4.278  29.148   7.655
 7171POPC   C1B22891   4.306  28.936   8.555
 7171POPC   C2B22892   4.351  28.919   8.255
 7171POPC   C3B22893   4.368  28.893   7.955
 7171POPC   C4B22894   4.369  28.880   7.655
 7172POPC   NC322895  35.384  21.421   9.455
 7172POPC   PO422896  35.392  21.363   9.155
 7172POPC   GL122897  35.397  21.415   8.855
 7172POPC   GL222898  35.357  21.241   8.855
 7172POPC   C1A22899  35.330  21.371   8.555
 7172POPC   D2A22900  35.370  21.388   8.255
 7172POPC   C3A22901  35.339  21.436   7.955
 7172POPC   C4A22902  35.389  21.351   7.655
 7172POPC   C1B22903  35.451  21.153   8.555
 7172POPC   C2B22904  35.438  21.111   8.255
 7172POPC   C3B22905  35.452  21.108   7.955
 7172POPC   C4B22906  35.434  21.150   7.655
 7173POPC   NC322907  22.122  24.518   9.455
 7173POPC   PO422908  22.194  24.477   9.155
 7173POPC   GL122909  22.115  24.526   8.855
 7173POPC   GL222910  22.331  24.490   8.855
 7173POPC   C1A22911  22.187  24.522   8.555
 7173POPC   D2A22912  22.166  24.494   8.255
 7173POPC   C3A22913  22.147  24.470   7.955
 7173POPC   C4A22914  22.181  24.476   7.655
 7173POPC   C1B22915  22.387  24.436   8.555
 7173POPC   C2B22916  22.451  24.454   8.255
 7173POPC   C3B22917  22.384  24.436   7.955
 7173POPC   C4B22918  22.409  24.466   7.655
 7174POPC   NC322919  23.725  14.439   9.455
 7174POPC   PO422920  23.698  14.438   9.155
 7174POPC   GL122921  23.741  14.440   8.855
 7174POPC   GL222922  23.717  14.526   8.855
 7174POPC   C1A22923  23.761  14.422   8.555
 7174POPC   D2A22924  23.669  14.356   8.255
 7174POPC   C3A22925  23.752  14.387   7.955
 7174POPC   C4A22926  23.714  14.384   7.655
 7174POPC   C1B22927  23.758  14.666   8.555
 7174POPC   C2B22928  23.698  14.651   8.255
 7174POPC   C3B22929  23.739  14.680   7.955
 7174POPC   C4B22930  23.746  14.627   7.655
 7175POPC   NC322931  22.936  43.846   9.455
 7175POPC   PO422932  22.970  43.888   9.155
 7175POPC   GL122933  22.965  43.843   8.855
 7175POPC   GL222934  22.904  44.053   8.855
 7175POPC   C1A22935  22.940  43.896   8.555
 7175POPC   D2A22936  22.890  43.916   8.255
 7175POPC   C3A22937  22.965  43.905   7.955
 7175POPC   C4A22938  22.935  43.860   7.655
 7175POPC   C1B22939  22.839  44.110   8.555
 7175POPC   C2B22940  22.873  44.156   8.255
 7175POPC   C3B22941  22.849  44.168   7.955
 7175POPC   C4B22942  22.899  44.098   7.655
 7176POPC   NC322943  33.843  20.648   9.455
 7176POPC   PO422944  33.849  20.586   9.155
 7176POPC   GL122945  33.845  20.576   8.855
 7176POPC   GL222946  33.828  20.504   8.855
 7176POPC   C1A22947  33.850  20.590   8.555
 7176POPC   D2A22948  33.841  20.592   8.255
 7176POPC   C3A22949  33.823  20.624   7.955
 7176POPC   C4A22950  33.816  20.587   7.655
 7176POPC   C1B22951  33.834  20.359   8.555
 7176POPC   C2B22952  33.879  20.345   8.255
 7176POPC   C3B22953  33.844  20.396   7.955
 7176POPC   C4B22954  33.871  20.353   7.655
 7177POPC   NC322955   6.692  29.965   9.455
 7177POPC   PO422956   6.630  29.892   9.155
 7177POPC   GL122957   6.619  29.937   8.855
 7177POPC   GL222958   6.623  30.037   8.855
 7177POPC   C1A22959   6.692  29.928   8.555
 7177POPC   D2A22960   6.665  29.912   8.255
 7177POPC   C3A22961   6.688  29.908   7.955
 7177POPC   C4A22962   6.601  29.905   7.655
 7177POPC   C1B22963   6.686  30.154   8.555
 7177POPC   C2B22964   6.627  30.159   8.255
 7177POPC   C3B22965   6.612  30.181   7.955
 7177POPC   C4B22966   6.618  30.155   7.655
 7178POPC   NC322967  44.669  19.841   9.455
 7178POPC   PO422968  44.664  19.863   9.155
 7178POPC   GL122969  44.652  19.861   8.855
 7178POPC   GL222970  44.508  19.805   8.855
 7178POPC   C1A22971  44.707  19.864   8.555
 7178POPC   D2A22972  44.635  19.802   8.255
 7178POPC   C3A22973  44.710  19.884   7.955
 7178POPC   C4A22974  44.629  19.852   7.655
 7178POPC   C1B22975  44.436  19.757   8.555
 7178POPC   C2B22976  44.403  19.751   8.255
 7178POPC   C3B22977  44.408  19.763   7.955
 7178POPC   C4B22978  44.455  19.813   7.655
 7179POPC   NC322979  14.420  13.664   9.455
 7179POPC   PO422980  14.376  13.649   9.155
 7179POPC   GL122981  14.358  13.619   8.855
 7179POPC   GL222982  14.262  13.693   8.855
 7179POPC   C1A22983  14.373  13.622   8.555
 7179POPC   D2A22984  14.423  13.623   8.255
 7179POPC   C3A22985  14.403  13.656   7.955
 7179POPC   C4A22986  14.376  13.672   7.655
 7179POPC   C1B22987  14.199  13.738   8.555
 7179POPC   C2B22988  14.200  13.778   8.255
 7179POPC   C3B22989  14.140  13.724   7.955
 7179POPC   C4B22990  14.157  13.755   7.655
 7180POPC   NC322991   1.207  20.600   9.455
 7180POPC   PO422992   1.217  20.631   9.155
 7180POPC   GL122993   1.260  20.582   8.855
 7180POPC   GL222994   1.120  20.536   8.855
 7180POPC   C1A22995   1.240  20.603   8.555
 7180POPC   D2A22996   1.253  20.632   8.255
 7180POPC   C3A22997   1.198  20.613   7.955
 7180POPC   C4A22998   1.247  20.620   7.655
 7180POPC   C1B22999   1.040  20.471   8.555
 7180POPC   C2B23000   1.001  20.430   8.255
 7180POPC   C3B23001   1.050  20.466   7.955
 7180POPC   C4B23002   1.043  20.434   7.655
 7181POPC   NC323003  43.898  31.456   9.455
 7181POPC   PO423004  43.885  31.513   9.155
 7181POPC   GL123005  43.897  31.444   8.855
 7181POPC   GL223006  43.817  31.603   8.855
 7181POPC   C1A23007  43.869  31.504   8.555
 7181POPC   D2A23008  43.892  31.517   8.255
 7181POPC   C3A23009  43.874  31.500   7.955
 7181POPC   C4A23010  43.925  31.472   7.655
 7181POPC   C1B23011  43.748  31.729   8.555
 7181POPC   C2B23012  43.770  31.671   8.255
 7181POPC   C3B23013  43.830  31.750   7.955
 7181POPC   C4B23014  43.837  31.694   7.655
 7182POPC   NC323015  12.872   6.613   9.455
 7182POPC   PO423016  12.837   6.656   9.155
 7182POPC   GL123017  12.862   6.639   8.855
 7182POPC   GL223018  12.917   6.568   8.855
 7182POPC   C1A23019  12.901   6.600   8.555
 7182POPC   D2A23020  12.844   6.683   8.255
 7182POPC   C3A23021  12.829   6.694   7.955
 7182POPC   C4A23022  12.895   6.647   7.655
 7182POPC   C1B23023  12.966   6.479   8.555
 7182POPC   C2B23024  12.975   6.477   8.255
 7182POPC   C3B23025  12.971   6.418   7.955
 7182POPC   C4B23026  12.995   6.418   7.655
 7183POPC   NC323027   1.992  39.201   9.455
 7183POPC   PO423028   2.036  39.271   9.155
 7183POPC   GL123029   1.941  39.276   8.855
 7183POPC   GL223030   2.115  39.292   8.855
 7183POPC   C1A23031   1.950  39.234   8.555
 7183POPC   D2A23032   1.968  39.276   8.255
 7183POPC   C3A23033   2.020  39.247   7.955
 7183POPC   C4A23034   1.952  39.198   7.655
 7183POPC   C1B23035   2.165  39.333   8.555
 7183POPC   C2B23036   2.205  39.328   8.255
 7183POPC   C3B23037   2.240  39.385   7.955
 7183POPC   C4B23038   2.179  39.386   7.655
 7184POPC   NC323039  10.529  19.061   9.455
 7184POPC   PO423040  10.562  19.076   9.155
 7184POPC   GL123041  10.536  19.090   8.855
 7184POPC   GL223042  10.640  19.058   8.855
 7184POPC   C1A23043  10.566  19.023   8.555
 7184POPC   D2A23044  10.530  19.023   8.255
 7184POPC   C3A23045  10.517  19.012   7.955
 7184POPC   C4A23046  10.509  19.010   7.655
 7184POPC   C1B23047  10.723  18.941   8.555
 7184POPC   C2B23048  10.797  18.997   8.255
 7184POPC   C3B23049  10.727  18.926   7.955
 7184POPC   C4B23050  10.803  18.932   7.655
 7185POPC   NC323051  33.783  38.486   9.455
 7185POPC   PO423052  33.773  38.454   9.155
 7185POPC   GL123053  33.754  38.437   8.855
 7185POPC   GL223054  33.739  38.560   8.855
 7185POPC   C1A23055  33.773  38.437   8.555
 7185POPC   D2A23056  33.764  38.445   8.255
 7185POPC   C3A23057  33.832  38.478   7.955
 7185POPC   C4A23058  33.760  38.505   7.655
 7185POPC   C1B23059  33.758  38.694   8.555
 7185POPC   C2B23060  33.779  38.735   8.255
 7185POPC   C3B23061  33.801  38.656   7.955
 7185POPC   C4B23062  33.785  38.733   7.655
 7186POPC   NC323063  17.458  21.434   9.455
 7186POPC   PO423064  17.549  21.395   9.155
 7186POPC   GL123065  17.503  21.417   8.855
 7186POPC   GL223066  17.621  21.414   8.855
 7186POPC   C1A23067  17.535  21.356   8.555
 7186POPC   D2A23068  17.493  21.371   8.255
 7186POPC   C3A23069  17.549  21.371   7.955
 7186POPC   C4A23070  17.527  21.363   7.655
 7186POPC   C1B23071  17.690  21.527   8.555
 7186POPC   C2B23072  17.754  21.549   8.255
 7186POPC   C3B23073  17.693  21.516   7.955
 7186POPC   C4B23074  17.759  21.521   7.655
 7187POPC   NC323075  42.382  40.825   9.455
 7187POPC   PO423076  42.376  40.792   9.155
 7187POPC   GL123077  42.350  40.770   8.855
 7187POPC   GL223078  42.172  40.866   8.855
 7187POPC   C1A23079  42.363  40.800   8.555
 7187POPC   D2A23080  42.300  40.808   8.255
 7187POPC   C3A23081  42.374  40.740   7.955
 7187POPC   C4A23082  42.330  40.778   7.655
 7187POPC   C1B23083  42.121  40.851   8.555
 7187POPC   C2B23084  42.065  40.881   8.255
 7187POPC   C3B23085  42.086  40.828   7.955
 7187POPC   C4B23086  42.104  40.898   7.655
 7188POPC   NC323087  30.651  43.935   9.455
 7188POPC   PO423088  30.721  43.918   9.155
 7188POPC   GL123089  30.687  43.915   8.855
 7188POPC   GL223090  30.624  43.936   8.855
 7188POPC   C1A23091  30.702  43.840   8.555
 7188POPC   D2A23092  30.676  43.916   8.255
 7188POPC   C3A23093  30.687  43.921   7.955
 7188POPC   C4A23094  30.714  43.895   7.655
 7188POPC   C1B23095  30.523  44.006   8.555
 7188POPC   C2B23096  30.501  44.011   8.255
 7188POPC   C3B23097  30.546  44.091   7.955
 7188POPC   C4B23098  30.528  44.054   7.655
 7189POPC   NC323099  22.910   4.281   9.455
 7189POPC   PO423100  22.943   4.355   9.155
 7189POPC   GL123101  22.947   4.278   8.855
 7189POPC   GL223102  22.953   4.431   8.855
 7189POPC   C1A23103  22.929   4.354   8.555
 7189POPC   D2A23104  22.914   4.324   8.255
 7189POPC   C3A23105  22.927   4.333   7.955
 7189POPC   C4A23106  22.974   4.335   7.655
 7189POPC   C1B23107  22.873   4.593   8.555
 7189POPC   C2B23108  22.857   4.578   8.255
 7189POPC   C3B23109  22.877   4.524   7.955
 7189POPC   C4B23110  22.871   4.553   7.655
 7190POPC   NC323111   0.421  39.262   9.455
 7190POPC   PO423112   0.451  39.273   9.155
 7190POPC   GL123113   0.427  39.186   8.855
 7190POPC   GL223114   0.525  39.174   8.855
 7190POPC   C1A23115   0.405  39.241   8.555
 7190POPC   D2A23116   0.472  39.202   8.255
 7190POPC   C3A23117   0.450  39.236   7.955
 7190POPC   C4A23118   0.442  39.236   7.655
 7190POPC   C1B23119   0.691  39.189   8.555
 7190POPC   C2B23120   0.663  39.233   8.255
 7190POPC   C3B23121   0.679  39.225   7.955
 7190POPC   C4B23122   0.699  39.202   7.655
 7191POPC   NC323123  28.393  17.549   9.455
 7191POPC   PO423124  28.366  17.543   9.155
 7191POPC   GL123125  28.351  17.488   8.855
 7191POPC   GL223126  28.372  17.605   8.855
 7191POPC   C1A23127  28.351  17.498   8.555
 7191POPC   D2A23128  28.377  17.543   8.255
 7191POPC   C3A23129  28.402  17.537   7.955
 7191POPC   C4A23130  28.350  17.507   7.655
 7191POPC   C1B23131  28.356  17.803   8.555
 7191POPC   C2B23132  28.397  17.714   8.255
 7191POPC   C3B23133  28.341  17.762   7.955
 7191POPC   C4B23134  28.377  17.740   7.655
 7192POPC   NC323135  20.606  26.849   9.455
 7192POPC   PO423136  20.638  26.777   9.155
 7192POPC   GL123137  20.640  26.791   8.855
 7192POPC   GL223138  20.570  26.735   8.855
 7192POPC   C1A23139  20.650  26.772   8.555
 7192POPC   D2A23140  20.605  26.825   8.255
 7192POPC   C3A23141  20.600  26.801   7.955
 7192POPC   C4A23142  20.626  26.781   7.655
 7192POPC   C1B23143  20.509  26.570   8.555
 7192POPC   C2B23144  20.509  26.637   8.255
 7192POPC   C3B23145  20.553  26.555   7.955
 7192POPC   C4B23146  20.489  26.638   7.655
 7193POPC   NC323147   2.013  23.704   9.455
 7193POPC   PO423148   2.029  23.729   9.155
 7193POPC   GL123149   2.004  23.735   8.855
 7193POPC   GL223150   1.980  23.550   8.855
 7193POPC   C1A23151   1.991  23.744   8.555
 7193POPC   D2A23152   2.008  23.678   8.255
 7193POPC   C3A23153   1.952  23.731   7.955
 7193POPC   C4A23154   1.944  23.696   7.655
 7193POPC   C1B23155   1.925  23.513   8.555
 7193POPC   C2B23156   1.863  23.482   8.255
 7193POPC   C3B23157   1.868  23.509   7.955
 7193POPC   C4B23158   1.894  23.445   7.655
 7194POPC   NC323159  22.956  39.259   9.455
 7194POPC   PO423160  22.917  39.268   9.155
 7194POPC   GL123161  22.906  39.212   8.855
 7194POPC   GL223162  23.017  39.211   8.855
 7194POPC   C1A23163  22.928  39.238   8.555
 7194POPC   D2A23164  22.985  39.181   8.255
 7194POPC   C3A23165  22.936  39.192   7.955
 7194POPC   C4A23166  22.958  39.267   7.655
 7194POPC   C1B23167  23.208  39.227   8.555
 7194POPC   C2B23168  23.195  39.258   8.255
 7194POPC   C3B23169  23.191  39.236   7.955
 7194POPC   C4B23170  23.188  39.235   7.655
 7195POPC   NC323171  39.244  25.247   9.455
 7195POPC   PO423172  39.257  25.222   9.155
 7195POPC   GL123173  39.238  25.311   8.855
 7195POPC   GL223174  39.127  25.377   8.855
 7195POPC   C1A23175  39.271  25.236   8.555
 7195POPC   D2A23176  39.269  25.230   8.255
 7195POPC   C3A23177  39.218  25.270   7.955
 7195POPC   C4A23178  39.278  25.252   7.655
 7195POPC   C1B23179  39.149  25.470   8.555
 7195POPC   C2B23180  39.159  25.486   8.255
 7195POPC   C3B23181  39.168  25.473   7.955
 7195POPC   C4B23182  39.125  25.535   7.655
 7196POPC   NC323183  26.073  43.119   9.455
 7196POPC   PO423184  26.034  43.066   9.155
 7196POPC   GL123185  26.032  43.123   8.855
 7196POPC   GL223186  25.960  43.181   8.855
 7196POPC   C1A23187  26.019  43.091   8.555
 7196POPC   D2A23188  26.031  43.158   8.255
 7196POPC   C3A23189  26.033  43.082   7.955
 7196POPC   C4A23190  26.033  43.152   7.655
 7196POPC   C1B23191  25.813  43.237   8.555
 7196POPC   C2B23192  25.794  43.222   8.255
 7196POPC   C3B23193  25.882  43.300   7.955
 7196POPC   C4B23194  25.796  43.235   7.655
 7197POPC   NC323195   8.188  33.813   9.455
 7197POPC   PO423196   8.237  33.778   9.155
 7197POPC   GL123197   8.200  33.766   8.855
 7197POPC   GL223198   8.108  33.902   8.855
 7197POPC   C1A23199   8.207  33.831   8.555
 7197POPC   D2A23200   8.218  33.754   8.255
 7197POPC   C3A23201   8.226  33.811   7.955
 7197POPC   C4A23202   8.187  33.822   7.655
 7197POPC   C1B23203   7.955  33.911   8.555
 7197POPC   C2B23204   7.940  33.930   8.255
 7197POPC   C3B23205   8.002  33.939   7.955
 7197POPC   C4B23206   8.012  33.924   7.655
 7198POPC   NC323207  40.022  34.561   9.455
 7198POPC   PO423208  39.962  34.618   9.155
 7198POPC   GL123209  40.000  34.582   8.855
 7198POPC   GL223210  40.015  34.688   8.855
 7198POPC   C1A23211  40.022  34.526   8.555
 7198POPC   D2A23212  39.958  34.595   8.255
 7198POPC   C3A23213  39.993  34.542   7.955
 7198POPC   C4A23214  39.968  34.537   7.655
 7198POPC   C1B23215  40.015  34.786   8.555
 7198POPC   C2B23216  39.966  34.821   8.255
 7198POPC   C3B23217  40.036  34.796   7.955
 7198POPC   C4B23218  39.956  34.855   7.655
 7199POPC   NC323219  36.163  28.383   9.455
 7199POPC   PO423220  36.095  28.417   9.155
 7199POPC   GL123221  36.167  28.352   8.855
 7199POPC   GL223222  36.227  28.344   8.855
 7199POPC   C1A23223  36.149  28.383   8.555
 7199POPC   D2A23224  36.110  28.354   8.255
 7199POPC   C3A23225  36.104  28.387   7.955
 7199POPC   C4A23226  36.101  28.389   7.655
 7199POPC   C1B23227  36.404  28.322   8.555
 7199POPC   C2B23228  36.344  28.322   8.255
 7199POPC   C3B23229  36.382  28.326   7.955
 7199POPC   C4B23230  36.397  28.293   7.655
 7200POPC   NC323231   3.557  34.590   9.455
 7200POPC   PO423232   3.500  34.531   9.155
 7200POPC   GL123233   3.528  34.565   8.855
 7200POPC   GL223234   3.547  34.673   8.855
 7200POPC   C1A23235   3.533  34.568   8.555
 7200POPC   D2A23236   3.554  34.527   8.255
 7200POPC   C3A23237   3.502  34.528   7.955
 7200POPC   C4A23238   3.577  34.533   7.655
 7200POPC   C1B23239   3.520  34.825   8.555
 7200POPC   C2B23240   3.487  34.875   8.255
 7200POPC   C3B23241   3.580  34.791   7.955
 7200POPC   C4B23242   3.508  34.820   7.655
 7201POPC   NC323243   8.928   6.692   9.455
 7201POPC   PO423244   9.018   6.672   9.155
 7201POPC   GL123245   8.998   6.603   8.855
 7201POPC   GL223246   8.840   6.716   8.855
 7201POPC   C1A23247   8.964   6.645   8.555
 7201POPC   D2A23248   8.968   6.689   8.255
 7201POPC   C3A23249   8.944   6.631   7.955
 7201POPC   C4A23250   9.003   6.687   7.655
 7201POPC   C1B23251   8.742   6.822   8.555
 7201POPC   C2B23252   8.747   6.770   8.255
 7201POPC   C3B23253   8.737   6.806   7.955
 7201POPC   C4B23254   8.795   6.736   7.655
 7202POPC   NC323255  43.081  37.630   9.455
 7202POPC   PO423256  43.138  37.642   9.155
 7202POPC   GL123257  43.085  37.653   8.855
 7202POPC   GL223258  42.966  37.739   8.855
 7202POPC   C1A23259  43.105  37.713   8.555
 7202POPC   D2A23260  43.077  37.650   8.255
 7202POPC   C3A23261  43.139  37.630   7.955
 7202POPC   C4A23262  43.081  37.676   7.655
 7202POPC   C1B23263  42.866  37.708   8.555
 7202POPC   C2B23264  42.874  37.694   8.255
 7202POPC   C3B23265  42.900  37.706   7.955
 7202POPC   C4B23266  42.879  37.701   7.655
 7203POPC   NC323267  24.504   1.992   9.455
 7203POPC   PO423268  24.461   1.976   9.155
 7203POPC   GL123269  24.485   1.999   8.855
 7203POPC   GL223270  24.522   2.125   8.855
 7203POPC   C1A23271  24.482   1.962   8.555
 7203POPC   D2A23272  24.523   1.953   8.255
 7203POPC   C3A23273  24.504   1.958   7.955
 7203POPC   C4A23274  24.485   1.956   7.655
 7203POPC   C1B23275  24.482   2.286   8.555
 7203POPC   C2B23276  24.520   2.276   8.255
 7203POPC   C3B23277  24.520   2.237   7.955
 7203POPC   C4B23278  24.433   2.264   7.655
 7204POPC   NC323279  22.956  38.422   9.455
 7204POPC   PO423280  22.980  38.419   9.155
 7204POPC   GL123281  22.970  38.448   8.855
 7204POPC   GL223282  22.891  38.597   8.855
 7204POPC   C1A23283  22.896  38.408   8.555
 7204POPC   D2A23284  22.946  38.502   8.255
 7204POPC   C3A23285  22.961  38.467   7.955
 7204POPC   C4A23286  22.945  38.484   7.655
 7204POPC   C1B23287  22.953  38.664   8.555
 7204POPC   C2B23288  22.890  38.715   8.255
 7204POPC   C3B23289  22.875  38.697   7.955
 7204POPC   C4B23290  22.906  38.659   7.655
 7205POPC   NC323291  38.428   1.217   9.455
 7205POPC   PO423292  38.433   1.180   9.155
 7205POPC   GL123293  38.497   1.257   8.855
 7205POPC   GL223294  38.575   1.139   8.855
 7205POPC   C1A23295  38.464   1.226   8.555
 7205POPC   D2A23296  38.493   1.245   8.255
 7205POPC   C3A23297  38.426   1.217   7.955
 7205POPC   C4A23298  38.406   1.192   7.655
 7205POPC   C1B23299  38.662   1.139   8.555
 7205POPC   C2B23300  38.716   1.136   8.255
 7205POPC   C3B23301  38.694   1.152   7.955
 7205POPC   C4B23302  38.672   1.133   7.655
 7206POPC   NC323303  39.961  16.699   9.455
 7206POPC   PO423304  39.978  16.699   9.155
 7206POPC   GL123305  40.055  16.760   8.855
 7206POPC   GL223306  39.923  16.798   8.855
 7206POPC   C1A23307  40.020  16.780   8.555
 7206POPC   D2A23308  40.052  16.715   8.255
 7206POPC   C3A23309  39.999  16.710   7.955
 7206POPC   C4A23310  40.043  16.690   7.655
 7206POPC   C1B23311  39.819  16.879   8.555
 7206POPC   C2B23312  39.773  16.847   8.255
 7206POPC   C3B23313  39.777  16.878   7.955
 7206POPC   C4B23314  39.788  16.904   7.655
 7207POPC   NC323315   4.345  30.715   9.455
 7207POPC   PO423316   4.309  30.700   9.155
 7207POPC   GL123317   4.274  30.746   8.855
 7207POPC   GL223318   4.334  30.846   8.855
 7207POPC   C1A23319   4.291  30.656   8.555
 7207POPC   D2A23320   4.352  30.714   8.255
 7207POPC   C3A23321   4.302  30.717   7.955
 7207POPC   C4A23322   4.344  30.719   7.655
 7207POPC   C1B23323   4.288  30.951   8.555
 7207POPC   C2B23324   4.321  30.897   8.255
 7207POPC   C3B23325   4.300  30.918   7.955
 7207POPC   C4B23326   4.366  30.906   7.655
 7208POPC   NC323327  37.687  34.533   9.455
 7208POPC   PO423328  37.661  34.623   9.155
 7208POPC   GL123329  37.676  34.527   8.855
 7208POPC   GL223330  37.571  34.419   8.855
 7208POPC   C1A23331  37.641  34.570   8.555
 7208POPC   D2A23332  37.702  34.555   8.255
 7208POPC   C3A23333  37.630  34.595   7.955
 7208POPC   C4A23334  37.697  34.549   7.655
 7208POPC   C1B23335  37.597  34.379   8.555
 7208POPC   C2B23336  37.550  34.366   8.255
 7208POPC   C3B23337  37.531  34.406   7.955
 7208POPC   C4B23338  37.578  34.317   7.655
 7209POPC   NC323339  18.320  28.390   9.455
 7209POPC   PO423340  18.247  28.347   9.155
 7209POPC   GL123341  18.259  28.418   8.855
 7209POPC   GL223342  18.193  28.426   8.855
 7209POPC   C1A23343  18.246  28.367   8.555
 7209POPC   D2A23344  18.319  28.410   8.255
 7209POPC   C3A23345  18.316  28.411   7.955
 7209POPC   C4A23346  18.305  28.372   7.655
 7209POPC   C1B23347  18.074  28.452   8.555
 7209POPC   C2B23348  18.034  28.527   8.255
 7209POPC   C3B23349  18.070  28.496   7.955
 7209POPC   C4B23350  18.052  28.452   7.655
 7210POPC   NC323351  39.998   5.054   9.455
 7210POPC   PO423352  39.979   5.133   9.155
 7210POPC   GL123353  39.972   5.106   8.855
 7210POPC   GL223354  39.940   5.168   8.855
 7210POPC   C1A23355  39.991   5.091   8.555
 7210POPC   D2A23356  40.054   5.119   8.255
 7210POPC   C3A23357  40.022   5.079   7.955
 7210POPC   C4A23358  39.982   5.072   7.655
 7210POPC   C1B23359  39.934   5.355   8.555
 7210POPC   C2B23360  39.951   5.329   8.255
 7210POPC   C3B23361  39.894   5.342   7.955
 7210POPC   C4B23362  39.871   5.319   7.655
 7211POPC   NC323363  20.574  16.774   9.455
 7211POPC   PO423364  20.607  16.701   9.155
 7211POPC   GL123365  20.646  16.701   8.855
 7211POPC   GL223366  20.493  16.754   8.855
 7211POPC   C1A23367  20.656  16.756   8.555
 7211POPC   D2A23368  20.623  16.686   8.255
 7211POPC   C3A23369  20.630  16.758   7.955
 7211POPC   C4A23370  20.582  16.775   7.655
 7211POPC   C1B23371  20.382  16.839   8.555
 7211POPC   C2B23372  20.355  16.865   8.255
 7211POPC   C3B23373  20.394  16.894   7.955
 7211POPC   C4B23374  20.429  16.845   7.655
 7212POPC   NC323375   8.198  11.350   9.455
 7212POPC   PO423376   8.153  11.316   9.155
 7212POPC   GL123377   8.195  11.304   8.855
 7212POPC   GL223378   8.200  11.455   8.855
 7212POPC   C1A23379   8.226  11.302   8.555
 7212POPC   D2A23380   8.170  11.259   8.255
 7212POPC   C3A23381   8.236  11.300   7.955
 7212POPC   C4A23382   8.178  11.316   7.655
 7212POPC   C1B23383   8.256  11.507   8.555
 7212POPC   C2B23384   8.272  11.586   8.255
 7212POPC   C3B23385   8.243  11.533   7.955
 7212POPC   C4B23386   8.208  11.543   7.655
 7213POPC   NC323387  40.793   5.849   9.455
 7213POPC   PO423388  40.807   5.845   9.155
 7213POPC   GL123389  40.782   5.870   8.855
 7213POPC   GL223390  40.726   5.705   8.855
 7213POPC   C1A23391  40.734   5.835   8.555
 7213POPC   D2A23392  40.737   5.845   8.255
 7213POPC   C3A23393  40.824   5.883   7.955
 7213POPC   C4A23394  40.819   5.843   7.655
 7213POPC   C1B23395  40.713   5.589   8.555
 7213POPC   C2B23396  40.722   5.605   8.255
 7213POPC   C3B23397  40.707   5.601   7.955
 7213POPC   C4B23398  40.645   5.619   7.655
 7214POPC   NC323399  29.100  14.409   9.455
 7214POPC   PO423400  29.177  14.414   9.155
 7214POPC   GL123401  29.122  14.402   8.855
 7214POPC   GL223402  28.987  14.382   8.855
 7214POPC   C1A23403  29.139  14.367   8.555
 7214POPC   D2A23404  29.111  14.439   8.255
 7214POPC   C3A23405  29.173  14.448   7.955
 7214POPC   C4A23406  29.188  14.443   7.655
 7214POPC   C1B23407  28.904  14.395   8.555
 7214POPC   C2B23408  28.906  14.396   8.255
 7214POPC   C3B23409  28.921  14.398   7.955
 7214POPC   C4B23410  28.866  14.425   7.655
 7215POPC   NC323411  20.571  29.121   9.455
 7215POPC   PO423412  20.624  29.113   9.155
 7215POPC   GL123413  20.657  29.152   8.855
 7215POPC   GL223414  20.551  29.047   8.855
 7215POPC   C1A23415  20.639  29.145   8.555
 7215POPC   D2A23416  20.653  29.130   8.255
 7215POPC   C3A23417  20.615  29.117   7.955
 7215POPC   C4A23418  20.578  29.181   7.655
 7215POPC   C1B23419  20.487  28.915   8.555
 7215POPC   C2B23420  20.465  28.982   8.255
 7215POPC   C3B23421  20.448  28.957   7.955
 7215POPC   C4B23422  20.467  28.972   7.655
 7216POPC   NC323423  22.179  17.508   9.455
 7216POPC   PO423424  22.197  17.486   9.155
 7216POPC   GL123425  22.147  17.516   8.855
 7216POPC   GL223426  22.073  17.570   8.855
 7216POPC   C1A23427  22.165  17.533   8.555
 7216POPC   D2A23428  22.167  17.525   8.255
 7216POPC   C3A23429  22.169  17.508   7.955
 7216POPC   C4A23430  22.200  17.546   7.655
 7216POPC   C1B23431  21.937  17.620   8.555
 7216POPC   C2B23432  21.949  17.615   8.255
 7216POPC   C3B23433  21.896  17.581   7.955
 7216POPC   C4B23434  21.883  17.583   7.655
 7217POPC   NC323435   1.165  24.466   9.455
 7217POPC   PO423436   1.239  24.529   9.155
 7217POPC   GL123437   1.223  24.481   8.855
 7217POPC   GL223438   1.314  24.596   8.855
 7217POPC   C1A23439   1.201  24.515   8.555
 7217POPC   D2A23440   1.182  24.478   8.255
 7217POPC   C3A23441   1.188  24.500   7.955
 7217POPC   C4A23442   1.183  24.518   7.655
 7217POPC   C1B23443   1.288  24.756   8.555
 7217POPC   C2B23444   1.375  24.709   8.255
 7217POPC   C3B23445   1.301  24.690   7.955
 7217POPC   C4B23446   1.356  24.675   7.655
 7218POPC   NC323447  11.344   1.197   9.455
 7218POPC   PO423448  11.303   1.164   9.155
 7218POPC   GL123449  11.255   1.222   8.855
 7218POPC   GL223450  11.321   1.052   8.855
 7218POPC   C1A23451  11.340   1.179   8.555
 7218POPC   D2A23452  11.263   1.213   8.255
 7218POPC   C3A23453  11.340   1.218   7.955
 7218POPC   C4A23454  11.336   1.228   7.655
 7218POPC   C1B23455  11.229   0.921   8.555
 7218POPC   C2B23456  11.296   1.003   8.255
 7218POPC   C3B23457  11.238   0.929   7.955
 7218POPC   C4B23458  11.215   0.969   7.655
 7219POPC   NC323459  42.317  32.278   9.455
 7219POPC   PO423460  42.364  32.260   9.155
 7219POPC   GL123461  42.353  32.244   8.855
 7219POPC   GL223462  42.419  32.337   8.855
 7219POPC   C1A23463  42.321  32.223   8.555
 7219POPC   D2A23464  42.350  32.247   8.255
 7219POPC   C3A23465  42.285  32.207   7.955
 7219POPC   C4A23466  42.316  32.210   7.655
 7219POPC   C1B23467  42.558  32.340   8.555
 7219POPC   C2B23468  42.570  32.385   8.255
 7219POPC   C3B23469  42.552  32.407   7.955
 7219POPC   C4B23470  42.513  32.376   7.655
 7220POPC   NC323471  44.616  13.589   9.455
 7220POPC   PO423472  44.653  13.585   9.155
 7220POPC   GL123473  44.641  13.622   8.855
 7220POPC   GL223474  44.738  13.529   8.855
 7220POPC   C1A23475  44.636  13.596   8.555
 7220POPC   D2A23476  44.651  13.642   8.255
 7220POPC   C3A23477  44.659  13.612   7.955
 7220POPC   C4A23478  44.649  13.614   7.655
 7220POPC   C1B23479  44.746  13.375   8.555
 7220POPC   C2B23480  44.784  13.416   8.255
 7220POPC   C3B23481  44.787  13.398   7.955
 7220POPC   C4B23482  44.802  13.389   7.655
 7221POPC   NC323483  23.665  36.144   9.455
 7221POPC   PO423484  23.716  36.095   9.155
 7221POPC   GL123485  23.732  36.171   8.855
 7221POPC   GL223486  23.607  36.055   8.855
 7221POPC   C1A23487  23.722  36.096   8.555
 7221POPC   D2A23488  23.677  36.130   8.255
 7221POPC   C3A23489  23.750  36.100   7.955
 7221POPC   C4A23490  23.760  36.095   7.655
 7221POPC   C1B23491  23.620  35.925   8.555
 7221POPC   C2B23492  23.544  35.900   8.255
 7221POPC   C3B23493  23.548  35.934   7.955
 7221POPC   C4B23494  23.582  35.926   7.655
 7222POPC   NC323495  19.041  25.288   9.455
 7222POPC   PO423496  19.066  25.278   9.155
 7222POPC   GL123497  19.037  25.223   8.855
 7222POPC   GL223498  18.935  25.250   8.855
 7222POPC   C1A23499  19.087  25.249   8.555
 7222POPC   D2A23500  19.099  25.265   8.255
 7222POPC   C3A23501  19.076  25.277   7.955
 7222POPC   C4A23502  19.053  25.288   7.655
 7222POPC   C1B23503  18.804  25.123   8.555
 7222POPC   C2B23504  18.848  25.107   8.255
 7222POPC   C3B23505  18.836  25.116   7.955
 7222POPC   C4B23506  18.830  25.172   7.655
 7223POPC   NC323507  15.222  23.712   9.455
 7223POPC   PO423508  15.151  23.707   9.155
 7223POPC   GL123509  15.222  23.673   8.855
 7223POPC   GL223510  15.133  23.567   8.855
 7223POPC   C1A23511  15.150  23.751   8.555
 7223POPC   D2A23512  15.185  23.695   8.255
 7223POPC   C3A23513  15.196  23.728   7.955
 7223POPC   C4A23514  15.172  23.689   7.655
 7223POPC   C1B23515  15.149  23.511   8.555
 7223POPC   C2B23516  15.218  23.501   8.255
 7223POPC   C3B23517  15.214  23.495   7.955
 7223POPC   C4B23518  15.150  23.489   7.655
 7224POPC   NC323519  21.436  19.844   9.455
 7224POPC   PO423520  21.344  19.810   9.155
 7224POPC   GL123521  21.337  19.883   8.855
 7224POPC   GL223522  21.521  19.839   8.855
 7224POPC   C1A23523  21.408  19.874   8.555
 7224POPC   D2A23524  21.409  19.856   8.255
 7224POPC   C3A23525  21.424  19.842   7.955
 7224POPC   C4A23526  21.415  19.840   7.655
 7224POPC   C1B23527  21.681  19.805   8.555
 7224POPC   C2B23528  21.655  19.769   8.255
 7224POPC   C3B23529  21.663  19.823   7.955
 7224POPC   C4B23530  21.665  19.783   7.655
 7225POPC   NC323531  22.154   1.948   9.455
 7225POPC   PO423532  22.176   1.950   9.155
 7225POPC   GL123533  22.121   1.950   8.855
 7225POPC   GL223534  22.267   1.929   8.855
 7225POPC   C1A23535  22.177   2.014   8.555
 7225POPC   D2A23536  22.187   2.037   8.255
 7225POPC   C3A23537  22.147   2.007   7.955
 7225POPC   C4A23538  22.134   1.959   7.655
 7225POPC   C1B23539  22.333   1.800   8.555
 7225POPC   C2B23540  22.366   1.776   8.255
 7225POPC   C3B23541  22.382   1.777   7.955
 7225POPC   C4B23542  22.389   1.811   7.655
 7226POPC   NC323543  29.929  28.342   9.455
 7226POPC   PO423544  29.946  28.396   9.155
 7226POPC   GL123545  29.915  28.416   8.855
 7226POPC   GL223546  29.782  28.316   8.855
 7226POPC   C1A23547  29.893  28.371   8.555
 7226POPC   D2A23548  29.969  28.326   8.255
 7226POPC   C3A23549  29.959  28.339   7.955
 7226POPC   C4A23550  29.911  28.368   7.655
 7226POPC   C1B23551  29.682  28.306   8.555
 7226POPC   C2B23552  29.682  28.271   8.255
 7226POPC   C3B23553  29.718  28.307   7.955
 7226POPC   C4B23554  29.645  28.342   7.655
 7227POPC   NC323555  15.968   5.873   9.455
 7227POPC   PO423556  15.939   5.891   9.155
 7227POPC   GL123557  15.967   5.904   8.855
 7227POPC   GL223558  15.932   5.947   8.855
 7227POPC   C1A23559  15.924   5.870   8.555
 7227POPC   D2A23560  15.959   5.877   8.255
 7227POPC   C3A23561  15.977   5.840   7.955
 7227POPC   C4A23562  15.915   5.857   7.655
 7227POPC   C1B23563  15.894   6.070   8.555
 7227POPC   C2B23564  15.886   6.116   8.255
 7227POPC   C3B23565  15.858   6.100   7.955
 7227POPC   C4B23566  15.874   6.157   7.655
 7228POPC   NC323567  15.182  10.504   9.455
 7228POPC   PO423568  15.160  10.561   9.155
 7228POPC   GL123569  15.207  10.534   8.855
 7228POPC   GL223570  15.104  10.517   8.855
 7228POPC   C1A23571  15.217  10.491   8.555
 7228POPC   D2A23572  15.201  10.539   8.255
 7228POPC   C3A23573  15.202  10.536   7.955
 7228POPC   C4A23574  15.177  10.518   7.655
 7228POPC   C1B23575  14.934  10.612   8.555
 7228POPC   C2B23576  14.981  10.568   8.255
 7228POPC   C3B23577  14.983  10.538   7.955
 7228POPC   C4B23578  14.957  10.587   7.655
 7229POPC   NC323579  24.534   7.461   9.455
 7229POPC   PO423580  24.474   7.395   9.155
 7229POPC   GL123581  24.453   7.404   8.855
 7229POPC   GL223582  24.431   7.525   8.855
 7229POPC   C1A23583  24.515   7.377   8.555
 7229POPC   D2A23584  24.494   7.412   8.255
 7229POPC   C3A23585  24.532   7.434   7.955
 7229POPC   C4A23586  24.481   7.398   7.655
 7229POPC   C1B23587  24.483   7.704   8.555
 7229POPC   C2B23588  24.410   7.655   8.255
 7229POPC   C3B23589  24.389   7.711   7.955
 7229POPC   C4B23590  24.386   7.652   7.655
 7230POPC   NC323591  17.556  33.001   9.455
 7230POPC   PO423592  17.483  33.009   9.155
 7230POPC   GL123593  17.544  33.036   8.855
 7230POPC   GL223594  17.598  33.050   8.855
 7230POPC   C1A23595  17.507  33.074   8.555
 7230POPC   D2A23596  17.472  32.989   8.255
 7230POPC   C3A23597  17.533  33.015   7.955
 7230POPC   C4A23598  17.533  33.023   7.655
 7230POPC   C1B23599  17.713  33.140   8.555
 7230POPC   C2B23600  17.742  33.129   8.255
 7230POPC   C3B23601  17.774  33.137   7.955
 7230POPC   C4B23602  17.730  33.099   7.655
 7231POPC   NC323603  40.002   4.292   9.455
 7231POPC   PO423604  39.974   4.350   9.155
 7231POPC   GL123605  40.010   4.332   8.855
 7231POPC   GL223606  39.950   4.398   8.855
 7231POPC   C1A23607  39.996   4.277   8.555
 7231POPC   D2A23608  39.958   4.357   8.255
 7231POPC   C3A23609  40.028   4.316   7.955
 7231POPC   C4A23610  39.970   4.337   7.655
 7231POPC   C1B23611  39.946   4.601   8.555
 7231POPC   C2B23612  39.956   4.601   8.255
 7231POPC   C3B23613  39.938   4.603   7.955
 7231POPC   C4B23614  39.962   4.592   7.655
 7232POPC   NC323615  18.309   5.127   9.455
 7232POPC   PO423616  18.320   5.092   9.155
 7232POPC   GL123617  18.303   5.120   8.855
 7232POPC   GL223618  18.351   4.939   8.855
 7232POPC   C1A23619  18.259   5.102   8.555
 7232POPC   D2A23620  18.238   5.104   8.255
 7232POPC   C3A23621  18.241   5.116   7.955
 7232POPC   C4A23622  18.244   5.096   7.655
 7232POPC   C1B23623  18.368   4.877   8.555
 7232POPC   C2B23624  18.371   4.860   8.255
 7232POPC   C3B23625  18.381   4.885   7.955
 7232POPC   C4B23626  18.430   4.922   7.655
 7233POPC   NC323627   1.168  22.962   9.455
 7233POPC   PO423628   1.214  22.947   9.155
 7233POPC   GL123629   1.234  22.935   8.855
 7233POPC   GL223630   1.146  22.833   8.855
 7233POPC   C1A23631   1.256  22.918   8.555
 7233POPC   D2A23632   1.181  22.974   8.255
 7233POPC   C3A23633   1.231  22.984   7.955
 7233POPC   C4A23634   1.192  22.920   7.655
 7233POPC   C1B23635   1.147  22.738   8.555
 7233POPC   C2B23636   1.160  22.690   8.255
 7233POPC   C3B23637   1.155  22.676   7.955
 7233POPC   C4B23638   1.193  22.737   7.655
 7234POPC   NC323639  23.676  42.348   9.455
 7234POPC   PO423640  23.763  42.343   9.155
 7234POPC   GL123641  23.684  42.345   8.855
 7234POPC   GL223642  23.735  42.500   8.855
 7234POPC   C1A23643  23.687  42.295   8.555
 7234POPC   D2A23644  23.762  42.323   8.255
 7234POPC   C3A23645  23.700  42.318   7.955
 7234POPC   C4A23646  23.691  42.326   7.655
 7234POPC   C1B23647  23.654  42.543   8.555
 7234POPC   C2B23648  23.687  42.617   8.255
 7234POPC   C3B23649  23.710  42.625   7.955
 7234POPC   C4B23650  23.649  42.623   7.655
 7235POPC   NC323651  39.278  23.707   9.455
 7235POPC   PO423652  39.181  23.748   9.155
 7235POPC   GL123653  39.274  23.691   8.855
 7235POPC   GL223654  39.264  23.574   8.855
 7235POPC   C1A23655  39.266  23.728   8.555
 7235POPC   D2A23656  39.203  23.700   8.255
 7235POPC   C3A23657  39.200  23.719   7.955
 7235POPC   C4A23658  39.263  23.760   7.655
 7235POPC   C1B23659  39.233  23.477   8.555
 7235POPC   C2B23660  39.229  23.430   8.255
 7235POPC   C3B23661  39.244  23.490   7.955
 7235POPC   C4B23662  39.204  23.504   7.655
 7236POPC   NC323663  36.142   5.876   9.455
 7236POPC   PO423664  36.125   5.825   9.155
 7236POPC   GL123665  36.121   5.829   8.855
 7236POPC   GL223666  36.041   5.942   8.855
 7236POPC   C1A23667  36.129   5.890   8.555
 7236POPC   D2A23668  36.129   5.890   8.255
 7236POPC   C3A23669  36.158   5.901   7.955
 7236POPC   C4A23670  36.107   5.844   7.655
 7236POPC   C1B23671  35.946   6.021   8.555
 7236POPC   C2B23672  35.941   5.996   8.255
 7236POPC   C3B23673  35.934   6.031   7.955
 7236POPC   C4B23674  35.888   6.008   7.655
 7237POPC   NC323675  22.195  13.643   9.455
 7237POPC   PO423676  22.205  13.641   9.155
 7237POPC   GL123677  22.203  13.619   8.855
 7237POPC   GL223678  22.228  13.715   8.855
 7237POPC   C1A23679  22.113  13.652   8.555
 7237POPC   D2A23680  22.146  13.616   8.255
 7237POPC   C3A23681  22.124  13.605   7.955
 7237POPC   C4A23682  22.127  13.668   7.655
 7237POPC   C1B23683  22.165  13.922   8.555
 7237POPC   C2B23684  22.216  13.877   8.255
 7237POPC   C3B23685  22.183  13.863   7.955
 7237POPC   C4B23686  22.207  13.842   7.655
 7238POPC   NC323687  42.332  24.455   9.455
 7238POPC   PO423688  42.292  24.504   9.155
 7238POPC   GL123689  42.285  24.536   8.855
 7238POPC   GL223690  42.245  24.465   8.855
 7238POPC   C1A23691  42.348  24.508   8.555
 7238POPC   D2A23692  42.379  24.527   8.255
 7238POPC   C3A23693  42.296  24.520   7.955
 7238POPC   C4A23694  42.316  24.458   7.655
 7238POPC   C1B23695  42.103  24.560   8.555
 7238POPC   C2B23696  42.081  24.498   8.255
 7238POPC   C3B23697  42.120  24.490   7.955
 7238POPC   C4B23698  42.071  24.490   7.655
 7239POPC   NC323699  34.554  29.874   9.455
 7239POPC   PO423700  34.625  29.961   9.155
 7239POPC   GL123701  34.581  29.946   8.855
 7239POPC   GL223702  34.620  29.849   8.855
 7239POPC   C1A23703  34.556  29.882   8.555
 7239POPC   D2A23704  34.581  29.916   8.255
 7239POPC   C3A23705  34.576  29.942   7.955
 7239POPC   C4A23706  34.562  29.900   7.655
 7239POPC   C1B23707  34.654  29.646   8.555
 7239POPC   C2B23708  34.638  29.712   8.255
 7239POPC   C3B23709  34.700  29.656   7.955
 7239POPC   C4B23710  34.640  29.664   7.655
 7240POPC   NC323711  42.333   5.054   9.455
 7240POPC   PO423712  42.316   5.124   9.155
 7240POPC   GL123713  42.307   5.114   8.855
 7240POPC   GL223714  42.204   4.986   8.855
 7240POPC   C1A23715  42.319   5.081   8.555
 7240POPC   D2A23716  42.367   5.075   8.255
 7240POPC   C3A23717  42.316   5.136   7.955
 7240POPC   C4A23718  42.334   5.132   7.655
 7240POPC   C1B23719  42.148   4.900   8.555
 7240POPC   C2B23720  42.135   4.995   8.255
 7240POPC   C3B23721  42.152   4.943   7.955
 7240POPC   C4B23722  42.178   4.927   7.655
 7241POPC   NC323723  29.898  43.104   9.455
 7241POPC   PO423724  29.955  43.159   9.155
 7241POPC   GL123725  29.950  43.105   8.855
 7241POPC   GL223726  30.086  43.145   8.855
 7241POPC   C1A23727  29.908  43.127   8.555
 7241POPC   D2A23728  29.955  43.136   8.255
 7241POPC   C3A23729  29.944  43.120   7.955
 7241POPC   C4A23730  29.941  43.090   7.655
 7241POPC   C1B23731  30.160  43.211   8.555
 7241POPC   C2B23732  30.196  43.176   8.255
 7241POPC   C3B23733  30.151  43.133   7.955
 7241POPC   C4B23734  30.132  43.148   7.655
 7242POPC   NC323735  43.126  17.534   9.455
 7242POPC   PO423736  43.143  17.553   9.155
 7242POPC   GL123737  43.097  17.514   8.855
 7242POPC   GL223738  43.248  17.564   8.855
 7242POPC   C1A23739  43.097  17.528   8.555
 7242POPC   D2A23740  43.109  17.532   8.255
 7242POPC   C3A23741  43.085  17.527   7.955
 7242POPC   C4A23742  43.092  17.523   7.655
 7242POPC   C1B23743  43.367  17.617   8.555
 7242POPC   C2B23744  43.337  17.619   8.255
 7242POPC   C3B23745  43.288  17.676   7.955
 7242POPC   C4B23746  43.336  17.622   7.655
 7243POPC   NC323747  40.767  27.632   9.455
 7243POPC   PO423748  40.803  27.584   9.155
 7243POPC   GL123749  40.767  27.636   8.855
 7243POPC   GL223750  40.779  27.711   8.855
 7243POPC   C1A23751  40.828  27.565   8.555
 7243POPC   D2A23752  40.770  27.613   8.255
 7243POPC   C3A23753  40.811  27.605   7.955
 7243POPC   C4A23754  40.751  27.598   7.655
 7243POPC   C1B23755  40.638  27.862   8.555
 7243POPC   C2B23756  40.675  27.803   8.255
 7243POPC   C3B23757  40.672  27.811   7.955
 7243POPC   C4B23758  40.668  27.807   7.655
 7244POPC   NC323759  26.795  24.440   9.455
 7244POPC   PO423760  26.779  24.518   9.155
 7244POPC   GL123761  26.806  24.449   8.855
 7244POPC   GL223762  26.761  24.344   8.855
 7244POPC   C1A23763  26.792  24.476   8.555
 7244POPC   D2A23764  26.778  24.513   8.255
 7244POPC   C3A23765  26.802  24.458   7.955
 7244POPC   C4A23766  26.859  24.539   7.655
 7244POPC   C1B23767  26.661  24.246   8.555
 7244POPC   C2B23768  26.724  24.254   8.255
 7244POPC   C3B23769  26.661  24.282   7.955
 7244POPC   C4B23770  26.706  24.263   7.655
 7245POPC   NC323771   8.971  39.251   9.455
 7245POPC   PO423772   8.950  39.265   9.155
 7245POPC   GL123773   8.955  39.182   8.855
 7245POPC   GL223774   9.105  39.195   8.855
 7245POPC   C1A23775   8.974  39.215   8.555
 7245POPC   D2A23776   8.983  39.263   8.255
 7245POPC   C3A23777   9.003  39.195   7.955
 7245POPC   C4A23778   9.014  39.197   7.655
 7245POPC   C1B23779   9.230  39.258   8.555
 7245POPC   C2B23780   9.261  39.165   8.255
 7245POPC   C3B23781   9.269  39.218   7.955
 7245POPC   C4B23782   9.245  39.170   7.655
 7246POPC   NC323783  23.667   3.548   9.455
 7246POPC   PO423784  23.760   3.524   9.155
 7246POPC   GL123785  23.697   3.560   8.855
 7246POPC   GL223786  23.642   3.492   8.855
 7246POPC   C1A23787  23.723   3.527   8.555
 7246POPC   D2A23788  23.689   3.509   8.255
 7246POPC   C3A23789  23.705   3.578   7.955
 7246POPC   C4A23790  23.723   3.585   7.655
 7246POPC   C1B23791  23.489   3.466   8.555
 7246POPC   C2B23792  23.467   3.488   8.255
 7246POPC   C3B23793  23.477   3.480   7.955
 7246POPC   C4B23794  23.484   3.430   7.655
 7247POPC   NC323795   5.113  30.669   9.455
 7247POPC   PO423796   5.050  30.648   9.155
 7247POPC   GL123797   5.066  30.739   8.855
 7247POPC   GL223798   5.053  30.838   8.855
 7247POPC   C1A23799   5.084  30.670   8.555
 7247POPC   D2A23800   5.107  30.660   8.255
 7247POPC   C3A23801   5.088  30.713   7.955
 7247POPC   C4A23802   5.114  30.714   7.655
 7247POPC   C1B23803   4.932  30.925   8.555
 7247POPC   C2B23804   4.989  30.872   8.255
 7247POPC   C3B23805   4.957  30.862   7.955
 7247POPC   C4B23806   4.946  30.895   7.655
 7248POPC   NC323807  21.375  34.540   9.455
 7248POPC   PO423808  21.357  34.607   9.155
 7248POPC   GL123809  21.391  34.573   8.855
 7248POPC   GL223810  21.341  34.487   8.855
 7248POPC   C1A23811  21.349  34.598   8.555
 7248POPC   D2A23812  21.436  34.565   8.255
 7248POPC   C3A23813  21.374  34.546   7.955
 7248POPC   C4A23814  21.360  34.584   7.655
 7248POPC   C1B23815  21.341  34.319   8.555
 7248POPC   C2B23816  21.373  34.368   8.255
 7248POPC   C3B23817  21.329  34.347   7.955
 7248POPC   C4B23818  21.302  34.328   7.655
 7249POPC   NC323819  22.946   8.927   9.455
 7249POPC   PO423820  22.926   9.008   9.155
 7249POPC   GL123821  22.982   8.957   8.855
 7249POPC   GL223822  22.888   9.079   8.855
 7249POPC   C1A23823  22.982   8.950   8.555
 7249POPC   D2A23824  22.963   8.984   8.255
 7249POPC   C3A23825  22.945   8.980   7.955
 7249POPC   C4A23826  22.899   8.982   7.655
 7249POPC   C1B23827  22.960   9.231   8.555
 7249POPC   C2B23828  22.928   9.255   8.255
 7249POPC   C3B23829  22.877   9.245   7.955
 7249POPC   C4B23830  22.912   9.198   7.655
 7250POPC   NC323831  19.075   2.016   9.455
 7250POPC   PO423832  19.020   1.991   9.155
 7250POPC   GL123833  19.102   1.987   8.855
 7250POPC   GL223834  19.140   2.100   8.855
 7250POPC   C1A23835  19.018   2.029   8.555
 7250POPC   D2A23836  19.090   2.025   8.255
 7250POPC   C3A23837  19.107   2.028   7.955
 7250POPC   C4A23838  19.067   1.990   7.655
 7250POPC   C1B23839  19.242   2.217   8.555
 7250POPC   C2B23840  19.257   2.131   8.255
 7250POPC   C3B23841  19.228   2.166   7.955
 7250POPC   C4B23842  19.270   2.135   7.655
 7251POPC   NC323843  29.961  11.251   9.455
 7251POPC   PO423844  29.961  11.319   9.155
 7251POPC   GL123845  29.872  11.280   8.855
 7251POPC   GL223846  29.817  11.205   8.855
 7251POPC   C1A23847  29.969  11.308   8.555
 7251POPC   D2A23848  29.957  11.274   8.255
 7251POPC   C3A23849  29.883  11.346   7.955
 7251POPC   C4A23850  29.877  11.326   7.655
 7251POPC   C1B23851  29.737  11.169   8.555
 7251POPC   C2B23852  29.740  11.179   8.255
 7251POPC   C3B23853  29.729  11.220   7.955
 7251POPC   C4B23854  29.733  11.174   7.655
 7252POPC   NC323855  43.840  14.437   9.455
 7252POPC   PO423856  43.916  14.399   9.155
 7252POPC   GL123857  43.840  14.365   8.855
 7252POPC   GL223858  43.797  14.350   8.855
 7252POPC   C1A23859  43.902  14.364   8.555
 7252POPC   D2A23860  43.901  14.435   8.255
 7252POPC   C3A23861  43.907  14.447   7.955
 7252POPC   C4A23862  43.870  14.367   7.655
 7252POPC   C1B23863  43.727  14.213   8.555
 7252POPC   C2B23864  43.763  14.215   8.255
 7252POPC   C3B23865  43.760  14.221   7.955
 7252POPC   C4B23866  43.731  14.169   7.655
 7253POPC   NC323867   2.036  34.612   9.455
 7253POPC   PO423868   1.966  34.604   9.155
 7253POPC   GL123869   1.977  34.608   8.855
 7253POPC   GL223870   1.947  34.442   8.855
 7253POPC   C1A23871   2.009  34.582   8.555
 7253POPC   D2A23872   1.987  34.577   8.255
 7253POPC   C3A23873   1.982  34.587   7.955
 7253POPC   C4A23874   1.996  34.600   7.655
 7253POPC   C1B23875   1.878  34.333   8.555
 7253POPC   C2B23876   1.806  34.346   8.255
 7253POPC   C3B23877   1.855  34.403   7.955
 7253POPC   C4B23878   1.861  34.398   7.655
 7254POPC   NC323879  22.934  28.377   9.455
 7254POPC   PO423880  22.960  28.400   9.155
 7254POPC   GL123881  22.949  28.333   8.855
 7254POPC   GL223882  23.007  28.455   8.855
 7254POPC   C1A23883  22.947  28.359   8.555
 7254POPC   D2A23884  22.937  28.395   8.255
 7254POPC   C3A23885  22.957  28.336   7.955
 7254POPC   C4A23886  22.912  28.373   7.655
 7254POPC   C1B23887  23.084  28.572   8.555
 7254POPC   C2B23888  23.117  28.574   8.255
 7254POPC   C3B23889  23.138  28.493   7.955
 7254POPC   C4B23890  23.117  28.521   7.655
 7255POPC   NC323891  11.251  37.715   9.455
 7255POPC   PO423892  11.295  37.707   9.155
 7255POPC   GL123893  11.319  37.686   8.855
 7255POPC   GL223894  11.400  37.624   8.855
 7255POPC   C1A23895  11.294  37.704   8.555
 7255POPC   D2A23896  11.284  37.677   8.255
 7255POPC   C3A23897  11.290  37.714   7.955
 7255POPC   C4A23898  11.333  37.666   7.655
 7255POPC   C1B23899  11.561  37.583   8.555
 7255POPC   C2B23900  11.578  37.615   8.255
 7255POPC   C3B23901  11.536  37.612   7.955
 7255POPC   C4B23902  11.505  37.612   7.655
 7256POPC   NC323903  33.007  40.748   9.455
 7256POPC   PO423904  33.020  40.788   9.155
 7256POPC   GL123905  33.000  40.822   8.855
 7256POPC   GL223906  32.934  40.823   8.855
 7256POPC   C1A23907  33.054  40.748   8.555
 7256POPC   D2A23908  33.022  40.733   8.255
 7256POPC   C3A23909  32.980  40.829   7.955
 7256POPC   C4A23910  33.060  40.807   7.655
 7256POPC   C1B23911  32.865  40.916   8.555
 7256POPC   C2B23912  32.805  40.931   8.255
 7256POPC   C3B23913  32.804  40.961   7.955
 7256POPC   C4B23914  32.865  40.914   7.655
 7257POPC   NC323915  10.501   9.699   9.455
 7257POPC   PO423916  10.531   9.773   9.155
 7257POPC   GL123917  10.539   9.732   8.855
 7257POPC   GL223918  10.512   9.848   8.855
 7257POPC   C1A23919  10.483   9.733   8.555
 7257POPC   D2A23920  10.569   9.790   8.255
 7257POPC   C3A23921  10.479   9.728   7.955
 7257POPC   C4A23922  10.532   9.700   7.655
 7257POPC   C1B23923  10.421   9.975   8.555
 7257POPC   C2B23924  10.398   9.978   8.255
 7257POPC   C3B23925  10.418  10.017   7.955
 7257POPC   C4B23926  10.404  10.019   7.655
 7258POPC   NC323927  36.935  19.082   9.455
 7258POPC   PO423928  36.870  19.062   9.155
 7258POPC   GL123929  36.915  19.065   8.855
 7258POPC   GL223930  36.853  18.982   8.855
 7258POPC   C1A23931  36.864  19.079   8.555
 7258POPC   D2A23932  36.868  19.094   8.255
 7258POPC   C3A23933  36.873  19.100   7.955
 7258POPC   C4A23934  36.943  19.102   7.655
 7258POPC   C1B23935  36.743  18.891   8.555
 7258POPC   C2B23936  36.796  18.793   8.255
 7258POPC   C3B23937  36.824  18.856   7.955
 7258POPC   C4B23938  36.801  18.883   7.655
 7259POPC   NC323939  33.843  43.861   9.455
 7259POPC   PO423940  33.806  43.891   9.155
 7259POPC   GL123941  33.797  43.878   8.855
 7259POPC   GL223942  33.822  44.017   8.855
 7259POPC   C1A23943  33.806  43.843   8.555
 7259POPC   D2A23944  33.805  43.923   8.255
 7259POPC   C3A23945  33.761  43.907   7.955
 7259POPC   C4A23946  33.802  43.865   7.655
 7259POPC   C1B23947  33.916  44.147   8.555
 7259POPC   C2B23948  33.920  44.114   8.255
 7259POPC   C3B23949  33.866  44.167   7.955
 7259POPC   C4B23950  33.834  44.164   7.655
 7260POPC   NC323951  34.583   2.039   9.455
 7260POPC   PO423952  34.595   2.008   9.155
 7260POPC   GL123953  34.562   2.012   8.855
 7260POPC   GL223954  34.629   1.886   8.855
 7260POPC   C1A23955  34.563   1.976   8.555
 7260POPC   D2A23956  34.599   2.001   8.255
 7260POPC   C3A23957  34.615   2.035   7.955
 7260POPC   C4A23958  34.543   2.007   7.655
 7260POPC   C1B23959  34.769   1.806   8.555
 7260POPC   C2B23960  34.714   1.831   8.255
 7260POPC   C3B23961  34.804   1.786   7.955
 7260POPC   C4B23962  34.767   1.860   7.655
 7261POPC   NC323963  11.348   2.746   9.455
 7261POPC   PO423964  11.268   2.759   9.155
 7261POPC   GL123965  11.293   2.774   8.855
 7261POPC   GL223966  11.223   2.760   8.855
 7261POPC   C1A23967  11.326   2.767   8.555
 7261POPC   D2A23968  11.304   2.767   8.255
 7261POPC   C3A23969  11.312   2.720   7.955
 7261POPC   C4A23970  11.262   2.786   7.655
 7261POPC   C1B23971  11.100   2.761   8.555
 7261POPC   C2B23972  11.019   2.849   8.255
 7261POPC   C3B23973  11.067   2.848   7.955
 7261POPC   C4B23974  11.044   2.812   7.655
 7262POPC   NC323975  34.619   6.678   9.455
 7262POPC   PO423976  34.557   6.617   9.155
 7262POPC   GL123977  34.614   6.607   8.855
 7262POPC   GL223978  34.517   6.607   8.855
 7262POPC   C1A23979  34.623   6.666   8.555
 7262POPC   D2A23980  34.548   6.635   8.255
 7262POPC   C3A23981  34.615   6.663   7.955
 7262POPC   C4A23982  34.528   6.598   7.655
 7262POPC   C1B23983  34.390   6.542   8.555
 7262POPC   C2B23984  34.400   6.515   8.255
 7262POPC   C3B23985  34.350   6.508   7.955
 7262POPC   C4B23986  34.322   6.558   7.655
 7263POPC   NC323987  11.312   9.000   9.455
 7263POPC   PO423988  11.326   8.963   9.155
 7263POPC   GL123989  11.276   9.018   8.855
 7263POPC   GL223990  11.274   9.139   8.855
 7263POPC   C1A23991  11.257   8.958   8.555
 7263POPC   D2A23992  11.345   8.956   8.255
 7263POPC   C3A23993  11.335   8.953   7.955
 7263POPC   C4A23994  11.331   8.977   7.655
 7263POPC   C1B23995  11.226   9.206   8.555
 7263POPC   C2B23996  11.250   9.203   8.255
 7263POPC   C3B23997  11.255   9.242   7.955
 7263POPC   C4B23998  11.250   9.235   7.655
 7264POPC   NC323999  13.603  34.539   9.455
 7264POPC   PO424000  13.627  34.592   9.155
 7264POPC   GL124001  13.593  34.527   8.855
 7264POPC   GL224002  13.527  34.681   8.855
 7264POPC   C1A24003  13.609  34.595   8.555
 7264POPC   D2A24004  13.664  34.622   8.255
 7264POPC   C3A24005  13.627  34.591   7.955
 7264POPC   C4A24006  13.646  34.621   7.655
 7264POPC   C1B24007  13.405  34.749   8.555
 7264POPC   C2B24008  13.394  34.716   8.255
 7264POPC   C3B24009  13.389  34.711   7.955
 7264POPC   C4B24010  13.407  34.743   7.655
 7265POPC   NC324011  15.166  43.925   9.455
 7265POPC   PO424012  15.199  43.935   9.155
 7265POPC   GL124013  15.221  43.861   8.855
 7265POPC   GL224014  15.149  44.044   8.855
 7265POPC   C1A24015  15.183  43.850   8.555
 7265POPC   D2A24016  15.149  43.851   8.255
 7265POPC   C3A24017  15.140  43.903   7.955
 7265POPC   C4A24018  15.175  43.885   7.655
 7265POPC   C1B24019  15.106  44.085   8.555
 7265POPC   C2B24020  15.076  44.084   8.255
 7265POPC   C3B24021  15.045  44.152   7.955
 7265POPC   C4B24022  15.116  44.078   7.655
 7266POPC   NC324023  24.535  39.242   9.455
 7266POPC   PO424024  24.521  39.216   9.155
 7266POPC   GL124025  24.497  39.259   8.855
 7266POPC   GL224026  24.551  39.184   8.855
 7266POPC   C1A24027  24.497  39.204   8.555
 7266POPC   D2A24028  24.523  39.253   8.255
 7266POPC   C3A24029  24.537  39.224   7.955
 7266POPC   C4A24030  24.442  39.215   7.655
 7266POPC   C1B24031  24.686  39.069   8.555
 7266POPC   C2B24032  24.711  39.044   8.255
 7266POPC   C3B24033  24.671  39.110   7.955
 7266POPC   C4B24034  24.664  39.118   7.655
 7267POPC   NC324035  38.464  31.487   9.455
 7267POPC   PO424036  38.485  31.460   9.155
 7267POPC   GL124037  38.500  31.491   8.855
 7267POPC   GL224038  38.290  31.527   8.855
 7267POPC   C1A24039  38.495  31.506   8.555
 7267POPC   D2A24040  38.486  31.521   8.255
 7267POPC   C3A24041  38.486  31.440   7.955
 7267POPC   C4A24042  38.455  31.480   7.655
 7267POPC   C1B24043  38.191  31.497   8.555
 7267POPC   C2B24044  38.222  31.523   8.255
 7267POPC   C3B24045  38.216  31.476   7.955
 7267POPC   C4B24046  38.246  31.505   7.655
 7268POPC   NC324047   8.191   1.247   9.455
 7268POPC   PO424048   8.214   1.262   9.155
 7268POPC   GL124049   8.185   1.257   8.855
 7268POPC   GL224050   8.172   1.296   8.855
 7268POPC   C1A24051   8.232   1.215   8.555
 7268POPC   D2A24052   8.178   1.174   8.255
 7268POPC   C3A24053   8.194   1.227   7.955
 7268POPC   C4A24054   8.199   1.216   7.655
 7268POPC   C1B24055   8.128   1.486   8.555
 7268POPC   C2B24056   8.127   1.451   8.255
 7268POPC   C3B24057   8.160   1.468   7.955
 7268POPC   C4B24058   8.134   1.477   7.655
 7269POPC   NC324059  41.598  15.920   9.455
 7269POPC   PO424060  41.557  15.980   9.155
 7269POPC   GL124061  41.533  15.947   8.855
 7269POPC   GL224062  41.484  15.920   8.855
 7269POPC   C1A24063  41.547  15.981   8.555
 7269POPC   D2A24064  41.547  15.947   8.255
 7269POPC   C3A24065  41.544  15.943   7.955
 7269POPC   C4A24066  41.550  15.914   7.655
 7269POPC   C1B24067  41.395  15.772   8.555
 7269POPC   C2B24068  41.319  15.813   8.255
 7269POPC   C3B24069  41.328  15.861   7.955
 7269POPC   C4B24070  41.364  15.859   7.655
 7270POPC   NC324071   1.191   1.972   9.455
 7270POPC   PO424072   1.251   2.018   9.155
 7270POPC   GL124073   1.245   2.037   8.855
 7270POPC   GL224074   1.262   2.066   8.855
 7270POPC   C1A24075   1.177   2.030   8.555
 7270POPC   D2A24076   1.208   1.981   8.255
 7270POPC   C3A24077   1.224   1.994   7.955
 7270POPC   C4A24078   1.260   1.964   7.655
 7270POPC   C1B24079   1.379   2.170   8.555
 7270POPC   C2B24080   1.374   2.208   8.255
 7270POPC   C3B24081   1.349   2.174   7.955
 7270POPC   C4B24082   1.362   2.150   7.655
 7271POPC   NC324083  10.513  11.344   9.455
 7271POPC   PO424084  10.481  11.333   9.155
 7271POPC   GL124085  10.516  11.336   8.855
 7271POPC   GL224086  10.663  11.321   8.855
 7271POPC   C1A24087  10.493  11.283   8.555
 7271POPC   D2A24088  10.553  11.301   8.255
 7271POPC   C3A24089  10.520  11.258   7.955
 7271POPC   C4A24090  10.513  11.264   7.655
 7271POPC   C1B24091  10.755  11.363   8.555
 7271POPC   C2B24092  10.804  11.370   8.255
 7271POPC   C3B24093  10.746  11.366   7.955
 7271POPC   C4B24094  10.725  11.391   7.655
 7272POPC   NC324095  26.800  22.971   9.455
 7272POPC   PO424096  26.811  22.891   9.155
 7272POPC   GL124097  26.810  22.893   8.855
 7272POPC   GL224098  26.847  22.873   8.855
 7272POPC   C1A24099  26.780  22.976   8.555
 7272POPC   D2A24100  26.813  22.895   8.255
 7272POPC   C3A24101  26.782  22.904   7.955
 7272POPC   C4A24102  26.811  22.944   7.655
 7272POPC   C1B24103  26.977  22.745   8.555
 7272POPC   C2B24104  26.979  22.757   8.255
 7272POPC   C3B24105  26.980  22.701   7.955
 7272POPC   C4B24106  26.927  22.730   7.655
 7273POPC   NC324107   3.506  32.224   9.455
 7273POPC   PO424108   3.574  32.246   9.155
 7273POPC   GL124109   3.566  32.292   8.855
 7273POPC   GL224110   3.459  32.210   8.855
 7273POPC   C1A24111   3.520  32.237   8.555
 7273POPC   D2A24112   3.590  32.280   8.255
 7273POPC   C3A24113   3.580  32.245   7.955
 7273POPC   C4A24114   3.521  32.295   7.655
 7273POPC   C1B24115   3.327  32.230   8.555
 7273POPC   C2B24116   3.246  32.295   8.255
 7273POPC   C3B24117   3.327  32.261   7.955
 7273POPC   C4B24118   3.316  32.241   7.655
 7274POPC   NC324119   5.063  17.460   9.455
 7274POPC   PO424120   5.138  17.536   9.155
 7274POPC   GL124121   5.105  17.487   8.855
 7274POPC   GL224122   5.183  17.485   8.855
 7274POPC   C1A24123   5.138  17.538   8.555
 7274POPC   D2A24124   5.121  17.528   8.255
 7274POPC   C3A24125   5.117  17.508   7.955
 7274POPC   C4A24126   5.136  17.471   7.655
 7274POPC   C1B24127   5.311  17.403   8.555
 7274POPC   C2B24128   5.347  17.406   8.255
 7274POPC   C3B24129   5.345  17.397   7.955
 7274POPC   C4B24130   5.272  17.354   7.655
 7275POPC   NC324131  15.144   5.088   9.455
 7275POPC   PO424132  15.213   5.109   9.155
 7275POPC   GL124133  15.206   5.125   8.855
 7275POPC   GL224134  15.058   5.030   8.855
 7275POPC   C1A24135  15.146   5.127   8.555
 7275POPC   D2A24136  15.174   5.097   8.255
 7275POPC   C3A24137  15.148   5.119   7.955
 7275POPC   C4A24138  15.206   5.107   7.655
 7275POPC   C1B24139  14.998   5.009   8.555
 7275POPC   C2B24140  14.996   5.016   8.255
 7275POPC   C3B24141  14.913   5.032   7.955
 7275POPC   C4B24142  14.960   5.027   7.655
 7276POPC   NC324143   1.215  36.148   9.455
 7276POPC   PO424144   1.244  36.113   9.155
 7276POPC   GL124145   1.175  36.080   8.855
 7276POPC   GL224146   1.132  36.202   8.855
 7276POPC   C1A24147   1.194  36.155   8.555
 7276POPC   D2A24148   1.181  36.144   8.255
 7276POPC   C3A24149   1.209  36.152   7.955
 7276POPC   C4A24150   1.264  36.081   7.655
 7276POPC   C1B24151   1.126  36.360   8.555
 7276POPC   C2B24152   1.111  36.393   8.255
 7276POPC   C3B24153   1.136  36.300   7.955
 7276POPC   C4B24154   1.115  36.385   7.655
 7277POPC   NC324155   0.487   2.004   9.455
 7277POPC   PO424156   0.474   1.999   9.155
 7277POPC   GL124157   0.420   1.986   8.855
 7277POPC   GL224158   0.317   2.110   8.855
 7277POPC   C1A24159   0.414   1.975   8.555
 7277POPC   D2A24160   0.459   1.976   8.255
 7277POPC   C3A24161   0.462   2.000   7.955
 7277POPC   C4A24162   0.424   2.005   7.655
 7277POPC   C1B24163   0.248   2.147   8.555
 7277POPC   C2B24164   0.315   2.126   8.255
 7277POPC   C3B24165   0.311   2.136   7.955
 7277POPC   C4B24166   0.263   2.181   7.655
 7278POPC   NC324167  32.199   7.417   9.455
 7278POPC   PO424168  32.285   7.387   9.155
 7278POPC   GL124169  32.295   7.432   8.855
 7278POPC   GL224170  32.252   7.503   8.855
 7278POPC   C1A24171  32.223   7.422   8.555
 7278POPC   D2A24172  32.217   7.417   8.255
 7278POPC   C3A24173  32.228   7.390   7.955
 7278POPC   C4A24174  32.287   7.433   7.655
 7278POPC   C1B24175  32.279   7.679   8.555
 7278POPC   C2B24176  32.217   7.634   8.255
 7278POPC   C3B24177  32.253   7.702   7.955
 7278POPC   C4B24178  32.254   7.709   7.655
 7279POPC   NC324179  15.219  13.628   9.455
 7279POPC   PO424180  15.154  13.608   9.155
 7279POPC   GL124181  15.154  13.651   8.855
 7279POPC   GL224182  15.304  13.664   8.855
 7279POPC   C1A24183  15.133  13.638   8.555
 7279POPC   D2A24184  15.204  13.588   8.255
 7279POPC   C3A24185  15.191  13.596   7.955
 7279POPC   C4A24186  15.206  13.588   7.655
 7279POPC   C1B24187  15.369  13.808   8.555
 7279POPC   C2B24188  15.418  13.774   8.255
 7279POPC   C3B24189  15.412  13.753   7.955
 7279POPC   C4B24190  15.351  13.791   7.655
 7280POPC   NC324191  26.000   7.388   9.455
 7280POPC   PO424192  26.041   7.394   9.155
 7280POPC   GL124193  26.019   7.409   8.855
 7280POPC   GL224194  25.965   7.551   8.855
 7280POPC   C1A24195  26.041   7.436   8.555
 7280POPC   D2A24196  26.091   7.430   8.255
 7280POPC   C3A24197  26.087   7.378   7.955
 7280POPC   C4A24198  26.003   7.451   7.655
 7280POPC   C1B24199  25.938   7.678   8.555
 7280POPC   C2B24200  25.963   7.612   8.255
 7280POPC   C3B24201  25.990   7.664   7.955
 7280POPC   C4B24202  25.955   7.685   7.655
 7281POPC   NC324203  44.712  21.368   9.455
 7281POPC   PO424204  44.652  21.369   9.155
 7281POPC   GL124205  44.633  21.402   8.855
 7281POPC   GL224206  44.803  21.359   8.855
 7281POPC   C1A24207  44.628  21.353   8.555
 7281POPC   D2A24208  44.629  21.410   8.255
 7281POPC   C3A24209  44.646  21.350   7.955
 7281POPC   C4A24210  44.702  21.393   7.655
 7281POPC   C1B24211  44.898  21.233   8.555
 7281POPC   C2B24212  44.911  21.280   8.255
 7281POPC   C3B24213  44.896  21.240   7.955
 7281POPC   C4B24214  44.869  21.254   7.655
 7282POPC   NC324215  26.833   8.953   9.455
 7282POPC   PO424216  26.855   8.994   9.155
 7282POPC   GL124217  26.785   9.007   8.855
 7282POPC   GL224218  26.769   8.858   8.855
 7282POPC   C1A24219  26.813   8.926   8.555
 7282POPC   D2A24220  26.844   8.958   8.255
 7282POPC   C3A24221  26.823   8.945   7.955
 7282POPC   C4A24222  26.865   8.967   7.655
 7282POPC   C1B24223  26.746   8.700   8.555
 7282POPC   C2B24224  26.817   8.772   8.255
 7282POPC   C3B24225  26.785   8.748   7.955
 7282POPC   C4B24226  26.824   8.726   7.655
 7283POPC   NC324227  18.282  29.141   9.455
 7283POPC   PO424228  18.280  29.176   9.155
 7283POPC   GL124229  18.278  29.124   8.855
 7283POPC   GL224230  18.131  29.217   8.855
 7283POPC   C1A24231  18.252  29.165   8.555
 7283POPC   D2A24232  18.331  29.129   8.255
 7283POPC   C3A24233  18.303  29.113   7.955
 7283POPC   C4A24234  18.242  29.118   7.655
 7283POPC   C1B24235  18.007  29.202   8.555
 7283POPC   C2B24236  18.043  29.206   8.255
 7283POPC   C3B24237  17.996  29.225   7.955
 7283POPC   C4B24238  18.083  29.231   7.655
 7284POPC   NC324239   8.951  33.811   9.455
 7284POPC   PO424240   8.951  33.847   9.155
 7284POPC   GL124241   8.969  33.815   8.855
 7284POPC   GL224242   8.855  33.871   8.855
 7284POPC   C1A24243   8.994  33.775   8.555
 7284POPC   D2A24244   8.929  33.799   8.255
 7284POPC   C3A24245   8.927  33.793   7.955
 7284POPC   C4A24246   8.930  33.841   7.655
 7284POPC   C1B24247   8.816  33.964   8.555
 7284POPC   C2B24248   8.770  33.997   8.255
 7284POPC   C3B24249   8.755  33.956   7.955
 7284POPC   C4B24250   8.757  34.023   7.655
 7285POPC   NC324251   4.333  40.748   9.455
 7285POPC   PO424252   4.290  40.742   9.155
 7285POPC   GL124253   4.340  40.811   8.855
 7285POPC   GL224254   4.440  40.733   8.855
 7285POPC   C1A24255   4.324  40.814   8.555
 7285POPC   D2A24256   4.353  40.775   8.255
 7285POPC   C3A24257   4.362  40.755   7.955
 7285POPC   C4A24258   4.307  40.759   7.655
 7285POPC   C1B24259   4.525  40.723   8.555
 7285POPC   C2B24260   4.551  40.647   8.255
 7285POPC   C3B24261   4.552  40.740   7.955
 7285POPC   C4B24262   4.534  40.673   7.655
 7286POPC   NC324263  44.657  27.569   9.455
 7286POPC   PO424264  44.684  27.604   9.155
 7286POPC   GL124265  44.626  27.549   8.855
 7286POPC   GL224266  44.796  27.475   8.855
 7286POPC   C1A24267  44.656  27.556   8.555
 7286POPC   D2A24268  44.679  27.633   8.255
 7286POPC   C3A24269  44.682  27.627   7.955
 7286POPC   C4A24270  44.615  27.624   7.655
 7286POPC   C1B24271  44.819  27.421   8.555
 7286POPC   C2B24272  44.856  27.437   8.255
 7286POPC   C3B24273  44.826  27.472   7.955
 7286POPC   C4B24274  44.862  27.443   7.655
 7287POPC   NC324275  25.301  11.260   9.455
 7287POPC   PO424276  25.310  11.301   9.155
 7287POPC   GL124277  25.222  11.259   8.855
 7287POPC   GL224278  25.134  11.332   8.855
 7287POPC   C1A24279  25.232  11.274   8.555
 7287POPC   D2A24280  25.307  11.342   8.255
 7287POPC   C3A24281  25.236  11.335   7.955
 7287POPC   C4A24282  25.257  11.287   7.655
 7287POPC   C1B24283  24.993  11.372   8.555
 7287POPC   C2B24284  25.068  11.346   8.255
 7287POPC   C3B24285  25.001  11.321   7.955
 7287POPC   C4B24286  25.022  11.365   7.655
 7288POPC   NC324287  26.809  41.601   9.455
 7288POPC   PO424288  26.803  41.550   9.155
 7288POPC   GL124289  26.845  41.532   8.855
 7288POPC   GL224290  26.923  41.466   8.855
 7288POPC   C1A24291  26.838  41.598   8.555
 7288POPC   D2A24292  26.770  41.548   8.255
 7288POPC   C3A24293  26.813  41.606   7.955
 7288POPC   C4A24294  26.863  41.567   7.655
 7288POPC   C1B24295  26.958  41.390   8.555
 7288POPC   C2B24296  26.903  41.340   8.255
 7288POPC   C3B24297  26.916  41.311   7.955
 7288POPC   C4B24298  27.000  41.311   7.655
 7289POPC   NC324299  12.826  43.151   9.455
 7289POPC   PO424300  12.813  43.113   9.155
 7289POPC   GL124301  12.884  43.063   8.855
 7289POPC   GL224302  12.864  43.240   8.855
 7289POPC   C1A24303  12.843  43.109   8.555
 7289POPC   D2A24304  12.842  43.070   8.255
 7289POPC   C3A24305  12.875  43.135   7.955
 7289POPC   C4A24306  12.866  43.115   7.655
 7289POPC   C1B24307  12.795  43.354   8.555
 7289POPC   C2B24308  12.777  43.374   8.255
 7289POPC   C3B24309  12.806  43.350   7.955
 7289POPC   C4B24310  12.818  43.405   7.655
 7290POPC   NC324311   4.355  44.613   9.455
 7290POPC   PO424312   4.313  44.634   9.155
 7290POPC   GL124313   4.342  44.615   8.855
 7290POPC   GL224314   4.453  44.594   8.855
 7290POPC   C1A24315   4.360  44.704   8.555
 7290POPC   D2A24316   4.294  44.633   8.255
 7290POPC   C3A24317   4.351  44.613   7.955
 7290POPC   C4A24318   4.309  44.688   7.655
 7290POPC   C1B24319   4.521  44.493   8.555
 7290POPC   C2B24320   4.576  44.523   8.255
 7290POPC   C3B24321   4.485  44.567   7.955
 7290POPC   C4B24322   4.569  44.570   7.655
 7291POPC   NC324323  25.252  31.500   9.455
 7291POPC   PO424324  25.312  31.427   9.155
 7291POPC   GL124325  25.282  31.424   8.855
 7291POPC   GL224326  25.168  31.595   8.855
 7291POPC   C1A24327  25.294  31.438   8.555
 7291POPC   D2A24328  25.278  31.519   8.255
 7291POPC   C3A24329  25.223  31.462   7.955
 7291POPC   C4A24330  25.228  31.459   7.655
 7291POPC   C1B24331  25.024  31.603   8.555
 7291POPC   C2B24332  25.068  31.605   8.255
 7291POPC   C3B24333  25.085  31.646   7.955
 7291POPC   C4B24334  25.019  31.609   7.655
 7292POPC   NC324335  44.679   1.987   9.455
 7292POPC   PO424336  44.650   2.039   9.155
 7292POPC   GL124337  44.653   2.039   8.855
 7292POPC   GL224338  44.620   1.881   8.855
 7292POPC   C1A24339  44.679   1.948   8.555
 7292POPC   D2A24340  44.641   1.990   8.255
 7292POPC   C3A24341  44.674   1.998   7.955
 7292POPC   C4A24342  44.641   1.949   7.655
 7292POPC   C1B24343  44.485   1.815   8.555
 7292POPC   C2B24344  44.515   1.773   8.255
 7292POPC   C3B24345  44.578   1.824   7.955
 7292POPC   C4B24346  44.534   1.820   7.655
 7293POPC   NC324347   0.444  40.821   9.455
 7293POPC   PO424348   0.395  40.754   9.155
 7293POPC   GL124349   0.400  40.810   8.855
 7293POPC   GL224350   0.390  40.944   8.855
 7293POPC   C1A24351   0.401  40.781   8.555
 7293POPC   D2A24352   0.421  40.751   8.255
 7293POPC   C3A24353   0.461  40.740   7.955
 7293POPC   C4A24354   0.445  40.801   7.655
 7293POPC   C1B24355   0.369  41.013   8.555
 7293POPC   C2B24356   0.371  41.060   8.255
 7293POPC   C3B24357   0.343  41.052   7.955
 7293POPC   C4B24358   0.388  41.003   7.655
 7294POPC   NC324359  36.878  24.464   9.455
 7294POPC   PO424360  36.903  24.490   9.155
 7294POPC   GL124361  36.916  24.470   8.855
 7294POPC   GL224362  36.917  24.354   8.855
 7294POPC   C1A24363  36.928  24.440   8.555
 7294POPC   D2A24364  36.871  24.524   8.255
 7294POPC   C3A24365  36.925  24.519   7.955
 7294POPC   C4A24366  36.872  24.446   7.655
 7294POPC   C1B24367  36.960  24.283   8.555
 7294POPC   C2B24368  37.034  24.219   8.255
 7294POPC   C3B24369  36.994  24.232   7.955
 7294POPC   C4B24370  37.048  24.260   7.655
 7295POPC   NC324371  22.129   1.242   9.455
 7295POPC   PO424372  22.114   1.243   9.155
 7295POPC   GL124373  22.197   1.197   8.855
 7295POPC   GL224374  22.079   1.295   8.855
 7295POPC   C1A24375  22.145   1.173   8.555
 7295POPC   D2A24376  22.149   1.248   8.255
 7295POPC   C3A24377  22.145   1.181   7.955
 7295POPC   C4A24378  22.193   1.194   7.655
 7295POPC   C1B24379  22.062   1.422   8.555
 7295POPC   C2B24380  22.065   1.440   8.255
 7295POPC   C3B24381  22.103   1.415   7.955
 7295POPC   C4B24382  22.119   1.482   7.655
 7296POPC   NC324383  30.674  10.545   9.455
 7296POPC   PO424384  30.745  10.518   9.155
 7296POPC   GL124385  30.728  10.515   8.855
 7296POPC   GL224386  30.810  10.565   8.855
 7296POPC   C1A24387  30.716  10.486   8.555
 7296POPC   D2A24388  30.674  10.481   8.255
 7296POPC   C3A24389  30.693  10.508   7.955
 7296POPC   C4A24390  30.701  10.564   7.655
 7296POPC   C1B24391  30.919  10.503   8.555
 7296POPC   C2B24392  30.967  10.546   8.255
 7296POPC   C3B24393  30.959  10.505   7.955
 7296POPC   C4B24394  30.949  10.539   7.655
 7297POPC   NC324395  19.041  32.265   9.455
 7297POPC   PO424396  19.016  32.227   9.155
 7297POPC   GL124397  19.063  32.212   8.855
 7297POPC   GL224398  19.150  32.290   8.855
 7297POPC   C1A24399  19.036  32.297   8.555
 7297POPC   D2A24400  19.061  32.214   8.255
 7297POPC   C3A24401  19.105  32.245   7.955
 7297POPC   C4A24402  19.059  32.206   7.655
 7297POPC   C1B24403  19.319  32.316   8.555
 7297POPC   C2B24404  19.272  32.325   8.255
 7297POPC   C3B24405  19.332  32.327   7.955
 7297POPC   C4B24406  19.338  32.312   7.655
 7298POPC   NC324407  42.357  31.500   9.455
 7298POPC   PO424408  42.366  31.455   9.155
 7298POPC   GL124409  42.331  31.471   8.855
 7298POPC   GL224410  42.289  31.555   8.855
 7298POPC   C1A24411  42.319  31.437   8.555
 7298POPC   D2A24412  42.320  31.469   8.255
 7298POPC   C3A24413  42.379  31.518   7.955
 7298POPC   C4A24414  42.287  31.432   7.655
 7298POPC   C1B24415  42.350  31.689   8.555
 7298POPC   C2B24416  42.321  31.772   8.255
 7298POPC   C3B24417  42.303  31.681   7.955
 7298POPC   C4B24418  42.307  31.681   7.655
 7299POPC   NC324419  30.668   8.942   9.455
 7299POPC   PO424420  30.658   8.977   9.155
 7299POPC   GL124421  30.676   8.989   8.855
 7299POPC   GL224422  30.845   8.936   8.855
 7299POPC   C1A24423  30.654   8.996   8.555
 7299POPC   D2A24424  30.706   8.936   8.255
 7299POPC   C3A24425  30.715   8.939   7.955
 7299POPC   C4A24426  30.721   8.990   7.655
 7299POPC   C1B24427  30.995   8.953   8.555
 7299POPC   C2B24428  30.948   8.965   8.255
 7299POPC   C3B24429  30.924   9.024   7.955
 7299POPC   C4B24430  30.989   8.983   7.655
 7300POPC   NC324431  24.499  26.079   9.455
 7300POPC   PO424432  24.470  26.046   9.155
 7300POPC   GL124433  24.477  26.033   8.855
 7300POPC   GL224434  24.324  26.101   8.855
 7300POPC   C1A24435  24.476  26.016   8.555
 7300POPC   D2A24436  24.495  26.014   8.255
 7300POPC   C3A24437  24.505  26.043   7.955
 7300POPC   C4A24438  24.499  26.052   7.655
 7300POPC   C1B24439  24.290  26.046   8.555
 7300POPC   C2B24440  24.243  26.076   8.255
 7300POPC   C3B24441  24.256  26.034   7.955
 7300POPC   C4B24442  24.199  26.034   7.655
 7301POPC   NC324443   9.769  34.565   9.455
 7301POPC   PO424444   9.706  34.601   9.155
 7301POPC   GL124445   9.770  34.527   8.855
 7301POPC   GL224446   9.676  34.716   8.855
 7301POPC   C1A24447   9.796  34.616   8.555
 7301POPC   D2A24448   9.700  34.612   8.255
 7301POPC   C3A24449   9.792  34.594   7.955
 7301POPC   C4A24450   9.725  34.569   7.655
 7301POPC   C1B24451   9.697  34.781   8.555
 7301POPC   C2B24452   9.696  34.818   8.255
 7301POPC   C3B24453   9.671  34.836   7.955
 7301POPC   C4B24454   9.650  34.843   7.655
 7302POPC   NC324455   1.225  18.300   9.455
 7302POPC   PO424456   1.201  18.271   9.155
 7302POPC   GL124457   1.177  18.326   8.855
 7302POPC   GL224458   1.070  18.229   8.855
 7302POPC   C1A24459   1.176  18.264   8.555
 7302POPC   D2A24460   1.171  18.236   8.255
 7302POPC   C3A24461   1.248  18.307   7.955
 7302POPC   C4A24462   1.241  18.279   7.655
 7302POPC   C1B24463   1.008  18.194   8.555
 7302POPC   C2B24464   1.025  18.136   8.255
 7302POPC   C3B24465   0.987  18.145   7.955
 7302POPC   C4B24466   0.991  18.207   7.655
 7303POPC   NC324467  43.141  43.100   9.455
 7303POPC   PO424468  43.085  43.136   9.155
 7303POPC   GL124469  43.110  43.105   8.855
 7303POPC   GL224470  43.266  43.121   8.855
 7303POPC   C1A24471  43.111  43.125   8.555
 7303POPC   D2A24472  43.086  43.138   8.255
 7303POPC   C3A24473  43.152  43.076   7.955
 7303POPC   C4A24474  43.084  43.125   7.655
 7303POPC   C1B24475  43.316  43.038   8.555
 7303POPC   C2B24476  43.309  42.992   8.255
 7303POPC   C3B24477  43.348  42.990   7.955
 7303POPC   C4B24478  43.389  43.046   7.655
 7304POPC   NC324479  34.619   2.786   9.455
 7304POPC   PO424480  34.547   2.734   9.155
 7304POPC   GL124481  34.573   2.716   8.855
 7304POPC   GL224482  34.704   2.682   8.855
 7304POPC   C1A24483  34.527   2.748   8.555
 7304POPC   D2A24484  34.554   2.809   8.255
 7304POPC   C3A24485  34.612   2.756   7.955
 7304POPC   C4A24486  34.532   2.745   7.655
 7304POPC   C1B24487  34.766   2.680   8.555
 7304POPC   C2B24488  34.830   2.651   8.255
 7304POPC   C3B24489  34.839   2.633   7.955
 7304POPC   C4B24490  34.840   2.598   7.655
 7305POPC   NC324491  12.047  12.085   9.455
 7305POPC   PO424492  12.093  12.099   9.155
 7305POPC   GL124493  12.083  12.040   8.855
 7305POPC   GL224494  11.945  12.167   8.855
 7305POPC   C1A24495  12.081  12.092   8.555
 7305POPC   D2A24496  12.061  12.062   8.255
 7305POPC   C3A24497  12.117  12.088   7.955
 7305POPC   C4A24498  12.102  12.080   7.655
 7305POPC   C1B24499  11.809  12.171   8.555
 7305POPC   C2B24500  11.872  12.209   8.255
 7305POPC   C3B24501  11.884  12.128   7.955
 7305POPC   C4B24502  11.819  12.145   7.655
 7306POPC   NC324503   9.013  41.590   9.455
 7306POPC   PO424504   8.958  41.571   9.155
 7306POPC   GL124505   9.005  41.519   8.855
 7306POPC   GL224506   8.950  41.673   8.855
 7306POPC   C1A24507   8.968  41.541   8.555
 7306POPC   D2A24508   9.013  41.557   8.255
 7306POPC   C3A24509   9.015  41.518   7.955
 7306POPC   C4A24510   9.011  41.509   7.655
 7306POPC   C1B24511   8.896  41.785   8.555
 7306POPC   C2B24512   8.853  41.811   8.255
 7306POPC   C3B24513   8.923  41.785   7.955
 7306POPC   C4B24514   8.925  41.838   7.655
 7307POPC   NC324515  25.218  28.389   9.455
 7307POPC   PO424516  25.299  28.349   9.155
 7307POPC   GL124517  25.272  28.418   8.855
 7307POPC   GL224518  25.349  28.481   8.855
 7307POPC   C1A24519  25.270  28.321   8.555
 7307POPC   D2A24520  25.251  28.354   8.255
 7307POPC   C3A24521  25.282  28.386   7.955
 7307POPC   C4A24522  25.238  28.407   7.655
 7307POPC   C1B24523  25.318  28.599   8.555
 7307POPC   C2B24524  25.372  28.559   8.255
 7307POPC   C3B24525  25.348  28.619   7.955
 7307POPC   C4B24526  25.358  28.580   7.655
 7308POPC   NC324527  18.311   2.748   9.455
 7308POPC   PO424528  18.284   2.802   9.155
 7308POPC   GL124529  18.248   2.797   8.855
 7308POPC   GL224530  18.211   2.699   8.855
 7308POPC   C1A24531  18.233   2.785   8.555
 7308POPC   D2A24532  18.327   2.777   8.255
 7308POPC   C3A24533  18.310   2.812   7.955
 7308POPC   C4A24534  18.252   2.725   7.655
 7308POPC   C1B24535  18.085   2.741   8.555
 7308POPC   C2B24536  18.011   2.668   8.255
 7308POPC   C3B24537  18.034   2.665   7.955
 7308POPC   C4B24538  18.054   2.701   7.655
 7309POPC   NC324539  30.677   8.231   9.455
 7309POPC   PO424540  30.722   8.221   9.155
 7309POPC   GL124541  30.742   8.225   8.855
 7309POPC   GL224542  30.619   8.220   8.855
 7309POPC   C1A24543  30.744   8.244   8.555
 7309POPC   D2A24544  30.717   8.197   8.255
 7309POPC   C3A24545  30.668   8.242   7.955
 7309POPC   C4A24546  30.706   8.230   7.655
 7309POPC   C1B24547  30.453   8.265   8.555
 7309POPC   C2B24548  30.471   8.197   8.255
 7309POPC   C3B24549  30.482   8.234   7.955
 7309POPC   C4B24550  30.447   8.227   7.655
 7310POPC   NC324551  11.321   1.974   9.455
 7310POPC   PO424552  11.279   2.033   9.155
 7310POPC   GL124553  11.340   1.974   8.855
 7310POPC   GL224554  11.211   1.988   8.855
 7310POPC   C1A24555  11.267   2.006   8.555
 7310POPC   D2A24556  11.262   2.006   8.255
 7310POPC   C3A24557  11.324   2.001   7.955
 7310POPC   C4A24558  11.272   1.986   7.655
 7310POPC   C1B24559  11.031   2.043   8.555
 7310POPC   C2B24560  11.041   1.984   8.255
 7310POPC   C3B24561  11.091   2.001   7.955
 7310POPC   C4B24562  11.068   1.984   7.655
 7311POPC   NC324563  11.348  41.575   9.455
 7311POPC   PO424564  11.279  41.527   9.155
 7311POPC   GL124565  11.253  41.550   8.855
 7311POPC   GL224566  11.458  41.530   8.855
 7311POPC   C1A24567  11.299  41.548   8.555
 7311POPC   D2A24568  11.311  41.517   8.255
 7311POPC   C3A24569  11.265  41.561   7.955
 7311POPC   C4A24570  11.290  41.538   7.655
 7311POPC   C1B24571  11.540  41.521   8.555
 7311POPC   C2B24572  11.569  41.534   8.255
 7311POPC   C3B24573  11.555  41.526   7.955
 7311POPC   C4B24574  11.521  41.508   7.655
 7312POPC   NC324575  33.028   2.802   9.455
 7312POPC   PO424576  33.051   2.737   9.155
 7312POPC   GL124577  33.031   2.772   8.855
 7312POPC   GL224578  32.945   2.840   8.855
 7312POPC   C1A24579  33.048   2.738   8.555
 7312POPC   D2A24580  33.016   2.810   8.255
 7312POPC   C3A24581  33.048   2.739   7.955
 7312POPC   C4A24582  33.023   2.798   7.655
 7312POPC   C1B24583  32.954   3.022   8.555
 7312POPC   C2B24584  32.878   2.946   8.255
 7312POPC   C3B24585  32.913   3.014   7.955
 7312POPC   C4B24586  32.955   2.951   7.655
 7313POPC   NC324587  36.910  37.630   9.455
 7313POPC   PO424588  36.935  37.727   9.155
 7313POPC   GL124589  36.919  37.690   8.855
 7313POPC   GL224590  36.813  37.664   8.855
 7313POPC   C1A24591  36.898  37.681   8.555
 7313POPC   D2A24592  36.881  37.696   8.255
 7313POPC   C3A24593  36.874  37.668   7.955
 7313POPC   C4A24594  36.937  37.727   7.655
 7313POPC   C1B24595  36.679  37.608   8.555
 7313POPC   C2B24596  36.716  37.596   8.255
 7313POPC   C3B24597  36.651  37.570   7.955
 7313POPC   C4B24598  36.706  37.573   7.655
 7314POPC   NC324599   7.385  33.065   9.455
 7314POPC   PO424600   7.453  33.008   9.155
 7314POPC   GL124601   7.409  33.002   8.855
 7314POPC   GL224602   7.449  33.151   8.855
 7314POPC   C1A24603   7.430  33.020   8.555
 7314POPC   D2A24604   7.406  33.018   8.255
 7314POPC   C3A24605   7.405  33.029   7.955
 7314POPC   C4A24606   7.415  33.055   7.655
 7314POPC   C1B24607   7.470  33.303   8.555
 7314POPC   C2B24608   7.410  33.246   8.255
 7314POPC   C3B24609   7.505  33.236   7.955
 7314POPC   C4B24610   7.459  33.223   7.655
 7315POPC   NC324611  16.003  22.188   9.455
 7315POPC   PO424612  15.926  22.142   9.155
 7315POPC   GL124613  15.931  22.152   8.855
 7315POPC   GL224614  16.009  22.274   8.855
 7315POPC   C1A24615  15.994  22.118   8.555
 7315POPC   D2A24616  15.983  22.158   8.255
 7315POPC   C3A24617  15.988  22.169   7.955
 7315POPC   C4A24618  15.938  22.112   7.655
 7315POPC   C1B24619  15.977  22.354   8.555
 7315POPC   C2B24620  15.998  22.374   8.255
 7315POPC   C3B24621  15.985  22.403   7.955
 7315POPC   C4B24622  15.977  22.442   7.655
 7316POPC   NC324623  19.822  32.999   9.455
 7316POPC   PO424624  19.808  32.990   9.155
 7316POPC   GL124625  19.808  32.981   8.855
 7316POPC   GL224626  19.890  33.084   8.855
 7316POPC   C1A24627  19.819  32.981   8.555
 7316POPC   D2A24628  19.816  32.982   8.255
 7316POPC   C3A24629  19.792  32.979   7.955
 7316POPC   C4A24630  19.822  32.995   7.655
 7316POPC   C1B24631  19.968  33.164   8.555
 7316POPC   C2B24632  20.002  33.195   8.255
 7316POPC   C3B24633  20.016  33.198   7.955
 7316POPC   C4B24634  20.048  33.203   7.655
 7317POPC   NC324635  43.118  15.196   9.455
 7317POPC   PO424636  43.104  15.222   9.155
 7317POPC   GL124637  43.076  15.166   8.855
 7317POPC   GL224638  43.123  15.059   8.855
 7317POPC   C1A24639  43.099  15.174   8.555
 7317POPC   D2A24640  43.071  15.152   8.255
 7317POPC   C3A24641  43.087  15.203   7.955
 7317POPC   C4A24642  43.147  15.178   7.655
 7317POPC   C1B24643  43.072  14.915   8.555
 7317POPC   C2B24644  43.125  14.928   8.255
 7317POPC   C3B24645  43.067  14.908   7.955
 7317POPC   C4B24646  43.073  14.900   7.655
 7318POPC   NC324647   2.815  43.063   9.455
 7318POPC   PO424648   2.801  43.134   9.155
 7318POPC   GL124649   2.794  43.101   8.855
 7318POPC   GL224650   2.752  43.282   8.855
 7318POPC   C1A24651   2.716  43.109   8.555
 7318POPC   D2A24652   2.751  43.109   8.255
 7318POPC   C3A24653   2.729  43.080   7.955
 7318POPC   C4A24654   2.761  43.078   7.655
 7318POPC   C1B24655   2.784  43.365   8.555
 7318POPC   C2B24656   2.812  43.343   8.255
 7318POPC   C3B24657   2.806  43.315   7.955
 7318POPC   C4B24658   2.827  43.335   7.655
 7319POPC   NC324659  16.706  43.843   9.455
 7319POPC   PO424660  16.776  43.912   9.155
 7319POPC   GL124661  16.768  43.849   8.855
 7319POPC   GL224662  16.859  43.873   8.855
 7319POPC   C1A24663  16.781  43.866   8.555
 7319POPC   D2A24664  16.718  43.898   8.255
 7319POPC   C3A24665  16.721  43.928   7.955
 7319POPC   C4A24666  16.720  43.927   7.655
 7319POPC   C1B24667  16.957  43.883   8.555
 7319POPC   C2B24668  17.009  43.844   8.255
 7319POPC   C3B24669  16.931  43.868   7.955
 7319POPC   C4B24670  16.994  43.870   7.655
 7320POPC   NC324671  43.160  42.289   9.455
 7320POPC   PO424672  43.119  42.318   9.155
 7320POPC   GL124673  43.093  42.337   8.855
 7320POPC   GL224674  43.220  42.345   8.855
 7320POPC   C1A24675  43.120  42.326   8.555
 7320POPC   D2A24676  43.129  42.350   8.255
 7320POPC   C3A24677  43.129  42.311   7.955
 7320POPC   C4A24678  43.074  42.292   7.655
 7320POPC   C1B24679  43.369  42.462   8.555
 7320POPC   C2B24680  43.314  42.402   8.255
 7320POPC   C3B24681  43.349  42.456   7.955
 7320POPC   C4B24682  43.337  42.494   7.655
 7321POPC   NC324683  20.612  22.916   9.455
 7321POPC   PO424684  20.621  22.953   9.155
 7321POPC   GL124685  20.645  22.973   8.855
 7321POPC   GL224686  20.784  22.891   8.855
 7321POPC   C1A24687  20.574  22.935   8.555
 7321POPC   D2A24688  20.627  22.916   8.255
 7321POPC   C3A24689  20.603  22.947   7.955
 7321POPC   C4A24690  20.598  22.930   7.655
 7321POPC   C1B24691  20.890  22.872   8.555
 7321POPC   C2B24692  20.843  22.880   8.255
 7321POPC   C3B24693  20.864  22.922   7.955
 7321POPC   C4B24694  20.864  22.956   7.655
 7322POPC   NC324695  43.864  27.611   9.455
 7322POPC   PO424696  43.837  27.606   9.155
 7322POPC   GL124697  43.931  27.631   8.855
 7322POPC   GL224698  43.897  27.450   8.855
 7322POPC   C1A24699  43.906  27.611   8.555
 7322POPC   D2A24700  43.927  27.603   8.255
 7322POPC   C3A24701  43.897  27.592   7.955
 7322POPC   C4A24702  43.840  27.581   7.655
 7322POPC   C1B24703  43.871  27.395   8.555
 7322POPC   C2B24704  43.858  27.325   8.255
 7322POPC   C3B24705  43.816  27.347   7.955
 7322POPC   C4B24706  43.873  27.375   7.655
 7323POPC   NC324707  37.707  15.938   9.455
 7323POPC   PO424708  37.674  15.919   9.155
 7323POPC   GL124709  37.697  15.984   8.855
 7323POPC   GL224710  37.829  15.907   8.855
 7323POPC   C1A24711  37.666  15.915   8.555
 7323POPC   D2A24712  37.724  15.907   8.255
 7323POPC   C3A24713  37.638  15.997   7.955
 7323POPC   C4A24714  37.721  15.921   7.655
 7323POPC   C1B24715  37.860  15.879   8.555
 7323POPC   C2B24716  37.929  15.801   8.255
 7323POPC   C3B24717  37.914  15.828   7.955
 7323POPC   C4B24718  37.930  15.849   7.655
 7324POPC   NC324719  12.818  36.098   9.455
 7324POPC   PO424720  12.874  36.099   9.155
 7324POPC   GL124721  12.885  36.090   8.855
 7324POPC   GL224722  12.901  36.202   8.855
 7324POPC   C1A24723  12.870  36.173   8.555
 7324POPC   D2A24724  12.857  36.153   8.255
 7324POPC   C3A24725  12.889  36.163   7.955
 7324POPC   C4A24726  12.852  36.164   7.655
 7324POPC   C1B24727  13.051  36.284   8.555
 7324POPC   C2B24728  13.070  36.336   8.255
 7324POPC   C3B24729  13.045  36.246   7.955
 7324POPC   C4B24730  13.011  36.329   7.655
 7325POPC   NC324731  40.019  35.327   9.455
 7325POPC   PO424732  39.984  35.330   9.155
 7325POPC   GL124733  39.970  35.335   8.855
 7325POPC   GL224734  40.053  35.263   8.855
 7325POPC   C1A24735  39.963  35.351   8.555
 7325POPC   D2A24736  39.966  35.370   8.255
 7325POPC   C3A24737  40.020  35.382   7.955
 7325POPC   C4A24738  39.992  35.372   7.655
 7325POPC   C1B24739  40.000  35.146   8.555
 7325POPC   C2B24740  40.063  35.071   8.255
 7325POPC   C3B24741  40.026  35.108   7.955
 7325POPC   C4B24742  40.044  35.118   7.655
 7326POPC   NC324743  13.671  27.610   9.455
 7326POPC   PO424744  13.582  27.614   9.155
 7326POPC   GL124745  13.624  27.634   8.855
 7326POPC   GL224746  13.472  27.555   8.855
 7326POPC   C1A24747  13.676  27.616   8.555
 7326POPC   D2A24748  13.665  27.590   8.255
 7326POPC   C3A24749  13.583  27.599   7.955
 7326POPC   C4A24750  13.627  27.589   7.655
 7326POPC   C1B24751  13.348  27.572   8.555
 7326POPC   C2B24752  13.382  27.615   8.255
 7326POPC   C3B24753  13.360  27.515   7.955
 7326POPC   C4B24754  13.377  27.560   7.655
 7327POPC   NC324755  43.107  29.950   9.455
 7327POPC   PO424756  43.088  29.970   9.155
 7327POPC   GL124757  43.066  29.967   8.855
 7327POPC   GL224758  43.269  29.918   8.855
 7327POPC   C1A24759  43.106  29.954   8.555
 7327POPC   D2A24760  43.158  29.940   8.255
 7327POPC   C3A24761  43.064  29.876   7.955
 7327POPC   C4A24762  43.132  29.887   7.655
 7327POPC   C1B24763  43.398  29.935   8.555
 7327POPC   C2B24764  43.406  29.938   8.255
 7327POPC   C3B24765  43.395  29.901   7.955
 7327POPC   C4B24766  43.339  29.969   7.655
 7328POPC   NC324767   0.449  44.677   9.455
 7328POPC   PO424768   0.452  44.687   9.155
 7328POPC   GL124769   0.420  44.703   8.855
 7328POPC   GL224770   0.386  44.755   8.855
 7328POPC   C1A24771   0.449  44.683   8.555
 7328POPC   D2A24772   0.393  44.677   8.255
 7328POPC   C3A24773   0.403  44.634   7.955
 7328POPC   C4A24774   0.451  44.662   7.655
 7328POPC   C1B24775   0.313  44.857   8.555
 7328POPC   C2B24776   0.353  44.922   8.255
 7328POPC   C3B24777   0.400  44.878   7.955
 7328POPC   C4B24778   0.381  44.914   7.655
 7329POPC   NC324779   5.076  12.088   9.455
 7329POPC   PO424780   5.098  12.106   9.155
 7329POPC   GL124781   5.094  12.105   8.855
 7329POPC   GL224782   5.190  12.200   8.855
 7329POPC   C1A24783   5.086  12.116   8.555
 7329POPC   D2A24784   5.122  12.076   8.255
 7329POPC   C3A24785   5.099  12.046   7.955
 7329POPC   C4A24786   5.063  12.075   7.655
 7329POPC   C1B24787   5.244  12.278   8.555
 7329POPC   C2B24788   5.211  12.307   8.255
 7329POPC   C3B24789   5.300  12.293   7.955
 7329POPC   C4B24790   5.257  12.301   7.655
 7330POPC   NC324791  39.978  31.459   9.455
 7330POPC   PO424792  39.991  31.480   9.155
 7330POPC   GL124793  40.056  31.497   8.855
 7330POPC   GL224794  39.926  31.362   8.855
 7330POPC   C1A24795  39.983  31.463   8.555
 7330POPC   D2A24796  40.042  31.493   8.255
 7330POPC   C3A24797  40.037  31.475   7.955
 7330POPC   C4A24798  40.002  31.480   7.655
 7330POPC   C1B24799  39.918  31.239   8.555
 7330POPC   C2B24800  39.870  31.284   8.255
 7330POPC   C3B24801  39.962  31.207   7.955
 7330POPC   C4B24802  39.953  31.239   7.655
 7331POPC   NC324803  20.621   4.330   9.455
 7331POPC   PO424804  20.605   4.309   9.155
 7331POPC   GL124805  20.607   4.287   8.855
 7331POPC   GL224806  20.517   4.190   8.855
 7331POPC   C1A24807  20.642   4.291   8.555
 7331POPC   D2A24808  20.568   4.317   8.255
 7331POPC   C3A24809  20.595   4.301   7.955
 7331POPC   C4A24810  20.592   4.302   7.655
 7331POPC   C1B24811  20.452   4.134   8.555
 7331POPC   C2B24812  20.446   4.096   8.255
 7331POPC   C3B24813  20.464   4.179   7.955
 7331POPC   C4B24814  20.414   4.116   7.655
 7332POPC   NC324815  17.536  30.689   9.455
 7332POPC   PO424816  17.535  30.681   9.155
 7332POPC   GL124817  17.489  30.745   8.855
 7332POPC   GL224818  17.414  30.761   8.855
 7332POPC   C1A24819  17.520  30.691   8.555
 7332POPC   D2A24820  17.553  30.736   8.255
 7332POPC   C3A24821  17.555  30.717   7.955
 7332POPC   C4A24822  17.543  30.674   7.655
 7332POPC   C1B24823  17.327  30.890   8.555
 7332POPC   C2B24824  17.382  30.918   8.255
 7332POPC   C3B24825  17.418  30.860   7.955
 7332POPC   C4B24826  17.331  30.883   7.655
 7333POPC   NC324827   5.822  40.021   9.455
 7333POPC   PO424828   5.855  39.975   9.155
 7333POPC   GL124829   5.824  40.052   8.855
 7333POPC   GL224830   5.971  40.095   8.855
 7333POPC   C1A24831   5.902  40.018   8.555
 7333POPC   D2A24832   5.835  40.025   8.255
 7333POPC   C3A24833   5.829  40.040   7.955
 7333POPC   C4A24834   5.857  40.012   7.655
 7333POPC   C1B24835   6.066  40.101   8.555
 7333POPC   C2B24836   6.052  40.130   8.255
 7333POPC   C3B24837   6.115  40.058   7.955
 7333POPC   C4B24838   6.126  40.137   7.655
 7334POPC   NC324839  15.925  29.939   9.455
 7334POPC   PO424840  15.988  29.910   9.155
 7334POPC   GL124841  15.989  29.884   8.855
 7334POPC   GL224842  16.049  29.927   8.855
 7334POPC   C1A24843  15.918  29.936   8.555
 7334POPC   D2A24844  15.996  29.911   8.255
 7334POPC   C3A24845  15.946  29.883   7.955
 7334POPC   C4A24846  15.977  29.874   7.655
 7334POPC   C1B24847  16.223  29.885   8.555
 7334POPC   C2B24848  16.202  29.956   8.255
 7334POPC   C3B24849  16.165  29.928   7.955
 7334POPC   C4B24850  16.209  29.959   7.655
 7335POPC   NC324851  18.322  17.466   9.455
 7335POPC   PO424852  18.273  17.541   9.155
 7335POPC   GL124853  18.238  17.472   8.855
 7335POPC   GL224854  18.372  17.486   8.855
 7335POPC   C1A24855  18.250  17.519   8.555
 7335POPC   D2A24856  18.298  17.496   8.255
 7335POPC   C3A24857  18.297  17.557   7.955
 7335POPC   C4A24858  18.255  17.504   7.655
 7335POPC   C1B24859  18.475  17.397   8.555
 7335POPC   C2B24860  18.536  17.458   8.255
 7335POPC   C3B24861  18.524  17.452   7.955
 7335POPC   C4B24862  18.493  17.427   7.655
 7336POPC   NC324863   1.976  17.545   9.455
 7336POPC   PO424864   1.984  17.490   9.155
 7336POPC   GL124865   1.981  17.492   8.855
 7336POPC   GL224866   1.831  17.518   8.855
 7336POPC   C1A24867   2.028  17.516   8.555
 7336POPC   D2A24868   2.007  17.546   8.255
 7336POPC   C3A24869   2.024  17.473   7.955
 7336POPC   C4A24870   1.973  17.500   7.655
 7336POPC   C1B24871   1.747  17.636   8.555
 7336POPC   C2B24872   1.812  17.604   8.255
 7336POPC   C3B24873   1.814  17.586   7.955
 7336POPC   C4B24874   1.795  17.661   7.655
 7337POPC   NC324875  40.006  40.002   9.455
 7337POPC   PO424876  40.037  39.970   9.155
 7337POPC   GL124877  39.996  40.029   8.855
 7337POPC   GL224878  39.920  40.003   8.855
 7337POPC   C1A24879  39.998  40.003   8.555
 7337POPC   D2A24880  39.962  39.996   8.255
 7337POPC   C3A24881  40.013  40.041   7.955
 7337POPC   C4A24882  39.962  39.993   7.655
 7337POPC   C1B24883  39.742  39.953   8.555
 7337POPC   C2B24884  39.768  39.970   8.255
 7337POPC   C3B24885  39.732  39.889   7.955
 7337POPC   C4B24886  39.765  39.943   7.655
 7338POPC   NC324887   1.196   6.631   9.455
 7338POPC   PO424888   1.174   6.649   9.155
 7338POPC   GL124889   1.205   6.667   8.855
 7338POPC   GL224890   1.141   6.704   8.855
 7338POPC   C1A24891   1.203   6.668   8.555
 7338POPC   D2A24892   1.236   6.614   8.255
 7338POPC   C3A24893   1.169   6.687   7.955
 7338POPC   C4A24894   1.181   6.669   7.655
 7338POPC   C1B24895   0.952   6.768   8.555
 7338POPC   C2B24896   0.966   6.775   8.255
 7338POPC   C3B24897   0.980   6.795   7.955
 7338POPC   C4B24898   0.951   6.723   7.655
 7339POPC   NC324899  28.392  41.560   9.455
 7339POPC   PO424900  28.367  41.572   9.155
 7339POPC   GL124901  28.402  41.534   8.855
 7339POPC   GL224902  28.322  41.732   8.855
 7339POPC   C1A24903  28.380  41.543   8.555
 7339POPC   D2A24904  28.364  41.522   8.255
 7339POPC   C3A24905  28.320  41.541   7.955
 7339POPC   C4A24906  28.380  41.530   7.655
 7339POPC   C1B24907  28.386  41.814   8.555
 7339POPC   C2B24908  28.340  41.840   8.255
 7339POPC   C3B24909  28.330  41.808   7.955
 7339POPC   C4B24910  28.413  41.765   7.655
 7340POPC   NC324911  32.244   4.291   9.455
 7340POPC   PO424912  32.204   4.322   9.155
 7340POPC   GL124913  32.250   4.300   8.855
 7340POPC   GL224914  32.413   4.347   8.855
 7340POPC   C1A24915  32.276   4.335   8.555
 7340POPC   D2A24916  32.297   4.272   8.255
 7340POPC   C3A24917  32.285   4.335   7.955
 7340POPC   C4A24918  32.204   4.340   7.655
 7340POPC   C1B24919  32.531   4.347   8.555
 7340POPC   C2B24920  32.504   4.354   8.255
 7340POPC   C3B24921  32.467   4.384   7.955
 7340POPC   C4B24922  32.507   4.358   7.655
 7341POPC   NC324923  34.606  31.459   9.455
 7341POPC   PO424924  34.603  31.478   9.155
 7341POPC   GL124925  34.549  31.519   8.855
 7341POPC   GL224926  34.494  31.561   8.855
 7341POPC   C1A24927  34.567  31.472   8.555
 7341POPC   D2A24928  34.617  31.485   8.255
 7341POPC   C3A24929  34.545  31.509   7.955
 7341POPC   C4A24930  34.563  31.509   7.655
 7341POPC   C1B24931  34.428  31.719   8.555
 7341POPC   C2B24932  34.411  31.649   8.255
 7341POPC   C3B24933  34.458  31.687   7.955
 7341POPC   C4B24934  34.414  31.727   7.655
 7342POPC   NC324935  39.191  32.221   9.455
 7342POPC   PO424936  39.261  32.277   9.155
 7342POPC   GL124937  39.250  32.254   8.855
 7342POPC   GL224938  39.122  32.308   8.855
 7342POPC   C1A24939  39.207  32.219   8.555
 7342POPC   D2A24940  39.227  32.271   8.255
 7342POPC   C3A24941  39.207  32.293   7.955
 7342POPC   C4A24942  39.259  32.264   7.655
 7342POPC   C1B24943  39.011  32.389   8.555
 7342POPC   C2B24944  39.018  32.342   8.255
 7342POPC   C3B24945  39.037  32.414   7.955
 7342POPC   C4B24946  38.986  32.354   7.655
 7343POPC   NC324947  24.519  36.165   9.455
 7343POPC   PO424948  24.444  36.129   9.155
 7343POPC   GL124949  24.492  36.078   8.855
 7343POPC   GL224950  24.428  36.005   8.855
 7343POPC   C1A24951  24.453  36.114   8.555
 7343POPC   D2A24952  24.518  36.133   8.255
 7343POPC   C3A24953  24.501  36.127   7.955
 7343POPC   C4A24954  24.463  36.092   7.655
 7343POPC   C1B24955  24.415  35.871   8.555
 7343POPC   C2B24956  24.483  35.869   8.255
 7343POPC   C3B24957  24.401  35.854   7.955
 7343POPC   C4B24958  24.423  35.858   7.655
 7344POPC   NC324959  30.656  29.878   9.455
 7344POPC   PO424960  30.684  29.888   9.155
 7344POPC   GL124961  30.684  29.928   8.855
 7344POPC   GL224962  30.804  29.869   8.855
 7344POPC   C1A24963  30.715  29.899   8.555
 7344POPC   D2A24964  30.678  29.919   8.255
 7344POPC   C3A24965  30.731  29.910   7.955
 7344POPC   C4A24966  30.722  29.903   7.655
 7344POPC   C1B24967  30.907  29.843   8.555
 7344POPC   C2B24968  30.980  29.859   8.255
 7344POPC   C3B24969  30.891  29.856   7.955
 7344POPC   C4B24970  30.988  29.899   7.655
 7345POPC   NC324971  36.953  38.479   9.455
 7345POPC   PO424972  36.951  38.480   9.155
 7345POPC   GL124973  36.899  38.435   8.855
 7345POPC   GL224974  37.034  38.318   8.855
 7345POPC   C1A24975  36.913  38.438   8.555
 7345POPC   D2A24976  36.936  38.447   8.255
 7345POPC   C3A24977  36.914  38.498   7.955
 7345POPC   C4A24978  36.914  38.406   7.655
 7345POPC   C1B24979  37.082  38.304   8.555
 7345POPC   C2B24980  37.118  38.268   8.255
 7345POPC   C3B24981  37.083  38.249   7.955
 7345POPC   C4B24982  37.120  38.304   7.655
 7346POPC   NC324983  12.034   3.550   9.455
 7346POPC   PO424984  12.085   3.537   9.155
 7346POPC   GL124985  12.111   3.515   8.855
 7346POPC   GL224986  12.129   3.469   8.855
 7346POPC   C1A24987  12.072   3.557   8.555
 7346POPC   D2A24988  12.108   3.499   8.255
 7346POPC   C3A24989  12.112   3.532   7.955
 7346POPC   C4A24990  12.088   3.524   7.655
 7346POPC   C1B24991  12.229   3.312   8.555
 7346POPC   C2B24992  12.286   3.356   8.255
 7346POPC   C3B24993  12.250   3.308   7.955
 7346POPC   C4B24994  12.267   3.324   7.655
 7347POPC   NC324995  33.795  30.688   9.455
 7347POPC   PO424996  33.781  30.745   9.155
 7347POPC   GL124997  33.825  30.665   8.855
 7347POPC   GL224998  33.795  30.535   8.855
 7347POPC   C1A24999  33.820  30.732   8.555
 7347POPC   D2A25000  33.825  30.716   8.255
 7347POPC   C3A25001  33.785  30.711   7.955
 7347POPC   C4A25002  33.784  30.699   7.655
 7347POPC   C1B25003  33.697  30.488   8.555
 7347POPC   C2B25004  33.761  30.432   8.255
 7347POPC   C3B25005  33.727  30.441   7.955
 7347POPC   C4B25006  33.722  30.423   7.655
 7348POPC   NC325007  26.846  43.929   9.455
 7348POPC   PO425008  26.776  43.876   9.155
 7348POPC   GL125009  26.786  43.882   8.855
 7348POPC   GL225010  26.698  43.813   8.855
 7348POPC   C1A25011  26.818  43.879   8.555
 7348POPC   D2A25012  26.788  43.839   8.255
 7348POPC   C3A25013  26.795  43.885   7.955
 7348POPC   C4A25014  26.785  43.865   7.655
 7348POPC   C1B25015  26.680  43.723   8.555
 7348POPC   C2B25016  26.673  43.683   8.255
 7348POPC   C3B25017  26.658  43.645   7.955
 7348POPC   C4B25018  26.626  43.712   7.655
 7349POPC   NC325019  28.340  11.269   9.455
 7349POPC   PO425020  28.383  11.282   9.155
 7349POPC   GL125021  28.397  11.304   8.855
 7349POPC   GL225022  28.230  11.271   8.855
 7349POPC   C1A25023  28.345  11.330   8.555
 7349POPC   D2A25024  28.360  11.317   8.255
 7349POPC   C3A25025  28.391  11.288   7.955
 7349POPC   C4A25026  28.376  11.264   7.655
 7349POPC   C1B25027  28.135  11.185   8.555
 7349POPC   C2B25028  28.107  11.184   8.255
 7349POPC   C3B25029  28.168  11.255   7.955
 7349POPC   C4B25030  28.120  11.187   7.655
 7350POPC   NC325031  16.705  11.278   9.455
 7350POPC   PO425032  16.691  11.269   9.155
 7350POPC   GL125033  16.739  11.338   8.855
 7350POPC   GL225034  16.777  11.403   8.855
 7350POPC   C1A25035  16.703  11.349   8.555
 7350POPC   D2A25036  16.697  11.277   8.255
 7350POPC   C3A25037  16.765  11.264   7.955
 7350POPC   C4A25038  16.695  11.334   7.655
 7350POPC   C1B25039  16.852  11.489   8.555
 7350POPC   C2B25040  16.904  11.463   8.255
 7350POPC   C3B25041  16.896  11.519   7.955
 7350POPC   C4B25042  16.837  11.494   7.655
 7351POPC   NC325043   6.598  33.783   9.455
 7351POPC   PO425044   6.642  33.804   9.155
 7351POPC   GL125045   6.597  33.849   8.855
 7351POPC   GL225046   6.792  33.809   8.855
 7351POPC   C1A25047   6.675  33.801   8.555
 7351POPC   D2A25048   6.690  33.788   8.255
 7351POPC   C3A25049   6.683  33.779   7.955
 7351POPC   C4A25050   6.609  33.770   7.655
 7351POPC   C1B25051   6.890  33.713   8.555
 7351POPC   C2B25052   6.918  33.789   8.255
 7351POPC   C3B25053   6.912  33.781   7.955
 7351POPC   C4B25054   6.867  33.732   7.655
 7352POPC   NC325055   5.907  16.742   9.455
 7352POPC   PO425056   5.896  16.747   9.155
 7352POPC   GL125057   5.831  16.691   8.855
 7352POPC   GL225058   6.012  16.798   8.855
 7352POPC   C1A25059   5.873  16.717   8.555
 7352POPC   D2A25060   5.899  16.766   8.255
 7352POPC   C3A25061   5.913  16.735   7.955
 7352POPC   C4A25062   5.882  16.724   7.655
 7352POPC   C1B25063   6.040  16.824   8.555
 7352POPC   C2B25064   6.065  16.911   8.255
 7352POPC   C3B25065   6.064  16.886   7.955
 7352POPC   C4B25066   6.097  16.912   7.655
 7353POPC   NC325067  31.506  12.043   9.455
 7353POPC   PO425068  31.495  12.057   9.155
 7353POPC   GL125069  31.509  12.042   8.855
 7353POPC   GL225070  31.492  12.226   8.855
 7353POPC   C1A25071  31.487  12.121   8.555
 7353POPC   D2A25072  31.466  12.033   8.255
 7353POPC   C3A25073  31.432  12.108   7.955
 7353POPC   C4A25074  31.494  12.059   7.655
 7353POPC   C1B25075  31.436  12.340   8.555
 7353POPC   C2B25076  31.445  12.360   8.255
 7353POPC   C3B25077  31.461  12.359   7.955
 7353POPC   C4B25078  31.513  12.359   7.655
 7354POPC   NC325079   8.246  10.499   9.455
 7354POPC   PO425080   8.243  10.528   9.155
 7354POPC   GL125081   8.153  10.522   8.855
 7354POPC   GL225082   8.059  10.598   8.855
 7354POPC   C1A25083   8.187  10.561   8.555
 7354POPC   D2A25084   8.198  10.494   8.255
 7354POPC   C3A25085   8.203  10.480   7.955
 7354POPC   C4A25086   8.191  10.535   7.655
 7354POPC   C1B25087   8.016  10.651   8.555
 7354POPC   C2B25088   7.928  10.625   8.255
 7354POPC   C3B25089   8.003  10.668   7.955
 7354POPC   C4B25090   8.006  10.597   7.655
 7355POPC   NC325091   3.494  19.846   9.455
 7355POPC   PO425092   3.519  19.847   9.155
 7355POPC   GL125093   3.523  19.852   8.855
 7355POPC   GL225094   3.441  19.788   8.855
 7355POPC   C1A25095   3.546  19.849   8.555
 7355POPC   D2A25096   3.529  19.785   8.255
 7355POPC   C3A25097   3.512  19.840   7.955
 7355POPC   C4A25098   3.534  19.879   7.655
 7355POPC   C1B25099   3.288  19.673   8.555
 7355POPC   C2B25100   3.287  19.653   8.255
 7355POPC   C3B25101   3.314  19.715   7.955
 7355POPC   C4B25102   3.367  19.732   7.655
 7356POPC   NC325103  39.240  37.639   9.455
 7356POPC   PO425104  39.279  37.698   9.155
 7356POPC   GL125105  39.193  37.704   8.855
 7356POPC   GL225106  39.118  37.772   8.855
 7356POPC   C1A25107  39.242  37.638   8.555
 7356POPC   D2A25108  39.232  37.684   8.255
 7356POPC   C3A25109  39.212  37.713   7.955
 7356POPC   C4A25110  39.205  37.674   7.655
 7356POPC   C1B25111  39.035  37.803   8.555
 7356POPC   C2B25112  39.082  37.807   8.255
 7356POPC   C3B25113  39.084  37.852   7.955
 7356POPC   C4B25114  39.063  37.831   7.655
 7357POPC   NC325115  36.892  36.104   9.455
 7357POPC   PO425116  36.904  36.149   9.155
 7357POPC   GL125117  36.909  36.142   8.855
 7357POPC   GL225118  36.798  36.060   8.855
 7357POPC   C1A25119  36.875  36.084   8.555
 7357POPC   D2A25120  36.873  36.172   8.255
 7357POPC   C3A25121  36.870  36.143   7.955
 7357POPC   C4A25122  36.926  36.104   7.655
 7357POPC   C1B25123  36.638  36.046   8.555
 7357POPC   C2B25124  36.661  36.026   8.255
 7357POPC   C3B25125  36.714  36.024   7.955
 7357POPC   C4B25126  36.693  36.092   7.655
 7358POPC   NC325127   1.253   4.325   9.455
 7358POPC   PO425128   1.189   4.322   9.155
 7358POPC   GL125129   1.245   4.333   8.855
 7358POPC   GL225130   1.100   4.385   8.855
 7358POPC   C1A25131   1.254   4.355   8.555
 7358POPC   D2A25132   1.177   4.281   8.255
 7358POPC   C3A25133   1.186   4.341   7.955
 7358POPC   C4A25134   1.246   4.341   7.655
 7358POPC   C1B25135   0.999   4.358   8.555
 7358POPC   C2B25136   0.989   4.345   8.255
 7358POPC   C3B25137   0.987   4.390   7.955
 7358POPC   C4B25138   1.019   4.392   7.655
 7359POPC   NC325139  28.400  15.220   9.455
 7359POPC   PO425140  28.355  15.179   9.155
 7359POPC   GL125141  28.419  15.223   8.855
 7359POPC   GL225142  28.226  15.094   8.855
 7359POPC   C1A25143  28.414  15.226   8.555
 7359POPC   D2A25144  28.340  15.162   8.255
 7359POPC   C3A25145  28.321  15.206   7.955
 7359POPC   C4A25146  28.320  15.147   7.655
 7359POPC   C1B25147  28.110  15.004   8.555
 7359POPC   C2B25148  28.147  15.094   8.255
 7359POPC   C3B25149  28.160  15.020   7.955
 7359POPC   C4B25150  28.124  15.031   7.655
 7360POPC   NC325151  24.457   5.889   9.455
 7360POPC   PO425152  24.477   5.830   9.155
 7360POPC   GL125153  24.477   5.878   8.855
 7360POPC   GL225154  24.379   5.732   8.855
 7360POPC   C1A25155  24.477   5.865   8.555
 7360POPC   D2A25156  24.453   5.856   8.255
 7360POPC   C3A25157  24.469   5.854   7.955
 7360POPC   C4A25158  24.496   5.892   7.655
 7360POPC   C1B25159  24.324   5.643   8.555
 7360POPC   C2B25160  24.335   5.669   8.255
 7360POPC   C3B25161  24.356   5.689   7.955
 7360POPC   C4B25162  24.369   5.626   7.655
 7361POPC   NC325163  36.869   0.401   9.455
 7361POPC   PO425164  36.894   0.431   9.155
 7361POPC   GL125165  36.876   0.414   8.855
 7361POPC   GL225166  36.959   0.310   8.855
 7361POPC   C1A25167  36.859   0.474   8.555
 7361POPC   D2A25168  36.888   0.443   8.255
 7361POPC   C3A25169  36.947   0.465   7.955
 7361POPC   C4A25170  36.870   0.467   7.655
 7361POPC   C1B25171  37.050   0.197   8.555
 7361POPC   C2B25172  37.012   0.209   8.255
 7361POPC   C3B25173  36.995   0.204   7.955
 7361POPC   C4B25174  37.054   0.227   7.655
 7362POPC   NC325175  19.051  44.652   9.455
 7362POPC   PO425176  19.103  44.706   9.155
 7362POPC   GL125177  19.065  44.703   8.855
 7362POPC   GL225178  19.147  44.660   8.855
 7362POPC   C1A25179  19.031  44.639   8.555
 7362POPC   D2A25180  19.062  44.691   8.255
 7362POPC   C3A25181  19.046  44.659   7.955
 7362POPC   C4A25182  19.106  44.644   7.655
 7362POPC   C1B25183  19.328  44.701   8.555
 7362POPC   C2B25184  19.323  44.705   8.255
 7362POPC   C3B25185  19.273  44.732   7.955
 7362POPC   C4B25186  19.347  44.719   7.655
 7363POPC   NC325187  31.472  43.902   9.455
 7363POPC   PO425188  31.445  43.865   9.155
 7363POPC   GL125189  31.514  43.907   8.855
 7363POPC   GL225190  31.395  43.799   8.855
 7363POPC   C1A25191  31.463  43.851   8.555
 7363POPC   D2A25192  31.478  43.911   8.255
 7363POPC   C3A25193  31.478  43.920   7.955
 7363POPC   C4A25194  31.480  43.862   7.655
 7363POPC   C1B25195  31.265  43.704   8.555
 7363POPC   C2B25196  31.277  43.749   8.255
 7363POPC   C3B25197  31.244  43.702   7.955
 7363POPC   C4B25198  31.223  43.755   7.655
 7364POPC   NC325199  16.691   2.810   9.455
 7364POPC   PO425200  16.758   2.801   9.155
 7364POPC   GL125201  16.721   2.784   8.855
 7364POPC   GL225202  16.716   2.909   8.855
 7364POPC   C1A25203  16.752   2.783   8.555
 7364POPC   D2A25204  16.699   2.720   8.255
 7364POPC   C3A25205  16.724   2.782   7.955
 7364POPC   C4A25206  16.764   2.758   7.655
 7364POPC   C1B25207  16.654   2.979   8.555
 7364POPC   C2B25208  16.654   2.960   8.255
 7364POPC   C3B25209  16.630   3.040   7.955
 7364POPC   C4B25210  16.679   2.980   7.655
 7365POPC   NC325211  15.199  26.056   9.455
 7365POPC   PO425212  15.225  26.032   9.155
 7365POPC   GL125213  15.222  26.059   8.855
 7365POPC   GL225214  15.087  25.967   8.855
 7365POPC   C1A25215  15.218  26.071   8.555
 7365POPC   D2A25216  15.178  26.016   8.255
 7365POPC   C3A25217  15.170  26.054   7.955
 7365POPC   C4A25218  15.209  26.004   7.655
 7365POPC   C1B25219  15.123  25.787   8.555
 7365POPC   C2B25220  15.119  25.856   8.255
 7365POPC   C3B25221  15.107  25.790   7.955
 7365POPC   C4B25222  15.107  25.818   7.655
 7366POPC   NC325223  40.783  24.474   9.455
 7366POPC   PO425224  40.814  24.513   9.155
 7366POPC   GL125225  40.786  24.532   8.855
 7366POPC   GL225226  40.631  24.473   8.855
 7366POPC   C1A25227  40.827  24.499   8.555
 7366POPC   D2A25228  40.804  24.447   8.255
 7366POPC   C3A25229  40.804  24.446   7.955
 7366POPC   C4A25230  40.810  24.505   7.655
 7366POPC   C1B25231  40.537  24.466   8.555
 7366POPC   C2B25232  40.556  24.473   8.255
 7366POPC   C3B25233  40.486  24.467   7.955
 7366POPC   C4B25234  40.487  24.521   7.655
 7367POPC   NC325235  20.637  26.074   9.455
 7367POPC   PO425236  20.562  26.091   9.155
 7367POPC   GL125237  20.598  26.020   8.855
 7367POPC   GL225238  20.486  25.921   8.855
 7367POPC   C1A25239  20.590  26.041   8.555
 7367POPC   D2A25240  20.563  26.045   8.255
 7367POPC   C3A25241  20.607  26.074   7.955
 7367POPC   C4A25242  20.566  26.007   7.655
 7367POPC   C1B25243  20.411  25.831   8.555
 7367POPC   C2B25244  20.402  25.902   8.255
 7367POPC   C3B25245  20.451  25.899   7.955
 7367POPC   C4B25246  20.436  25.885   7.655
 7368POPC   NC325247  41.582   5.112   9.455
 7368POPC   PO425248  41.563   5.066   9.155
 7368POPC   GL125249  41.555   5.044   8.855
 7368POPC   GL225250  41.475   5.030   8.855
 7368POPC   C1A25251  41.549   5.096   8.555
 7368POPC   D2A25252  41.539   5.131   8.255
 7368POPC   C3A25253  41.602   5.095   7.955
 7368POPC   C4A25254  41.545   5.099   7.655
 7368POPC   C1B25255  41.335   4.955   8.555
 7368POPC   C2B25256  41.335   4.894   8.255
 7368POPC   C3B25257  41.396   4.976   7.955
 7368POPC   C4B25258  41.379   4.929   7.655
 7369POPC   NC325259   8.188  40.821   9.455
 7369POPC   PO425260   8.187  40.798   9.155
 7369POPC   GL125261   8.190  40.816   8.855
 7369POPC   GL225262   8.123  40.662   8.855
 7369POPC   C1A25263   8.224  40.772   8.555
 7369POPC   D2A25264   8.202  40.785   8.255
 7369POPC   C3A25265   8.200  40.737   7.955
 7369POPC   C4A25266   8.223  40.810   7.655
 7369POPC   C1B25267   8.174  40.574   8.555
 7369POPC   C2B25268   8.091  40.563   8.255
 7369POPC   C3B25269   8.092  40.516   7.955
 7369POPC   C4B25270   8.107  40.577   7.655
 7370POPC   NC325271  34.578  38.434   9.455
 7370POPC   PO425272  34.607  38.424   9.155
 7370POPC   GL125273  34.539  38.420   8.855
 7370POPC   GL225274  34.487  38.403   8.855
 7370POPC   C1A25275  34.557  38.443   8.555
 7370POPC   D2A25276  34.602  38.435   8.255
 7370POPC   C3A25277  34.609  38.489   7.955
 7370POPC   C4A25278  34.598  38.471   7.655
 7370POPC   C1B25279  34.443  38.296   8.555
 7370POPC   C2B25280  34.362  38.287   8.255
 7370POPC   C3B25281  34.409  38.241   7.955
 7370POPC   C4B25282  34.392  38.272   7.655
 7371POPC   NC325283  32.208  37.695   9.455
 7371POPC   PO425284  32.227  37.695   9.155
 7371POPC   GL125285  32.264  37.662   8.855
 7371POPC   GL225286  32.094  37.601   8.855
 7371POPC   C1A25287  32.229  37.650   8.555
 7371POPC   D2A25288  32.203  37.674   8.255
 7371POPC   C3A25289  32.266  37.714   7.955
 7371POPC   C4A25290  32.293  37.661   7.655
 7371POPC   C1B25291  32.041  37.631   8.555
 7371POPC   C2B25292  32.039  37.580   8.255
 7371POPC   C3B25293  31.976  37.590   7.955
 7371POPC   C4B25294  31.997  37.565   7.655
 7372POPC   NC325295  30.740  32.239   9.455
 7372POPC   PO425296  30.683  32.291   9.155
 7372POPC   GL125297  30.654  32.277   8.855
 7372POPC   GL225298  30.629  32.308   8.855
 7372POPC   C1A25299  30.725  32.286   8.555
 7372POPC   D2A25300  30.650  32.210   8.255
 7372POPC   C3A25301  30.727  32.295   7.955
 7372POPC   C4A25302  30.741  32.253   7.655
 7372POPC   C1B25303  30.533  32.441   8.555
 7372POPC   C2B25304  30.542  32.368   8.255
 7372POPC   C3B25305  30.463  32.388   7.955
 7372POPC   C4B25306  30.541  32.441   7.655
 7373POPC   NC325307  16.780   6.634   9.455
 7373POPC   PO425308  16.695   6.637   9.155
 7373POPC   GL125309  16.761   6.608   8.855
 7373POPC   GL225310  16.851   6.747   8.855
 7373POPC   C1A25311  16.706   6.626   8.555
 7373POPC   D2A25312  16.763   6.650   8.255
 7373POPC   C3A25313  16.774   6.599   7.955
 7373POPC   C4A25314  16.729   6.617   7.655
 7373POPC   C1B25315  16.896   6.852   8.555
 7373POPC   C2B25316  16.968   6.810   8.255
 7373POPC   C3B25317  16.935   6.788   7.955
 7373POPC   C4B25318  16.932   6.819   7.655
 7374POPC   NC325319   0.410  37.650   9.455
 7374POPC   PO425320   0.434  37.640   9.155
 7374POPC   GL125321   0.483  37.651   8.855
 7374POPC   GL225322   0.400  37.826   8.855
 7374POPC   C1A25323   0.471  37.679   8.555
 7374POPC   D2A25324   0.407  37.669   8.255
 7374POPC   C3A25325   0.422  37.636   7.955
 7374POPC   C4A25326   0.388  37.683   7.655
 7374POPC   C1B25327   0.388  37.894   8.555
 7374POPC   C2B25328   0.407  37.919   8.255
 7374POPC   C3B25329   0.398  37.879   7.955
 7374POPC   C4B25330   0.393  37.899   7.655
 7375POPC   NC325331  29.146  10.519   9.455
 7375POPC   PO425332  29.176  10.566   9.155
 7375POPC   GL125333  29.124  10.493   8.855
 7375POPC   GL225334  29.083  10.420   8.855
 7375POPC   C1A25335  29.181  10.480   8.555
 7375POPC   D2A25336  29.101  10.483   8.255
 7375POPC   C3A25337  29.193  10.520   7.955
 7375POPC   C4A25338  29.129  10.490   7.655
 7375POPC   C1B25339  29.023  10.313   8.555
 7375POPC   C2B25340  29.038  10.264   8.255
 7375POPC   C3B25341  29.051  10.310   7.955
 7375POPC   C4B25342  29.030  10.333   7.655
 7376POPC   NC325343   7.388   4.285   9.455
 7376POPC   PO425344   7.460   4.350   9.155
 7376POPC   GL125345   7.453   4.337   8.855
 7376POPC   GL225346   7.366   4.203   8.855
 7376POPC   C1A25347   7.434   4.285   8.555
 7376POPC   D2A25348   7.411   4.296   8.255
 7376POPC   C3A25349   7.425   4.276   7.955
 7376POPC   C4A25350   7.399   4.360   7.655
 7376POPC   C1B25351   7.228   4.146   8.555
 7376POPC   C2B25352   7.255   4.095   8.255
 7376POPC   C3B25353   7.261   4.163   7.955
 7376POPC   C4B25354   7.234   4.071   7.655
 7377POPC   NC325355   1.978   6.662   9.455
 7377POPC   PO425356   1.996   6.679   9.155
 7377POPC   GL125357   1.995   6.669   8.855
 7377POPC   GL225358   1.940   6.714   8.855
 7377POPC   C1A25359   2.032   6.670   8.555
 7377POPC   D2A25360   2.015   6.665   8.255
 7377POPC   C3A25361   2.009   6.619   7.955
 7377POPC   C4A25362   1.977   6.677   7.655
 7377POPC   C1B25363   1.893   6.878   8.555
 7377POPC   C2B25364   1.949   6.894   8.255
 7377POPC   C3B25365   1.951   6.897   7.955
 7377POPC   C4B25366   1.888   6.916   7.655
 7378POPC   NC325367  39.215   5.069   9.455
 7378POPC   PO425368  39.196   5.094   9.155
 7378POPC   GL125369  39.263   5.120   8.855
 7378POPC   GL225370  39.232   4.971   8.855
 7378POPC   C1A25371  39.243   5.050   8.555
 7378POPC   D2A25372  39.184   5.095   8.255
 7378POPC   C3A25373  39.237   5.063   7.955
 7378POPC   C4A25374  39.197   5.134   7.655
 7378POPC   C1B25375  39.230   4.888   8.555
 7378POPC   C2B25376  39.261   4.882   8.255
 7378POPC   C3B25377  39.188   4.817   7.955
 7378POPC   C4B25378  39.223   4.811   7.655
 7379POPC   NC325379  36.172  39.253   9.455
 7379POPC   PO425380  36.112  39.267   9.155
 7379POPC   GL125381  36.142  39.220   8.855
 7379POPC   GL225382  36.128  39.304   8.855
 7379POPC   C1A25383  36.095  39.270   8.555
 7379POPC   D2A25384  36.121  39.264   8.255
 7379POPC   C3A25385  36.115  39.215   7.955
 7379POPC   C4A25386  36.113  39.208   7.655
 7379POPC   C1B25387  36.250  39.434   8.555
 7379POPC   C2B25388  36.197  39.424   8.255
 7379POPC   C3B25389  36.264  39.487   7.955
 7379POPC   C4B25390  36.243  39.415   7.655
 7380POPC   NC325391  28.366  32.283   9.455
 7380POPC   PO425392  28.378  32.293   9.155
 7380POPC   GL125393  28.367  32.204   8.855
 7380POPC   GL225394  28.244  32.296   8.855
 7380POPC   C1A25395  28.381  32.294   8.555
 7380POPC   D2A25396  28.368  32.281   8.255
 7380POPC   C3A25397  28.360  32.220   7.955
 7380POPC   C4A25398  28.403  32.200   7.655
 7380POPC   C1B25399  28.230  32.422   8.555
 7380POPC   C2B25400  28.230  32.432   8.255
 7380POPC   C3B25401  28.198  32.462   7.955
 7380POPC   C4B25402  28.186  32.395   7.655
 7381POPC   NC325403   8.206  39.207   9.455
 7381POPC   PO425404   8.189  39.214   9.155
 7381POPC   GL125405   8.239  39.242   8.855
 7381POPC   GL225406   8.263  39.128   8.855
 7381POPC   C1A25407   8.156  39.279   8.555
 7381POPC   D2A25408   8.173  39.234   8.255
 7381POPC   C3A25409   8.183  39.260   7.955
 7381POPC   C4A25410   8.167  39.219   7.655
 7381POPC   C1B25411   8.395  39.122   8.555
 7381POPC   C2B25412   8.384  39.043   8.255
 7381POPC   C3B25413   8.370  39.065   7.955
 7381POPC   C4B25414   8.354  39.093   7.655
 7382POPC   NC325415   1.971  41.597   9.455
 7382POPC   PO425416   1.993  41.572   9.155
 7382POPC   GL125417   2.034  41.589   8.855
 7382POPC   GL225418   1.819  41.551   8.855
 7382POPC   C1A25419   1.944  41.523   8.555
 7382POPC   D2A25420   1.992  41.595   8.255
 7382POPC   C3A25421   1.987  41.548   7.955
 7382POPC   C4A25422   2.024  41.585   7.655
 7382POPC   C1B25423   1.708  41.470   8.555
 7382POPC   C2B25424   1.751  41.543   8.255
 7382POPC   C3B25425   1.795  41.488   7.955
 7382POPC   C4B25426   1.745  41.452   7.655
 7383POPC   NC325427  43.930  13.631   9.455
 7383POPC   PO425428  43.839  13.643   9.155
 7383POPC   GL125429  43.846  13.654   8.855
 7383POPC   GL225430  44.034  13.710   8.855
 7383POPC   C1A25431  43.855  13.620   8.555
 7383POPC   D2A25432  43.882  13.673   8.255
 7383POPC   C3A25433  43.931  13.587   7.955
 7383POPC   C4A25434  43.897  13.624   7.655
 7383POPC   C1B25435  44.124  13.688   8.555
 7383POPC   C2B25436  44.089  13.746   8.255
 7383POPC   C3B25437  44.160  13.745   7.955
 7383POPC   C4B25438  44.158  13.760   7.655
 7384POPC   NC325439  12.120  37.699   9.455
 7384POPC   PO425440  12.107  37.653   9.155
 7384POPC   GL125441  12.086  37.665   8.855
 7384POPC   GL225442  12.061  37.777   8.855
 7384POPC   C1A25443  12.075  37.642   8.555
 7384POPC   D2A25444  12.070  37.672   8.255
 7384POPC   C3A25445  12.030  37.687   7.955
 7384POPC   C4A25446  12.118  37.690   7.655
 7384POPC   C1B25447  12.122  37.904   8.555
 7384POPC   C2B25448  12.080  37.894   8.255
 7384POPC   C3B25449  12.096  37.945   7.955
 7384POPC   C4B25450  12.107  37.916   7.655
 7385POPC   NC325451  43.929   6.638   9.455
 7385POPC   PO425452  43.844   6.623   9.155
 7385POPC   GL125453  43.911   6.628   8.855
 7385POPC   GL225454  43.824   6.577   8.855
 7385POPC   C1A25455  43.869   6.620   8.555
 7385POPC   D2A25456  43.931   6.631   8.255
 7385POPC   C3A25457  43.850   6.636   7.955
 7385POPC   C4A25458  43.859   6.695   7.655
 7385POPC   C1B25459  43.697   6.488   8.555
 7385POPC   C2B25460  43.753   6.485   8.255
 7385POPC   C3B25461  43.678   6.476   7.955
 7385POPC   C4B25462  43.692   6.453   7.655
 7386POPC   NC325463  12.089  34.618   9.455
 7386POPC   PO425464  12.036  34.608   9.155
 7386POPC   GL125465  12.113  34.532   8.855
 7386POPC   GL225466  12.193  34.560   8.855
 7386POPC   C1A25467  12.055  34.611   8.555
 7386POPC   D2A25468  12.102  34.581   8.255
 7386POPC   C3A25469  12.087  34.545   7.955
 7386POPC   C4A25470  12.092  34.577   7.655
 7386POPC   C1B25471  12.318  34.605   8.555
 7386POPC   C2B25472  12.341  34.548   8.255
 7386POPC   C3B25473  12.312  34.552   7.955
 7386POPC   C4B25474  12.338  34.591   7.655
 7387POPC   NC325475  22.196  14.422   9.455
 7387POPC   PO425476  22.168  14.412   9.155
 7387POPC   GL125477  22.156  14.356   8.855
 7387POPC   GL225478  22.025  14.383   8.855
 7387POPC   C1A25479  22.192  14.413   8.555
 7387POPC   D2A25480  22.166  14.401   8.255
 7387POPC   C3A25481  22.196  14.406   7.955
 7387POPC   C4A25482  22.153  14.358   7.655
 7387POPC   C1B25483  21.875  14.362   8.555
 7387POPC   C2B25484  21.924  14.381   8.255
 7387POPC   C3B25485  21.925  14.372   7.955
 7387POPC   C4B25486  21.953  14.374   7.655
 7388POPC   NC325487   2.749   8.147   9.455
 7388POPC   PO425488   2.791   8.157   9.155
 7388POPC   GL125489   2.724   8.234   8.855
 7388POPC   GL225490   2.814   8.324   8.855
 7388POPC   C1A25491   2.727   8.168   8.555
 7388POPC   D2A25492   2.773   8.205   8.255
 7388POPC   C3A25493   2.783   8.198   7.955
 7388POPC   C4A25494   2.769   8.166   7.655
 7388POPC   C1B25495   2.952   8.352   8.555
 7388POPC   C2B25496   2.956   8.360   8.255
 7388POPC   C3B25497   2.967   8.337   7.955
 7388POPC   C4B25498   2.893   8.406   7.655
 7389POPC   NC325499  42.359  22.155   9.455
 7389POPC   PO425500  42.338  22.207   9.155
 7389POPC   GL125501  42.291  22.193   8.855
 7389POPC   GL225502  42.249  22.146   8.855
 7389POPC   C1A25503  42.337  22.198   8.555
 7389POPC   D2A25504  42.335  22.169   8.255
 7389POPC   C3A25505  42.291  22.157   7.955
 7389POPC   C4A25506  42.337  22.124   7.655
 7389POPC   C1B25507  42.095  22.099   8.555
 7389POPC   C2B25508  42.042  22.078   8.255
 7389POPC   C3B25509  42.086  22.078   7.955
 7389POPC   C4B25510  42.133  22.141   7.655
 7390POPC   NC325511  31.458  30.703   9.455
 7390POPC   PO425512  31.477  30.683   9.155
 7390POPC   GL125513  31.453  30.705   8.855
 7390POPC   GL225514  31.509  30.793   8.855
 7390POPC   C1A25515  31.441  30.649   8.555
 7390POPC   D2A25516  31.438  30.659   8.255
 7390POPC   C3A25517  31.460  30.676   7.955
 7390POPC   C4A25518  31.519  30.709   7.655
 7390POPC   C1B25519  31.577  30.908   8.555
 7390POPC   C2B25520  31.577  30.903   8.255
 7390POPC   C3B25521  31.542  30.952   7.955
 7390POPC   C4B25522  31.591  30.902   7.655
 7391POPC   NC325523  41.551  18.312   9.455
 7391POPC   PO425524  41.564  18.332   9.155
 7391POPC   GL125525  41.529  18.252   8.855
 7391POPC   GL225526  41.471  18.392   8.855
 7391POPC   C1A25527  41.551  18.324   8.555
 7391POPC   D2A25528  41.552  18.255   8.255
 7391POPC   C3A25529  41.534  18.274   7.955
 7391POPC   C4A25530  41.521  18.290   7.655
 7391POPC   C1B25531  41.359  18.467   8.555
 7391POPC   C2B25532  41.354  18.505   8.255
 7391POPC   C3B25533  41.394  18.437   7.955
 7391POPC   C4B25534  41.407  18.471   7.655
 7392POPC   NC325535  28.370   0.453   9.455
 7392POPC   PO425536  28.404   0.473   9.155
 7392POPC   GL125537  28.338   0.472   8.855
 7392POPC   GL225538  28.201   0.398   8.855
 7392POPC   C1A25539  28.363   0.478   8.555
 7392POPC   D2A25540  28.355   0.458   8.255
 7392POPC   C3A25541  28.403   0.476   7.955
 7392POPC   C4A25542  28.397   0.417   7.655
 7392POPC   C1B25543  28.136   0.331   8.555
 7392POPC   C2B25544  28.158   0.409   8.255
 7392POPC   C3B25545  28.112   0.330   7.955
 7392POPC   C4B25546  28.156   0.330   7.655
 7393POPC   NC325547  35.343  33.823   9.455
 7393POPC   PO425548  35.358  33.781   9.155
 7393POPC   GL125549  35.376  33.750   8.855
 7393POPC   GL225550  35.428  33.714   8.855
 7393POPC   C1A25551  35.324  33.786   8.555
 7393POPC   D2A25552  35.319  33.754   8.255
 7393POPC   C3A25553  35.377  33.798   7.955
 7393POPC   C4A25554  35.340  33.788   7.655
 7393POPC   C1B25555  35.494  33.671   8.555
 7393POPC   C2B25556  35.510  33.602   8.255
 7393POPC   C3B25557  35.510  33.658   7.955
 7393POPC   C4B25558  35.539  33.614   7.655
 7394POPC   NC325559  19.085  13.649   9.455
 7394POPC   PO425560  19.089  13.637   9.155
 7394POPC   GL125561  19.087  13.621   8.855
 7394POPC   GL225562  18.983  13.700   8.855
 7394POPC   C1A25563  19.065  13.586   8.555
 7394POPC   D2A25564  19.040  13.662   8.255
 7394POPC   C3A25565  19.036  13.604   7.955
 7394POPC   C4A25566  19.011  13.659   7.655
 7394POPC   C1B25567  18.921  13.841   8.555
 7394POPC   C2B25568  18.906  13.867   8.255
 7394POPC   C3B25569  18.950  13.855   7.955
 7394POPC   C4B25570  18.925  13.799   7.655
 7395POPC   NC325571  32.993  32.225   9.455
 7395POPC   PO425572  32.981  32.246   9.155
 7395POPC   GL125573  33.024  32.289   8.855
 7395POPC   GL225574  32.866  32.250   8.855
 7395POPC   C1A25575  33.034  32.206   8.555
 7395POPC   D2A25576  32.987  32.218   8.255
 7395POPC   C3A25577  33.073  32.291   7.955
 7395POPC   C4A25578  33.039  32.237   7.655
 7395POPC   C1B25579  32.775  32.331   8.555
 7395POPC   C2B25580  32.747  32.292   8.255
 7395POPC   C3B25581  32.777  32.251   7.955
 7395POPC   C4B25582  32.810  32.328   7.655
 7396POPC   NC325583  29.900  37.645   9.455
 7396POPC   PO425584  29.887  37.706   9.155
 7396POPC   GL125585  29.912  37.714   8.855
 7396POPC   GL225586  29.874  37.822   8.855
 7396POPC   C1A25587  29.952  37.687   8.555
 7396POPC   D2A25588  29.917  37.651   8.255
 7396POPC   C3A25589  29.948  37.697   7.955
 7396POPC   C4A25590  29.938  37.675   7.655
 7396POPC   C1B25591  29.859  37.926   8.555
 7396POPC   C2B25592  29.858  37.940   8.255
 7396POPC   C3B25593  29.859  37.959   7.955
 7396POPC   C4B25594  29.870  37.929   7.655
 7397POPC   NC325595   7.451   3.504   9.455
 7397POPC   PO425596   7.382   3.576   9.155
 7397POPC   GL125597   7.405   3.546   8.855
 7397POPC   GL225598   7.513   3.466   8.855
 7397POPC   C1A25599   7.407   3.524   8.555
 7397POPC   D2A25600   7.402   3.590   8.255
 7397POPC   C3A25601   7.409   3.585   7.955
 7397POPC   C4A25602   7.392   3.563   7.655
 7397POPC   C1B25603   7.615   3.388   8.555
 7397POPC   C2B25604   7.615   3.386   8.255
 7397POPC   C3B25605   7.579   3.345   7.955
 7397POPC   C4B25606   7.610   3.392   7.655
 7398POPC   NC325607   5.122   6.645   9.455
 7398POPC   PO425608   5.118   6.657   9.155
 7398POPC   GL125609   5.131   6.651   8.855
 7398POPC   GL225610   5.125   6.539   8.855
 7398POPC   C1A25611   5.082   6.678   8.555
 7398POPC   D2A25612   5.109   6.677   8.255
 7398POPC   C3A25613   5.101   6.671   7.955
 7398POPC   C4A25614   5.087   6.621   7.655
 7398POPC   C1B25615   5.054   6.412   8.555
 7398POPC   C2B25616   5.067   6.429   8.255
 7398POPC   C3B25617   5.086   6.381   7.955
 7398POPC   C4B25618   5.067   6.361   7.655
 7399POPC   NC325619  16.689   9.777   9.455
 7399POPC   PO425620  16.716   9.714   9.155
 7399POPC   GL125621  16.692   9.716   8.855
 7399POPC   GL225622  16.636   9.672   8.855
 7399POPC   C1A25623  16.701   9.792   8.555
 7399POPC   D2A25624  16.754   9.704   8.255
 7399POPC   C3A25625  16.726   9.702   7.955
 7399POPC   C4A25626  16.691   9.772   7.655
 7399POPC   C1B25627  16.584   9.611   8.555
 7399POPC   C2B25628  16.538   9.586   8.255
 7399POPC   C3B25629  16.548   9.547   7.955
 7399POPC   C4B25630  16.505   9.590   7.655
 7400POPC   NC325631  16.745  21.388   9.455
 7400POPC   PO425632  16.700  21.347   9.155
 7400POPC   GL125633  16.700  21.375   8.855
 7400POPC   GL225634  16.806  21.360   8.855
 7400POPC   C1A25635  16.711  21.406   8.555
 7400POPC   D2A25636  16.740  21.357   8.255
 7400POPC   C3A25637  16.689  21.368   7.955
 7400POPC   C4A25638  16.730  21.410   7.655
 7400POPC   C1B25639  16.971  21.314   8.555
 7400POPC   C2B25640  16.969  21.367   8.255
 7400POPC   C3B25641  17.018  21.384   7.955
 7400POPC   C4B25642  16.953  21.376   7.655
 7401POPC   NC325643  29.159  15.965   9.455
 7401POPC   PO425644  29.168  15.946   9.155
 7401POPC   GL125645  29.181  15.917   8.855
 7401POPC   GL225646  29.025  15.941   8.855
 7401POPC   C1A25647  29.181  15.959   8.555
 7401POPC   D2A25648  29.189  15.963   8.255
 7401POPC   C3A25649  29.139  15.979   7.955
 7401POPC   C4A25650  29.153  15.968   7.655
 7401POPC   C1B25651  28.944  15.877   8.555
 7401POPC   C2B25652  28.902  15.873   8.255
 7401POPC   C3B25653  28.933  15.890   7.955
 7401POPC   C4B25654  28.870  15.845   7.655
 7402POPC   NC325655  13.612   5.136   9.455
 7402POPC   PO425656  13.593   5.069   9.155
 7402POPC   GL125657  13.602   5.090   8.855
 7402POPC   GL225658  13.553   5.075   8.855
 7402POPC   C1A25659  13.641   5.129   8.555
 7402POPC   D2A25660  13.663   5.138   8.255
 7402POPC   C3A25661  13.620   5.081   7.955
 7402POPC   C4A25662  13.592   5.046   7.655
 7402POPC   C1B25663  13.418   5.089   8.555
 7402POPC   C2B25664  13.398   5.086   8.255
 7402POPC   C3B25665  13.398   5.081   7.955
 7402POPC   C4B25666  13.335   5.021   7.655
 7403POPC   NC325667   4.315   2.038   9.455
 7403POPC   PO425668   4.320   2.002   9.155
 7403POPC   GL125669   4.276   1.968   8.855
 7403POPC   GL225670   4.221   1.919   8.855
 7403POPC   C1A25671   4.295   2.010   8.555
 7403POPC   D2A25672   4.279   2.018   8.255
 7403POPC   C3A25673   4.359   1.991   7.955
 7403POPC   C4A25674   4.270   1.941   7.655
 7403POPC   C1B25675   4.062   1.948   8.555
 7403POPC   C2B25676   4.045   1.885   8.255
 7403POPC   C3B25677   4.064   1.882   7.955
 7403POPC   C4B25678   4.094   1.945   7.655
 7404POPC   NC325679  28.413  37.678   9.455
 7404POPC   PO425680  28.368  37.663   9.155
 7404POPC   GL125681  28.369  37.721   8.855
 7404POPC   GL225682  28.277  37.706   8.855
 7404POPC   C1A25683  28.406  37.704   8.555
 7404POPC   D2A25684  28.410  37.658   8.255
 7404POPC   C3A25685  28.385  37.719   7.955
 7404POPC   C4A25686  28.355  37.681   7.655
 7404POPC   C1B25687  28.093  37.668   8.555
 7404POPC   C2B25688  28.160  37.647   8.255
 7404POPC   C3B25689  28.112  37.709   7.955
 7404POPC   C4B25690  28.145  37.704   7.655
 7405POPC   NC325691  11.313  21.369   9.455
 7405POPC   PO425692  11.319  21.389   9.155
 7405POPC   GL125693  11.315  21.405   8.855
 7405POPC   GL225694  11.444  21.387   8.855
 7405POPC   C1A25695  11.340  21.390   8.555
 7405POPC   D2A25696  11.271  21.387   8.255
 7405POPC   C3A25697  11.322  21.417   7.955
 7405POPC   C4A25698  11.279  21.431   7.655
 7405POPC   C1B25699  11.587  21.408   8.555
 7405POPC   C2B25700  11.523  21.350   8.255
 7405POPC   C3B25701  11.524  21.333   7.955
 7405POPC   C4B25702  11.580  21.395   7.655
 7406POPC   NC325703  22.129  16.686   9.455
 7406POPC   PO425704  22.141  16.778   9.155
 7406POPC   GL125705  22.148  16.770   8.855
 7406POPC   GL225706  22.255  16.725   8.855
 7406POPC   C1A25707  22.187  16.704   8.555
 7406POPC   D2A25708  22.117  16.749   8.255
 7406POPC   C3A25709  22.124  16.767   7.955
 7406POPC   C4A25710  22.137  16.712   7.655
 7406POPC   C1B25711  22.377  16.693   8.555
 7406POPC   C2B25712  22.374  16.657   8.255
 7406POPC   C3B25713  22.398  16.661   7.955
 7406POPC   C4B25714  22.439  16.629   7.655
 7407POPC   NC325715   2.742  26.029   9.455
 7407POPC   PO425716   2.717  26.073   9.155
 7407POPC   GL125717   2.757  26.041   8.855
 7407POPC   GL225718   2.695  25.957   8.855
 7407POPC   C1A25719   2.776  26.088   8.555
 7407POPC   D2A25720   2.753  26.014   8.255
 7407POPC   C3A25721   2.779  26.003   7.955
 7407POPC   C4A25722   2.755  26.068   7.655
 7407POPC   C1B25723   2.559  25.824   8.555
 7407POPC   C2B25724   2.653  25.835   8.255
 7407POPC   C3B25725   2.600  25.821   7.955
 7407POPC   C4B25726   2.639  25.837   7.655
 7408POPC   NC325727  27.579  27.609   9.455
 7408POPC   PO425728  27.612  27.561   9.155
 7408POPC   GL125729  27.584  27.575   8.855
 7408POPC   GL225730  27.558  27.731   8.855
 7408POPC   C1A25731  27.633  27.563   8.555
 7408POPC   D2A25732  27.616  27.589   8.255
 7408POPC   C3A25733  27.556  27.589   7.955
 7408POPC   C4A25734  27.640  27.577   7.655
 7408POPC   C1B25735  27.427  27.758   8.555
 7408POPC   C2B25736  27.462  27.793   8.255
 7408POPC   C3B25737  27.455  27.765   7.955
 7408POPC   C4B25738  27.391  27.811   7.655
 7409POPC   NC325739  34.623   4.302   9.455
 7409POPC   PO425740  34.621   4.297   9.155
 7409POPC   GL125741  34.605   4.330   8.855
 7409POPC   GL225742  34.633   4.244   8.855
 7409POPC   C1A25743  34.615   4.288   8.555
 7409POPC   D2A25744  34.602   4.280   8.255
 7409POPC   C3A25745  34.572   4.322   7.955
 7409POPC   C4A25746  34.535   4.317   7.655
 7409POPC   C1B25747  34.755   4.082   8.555
 7409POPC   C2B25748  34.688   4.094   8.255
 7409POPC   C3B25749  34.690   4.130   7.955
 7409POPC   C4B25750  34.732   4.124   7.655
 7410POPC   NC325751  29.191  15.194   9.455
 7410POPC   PO425752  29.130  15.212   9.155
 7410POPC   GL125753  29.107  15.217   8.855
 7410POPC   GL225754  29.189  15.023   8.855
 7410POPC   C1A25755  29.191  15.172   8.555
 7410POPC   D2A25756  29.154  15.183   8.255
 7410POPC   C3A25757  29.142  15.183   7.955
 7410POPC   C4A25758  29.163  15.133   7.655
 7410POPC   C1B25759  29.126  14.939   8.555
 7410POPC   C2B25760  29.178  14.890   8.255
 7410POPC   C3B25761  29.188  14.891   7.955
 7410POPC   C4B25762  29.161  14.909   7.655
 7411POPC   NC325763  41.529  31.431   9.455
 7411POPC   PO425764  41.512  31.464   9.155
 7411POPC   GL125765  41.546  31.511   8.855
 7411POPC   GL225766  41.469  31.370   8.855
 7411POPC   C1A25767  41.521  31.455   8.555
 7411POPC   D2A25768  41.533  31.515   8.255
 7411POPC   C3A25769  41.607  31.492   7.955
 7411POPC   C4A25770  41.593  31.490   7.655
 7411POPC   C1B25771  41.427  31.303   8.555
 7411POPC   C2B25772  41.352  31.324   8.255
 7411POPC   C3B25773  41.356  31.326   7.955
 7411POPC   C4B25774  41.411  31.235   7.655
 7412POPC   NC325775  32.296  43.926   9.455
 7412POPC   PO425776  32.287  43.873   9.155
 7412POPC   GL125777  32.263  43.855   8.855
 7412POPC   GL225778  32.136  43.799   8.855
 7412POPC   C1A25779  32.199  43.847   8.555
 7412POPC   D2A25780  32.214  43.846   8.255
 7412POPC   C3A25781  32.256  43.843   7.955
 7412POPC   C4A25782  32.203  43.914   7.655
 7412POPC   C1B25783  32.074  43.782   8.555
 7412POPC   C2B25784  32.065  43.722   8.255
 7412POPC   C3B25785  32.029  43.740   7.955
 7412POPC   C4B25786  32.027  43.753   7.655
 7413POPC   NC325787  10.495  43.885   9.455
 7413POPC   PO425788  10.553  43.851   9.155
 7413POPC   GL125789  10.479  43.912   8.855
 7413POPC   GL225790  10.547  43.759   8.855
 7413POPC   C1A25791  10.478  43.922   8.555
 7413POPC   D2A25792  10.502  43.886   8.255
 7413POPC   C3A25793  10.534  43.842   7.955
 7413POPC   C4A25794  10.541  43.902   7.655
 7413POPC   C1B25795  10.692  43.695   8.555
 7413POPC   C2B25796  10.620  43.640   8.255
 7413POPC   C3B25797  10.706  43.647   7.955
 7413POPC   C4B25798  10.696  43.645   7.655
 7414POPC   NC325799  43.871  43.857   9.455
 7414POPC   PO425800  43.877  43.910   9.155
 7414POPC   GL125801  43.862  43.839   8.855
 7414POPC   GL225802  43.741  43.982   8.855
 7414POPC   C1A25803  43.878  43.863   8.555
 7414POPC   D2A25804  43.844  43.894   8.255
 7414POPC   C3A25805  43.901  43.891   7.955
 7414POPC   C4A25806  43.877  43.899   7.655
 7414POPC   C1B25807  43.627  43.969   8.555
 7414POPC   C2B25808  43.699  44.036   8.255
 7414POPC   C3B25809  43.632  43.986   7.955
 7414POPC   C4B25810  43.694  44.026   7.655
 7415POPC   NC325811  40.036  14.398   9.455
 7415POPC   PO425812  40.006  14.398   9.155
 7415POPC   GL125813  39.985  14.444   8.855
 7415POPC   GL225814  40.156  14.376   8.855
 7415POPC   C1A25815  40.038  14.395   8.555
 7415POPC   D2A25816  39.994  14.436   8.255
 7415POPC   C3A25817  39.968  14.420   7.955
 7415POPC   C4A25818  39.979  14.374   7.655
 7415POPC   C1B25819  40.245  14.258   8.555
 7415POPC   C2B25820  40.212  14.272   8.255
 7415POPC   C3B25821  40.241  14.244   7.955
 7415POPC   C4B25822  40.241  14.266   7.655
 7416POPC   NC325823   1.225  12.031   9.455
 7416POPC   PO425824   1.237  12.071   9.155
 7416POPC   GL125825   1.234  12.049   8.855
 7416POPC   GL225826   1.091  12.086   8.855
 7416POPC   C1A25827   1.229  12.091   8.555
 7416POPC   D2A25828   1.258  12.091   8.255
 7416POPC   C3A25829   1.204  12.044   7.955
 7416POPC   C4A25830   1.250  12.123   7.655
 7416POPC   C1B25831   0.973  12.037   8.555
 7416POPC   C2B25832   0.973  12.024   8.255
 7416POPC   C3B25833   0.938  12.076   7.955
 7416POPC   C4B25834   0.982  12.036   7.655
 7417POPC   NC325835  22.126  42.291   9.455
 7417POPC   PO425836  22.204  42.363   9.155
 7417POPC   GL125837  22.175  42.335   8.855
 7417POPC   GL225838  22.001  42.303   8.855
 7417POPC   C1A25839  22.123  42.300   8.555
 7417POPC   D2A25840  22.166  42.298   8.255
 7417POPC   C3A25841  22.146  42.364   7.955
 7417POPC   C4A25842  22.208  42.305   7.655
 7417POPC   C1B25843  21.906  42.269   8.555
 7417POPC   C2B25844  21.968  42.305   8.255
 7417POPC   C3B25845  21.869  42.247   7.955
 7417POPC   C4B25846  21.883  42.302   7.655
 7418POPC   NC325847   4.310  32.288   9.455
 7418POPC   PO425848   4.355  32.250   9.155
 7418POPC   GL125849   4.340  32.227   8.855
 7418POPC   GL225850   4.363  32.115   8.855
 7418POPC   C1A25851   4.316  32.208   8.555
 7418POPC   D2A25852   4.361  32.288   8.255
 7418POPC   C3A25853   4.321  32.211   7.955
 7418POPC   C4A25854   4.359  32.278   7.655
 7418POPC   C1B25855   4.409  31.964   8.555
 7418POPC   C2B25856   4.358  32.043   8.255
 7418POPC   C3B25857   4.382  31.967   7.955
 7418POPC   C4B25858   4.365  32.016   7.655
 7419POPC   NC325859  36.867  39.190   9.455
 7419POPC   PO425860  36.941  39.248   9.155
 7419POPC   GL125861  36.910  39.265   8.855
 7419POPC   GL225862  36.964  39.104   8.855
 7419POPC   C1A25863  36.899  39.280   8.555
 7419POPC   D2A25864  36.938  39.252   8.255
 7419POPC   C3A25865  36.899  39.273   7.955
 7419POPC   C4A25866  36.901  39.281   7.655
 7419POPC   C1B25867  36.959  38.956   8.555
 7419POPC   C2B25868  36.891  38.970   8.255
 7419POPC   C3B25869  36.917  39.030   7.955
 7419POPC   C4B25870  36.932  38.947   7.655
 7420POPC   NC325871   0.482  28.357   9.455
 7420POPC   PO425872   0.468  28.374   9.155
 7420POPC   GL125873   0.395  28.415   8.855
 7420POPC   GL225874   0.346  28.308   8.855
 7420POPC   C1A25875   0.434  28.355   8.555
 7420POPC   D2A25876   0.461  28.351   8.255
 7420POPC   C3A25877   0.455  28.397   7.955
 7420POPC   C4A25878   0.428  28.362   7.655
 7420POPC   C1B25879   0.243  28.179   8.555
 7420POPC   C2B25880   0.286  28.242   8.255
 7420POPC   C3B25881   0.273  28.193   7.955
 7420POPC   C4B25882   0.193  28.225   7.655
 7421POPC   NC325883  38.501  15.938   9.455
 7421POPC   PO425884  38.436  15.948   9.155
 7421POPC   GL125885  38.436  15.955   8.855
 7421POPC   GL225886  38.586  15.888   8.855
 7421POPC   C1A25887  38.461  15.962   8.555
 7421POPC   D2A25888  38.419  15.976   8.255
 7421POPC   C3A25889  38.447  15.975   7.955
 7421POPC   C4A25890  38.434  15.928   7.655
 7421POPC   C1B25891  38.652  15.809   8.555
 7421POPC   C2B25892  38.592  15.802   8.255
 7421POPC   C3B25893  38.589  15.810   7.955
 7421POPC   C4B25894  38.579  15.819   7.655
 7422POPC   NC325895  33.028  33.771   9.455
 7422POPC   PO425896  33.037  33.787   9.155
 7422POPC   GL125897  33.032  33.842   8.855
 7422POPC   GL225898  33.059  33.733   8.855
 7422POPC   C1A25899  33.035  33.829   8.555
 7422POPC   D2A25900  32.983  33.780   8.255
 7422POPC   C3A25901  33.032  33.828   7.955
 7422POPC   C4A25902  33.051  33.773   7.655
 7422POPC   C1B25903  33.136  33.596   8.555
 7422POPC   C2B25904  33.162  33.607   8.255
 7422POPC   C3B25905  33.194  33.639   7.955
 7422POPC   C4B25906  33.157  33.606   7.655
 7423POPC   NC325907   4.289  10.531   9.455
 7423POPC   PO425908   4.360  10.574   9.155
 7423POPC   GL125909   4.271  10.489   8.855
 7423POPC   GL225910   4.331  10.688   8.855
 7423POPC   C1A25911   4.308  10.529   8.555
 7423POPC   D2A25912   4.283  10.552   8.255
 7423POPC   C3A25913   4.339  10.531   7.955
 7423POPC   C4A25914   4.268  10.573   7.655
 7423POPC   C1B25915   4.391  10.793   8.555
 7423POPC   C2B25916   4.372  10.747   8.255
 7423POPC   C3B25917   4.370  10.724   7.955
 7423POPC   C4B25918   4.370  10.789   7.655
 7424POPC   NC325919  22.141  28.361   9.455
 7424POPC   PO425920  22.168  28.360   9.155
 7424POPC   GL125921  22.204  28.363   8.855
 7424POPC   GL225922  22.249  28.308   8.855
 7424POPC   C1A25923  22.183  28.327   8.555
 7424POPC   D2A25924  22.162  28.338   8.255
 7424POPC   C3A25925  22.178  28.373   7.955
 7424POPC   C4A25926  22.134  28.325   7.655
 7424POPC   C1B25927  22.353  28.267   8.555
 7424POPC   C2B25928  22.393  28.310   8.255
 7424POPC   C3B25929  22.351  28.266   7.955
 7424POPC   C4B25930  22.404  28.242   7.655
 7425POPC   NC325931  15.907  18.295   9.455
 7425POPC   PO425932  15.961  18.268   9.155
 7425POPC   GL125933  15.946  18.287   8.855
 7425POPC   GL225934  15.962  18.407   8.855
 7425POPC   C1A25935  15.990  18.331   8.555
 7425POPC   D2A25936  15.939  18.305   8.255
 7425POPC   C3A25937  15.906  18.277   7.955
 7425POPC   C4A25938  15.922  18.236   7.655
 7425POPC   C1B25939  15.942  18.509   8.555
 7425POPC   C2B25940  15.897  18.554   8.255
 7425POPC   C3B25941  15.914  18.506   7.955
 7425POPC   C4B25942  15.950  18.580   7.655
 7426POPC   NC325943  21.417  32.214   9.455
 7426POPC   PO425944  21.379  32.236   9.155
 7426POPC   GL125945  21.338  32.272   8.855
 7426POPC   GL225946  21.441  32.380   8.855
 7426POPC   C1A25947  21.361  32.289   8.555
 7426POPC   D2A25948  21.387  32.225   8.255
 7426POPC   C3A25949  21.387  32.231   7.955
 7426POPC   C4A25950  21.337  32.198   7.655
 7426POPC   C1B25951  21.536  32.462   8.555
 7426POPC   C2B25952  21.502  32.502   8.255
 7426POPC   C3B25953  21.518  32.461   7.955
 7426POPC   C4B25954  21.558  32.466   7.655
 7427POPC   NC325955  38.412  35.341   9.455
 7427POPC   PO425956  38.468  35.309   9.155
 7427POPC   GL125957  38.498  35.336   8.855
 7427POPC   GL225958  38.344  35.263   8.855
 7427POPC   C1A25959  38.452  35.309   8.555
 7427POPC   D2A25960  38.503  35.341   8.255
 7427POPC   C3A25961  38.488  35.358   7.955
 7427POPC   C4A25962  38.431  35.326   7.655
 7427POPC   C1B25963  38.205  35.249   8.555
 7427POPC   C2B25964  38.192  35.219   8.255
 7427POPC   C3B25965  38.225  35.223   7.955
 7427POPC   C4B25966  38.255  35.280   7.655
 7428POPC   NC325967  32.986  33.001   9.455
 7428POPC   PO425968  32.978  33.000   9.155
 7428POPC   GL125969  33.023  33.046   8.855
 7428POPC   GL225970  32.935  32.898   8.855
 7428POPC   C1A25971  33.010  33.055   8.555
 7428POPC   D2A25972  32.978  33.049   8.255
 7428POPC   C3A25973  33.057  33.037   7.955
 7428POPC   C4A25974  32.990  33.030   7.655
 7428POPC   C1B25975  32.884  32.803   8.555
 7428POPC   C2B25976  32.886  32.803   8.255
 7428POPC   C3B25977  32.932  32.842   7.955
 7428POPC   C4B25978  32.937  32.838   7.655
 7429POPC   NC325979  43.100  28.331   9.455
 7429POPC   PO425980  43.121  28.378   9.155
 7429POPC   GL125981  43.133  28.375   8.855
 7429POPC   GL225982  42.983  28.292   8.855
 7429POPC   C1A25983  43.102  28.378   8.555
 7429POPC   D2A25984  43.069  28.388   8.255
 7429POPC   C3A25985  43.100  28.386   7.955
 7429POPC   C4A25986  43.091  28.357   7.655
 7429POPC   C1B25987  42.867  28.318   8.555
 7429POPC   C2B25988  42.887  28.283   8.255
 7429POPC   C3B25989  42.829  28.291   7.955
 7429POPC   C4B25990  42.908  28.353   7.655
 7430POPC   NC325991  20.565  29.921   9.455
 7430POPC   PO425992  20.622  29.903   9.155
 7430POPC   GL125993  20.635  29.887   8.855
 7430POPC   GL225994  20.707  29.898   8.855
 7430POPC   C1A25995  20.651  29.886   8.555
 7430POPC   D2A25996  20.635  29.912   8.255
 7430POPC   C3A25997  20.639  29.947   7.955
 7430POPC   C4A25998  20.580  29.908   7.655
 7430POPC   C1B25999  20.898  29.893   8.555
 7430POPC   C2B26000  20.902  29.831   8.255
 7430POPC   C3B26001  20.906  29.840   7.955
 7430POPC   C4B26002  20.890  29.842   7.655
 7431POPC   NC326003  34.623  35.351   9.455
 7431POPC   PO426004  34.613  35.401   9.155
 7431POPC   GL126005  34.623  35.318   8.855
 7431POPC   GL226006  34.480  35.441   8.855
 7431POPC   C1A26007  34.575  35.381   8.555
 7431POPC   D2A26008  34.545  35.389   8.255
 7431POPC   C3A26009  34.569  35.321   7.955
 7431POPC   C4A26010  34.611  35.392   7.655
 7431POPC   C1B26011  34.457  35.581   8.555
 7431POPC   C2B26012  34.437  35.583   8.255
 7431POPC   C3B26013  34.407  35.572   7.955
 7431POPC   C4B26014  34.497  35.565   7.655
 7432POPC   NC326015  38.426  16.716   9.455
 7432POPC   PO426016  38.480  16.717   9.155
 7432POPC   GL126017  38.450  16.707   8.855
 7432POPC   GL226018  38.447  16.845   8.855
 7432POPC   C1A26019  38.492  16.763   8.555
 7432POPC   D2A26020  38.480  16.732   8.255
 7432POPC   C3A26021  38.478  16.683   7.955
 7432POPC   C4A26022  38.499  16.776   7.655
 7432POPC   C1B26023  38.503  16.956   8.555
 7432POPC   C2B26024  38.458  16.987   8.255
 7432POPC   C3B26025  38.508  16.970   7.955
 7432POPC   C4B26026  38.445  17.008   7.655
 7433POPC   NC326027  22.190   2.766   9.455
 7433POPC   PO426028  22.113   2.802   9.155
 7433POPC   GL126029  22.152   2.791   8.855
 7433POPC   GL226030  22.199   2.647   8.855
 7433POPC   C1A26031  22.204   2.795   8.555
 7433POPC   D2A26032  22.204   2.778   8.255
 7433POPC   C3A26033  22.114   2.755   7.955
 7433POPC   C4A26034  22.197   2.741   7.655
 7433POPC   C1B26035  22.326   2.593   8.555
 7433POPC   C2B26036  22.319   2.554   8.255
 7433POPC   C3B26037  22.268   2.525   7.955
 7433POPC   C4B26038  22.299   2.531   7.655
 7434POPC   NC326039  19.027  12.823   9.455
 7434POPC   PO426040  19.035  12.849   9.155
 7434POPC   GL126041  19.009  12.809   8.855
 7434POPC   GL226042  19.153  12.784   8.855
 7434POPC   C1A26043  19.049  12.839   8.555
 7434POPC   D2A26044  19.107  12.829   8.255
 7434POPC   C3A26045  19.077  12.847   7.955
 7434POPC   C4A26046  19.058  12.887   7.655
 7434POPC   C1B26047  19.165  12.646   8.555
 7434POPC   C2B26048  19.183  12.603   8.255
 7434POPC   C3B26049  19.224  12.656   7.955
 7434POPC   C4B26050  19.231  12.649   7.655
 7435POPC   NC326051  42.344   3.577   9.455
 7435POPC   PO426052  42.372   3.513   9.155
 7435POPC   GL126053  42.289   3.534   8.855
 7435POPC   GL226054  42.443   3.459   8.855
 7435POPC   C1A26055  42.358   3.511   8.555
 7435POPC   D2A26056  42.361   3.586   8.255
 7435POPC   C3A26057  42.367   3.526   7.955
 7435POPC   C4A26058  42.288   3.549   7.655
 7435POPC   C1B26059  42.425   3.344   8.555
 7435POPC   C2B26060  42.417   3.340   8.255
 7435POPC   C3B26061  42.499   3.280   7.955
 7435POPC   C4B26062  42.435   3.324   7.655
 7436POPC   NC326063  22.185  33.804   9.455
 7436POPC   PO426064  22.164  33.796   9.155
 7436POPC   GL126065  22.150  33.784   8.855
 7436POPC   GL226066  22.247  33.937   8.855
 7436POPC   C1A26067  22.120  33.813   8.555
 7436POPC   D2A26068  22.141  33.792   8.255
 7436POPC   C3A26069  22.123  33.782   7.955
 7436POPC   C4A26070  22.196  33.816   7.655
 7436POPC   C1B26071  22.298  34.029   8.555
 7436POPC   C2B26072  22.308  34.028   8.255
 7436POPC   C3B26073  22.316  33.998   7.955
 7436POPC   C4B26074  22.277  34.044   7.655
 7437POPC   NC326075  38.474  22.182   9.455
 7437POPC   PO426076  38.484  22.180   9.155
 7437POPC   GL126077  38.482  22.210   8.855
 7437POPC   GL226078  38.550  22.203   8.855
 7437POPC   C1A26079  38.505  22.161   8.555
 7437POPC   D2A26080  38.504  22.209   8.255
 7437POPC   C3A26081  38.481  22.209   7.955
 7437POPC   C4A26082  38.477  22.209   7.655
 7437POPC   C1B26083  38.732  22.144   8.555
 7437POPC   C2B26084  38.726  22.198   8.255
 7437POPC   C3B26085  38.694  22.112   7.955
 7437POPC   C4B26086  38.662  22.114   7.655
 7438POPC   NC326087   7.384  33.800   9.455
 7438POPC   PO426088   7.380  33.783   9.155
 7438POPC   GL126089   7.386  33.794   8.855
 7438POPC   GL226090   7.414  33.876   8.855
 7438POPC   C1A26091   7.443  33.795   8.555
 7438POPC   D2A26092   7.451  33.819   8.255
 7438POPC   C3A26093   7.433  33.845   7.955
 7438POPC   C4A26094   7.421  33.848   7.655
 7438POPC   C1B26095   7.438  34.062   8.555
 7438POPC   C2B26096   7.439  34.064   8.255
 7438POPC   C3B26097   7.414  34.034   7.955
 7438POPC   C4B26098   7.413  34.049   7.655
 7439POPC   NC326099  37.642  26.077   9.455
 7439POPC   PO426100  37.633  26.033   9.155
 7439POPC   GL126101  37.647  26.001   8.855
 7439POPC   GL226102  37.781  26.101   8.855
 7439POPC   C1A26103  37.693  26.075   8.555
 7439POPC   D2A26104  37.676  26.041   8.255
 7439POPC   C3A26105  37.717  26.070   7.955
 7439POPC   C4A26106  37.644  26.009   7.655
 7439POPC   C1B26107  37.869  26.165   8.555
 7439POPC   C2B26108  37.878  26.126   8.255
 7439POPC   C3B26109  37.870  26.116   7.955
 7439POPC   C4B26110  37.896  26.121   7.655
 7440POPC   NC326111  15.228   1.959   9.455
 7440POPC   PO426112  15.151   2.036   9.155
 7440POPC   GL126113  15.227   1.994   8.855
 7440POPC   GL226114  15.017   1.975   8.855
 7440POPC   C1A26115  15.164   1.990   8.555
 7440POPC   D2A26116  15.186   2.002   8.255
 7440POPC   C3A26117  15.204   2.011   7.955
 7440POPC   C4A26118  15.227   1.992   7.655
 7440POPC   C1B26119  14.917   2.060   8.555
 7440POPC   C2B26120  14.944   2.054   8.255
 7440POPC   C3B26121  14.911   2.021   7.955
 7440POPC   C4B26122  14.904   2.003   7.655
 7441POPC   NC326123   5.077  37.690   9.455
 7441POPC   PO426124   5.114  37.715   9.155
 7441POPC   GL126125   5.107  37.631   8.855
 7441POPC   GL226126   5.202  37.674   8.855
 7441POPC   C1A26127   5.113  37.702   8.555
 7441POPC   D2A26128   5.047  37.633   8.255
 7441POPC   C3A26129   5.120  37.689   7.955
 7441POPC   C4A26130   5.096  37.692   7.655
 7441POPC   C1B26131   5.295  37.721   8.555
 7441POPC   C2B26132   5.352  37.768   8.255
 7441POPC   C3B26133   5.328  37.745   7.955
 7441POPC   C4B26134   5.340  37.731   7.655
 7442POPC   NC326135  37.656  26.853   9.455
 7442POPC   PO426136  37.721  26.796   9.155
 7442POPC   GL126137  37.686  26.776   8.855
 7442POPC   GL226138  37.593  26.729   8.855
 7442POPC   C1A26139  37.662  26.784   8.555
 7442POPC   D2A26140  37.672  26.805   8.255
 7442POPC   C3A26141  37.725  26.826   7.955
 7442POPC   C4A26142  37.724  26.780   7.655
 7442POPC   C1B26143  37.592  26.578   8.555
 7442POPC   C2B26144  37.624  26.547   8.255
 7442POPC   C3B26145  37.606  26.568   7.955
 7442POPC   C4B26146  37.561  26.546   7.655
 7443POPC   NC326147  29.172  21.402   9.455
 7443POPC   PO426148  29.172  21.377   9.155
 7443POPC   GL126149  29.156  21.385   8.855
 7443POPC   GL226150  29.089  21.305   8.855
 7443POPC   C1A26151  29.134  21.382   8.555
 7443POPC   D2A26152  29.158  21.407   8.255
 7443POPC   C3A26153  29.097  21.359   7.955
 7443POPC   C4A26154  29.125  21.371   7.655
 7443POPC   C1B26155  28.976  21.248   8.555
 7443POPC   C2B26156  28.956  21.195   8.255
 7443POPC   C3B26157  28.943  21.236   7.955
 7443POPC   C4B26158  29.014  21.257   7.655
 7444POPC   NC326159   5.897  30.711   9.455
 7444POPC   PO426160   5.857  30.704   9.155
 7444POPC   GL126161   5.887  30.671   8.855
 7444POPC   GL226162   5.758  30.701   8.855
 7444POPC   C1A26163   5.893  30.742   8.555
 7444POPC   D2A26164   5.863  30.695   8.255
 7444POPC   C3A26165   5.839  30.701   7.955
 7444POPC   C4A26166   5.886  30.743   7.655
 7444POPC   C1B26167   5.614  30.681   8.555
 7444POPC   C2B26168   5.665  30.673   8.255
 7444POPC   C3B26169   5.654  30.675   7.955
 7444POPC   C4B26170   5.591  30.710   7.655
 7445POPC   NC326171  27.610   3.506   9.455
 7445POPC   PO426172  27.550   3.579   9.155
 7445POPC   GL126173  27.566   3.574   8.855
 7445POPC   GL226174  27.440   3.543   8.855
 7445POPC   C1A26175  27.626   3.578   8.555
 7445POPC   D2A26176  27.549   3.560   8.255
 7445POPC   C3A26177  27.622   3.535   7.955
 7445POPC   C4A26178  27.589   3.501   7.655
 7445POPC   C1B26179  27.334   3.537   8.555
 7445POPC   C2B26180  27.371   3.519   8.255
 7445POPC   C3B26181  27.352   3.586   7.955
 7445POPC   C4B26182  27.388   3.502   7.655
 7446POPC   NC326183  39.268  42.329   9.455
 7446POPC   PO426184  39.190  42.332   9.155
 7446POPC   GL126185  39.204  42.343   8.855
 7446POPC   GL226186  39.207  42.460   8.855
 7446POPC   C1A26187  39.202  42.301   8.555
 7446POPC   D2A26188  39.230  42.312   8.255
 7446POPC   C3A26189  39.212  42.365   7.955
 7446POPC   C4A26190  39.241  42.381   7.655
 7446POPC   C1B26191  39.121  42.522   8.555
 7446POPC   C2B26192  39.116  42.575   8.255
 7446POPC   C3B26193  39.161  42.608   7.955
 7446POPC   C4B26194  39.114  42.529   7.655
 7447POPC   NC326195  18.295  42.310   9.455
 7447POPC   PO426196  18.284  42.293   9.155
 7447POPC   GL126197  18.305  42.324   8.855
 7447POPC   GL226198  18.387  42.312   8.855
 7447POPC   C1A26199  18.280  42.356   8.555
 7447POPC   D2A26200  18.268  42.298   8.255
 7447POPC   C3A26201  18.295  42.362   7.955
 7447POPC   C4A26202  18.331  42.361   7.655
 7447POPC   C1B26203  18.507  42.264   8.555
 7447POPC   C2B26204  18.512  42.223   8.255
 7447POPC   C3B26205  18.503  42.176   7.955
 7447POPC   C4B26206  18.488  42.186   7.655
 7448POPC   NC326207  33.837  37.630   9.455
 7448POPC   PO426208  33.779  37.646   9.155
 7448POPC   GL126209  33.803  37.678   8.855
 7448POPC   GL226210  33.837  37.554   8.855
 7448POPC   C1A26211  33.774  37.676   8.555
 7448POPC   D2A26212  33.791  37.725   8.255
 7448POPC   C3A26213  33.764  37.659   7.955
 7448POPC   C4A26214  33.808  37.633   7.655
 7448POPC   C1B26215  33.803  37.409   8.555
 7448POPC   C2B26216  33.812  37.448   8.255
 7448POPC   C3B26217  33.770  37.410   7.955
 7448POPC   C4B26218  33.853  37.438   7.655
 7449POPC   NC326219  44.640  28.322   9.455
 7449POPC   PO426220  44.616  28.389   9.155
 7449POPC   GL126221  44.638  28.391   8.855
 7449POPC   GL226222  44.741  28.295   8.855
 7449POPC   C1A26223  44.710  28.370   8.555
 7449POPC   D2A26224  44.625  28.348   8.255
 7449POPC   C3A26225  44.617  28.410   7.955
 7449POPC   C4A26226  44.613  28.365   7.655
 7449POPC   C1B26227  44.873  28.192   8.555
 7449POPC   C2B26228  44.815  28.196   8.255
 7449POPC   C3B26229  44.826  28.179   7.955
 7449POPC   C4B26230  44.891  28.171   7.655
 7450POPC   NC326231  12.841   9.745   9.455
 7450POPC   PO426232  12.894   9.764   9.155
 7450POPC   GL126233  12.852   9.797   8.855
 7450POPC   GL226234  12.749   9.766   8.855
 7450POPC   C1A26235  12.881   9.745   8.555
 7450POPC   D2A26236  12.861   9.769   8.255
 7450POPC   C3A26237  12.813   9.786   7.955
 7450POPC   C4A26238  12.815   9.749   7.655
 7450POPC   C1B26239  12.653   9.842   8.555
 7450POPC   C2B26240  12.607   9.854   8.255
 7450POPC   C3B26241  12.624   9.793   7.955
 7450POPC   C4B26242  12.626   9.807   7.655
 7451POPC   NC326243  22.919  36.122   9.455
 7451POPC   PO426244  22.888  36.142   9.155
 7451POPC   GL126245  22.985  36.143   8.855
 7451POPC   GL226246  23.039  36.129   8.855
 7451POPC   C1A26247  22.938  36.145   8.555
 7451POPC   D2A26248  22.963  36.157   8.255
 7451POPC   C3A26249  22.930  36.176   7.955
 7451POPC   C4A26250  22.911  36.137   7.655
 7451POPC   C1B26251  23.192  36.070   8.555
 7451POPC   C2B26252  23.191  36.074   8.255
 7451POPC   C3B26253  23.231  36.154   7.955
 7451POPC   C4B26254  23.163  36.117   7.655
 7452POPC   NC326255   9.002   5.855   9.455
 7452POPC   PO426256   8.946   5.829   9.155
 7452POPC   GL126257   8.973   5.893   8.855
 7452POPC   GL226258   9.059   5.936   8.855
 7452POPC   C1A26259   8.952   5.840   8.555
 7452POPC   D2A26260   8.933   5.912   8.255
 7452POPC   C3A26261   8.933   5.832   7.955
 7452POPC   C4A26262   8.983   5.855   7.655
 7452POPC   C1B26263   9.090   6.062   8.555
 7452POPC   C2B26264   9.169   6.019   8.255
 7452POPC   C3B26265   9.121   6.062   7.955
 7452POPC   C4B26266   9.122   6.097   7.655
 7453POPC   NC326267  28.388   4.283   9.455
 7453POPC   PO426268  28.350   4.287   9.155
 7453POPC   GL126269  28.418   4.292   8.855
 7453POPC   GL226270  28.244   4.298   8.855
 7453POPC   C1A26271  28.366   4.274   8.555
 7453POPC   D2A26272  28.354   4.338   8.255
 7453POPC   C3A26273  28.341   4.286   7.955
 7453POPC   C4A26274  28.346   4.354   7.655
 7453POPC   C1B26275  28.196   4.210   8.555
 7453POPC   C2B26276  28.108   4.241   8.255
 7453POPC   C3B26277  28.196   4.196   7.955
 7453POPC   C4B26278  28.121   4.241   7.655
 7454POPC   NC326279   2.812  18.281   9.455
 7454POPC   PO426280   2.754  18.321   9.155
 7454POPC   GL126281   2.750  18.268   8.855
 7454POPC   GL226282   2.751  18.159   8.855
 7454POPC   C1A26283   2.741  18.314   8.555
 7454POPC   D2A26284   2.730  18.262   8.255
 7454POPC   C3A26285   2.797  18.238   7.955
 7454POPC   C4A26286   2.775  18.322   7.655
 7454POPC   C1B26287   2.671  18.062   8.555
 7454POPC   C2B26288   2.686  18.086   8.255
 7454POPC   C3B26289   2.670  18.028   7.955
 7454POPC   C4B26290   2.649  18.041   7.655
 7455POPC   NC326291  43.855  16.748   9.455
 7455POPC   PO426292  43.842  16.776   9.155
 7455POPC   GL126293  43.859  16.719   8.855
 7455POPC   GL226294  43.803  16.668   8.855
 7455POPC   C1A26295  43.870  16.777   8.555
 7455POPC   D2A26296  43.908  16.706   8.255
 7455POPC   C3A26297  43.896  16.691   7.955
 7455POPC   C4A26298  43.922  16.738   7.655
 7455POPC   C1B26299  43.682  16.636   8.555
 7455POPC   C2B26300  43.628  16.628   8.255
 7455POPC   C3B26301  43.675  16.694   7.955
 7455POPC   C4B26302  43.671  16.636   7.655
 7456POPC   NC326303  15.980  12.871   9.455
 7456POPC   PO426304  15.924  12.836   9.155
 7456POPC   GL126305  15.955  12.844   8.855
 7456POPC   GL226306  16.043  12.849   8.855
 7456POPC   C1A26307  15.984  12.855   8.555
 7456POPC   D2A26308  15.912  12.851   8.255
 7456POPC   C3A26309  15.939  12.881   7.955
 7456POPC   C4A26310  15.924  12.895   7.655
 7456POPC   C1B26311  16.230  12.804   8.555
 7456POPC   C2B26312  16.221  12.812   8.255
 7456POPC   C3B26313  16.231  12.855   7.955
 7456POPC   C4B26314  16.224  12.838   7.655
 7457POPC   NC326315  44.665  34.604   9.455
 7457POPC   PO426316  44.684  34.570   9.155
 7457POPC   GL126317  44.639  34.530   8.855
 7457POPC   GL226318  44.657  34.467   8.855
 7457POPC   C1A26319  44.704  34.622   8.555
 7457POPC   D2A26320  44.622  34.536   8.255
 7457POPC   C3A26321  44.690  34.534   7.955
 7457POPC   C4A26322  44.620  34.540   7.655
 7457POPC   C1B26323  44.664  34.348   8.555
 7457POPC   C2B26324  44.594  34.338   8.255
 7457POPC   C3B26325  44.611  34.353   7.955
 7457POPC   C4B26326  44.643  34.285   7.655
 7458POPC   NC326327  24.470   1.203   9.455
 7458POPC   PO426328  24.527   1.190   9.155
 7458POPC   GL126329  24.456   1.227   8.855
 7458POPC   GL226330  24.430   1.093   8.855
 7458POPC   C1A26331  24.482   1.198   8.555
 7458POPC   D2A26332  24.509   1.213   8.255
 7458POPC   C3A26333  24.486   1.217   7.955
 7458POPC   C4A26334  24.475   1.205   7.655
 7458POPC   C1B26335  24.474   0.945   8.555
 7458POPC   C2B26336  24.452   0.926   8.255
 7458POPC   C3B26337  24.442   1.005   7.955
 7458POPC   C4B26338  24.449   0.967   7.655
 7459POPC   NC326339  20.659  40.001   9.455
 7459POPC   PO426340  20.657  40.024   9.155
 7459POPC   GL126341  20.566  40.055   8.855
 7459POPC   GL226342  20.642  40.181   8.855
 7459POPC   C1A26343  20.573  39.970   8.555
 7459POPC   D2A26344  20.656  40.011   8.255
 7459POPC   C3A26345  20.609  40.045   7.955
 7459POPC   C4A26346  20.569  40.008   7.655
 7459POPC   C1B26347  20.669  40.301   8.555
 7459POPC   C2B26348  20.609  40.289   8.255
 7459POPC   C3B26349  20.631  40.228   7.955
 7459POPC   C4B26350  20.666  40.297   7.655
 7460POPC   NC326351  14.366   0.406   9.455
 7460POPC   PO426352  14.369   0.462   9.155
 7460POPC   GL126353  14.398   0.462   8.855
 7460POPC   GL226354  14.297   0.537   8.855
 7460POPC   C1A26355  14.357   0.413   8.555
 7460POPC   D2A26356  14.452   0.469   8.255
 7460POPC   C3A26357  14.364   0.416   7.955
 7460POPC   C4A26358  14.408   0.471   7.655
 7460POPC   C1B26359  14.183   0.613   8.555
 7460POPC   C2B26360  14.223   0.583   8.255
 7460POPC   C3B26361  14.199   0.543   7.955
 7460POPC   C4B26362  14.168   0.618   7.655
 7461POPC   NC326363   1.262  40.001   9.455
 7461POPC   PO426364   1.248  40.035   9.155
 7461POPC   GL126365   1.257  40.013   8.855
 7461POPC   GL226366   1.323  39.934   8.855
 7461POPC   C1A26367   1.259  39.983   8.555
 7461POPC   D2A26368   1.175  39.998   8.255
 7461POPC   C3A26369   1.250  40.042   7.955
 7461POPC   C4A26370   1.184  39.984   7.655
 7461POPC   C1B26371   1.380  39.779   8.555
 7461POPC   C2B26372   1.366  39.820   8.255
 7461POPC   C3B26373   1.387  39.868   7.955
 7461POPC   C4B26374   1.353  39.836   7.655
 7462POPC   NC326375   6.659   3.529   9.455
 7462POPC   PO426376   6.679   3.506   9.155
 7462POPC   GL126377   6.641   3.555   8.855
 7462POPC   GL226378   6.698   3.658   8.855
 7462POPC   C1A26379   6.649   3.542   8.555
 7462POPC   D2A26380   6.635   3.542   8.255
 7462POPC   C3A26381   6.658   3.546   7.955
 7462POPC   C4A26382   6.688   3.560   7.655
 7462POPC   C1B26383   6.762   3.769   8.555
 7462POPC   C2B26384   6.793   3.712   8.255
 7462POPC   C3B26385   6.838   3.693   7.955
 7462POPC   C4B26386   6.851   3.770   7.655
 7463POPC   NC326387  31.488   6.686   9.455
 7463POPC   PO426388  31.430   6.657   9.155
 7463POPC   GL126389  31.496   6.670   8.855
 7463POPC   GL226390  31.555   6.779   8.855
 7463POPC   C1A26391  31.465   6.686   8.555
 7463POPC   D2A26392  31.519   6.609   8.255
 7463POPC   C3A26393  31.471   6.596   7.955
 7463POPC   C4A26394  31.492   6.640   7.655
 7463POPC   C1B26395  31.521   6.908   8.555
 7463POPC   C2B26396  31.563   6.867   8.255
 7463POPC   C3B26397  31.529   6.843   7.955
 7463POPC   C4B26398  31.611   6.916   7.655
 7464POPC   NC326399  31.514   1.204   9.455
 7464POPC   PO426400  31.440   1.217   9.155
 7464POPC   GL126401  31.506   1.258   8.855
 7464POPC   GL226402  31.427   1.096   8.855
 7464POPC   C1A26403  31.514   1.198   8.555
 7464POPC   D2A26404  31.469   1.241   8.255
 7464POPC   C3A26405  31.497   1.175   7.955
 7464POPC   C4A26406  31.466   1.214   7.655
 7464POPC   C1B26407  31.502   1.001   8.555
 7464POPC   C2B26408  31.446   0.940   8.255
 7464POPC   C3B26409  31.448   0.992   7.955
 7464POPC   C4B26410  31.469   0.970   7.655
 7465POPC   NC326411  34.558  44.631   9.455
 7465POPC   PO426412  34.619  44.620   9.155
 7465POPC   GL126413  34.625  44.667   8.855
 7465POPC   GL226414  34.458  44.632   8.855
 7465POPC   C1A26415  34.570  44.629   8.555
 7465POPC   D2A26416  34.565  44.639   8.255
 7465POPC   C3A26417  34.591  44.670   7.955
 7465POPC   C4A26418  34.565  44.661   7.655
 7465POPC   C1B26419  34.383  44.553   8.555
 7465POPC   C2B26420  34.408  44.487   8.255
 7465POPC   C3B26421  34.421  44.463   7.955
 7465POPC   C4B26422  34.326  44.504   7.655
 7466POPC   NC326423   4.288  33.025   9.455
 7466POPC   PO426424   4.339  33.003   9.155
 7466POPC   GL126425   4.360  33.055   8.855
 7466POPC   GL226426   4.220  32.978   8.855
 7466POPC   C1A26427   4.357  32.989   8.555
 7466POPC   D2A26428   4.329  33.058   8.255
 7466POPC   C3A26429   4.314  33.058   7.955
 7466POPC   C4A26430   4.312  33.045   7.655
 7466POPC   C1B26431   4.138  32.876   8.555
 7466POPC   C2B26432   4.078  32.939   8.255
 7466POPC   C3B26433   4.102  32.914   7.955
 7466POPC   C4B26434   4.062  32.896   7.655
 7467POPC   NC326435  41.584  29.885   9.455
 7467POPC   PO426436  41.575  29.890   9.155
 7467POPC   GL126437  41.562  29.895   8.855
 7467POPC   GL226438  41.471  29.941   8.855
 7467POPC   C1A26439  41.514  29.877   8.555
 7467POPC   D2A26440  41.510  29.893   8.255
 7467POPC   C3A26441  41.569  29.888   7.955
 7467POPC   C4A26442  41.510  29.908   7.655
 7467POPC   C1B26443  41.292  30.011   8.555
 7467POPC   C2B26444  41.361  29.945   8.255
 7467POPC   C3B26445  41.287  29.971   7.955
 7467POPC   C4B26446  41.321  30.010   7.655
 7468POPC   NC326447  37.704   1.222   9.455
 7468POPC   PO426448  37.684   1.196   9.155
 7468POPC   GL126449  37.697   1.220   8.855
 7468POPC   GL226450  37.700   1.104   8.855
 7468POPC   C1A26451  37.652   1.234   8.555
 7468POPC   D2A26452  37.634   1.192   8.255
 7468POPC   C3A26453  37.675   1.262   7.955
 7468POPC   C4A26454  37.649   1.229   7.655
 7468POPC   C1B26455  37.692   1.000   8.555
 7468POPC   C2B26456  37.707   0.933   8.255
 7468POPC   C3B26457  37.664   0.923   7.955
 7468POPC   C4B26458  37.644   1.008   7.655
 7469POPC   NC326459  13.637  38.440   9.455
 7469POPC   PO426460  13.589  38.437   9.155
 7469POPC   GL126461  13.664  38.492   8.855
 7469POPC   GL226462  13.474  38.412   8.855
 7469POPC   C1A26463  13.663  38.473   8.555
 7469POPC   D2A26464  13.642  38.416   8.255
 7469POPC   C3A26465  13.624  38.462   7.955
 7469POPC   C4A26466  13.666  38.435   7.655
 7469POPC   C1B26467  13.357  38.355   8.555
 7469POPC   C2B26468  13.443  38.349   8.255
 7469POPC   C3B26469  13.428  38.338   7.955
 7469POPC   C4B26470  13.370  38.361   7.655
 7470POPC   NC326471  24.526  29.935   9.455
 7470POPC   PO426472  24.524  29.958   9.155
 7470POPC   GL126473  24.538  29.957   8.855
 7470POPC   GL226474  24.598  29.961   8.855
 7470POPC   C1A26475  24.507  29.946   8.555
 7470POPC   D2A26476  24.457  29.894   8.255
 7470POPC   C3A26477  24.484  29.874   7.955
 7470POPC   C4A26478  24.444  29.932   7.655
 7470POPC   C1B26479  24.721  29.945   8.555
 7470POPC   C2B26480  24.754  29.871   8.255
 7470POPC   C3B26481  24.740  29.887   7.955
 7470POPC   C4B26482  24.736  29.904   7.655
 7471POPC   NC326483   4.359  42.343   9.455
 7471POPC   PO426484   4.311  42.377   9.155
 7471POPC   GL126485   4.277  42.361   8.855
 7471POPC   GL226486   4.416  42.421   8.855
 7471POPC   C1A26487   4.327  42.360   8.555
 7471POPC   D2A26488   4.281  42.307   8.255
 7471POPC   C3A26489   4.267  42.287   7.955
 7471POPC   C4A26490   4.349  42.363   7.655
 7471POPC   C1B26491   4.500  42.534   8.555
 7471POPC   C2B26492   4.520  42.514   8.255
 7471POPC   C3B26493   4.465  42.551   7.955
 7471POPC   C4B26494   4.464  42.481   7.655
 7472POPC   NC326495  34.597  30.679   9.455
 7472POPC   PO426496  34.603  30.701   9.155
 7472POPC   GL126497  34.593  30.700   8.855
 7472POPC   GL226498  34.660  30.769   8.855
 7472POPC   C1A26499  34.621  30.666   8.555
 7472POPC   D2A26500  34.600  30.673   8.255
 7472POPC   C3A26501  34.539  30.696   7.955
 7472POPC   C4A26502  34.553  30.737   7.655
 7472POPC   C1B26503  34.824  30.833   8.555
 7472POPC   C2B26504  34.797  30.792   8.255
 7472POPC   C3B26505  34.800  30.812   7.955
 7472POPC   C4B26506  34.790  30.767   7.655
 7473POPC   NC326507  10.560  23.723   9.455
 7473POPC   PO426508  10.499  23.734   9.155
 7473POPC   GL126509  10.534  23.725   8.855
 7473POPC   GL226510  10.551  23.781   8.855
 7473POPC   C1A26511  10.518  23.713   8.555
 7473POPC   D2A26512  10.554  23.742   8.255
 7473POPC   C3A26513  10.572  23.690   7.955
 7473POPC   C4A26514  10.509  23.732   7.655
 7473POPC   C1B26515  10.648  23.920   8.555
 7473POPC   C2B26516  10.653  23.925   8.255
 7473POPC   C3B26517  10.669  23.922   7.955
 7473POPC   C4B26518  10.661  23.902   7.655
 7474POPC   NC326519  36.898  15.917   9.455
 7474POPC   PO426520  36.939  16.000   9.155
 7474POPC   GL126521  36.918  15.962   8.855
 7474POPC   GL226522  36.839  15.876   8.855
 7474POPC   C1A26523  36.884  15.909   8.555
 7474POPC   D2A26524  36.941  15.995   8.255
 7474POPC   C3A26525  36.905  15.976   7.955
 7474POPC   C4A26526  36.916  15.944   7.655
 7474POPC   C1B26527  36.862  15.678   8.555
 7474POPC   C2B26528  36.848  15.717   8.255
 7474POPC   C3B26529  36.873  15.750   7.955
 7474POPC   C4B26530  36.906  15.665   7.655
 7475POPC   NC326531   9.743   7.443   9.455
 7475POPC   PO426532   9.735   7.458   9.155
 7475POPC   GL126533   9.774   7.414   8.855
 7475POPC   GL226534   9.659   7.420   8.855
 7475POPC   C1A26535   9.715   7.395   8.555
 7475POPC   D2A26536   9.743   7.462   8.255
 7475POPC   C3A26537   9.783   7.399   7.955
 7475POPC   C4A26538   9.765   7.468   7.655
 7475POPC   C1B26539   9.463   7.502   8.555
 7475POPC   C2B26540   9.461   7.488   8.255
 7475POPC   C3B26541   9.510   7.504   7.955
 7475POPC   C4B26542   9.498   7.497   7.655
 7476POPC   NC326543  21.369  25.237   9.455
 7476POPC   PO426544  21.404  25.220   9.155
 7476POPC   GL126545  21.398  25.220   8.855
 7476POPC   GL226546  21.349  25.402   8.855
 7476POPC   C1A26547  21.340  25.274   8.555
 7476POPC   D2A26548  21.427  25.246   8.255
 7476POPC   C3A26549  21.430  25.300   7.955
 7476POPC   C4A26550  21.356  25.275   7.655
 7476POPC   C1B26551  21.456  25.466   8.555
 7476POPC   C2B26552  21.452  25.520   8.255
 7476POPC   C3B26553  21.382  25.508   7.955
 7476POPC   C4B26554  21.378  25.559   7.655
 7477POPC   NC326555  33.825  36.172   9.455
 7477POPC   PO426556  33.836  36.164   9.155
 7477POPC   GL126557  33.847  36.099   8.855
 7477POPC   GL226558  33.759  36.028   8.855
 7477POPC   C1A26559  33.802  36.170   8.555
 7477POPC   D2A26560  33.782  36.146   8.255
 7477POPC   C3A26561  33.832  36.110   7.955
 7477POPC   C4A26562  33.775  36.171   7.655
 7477POPC   C1B26563  33.650  35.972   8.555
 7477POPC   C2B26564  33.647  35.918   8.255
 7477POPC   C3B26565  33.666  35.968   7.955
 7477POPC   C4B26566  33.597  35.902   7.655
 7478POPC   NC326567   8.954  34.534   9.455
 7478POPC   PO426568   9.014  34.542   9.155
 7478POPC   GL126569   8.977  34.598   8.855
 7478POPC   GL226570   8.916  34.504   8.855
 7478POPC   C1A26571   8.960  34.599   8.555
 7478POPC   D2A26572   8.939  34.602   8.255
 7478POPC   C3A26573   9.019  34.579   7.955
 7478POPC   C4A26574   8.942  34.562   7.655
 7478POPC   C1B26575   8.899  34.327   8.555
 7478POPC   C2B26576   8.837  34.311   8.255
 7478POPC   C3B26577   8.905  34.312   7.955
 7478POPC   C4B26578   8.913  34.333   7.655
 7479POPC   NC326579  24.506   2.718   9.455
 7479POPC   PO426580  24.540   2.776   9.155
 7479POPC   GL126581  24.534   2.788   8.855
 7479POPC   GL226582  24.500   2.683   8.855
 7479POPC   C1A26583  24.470   2.761   8.555
 7479POPC   D2A26584  24.491   2.795   8.255
 7479POPC   C3A26585  24.505   2.735   7.955
 7479POPC   C4A26586  24.510   2.756   7.655
 7479POPC   C1B26587  24.617   2.547   8.555
 7479POPC   C2B26588  24.621   2.523   8.255
 7479POPC   C3B26589  24.562   2.550   7.955
 7479POPC   C4B26590  24.641   2.572   7.655
 7480POPC   NC326591  25.281  29.937   9.455
 7480POPC   PO426592  25.312  29.942   9.155
 7480POPC   GL126593  25.221  29.959   8.855
 7480POPC   GL226594  25.292  29.790   8.855
 7480POPC   C1A26595  25.284  29.900   8.555
 7480POPC   D2A26596  25.295  29.936   8.255
 7480POPC   C3A26597  25.236  29.887   7.955
 7480POPC   C4A26598  25.247  29.921   7.655
 7480POPC   C1B26599  25.257  29.692   8.555
 7480POPC   C2B26600  25.250  29.698   8.255
 7480POPC   C3B26601  25.235  29.690   7.955
 7480POPC   C4B26602  25.286  29.699   7.655
 7481POPC   NC326603  44.680  32.978   9.455
 7481POPC   PO426604  44.709  32.980   9.155
 7481POPC   GL126605  44.620  33.018   8.855
 7481POPC   GL226606  44.589  32.895   8.855
 7481POPC   C1A26607  44.665  33.002   8.555
 7481POPC   D2A26608  44.654  33.035   8.255
 7481POPC   C3A26609  44.613  33.056   7.955
 7481POPC   C4A26610  44.685  32.989   7.655
 7481POPC   C1B26611  44.583  32.800   8.555
 7481POPC   C2B26612  44.608  32.827   8.255
 7481POPC   C3B26613  44.647  32.804   7.955
 7481POPC   C4B26614  44.648  32.781   7.655
 7482POPC   NC326615   5.094   2.785   9.455
 7482POPC   PO426616   5.135   2.751   9.155
 7482POPC   GL126617   5.082   2.734   8.855
 7482POPC   GL226618   4.996   2.751   8.855
 7482POPC   C1A26619   5.081   2.739   8.555
 7482POPC   D2A26620   5.046   2.776   8.255
 7482POPC   C3A26621   5.139   2.759   7.955
 7482POPC   C4A26622   5.108   2.756   7.655
 7482POPC   C1B26623   4.832   2.803   8.555
 7482POPC   C2B26624   4.813   2.849   8.255
 7482POPC   C3B26625   4.806   2.805   7.955
 7482POPC   C4B26626   4.841   2.855   7.655
 7483POPC   NC326627  28.419  29.129   9.455
 7483POPC   PO426628  28.366  29.096   9.155
 7483POPC   GL126629  28.397  29.192   8.855
 7483POPC   GL226630  28.478  29.111   8.855
 7483POPC   C1A26631  28.352  29.123   8.555
 7483POPC   D2A26632  28.354  29.136   8.255
 7483POPC   C3A26633  28.332  29.159   7.955
 7483POPC   C4A26634  28.329  29.184   7.655
 7483POPC   C1B26635  28.604  29.043   8.555
 7483POPC   C2B26636  28.548  29.055   8.255
 7483POPC   C3B26637  28.638  29.005   7.955
 7483POPC   C4B26638  28.611  29.086   7.655
 7484POPC   NC326639  28.359  26.816   9.455
 7484POPC   PO426640  28.398  26.820   9.155
 7484POPC   GL126641  28.337  26.787   8.855
 7484POPC   GL226642  28.450  26.948   8.855
 7484POPC   C1A26643  28.417  26.810   8.555
 7484POPC   D2A26644  28.402  26.857   8.255
 7484POPC   C3A26645  28.330  26.788   7.955
 7484POPC   C4A26646  28.351  26.850   7.655
 7484POPC   C1B26647  28.510  27.036   8.555
 7484POPC   C2B26648  28.516  26.996   8.255
 7484POPC   C3B26649  28.471  27.043   7.955
 7484POPC   C4B26650  28.515  27.061   7.655
 7485POPC   NC326651  12.809  19.066   9.455
 7485POPC   PO426652  12.892  19.073   9.155
 7485POPC   GL126653  12.841  19.009   8.855
 7485POPC   GL226654  12.836  18.963   8.855
 7485POPC   C1A26655  12.864  19.097   8.555
 7485POPC   D2A26656  12.866  19.104   8.255
 7485POPC   C3A26657  12.834  19.009   7.955
 7485POPC   C4A26658  12.856  19.061   7.655
 7485POPC   C1B26659  12.863  18.822   8.555
 7485POPC   C2B26660  12.856  18.826   8.255
 7485POPC   C3B26661  12.847  18.846   7.955
 7485POPC   C4B26662  12.878  18.846   7.655
 7486POPC   NC326663  18.305  15.195   9.455
 7486POPC   PO426664  18.317  15.170   9.155
 7486POPC   GL126665  18.332  15.198   8.855
 7486POPC   GL226666  18.210  15.230   8.855
 7486POPC   C1A26667  18.321  15.186   8.555
 7486POPC   D2A26668  18.310  15.171   8.255
 7486POPC   C3A26669  18.234  15.142   7.955
 7486POPC   C4A26670  18.273  15.147   7.655
 7486POPC   C1B26671  18.086  15.426   8.555
 7486POPC   C2B26672  18.152  15.409   8.255
 7486POPC   C3B26673  18.101  15.380   7.955
 7486POPC   C4B26674  18.152  15.365   7.655
 7487POPC   NC326675  17.527  29.158   9.455
 7487POPC   PO426676  17.547  29.109   9.155
 7487POPC   GL126677  17.512  29.159   8.855
 7487POPC   GL226678  17.448  29.262   8.855
 7487POPC   C1A26679  17.484  29.158   8.555
 7487POPC   D2A26680  17.544  29.151   8.255
 7487POPC   C3A26681  17.520  29.194   7.955
 7487POPC   C4A26682  17.522  29.137   7.655
 7487POPC   C1B26683  17.359  29.359   8.555
 7487POPC   C2B26684  17.422  29.354   8.255
 7487POPC   C3B26685  17.405  29.360   7.955
 7487POPC   C4B26686  17.364  29.391   7.655
 7488POPC   NC326687   2.782  42.285   9.455
 7488POPC   PO426688   2.772  42.351   9.155
 7488POPC   GL126689   2.750  42.357   8.855
 7488POPC   GL226690   2.851  42.211   8.855
 7488POPC   C1A26691   2.738  42.360   8.555
 7488POPC   D2A26692   2.807  42.313   8.255
 7488POPC   C3A26693   2.791  42.303   7.955
 7488POPC   C4A26694   2.722  42.298   7.655
 7488POPC   C1B26695   2.896  42.124   8.555
 7488POPC   C2B26696   2.868  42.138   8.255
 7488POPC   C3B26697   2.836  42.074   7.955
 7488POPC   C4B26698   2.916  42.152   7.655
 7489POPC   NC326699  22.137   3.561   9.455
 7489POPC   PO426700  22.185   3.586   9.155
 7489POPC   GL126701  22.154   3.566   8.855
 7489POPC   GL226702  22.064   3.586   8.855
 7489POPC   C1A26703  22.134   3.581   8.555
 7489POPC   D2A26704  22.121   3.554   8.255
 7489POPC   C3A26705  22.189   3.574   7.955
 7489POPC   C4A26706  22.137   3.567   7.655
 7489POPC   C1B26707  21.971   3.633   8.555
 7489POPC   C2B26708  21.927   3.652   8.255
 7489POPC   C3B26709  21.918   3.707   7.955
 7489POPC   C4B26710  21.939   3.713   7.655
 7490POPC   NC326711  33.073   1.254   9.455
 7490POPC   PO426712  32.992   1.205   9.155
 7490POPC   GL126713  33.003   1.260   8.855
 7490POPC   GL226714  32.876   1.276   8.855
 7490POPC   C1A26715  32.987   1.169   8.555
 7490POPC   D2A26716  33.058   1.211   8.255
 7490POPC   C3A26717  33.062   1.261   7.955
 7490POPC   C4A26718  33.002   1.237   7.655
 7490POPC   C1B26719  32.834   1.378   8.555
 7490POPC   C2B26720  32.792   1.312   8.255
 7490POPC   C3B26721  32.779   1.350   7.955
 7490POPC   C4B26722  32.822   1.362   7.655
 7491POPC   NC326723   2.757  19.043   9.455
 7491POPC   PO426724   2.792  19.023   9.155
 7491POPC   GL126725   2.741  19.023   8.855
 7491POPC   GL226726   2.765  18.938   8.855
 7491POPC   C1A26727   2.727  19.075   8.555
 7491POPC   D2A26728   2.752  19.015   8.255
 7491POPC   C3A26729   2.739  19.050   7.955
 7491POPC   C4A26730   2.755  19.017   7.655
 7491POPC   C1B26731   2.735  18.840   8.555
 7491POPC   C2B26732   2.743  18.796   8.255
 7491POPC   C3B26733   2.752  18.839   7.955
 7491POPC   C4B26734   2.738  18.841   7.655
 7492POPC   NC326735  15.936  17.551   9.455
 7492POPC   PO426736  15.938  17.475   9.155
 7492POPC   GL126737  15.958  17.554   8.855
 7492POPC   GL226738  15.959  17.340   8.855
 7492POPC   C1A26739  15.975  17.472   8.555
 7492POPC   D2A26740  15.929  17.511   8.255
 7492POPC   C3A26741  15.942  17.544   7.955
 7492POPC   C4A26742  15.963  17.553   7.655
 7492POPC   C1B26743  15.944  17.263   8.555
 7492POPC   C2B26744  15.970  17.271   8.255
 7492POPC   C3B26745  15.921  17.269   7.955
 7492POPC   C4B26746  15.972  17.208   7.655
 7493POPC   NC326747  40.790  34.542   9.455
 7493POPC   PO426748  40.814  34.573   9.155
 7493POPC   GL126749  40.816  34.592   8.855
 7493POPC   GL226750  40.658  34.601   8.855
 7493POPC   C1A26751  40.792  34.586   8.555
 7493POPC   D2A26752  40.817  34.531   8.255
 7493POPC   C3A26753  40.781  34.577   7.955
 7493POPC   C4A26754  40.739  34.528   7.655
 7493POPC   C1B26755  40.599  34.623   8.555
 7493POPC   C2B26756  40.544  34.706   8.255
 7493POPC   C3B26757  40.518  34.702   7.955
 7493POPC   C4B26758  40.599  34.642   7.655
 7494POPC   NC326759  43.889   8.943   9.455
 7494POPC   PO426760  43.869   9.007   9.155
 7494POPC   GL126761  43.895   8.949   8.855
 7494POPC   GL226762  43.956   8.894   8.855
 7494POPC   C1A26763  43.870   9.005   8.555
 7494POPC   D2A26764  43.895   8.994   8.255
 7494POPC   C3A26765  43.903   8.972   7.955
 7494POPC   C4A26766  43.914   9.014   7.655
 7494POPC   C1B26767  44.106   8.781   8.555
 7494POPC   C2B26768  44.112   8.825   8.255
 7494POPC   C3B26769  44.106   8.844   7.955
 7494POPC   C4B26770  44.050   8.813   7.655
 7495POPC   NC326771  34.573   1.221   9.455
 7495POPC   PO426772  34.552   1.171   9.155
 7495POPC   GL126773  34.619   1.176   8.855
 7495POPC   GL226774  34.426   1.201   8.855
 7495POPC   C1A26775  34.537   1.200   8.555
 7495POPC   D2A26776  34.585   1.175   8.255
 7495POPC   C3A26777  34.564   1.204   7.955
 7495POPC   C4A26778  34.609   1.165   7.655
 7495POPC   C1B26779  34.331   1.217   8.555
 7495POPC   C2B26780  34.310   1.215   8.255
 7495POPC   C3B26781  34.293   1.191   7.955
 7495POPC   C4B26782  34.288   1.220   7.655
 7496POPC   NC326783  33.013  44.707   9.455
 7496POPC   PO426784  33.016  44.650   9.155
 7496POPC   GL126785  33.035  44.619   8.855
 7496POPC   GL226786  32.946  44.688   8.855
 7496POPC   C1A26787  33.008  44.675   8.555
 7496POPC   D2A26788  33.062  44.671   8.255
 7496POPC   C3A26789  33.007  44.655   7.955
 7496POPC   C4A26790  33.042  44.619   7.655
 7496POPC   C1B26791  32.790  44.839   8.555
 7496POPC   C2B26792  32.794  44.840   8.255
 7496POPC   C3B26793  32.803  44.790   7.955
 7496POPC   C4B26794  32.766  44.753   7.655
 7497POPC   NC326795  22.937  33.802   9.455
 7497POPC   PO426796  22.953  33.796   9.155
 7497POPC   GL126797  22.931  33.799   8.855
 7497POPC   GL226798  23.002  33.848   8.855
 7497POPC   C1A26799  22.897  33.786   8.555
 7497POPC   D2A26800  22.926  33.847   8.255
 7497POPC   C3A26801  22.891  33.849   7.955
 7497POPC   C4A26802  22.929  33.826   7.655
 7497POPC   C1B26803  23.151  33.918   8.555
 7497POPC   C2B26804  23.136  33.916   8.255
 7497POPC   C3B26805  23.142  33.945   7.955
 7497POPC   C4B26806  23.109  33.881   7.655
 7498POPC   NC326807   3.586   8.992   9.455
 7498POPC   PO426808   3.588   8.984   9.155
 7498POPC   GL126809   3.539   8.994   8.855
 7498POPC   GL226810   3.462   8.879   8.855
 7498POPC   C1A26811   3.552   9.022   8.555
 7498POPC   D2A26812   3.496   8.991   8.255
 7498POPC   C3A26813   3.572   8.966   7.955
 7498POPC   C4A26814   3.543   9.020   7.655
 7498POPC   C1B26815   3.477   8.732   8.555
 7498POPC   C2B26816   3.456   8.737   8.255
 7498POPC   C3B26817   3.438   8.760   7.955
 7498POPC   C4B26818   3.460   8.751   7.655
 7499POPC   NC326819  12.899  19.823   9.455
 7499POPC   PO426820  12.894  19.812   9.155
 7499POPC   GL126821  12.855  19.845   8.855
 7499POPC   GL226822  12.866  19.674   8.855
 7499POPC   C1A26823  12.833  19.810   8.555
 7499POPC   D2A26824  12.863  19.877   8.255
 7499POPC   C3A26825  12.870  19.796   7.955
 7499POPC   C4A26826  12.860  19.873   7.655
 7499POPC   C1B26827  12.884  19.569   8.555
 7499POPC   C2B26828  12.831  19.559   8.255
 7499POPC   C3B26829  12.798  19.590   7.955
 7499POPC   C4B26830  12.850  19.549   7.655
 7500POPC   NC326831  21.348  15.962   9.455
 7500POPC   PO426832  21.346  15.935   9.155
 7500POPC   GL126833  21.379  15.919   8.855
 7500POPC   GL226834  21.276  16.002   8.855
 7500POPC   C1A26835  21.382  15.977   8.555
 7500POPC   D2A26836  21.358  15.966   8.255
 7500POPC   C3A26837  21.375  15.953   7.955
 7500POPC   C4A26838  21.342  15.993   7.655
 7500POPC   C1B26839  21.168  16.114   8.555
 7500POPC   C2B26840  21.196  16.070   8.255
 7500POPC   C3B26841  21.180  16.115   7.955
 7500POPC   C4B26842  21.228  16.113   7.655
 7501POPC   NC326843  42.343  33.776   9.455
 7501POPC   PO426844  42.334  33.769   9.155
 7501POPC   GL126845  42.311  33.808   8.855
 7501POPC   GL226846  42.381  33.696   8.855
 7501POPC   C1A26847  42.300  33.770   8.555
 7501POPC   D2A26848  42.359  33.845   8.255
 7501POPC   C3A26849  42.329  33.764   7.955
 7501POPC   C4A26850  42.377  33.816   7.655
 7501POPC   C1B26851  42.489  33.610   8.555
 7501POPC   C2B26852  42.410  33.584   8.255
 7501POPC   C3B26853  42.409  33.566   7.955
 7501POPC   C4B26854  42.461  33.550   7.655
 7502POPC   NC326855  38.417  36.121   9.455
 7502POPC   PO426856  38.430  36.098   9.155
 7502POPC   GL126857  38.444  36.105   8.855
 7502POPC   GL226858  38.569  36.268   8.855
 7502POPC   C1A26859  38.504  36.166   8.555
 7502POPC   D2A26860  38.450  36.128   8.255
 7502POPC   C3A26861  38.500  36.112   7.955
 7502POPC   C4A26862  38.414  36.135   7.655
 7502POPC   C1B26863  38.630  36.351   8.555
 7502POPC   C2B26864  38.597  36.291   8.255
 7502POPC   C3B26865  38.601  36.313   7.955
 7502POPC   C4B26866  38.615  36.336   7.655
 7503POPC   NC326867  21.434   1.204   9.455
 7503POPC   PO426868  21.434   1.249   9.155
 7503POPC   GL126869  21.363   1.240   8.855
 7503POPC   GL226870  21.540   1.132   8.855
 7503POPC   C1A26871  21.425   1.197   8.555
 7503POPC   D2A26872  21.362   1.206   8.255
 7503POPC   C3A26873  21.389   1.175   7.955
 7503POPC   C4A26874  21.434   1.203   7.655
 7503POPC   C1B26875  21.660   1.100   8.555
 7503POPC   C2B26876  21.637   1.128   8.255
 7503POPC   C3B26877  21.581   1.093   7.955
 7503POPC   C4B26878  21.584   1.074   7.655
 7504POPC   NC326879   6.685   4.324   9.455
 7504POPC   PO426880   6.652   4.327   9.155
 7504POPC   GL126881   6.660   4.289   8.855
 7504POPC   GL226882   6.742   4.364   8.855
 7504POPC   C1A26883   6.640   4.288   8.555
 7504POPC   D2A26884   6.613   4.349   8.255
 7504POPC   C3A26885   6.680   4.352   7.955
 7504POPC   C4A26886   6.599   4.272   7.655
 7504POPC   C1B26887   6.864   4.400   8.555
 7504POPC   C2B26888   6.877   4.335   8.255
 7504POPC   C3B26889   6.875   4.375   7.955
 7504POPC   C4B26890   6.891   4.355   7.655
 7505POPC   NC326891  15.213  41.607   9.455
 7505POPC   PO426892  15.161  41.561   9.155
 7505POPC   GL126893  15.136  41.531   8.855
 7505POPC   GL226894  15.274  41.584   8.855
 7505POPC   C1A26895  15.145  41.526   8.555
 7505POPC   D2A26896  15.186  41.547   8.255
 7505POPC   C3A26897  15.132  41.571   7.955
 7505POPC   C4A26898  15.213  41.555   7.655
 7505POPC   C1B26899  15.393  41.667   8.555
 7505POPC   C2B26900  15.413  41.640   8.255
 7505POPC   C3B26901  15.443  41.610   7.955
 7505POPC   C4B26902  15.404  41.627   7.655
 7506POPC   NC326903   1.204  41.566   9.455
 7506POPC   PO426904   1.204  41.575   9.155
 7506POPC   GL126905   1.223  41.572   8.855
 7506POPC   GL226906   1.312  41.539   8.855
 7506POPC   C1A26907   1.250  41.536   8.555
 7506POPC   D2A26908   1.219  41.560   8.255
 7506POPC   C3A26909   1.262  41.560   7.955
 7506POPC   C4A26910   1.169  41.579   7.655
 7506POPC   C1B26911   1.484  41.481   8.555
 7506POPC   C2B26912   1.477  41.504   8.255
 7506POPC   C3B26913   1.412  41.566   7.955
 7506POPC   C4B26914   1.472  41.474   7.655
 7507POPC   NC326915   4.318   2.773   9.455
 7507POPC   PO426916   4.282   2.800   9.155
 7507POPC   GL126917   4.336   2.772   8.855
 7507POPC   GL226918   4.417   2.658   8.855
 7507POPC   C1A26919   4.316   2.769   8.555
 7507POPC   D2A26920   4.311   2.719   8.255
 7507POPC   C3A26921   4.349   2.720   7.955
 7507POPC   C4A26922   4.352   2.801   7.655
 7507POPC   C1B26923   4.465   2.622   8.555
 7507POPC   C2B26924   4.476   2.616   8.255
 7507POPC   C3B26925   4.536   2.632   7.955
 7507POPC   C4B26926   4.503   2.631   7.655
 7508POPC   NC326927  14.453  23.741   9.455
 7508POPC   PO426928  14.425  23.755   9.155
 7508POPC   GL126929  14.358  23.667   8.855
 7508POPC   GL226930  14.309  23.595   8.855
 7508POPC   C1A26931  14.430  23.681   8.555
 7508POPC   D2A26932  14.361  23.715   8.255
 7508POPC   C3A26933  14.432  23.715   7.955
 7508POPC   C4A26934  14.398  23.677   7.655
 7508POPC   C1B26935  14.215  23.539   8.555
 7508POPC   C2B26936  14.223  23.514   8.255
 7508POPC   C3B26937  14.206  23.526   7.955
 7508POPC   C4B26938  14.240  23.514   7.655
 7509POPC   NC326939   1.218  43.840   9.455
 7509POPC   PO426940   1.193  43.896   9.155
 7509POPC   GL126941   1.194  43.876   8.855
 7509POPC   GL226942   1.241  43.959   8.855
 7509POPC   C1A26943   1.253  43.920   8.555
 7509POPC   D2A26944   1.180  43.878   8.255
 7509POPC   C3A26945   1.224  43.892   7.955
 7509POPC   C4A26946   1.181  43.872   7.655
 7509POPC   C1B26947   1.309  44.134   8.555
 7509POPC   C2B26948   1.294  44.160   8.255
 7509POPC   C3B26949   1.269  44.153   7.955
 7509POPC   C4B26950   1.314  44.122   7.655
 7510POPC   NC326951  19.785  32.216   9.455
 7510POPC   PO426952  19.795  32.270   9.155
 7510POPC   GL126953  19.824  32.295   8.855
 7510POPC   GL226954  19.770  32.278   8.855
 7510POPC   C1A26955  19.881  32.278   8.555
 7510POPC   D2A26956  19.872  32.201   8.255
 7510POPC   C3A26957  19.874  32.247   7.955
 7510POPC   C4A26958  19.862  32.230   7.655
 7510POPC   C1B26959  19.602  32.329   8.555
 7510POPC   C2B26960  19.587  32.337   8.255
 7510POPC   C3B26961  19.621  32.329   7.955
 7510POPC   C4B26962  19.593  32.356   7.655
 7511POPC   NC326963   0.448  15.191   9.455
 7511POPC   PO426964   0.464  15.208   9.155
 7511POPC   GL126965   0.430  15.148   8.855
 7511POPC   GL226966   0.328  15.120   8.855
 7511POPC   C1A26967   0.416  15.186   8.555
 7511POPC   D2A26968   0.404  15.143   8.255
 7511POPC   C3A26969   0.480  15.178   7.955
 7511POPC   C4A26970   0.409  15.176   7.655
 7511POPC   C1B26971   0.265  14.983   8.555
 7511POPC   C2B26972   0.330  14.949   8.255
 7511POPC   C3B26973   0.345  14.999   7.955
 7511POPC   C4B26974   0.344  14.960   7.655
 7512POPC   NC326975  29.103  42.310   9.455
 7512POPC   PO426976  29.130  42.380   9.155
 7512POPC   GL126977  29.111  42.334   8.855
 7512POPC   GL226978  29.259  42.290   8.855
 7512POPC   C1A26979  29.163  42.373   8.555
 7512POPC   D2A26980  29.171  42.320   8.255
 7512POPC   C3A26981  29.177  42.339   7.955
 7512POPC   C4A26982  29.133  42.288   7.655
 7512POPC   C1B26983  29.379  42.183   8.555
 7512POPC   C2B26984  29.354  42.152   8.255
 7512POPC   C3B26985  29.323  42.233   7.955
 7512POPC   C4B26986  29.315  42.229   7.655
 7513POPC   NC326987   4.360   8.147   9.455
 7513POPC   PO426988   4.329   8.233   9.155
 7513POPC   GL126989   4.346   8.246   8.855
 7513POPC   GL226990   4.316   8.073   8.855
 7513POPC   C1A26991   4.317   8.195   8.555
 7513POPC   D2A26992   4.285   8.187   8.255
 7513POPC   C3A26993   4.325   8.228   7.955
 7513POPC   C4A26994   4.270   8.224   7.655
 7513POPC   C1B26995   4.258   7.920   8.555
 7513POPC   C2B26996   4.204   7.918   8.255
 7513POPC   C3B26997   4.216   7.995   7.955
 7513POPC   C4B26998   4.244   7.982   7.655
 7514POPC   NC326999  31.482  27.555   9.455
 7514POPC   PO427000  31.502  27.614   9.155
 7514POPC   GL127001  31.434  27.579   8.855
 7514POPC   GL227002  31.376  27.481   8.855
 7514POPC   C1A27003  31.502  27.579   8.555
 7514POPC   D2A27004  31.521  27.605   8.255
 7514POPC   C3A27005  31.451  27.614   7.955
 7514POPC   C4A27006  31.464  27.623   7.655
 7514POPC   C1B27007  31.269  27.447   8.555
 7514POPC   C2B27008  31.282  27.384   8.255
 7514POPC   C3B27009  31.336  27.426   7.955
 7514POPC   C4B27010  31.339  27.451   7.655
 7515POPC   NC327011  20.639  43.129   9.455
 7515POPC   PO427012  20.618  43.100   9.155
 7515POPC   GL127013  20.584  43.060   8.855
 7515POPC   GL227014  20.722  43.161   8.855
 7515POPC   C1A27015  20.585  43.069   8.555
 7515POPC   D2A27016  20.588  43.150   8.255
 7515POPC   C3A27017  20.571  43.113   7.955
 7515POPC   C4A27018  20.625  43.155   7.655
 7515POPC   C1B27019  20.873  43.174   8.555
 7515POPC   C2B27020  20.820  43.117   8.255
 7515POPC   C3B27021  20.844  43.154   7.955
 7515POPC   C4B27022  20.864  43.086   7.655
 7516POPC   NC327023   6.619  39.258   9.455
 7516POPC   PO427024   6.618  39.219   9.155
 7516POPC   GL127025   6.645  39.216   8.855
 7516POPC   GL227026   6.656  39.348   8.855
 7516POPC   C1A27027   6.665  39.270   8.555
 7516POPC   D2A27028   6.624  39.256   8.255
 7516POPC   C3A27029   6.685  39.213   7.955
 7516POPC   C4A27030   6.684  39.215   7.655
 7516POPC   C1B27031   6.670  39.501   8.555
 7516POPC   C2B27032   6.692  39.459   8.255
 7516POPC   C3B27033   6.625  39.514   7.955
 7516POPC   C4B27034   6.694  39.507   7.655
 7517POPC   NC327035  21.356  30.710   9.455
 7517POPC   PO427036  21.434  30.742   9.155
 7517POPC   GL127037  21.347  30.698   8.855
 7517POPC   GL227038  21.418  30.580   8.855
 7517POPC   C1A27039  21.343  30.728   8.555
 7517POPC   D2A27040  21.371  30.732   8.255
 7517POPC   C3A27041  21.360  30.690   7.955
 7517POPC   C4A27042  21.356  30.721   7.655
 7517POPC   C1B27043  21.543  30.544   8.555
 7517POPC   C2B27044  21.508  30.492   8.255
 7517POPC   C3B27045  21.508  30.464   7.955
 7517POPC   C4B27046  21.549  30.532   7.655
 7518POPC   NC327047   5.872   5.837   9.455
 7518POPC   PO427048   5.877   5.885   9.155
 7518POPC   GL127049   5.846   5.874   8.855
 7518POPC   GL227050   5.868   5.758   8.855
 7518POPC   C1A27051   5.842   5.898   8.555
 7518POPC   D2A27052   5.844   5.835   8.255
 7518POPC   C3A27053   5.881   5.885   7.955
 7518POPC   C4A27054   5.892   5.884   7.655
 7518POPC   C1B27055   5.879   5.639   8.555
 7518POPC   C2B27056   5.881   5.580   8.255
 7518POPC   C3B27057   5.917   5.612   7.955
 7518POPC   C4B27058   5.877   5.629   7.655
 7519POPC   NC327059  41.514  33.828   9.455
 7519POPC   PO427060  41.529  33.767   9.155
 7519POPC   GL127061  41.565  33.783   8.855
 7519POPC   GL227062  41.581  33.971   8.855
 7519POPC   C1A27063  41.541  33.757   8.555
 7519POPC   D2A27064  41.545  33.821   8.255
 7519POPC   C3A27065  41.544  33.781   7.955
 7519POPC   C4A27066  41.548  33.794   7.655
 7519POPC   C1B27067  41.565  34.013   8.555
 7519POPC   C2B27068  41.587  34.003   8.255
 7519POPC   C3B27069  41.564  34.077   7.955
 7519POPC   C4B27070  41.516  34.055   7.655
 7520POPC   NC327071   1.230  32.988   9.455
 7520POPC   PO427072   1.259  33.022   9.155
 7520POPC   GL127073   1.217  33.009   8.855
 7520POPC   GL227074   1.285  32.984   8.855
 7520POPC   C1A27075   1.241  32.988   8.555
 7520POPC   D2A27076   1.211  32.979   8.255
 7520POPC   C3A27077   1.239  33.020   7.955
 7520POPC   C4A27078   1.172  32.987   7.655
 7520POPC   C1B27079   1.400  32.894   8.555
 7520POPC   C2B27080   1.396  32.934   8.255
 7520POPC   C3B27081   1.442  32.940   7.955
 7520POPC   C4B27082   1.393  32.876   7.655
 7521POPC   NC327083  20.587  23.764   9.455
 7521POPC   PO427084  20.582  23.698   9.155
 7521POPC   GL127085  20.582  23.667   8.855
 7521POPC   GL227086  20.701  23.796   8.855
 7521POPC   C1A27087  20.563  23.757   8.555
 7521POPC   D2A27088  20.606  23.679   8.255
 7521POPC   C3A27089  20.628  23.750   7.955
 7521POPC   C4A27090  20.594  23.670   7.655
 7521POPC   C1B27091  20.807  23.740   8.555
 7521POPC   C2B27092  20.868  23.788   8.255
 7521POPC   C3B27093  20.856  23.790   7.955
 7521POPC   C4B27094  20.815  23.796   7.655
 7522POPC   NC327095   7.383  29.141   9.455
 7522POPC   PO427096   7.413  29.181   9.155
 7522POPC   GL127097   7.443  29.169   8.855
 7522POPC   GL227098   7.287  29.100   8.855
 7522POPC   C1A27099   7.463  29.173   8.555
 7522POPC   D2A27100   7.444  29.126   8.255
 7522POPC   C3A27101   7.400  29.151   7.955
 7522POPC   C4A27102   7.374  29.120   7.655
 7522POPC   C1B27103   7.215  29.057   8.555
 7522POPC   C2B27104   7.222  29.051   8.255
 7522POPC   C3B27105   7.168  29.022   7.955
 7522POPC   C4B27106   7.162  28.996   7.655
 7523POPC   NC327107  22.113  25.269   9.455
 7523POPC   PO427108  22.146  25.263   9.155
 7523POPC   GL127109  22.153  25.266   8.855
 7523POPC   GL227110  22.189  25.140   8.855
 7523POPC   C1A27111  22.152  25.261   8.555
 7523POPC   D2A27112  22.172  25.263   8.255
 7523POPC   C3A27113  22.113  25.286   7.955
 7523POPC   C4A27114  22.132  25.240   7.655
 7523POPC   C1B27115  22.341  25.099   8.555
 7523POPC   C2B27116  22.338  25.029   8.255
 7523POPC   C3B27117  22.264  25.114   7.955
 7523POPC   C4B27118  22.349  25.077   7.655
 7524POPC   NC327119   1.953  40.778   9.455
 7524POPC   PO427120   1.968  40.823   9.155
 7524POPC   GL127121   1.978  40.784   8.855
 7524POPC   GL227122   2.054  40.949   8.855
 7524POPC   C1A27123   1.957  40.800   8.555
 7524POPC   D2A27124   1.947  40.823   8.255
 7524POPC   C3A27125   2.017  40.822   7.955
 7524POPC   C4A27126   1.942  40.764   7.655
 7524POPC   C1B27127   2.094  41.052   8.555
 7524POPC   C2B27128   2.060  40.989   8.255
 7524POPC   C3B27129   2.113  41.063   7.955
 7524POPC   C4B27130   2.080  41.029   7.655
 7525POPC   NC327131   5.819  27.552   9.455
 7525POPC   PO427132   5.886  27.629   9.155
 7525POPC   GL127133   5.916  27.569   8.855
 7525POPC   GL227134   5.808  27.503   8.855
 7525POPC   C1A27135   5.827  27.558   8.555
 7525POPC   D2A27136   5.861  27.621   8.255
 7525POPC   C3A27137   5.884  27.545   7.955
 7525POPC   C4A27138   5.861  27.578   7.655
 7525POPC   C1B27139   5.637  27.510   8.555
 7525POPC   C2B27140   5.600  27.444   8.255
 7525POPC   C3B27141   5.675  27.469   7.955
 7525POPC   C4B27142   5.658  27.444   7.655
 7526POPC   NC327143   5.060  36.161   9.455
 7526POPC   PO427144   5.085  36.161   9.155
 7526POPC   GL127145   5.103  36.134   8.855
 7526POPC   GL227146   5.167  36.019   8.855
 7526POPC   C1A27147   5.128  36.085   8.555
 7526POPC   D2A27148   5.073  36.163   8.255
 7526POPC   C3A27149   5.111  36.103   7.955
 7526POPC   C4A27150   5.110  36.105   7.655
 7526POPC   C1B27151   5.210  35.902   8.555
 7526POPC   C2B27152   5.162  35.856   8.255
 7526POPC   C3B27153   5.200  35.921   7.955
 7526POPC   C4B27154   5.198  35.889   7.655
 7527POPC   NC327155  14.396  12.809   9.455
 7527POPC   PO427156  14.366  12.882   9.155
 7527POPC   GL127157  14.430  12.900   8.855
 7527POPC   GL227158  14.545  12.809   8.855
 7527POPC   C1A27159  14.399  12.828   8.555
 7527POPC   D2A27160  14.404  12.823   8.255
 7527POPC   C3A27161  14.451  12.805   7.955
 7527POPC   C4A27162  14.406  12.809   7.655
 7527POPC   C1B27163  14.610  12.778   8.555
 7527POPC   C2B27164  14.628  12.759   8.255
 7527POPC   C3B27165  14.647  12.770   7.955
 7527POPC   C4B27166  14.636  12.851   7.655
 7528POPC   NC327167   3.580   1.207   9.455
 7528POPC   PO427168   3.503   1.258   9.155
 7528POPC   GL127169   3.578   1.165   8.855
 7528POPC   GL227170   3.435   1.223   8.855
 7528POPC   C1A27171   3.538   1.176   8.555
 7528POPC   D2A27172   3.568   1.245   8.255
 7528POPC   C3A27173   3.516   1.204   7.955
 7528POPC   C4A27174   3.540   1.255   7.655
 7528POPC   C1B27175   3.301   1.147   8.555
 7528POPC   C2B27176   3.324   1.097   8.255
 7528POPC   C3B27177   3.319   1.135   7.955
 7528POPC   C4B27178   3.313   1.092   7.655
 7529POPC   NC327179  42.361  28.349   9.455
 7529POPC   PO427180  42.331  28.373   9.155
 7529POPC   GL127181  42.326  28.392   8.855
 7529POPC   GL227182  42.345  28.236   8.855
 7529POPC   C1A27183  42.332  28.356   8.555
 7529POPC   D2A27184  42.336  28.335   8.255
 7529POPC   C3A27185  42.370  28.327   7.955
 7529POPC   C4A27186  42.292  28.409   7.655
 7529POPC   C1B27187  42.357  28.163   8.555
 7529POPC   C2B27188  42.351  28.083   8.255
 7529POPC   C3B27189  42.398  28.169   7.955
 7529POPC   C4B27190  42.410  28.159   7.655
 7530POPC   NC327191  36.098  41.604   9.455
 7530POPC   PO427192  36.164  41.576   9.155
 7530POPC   GL127193  36.097  41.605   8.855
 7530POPC   GL227194  36.196  41.673   8.855
 7530POPC   C1A27195  36.092  41.509   8.555
 7530POPC   D2A27196  36.081  41.540   8.255
 7530POPC   C3A27197  36.115  41.511   7.955
 7530POPC   C4A27198  36.105  41.596   7.655
 7530POPC   C1B27199  36.219  41.758   8.555
 7530POPC   C2B27200  36.177  41.751   8.255
 7530POPC   C3B27201  36.187  41.779   7.955
 7530POPC   C4B27202  36.208  41.784   7.655
 7531POPC   NC327203  13.584  22.145   9.455
 7531POPC   PO427204  13.582  22.156   9.155
 7531POPC   GL127205  13.579  22.176   8.855
 7531POPC   GL227206  13.471  22.189   8.855
 7531POPC   C1A27207  13.662  22.210   8.555
 7531POPC   D2A27208  13.581  22.159   8.255
 7531POPC   C3A27209  13.636  22.148   7.955
 7531POPC   C4A27210  13.649  22.167   7.655
 7531POPC   C1B27211  13.376  22.172   8.555
 7531POPC   C2B27212  13.400  22.248   8.255
 7531POPC   C3B27213  13.387  22.243   7.955
 7531POPC   C4B27214  13.395  22.165   7.655
 7532POPC   NC327215  15.986  13.638   9.455
 7532POPC   PO427216  15.906  13.638   9.155
 7532POPC   GL127217  15.971  13.580   8.855
 7532POPC   GL227218  16.098  13.511   8.855
 7532POPC   C1A27219  15.952  13.610   8.555
 7532POPC   D2A27220  15.944  13.665   8.255
 7532POPC   C3A27221  15.965  13.664   7.955
 7532POPC   C4A27222  15.935  13.666   7.655
 7532POPC   C1B27223  16.145  13.472   8.555
 7532POPC   C2B27224  16.186  13.452   8.255
 7532POPC   C3B27225  16.182  13.513   7.955
 7532POPC   C4B27226  16.113  13.531   7.655
 7533POPC   NC327227  32.284  34.564   9.455
 7533POPC   PO427228  32.237  34.584   9.155
 7533POPC   GL127229  32.281  34.570   8.855
 7533POPC   GL227230  32.383  34.522   8.855
 7533POPC   C1A27231  32.216  34.624   8.555
 7533POPC   D2A27232  32.219  34.581   8.255
 7533POPC   C3A27233  32.217  34.565   7.955
 7533POPC   C4A27234  32.262  34.610   7.655
 7533POPC   C1B27235  32.482  34.400   8.555
 7533POPC   C2B27236  32.458  34.413   8.255
 7533POPC   C3B27237  32.476  34.457   7.955
 7533POPC   C4B27238  32.437  34.412   7.655
 7534POPC   NC327239  39.265   3.524   9.455
 7534POPC   PO427240  39.251   3.506   9.155
 7534POPC   GL127241  39.181   3.582   8.855
 7534POPC   GL227242  39.349   3.463   8.855
 7534POPC   C1A27243  39.279   3.513   8.555
 7534POPC   D2A27244  39.263   3.552   8.255
 7534POPC   C3A27245  39.188   3.557   7.955
 7534POPC   C4A27246  39.269   3.544   7.655
 7534POPC   C1B27247  39.383   3.370   8.555
 7534POPC   C2B27248  39.403   3.324   8.255
 7534POPC   C3B27249  39.392   3.324   7.955
 7534POPC   C4B27250  39.395   3.351   7.655
 7535POPC   NC327251  43.160  30.737   9.455
 7535POPC   PO427252  43.142  30.721   9.155
 7535POPC   GL127253  43.117  30.686   8.855
 7535POPC   GL227254  42.961  30.702   8.855
 7535POPC   C1A27255  43.153  30.652   8.555
 7535POPC   D2A27256  43.069  30.716   8.255
 7535POPC   C3A27257  43.099  30.683   7.955
 7535POPC   C4A27258  43.075  30.686   7.655
 7535POPC   C1B27259  42.843  30.680   8.555
 7535POPC   C2B27260  42.882  30.690   8.255
 7535POPC   C3B27261  42.870  30.727   7.955
 7535POPC   C4B27262  42.854  30.651   7.655
 7536POPC   NC327263   4.325  37.675   9.455
 7536POPC   PO427264   4.305  37.703   9.155
 7536POPC   GL127265   4.365  37.643   8.855
 7536POPC   GL227266   4.238  37.664   8.855
 7536POPC   C1A27267   4.359  37.693   8.555
 7536POPC   D2A27268   4.366  37.673   8.255
 7536POPC   C3A27269   4.304  37.642   7.955
 7536POPC   C4A27270   4.269  37.678   7.655
 7536POPC   C1B27271   4.030  37.666   8.555
 7536POPC   C2B27272   4.055  37.634   8.255
 7536POPC   C3B27273   4.048  37.658   7.955
 7536POPC   C4B27274   4.043  37.655   7.655
 7537POPC   NC327275   2.721   5.122   9.455
 7537POPC   PO427276   2.767   5.096   9.155
 7537POPC   GL127277   2.747   5.045   8.855
 7537POPC   GL227278   2.689   5.103   8.855
 7537POPC   C1A27279   2.755   5.135   8.555
 7537POPC   D2A27280   2.790   5.091   8.255
 7537POPC   C3A27281   2.744   5.102   7.955
 7537POPC   C4A27282   2.794   5.140   7.655
 7537POPC   C1B27283   2.514   5.073   8.555
 7537POPC   C2B27284   2.540   5.119   8.255
 7537POPC   C3B27285   2.493   5.152   7.955
 7537POPC   C4B27286   2.482   5.073   7.655
 7538POPC   NC327287  22.949  30.700   9.455
 7538POPC   PO427288  22.894  30.725   9.155
 7538POPC   GL127289  22.902  30.705   8.855
 7538POPC   GL227290  23.062  30.655   8.855
 7538POPC   C1A27291  22.909  30.665   8.555
 7538POPC   D2A27292  22.899  30.715   8.255
 7538POPC   C3A27293  22.888  30.717   7.955
 7538POPC   C4A27294  22.899  30.743   7.655
 7538POPC   C1B27295  23.177  30.512   8.555
 7538POPC   C2B27296  23.100  30.545   8.255
 7538POPC   C3B27297  23.126  30.563   7.955
 7538POPC   C4B27298  23.138  30.512   7.655
 7539POPC   NC327299  22.971  35.393   9.455
 7539POPC   PO427300  22.924  35.382   9.155
 7539POPC   GL127301  22.937  35.351   8.855
 7539POPC   GL227302  22.997  35.413   8.855
 7539POPC   C1A27303  22.916  35.388   8.555
 7539POPC   D2A27304  22.936  35.377   8.255
 7539POPC   C3A27305  22.890  35.352   7.955
 7539POPC   C4A27306  22.934  35.315   7.655
 7539POPC   C1B27307  23.134  35.589   8.555
 7539POPC   C2B27308  23.096  35.505   8.255
 7539POPC   C3B27309  23.132  35.507   7.955
 7539POPC   C4B27310  23.047  35.582   7.655
 7540POPC   NC327311   2.718  30.690   9.455
 7540POPC   PO427312   2.809  30.693   9.155
 7540POPC   GL127313   2.729  30.661   8.855
 7540POPC   GL227314   2.862  30.644   8.855
 7540POPC   C1A27315   2.796  30.664   8.555
 7540POPC   D2A27316   2.773  30.663   8.255
 7540POPC   C3A27317   2.716  30.660   7.955
 7540POPC   C4A27318   2.763  30.725   7.655
 7540POPC   C1B27319   3.035  30.658   8.555
 7540POPC   C2B27320   3.035  30.635   8.255
 7540POPC   C3B27321   3.035  30.637   7.955
 7540POPC   C4B27322   3.046  30.593   7.655
 7541POPC   NC327323   2.759   7.390   9.455
 7541POPC   PO427324   2.758   7.376   9.155
 7541POPC   GL127325   2.742   7.426   8.855
 7541POPC   GL227326   2.615   7.382   8.855
 7541POPC   C1A27327   2.773   7.414   8.555
 7541POPC   D2A27328   2.736   7.467   8.255
 7541POPC   C3A27329   2.808   7.429   7.955
 7541POPC   C4A27330   2.805   7.424   7.655
 7541POPC   C1B27331   2.532   7.326   8.555
 7541POPC   C2B27332   2.498   7.277   8.255
 7541POPC   C3B27333   2.522   7.349   7.955
 7541POPC   C4B27334   2.534   7.276   7.655
 7542POPC   NC327335  40.033  17.519   9.455
 7542POPC   PO427336  39.985  17.536   9.155
 7542POPC   GL127337  39.973  17.517   8.855
 7542POPC   GL227338  40.140  17.409   8.855
 7542POPC   C1A27339  39.996  17.465   8.555
 7542POPC   D2A27340  40.057  17.548   8.255
 7542POPC   C3A27341  40.038  17.473   7.955
 7542POPC   C4A27342  39.993  17.476   7.655
 7542POPC   C1B27343  40.235  17.360   8.555
 7542POPC   C2B27344  40.197  17.405   8.255
 7542POPC   C3B27345  40.266  17.389   7.955
 7542POPC   C4B27346  40.180  17.344   7.655
 7543POPC   NC327347  23.669  12.084   9.455
 7543POPC   PO427348  23.759  12.094   9.155
 7543POPC   GL127349  23.750  12.079   8.855
 7543POPC   GL227350  23.640  12.190   8.855
 7543POPC   C1A27351  23.707  12.056   8.555
 7543POPC   D2A27352  23.670  12.094   8.255
 7543POPC   C3A27353  23.743  12.104   7.955
 7543POPC   C4A27354  23.706  12.053   7.655
 7543POPC   C1B27355  23.591  12.312   8.555
 7543POPC   C2B27356  23.555  12.270   8.255
 7543POPC   C3B27357  23.536  12.254   7.955
 7543POPC   C4B27358  23.516  12.243   7.655
 7544POPC   NC327359  37.647  19.045   9.455
 7544POPC   PO427360  37.709  19.084   9.155
 7544POPC   GL127361  37.697  19.077   8.855
 7544POPC   GL227362  37.588  19.036   8.855
 7544POPC   C1A27363  37.632  19.087   8.555
 7544POPC   D2A27364  37.679  19.093   8.255
 7544POPC   C3A27365  37.656  19.035   7.955
 7544POPC   C4A27366  37.709  19.089   7.655
 7544POPC   C1B27367  37.430  19.152   8.555
 7544POPC   C2B27368  37.472  19.079   8.255
 7544POPC   C3B27369  37.451  19.068   7.955
 7544POPC   C4B27370  37.466  19.140   7.655
 7545POPC   NC327371  23.673  16.701   9.455
 7545POPC   PO427372  23.744  16.759   9.155
 7545POPC   GL127373  23.685  16.712   8.855
 7545POPC   GL227374  23.567  16.627   8.855
 7545POPC   C1A27375  23.701  16.698   8.555
 7545POPC   D2A27376  23.724  16.777   8.255
 7545POPC   C3A27377  23.683  16.739   7.955
 7545POPC   C4A27378  23.738  16.767   7.655
 7545POPC   C1B27379  23.472  16.565   8.555
 7545POPC   C2B27380  23.515  16.594   8.255
 7545POPC   C3B27381  23.473  16.622   7.955
 7545POPC   C4B27382  23.462  16.547   7.655
 7546POPC   NC327383  33.801  29.893   9.455
 7546POPC   PO427384  33.847  29.960   9.155
 7546POPC   GL127385  33.792  29.929   8.855
 7546POPC   GL227386  33.952  29.854   8.855
 7546POPC   C1A27387  33.797  29.942   8.555
 7546POPC   D2A27388  33.802  29.925   8.255
 7546POPC   C3A27389  33.839  29.882   7.955
 7546POPC   C4A27390  33.834  29.926   7.655
 7546POPC   C1B27391  34.037  29.737   8.555
 7546POPC   C2B27392  33.961  29.790   8.255
 7546POPC   C3B27393  33.964  29.802   7.955
 7546POPC   C4B27394  34.028  29.781   7.655
 7547POPC   NC327395   8.196  32.212   9.455
 7547POPC   PO427396   8.209  32.209   9.155
 7547POPC   GL127397   8.202  32.219   8.855
 7547POPC   GL227398   8.162  32.189   8.855
 7547POPC   C1A27399   8.216  32.244   8.555
 7547POPC   D2A27400   8.210  32.247   8.255
 7547POPC   C3A27401   8.208  32.245   7.955
 7547POPC   C4A27402   8.199  32.245   7.655
 7547POPC   C1B27403   7.988  32.049   8.555
 7547POPC   C2B27404   8.030  32.017   8.255
 7547POPC   C3B27405   7.996  32.008   7.955
 7547POPC   C4B27406   8.040  32.060   7.655
 7548POPC   NC327407  24.480  32.295   9.455
 7548POPC   PO427408  24.525  32.285   9.155
 7548POPC   GL127409  24.489  32.218   8.855
 7548POPC   GL227410  24.375  32.309   8.855
 7548POPC   C1A27411  24.470  32.200   8.555
 7548POPC   D2A27412  24.441  32.267   8.255
 7548POPC   C3A27413  24.497  32.293   7.955
 7548POPC   C4A27414  24.505  32.212   7.655
 7548POPC   C1B27415  24.368  32.433   8.555
 7548POPC   C2B27416  24.363  32.472   8.255
 7548POPC   C3B27417  24.346  32.434   7.955
 7548POPC   C4B27418  24.317  32.495   7.655
 7549POPC   NC327419  20.578  39.250   9.455
 7549POPC   PO427420  20.595  39.236   9.155
 7549POPC   GL127421  20.649  39.210   8.855
 7549POPC   GL227422  20.770  39.249   8.855
 7549POPC   C1A27423  20.655  39.260   8.555
 7549POPC   D2A27424  20.574  39.188   8.255
 7549POPC   C3A27425  20.571  39.211   7.955
 7549POPC   C4A27426  20.644  39.239   7.655
 7549POPC   C1B27427  20.818  39.170   8.555
 7549POPC   C2B27428  20.896  39.216   8.255
 7549POPC   C3B27429  20.847  39.207   7.955
 7549POPC   C4B27430  20.906  39.215   7.655
 7550POPC   NC327431   5.828  38.464   9.455
 7550POPC   PO427432   5.860  38.444   9.155
 7550POPC   GL127433   5.902  38.462   8.855
 7550POPC   GL227434   5.753  38.538   8.855
 7550POPC   C1A27435   5.888  38.439   8.555
 7550POPC   D2A27436   5.915  38.473   8.255
 7550POPC   C3A27437   5.886  38.491   7.955
 7550POPC   C4A27438   5.844  38.438   7.655
 7550POPC   C1B27439   5.661  38.485   8.555
 7550POPC   C2B27440   5.613  38.558   8.255
 7550POPC   C3B27441   5.617  38.555   7.955
 7550POPC   C4B27442   5.672  38.556   7.655
 7551POPC   NC327443  36.126  36.877   9.455
 7551POPC   PO427444  36.161  36.859   9.155
 7551POPC   GL127445  36.097  36.948   8.855
 7551POPC   GL227446  36.155  37.051   8.855
 7551POPC   C1A27447  36.115  36.943   8.555
 7551POPC   D2A27448  36.156  36.913   8.255
 7551POPC   C3A27449  36.159  36.868   7.955
 7551POPC   C4A27450  36.142  36.857   7.655
 7551POPC   C1B27451  36.260  37.118   8.555
 7551POPC   C2B27452  36.258  37.136   8.255
 7551POPC   C3B27453  36.256  37.088   7.955
 7551POPC   C4B27454  36.240  37.082   7.655
 7552POPC   NC327455  13.602  23.720   9.455
 7552POPC   PO427456  13.597  23.752   9.155
 7552POPC   GL127457  13.582  23.761   8.855
 7552POPC   GL227458  13.524  23.596   8.855
 7552POPC   C1A27459  13.608  23.738   8.555
 7552POPC   D2A27460  13.615  23.698   8.255
 7552POPC   C3A27461  13.635  23.675   7.955
 7552POPC   C4A27462  13.588  23.759   7.655
 7552POPC   C1B27463  13.473  23.539   8.555
 7552POPC   C2B27464  13.457  23.583   8.255
 7552POPC   C3B27465  13.475  23.533   7.955
 7552POPC   C4B27466  13.459  23.517   7.655
 7553POPC   NC327467   2.721  29.132   9.455
 7553POPC   PO427468   2.785  29.125   9.155
 7553POPC   GL127469   2.805  29.139   8.855
 7553POPC   GL227470   2.769  29.062   8.855
 7553POPC   C1A27471   2.769  29.111   8.555
 7553POPC   D2A27472   2.773  29.117   8.255
 7553POPC   C3A27473   2.741  29.121   7.955
 7553POPC   C4A27474   2.731  29.115   7.655
 7553POPC   C1B27475   2.857  28.923   8.555
 7553POPC   C2B27476   2.881  28.935   8.255
 7553POPC   C3B27477   2.836  28.878   7.955
 7553POPC   C4B27478   2.811  28.859   7.655
 7554POPC   NC327479   0.411  36.092   9.455
 7554POPC   PO427480   0.439  36.091   9.155
 7554POPC   GL127481   0.410  36.143   8.855
 7554POPC   GL227482   0.389  36.031   8.855
 7554POPC   C1A27483   0.480  36.177   8.555
 7554POPC   D2A27484   0.449  36.110   8.255
 7554POPC   C3A27485   0.405  36.127   7.955
 7554POPC   C4A27486   0.393  36.137   7.655
 7554POPC   C1B27487   0.388  35.922   8.555
 7554POPC   C2B27488   0.412  35.910   8.255
 7554POPC   C3B27489   0.359  35.857   7.955
 7554POPC   C4B27490   0.359  35.919   7.655
 7555POPC   NC327491   3.502   4.285   9.455
 7555POPC   PO427492   3.558   4.339   9.155
 7555POPC   GL127493   3.569   4.323   8.855
 7555POPC   GL227494   3.494   4.432   8.855
 7555POPC   C1A27495   3.510   4.341   8.555
 7555POPC   D2A27496   3.529   4.312   8.255
 7555POPC   C3A27497   3.582   4.298   7.955
 7555POPC   C4A27498   3.575   4.347   7.655
 7555POPC   C1B27499   3.355   4.463   8.555
 7555POPC   C2B27500   3.390   4.455   8.255
 7555POPC   C3B27501   3.324   4.530   7.955
 7555POPC   C4B27502   3.345   4.526   7.655
 7556POPC   NC327503  19.045  42.324   9.455
 7556POPC   PO427504  19.095  42.348   9.155
 7556POPC   GL127505  19.011  42.302   8.855
 7556POPC   GL227506  18.964  42.243   8.855
 7556POPC   C1A27507  19.088  42.295   8.555
 7556POPC   D2A27508  19.103  42.299   8.255
 7556POPC   C3A27509  19.056  42.328   7.955
 7556POPC   C4A27510  19.026  42.322   7.655
 7556POPC   C1B27511  18.895  42.176   8.555
 7556POPC   C2B27512  18.886  42.245   8.255
 7556POPC   C3B27513  18.821  42.191   7.955
 7556POPC   C4B27514  18.818  42.201   7.655
 7557POPC   NC327515  33.049  35.392   9.455
 7557POPC   PO427516  32.981  35.364   9.155
 7557POPC   GL127517  33.003  35.398   8.855
 7557POPC   GL227518  32.971  35.216   8.855
 7557POPC   C1A27519  33.002  35.386   8.555
 7557POPC   D2A27520  32.983  35.323   8.255
 7557POPC   C3A27521  33.066  35.312   7.955
 7557POPC   C4A27522  33.049  35.386   7.655
 7557POPC   C1B27523  32.822  35.136   8.555
 7557POPC   C2B27524  32.819  35.153   8.255
 7557POPC   C3B27525  32.887  35.115   7.955
 7557POPC   C4B27526  32.852  35.128   7.655
 7558POPC   NC327527   3.565  40.031   9.455
 7558POPC   PO427528   3.521  40.020   9.155
 7558POPC   GL127529   3.527  39.994   8.855
 7558POPC   GL227530   3.610  40.111   8.855
 7558POPC   C1A27531   3.560  39.976   8.555
 7558POPC   D2A27532   3.538  40.017   8.255
 7558POPC   C3A27533   3.519  39.992   7.955
 7558POPC   C4A27534   3.560  39.988   7.655
 7558POPC   C1B27535   3.670  40.221   8.555
 7558POPC   C2B27536   3.681  40.200   8.255
 7558POPC   C3B27537   3.751  40.161   7.955
 7558POPC   C4B27538   3.718  40.153   7.655
 7559POPC   NC327539  36.858  28.394   9.455
 7559POPC   PO427540  36.886  28.365   9.155
 7559POPC   GL127541  36.929  28.392   8.855
 7559POPC   GL227542  36.824  28.212   8.855
 7559POPC   C1A27543  36.951  28.403   8.555
 7559POPC   D2A27544  36.899  28.389   8.255
 7559POPC   C3A27545  36.939  28.405   7.955
 7559POPC   C4A27546  36.884  28.337   7.655
 7559POPC   C1B27547  36.800  28.139   8.555
 7559POPC   C2B27548  36.774  28.150   8.255
 7559POPC   C3B27549  36.825  28.198   7.955
 7559POPC   C4B27550  36.808  28.102   7.655
 7560POPC   NC327551  41.598   0.478   9.455
 7560POPC   PO427552  41.600   0.460   9.155
 7560POPC   GL127553  41.573   0.461   8.855
 7560POPC   GL227554  41.516   0.548   8.855
 7560POPC   C1A27555  41.549   0.435   8.555
 7560POPC   D2A27556  41.540   0.442   8.255
 7560POPC   C3A27557  41.530   0.413   7.955
 7560POPC   C4A27558  41.555   0.442   7.655
 7560POPC   C1B27559  41.405   0.629   8.555
 7560POPC   C2B27560  41.404   0.677   8.255
 7560POPC   C3B27561  41.370   0.685   7.955
 7560POPC   C4B27562  41.403   0.652   7.655
 7561POPC   NC327563  31.486   9.769   9.455
 7561POPC   PO427564  31.499   9.707   9.155
 7561POPC   GL127565  31.470   9.795   8.855
 7561POPC   GL227566  31.547   9.833   8.855
 7561POPC   C1A27567  31.433   9.714   8.555
 7561POPC   D2A27568  31.473   9.775   8.255
 7561POPC   C3A27569  31.493   9.771   7.955
 7561POPC   C4A27570  31.443   9.765   7.655
 7561POPC   C1B27571  31.662   9.897   8.555
 7561POPC   C2B27572  31.719   9.907   8.255
 7561POPC   C3B27573  31.639   9.923   7.955
 7561POPC   C4B27574  31.698   9.843   7.655
 7562POPC   NC327575  19.787  28.339   9.455
 7562POPC   PO427576  19.846  28.370   9.155
 7562POPC   GL127577  19.809  28.410   8.855
 7562POPC   GL227578  19.738  28.441   8.855
 7562POPC   C1A27579  19.842  28.373   8.555
 7562POPC   D2A27580  19.826  28.357   8.255
 7562POPC   C3A27581  19.850  28.367   7.955
 7562POPC   C4A27582  19.801  28.338   7.655
 7562POPC   C1B27583  19.661  28.475   8.555
 7562POPC   C2B27584  19.584  28.524   8.255
 7562POPC   C3B27585  19.654  28.518   7.955
 7562POPC   C4B27586  19.658  28.489   7.655
 7563POPC   NC327587  41.591  39.276   9.455
 7563POPC   PO427588  41.515  39.266   9.155
 7563POPC   GL127589  41.537  39.188   8.855
 7563POPC   GL227590  41.600  39.319   8.855
 7563POPC   C1A27591  41.597  39.220   8.555
 7563POPC   D2A27592  41.588  39.270   8.255
 7563POPC   C3A27593  41.511  39.254   7.955
 7563POPC   C4A27594  41.588  39.233   7.655
 7563POPC   C1B27595  41.683  39.452   8.555
 7563POPC   C2B27596  41.773  39.398   8.255
 7563POPC   C3B27597  41.701  39.450   7.955
 7563POPC   C4B27598  41.744  39.445   7.655
 7564POPC   NC327599  11.272  44.685   9.455
 7564POPC   PO427600  11.289  44.661   9.155
 7564POPC   GL127601  11.340  44.694   8.855
 7564POPC   GL227602  11.349  44.502   8.855
 7564POPC   C1A27603  11.259  44.615   8.555
 7564POPC   D2A27604  11.316  44.700   8.255
 7564POPC   C3A27605  11.307  44.649   7.955
 7564POPC   C4A27606  11.282  44.695   7.655
 7564POPC   C1B27607  11.357  44.447   8.555
 7564POPC   C2B27608  11.351  44.422   8.255
 7564POPC   C3B27609  11.329  44.400   7.955
 7564POPC   C4B27610  11.305  44.393   7.655
 7565POPC   NC327611  25.220  15.206   9.455
 7565POPC   PO427612  25.307  15.207   9.155
 7565POPC   GL127613  25.268  15.140   8.855
 7565POPC   GL227614  25.377  15.265   8.855
 7565POPC   C1A27615  25.225  15.221   8.555
 7565POPC   D2A27616  25.305  15.201   8.255
 7565POPC   C3A27617  25.218  15.150   7.955
 7565POPC   C4A27618  25.238  15.204   7.655
 7565POPC   C1B27619  25.401  15.393   8.555
 7565POPC   C2B27620  25.463  15.339   8.255
 7565POPC   C3B27621  25.425  15.403   7.955
 7565POPC   C4B27622  25.430  15.339   7.655
 7566POPC   NC327623   6.676  36.089   9.455
 7566POPC   PO427624   6.662  36.094   9.155
 7566POPC   GL127625   6.669  36.082   8.855
 7566POPC   GL227626   6.652  36.006   8.855
 7566POPC   C1A27627   6.633  36.114   8.555
 7566POPC   D2A27628   6.629  36.136   8.255
 7566POPC   C3A27629   6.686  36.083   7.955
 7566POPC   C4A27630   6.686  36.116   7.655
 7566POPC   C1B27631   6.612  35.934   8.555
 7566POPC   C2B27632   6.614  35.872   8.255
 7566POPC   C3B27633   6.584  35.861   7.955
 7566POPC   C4B27634   6.621  35.887   7.655
 7567POPC   NC327635  22.948  25.262   9.455
 7567POPC   PO427636  22.926  25.276   9.155
 7567POPC   GL127637  22.947  25.219   8.855
 7567POPC   GL227638  22.851  25.267   8.855
 7567POPC   C1A27639  22.906  25.284   8.555
 7567POPC   D2A27640  22.901  25.275   8.255
 7567POPC   C3A27641  22.904  25.311   7.955
 7567POPC   C4A27642  22.947  25.288   7.655
 7567POPC   C1B27643  22.736  25.309   8.555
 7567POPC   C2B27644  22.694  25.258   8.255
 7567POPC   C3B27645  22.647  25.263   7.955
 7567POPC   C4B27646  22.700  25.324   7.655
 7568POPC   NC327647  22.924  39.966   9.455
 7568POPC   PO427648  22.919  40.017   9.155
 7568POPC   GL127649  22.925  39.987   8.855
 7568POPC   GL227650  23.008  39.952   8.855
 7568POPC   C1A27651  22.953  39.970   8.555
 7568POPC   D2A27652  22.903  39.965   8.255
 7568POPC   C3A27653  22.954  40.024   7.955
 7568POPC   C4A27654  22.967  39.965   7.655
 7568POPC   C1B27655  23.102  39.785   8.555
 7568POPC   C2B27656  23.090  39.824   8.255
 7568POPC   C3B27657  23.075  39.832   7.955
 7568POPC   C4B27658  23.107  39.840   7.655
 7569POPC   NC327659  26.851   7.387   9.455
 7569POPC   PO427660  26.832   7.429   9.155
 7569POPC   GL127661  26.832   7.463   8.855
 7569POPC   GL227662  26.877   7.357   8.855
 7569POPC   C1A27663  26.845   7.441   8.555
 7569POPC   D2A27664  26.795   7.393   8.255
 7569POPC   C3A27665  26.786   7.461   7.955
 7569POPC   C4A27666  26.768   7.445   7.655
 7569POPC   C1B27667  27.009   7.187   8.555
 7569POPC   C2B27668  27.008   7.244   8.255
 7569POPC   C3B27669  26.959   7.167   7.955
 7569POPC   C4B27670  26.955   7.185   7.655
 7570POPC   NC327671  18.266  23.685   9.455
 7570POPC   PO427672  18.261  23.730   9.155
 7570POPC   GL127673  18.277  23.708   8.855
 7570POPC   GL227674  18.388  23.621   8.855
 7570POPC   C1A27675  18.329  23.753   8.555
 7570POPC   D2A27676  18.249  23.674   8.255
 7570POPC   C3A27677  18.285  23.678   7.955
 7570POPC   C4A27678  18.283  23.763   7.655
 7570POPC   C1B27679  18.530  23.561   8.555
 7570POPC   C2B27680  18.544  23.548   8.255
 7570POPC   C3B27681  18.539  23.581   7.955
 7570POPC   C4B27682  18.533  23.615   7.655
 7571POPC   NC327683  16.774  25.247   9.455
 7571POPC   PO427684  16.724  25.299   9.155
 7571POPC   GL127685  16.740  25.222   8.855
 7571POPC   GL227686  16.566  25.229   8.855
 7571POPC   C1A27687  16.756  25.297   8.555
 7571POPC   D2A27688  16.728  25.263   8.255
 7571POPC   C3A27689  16.709  25.233   7.955
 7571POPC   C4A27690  16.766  25.284   7.655
 7571POPC   C1B27691  16.510  25.183   8.555
 7571POPC   C2B27692  16.501  25.254   8.255
 7571POPC   C3B27693  16.514  25.198   7.955
 7571POPC   C4B27694  16.481  25.244   7.655
 7572POPC   NC327695  37.704  24.516   9.455
 7572POPC   PO427696  37.704  24.519   9.155
 7572POPC   GL127697  37.703  24.477   8.855
 7572POPC   GL227698  37.765  24.431   8.855
 7572POPC   C1A27699  37.653  24.539   8.555
 7572POPC   D2A27700  37.711  24.504   8.255
 7572POPC   C3A27701  37.719  24.488   7.955
 7572POPC   C4A27702  37.670  24.456   7.655
 7572POPC   C1B27703  37.890  24.336   8.555
 7572POPC   C2B27704  37.921  24.332   8.255
 7572POPC   C3B27705  37.898  24.408   7.955
 7572POPC   C4B27706  37.877  24.358   7.655
 7573POPC   NC327707  12.051  22.893   9.455
 7573POPC   PO427708  12.124  22.895   9.155
 7573POPC   GL127709  12.118  22.943   8.855
 7573POPC   GL227710  12.091  22.868   8.855
 7573POPC   C1A27711  12.059  22.963   8.555
 7573POPC   D2A27712  12.111  22.968   8.255
 7573POPC   C3A27713  12.108  22.907   7.955
 7573POPC   C4A27714  12.081  22.897   7.655
 7573POPC   C1B27715  12.208  22.752   8.555
 7573POPC   C2B27716  12.161  22.689   8.255
 7573POPC   C3B27717  12.164  22.707   7.955
 7573POPC   C4B27718  12.219  22.721   7.655
 7574POPC   NC327719   3.565  26.769   9.455
 7574POPC   PO427720   3.586  26.792   9.155
 7574POPC   GL127721   3.537  26.767   8.855
 7574POPC   GL227722   3.609  26.901   8.855
 7574POPC   C1A27723   3.555  26.850   8.555
 7574POPC   D2A27724   3.498  26.847   8.255
 7574POPC   C3A27725   3.567  26.800   7.955
 7574POPC   C4A27726   3.582  26.833   7.655
 7574POPC   C1B27727   3.606  27.040   8.555
 7574POPC   C2B27728   3.643  27.017   8.255
 7574POPC   C3B27729   3.666  27.004   7.955
 7574POPC   C4B27730   3.687  27.053   7.655
 7575POPC   NC327731   3.545  11.346   9.455
 7575POPC   PO427732   3.531  11.316   9.155
 7575POPC   GL127733   3.513  11.251   8.855
 7575POPC   GL227734   3.386  11.243   8.855
 7575POPC   C1A27735   3.584  11.315   8.555
 7575POPC   D2A27736   3.513  11.311   8.255
 7575POPC   C3A27737   3.545  11.268   7.955
 7575POPC   C4A27738   3.546  11.280   7.655
 7575POPC   C1B27739   3.353  11.223   8.555
 7575POPC   C2B27740   3.355  11.156   8.255
 7575POPC   C3B27741   3.264  11.190   7.955
 7575POPC   C4B27742   3.362  11.184   7.655
 7576POPC   NC327743  26.797  31.427   9.455
 7576POPC   PO427744  26.866  31.506   9.155
 7576POPC   GL127745  26.820  31.499   8.855
 7576POPC   GL227746  26.712  31.494   8.855
 7576POPC   C1A27747  26.792  31.503   8.555
 7576POPC   D2A27748  26.818  31.486   8.255
 7576POPC   C3A27749  26.829  31.476   7.955
 7576POPC   C4A27750  26.815  31.483   7.655
 7576POPC   C1B27751  26.593  31.454   8.555
 7576POPC   C2B27752  26.610  31.484   8.255
 7576POPC   C3B27753  26.601  31.469   7.955
 7576POPC   C4B27754  26.531  31.439   7.655
 7577POPC   NC327755  44.615   0.447   9.455
 7577POPC   PO427756  44.681   0.445   9.155
 7577POPC   GL127757  44.627   0.392   8.855
 7577POPC   GL227758  44.762   0.536   8.855
 7577POPC   C1A27759  44.655   0.461   8.555
 7577POPC   D2A27760  44.711   0.461   8.255
 7577POPC   C3A27761  44.705   0.404   7.955
 7577POPC   C4A27762  44.662   0.420   7.655
 7577POPC   C1B27763  44.917   0.534   8.555
 7577POPC   C2B27764  44.876   0.529   8.255
 7577POPC   C3B27765  44.881   0.571   7.955
 7577POPC   C4B27766  44.936   0.543   7.655
 7578POPC   NC327767  22.121  36.942   9.455
 7578POPC   PO427768  22.146  36.874   9.155
 7578POPC   GL127769  22.161  36.896   8.855
 7578POPC   GL227770  22.138  37.001   8.855
 7578POPC   C1A27771  22.162  36.893   8.555
 7578POPC   D2A27772  22.197  36.915   8.255
 7578POPC   C3A27773  22.114  36.938   7.955
 7578POPC   C4A27774  22.132  36.859   7.655
 7578POPC   C1B27775  22.077  37.079   8.555
 7578POPC   C2B27776  22.053  37.120   8.255
 7578POPC   C3B27777  22.095  37.151   7.955
 7578POPC   C4B27778  22.019  37.139   7.655
 7579POPC   NC327779   8.923  36.923   9.455
 7579POPC   PO427780   9.004  36.905   9.155
 7579POPC   GL127781   8.939  36.881   8.855
 7579POPC   GL227782   8.808  36.954   8.855
 7579POPC   C1A27783   8.945  36.904   8.555
 7579POPC   D2A27784   8.984  36.942   8.255
 7579POPC   C3A27785   9.008  36.926   7.955
 7579POPC   C4A27786   8.990  36.867   7.655
 7579POPC   C1B27787   8.741  36.941   8.555
 7579POPC   C2B27788   8.748  36.909   8.255
 7579POPC   C3B27789   8.689  36.916   7.955
 7579POPC   C4B27790   8.723  36.902   7.655
 7580POPC   NC327791  16.701  43.152   9.455
 7580POPC   PO427792  16.732  43.083   9.155
 7580POPC   GL127793  16.688  43.061   8.855
 7580POPC   GL227794  16.687  43.199   8.855
 7580POPC   C1A27795  16.695  43.067   8.555
 7580POPC   D2A27796  16.729  43.080   8.255
 7580POPC   C3A27797  16.708  43.068   7.955
 7580POPC   C4A27798  16.693  43.065   7.655
 7580POPC   C1B27799  16.589  43.348   8.555
 7580POPC   C2B27800  16.618  43.334   8.255
 7580POPC   C3B27801  16.575  43.344   7.955
 7580POPC   C4B27802  16.602  43.367   7.655
 7581POPC   NC327803  40.807  25.268   9.455
 7581POPC   PO427804  40.783  25.237   9.155
 7581POPC   GL127805  40.734  25.231   8.855
 7581POPC   GL227806  40.859  25.173   8.855
 7581POPC   C1A27807  40.805  25.262   8.555
 7581POPC   D2A27808  40.811  25.230   8.255
 7581POPC   C3A27809  40.814  25.223   7.955
 7581POPC   C4A27810  40.785  25.299   7.655
 7581POPC   C1B27811  40.884  25.003   8.555
 7581POPC   C2B27812  40.867  25.001   8.255
 7581POPC   C3B27813  40.848  25.030   7.955
 7581POPC   C4B27814  40.848  25.017   7.655
 7582POPC   NC327815   7.419   6.629   9.455
 7582POPC   PO427816   7.435   6.647   9.155
 7582POPC   GL127817   7.382   6.613   8.855
 7582POPC   GL227818   7.497   6.577   8.855
 7582POPC   C1A27819   7.372   6.633   8.555
 7582POPC   D2A27820   7.381   6.600   8.255
 7582POPC   C3A27821   7.378   6.616   7.955
 7582POPC   C4A27822   7.414   6.597   7.655
 7582POPC   C1B27823   7.648   6.619   8.555
 7582POPC   C2B27824   7.617   6.528   8.255
 7582POPC   C3B27825   7.673   6.556   7.955
 7582POPC   C4B27826   7.696   6.565   7.655
 7583POPC   NC327827  23.687  15.206   9.455
 7583POPC   PO427828  23.685  15.157   9.155
 7583POPC   GL127829  23.752  15.177   8.855
 7583POPC   GL227830  23.587  15.217   8.855
 7583POPC   C1A27831  23.713  15.145   8.555
 7583POPC   D2A27832  23.741  15.141   8.255
 7583POPC   C3A27833  23.760  15.164   7.955
 7583POPC   C4A27834  23.726  15.193   7.655
 7583POPC   C1B27835  23.513  15.204   8.555
 7583POPC   C2B27836  23.509  15.196   8.255
 7583POPC   C3B27837  23.495  15.220   7.955
 7583POPC   C4B27838  23.477  15.152   7.655
 7584POPC   NC327839  19.853  19.884   9.455
 7584POPC   PO427840  19.876  19.882   9.155
 7584POPC   GL127841  19.822  19.859   8.855
 7584POPC   GL227842  19.782  19.909   8.855
 7584POPC   C1A27843  19.859  19.883   8.555
 7584POPC   D2A27844  19.787  19.856   8.255
 7584POPC   C3A27845  19.860  19.802   7.955
 7584POPC   C4A27846  19.820  19.809   7.655
 7584POPC   C1B27847  19.727  20.038   8.555
 7584POPC   C2B27848  19.707  20.048   8.255
 7584POPC   C3B27849  19.721  20.042   7.955
 7584POPC   C4B27850  19.767  20.013   7.655
 7585POPC   NC327851  12.065  23.698   9.455
 7585POPC   PO427852  12.064  23.752   9.155
 7585POPC   GL127853  12.085  23.725   8.855
 7585POPC   GL227854  12.180  23.815   8.855
 7585POPC   C1A27855  12.046  23.735   8.555
 7585POPC   D2A27856  12.123  23.689   8.255
 7585POPC   C3A27857  12.120  23.716   7.955
 7585POPC   C4A27858  12.027  23.668   7.655
 7585POPC   C1B27859  12.316  23.859   8.555
 7585POPC   C2B27860  12.287  23.861   8.255
 7585POPC   C3B27861  12.339  23.866   7.955
 7585POPC   C4B27862  12.333  23.827   7.655
 7586POPC   NC327863  22.895  42.309   9.455
 7586POPC   PO427864  22.898  42.350   9.155
 7586POPC   GL127865  22.952  42.381   8.855
 7586POPC   GL227866  22.838  42.216   8.855
 7586POPC   C1A27867  22.948  42.333   8.555
 7586POPC   D2A27868  22.983  42.328   8.255
 7586POPC   C3A27869  22.898  42.332   7.955
 7586POPC   C4A27870  22.909  42.337   7.655
 7586POPC   C1B27871  22.726  42.160   8.555
 7586POPC   C2B27872  22.689  42.164   8.255
 7586POPC   C3B27873  22.706  42.233   7.955
 7586POPC   C4B27874  22.778  42.209   7.655
 7587POPC   NC327875  30.713  43.143   9.455
 7587POPC   PO427876  30.681  43.146   9.155
 7587POPC   GL127877  30.654  43.141   8.855
 7587POPC   GL227878  30.755  42.997   8.855
 7587POPC   C1A27879  30.667  43.063   8.555
 7587POPC   D2A27880  30.656  43.146   8.255
 7587POPC   C3A27881  30.730  43.130   7.955
 7587POPC   C4A27882  30.735  43.067   7.655
 7587POPC   C1B27883  30.804  42.878   8.555
 7587POPC   C2B27884  30.795  42.828   8.255
 7587POPC   C3B27885  30.771  42.828   7.955
 7587POPC   C4B27886  30.760  42.828   7.655
 7588POPC   NC327887  39.195  39.982   9.455
 7588POPC   PO427888  39.205  40.044   9.155
 7588POPC   GL127889  39.255  39.962   8.855
 7588POPC   GL227890  39.164  39.926   8.855
 7588POPC   C1A27891  39.221  40.014   8.555
 7588POPC   D2A27892  39.275  39.986   8.255
 7588POPC   C3A27893  39.264  40.057   7.955
 7588POPC   C4A27894  39.224  40.006   7.655
 7588POPC   C1B27895  39.031  39.842   8.555
 7588POPC   C2B27896  39.067  39.859   8.255
 7588POPC   C3B27897  39.054  39.849   7.955
 7588POPC   C4B27898  39.028  39.842   7.655
 7589POPC   NC327899  23.664  24.490   9.455
 7589POPC   PO427900  23.706  24.486   9.155
 7589POPC   GL127901  23.730  24.523   8.855
 7589POPC   GL227902  23.603  24.544   8.855
 7589POPC   C1A27903  23.750  24.444   8.555
 7589POPC   D2A27904  23.673  24.512   8.255
 7589POPC   C3A27905  23.743  24.496   7.955
 7589POPC   C4A27906  23.695  24.466   7.655
 7589POPC   C1B27907  23.421  24.507   8.555
 7589POPC   C2B27908  23.476  24.539   8.255
 7589POPC   C3B27909  23.434  24.553   7.955
 7589POPC   C4B27910  23.445  24.508   7.655
 7590POPC   NC327911  34.566   7.457   9.455
 7590POPC   PO427912  34.546   7.468   9.155
 7590POPC   GL127913  34.602   7.384   8.855
 7590POPC   GL227914  34.628   7.547   8.855
 7590POPC   C1A27915  34.610   7.469   8.555
 7590POPC   D2A27916  34.579   7.381   8.255
 7590POPC   C3A27917  34.570   7.423   7.955
 7590POPC   C4A27918  34.576   7.462   7.655
 7590POPC   C1B27919  34.688   7.634   8.555
 7590POPC   C2B27920  34.767   7.598   8.255
 7590POPC   C3B27921  34.679   7.591   7.955
 7590POPC   C4B27922  34.689   7.655   7.655
 7591POPC   NC327923  28.392  16.761   9.455
 7591POPC   PO427924  28.374  16.708   9.155
 7591POPC   GL127925  28.391  16.744   8.855
 7591POPC   GL227926  28.388  16.867   8.855
 7591POPC   C1A27927  28.348  16.709   8.555
 7591POPC   D2A27928  28.368  16.776   8.255
 7591POPC   C3A27929  28.335  16.756   7.955
 7591POPC   C4A27930  28.344  16.766   7.655
 7591POPC   C1B27931  28.354  16.968   8.555
 7591POPC   C2B27932  28.365  16.986   8.255
 7591POPC   C3B27933  28.301  16.953   7.955
 7591POPC   C4B27934  28.320  16.980   7.655
 7592POPC   NC327935  38.427  21.402   9.455
 7592POPC   PO427936  38.425  21.417   9.155
 7592POPC   GL127937  38.410  21.383   8.855
 7592POPC   GL227938  38.326  21.459   8.855
 7592POPC   C1A27939  38.439  21.385   8.555
 7592POPC   D2A27940  38.486  21.430   8.255
 7592POPC   C3A27941  38.494  21.396   7.955
 7592POPC   C4A27942  38.435  21.401   7.655
 7592POPC   C1B27943  38.258  21.481   8.555
 7592POPC   C2B27944  38.181  21.444   8.255
 7592POPC   C3B27945  38.233  21.483   7.955
 7592POPC   C4B27946  38.226  21.451   7.655
 7593POPC   NC327947   5.075   4.271   9.455
 7593POPC   PO427948   5.105   4.355   9.155
 7593POPC   GL127949   5.052   4.343   8.855
 7593POPC   GL227950   5.179   4.266   8.855
 7593POPC   C1A27951   5.074   4.302   8.555
 7593POPC   D2A27952   5.062   4.351   8.255
 7593POPC   C3A27953   5.084   4.323   7.955
 7593POPC   C4A27954   5.056   4.323   7.655
 7593POPC   C1B27955   5.323   4.219   8.555
 7593POPC   C2B27956   5.299   4.139   8.255
 7593POPC   C3B27957   5.317   4.142   7.955
 7593POPC   C4B27958   5.342   4.216   7.655
 7594POPC   NC327959   1.250  27.629   9.455
 7594POPC   PO427960   1.246  27.614   9.155
 7594POPC   GL127961   1.181  27.566   8.855
 7594POPC   GL227962   1.136  27.686   8.855
 7594POPC   C1A27963   1.203  27.624   8.555
 7594POPC   D2A27964   1.227  27.587   8.255
 7594POPC   C3A27965   1.223  27.586   7.955
 7594POPC   C4A27966   1.233  27.614   7.655
 7594POPC   C1B27967   0.942  27.723   8.555
 7594POPC   C2B27968   1.001  27.639   8.255
 7594POPC   C3B27969   0.970  27.729   7.955
 7594POPC   C4B27970   1.002  27.667   7.655
 7595POPC   NC327971   5.834  10.507   9.455
 7595POPC   PO427972   5.830  10.568   9.155
 7595POPC   GL127973   5.867  10.505   8.855
 7595POPC   GL227974   5.944  10.578   8.855
 7595POPC   C1A27975   5.857  10.563   8.555
 7595POPC   D2A27976   5.844  10.542   8.255
 7595POPC   C3A27977   5.873  10.569   7.955
 7595POPC   C4A27978   5.855  10.538   7.655
 7595POPC   C1B27979   6.075  10.660   8.555
 7595POPC   C2B27980   6.084  10.712   8.255
 7595POPC   C3B27981   6.102  10.667   7.955
 7595POPC   C4B27982   6.022  10.664   7.655
 7596POPC   NC327983   1.963  27.574   9.455
 7596POPC   PO427984   1.974  27.600   9.155
 7596POPC   GL127985   2.016  27.599   8.855
 7596POPC   GL227986   2.098  27.674   8.855
 7596POPC   C1A27987   2.035  27.624   8.555
 7596POPC   D2A27988   2.034  27.562   8.255
 7596POPC   C3A27989   1.954  27.600   7.955
 7596POPC   C4A27990   1.984  27.577   7.655
 7596POPC   C1B27991   2.097  27.797   8.555
 7596POPC   C2B27992   2.134  27.785   8.255
 7596POPC   C3B27993   2.171  27.806   7.955
 7596POPC   C4B27994   2.168  27.820   7.655
 7597POPC   NC327995  36.090  27.551   9.455
 7597POPC   PO427996  36.154  27.567   9.155
 7597POPC   GL127997  36.088  27.574   8.855
 7597POPC   GL227998  36.138  27.767   8.855
 7597POPC   C1A27999  36.173  27.618   8.555
 7597POPC   D2A28000  36.166  27.556   8.255
 7597POPC   C3A28001  36.131  27.554   7.955
 7597POPC   C4A28002  36.111  27.561   7.655
 7597POPC   C1B28003  36.118  27.866   8.555
 7597POPC   C2B28004  36.097  27.827   8.255
 7597POPC   C3B28005  36.141  27.795   7.955
 7597POPC   C4B28006  36.057  27.817   7.655
 7598POPC   NC328007  39.198  29.905   9.455
 7598POPC   PO428008  39.278  29.893   9.155
 7598POPC   GL128009  39.264  29.901   8.855
 7598POPC   GL228010  39.296  29.868   8.855
 7598POPC   C1A28011  39.190  29.929   8.555
 7598POPC   D2A28012  39.278  29.880   8.255
 7598POPC   C3A28013  39.190  29.958   7.955
 7598POPC   C4A28014  39.204  29.961   7.655
 7598POPC   C1B28015  39.490  29.792   8.555
 7598POPC   C2B28016  39.482  29.812   8.255
 7598POPC   C3B28017  39.488  29.794   7.955
 7598POPC   C4B28018  39.454  29.787   7.655
 7599POPC   NC328019   1.964   8.163   9.455
 7599POPC   PO428020   1.942   8.205   9.155
 7599POPC   GL128021   1.950   8.211   8.855
 7599POPC   GL228022   2.061   8.257   8.855
 7599POPC   C1A28023   2.015   8.244   8.555
 7599POPC   D2A28024   1.942   8.195   8.255
 7599POPC   C3A28025   1.971   8.151   7.955
 7599POPC   C4A28026   1.997   8.163   7.655
 7599POPC   C1B28027   2.183   8.312   8.555
 7599POPC   C2B28028   2.189   8.323   8.255
 7599POPC   C3B28029   2.191   8.387   7.955
 7599POPC   C4B28030   2.171   8.294   7.655
 7600POPC   NC328031  18.324  43.883   9.455
 7600POPC   PO428032  18.282  43.898   9.155
 7600POPC   GL128033  18.311  43.863   8.855
 7600POPC   GL228034  18.210  43.913   8.855
 7600POPC   C1A28035  18.283  43.905   8.555
 7600POPC   D2A28036  18.270  43.898   8.255
 7600POPC   C3A28037  18.291  43.863   7.955
 7600POPC   C4A28038  18.252  43.869   7.655
 7600POPC   C1B28039  18.107  43.977   8.555
 7600POPC   C2B28040  18.064  44.032   8.255
 7600POPC   C3B28041  18.039  43.965   7.955
 7600POPC   C4B28042  18.031  44.036   7.655
 7601POPC   NC328043  29.173  12.045   9.455
 7601POPC   PO428044  29.153  12.067   9.155
 7601POPC   GL128045  29.119  12.118   8.855
 7601POPC   GL228046  29.240  12.099   8.855
 7601POPC   C1A28047  29.182  12.061   8.555
 7601POPC   D2A28048  29.109  12.118   8.255
 7601POPC   C3A28049  29.095  12.091   7.955
 7601POPC   C4A28050  29.124  12.064   7.655
 7601POPC   C1B28051  29.443  12.065   8.555
 7601POPC   C2B28052  29.433  12.046   8.255
 7601POPC   C3B28053  29.383  12.083   7.955
 7601POPC   C4B28054  29.428  12.091   7.655
 7602POPC   NC328055  15.995  26.796   9.455
 7602POPC   PO428056  15.998  26.859   9.155
 7602POPC   GL128057  15.915  26.822   8.855
 7602POPC   GL228058  15.961  26.964   8.855
 7602POPC   C1A28059  15.977  26.862   8.555
 7602POPC   D2A28060  15.944  26.854   8.255
 7602POPC   C3A28061  15.946  26.839   7.955
 7602POPC   C4A28062  15.965  26.827   7.655
 7602POPC   C1B28063  15.935  27.028   8.555
 7602POPC   C2B28064  15.934  27.089   8.255
 7602POPC   C3B28065  15.934  27.053   7.955
 7602POPC   C4B28066  15.891  27.100   7.655
 7603POPC   NC328067  36.936  35.350   9.455
 7603POPC   PO428068  36.890  35.372   9.155
 7603POPC   GL128069  36.953  35.386   8.855
 7603POPC   GL228070  36.802  35.329   8.855
 7603POPC   C1A28071  36.874  35.371   8.555
 7603POPC   D2A28072  36.915  35.338   8.255
 7603POPC   C3A28073  36.915  35.313   7.955
 7603POPC   C4A28074  36.908  35.311   7.655
 7603POPC   C1B28075  36.705  35.228   8.555
 7603POPC   C2B28076  36.675  35.287   8.255
 7603POPC   C3B28077  36.710  35.318   7.955
 7603POPC   C4B28078  36.621  35.230   7.655
 7604POPC   NC328079  10.507   4.288   9.455
 7604POPC   PO428080  10.492   4.361   9.155
 7604POPC   GL128081  10.518   4.277   8.855
 7604POPC   GL228082  10.603   4.181   8.855
 7604POPC   C1A28083  10.554   4.358   8.555
 7604POPC   D2A28084  10.572   4.366   8.255
 7604POPC   C3A28085  10.542   4.325   7.955
 7604POPC   C4A28086  10.518   4.332   7.655
 7604POPC   C1B28087  10.628   4.043   8.555
 7604POPC   C2B28088  10.629   4.125   8.255
 7604POPC   C3B28089  10.634   4.107   7.955
 7604POPC   C4B28090  10.626   4.062   7.655
 7605POPC   NC328091  30.707  38.465   9.455
 7605POPC   PO428092  30.710  38.474   9.155
 7605POPC   GL128093  30.652  38.418   8.855
 7605POPC   GL228094  30.608  38.402   8.855
 7605POPC   C1A28095  30.706  38.411   8.555
 7605POPC   D2A28096  30.739  38.445   8.255
 7605POPC   C3A28097  30.687  38.473   7.955
 7605POPC   C4A28098  30.701  38.408   7.655
 7605POPC   C1B28099  30.454  38.284   8.555
 7605POPC   C2B28100  30.529  38.338   8.255
 7605POPC   C3B28101  30.529  38.345   7.955
 7605POPC   C4B28102  30.454  38.371   7.655
 7606POPC   NC328103  30.671  30.715   9.455
 7606POPC   PO428104  30.679  30.692   9.155
 7606POPC   GL128105  30.683  30.657   8.855
 7606POPC   GL228106  30.755  30.855   8.855
 7606POPC   C1A28107  30.709  30.741   8.555
 7606POPC   D2A28108  30.737  30.718   8.255
 7606POPC   C3A28109  30.657  30.662   7.955
 7606POPC   C4A28110  30.686  30.715   7.655
 7606POPC   C1B28111  30.771  30.907   8.555
 7606POPC   C2B28112  30.784  30.900   8.255
 7606POPC   C3B28113  30.795  30.952   7.955
 7606POPC   C4B28114  30.788  30.895   7.655
 7607POPC   NC328115   5.900  35.316   9.455
 7607POPC   PO428116   5.871  35.331   9.155
 7607POPC   GL128117   5.882  35.333   8.855
 7607POPC   GL228118   6.032  35.361   8.855
 7607POPC   C1A28119   5.882  35.356   8.555
 7607POPC   D2A28120   5.831  35.334   8.255
 7607POPC   C3A28121   5.848  35.402   7.955
 7607POPC   C4A28122   5.894  35.376   7.655
 7607POPC   C1B28123   6.081  35.340   8.555
 7607POPC   C2B28124   6.097  35.355   8.255
 7607POPC   C3B28125   6.139  35.371   7.955
 7607POPC   C4B28126   6.100  35.330   7.655
 7608POPC   NC328127  32.245  43.141   9.455
 7608POPC   PO428128  32.245  43.064   9.155
 7608POPC   GL128129  32.235  43.121   8.855
 7608POPC   GL228130  32.335  43.082   8.855
 7608POPC   C1A28131  32.256  43.154   8.555
 7608POPC   D2A28132  32.208  43.131   8.255
 7608POPC   C3A28133  32.278  43.098   7.955
 7608POPC   C4A28134  32.264  43.097   7.655
 7608POPC   C1B28135  32.505  43.022   8.555
 7608POPC   C2B28136  32.515  43.008   8.255
 7608POPC   C3B28137  32.462  42.997   7.955
 7608POPC   C4B28138  32.468  42.988   7.655
 7609POPC   NC328139   9.746  12.064   9.455
 7609POPC   PO428140   9.730  12.081   9.155
 7609POPC   GL128141   9.747  12.104   8.855
 7609POPC   GL228142   9.699  12.153   8.855
 7609POPC   C1A28143   9.736  12.043   8.555
 7609POPC   D2A28144   9.746  12.079   8.255
 7609POPC   C3A28145   9.731  12.069   7.955
 7609POPC   C4A28146   9.787  12.055   7.655
 7609POPC   C1B28147   9.610  12.267   8.555
 7609POPC   C2B28148   9.590  12.320   8.255
 7609POPC   C3B28149   9.589  12.239   7.955
 7609POPC   C4B28150   9.621  12.238   7.655
 7610POPC   NC328151  37.699  36.154   9.455
 7610POPC   PO428152  37.686  36.106   9.155
 7610POPC   GL128153  37.718  36.092   8.855
 7610POPC   GL228154  37.565  36.191   8.855
 7610POPC   C1A28155  37.725  36.167   8.555
 7610POPC   D2A28156  37.685  36.137   8.255
 7610POPC   C3A28157  37.725  36.119   7.955
 7610POPC   C4A28158  37.716  36.124   7.655
 7610POPC   C1B28159  37.443  36.235   8.555
 7610POPC   C2B28160  37.445  36.311   8.255
 7610POPC   C3B28161  37.475  36.300   7.955
 7610POPC   C4B28162  37.438  36.285   7.655
 7611POPC   NC328163  28.380  39.960   9.455
 7611POPC   PO428164  28.369  39.966   9.155
 7611POPC   GL128165  28.380  40.032   8.855
 7611POPC   GL228166  28.286  39.946   8.855
 7611POPC   C1A28167  28.362  40.046   8.555
 7611POPC   D2A28168  28.342  40.014   8.255
 7611POPC   C3A28169  28.376  39.986   7.955
 7611POPC   C4A28170  28.390  40.019   7.655
 7611POPC   C1B28171  28.135  39.808   8.555
 7611POPC   C2B28172  28.201  39.860   8.255
 7611POPC   C3B28173  28.210  39.801   7.955
 7611POPC   C4B28174  28.176  39.876   7.655
 7612POPC   NC328175  40.818  43.139   9.455
 7612POPC   PO428176  40.775  43.106   9.155
 7612POPC   GL128177  40.770  43.139   8.855
 7612POPC   GL228178  40.692  43.126   8.855
 7612POPC   C1A28179  40.782  43.083   8.555
 7612POPC   D2A28180  40.765  43.139   8.255
 7612POPC   C3A28181  40.779  43.135   7.955
 7612POPC   C4A28182  40.744  43.068   7.655
 7612POPC   C1B28183  40.542  43.078   8.555
 7612POPC   C2B28184  40.489  43.066   8.255
 7612POPC   C3B28185  40.563  43.084   7.955
 7612POPC   C4B28186  40.511  43.057   7.655
 7613POPC   NC328187  30.664  33.066   9.455
 7613POPC   PO428188  30.683  33.021   9.155
 7613POPC   GL128189  30.745  33.010   8.855
 7613POPC   GL228190  30.808  32.947   8.855
 7613POPC   C1A28191  30.709  33.049   8.555
 7613POPC   D2A28192  30.734  33.053   8.255
 7613POPC   C3A28193  30.649  33.027   7.955
 7613POPC   C4A28194  30.726  33.013   7.655
 7613POPC   C1B28195  30.893  32.837   8.555
 7613POPC   C2B28196  30.844  32.787   8.255
 7613POPC   C3B28197  30.835  32.803   7.955
 7613POPC   C4B28198  30.894  32.816   7.655
 7614POPC   NC328199   5.838  20.635   9.455
 7614POPC   PO428200   5.852  20.626   9.155
 7614POPC   GL128201   5.850  20.604   8.855
 7614POPC   GL228202   5.921  20.710   8.855
 7614POPC   C1A28203   5.884  20.614   8.555
 7614POPC   D2A28204   5.830  20.598   8.255
 7614POPC   C3A28205   5.866  20.652   7.955
 7614POPC   C4A28206   5.855  20.569   7.655
 7614POPC   C1B28207   6.009  20.801   8.555
 7614POPC   C2B28208   6.029  20.837   8.255
 7614POPC   C3B28209   5.995  20.854   7.955
 7614POPC   C4B28210   6.016  20.818   7.655
 7615POPC   NC328211   0.487  29.883   9.455
 7615POPC   PO428212   0.388  29.885   9.155
 7615POPC   GL128213   0.405  29.955   8.855
 7615POPC   GL228214   0.477  29.754   8.855
 7615POPC   C1A28215   0.454  29.887   8.555
 7615POPC   D2A28216   0.467  29.965   8.255
 7615POPC   C3A28217   0.486  29.953   7.955
 7615POPC   C4A28218   0.404  29.959   7.655
 7615POPC   C1B28219   0.504  29.695   8.555
 7615POPC   C2B28220   0.474  29.655   8.255
 7615POPC   C3B28221   0.519  29.696   7.955
 7615POPC   C4B28222   0.502  29.635   7.655
 7616POPC   NC328223  34.559  34.610   9.455
 7616POPC   PO428224  34.527  34.539   9.155
 7616POPC   GL128225  34.546  34.624   8.855
 7616POPC   GL228226  34.678  34.613   8.855
 7616POPC   C1A28227  34.621  34.540   8.555
 7616POPC   D2A28228  34.558  34.567   8.255
 7616POPC   C3A28229  34.542  34.534   7.955
 7616POPC   C4A28230  34.612  34.541   7.655
 7616POPC   C1B28231  34.737  34.682   8.555
 7616POPC   C2B28232  34.726  34.771   8.255
 7616POPC   C3B28233  34.774  34.692   7.955
 7616POPC   C4B28234  34.743  34.697   7.655
 7617POPC   NC328235   2.784  15.154   9.455
 7617POPC   PO428236   2.756  15.135   9.155
 7617POPC   GL128237   2.788  15.144   8.855
 7617POPC   GL228238   2.930  15.092   8.855
 7617POPC   C1A28239   2.741  15.185   8.555
 7617POPC   D2A28240   2.782  15.197   8.255
 7617POPC   C3A28241   2.724  15.199   7.955
 7617POPC   C4A28242   2.791  15.225   7.655
 7617POPC   C1B28243   3.050  15.055   8.555
 7617POPC   C2B28244   2.995  15.132   8.255
 7617POPC   C3B28245   3.005  15.071   7.955
 7617POPC   C4B28246   3.026  15.110   7.655
 7618POPC   NC328247   5.868  39.236   9.455
 7618POPC   PO428248   5.855  39.187   9.155
 7618POPC   GL128249   5.898  39.203   8.855
 7618POPC   GL228250   5.915  39.113   8.855
 7618POPC   C1A28251   5.827  39.261   8.555
 7618POPC   D2A28252   5.902  39.227   8.255
 7618POPC   C3A28253   5.824  39.272   7.955
 7618POPC   C4A28254   5.835  39.245   7.655
 7618POPC   C1B28255   6.020  39.008   8.555
 7618POPC   C2B28256   6.083  39.016   8.255
 7618POPC   C3B28257   6.057  39.040   7.955
 7618POPC   C4B28258   5.991  39.009   7.655
 7619POPC   NC328259   7.453   5.053   9.455
 7619POPC   PO428260   7.401   5.120   9.155
 7619POPC   GL128261   7.445   5.143   8.855
 7619POPC   GL228262   7.373   5.262   8.855
 7619POPC   C1A28263   7.397   5.101   8.555
 7619POPC   D2A28264   7.400   5.048   8.255
 7619POPC   C3A28265   7.377   5.100   7.955
 7619POPC   C4A28266   7.435   5.097   7.655
 7619POPC   C1B28267   7.361   5.326   8.555
 7619POPC   C2B28268   7.379   5.366   8.255
 7619POPC   C3B28269   7.336   5.345   7.955
 7619POPC   C4B28270   7.417   5.379   7.655
 7620POPC   NC328271  12.896  12.886   9.455
 7620POPC   PO428272  12.807  12.827   9.155
 7620POPC   GL128273  12.836  12.835   8.855
 7620POPC   GL228274  12.779  12.701   8.855
 7620POPC   C1A28275  12.809  12.832   8.555
 7620POPC   D2A28276  12.859  12.823   8.255
 7620POPC   C3A28277  12.828  12.817   7.955
 7620POPC   C4A28278  12.831  12.842   7.655
 7620POPC   C1B28279  12.740  12.614   8.555
 7620POPC   C2B28280  12.695  12.670   8.255
 7620POPC   C3B28281  12.691  12.653   7.955
 7620POPC   C4B28282  12.675  12.628   7.655
 7621POPC   NC328283   8.960  38.479   9.455
 7621POPC   PO428284   8.936  38.450   9.155
 7621POPC   GL128285   8.932  38.439   8.855
 7621POPC   GL228286   8.855  38.598   8.855
 7621POPC   C1A28287   8.983  38.444   8.555
 7621POPC   D2A28288   9.010  38.423   8.255
 7621POPC   C3A28289   8.994  38.481   7.955
 7621POPC   C4A28290   8.974  38.483   7.655
 7621POPC   C1B28291   8.807  38.646   8.555
 7621POPC   C2B28292   8.794  38.669   8.255
 7621POPC   C3B28293   8.799  38.670   7.955
 7621POPC   C4B28294   8.823  38.705   7.655
 7622POPC   NC328295  36.919  40.766   9.455
 7622POPC   PO428296  36.896  40.829   9.155
 7622POPC   GL128297  36.865  40.762   8.855
 7622POPC   GL228298  37.018  40.749   8.855
 7622POPC   C1A28299  36.914  40.738   8.555
 7622POPC   D2A28300  36.904  40.786   8.255
 7622POPC   C3A28301  36.926  40.797   7.955
 7622POPC   C4A28302  36.920  40.818   7.655
 7622POPC   C1B28303  37.103  40.628   8.555
 7622POPC   C2B28304  37.156  40.651   8.255
 7622POPC   C3B28305  37.098  40.672   7.955
 7622POPC   C4B28306  37.099  40.625   7.655
 7623POPC   NC328307  29.917   4.311   9.455
 7623POPC   PO428308  29.906   4.306   9.155
 7623POPC   GL128309  29.918   4.322   8.855
 7623POPC   GL228310  30.079   4.334   8.855
 7623POPC   C1A28311  29.926   4.324   8.555
 7623POPC   D2A28312  29.925   4.346   8.255
 7623POPC   C3A28313  29.903   4.278   7.955
 7623POPC   C4A28314  29.932   4.275   7.655
 7623POPC   C1B28315  30.171   4.264   8.555
 7623POPC   C2B28316  30.189   4.247   8.255
 7623POPC   C3B28317  30.214   4.270   7.955
 7623POPC   C4B28318  30.127   4.238   7.655
 7624POPC   NC328319  36.865  22.941   9.455
 7624POPC   PO428320  36.890  22.974   9.155
 7624POPC   GL128321  36.894  22.890   8.855
 7624POPC   GL228322  36.987  23.016   8.855
 7624POPC   C1A28323  36.929  22.936   8.555
 7624POPC   D2A28324  36.914  22.962   8.255
 7624POPC   C3A28325  36.936  22.925   7.955
 7624POPC   C4A28326  36.929  22.913   7.655
 7624POPC   C1B28327  37.102  22.993   8.555
 7624POPC   C2B28328  37.164  23.057   8.255
 7624POPC   C3B28329  37.186  23.035   7.955
 7624POPC   C4B28330  37.125  23.027   7.655
 7625POPC   NC328331  36.112  40.790   9.455
 7625POPC   PO428332  36.174  40.801   9.155
 7625POPC   GL128333  36.120  40.734   8.855
 7625POPC   GL228334  36.205  40.865   8.855
 7625POPC   C1A28335  36.129  40.802   8.555
 7625POPC   D2A28336  36.153  40.763   8.255
 7625POPC   C3A28337  36.156  40.814   7.955
 7625POPC   C4A28338  36.123  40.804   7.655
 7625POPC   C1B28339  36.212  40.958   8.555
 7625POPC   C2B28340  36.221  40.989   8.255
 7625POPC   C3B28341  36.262  40.963   7.955
 7625POPC   C4B28342  36.266  40.994   7.655
 7626POPC   NC328343  11.254  22.188   9.455
 7626POPC   PO428344  11.291  22.159   9.155
 7626POPC   GL128345  11.295  22.197   8.855
 7626POPC   GL228346  11.299  21.992   8.855
 7626POPC   C1A28347  11.284  22.132   8.555
 7626POPC   D2A28348  11.265  22.152   8.255
 7626POPC   C3A28349  11.277  22.119   7.955
 7626POPC   C4A28350  11.332  22.157   7.655
 7626POPC   C1B28351  11.361  21.914   8.555
 7626POPC   C2B28352  11.345  21.939   8.255
 7626POPC   C3B28353  11.395  21.941   7.955
 7626POPC   C4B28354  11.369  21.913   7.655
 7627POPC   NC328355   4.289  34.595   9.455
 7627POPC   PO428356   4.273  34.614   9.155
 7627POPC   GL128357   4.302  34.573   8.855
 7627POPC   GL228358   4.223  34.444   8.855
 7627POPC   C1A28359   4.272  34.600   8.555
 7627POPC   D2A28360   4.361  34.557   8.255
 7627POPC   C3A28361   4.330  34.612   7.955
 7627POPC   C4A28362   4.349  34.617   7.655
 7627POPC   C1B28363   4.150  34.345   8.555
 7627POPC   C2B28364   4.217  34.352   8.255
 7627POPC   C3B28365   4.225  34.346   7.955
 7627POPC   C4B28366   4.207  34.400   7.655
 7628POPC   NC328367  19.836   1.219   9.455
 7628POPC   PO428368  19.797   1.198   9.155
 7628POPC   GL128369  19.804   1.195   8.855
 7628POPC   GL228370  19.734   1.177   8.855
 7628POPC   C1A28371  19.800   1.244   8.555
 7628POPC   D2A28372  19.846   1.199   8.255
 7628POPC   C3A28373  19.820   1.217   7.955
 7628POPC   C4A28374  19.797   1.194   7.655
 7628POPC   C1B28375  19.590   1.144   8.555
 7628POPC   C2B28376  19.567   1.099   8.255
 7628POPC   C3B28377  19.562   1.160   7.955
 7628POPC   C4B28378  19.582   1.084   7.655
 7629POPC   NC328379   5.866  32.267   9.455
 7629POPC   PO428380   5.852  32.278   9.155
 7629POPC   GL128381   5.844  32.267   8.855
 7629POPC   GL228382   5.837  32.090   8.855
 7629POPC   C1A28383   5.845  32.262   8.555
 7629POPC   D2A28384   5.826  32.263   8.255
 7629POPC   C3A28385   5.899  32.200   7.955
 7629POPC   C4A28386   5.840  32.269   7.655
 7629POPC   C1B28387   5.933  31.960   8.555
 7629POPC   C2B28388   5.897  32.008   8.255
 7629POPC   C3B28389   5.888  32.002   7.955
 7629POPC   C4B28390   5.869  31.959   7.655
 7630POPC   NC328391  38.505   1.989   9.455
 7630POPC   PO428392  38.457   1.944   9.155
 7630POPC   GL128393  38.460   1.962   8.855
 7630POPC   GL228394  38.320   2.052   8.855
 7630POPC   C1A28395  38.501   1.969   8.555
 7630POPC   D2A28396  38.500   1.960   8.255
 7630POPC   C3A28397  38.414   1.977   7.955
 7630POPC   C4A28398  38.474   1.969   7.655
 7630POPC   C1B28399  38.169   2.043   8.555
 7630POPC   C2B28400  38.240   2.069   8.255
 7630POPC   C3B28401  38.236   2.030   7.955
 7630POPC   C4B28402  38.163   2.055   7.655
 7631POPC   NC328403   6.680   0.445   9.455
 7631POPC   PO428404   6.687   0.466   9.155
 7631POPC   GL128405   6.681   0.392   8.855
 7631POPC   GL228406   6.782   0.528   8.855
 7631POPC   C1A28407   6.614   0.424   8.555
 7631POPC   D2A28408   6.640   0.393   8.255
 7631POPC   C3A28409   6.666   0.391   7.955
 7631POPC   C4A28410   6.684   0.427   7.655
 7631POPC   C1B28411   6.830   0.561   8.555
 7631POPC   C2B28412   6.891   0.534   8.255
 7631POPC   C3B28413   6.840   0.620   7.955
 7631POPC   C4B28414   6.871   0.567   7.655
 7632POPC   NC328415  34.541  13.674   9.455
 7632POPC   PO428416  34.581  13.611   9.155
 7632POPC   GL128417  34.529  13.639   8.855
 7632POPC   GL228418  34.507  13.761   8.855
 7632POPC   C1A28419  34.560  13.594   8.555
 7632POPC   D2A28420  34.604  13.673   8.255
 7632POPC   C3A28421  34.552  13.601   7.955
 7632POPC   C4A28422  34.563  13.619   7.655
 7632POPC   C1B28423  34.492  13.887   8.555
 7632POPC   C2B28424  34.441  13.842   8.255
 7632POPC   C3B28425  34.499  13.890   7.955
 7632POPC   C4B28426  34.440  13.894   7.655
 7633POPC   NC328427  21.384  29.104   9.455
 7633POPC   PO428428  21.348  29.106   9.155
 7633POPC   GL128429  21.360  29.187   8.855
 7633POPC   GL228430  21.262  29.227   8.855
 7633POPC   C1A28431  21.403  29.127   8.555
 7633POPC   D2A28432  21.379  29.123   8.255
 7633POPC   C3A28433  21.395  29.132   7.955
 7633POPC   C4A28434  21.385  29.189   7.655
 7633POPC   C1B28435  21.164  29.291   8.555
 7633POPC   C2B28436  21.193  29.259   8.255
 7633POPC   C3B28437  21.141  29.210   7.955
 7633POPC   C4B28438  21.137  29.268   7.655
 7634POPC   NC328439  44.693   7.453   9.455
 7634POPC   PO428440  44.647   7.385   9.155
 7634POPC   GL128441  44.660   7.470   8.855
 7634POPC   GL228442  44.542   7.332   8.855
 7634POPC   C1A28443  44.649   7.403   8.555
 7634POPC   D2A28444  44.626   7.425   8.255
 7634POPC   C3A28445  44.696   7.372   7.955
 7634POPC   C4A28446  44.680   7.453   7.655
 7634POPC   C1B28447  44.438   7.289   8.555
 7634POPC   C2B28448  44.415   7.238   8.255
 7634POPC   C3B28449  44.481   7.277   7.955
 7634POPC   C4B28450  44.412   7.260   7.655
 7635POPC   NC328451  32.268  13.600   9.455
 7635POPC   PO428452  32.206  13.661   9.155
 7635POPC   GL128453  32.260  13.625   8.855
 7635POPC   GL228454  32.243  13.732   8.855
 7635POPC   C1A28455  32.217  13.636   8.555
 7635POPC   D2A28456  32.259  13.672   8.255
 7635POPC   C3A28457  32.204  13.665   7.955
 7635POPC   C4A28458  32.266  13.635   7.655
 7635POPC   C1B28459  32.369  13.855   8.555
 7635POPC   C2B28460  32.356  13.873   8.255
 7635POPC   C3B28461  32.350  13.816   7.955
 7635POPC   C4B28462  32.318  13.835   7.655
 7636POPC   NC328463  43.133  10.488   9.455
 7636POPC   PO428464  43.081  10.538   9.155
 7636POPC   GL128465  43.083  10.476   8.855
 7636POPC   GL228466  43.026  10.475   8.855
 7636POPC   C1A28467  43.134  10.541   8.555
 7636POPC   D2A28468  43.155  10.488   8.255
 7636POPC   C3A28469  43.116  10.485   7.955
 7636POPC   C4A28470  43.151  10.475   7.655
 7636POPC   C1B28471  42.824  10.442   8.555
 7636POPC   C2B28472  42.828  10.433   8.255
 7636POPC   C3B28473  42.870  10.430   7.955
 7636POPC   C4B28474  42.832  10.498   7.655
 7637POPC   NC328475   6.667  15.184   9.455
 7637POPC   PO428476   6.627  15.191   9.155
 7637POPC   GL128477   6.598  15.152   8.855
 7637POPC   GL228478   6.708  15.269   8.855
 7637POPC   C1A28479   6.641  15.222   8.555
 7637POPC   D2A28480   6.639  15.130   8.255
 7637POPC   C3A28481   6.610  15.216   7.955
 7637POPC   C4A28482   6.668  15.220   7.655
 7637POPC   C1B28483   6.848  15.359   8.555
 7637POPC   C2B28484   6.892  15.359   8.255
 7637POPC   C3B28485   6.837  15.294   7.955
 7637POPC   C4B28486   6.870  15.331   7.655
 7638POPC   NC328487  31.447   8.205   9.455
 7638POPC   PO428488  31.450   8.189   9.155
 7638POPC   GL128489  31.517   8.182   8.855
 7638POPC   GL228490  31.401   8.268   8.855
 7638POPC   C1A28491  31.491   8.184   8.555
 7638POPC   D2A28492  31.506   8.194   8.255
 7638POPC   C3A28493  31.441   8.187   7.955
 7638POPC   C4A28494  31.478   8.231   7.655
 7638POPC   C1B28495  31.242   8.382   8.555
 7638POPC   C2B28496  31.262   8.300   8.255
 7638POPC   C3B28497  31.218   8.369   7.955
 7638POPC   C4B28498  31.304   8.364   7.655
 7639POPC   NC328499   0.478   4.308   9.455
 7639POPC   PO428500   0.459   4.340   9.155
 7639POPC   GL128501   0.418   4.323   8.855
 7639POPC   GL228502   0.525   4.438   8.855
 7639POPC   C1A28503   0.484   4.314   8.555
 7639POPC   D2A28504   0.417   4.285   8.255
 7639POPC   C3A28505   0.416   4.314   7.955
 7639POPC   C4A28506   0.430   4.274   7.655
 7639POPC   C1B28507   0.630   4.547   8.555
 7639POPC   C2B28508   0.592   4.476   8.255
 7639POPC   C3B28509   0.563   4.541   7.955
 7639POPC   C4B28510   0.644   4.552   7.655
 7640POPC   NC328511  13.666  43.100   9.455
 7640POPC   PO428512  13.655  43.106   9.155
 7640POPC   GL128513  13.584  43.129   8.855
 7640POPC   GL228514  13.510  43.062   8.855
 7640POPC   C1A28515  13.636  43.100   8.555
 7640POPC   D2A28516  13.607  43.106   8.255
 7640POPC   C3A28517  13.634  43.157   7.955
 7640POPC   C4A28518  13.636  43.141   7.655
 7640POPC   C1B28519  13.429  43.079   8.555
 7640POPC   C2B28520  13.418  43.026   8.255
 7640POPC   C3B28521  13.415  43.099   7.955
 7640POPC   C4B28522  13.398  43.065   7.655
 7641POPC   NC328523  39.263  40.792   9.455
 7641POPC   PO428524  39.213  40.749   9.155
 7641POPC   GL128525  39.201  40.772   8.855
 7641POPC   GL228526  39.189  40.842   8.855
 7641POPC   C1A28527  39.226  40.752   8.555
 7641POPC   D2A28528  39.239  40.746   8.255
 7641POPC   C3A28529  39.231  40.824   7.955
 7641POPC   C4A28530  39.278  40.754   7.655
 7641POPC   C1B28531  39.077  40.950   8.555
 7641POPC   C2B28532  39.060  40.998   8.255
 7641POPC   C3B28533  39.088  40.960   7.955
 7641POPC   C4B28534  39.045  40.921   7.655
 7642POPC   NC328535  12.836   1.254   9.455
 7642POPC   PO428536  12.807   1.245   9.155
 7642POPC   GL128537  12.862   1.212   8.855
 7642POPC   GL228538  12.831   1.043   8.855
 7642POPC   C1A28539  12.892   1.215   8.555
 7642POPC   D2A28540  12.897   1.232   8.255
 7642POPC   C3A28541  12.839   1.237   7.955
 7642POPC   C4A28542  12.823   1.164   7.655
 7642POPC   C1B28543  12.887   0.930   8.555
 7642POPC   C2B28544  12.863   0.916   8.255
 7642POPC   C3B28545  12.886   1.005   7.955
 7642POPC   C4B28546  12.840   0.972   7.655
 7643POPC   NC328547  44.700  17.468   9.455
 7643POPC   PO428548  44.705  17.549   9.155
 7643POPC   GL128549  44.668  17.525   8.855
 7643POPC   GL228550  44.660  17.660   8.855
 7643POPC   C1A28551  44.625  17.521   8.555
 7643POPC   D2A28552  44.627  17.460   8.255
 7643POPC   C3A28553  44.664  17.508   7.955
 7643POPC   C4A28554  44.663  17.523   7.655
 7643POPC   C1B28555  44.551  17.703   8.555
 7643POPC   C2B28556  44.579  17.716   8.255
 7643POPC   C3B28557  44.587  17.762   7.955
 7643POPC   C4B28558  44.633  17.702   7.655
 7644POPC   NC328559  22.978  44.655   9.455
 7644POPC   PO428560  22.944  44.667   9.155
 7644POPC   GL128561  22.939  44.630   8.855
 7644POPC   GL228562  22.870  44.570   8.855
 7644POPC   C1A28563  22.943  44.614   8.555
 7644POPC   D2A28564  22.893  44.615   8.255
 7644POPC   C3A28565  22.924  44.647   7.955
 7644POPC   C4A28566  22.899  44.663   7.655
 7644POPC   C1B28567  22.698  44.537   8.555
 7644POPC   C2B28568  22.748  44.594   8.255
 7644POPC   C3B28569  22.701  44.574   7.955
 7644POPC   C4B28570  22.748  44.578   7.655
 7645POPC   NC328571   8.218   5.060   9.455
 7645POPC   PO428572   8.194   5.098   9.155
 7645POPC   GL128573   8.223   5.056   8.855
 7645POPC   GL228574   8.079   5.028   8.855
 7645POPC   C1A28575   8.177   5.108   8.555
 7645POPC   D2A28576   8.204   5.078   8.255
 7645POPC   C3A28577   8.233   5.061   7.955
 7645POPC   C4A28578   8.218   5.043   7.655
 7645POPC   C1B28579   8.006   5.011   8.555
 7645POPC   C2B28580   7.935   4.983   8.255
 7645POPC   C3B28581   7.991   4.990   7.955
 7645POPC   C4B28582   7.957   5.038   7.655
 7646POPC   NC328583  33.053  40.050   9.455
 7646POPC   PO428584  32.985  40.036   9.155
 7646POPC   GL128585  33.017  40.006   8.855
 7646POPC   GL228586  32.880  40.067   8.855
 7646POPC   C1A28587  32.995  40.031   8.555
 7646POPC   D2A28588  33.071  40.033   8.255
 7646POPC   C3A28589  33.064  40.049   7.955
 7646POPC   C4A28590  33.029  40.000   7.655
 7646POPC   C1B28591  32.740  40.093   8.555
 7646POPC   C2B28592  32.753  40.024   8.255
 7646POPC   C3B28593  32.758  40.086   7.955
 7646POPC   C4B28594  32.743  40.074   7.655
 7647POPC   NC328595   5.112   0.485   9.455
 7647POPC   PO428596   5.103   0.439   9.155
 7647POPC   GL128597   5.079   0.416   8.855
 7647POPC   GL228598   5.199   0.545   8.855
 7647POPC   C1A28599   5.044   0.404   8.555
 7647POPC   D2A28600   5.087   0.452   8.255
 7647POPC   C3A28601   5.094   0.455   7.955
 7647POPC   C4A28602   5.113   0.424   7.655
 7647POPC   C1B28603   5.323   0.584   8.555
 7647POPC   C2B28604   5.306   0.528   8.255
 7647POPC   C3B28605   5.342   0.587   7.955
 7647POPC   C4B28606   5.285   0.566   7.655
 7648POPC   NC328607   4.304   3.551   9.455
 7648POPC   PO428608   4.319   3.585   9.155
 7648POPC   GL128609   4.333   3.513   8.855
 7648POPC   GL228610   4.210   3.521   8.855
 7648POPC   C1A28611   4.334   3.581   8.555
 7648POPC   D2A28612   4.347   3.508   8.255
 7648POPC   C3A28613   4.268   3.500   7.955
 7648POPC   C4A28614   4.317   3.575   7.655
 7648POPC   C1B28615   4.051   3.462   8.555
 7648POPC   C2B28616   4.054   3.376   8.255
 7648POPC   C3B28617   4.081   3.463   7.955
 7648POPC   C4B28618   4.140   3.447   7.655
 7649POPC   NC328619  29.187  32.224   9.455
 7649POPC   PO428620  29.183  32.255   9.155
 7649POPC   GL128621  29.131  32.292   8.855
 7649POPC   GL228622  29.241  32.200   8.855
 7649POPC   C1A28623  29.172  32.264   8.555
 7649POPC   D2A28624  29.168  32.294   8.255
 7649POPC   C3A28625  29.149  32.277   7.955
 7649POPC   C4A28626  29.107  32.237   7.655
 7649POPC   C1B28627  29.414  32.153   8.555
 7649POPC   C2B28628  29.434  32.224   8.255
 7649POPC   C3B28629  29.381  32.194   7.955
 7649POPC   C4B28630  29.423  32.191   7.655
 7650POPC   NC328631  29.895  19.056   9.455
 7650POPC   PO428632  29.886  19.037   9.155
 7650POPC   GL128633  29.931  19.013   8.855
 7650POPC   GL228634  29.976  18.956   8.855
 7650POPC   C1A28635  29.937  19.028   8.555
 7650POPC   D2A28636  29.900  19.040   8.255
 7650POPC   C3A28637  29.892  19.075   7.955
 7650POPC   C4A28638  29.970  19.105   7.655
 7650POPC   C1B28639  29.965  18.814   8.555
 7650POPC   C2B28640  30.042  18.864   8.255
 7650POPC   C3B28641  29.964  18.795   7.955
 7650POPC   C4B28642  29.950  18.865   7.655
 7651POPC   NC328643  42.314  20.614   9.455
 7651POPC   PO428644  42.351  20.568   9.155
 7651POPC   GL128645  42.344  20.618   8.855
 7651POPC   GL228646  42.403  20.760   8.855
 7651POPC   C1A28647  42.295  20.585   8.555
 7651POPC   D2A28648  42.381  20.623   8.255
 7651POPC   C3A28649  42.303  20.620   7.955
 7651POPC   C4A28650  42.381  20.612   7.655
 7651POPC   C1B28651  42.406  20.881   8.555
 7651POPC   C2B28652  42.365  20.889   8.255
 7651POPC   C3B28653  42.436  20.899   7.955
 7651POPC   C4B28654  42.383  20.851   7.655
 7652POPC   NC328655  40.053  26.838   9.455
 7652POPC   PO428656  40.044  26.836   9.155
 7652POPC   GL128657  40.021  26.833   8.855
 7652POPC   GL228658  40.098  26.955   8.855
 7652POPC   C1A28659  39.968  26.835   8.555
 7652POPC   D2A28660  39.996  26.797   8.255
 7652POPC   C3A28661  40.010  26.789   7.955
 7652POPC   C4A28662  40.028  26.804   7.655
 7652POPC   C1B28663  40.169  26.950   8.555
 7652POPC   C2B28664  40.190  26.967   8.255
 7652POPC   C3B28665  40.143  26.950   7.955
 7652POPC   C4B28666  40.225  26.968   7.655
 7653POPC   NC328667  40.781  42.313   9.455
 7653POPC   PO428668  40.757  42.303   9.155
 7653POPC   GL128669  40.750  42.289   8.855
 7653POPC   GL228670  40.696  42.371   8.855
 7653POPC   C1A28671  40.754  42.359   8.555
 7653POPC   D2A28672  40.760  42.290   8.255
 7653POPC   C3A28673  40.811  42.325   7.955
 7653POPC   C4A28674  40.763  42.315   7.655
 7653POPC   C1B28675  40.530  42.435   8.555
 7653POPC   C2B28676  40.565  42.452   8.255
 7653POPC   C3B28677  40.527  42.458   7.955
 7653POPC   C4B28678  40.584  42.396   7.655
 7654POPC   NC328679  33.780  34.561   9.455
 7654POPC   PO428680  33.787  34.599   9.155
 7654POPC   GL128681  33.815  34.570   8.855
 7654POPC   GL228682  33.661  34.524   8.855
 7654POPC   C1A28683  33.761  34.578   8.555
 7654POPC   D2A28684  33.840  34.564   8.255
 7654POPC   C3A28685  33.837  34.558   7.955
 7654POPC   C4A28686  33.826  34.531   7.655
 7654POPC   C1B28687  33.541  34.527   8.555
 7654POPC   C2B28688  33.551  34.498   8.255
 7654POPC   C3B28689  33.506  34.568   7.955
 7654POPC   C4B28690  33.522  34.539   7.655
 7655POPC   NC328691   5.861   8.997   9.455
 7655POPC   PO428692   5.868   8.997   9.155
 7655POPC   GL128693   5.917   9.022   8.855
 7655POPC   GL228694   5.816   8.861   8.855
 7655POPC   C1A28695   5.880   8.929   8.555
 7655POPC   D2A28696   5.824   8.963   8.255
 7655POPC   C3A28697   5.898   9.007   7.955
 7655POPC   C4A28698   5.887   9.009   7.655
 7655POPC   C1B28699   5.808   8.732   8.555
 7655POPC   C2B28700   5.771   8.714   8.255
 7655POPC   C3B28701   5.788   8.689   7.955
 7655POPC   C4B28702   5.800   8.769   7.655
 7656POPC   NC328703  35.401  40.003   9.455
 7656POPC   PO428704  35.400  40.033   9.155
 7656POPC   GL128705  35.390  40.050   8.855
 7656POPC   GL228706  35.506  39.953   8.855
 7656POPC   C1A28707  35.328  39.987   8.555
 7656POPC   D2A28708  35.344  39.991   8.255
 7656POPC   C3A28709  35.370  40.036   7.955
 7656POPC   C4A28710  35.311  39.961   7.655
 7656POPC   C1B28711  35.594  39.979   8.555
 7656POPC   C2B28712  35.608  39.940   8.255
 7656POPC   C3B28713  35.626  39.964   7.955
 7656POPC   C4B28714  35.632  39.922   7.655
 7657POPC   NC328715  23.757   5.917   9.455
 7657POPC   PO428716  23.762   5.836   9.155
 7657POPC   GL128717  23.699   5.860   8.855
 7657POPC   GL228718  23.619   5.816   8.855
 7657POPC   C1A28719  23.678   5.833   8.555
 7657POPC   D2A28720  23.698   5.823   8.255
 7657POPC   C3A28721  23.668   5.854   7.955
 7657POPC   C4A28722  23.756   5.903   7.655
 7657POPC   C1B28723  23.539   5.720   8.555
 7657POPC   C2B28724  23.540   5.648   8.255
 7657POPC   C3B28725  23.562   5.737   7.955
 7657POPC   C4B28726  23.538   5.725   7.655
 7658POPC   NC328727  13.640  41.590   9.455
 7658POPC   PO428728  13.669  41.542   9.155
 7658POPC   GL128729  13.615  41.588   8.855
 7658POPC   GL228730  13.580  41.433   8.855
 7658POPC   C1A28731  13.630  41.606   8.555
 7658POPC   D2A28732  13.625  41.549   8.255
 7658POPC   C3A28733  13.623  41.590   7.955
 7658POPC   C4A28734  13.651  41.525   7.655
 7658POPC   C1B28735  13.412  41.339   8.555
 7658POPC   C2B28736  13.412  41.375   8.255
 7658POPC   C3B28737  13.461  41.387   7.955
 7658POPC   C4B28738  13.467  41.347   7.655
 7659POPC   NC328739   1.959   5.850   9.455
 7659POPC   PO428740   2.023   5.914   9.155
 7659POPC   GL128741   1.942   5.844   8.855
 7659POPC   GL228742   2.009   5.722   8.855
 7659POPC   C1A28743   2.030   5.885   8.555
 7659POPC   D2A28744   1.991   5.821   8.255
 7659POPC   C3A28745   1.950   5.900   7.955
 7659POPC   C4A28746   2.031   5.887   7.655
 7659POPC   C1B28747   1.924   5.593   8.555
 7659POPC   C2B28748   1.988   5.665   8.255
 7659POPC   C3B28749   1.972   5.612   7.955
 7659POPC   C4B28750   2.005   5.583   7.655
 7660POPC   NC328751  22.894  24.443   9.455
 7660POPC   PO428752  22.967  24.504   9.155
 7660POPC   GL128753  22.980  24.513   8.855
 7660POPC   GL228754  23.036  24.468   8.855
 7660POPC   C1A28755  22.930  24.493   8.555
 7660POPC   D2A28756  22.911  24.492   8.255
 7660POPC   C3A28757  22.935  24.451   7.955
 7660POPC   C4A28758  22.950  24.445   7.655
 7660POPC   C1B28759  23.154  24.523   8.555
 7660POPC   C2B28760  23.196  24.532   8.255
 7660POPC   C3B28761  23.142  24.574   7.955
 7660POPC   C4B28762  23.138  24.546   7.655
 7661POPC   NC328763  12.096   5.883   9.455
 7661POPC   PO428764  12.033   5.822   9.155
 7661POPC   GL128765  12.048   5.833   8.855
 7661POPC   GL228766  12.116   5.722   8.855
 7661POPC   C1A28767  12.115   5.820   8.555
 7661POPC   D2A28768  12.081   5.908   8.255
 7661POPC   C3A28769  12.055   5.861   7.955
 7661POPC   C4A28770  12.123   5.880   7.655
 7661POPC   C1B28771  12.209   5.704   8.555
 7661POPC   C2B28772  12.246   5.678   8.255
 7661POPC   C3B28773  12.217   5.642   7.955
 7661POPC   C4B28774  12.231   5.620   7.655
 7662POPC   NC328775  41.582   2.742   9.455
 7662POPC   PO428776  41.510   2.784   9.155
 7662POPC   GL128777  41.604   2.805   8.855
 7662POPC   GL228778  41.654   2.710   8.855
 7662POPC   C1A28779  41.523   2.778   8.555
 7662POPC   D2A28780  41.546   2.742   8.255
 7662POPC   C3A28781  41.551   2.758   7.955
 7662POPC   C4A28782  41.513   2.718   7.655
 7662POPC   C1B28783  41.744   2.581   8.555
 7662POPC   C2B28784  41.745   2.563   8.255
 7662POPC   C3B28785  41.760   2.595   7.955
 7662POPC   C4B28786  41.764   2.637   7.655
 7663POPC   NC328787   2.000  22.132   9.455
 7663POPC   PO428788   2.020  22.204   9.155
 7663POPC   GL128789   2.032  22.183   8.855
 7663POPC   GL228790   2.048  22.239   8.855
 7663POPC   C1A28791   1.958  22.188   8.555
 7663POPC   D2A28792   1.974  22.186   8.255
 7663POPC   C3A28793   2.005  22.166   7.955
 7663POPC   C4A28794   2.025  22.195   7.655
 7663POPC   C1B28795   2.203  22.332   8.555
 7663POPC   C2B28796   2.221  22.296   8.255
 7663POPC   C3B28797   2.238  22.320   7.955
 7663POPC   C4B28798   2.223  22.282   7.655
 7664POPC   NC328799   5.115  15.153   9.455
 7664POPC   PO428800   5.045  15.187   9.155
 7664POPC   GL128801   5.061  15.182   8.855
 7664POPC   GL228802   4.955  15.153   8.855
 7664POPC   C1A28803   5.089  15.176   8.555
 7664POPC   D2A28804   5.047  15.135   8.255
 7664POPC   C3A28805   5.063  15.150   7.955
 7664POPC   C4A28806   5.134  15.193   7.655
 7664POPC   C1B28807   4.804  15.159   8.555
 7664POPC   C2B28808   4.895  15.137   8.255
 7664POPC   C3B28809   4.798  15.159   7.955
 7664POPC   C4B28810   4.884  15.122   7.655
 7665POPC   NC328811  15.907  23.703   9.455
 7665POPC   PO428812  15.975  23.680   9.155
 7665POPC   GL128813  15.932  23.752   8.855
 7665POPC   GL228814  15.906  23.563   8.855
 7665POPC   C1A28815  15.986  23.759   8.555
 7665POPC   D2A28816  15.964  23.676   8.255
 7665POPC   C3A28817  15.965  23.763   7.955
 7665POPC   C4A28818  15.993  23.680   7.655
 7665POPC   C1B28819  15.959  23.434   8.555
 7665POPC   C2B28820  15.965  23.506   8.255
 7665POPC   C3B28821  15.884  23.436   7.955
 7665POPC   C4B28822  15.941  23.429   7.655
 7666POPC   NC328823  39.188  41.551   9.455
 7666POPC   PO428824  39.280  41.533   9.155
 7666POPC   GL128825  39.275  41.582   8.855
 7666POPC   GL228826  39.320  41.570   8.855
 7666POPC   C1A28827  39.231  41.558   8.555
 7666POPC   D2A28828  39.244  41.569   8.255
 7666POPC   C3A28829  39.225  41.579   7.955
 7666POPC   C4A28830  39.206  41.518   7.655
 7666POPC   C1B28831  39.521  41.641   8.555
 7666POPC   C2B28832  39.507  41.569   8.255
 7666POPC   C3B28833  39.514  41.569   7.955
 7666POPC   C4B28834  39.466  41.622   7.655
 7667POPC   NC328835  31.462   4.356   9.455
 7667POPC   PO428836  31.444   4.361   9.155
 7667POPC   GL128837  31.441   4.331   8.855
 7667POPC   GL228838  31.372   4.245   8.855
 7667POPC   C1A28839  31.483   4.352   8.555
 7667POPC   D2A28840  31.522   4.313   8.255
 7667POPC   C3A28841  31.480   4.339   7.955
 7667POPC   C4A28842  31.432   4.340   7.655
 7667POPC   C1B28843  31.201   4.254   8.555
 7667POPC   C2B28844  31.239   4.200   8.255
 7667POPC   C3B28845  31.226   4.168   7.955
 7667POPC   C4B28846  31.264   4.224   7.655
 7668POPC   NC328847  10.489   6.618   9.455
 7668POPC   PO428848  10.553   6.646   9.155
 7668POPC   GL128849  10.488   6.615   8.855
 7668POPC   GL228850  10.466   6.558   8.855
 7668POPC   C1A28851  10.536   6.687   8.555
 7668POPC   D2A28852  10.485   6.652   8.255
 7668POPC   C3A28853  10.517   6.630   7.955
 7668POPC   C4A28854  10.485   6.667   7.655
 7668POPC   C1B28855  10.371   6.494   8.555
 7668POPC   C2B28856  10.322   6.446   8.255
 7668POPC   C3B28857  10.330   6.452   7.955
 7668POPC   C4B28858  10.361   6.445   7.655
 7669POPC   NC328859  36.116  32.252   9.455
 7669POPC   PO428860  36.093  32.232   9.155
 7669POPC   GL128861  36.172  32.225   8.855
 7669POPC   GL228862  36.224  32.198   8.855
 7669POPC   C1A28863  36.147  32.203   8.555
 7669POPC   D2A28864  36.093  32.277   8.255
 7669POPC   C3A28865  36.113  32.202   7.955
 7669POPC   C4A28866  36.158  32.272   7.655
 7669POPC   C1B28867  36.363  32.201   8.555
 7669POPC   C2B28868  36.349  32.170   8.255
 7669POPC   C3B28869  36.353  32.164   7.955
 7669POPC   C4B28870  36.349  32.141   7.655
 7670POPC   NC328871  33.036   4.280   9.455
 7670POPC   PO428872  33.016   4.285   9.155
 7670POPC   GL128873  33.010   4.309   8.855
 7670POPC   GL228874  33.177   4.361   8.855
 7670POPC   C1A28875  33.059   4.318   8.555
 7670POPC   D2A28876  33.053   4.304   8.255
 7670POPC   C3A28877  33.023   4.299   7.955
 7670POPC   C4A28878  32.986   4.355   7.655
 7670POPC   C1B28879  33.250   4.433   8.555
 7670POPC   C2B28880  33.233   4.404   8.255
 7670POPC   C3B28881  33.252   4.462   7.955
 7670POPC   C4B28882  33.267   4.396   7.655
 7671POPC   NC328883  29.896  13.610   9.455
 7671POPC   PO428884  29.941  13.582   9.155
 7671POPC   GL128885  29.966  13.601   8.855
 7671POPC   GL228886  29.975  13.608   8.855
 7671POPC   C1A28887  29.927  13.657   8.555
 7671POPC   D2A28888  29.915  13.604   8.255
 7671POPC   C3A28889  29.921  13.582   7.955
 7671POPC   C4A28890  29.871  13.638   7.655
 7671POPC   C1B28891  30.164  13.446   8.555
 7671POPC   C2B28892  30.091  13.444   8.255
 7671POPC   C3B28893  30.125  13.464   7.955
 7671POPC   C4B28894  30.087  13.526   7.655
 7672POPC   NC328895  19.787  44.655   9.455
 7672POPC   PO428896  19.803  44.673   9.155
 7672POPC   GL128897  19.809  44.637   8.855
 7672POPC   GL228898  19.902  44.794   8.855
 7672POPC   C1A28899  19.793  44.685   8.555
 7672POPC   D2A28900  19.831  44.644   8.255
 7672POPC   C3A28901  19.825  44.684   7.955
 7672POPC   C4A28902  19.857  44.692   7.655
 7672POPC   C1B28903  19.971  44.803   8.555
 7672POPC   C2B28904  20.053  44.811   8.255
 7672POPC   C3B28905  19.979  44.837   7.955
 7672POPC   C4B28906  19.979  44.825   7.655
 7673POPC   NC328907  34.600  21.419   9.455
 7673POPC   PO428908  34.589  21.406   9.155
 7673POPC   GL128909  34.609  21.389   8.855
 7673POPC   GL228910  34.461  21.319   8.855
 7673POPC   C1A28911  34.616  21.407   8.555
 7673POPC   D2A28912  34.560  21.381   8.255
 7673POPC   C3A28913  34.549  21.431   7.955
 7673POPC   C4A28914  34.595  21.348   7.655
 7673POPC   C1B28915  34.346  21.293   8.555
 7673POPC   C2B28916  34.311  21.311   8.255
 7673POPC   C3B28917  34.377  21.273   7.955
 7673POPC   C4B28918  34.394  21.243   7.655
 7674POPC   NC328919   9.757   5.077   9.455
 7674POPC   PO428920   9.768   5.111   9.155
 7674POPC   GL128921   9.702   5.057   8.855
 7674POPC   GL228922   9.895   5.021   8.855
 7674POPC   C1A28923   9.764   5.063   8.555
 7674POPC   D2A28924   9.746   5.107   8.255
 7674POPC   C3A28925   9.787   5.120   7.955
 7674POPC   C4A28926   9.768   5.114   7.655
 7674POPC   C1B28927   9.946   4.991   8.555
 7674POPC   C2B28928   9.943   4.964   8.255
 7674POPC   C3B28929   9.971   5.039   7.955
 7674POPC   C4B28930   9.987   4.971   7.655
 7675POPC   NC328931   5.915  33.803   9.455
 7675POPC   PO428932   5.874  33.762   9.155
 7675POPC   GL128933   5.840  33.787   8.855
 7675POPC   GL228934   5.975  33.879   8.855
 7675POPC   C1A28935   5.834  33.786   8.555
 7675POPC   D2A28936   5.851  33.821   8.255
 7675POPC   C3A28937   5.846  33.768   7.955
 7675POPC   C4A28938   5.876  33.827   7.655
 7675POPC   C1B28939   6.061  33.974   8.555
 7675POPC   C2B28940   6.048  33.983   8.255
 7675POPC   C3B28941   6.117  33.984   7.955
 7675POPC   C4B28942   6.030  33.950   7.655
 7676POPC   NC328943  15.962  20.578   9.455
 7676POPC   PO428944  15.990  20.652   9.155
 7676POPC   GL128945  15.974  20.565   8.855
 7676POPC   GL228946  15.993  20.523   8.855
 7676POPC   C1A28947  15.909  20.645   8.555
 7676POPC   D2A28948  15.947  20.657   8.255
 7676POPC   C3A28949  15.964  20.581   7.955
 7676POPC   C4A28950  15.924  20.600   7.655
 7676POPC   C1B28951  16.140  20.421   8.555
 7676POPC   C2B28952  16.080  20.396   8.255
 7676POPC   C3B28953  16.153  20.389   7.955
 7676POPC   C4B28954  16.075  20.429   7.655
 7677POPC   NC328955  17.502   1.196   9.455
 7677POPC   PO428956  17.553   1.196   9.155
 7677POPC   GL128957  17.467   1.250   8.855
 7677POPC   GL228958  17.670   1.228   8.855
 7677POPC   C1A28959  17.509   1.176   8.555
 7677POPC   D2A28960  17.468   1.254   8.255
 7677POPC   C3A28961  17.554   1.250   7.955
 7677POPC   C4A28962  17.478   1.231   7.655
 7677POPC   C1B28963  17.715   1.102   8.555
 7677POPC   C2B28964  17.796   1.126   8.255
 7677POPC   C3B28965  17.733   1.107   7.955
 7677POPC   C4B28966  17.700   1.190   7.655
 7678POPC   NC328967  33.009   1.999   9.455
 7678POPC   PO428968  33.005   1.983   9.155
 7678POPC   GL128969  33.024   1.958   8.855
 7678POPC   GL228970  32.907   2.041   8.855
 7678POPC   C1A28971  33.005   1.970   8.555
 7678POPC   D2A28972  32.994   1.947   8.255
 7678POPC   C3A28973  32.978   1.971   7.955
 7678POPC   C4A28974  32.997   1.955   7.655
 7678POPC   C1B28975  32.835   2.191   8.555
 7678POPC   C2B28976  32.811   2.115   8.255
 7678POPC   C3B28977  32.833   2.162   7.955
 7678POPC   C4B28978  32.824   2.173   7.655
 7679POPC   NC328979  12.122  43.874   9.455
 7679POPC   PO428980  12.059  43.848   9.155
 7679POPC   GL128981  12.108  43.908   8.855
 7679POPC   GL228982  12.240  43.871   8.855
 7679POPC   C1A28983  12.095  43.865   8.555
 7679POPC   D2A28984  12.059  43.922   8.255
 7679POPC   C3A28985  12.067  43.903   7.955
 7679POPC   C4A28986  12.075  43.843   7.655
 7679POPC   C1B28987  12.293  43.761   8.555
 7679POPC   C2B28988  12.339  43.773   8.255
 7679POPC   C3B28989  12.320  43.831   7.955
 7679POPC   C4B28990  12.339  43.842   7.655
 7680POPC   NC328991  26.015  24.458   9.455
 7680POPC   PO428992  26.060  24.447   9.155
 7680POPC   GL128993  25.997  24.514   8.855
 7680POPC   GL228994  25.968  24.507   8.855
 7680POPC   C1A28995  26.023  24.502   8.555
 7680POPC   D2A28996  26.007  24.523   8.255
 7680POPC   C3A28997  26.091  24.519   7.955
 7680POPC   C4A28998  26.070  24.497   7.655
 7680POPC   C1B28999  25.745  24.485   8.555
 7680POPC   C2B29000  25.815  24.463   8.255
 7680POPC   C3B29001  25.833  24.448   7.955
 7680POPC   C4B29002  25.806  24.408   7.655
 7681POPC   NC329003  35.305  42.375   9.455
 7681POPC   PO429004  35.340  42.371   9.155
 7681POPC   GL129005  35.329  42.318   8.855
 7681POPC   GL229006  35.471  42.222   8.855
 7681POPC   C1A29007  35.354  42.353   8.555
 7681POPC   D2A29008  35.361  42.376   8.255
 7681POPC   C3A29009  35.335  42.342   7.955
 7681POPC   C4A29010  35.357  42.321   7.655
 7681POPC   C1B29011  35.467  42.153   8.555
 7681POPC   C2B29012  35.498  42.093   8.255
 7681POPC   C3B29013  35.503  42.101   7.955
 7681POPC   C4B29014  35.476  42.120   7.655
 7682POPC   NC329015  12.859   5.110   9.455
 7682POPC   PO429016  12.878   5.122   9.155
 7682POPC   GL129017  12.888   5.086   8.855
 7682POPC   GL229018  12.814   4.936   8.855
 7682POPC   C1A29019  12.834   5.057   8.555
 7682POPC   D2A29020  12.898   5.053   8.255
 7682POPC   C3A29021  12.858   5.079   7.955
 7682POPC   C4A29022  12.812   5.067   7.655
 7682POPC   C1B29023  12.913   4.875   8.555
 7682POPC   C2B29024  12.852   4.821   8.255
 7682POPC   C3B29025  12.862   4.892   7.955
 7682POPC   C4B29026  12.863   4.859   7.655
 7683POPC   NC329027   5.087  31.520   9.455
 7683POPC   PO429028   5.088  31.490   9.155
 7683POPC   GL129029   5.063  31.494   8.855
 7683POPC   GL229030   5.040  31.612   8.855
 7683POPC   C1A29031   5.111  31.520   8.555
 7683POPC   D2A29032   5.106  31.514   8.255
 7683POPC   C3A29033   5.060  31.441   7.955
 7683POPC   C4A29034   5.113  31.515   7.655
 7683POPC   C1B29035   4.957  31.748   8.555
 7683POPC   C2B29036   5.033  31.660   8.255
 7683POPC   C3B29037   4.975  31.750   7.955
 7683POPC   C4B29038   4.964  31.690   7.655
 7684POPC   NC329039  36.100  36.150   9.455
 7684POPC   PO429040  36.155  36.162   9.155
 7684POPC   GL129041  36.108  36.122   8.855
 7684POPC   GL229042  36.241  36.169   8.855
 7684POPC   C1A29043  36.143  36.096   8.555
 7684POPC   D2A29044  36.097  36.140   8.255
 7684POPC   C3A29045  36.122  36.102   7.955
 7684POPC   C4A29046  36.078  36.098   7.655
 7684POPC   C1B29047  36.290  36.226   8.555
 7684POPC   C2B29048  36.330  36.246   8.255
 7684POPC   C3B29049  36.368  36.284   7.955
 7684POPC   C4B29050  36.309  36.238   7.655
 7685POPC   NC329051  21.358  41.555   9.455
 7685POPC   PO429052  21.348  41.566   9.155
 7685POPC   GL129053  21.392  41.542   8.855
 7685POPC   GL229054  21.300  41.447   8.855
 7685POPC   C1A29055  21.371  41.590   8.555
 7685POPC   D2A29056  21.386  41.530   8.255
 7685POPC   C3A29057  21.389  41.603   7.955
 7685POPC   C4A29058  21.347  41.509   7.655
 7685POPC   C1B29059  21.327  41.342   8.555
 7685POPC   C2B29060  21.304  41.334   8.255
 7685POPC   C3B29061  21.349  41.334   7.955
 7685POPC   C4B29062  21.303  41.295   7.655
 7686POPC   NC329063  44.645  26.793   9.455
 7686POPC   PO429064  44.619  26.768   9.155
 7686POPC   GL129065  44.681  26.796   8.855
 7686POPC   GL229066  44.521  26.879   8.855
 7686POPC   C1A29067  44.678  26.812   8.555
 7686POPC   D2A29068  44.672  26.812   8.255
 7686POPC   C3A29069  44.618  26.840   7.955
 7686POPC   C4A29070  44.659  26.852   7.655
 7686POPC   C1B29071  44.430  26.951   8.555
 7686POPC   C2B29072  44.426  26.938   8.255
 7686POPC   C3B29073  44.424  26.904   7.955
 7686POPC   C4B29074  44.390  26.964   7.655
 7687POPC   NC329075  38.466  42.369   9.455
 7687POPC   PO429076  38.475  42.368   9.155
 7687POPC   GL129077  38.429  42.364   8.855
 7687POPC   GL229078  38.535  42.288   8.855
 7687POPC   C1A29079  38.415  42.371   8.555
 7687POPC   D2A29080  38.411  42.324   8.255
 7687POPC   C3A29081  38.456  42.335   7.955
 7687POPC   C4A29082  38.436  42.323   7.655
 7687POPC   C1B29083  38.724  42.222   8.555
 7687POPC   C2B29084  38.697  42.256   8.255
 7687POPC   C3B29085  38.688  42.230   7.955
 7687POPC   C4B29086  38.693  42.230   7.655
 7688POPC   NC329087  24.456  23.689   9.455
 7688POPC   PO429088  24.490  23.665   9.155
 7688POPC   GL129089  24.469  23.709   8.855
 7688POPC   GL229090  24.410  23.604   8.855
 7688POPC   C1A29091  24.526  23.703   8.555
 7688POPC   D2A29092  24.526  23.723   8.255
 7688POPC   C3A29093  24.491  23.717   7.955
 7688POPC   C4A29094  24.483  23.758   7.655
 7688POPC   C1B29095  24.385  23.483   8.555
 7688POPC   C2B29096  24.384  23.535   8.255
 7688POPC   C3B29097  24.327  23.467   7.955
 7688POPC   C4B29098  24.329  23.489   7.655
 7689POPC   NC329099   2.780  40.780   9.455
 7689POPC   PO429100   2.807  40.768   9.155
 7689POPC   GL129101   2.726  40.785   8.855
 7689POPC   GL229102   2.719  40.902   8.855
 7689POPC   C1A29103   2.758  40.779   8.555
 7689POPC   D2A29104   2.767  40.733   8.255
 7689POPC   C3A29105   2.798  40.780   7.955
 7689POPC   C4A29106   2.806  40.763   7.655
 7689POPC   C1B29107   2.611  41.038   8.555
 7689POPC   C2B29108   2.658  41.007   8.255
 7689POPC   C3B29109   2.668  40.978   7.955
 7689POPC   C4B29110   2.665  41.017   7.655
 7690POPC   NC329111   8.204  43.152   9.455
 7690POPC   PO429112   8.158  43.075   9.155
 7690POPC   GL129113   8.208  43.131   8.855
 7690POPC   GL229114   8.306  43.086   8.855
 7690POPC   C1A29115   8.213  43.129   8.555
 7690POPC   D2A29116   8.221  43.132   8.255
 7690POPC   C3A29117   8.219  43.093   7.955
 7690POPC   C4A29118   8.206  43.068   7.655
 7690POPC   C1B29119   8.458  43.132   8.555
 7690POPC   C2B29120   8.429  43.099   8.255
 7690POPC   C3B29121   8.489  43.048   7.955
 7690POPC   C4B29122   8.474  43.077   7.655
 7691POPC   NC329123   2.001  30.692   9.455
 7691POPC   PO429124   1.993  30.673   9.155
 7691POPC   GL129125   1.969  30.716   8.855
 7691POPC   GL229126   1.988  30.609   8.855
 7691POPC   C1A29127   2.003  30.660   8.555
 7691POPC   D2A29128   1.975  30.704   8.255
 7691POPC   C3A29129   2.012  30.698   7.955
 7691POPC   C4A29130   2.030  30.696   7.655
 7691POPC   C1B29131   1.939  30.456   8.555
 7691POPC   C2B29132   1.934  30.487   8.255
 7691POPC   C3B29133   1.952  30.461   7.955
 7691POPC   C4B29134   1.928  30.429   7.655
 7692POPC   NC329135   2.021  21.356   9.455
 7692POPC   PO429136   1.977  21.386   9.155
 7692POPC   GL129137   1.991  21.346   8.855
 7692POPC   GL229138   1.904  21.392   8.855
 7692POPC   C1A29139   1.944  21.399   8.555
 7692POPC   D2A29140   2.004  21.421   8.255
 7692POPC   C3A29141   1.945  21.353   7.955
 7692POPC   C4A29142   1.950  21.338   7.655
 7692POPC   C1B29143   1.713  21.421   8.555
 7692POPC   C2B29144   1.746  21.419   8.255
 7692POPC   C3B29145   1.709  21.396   7.955
 7692POPC   C4B29146   1.755  21.377   7.655
 7693POPC   NC329147  22.956  29.176   9.455
 7693POPC   PO429148  22.929  29.110   9.155
 7693POPC   GL129149  22.952  29.111   8.855
 7693POPC   GL229150  23.091  29.197   8.855
 7693POPC   C1A29151  22.890  29.113   8.555
 7693POPC   D2A29152  22.967  29.175   8.255
 7693POPC   C3A29153  22.949  29.175   7.955
 7693POPC   C4A29154  22.969  29.115   7.655
 7693POPC   C1B29155  23.141  29.286   8.555
 7693POPC   C2B29156  23.179  29.273   8.255
 7693POPC   C3B29157  23.163  29.273   7.955
 7693POPC   C4B29158  23.157  29.285   7.655
 7694POPC   NC329159  17.547  26.084   9.455
 7694POPC   PO429160  17.518  26.082   9.155
 7694POPC   GL129161  17.511  26.063   8.855
 7694POPC   GL229162  17.558  26.171   8.855
 7694POPC   C1A29163  17.499  26.067   8.555
 7694POPC   D2A29164  17.463  26.085   8.255
 7694POPC   C3A29165  17.521  26.044   7.955
 7694POPC   C4A29166  17.503  26.077   7.655
 7694POPC   C1B29167  17.558  26.257   8.555
 7694POPC   C2B29168  17.553  26.237   8.255
 7694POPC   C3B29169  17.589  26.265   7.955
 7694POPC   C4B29170  17.563  26.274   7.655
 7695POPC   NC329171  33.819  32.231   9.455
 7695POPC   PO429172  33.764  32.202   9.155
 7695POPC   GL129173  33.805  32.221   8.855
 7695POPC   GL229174  33.906  32.149   8.855
 7695POPC   C1A29175  33.761  32.235   8.555
 7695POPC   D2A29176  33.799  32.234   8.255
 7695POPC   C3A29177  33.837  32.234   7.955
 7695POPC   C4A29178  33.766  32.230   7.655
 7695POPC   C1B29179  33.955  32.050   8.555
 7695POPC   C2B29180  34.045  32.096   8.255
 7695POPC   C3B29181  33.968  32.109   7.955
 7695POPC   C4B29182  34.046  32.067   7.655
 7696POPC   NC329183  39.213  31.495   9.455
 7696POPC   PO429184  39.259  31.513   9.155
 7696POPC   GL129185  39.280  31.445   8.855
 7696POPC   GL229186  39.272  31.617   8.855
 7696POPC   C1A29187  39.197  31.497   8.555
 7696POPC   D2A29188  39.271  31.459   8.255
 7696POPC   C3A29189  39.271  31.429   7.955
 7696POPC   C4A29190  39.264  31.440   7.655
 7696POPC   C1B29191  39.313  31.708   8.555
 7696POPC   C2B29192  39.249  31.666   8.255
 7696POPC   C3B29193  39.253  31.714   7.955
 7696POPC   C4B29194  39.266  31.675   7.655
 7697POPC   NC329195  11.344  43.843   9.455
 7697POPC   PO429196  11.285  43.916   9.155
 7697POPC   GL129197  11.277  43.851   8.855
 7697POPC   GL229198  11.380  43.956   8.855
 7697POPC   C1A29199  11.328  43.893   8.555
 7697POPC   D2A29200  11.331  43.846   8.255
 7697POPC   C3A29201  11.262  43.840   7.955
 7697POPC   C4A29202  11.276  43.908   7.655
 7697POPC   C1B29203  11.533  43.942   8.555
 7697POPC   C2B29204  11.511  43.984   8.255
 7697POPC   C3B29205  11.496  44.026   7.955
 7697POPC   C4B29206  11.528  43.994   7.655
 7698POPC   NC329207  28.389  29.933   9.455
 7698POPC   PO429208  28.386  29.942   9.155
 7698POPC   GL129209  28.391  29.961   8.855
 7698POPC   GL229210  28.387  29.794   8.855
 7698POPC   C1A29211  28.337  29.877   8.555
 7698POPC   D2A29212  28.401  29.932   8.255
 7698POPC   C3A29213  28.364  29.891   7.955
 7698POPC   C4A29214  28.410  29.950   7.655
 7698POPC   C1B29215  28.353  29.631   8.555
 7698POPC   C2B29216  28.395  29.685   8.255
 7698POPC   C3B29217  28.344  29.712   7.955
 7698POPC   C4B29218  28.337  29.700   7.655
 7699POPC   NC329219  36.135  38.493   9.455
 7699POPC   PO429220  36.099  38.437   9.155
 7699POPC   GL129221  36.095  38.456   8.855
 7699POPC   GL229222  35.968  38.524   8.855
 7699POPC   C1A29223  36.159  38.486   8.555
 7699POPC   D2A29224  36.098  38.494   8.255
 7699POPC   C3A29225  36.109  38.455   7.955
 7699POPC   C4A29226  36.112  38.411   7.655
 7699POPC   C1B29227  35.848  38.513   8.555
 7699POPC   C2B29228  35.897  38.495   8.255
 7699POPC   C3B29229  35.882  38.497   7.955
 7699POPC   C4B29230  35.880  38.481   7.655
 7700POPC   NC329231  41.525  42.322   9.455
 7700POPC   PO429232  41.586  42.318   9.155
 7700POPC   GL129233  41.562  42.357   8.855
 7700POPC   GL229234  41.604  42.478   8.855
 7700POPC   C1A29235  41.572  42.290   8.555
 7700POPC   D2A29236  41.579  42.345   8.255
 7700POPC   C3A29237  41.530  42.285   7.955
 7700POPC   C4A29238  41.593  42.379   7.655
 7700POPC   C1B29239  41.628  42.538   8.555
 7700POPC   C2B29240  41.626  42.534   8.255
 7700POPC   C3B29241  41.667  42.555   7.955
 7700POPC   C4B29242  41.680  42.574   7.655
 7701POPC   NC329243  39.275  17.489   9.455
 7701POPC   PO429244  39.199  17.510   9.155
 7701POPC   GL129245  39.249  17.508   8.855
 7701POPC   GL229246  39.095  17.554   8.855
 7701POPC   C1A29247  39.266  17.527   8.555
 7701POPC   D2A29248  39.246  17.478   8.255
 7701POPC   C3A29249  39.228  17.488   7.955
 7701POPC   C4A29250  39.190  17.500   7.655
 7701POPC   C1B29251  39.066  17.592   8.555
 7701POPC   C2B29252  39.029  17.687   8.255
 7701POPC   C3B29253  39.040  17.675   7.955
 7701POPC   C4B29254  39.030  17.632   7.655
 7702POPC   NC329255  14.383  10.512   9.455
 7702POPC   PO429256  14.429  10.548   9.155
 7702POPC   GL129257  14.451  10.551   8.855
 7702POPC   GL229258  14.271  10.587   8.855
 7702POPC   C1A29259  14.400  10.565   8.555
 7702POPC   D2A29260  14.357  10.571   8.255
 7702POPC   C3A29261  14.387  10.554   7.955
 7702POPC   C4A29262  14.444  10.485   7.655
 7702POPC   C1B29263  14.151  10.645   8.555
 7702POPC   C2B29264  14.162  10.676   8.255
 7702POPC   C3B29265  14.246  10.680   7.955
 7702POPC   C4B29266  14.196  10.629   7.655
 7703POPC   NC329267   2.005  29.187   9.455
 7703POPC   PO429268   2.027  29.138   9.155
 7703POPC   GL129269   2.036  29.186   8.855
 7703POPC   GL229270   1.971  29.026   8.855
 7703POPC   C1A29271   1.953  29.126   8.555
 7703POPC   D2A29272   1.983  29.106   8.255
 7703POPC   C3A29273   1.966  29.137   7.955
 7703POPC   C4A29274   2.016  29.145   7.655
 7703POPC   C1B29275   2.040  28.875   8.555
 7703POPC   C2B29276   2.035  28.880   8.255
 7703POPC   C3B29277   1.999  28.920   7.955
 7703POPC   C4B29278   2.087  28.905   7.655
 7704POPC   NC329279  21.349  23.737   9.455
 7704POPC   PO429280  21.434  23.744   9.155
 7704POPC   GL129281  21.363  23.744   8.855
 7704POPC   GL229282  21.497  23.646   8.855
 7704POPC   C1A29283  21.390  23.740   8.555
 7704POPC   D2A29284  21.405  23.761   8.255
 7704POPC   C3A29285  21.404  23.715   7.955
 7704POPC   C4A29286  21.338  23.714   7.655
 7704POPC   C1B29287  21.629  23.609   8.555
 7704POPC   C2B29288  21.645  23.608   8.255
 7704POPC   C3B29289  21.570  23.665   7.955
 7704POPC   C4B29290  21.636  23.648   7.655
 7705POPC   NC329291  19.032  17.555   9.455
 7705POPC   PO429292  19.016  17.506   9.155
 7705POPC   GL129293  19.093  17.481   8.855
 7705POPC   GL229294  19.187  17.464   8.855
 7705POPC   C1A29295  19.088  17.529   8.555
 7705POPC   D2A29296  19.050  17.459   8.255
 7705POPC   C3A29297  19.088  17.551   7.955
 7705POPC   C4A29298  19.041  17.460   7.655
 7705POPC   C1B29299  19.246  17.408   8.555
 7705POPC   C2B29300  19.288  17.321   8.255
 7705POPC   C3B29301  19.289  17.313   7.955
 7705POPC   C4B29302  19.251  17.316   7.655
 7706POPC   NC329303  24.449  43.093   9.455
 7706POPC   PO429304  24.448  43.076   9.155
 7706POPC   GL129305  24.497  43.088   8.855
 7706POPC   GL229306  24.511  43.196   8.855
 7706POPC   C1A29307  24.535  43.155   8.555
 7706POPC   D2A29308  24.444  43.119   8.255
 7706POPC   C3A29309  24.534  43.104   7.955
 7706POPC   C4A29310  24.471  43.072   7.655
 7706POPC   C1B29311  24.673  43.313   8.555
 7706POPC   C2B29312  24.642  43.337   8.255
 7706POPC   C3B29313  24.626  43.357   7.955
 7706POPC   C4B29314  24.617  43.337   7.655
 7707POPC   NC329315  23.755  44.690   9.455
 7707POPC   PO429316  23.685  44.669   9.155
 7707POPC   GL129317  23.673  44.677   8.855
 7707POPC   GL229318  23.577  44.592   8.855
 7707POPC   C1A29319  23.726  44.640   8.555
 7707POPC   D2A29320  23.689  44.632   8.255
 7707POPC   C3A29321  23.748  44.614   7.955
 7707POPC   C4A29322  23.715  44.666   7.655
 7707POPC   C1B29323  23.432  44.622   8.555
 7707POPC   C2B29324  23.520  44.618   8.255
 7707POPC   C3B29325  23.493  44.608   7.955
 7707POPC   C4B29326  23.431  44.575   7.655
 7708POPC   NC329327   2.765   3.580   9.455
 7708POPC   PO429328   2.765   3.528   9.155
 7708POPC   GL129329   2.810   3.527   8.855
 7708POPC   GL229330   2.682   3.568   8.855
 7708POPC   C1A29331   2.802   3.578   8.555
 7708POPC   D2A29332   2.788   3.570   8.255
 7708POPC   C3A29333   2.751   3.577   7.955
 7708POPC   C4A29334   2.722   3.591   7.655
 7708POPC   C1B29335   2.556   3.655   8.555
 7708POPC   C2B29336   2.564   3.606   8.255
 7708POPC   C3B29337   2.490   3.622   7.955
 7708POPC   C4B29338   2.509   3.595   7.655
 7709POPC   NC329339  24.511   3.532   9.455
 7709POPC   PO429340  24.489   3.578   9.155
 7709POPC   GL129341  24.477   3.569   8.855
 7709POPC   GL229342  24.416   3.551   8.855
 7709POPC   C1A29343  24.503   3.531   8.555
 7709POPC   D2A29344  24.514   3.558   8.255
 7709POPC   C3A29345  24.478   3.575   7.955
 7709POPC   C4A29346  24.509   3.540   7.655
 7709POPC   C1B29347  24.257   3.496   8.555
 7709POPC   C2B29348  24.246   3.487   8.255
 7709POPC   C3B29349  24.267   3.479   7.955
 7709POPC   C4B29350  24.266   3.463   7.655
 7710POPC   NC329351  42.344  38.411   9.455
 7710POPC   PO429352  42.359  38.413   9.155
 7710POPC   GL129353  42.379  38.469   8.855
 7710POPC   GL229354  42.328  38.337   8.855
 7710POPC   C1A29355  42.338  38.421   8.555
 7710POPC   D2A29356  42.347  38.500   8.255
 7710POPC   C3A29357  42.339  38.473   7.955
 7710POPC   C4A29358  42.332  38.469   7.655
 7710POPC   C1B29359  42.391  38.224   8.555
 7710POPC   C2B29360  42.348  38.176   8.255
 7710POPC   C3B29361  42.376  38.236   7.955
 7710POPC   C4B29362  42.355  38.169   7.655
 7711POPC   NC329363  39.241   2.768   9.455
 7711POPC   PO429364  39.219   2.741   9.155
 7711POPC   GL129365  39.217   2.750   8.855
 7711POPC   GL229366  39.300   2.855   8.855
 7711POPC   C1A29367  39.254   2.803   8.555
 7711POPC   D2A29368  39.186   2.814   8.255
 7711POPC   C3A29369  39.232   2.777   7.955
 7711POPC   C4A29370  39.241   2.781   7.655
 7711POPC   C1B29371  39.421   2.843   8.555
 7711POPC   C2B29372  39.423   2.939   8.255
 7711POPC   C3B29373  39.478   2.942   7.955
 7711POPC   C4B29374  39.409   2.936   7.655
 7712POPC   NC329375   3.534   0.447   9.455
 7712POPC   PO429376   3.546   0.432   9.155
 7712POPC   GL129377   3.550   0.482   8.855
 7712POPC   GL229378   3.444   0.592   8.855
 7712POPC   C1A29379   3.512   0.422   8.555
 7712POPC   D2A29380   3.546   0.462   8.255
 7712POPC   C3A29381   3.591   0.441   7.955
 7712POPC   C4A29382   3.571   0.448   7.655
 7712POPC   C1B29383   3.392   0.689   8.555
 7712POPC   C2B29384   3.384   0.626   8.255
 7712POPC   C3B29385   3.385   0.667   7.955
 7712POPC   C4B29386   3.404   0.650   7.655
 7713POPC   NC329387  37.707  22.195   9.455
 7713POPC   PO429388  37.652  22.147   9.155
 7713POPC   GL129389  37.722  22.114   8.855
 7713POPC   GL229390  37.660  22.053   8.855
 7713POPC   C1A29391  37.662  22.191   8.555
 7713POPC   D2A29392  37.681  22.116   8.255
 7713POPC   C3A29393  37.719  22.197   7.955
 7713POPC   C4A29394  37.657  22.157   7.655
 7713POPC   C1B29395  37.504  21.947   8.555
 7713POPC   C2B29396  37.510  21.914   8.255
 7713POPC   C3B29397  37.505  21.901   7.955
 7713POPC   C4B29398  37.558  21.906   7.655
 7714POPC   NC329399  12.827  40.015   9.455
 7714POPC   PO429400  12.828  39.976   9.155
 7714POPC   GL129401  12.883  39.976   8.855
 7714POPC   GL229402  12.990  39.966   8.855
 7714POPC   C1A29403  12.843  40.028   8.555
 7714POPC   D2A29404  12.876  39.969   8.255
 7714POPC   C3A29405  12.824  39.980   7.955
 7714POPC   C4A29406  12.844  39.991   7.655
 7714POPC   C1B29407  13.127  39.949   8.555
 7714POPC   C2B29408  13.114  40.010   8.255
 7714POPC   C3B29409  13.113  40.025   7.955
 7714POPC   C4B29410  13.097  40.006   7.655
 7715POPC   NC329411  21.424  44.630   9.455
 7715POPC   PO429412  21.401  44.665   9.155
 7715POPC   GL129413  21.344  44.625   8.855
 7715POPC   GL229414  21.505  44.658   8.855
 7715POPC   C1A29415  21.432  44.703   8.555
 7715POPC   D2A29416  21.385  44.702   8.255
 7715POPC   C3A29417  21.339  44.708   7.955
 7715POPC   C4A29418  21.369  44.639   7.655
 7715POPC   C1B29419  21.601  44.770   8.555
 7715POPC   C2B29420  21.627  44.719   8.255
 7715POPC   C3B29421  21.656  44.717   7.955
 7715POPC   C4B29422  21.589  44.736   7.655
 7716POPC   NC329423  13.645  20.585   9.455
 7716POPC   PO429424  13.589  20.593   9.155
 7716POPC   GL129425  13.668  20.579   8.855
 7716POPC   GL229426  13.605  20.728   8.855
 7716POPC   C1A29427  13.632  20.616   8.555
 7716POPC   D2A29428  13.617  20.585   8.255
 7716POPC   C3A29429  13.621  20.585   7.955
 7716POPC   C4A29430  13.665  20.567   7.655
 7716POPC   C1B29431  13.551  20.828   8.555
 7716POPC   C2B29432  13.488  20.827   8.255
 7716POPC   C3B29433  13.512  20.808   7.955
 7716POPC   C4B29434  13.495  20.791   7.655
 7717POPC   NC329435  29.899   5.887   9.455
 7717POPC   PO429436  29.924   5.842   9.155
 7717POPC   GL129437  29.968   5.874   8.855
 7717POPC   GL229438  29.878   5.990   8.855
 7717POPC   C1A29439  29.931   5.865   8.555
 7717POPC   D2A29440  29.907   5.874   8.255
 7717POPC   C3A29441  29.897   5.863   7.955
 7717POPC   C4A29442  29.932   5.893   7.655
 7717POPC   C1B29443  29.885   6.143   8.555
 7717POPC   C2B29444  29.925   6.127   8.255
 7717POPC   C3B29445  29.849   6.145   7.955
 7717POPC   C4B29446  29.859   6.098   7.655
 7718POPC   NC329447   0.480  22.970   9.455
 7718POPC   PO429448   0.457  22.962   9.155
 7718POPC   GL129449   0.484  22.912   8.855
 7718POPC   GL229450   0.491  22.978   8.855
 7718POPC   C1A29451   0.472  22.964   8.555
 7718POPC   D2A29452   0.475  22.915   8.255
 7718POPC   C3A29453   0.473  22.956   7.955
 7718POPC   C4A29454   0.421  22.955   7.655
 7718POPC   C1B29455   0.590  23.086   8.555
 7718POPC   C2B29456   0.594  23.094   8.255
 7718POPC   C3B29457   0.638  23.116   7.955
 7718POPC   C4B29458   0.601  23.124   7.655
 7719POPC   NC329459   1.206  34.579   9.455
 7719POPC   PO429460   1.174  34.619   9.155
 7719POPC   GL129461   1.252  34.585   8.855
 7719POPC   GL229462   1.212  34.424   8.855
 7719POPC   C1A29463   1.184  34.621   8.555
 7719POPC   D2A29464   1.254  34.542   8.255
 7719POPC   C3A29465   1.262  34.556   7.955
 7719POPC   C4A29466   1.174  34.608   7.655
 7719POPC   C1B29467   1.217  34.299   8.555
 7719POPC   C2B29468   1.121  34.318   8.255
 7719POPC   C3B29469   1.176  34.291   7.955
 7719POPC   C4B29470   1.197  34.290   7.655
 7720POPC   NC329471  32.228   6.616   9.455
 7720POPC   PO429472  32.291   6.640   9.155
 7720POPC   GL129473  32.243   6.616   8.855
 7720POPC   GL229474  32.233   6.758   8.855
 7720POPC   C1A29475  32.266   6.660   8.555
 7720POPC   D2A29476  32.279   6.607   8.255
 7720POPC   C3A29477  32.213   6.671   7.955
 7720POPC   C4A29478  32.283   6.614   7.655
 7720POPC   C1B29479  32.246   6.938   8.555
 7720POPC   C2B29480  32.234   6.854   8.255
 7720POPC   C3B29481  32.296   6.846   7.955
 7720POPC   C4B29482  32.317   6.928   7.655
 7721POPC   NC329483   7.448   8.228   9.455
 7721POPC   PO429484   7.413   8.235   9.155
 7721POPC   GL129485   7.433   8.207   8.855
 7721POPC   GL229486   7.393   8.039   8.855
 7721POPC   C1A29487   7.427   8.193   8.555
 7721POPC   D2A29488   7.380   8.214   8.255
 7721POPC   C3A29489   7.469   8.195   7.955
 7721POPC   C4A29490   7.422   8.181   7.655
 7721POPC   C1B29491   7.403   7.965   8.555
 7721POPC   C2B29492   7.408   7.972   8.255
 7721POPC   C3B29493   7.389   7.914   7.955
 7721POPC   C4B29494   7.420   7.975   7.655
 7722POPC   NC329495   9.734   8.220   9.455
 7722POPC   PO429496   9.797   8.244   9.155
 7722POPC   GL129497   9.709   8.147   8.855
 7722POPC   GL229498   9.881   8.284   8.855
 7722POPC   C1A29499   9.719   8.184   8.555
 7722POPC   D2A29500   9.715   8.212   8.255
 7722POPC   C3A29501   9.790   8.208   7.955
 7722POPC   C4A29502   9.732   8.193   7.655
 7722POPC   C1B29503   9.935   8.322   8.555
 7722POPC   C2B29504   9.947   8.351   8.255
 7722POPC   C3B29505   9.976   8.380   7.955
 7722POPC   C4B29506   9.905   8.332   7.655
 7723POPC   NC329507   3.565  31.464   9.455
 7723POPC   PO429508   3.498  31.476   9.155
 7723POPC   GL129509   3.563  31.443   8.855
 7723POPC   GL229510   3.536  31.347   8.855
 7723POPC   C1A29511   3.515  31.517   8.555
 7723POPC   D2A29512   3.564  31.436   8.255
 7723POPC   C3A29513   3.527  31.492   7.955
 7723POPC   C4A29514   3.582  31.501   7.655
 7723POPC   C1B29515   3.431  31.244   8.555
 7723POPC   C2B29516   3.412  31.244   8.255
 7723POPC   C3B29517   3.443  31.290   7.955
 7723POPC   C4B29518   3.409  31.220   7.655
 7724POPC   NC329519   2.783  32.252   9.455
 7724POPC   PO429520   2.724  32.284   9.155
 7724POPC   GL129521   2.799  32.251   8.855
 7724POPC   GL229522   2.848  32.220   8.855
 7724POPC   C1A29523   2.813  32.226   8.555
 7724POPC   D2A29524   2.767  32.203   8.255
 7724POPC   C3A29525   2.788  32.236   7.955
 7724POPC   C4A29526   2.725  32.278   7.655
 7724POPC   C1B29527   2.943  32.110   8.555
 7724POPC   C2B29528   2.990  32.153   8.255
 7724POPC   C3B29529   2.946  32.072   7.955
 7724POPC   C4B29530   2.967  32.088   7.655
 7725POPC   NC329531  32.296  38.466   9.455
 7725POPC   PO429532  32.268  38.422   9.155
 7725POPC   GL129533  32.200  38.444   8.855
 7725POPC   GL229534  32.302  38.529   8.855
 7725POPC   C1A29535  32.222  38.471   8.555
 7725POPC   D2A29536  32.203  38.503   8.255
 7725POPC   C3A29537  32.283  38.485   7.955
 7725POPC   C4A29538  32.293  38.466   7.655
 7725POPC   C1B29539  32.381  38.661   8.555
 7725POPC   C2B29540  32.295  38.732   8.255
 7725POPC   C3B29541  32.335  38.684   7.955
 7725POPC   C4B29542  32.294  38.684   7.655
 7726POPC   NC329543  15.943   7.396   9.455
 7726POPC   PO429544  15.964   7.447   9.155
 7726POPC   GL129545  15.922   7.448   8.855
 7726POPC   GL229546  15.899   7.493   8.855
 7726POPC   C1A29547  15.963   7.375   8.555
 7726POPC   D2A29548  15.932   7.383   8.255
 7726POPC   C3A29549  15.914   7.453   7.955
 7726POPC   C4A29550  15.959   7.418   7.655
 7726POPC   C1B29551  15.815   7.634   8.555
 7726POPC   C2B29552  15.778   7.661   8.255
 7726POPC   C3B29553  15.843   7.584   7.955
 7726POPC   C4B29554  15.849   7.594   7.655
 7727POPC   NC329555  22.171  41.596   9.455
 7727POPC   PO429556  22.168  41.514   9.155
 7727POPC   GL129557  22.161  41.543   8.855
 7727POPC   GL229558  22.182  41.438   8.855
 7727POPC   C1A29559  22.138  41.551   8.555
 7727POPC   D2A29560  22.141  41.526   8.255
 7727POPC   C3A29561  22.197  41.509   7.955
 7727POPC   C4A29562  22.135  41.578   7.655
 7727POPC   C1B29563  22.129  41.315   8.555
 7727POPC   C2B29564  22.073  41.305   8.255
 7727POPC   C3B29565  22.115  41.272   7.955
 7727POPC   C4B29566  22.111  41.337   7.655
 7728POPC   NC329567   5.070  13.590   9.455
 7728POPC   PO429568   5.139  13.667   9.155
 7728POPC   GL129569   5.072  13.592   8.855
 7728POPC   GL229570   5.081  13.483   8.855
 7728POPC   C1A29571   5.123  13.586   8.555
 7728POPC   D2A29572   5.087  13.591   8.255
 7728POPC   C3A29573   5.071  13.669   7.955
 7728POPC   C4A29574   5.107  13.602   7.655
 7728POPC   C1B29575   5.043  13.431   8.555
 7728POPC   C2B29576   5.025  13.429   8.255
 7728POPC   C3B29577   4.995  13.411   7.955
 7728POPC   C4B29578   5.025  13.369   7.655
 7729POPC   NC329579   4.361  20.585   9.455
 7729POPC   PO429580   4.367  20.580   9.155
 7729POPC   GL129581   4.334  20.628   8.855
 7729POPC   GL229582   4.240  20.530   8.855
 7729POPC   C1A29583   4.326  20.627   8.555
 7729POPC   D2A29584   4.305  20.628   8.255
 7729POPC   C3A29585   4.290  20.579   7.955
 7729POPC   C4A29586   4.335  20.612   7.655
 7729POPC   C1B29587   4.230  20.416   8.555
 7729POPC   C2B29588   4.278  20.408   8.255
 7729POPC   C3B29589   4.220  20.380   7.955
 7729POPC   C4B29590   4.216  20.414   7.655
 7730POPC   NC329591  43.896   1.213   9.455
 7730POPC   PO429592  43.912   1.213   9.155
 7730POPC   GL129593  43.860   1.166   8.855
 7730POPC   GL229594  44.039   1.166   8.855
 7730POPC   C1A29595  43.849   1.243   8.555
 7730POPC   D2A29596  43.932   1.242   8.255
 7730POPC   C3A29597  43.935   1.244   7.955
 7730POPC   C4A29598  43.924   1.262   7.655
 7730POPC   C1B29599  44.108   1.060   8.555
 7730POPC   C2B29600  44.056   1.095   8.255
 7730POPC   C3B29601  44.129   1.136   7.955
 7730POPC   C4B29602  44.091   1.075   7.655
 7731POPC   NC329603  29.186  41.536   9.455
 7731POPC   PO429604  29.173  41.603   9.155
 7731POPC   GL129605  29.103  41.520   8.855
 7731POPC   GL229606  29.312  41.624   8.855
 7731POPC   C1A29607  29.164  41.539   8.555
 7731POPC   D2A29608  29.156  41.568   8.255
 7731POPC   C3A29609  29.167  41.536   7.955
 7731POPC   C4A29610  29.161  41.608   7.655
 7731POPC   C1B29611  29.389  41.638   8.555
 7731POPC   C2B29612  29.351  41.613   8.255
 7731POPC   C3B29613  29.400  41.580   7.955
 7731POPC   C4B29614  29.353  41.592   7.655
 7732POPC   NC329615  10.546  24.481   9.455
 7732POPC   PO429616  10.480  24.494   9.155
 7732POPC   GL129617  10.563  24.467   8.855
 7732POPC   GL229618  10.601  24.608   8.855
 7732POPC   C1A29619  10.497  24.493   8.555
 7732POPC   D2A29620  10.479  24.477   8.255
 7732POPC   C3A29621  10.503  24.456   7.955
 7732POPC   C4A29622  10.523  24.488   7.655
 7732POPC   C1B29623  10.656  24.645   8.555
 7732POPC   C2B29624  10.709  24.627   8.255
 7732POPC   C3B29625  10.702  24.696   7.955
 7732POPC   C4B29626  10.738  24.653   7.655
 7733POPC   NC329627  41.510  24.511   9.455
 7733POPC   PO429628  41.598  24.451   9.155
 7733POPC   GL129629  41.552  24.475   8.855
 7733POPC   GL229630  41.565  24.613   8.855
 7733POPC   C1A29631  41.533  24.532   8.555
 7733POPC   D2A29632  41.564  24.454   8.255
 7733POPC   C3A29633  41.538  24.499   7.955
 7733POPC   C4A29634  41.568  24.463   7.655
 7733POPC   C1B29635  41.616  24.688   8.555
 7733POPC   C2B29636  41.617  24.774   8.255
 7733POPC   C3B29637  41.568  24.723   7.955
 7733POPC   C4B29638  41.565  24.756   7.655
 7734POPC   NC329639  19.063  16.736   9.455
 7734POPC   PO429640  19.074  16.741   9.155
 7734POPC   GL129641  19.034  16.728   8.855
 7734POPC   GL229642  18.982  16.646   8.855
 7734POPC   C1A29643  19.079  16.689   8.555
 7734POPC   D2A29644  19.015  16.737   8.255
 7734POPC   C3A29645  19.033  16.712   7.955
 7734POPC   C4A29646  19.082  16.737   7.655
 7734POPC   C1B29647  18.967  16.460   8.555
 7734POPC   C2B29648  19.001  16.476   8.255
 7734POPC   C3B29649  18.959  16.535   7.955
 7734POPC   C4B29650  18.983  16.515   7.655
 7735POPC   NC329651  31.471   8.982   9.455
 7735POPC   PO429652  31.510   8.973   9.155
 7735POPC   GL129653  31.522   8.972   8.855
 7735POPC   GL229654  31.461   9.095   8.855
 7735POPC   C1A29655  31.446   8.953   8.555
 7735POPC   D2A29656  31.426   8.989   8.255
 7735POPC   C3A29657  31.516   8.933   7.955
 7735POPC   C4A29658  31.484   8.958   7.655
 7735POPC   C1B29659  31.505   9.254   8.555
 7735POPC   C2B29660  31.583   9.166   8.255
 7735POPC   C3B29661  31.541   9.235   7.955
 7735POPC   C4B29662  31.574   9.217   7.655
 7736POPC   NC329663   1.252  43.079   9.455
 7736POPC   PO429664   1.206  43.104   9.155
 7736POPC   GL129665   1.212  43.096   8.855
 7736POPC   GL229666   1.138  43.021   8.855
 7736POPC   C1A29667   1.167  43.076   8.555
 7736POPC   D2A29668   1.231  43.109   8.255
 7736POPC   C3A29669   1.258  43.154   7.955
 7736POPC   C4A29670   1.168  43.109   7.655
 7736POPC   C1B29671   1.099  42.888   8.555
 7736POPC   C2B29672   1.101  42.907   8.255
 7736POPC   C3B29673   1.195  42.829   7.955
 7736POPC   C4B29674   1.175  42.838   7.655
 7737POPC   NC329675  33.011   8.923   9.455
 7737POPC   PO429676  33.057   8.964   9.155
 7737POPC   GL129677  33.020   8.989   8.855
 7737POPC   GL229678  32.993   9.125   8.855
 7737POPC   C1A29679  33.029   9.003   8.555
 7737POPC   D2A29680  33.017   9.015   8.255
 7737POPC   C3A29681  32.999   9.012   7.955
 7737POPC   C4A29682  33.041   8.997   7.655
 7737POPC   C1B29683  32.936   9.161   8.555
 7737POPC   C2B29684  32.902   9.235   8.255
 7737POPC   C3B29685  32.949   9.194   7.955
 7737POPC   C4B29686  32.938   9.234   7.655
 7738POPC   NC329687   9.021  37.692   9.455
 7738POPC   PO429688   9.014  37.728   9.155
 7738POPC   GL129689   8.930  37.703   8.855
 7738POPC   GL229690   8.833  37.703   8.855
 7738POPC   C1A29691   8.961  37.699   8.555
 7738POPC   D2A29692   8.986  37.690   8.255
 7738POPC   C3A29693   9.001  37.723   7.955
 7738POPC   C4A29694   8.944  37.719   7.655
 7738POPC   C1B29695   8.679  37.735   8.555
 7738POPC   C2B29696   8.741  37.648   8.255
 7738POPC   C3B29697   8.747  37.651   7.955
 7738POPC   C4B29698   8.761  37.676   7.655
 7739POPC   NC329699   4.287   1.253   9.455
 7739POPC   PO429700   4.367   1.188   9.155
 7739POPC   GL129701   4.290   1.256   8.855
 7739POPC   GL229702   4.434   1.302   8.855
 7739POPC   C1A29703   4.359   1.192   8.555
 7739POPC   D2A29704   4.278   1.264   8.255
 7739POPC   C3A29705   4.356   1.241   7.955
 7739POPC   C4A29706   4.332   1.252   7.655
 7739POPC   C1B29707   4.502   1.388   8.555
 7739POPC   C2B29708   4.551   1.329   8.255
 7739POPC   C3B29709   4.491   1.300   7.955
 7739POPC   C4B29710   4.524   1.362   7.655
 7740POPC   NC329711  28.334  14.430   9.455
 7740POPC   PO429712  28.354  14.383   9.155
 7740POPC   GL129713  28.324  14.396   8.855
 7740POPC   GL229714  28.496  14.429   8.855
 7740POPC   C1A29715  28.382  14.369   8.555
 7740POPC   D2A29716  28.329  14.441   8.255
 7740POPC   C3A29717  28.356  14.429   7.955
 7740POPC   C4A29718  28.400  14.381   7.655
 7740POPC   C1B29719  28.588  14.576   8.555
 7740POPC   C2B29720  28.606  14.518   8.255
 7740POPC   C3B29721  28.582  14.582   7.955
 7740POPC   C4B29722  28.615  14.492   7.655
 7741POPC   NC329723  19.862   4.328   9.455
 7741POPC   PO429724  19.811   4.313   9.155
 7741POPC   GL129725  19.822   4.363   8.855
 7741POPC   GL229726  19.874   4.177   8.855
 7741POPC   C1A29727  19.884   4.302   8.555
 7741POPC   D2A29728  19.857   4.346   8.255
 7741POPC   C3A29729  19.820   4.348   7.955
 7741POPC   C4A29730  19.789   4.332   7.655
 7741POPC   C1B29731  19.903   4.037   8.555
 7741POPC   C2B29732  19.868   4.106   8.255
 7741POPC   C3B29733  19.884   4.055   7.955
 7741POPC   C4B29734  19.906   4.028   7.655
 7742POPC   NC329735  42.369  16.719   9.455
 7742POPC   PO429736  42.357  16.777   9.155
 7742POPC   GL129737  42.342  16.686   8.855
 7742POPC   GL229738  42.221  16.651   8.855
 7742POPC   C1A29739  42.293  16.683   8.555
 7742POPC   D2A29740  42.384  16.748   8.255
 7742POPC   C3A29741  42.310  16.726   7.955
 7742POPC   C4A29742  42.366  16.731   7.655
 7742POPC   C1B29743  42.147  16.606   8.555
 7742POPC   C2B29744  42.065  16.654   8.255
 7742POPC   C3B29745  42.089  16.698   7.955
 7742POPC   C4B29746  42.147  16.633   7.655
 7743POPC   NC329747  32.233   5.140   9.455
 7743POPC   PO429748  32.217   5.128   9.155
 7743POPC   GL129749  32.278   5.060   8.855
 7743POPC   GL229750  32.188   4.942   8.855
 7743POPC   C1A29751  32.214   5.126   8.555
 7743POPC   D2A29752  32.293   5.127   8.255
 7743POPC   C3A29753  32.278   5.119   7.955
 7743POPC   C4A29754  32.241   5.092   7.655
 7743POPC   C1B29755  32.265   4.890   8.555
 7743POPC   C2B29756  32.177   4.893   8.255
 7743POPC   C3B29757  32.205   4.814   7.955
 7743POPC   C4B29758  32.238   4.893   7.655
 7744POPC   NC329759  44.652  24.458   9.455
 7744POPC   PO429760  44.693  24.495   9.155
 7744POPC   GL129761  44.664  24.513   8.855
 7744POPC   GL229762  44.717  24.416   8.855
 7744POPC   C1A29763  44.660  24.462   8.555
 7744POPC   D2A29764  44.625  24.509   8.255
 7744POPC   C3A29765  44.708  24.499   7.955
 7744POPC   C4A29766  44.664  24.535   7.655
 7744POPC   C1B29767  44.857  24.316   8.555
 7744POPC   C2B29768  44.849  24.358   8.255
 7744POPC   C3B29769  44.890  24.359   7.955
 7744POPC   C4B29770  44.821  24.358   7.655
 7745POPC   NC329771  38.482  33.831   9.455
 7745POPC   PO429772  38.462  33.821   9.155
 7745POPC   GL129773  38.440  33.776   8.855
 7745POPC   GL229774  38.586  33.784   8.855
 7745POPC   C1A29775  38.429  33.760   8.555
 7745POPC   D2A29776  38.406  33.829   8.255
 7745POPC   C3A29777  38.439  33.841   7.955
 7745POPC   C4A29778  38.495  33.775   7.655
 7745POPC   C1B29779  38.692  33.742   8.555
 7745POPC   C2B29780  38.709  33.706   8.255
 7745POPC   C3B29781  38.674  33.705   7.955
 7745POPC   C4B29782  38.720  33.735   7.655
 7746POPC   NC329783  19.088  19.794   9.455
 7746POPC   PO429784  19.063  19.872   9.155
 7746POPC   GL129785  19.051  19.792   8.855
 7746POPC   GL229786  19.127  19.952   8.855
 7746POPC   C1A29787  19.069  19.806   8.555
 7746POPC   D2A29788  19.054  19.819   8.255
 7746POPC   C3A29789  19.074  19.874   7.955
 7746POPC   C4A29790  19.039  19.835   7.655
 7746POPC   C1B29791  19.180  20.029   8.555
 7746POPC   C2B29792  19.196  20.069   8.255
 7746POPC   C3B29793  19.205  20.025   7.955
 7746POPC   C4B29794  19.196  20.031   7.655
 7747POPC   NC329795   0.392  22.182   9.455
 7747POPC   PO429796   0.425  22.147   9.155
 7747POPC   GL129797   0.461  22.209   8.855
 7747POPC   GL229798   0.358  22.127   8.855
 7747POPC   C1A29799   0.481  22.129   8.555
 7747POPC   D2A29800   0.443  22.164   8.255
 7747POPC   C3A29801   0.450  22.203   7.955
 7747POPC   C4A29802   0.388  22.136   7.655
 7747POPC   C1B29803   0.236  22.102   8.555
 7747POPC   C2B29804   0.213  22.084   8.255
 7747POPC   C3B29805   0.254  22.111   7.955
 7747POPC   C4B29806   0.188  22.036   7.655
 7748POPC   NC329807  37.713   5.902   9.455
 7748POPC   PO429808  37.648   5.875   9.155
 7748POPC   GL129809  37.655   5.906   8.855
 7748POPC   GL229810  37.648   6.013   8.855
 7748POPC   C1A29811  37.720   5.911   8.555
 7748POPC   D2A29812  37.681   5.886   8.255
 7748POPC   C3A29813  37.642   5.888   7.955
 7748POPC   C4A29814  37.631   5.890   7.655
 7748POPC   C1B29815  37.669   6.133   8.555
 7748POPC   C2B29816  37.642   6.148   8.255
 7748POPC   C3B29817  37.661   6.143   7.955
 7748POPC   C4B29818  37.657   6.113   7.655
 7749POPC   NC329819  29.936  39.253   9.455
 7749POPC   PO429820  29.920  39.272   9.155
 7749POPC   GL129821  29.875  39.211   8.855
 7749POPC   GL229822  30.049  39.291   8.855
 7749POPC   C1A29823  29.918  39.192   8.555
 7749POPC   D2A29824  29.970  39.258   8.255
 7749POPC   C3A29825  29.901  39.182   7.955
 7749POPC   C4A29826  29.954  39.220   7.655
 7749POPC   C1B29827  30.078  39.367   8.555
 7749POPC   C2B29828  30.130  39.378   8.255
 7749POPC   C3B29829  30.105  39.359   7.955
 7749POPC   C4B29830  30.160  39.427   7.655
 7750POPC   NC329831   7.453  20.597   9.455
 7750POPC   PO429832   7.422  20.576   9.155
 7750POPC   GL129833   7.426  20.637   8.855
 7750POPC   GL229834   7.363  20.506   8.855
 7750POPC   C1A29835   7.378  20.561   8.555
 7750POPC   D2A29836   7.431  20.600   8.255
 7750POPC   C3A29837   7.442  20.619   7.955
 7750POPC   C4A29838   7.415  20.601   7.655
 7750POPC   C1B29839   7.313  20.370   8.555
 7750POPC   C2B29840   7.317  20.340   8.255
 7750POPC   C3B29841   7.360  20.391   7.955
 7750POPC   C4B29842   7.319  20.339   7.655
 7751POPC   NC329843  22.941  12.818   9.455
 7751POPC   PO429844  22.901  12.896   9.155
 7751POPC   GL129845  22.949  12.806   8.855
 7751POPC   GL229846  23.033  12.818   8.855
 7751POPC   C1A29847  22.980  12.811   8.555
 7751POPC   D2A29848  22.981  12.825   8.255
 7751POPC   C3A29849  22.940  12.809   7.955
 7751POPC   C4A29850  22.893  12.828   7.655
 7751POPC   C1B29851  23.178  12.746   8.555
 7751POPC   C2B29852  23.182  12.760   8.255
 7751POPC   C3B29853  23.146  12.694   7.955
 7751POPC   C4B29854  23.179  12.704   7.655
 7752POPC   NC329855  34.596  41.588   9.455
 7752POPC   PO429856  34.573  41.586   9.155
 7752POPC   GL129857  34.589  41.545   8.855
 7752POPC   GL229858  34.412  41.539   8.855
 7752POPC   C1A29859  34.619  41.605   8.555
 7752POPC   D2A29860  34.576  41.511   8.255
 7752POPC   C3A29861  34.570  41.604   7.955
 7752POPC   C4A29862  34.595  41.560   7.655
 7752POPC   C1B29863  34.369  41.540   8.555
 7752POPC   C2B29864  34.364  41.519   8.255
 7752POPC   C3B29865  34.352  41.521   7.955
 7752POPC   C4B29866  34.327  41.534   7.655
 7753POPC   NC329867  40.813   1.980   9.455
 7753POPC   PO429868  40.811   1.974   9.155
 7753POPC   GL129869  40.736   1.986   8.855
 7753POPC   GL229870  40.892   2.080   8.855
 7753POPC   C1A29871  40.776   2.032   8.555
 7753POPC   D2A29872  40.784   2.011   8.255
 7753POPC   C3A29873  40.773   1.959   7.955
 7753POPC   C4A29874  40.796   1.981   7.655
 7753POPC   C1B29875  40.904   2.183   8.555
 7753POPC   C2B29876  40.880   2.254   8.255
 7753POPC   C3B29877  40.876   2.202   7.955
 7753POPC   C4B29878  40.907   2.172   7.655
 7754POPC   NC329879   8.200  20.644   9.455
 7754POPC   PO429880   8.195  20.652   9.155
 7754POPC   GL129881   8.245  20.582   8.855
 7754POPC   GL229882   8.076  20.634   8.855
 7754POPC   C1A29883   8.214  20.643   8.555
 7754POPC   D2A29884   8.161  20.571   8.255
 7754POPC   C3A29885   8.162  20.593   7.955
 7754POPC   C4A29886   8.235  20.562   7.655
 7754POPC   C1B29887   7.940  20.762   8.555
 7754POPC   C2B29888   7.973  20.706   8.255
 7754POPC   C3B29889   7.936  20.719   7.955
 7754POPC   C4B29890   7.961  20.733   7.655
 7755POPC   NC329891  13.590   0.428   9.455
 7755POPC   PO429892  13.671   0.402   9.155
 7755POPC   GL129893  13.596   0.458   8.855
 7755POPC   GL229894  13.567   0.361   8.855
 7755POPC   C1A29895  13.635   0.420   8.555
 7755POPC   D2A29896  13.651   0.396   8.255
 7755POPC   C3A29897  13.646   0.398   7.955
 7755POPC   C4A29898  13.676   0.448   7.655
 7755POPC   C1B29899  13.440   0.253   8.555
 7755POPC   C2B29900  13.476   0.241   8.255
 7755POPC   C3B29901  13.432   0.230   7.955
 7755POPC   C4B29902  13.490   0.280   7.655
 7756POPC   NC329903   2.814  33.824   9.455
 7756POPC   PO429904   2.815  33.770   9.155
 7756POPC   GL129905   2.784  33.814   8.855
 7756POPC   GL229906   2.726  33.953   8.855
 7756POPC   C1A29907   2.753  33.764   8.555
 7756POPC   D2A29908   2.798  33.815   8.255
 7756POPC   C3A29909   2.748  33.769   7.955
 7756POPC   C4A29910   2.754  33.799   7.655
 7756POPC   C1B29911   2.695  34.027   8.555
 7756POPC   C2B29912   2.670  34.022   8.255
 7756POPC   C3B29913   2.728  34.031   7.955
 7756POPC   C4B29914   2.731  34.031   7.655
 7757POPC   NC329915   5.856  33.058   9.455
 7757POPC   PO429916   5.885  33.007   9.155
 7757POPC   GL129917   5.887  33.008   8.855
 7757POPC   GL229918   5.872  33.178   8.855
 7757POPC   C1A29919   5.899  32.990   8.555
 7757POPC   D2A29920   5.911  33.051   8.255
 7757POPC   C3A29921   5.916  33.053   7.955
 7757POPC   C4A29922   5.849  33.010   7.655
 7757POPC   C1B29923   5.854  33.309   8.555
 7757POPC   C2B29924   5.822  33.272   8.255
 7757POPC   C3B29925   5.850  33.230   7.955
 7757POPC   C4B29926   5.819  33.284   7.655
 7758POPC   NC329927  43.128  19.037   9.455
 7758POPC   PO429928  43.062  19.051   9.155
 7758POPC   GL129929  43.091  19.048   8.855
 7758POPC   GL229930  42.987  18.988   8.855
 7758POPC   C1A29931  43.141  19.067   8.555
 7758POPC   D2A29932  43.153  19.096   8.255
 7758POPC   C3A29933  43.131  19.073   7.955
 7758POPC   C4A29934  43.150  19.072   7.655
 7758POPC   C1B29935  42.929  18.854   8.555
 7758POPC   C2B29936  42.944  18.890   8.255
 7758POPC   C3B29937  42.977  18.897   7.955
 7758POPC   C4B29938  42.942  18.840   7.655
 7759POPC   NC329939   8.936   8.238   9.455
 7759POPC   PO429940   8.957   8.181   9.155
 7759POPC   GL129941   8.978   8.175   8.855
 7759POPC   GL229942   8.975   8.030   8.855
 7759POPC   C1A29943   8.977   8.224   8.555
 7759POPC   D2A29944   8.964   8.161   8.255
 7759POPC   C3A29945   9.007   8.157   7.955
 7759POPC   C4A29946   8.979   8.195   7.655
 7759POPC   C1B29947   8.922   7.940   8.555
 7759POPC   C2B29948   8.903   7.945   8.255
 7759POPC   C3B29949   8.889   7.906   7.955
 7759POPC   C4B29950   8.901   7.973   7.655
 7760POPC   NC329951  41.558  20.576   9.455
 7760POPC   PO429952  41.607  20.561   9.155
 7760POPC   GL129953  41.534  20.636   8.855
 7760POPC   GL229954  41.480  20.739   8.855
 7760POPC   C1A29955  41.544  20.650   8.555
 7760POPC   D2A29956  41.603  20.648   8.255
 7760POPC   C3A29957  41.560  20.606   7.955
 7760POPC   C4A29958  41.558  20.606   7.655
 7760POPC   C1B29959  41.421  20.795   8.555
 7760POPC   C2B29960  41.430  20.844   8.255
 7760POPC   C3B29961  41.518  20.841   7.955
 7760POPC   C4B29962  41.433  20.847   7.655
 7761POPC   NC329963  43.923   8.242   9.455
 7761POPC   PO429964  43.848   8.180   9.155
 7761POPC   GL129965  43.918   8.198   8.855
 7761POPC   GL229966  44.024   8.221   8.855
 7761POPC   C1A29967  43.894   8.148   8.555
 7761POPC   D2A29968  43.842   8.218   8.255
 7761POPC   C3A29969  43.905   8.216   7.955
 7761POPC   C4A29970  43.898   8.205   7.655
 7761POPC   C1B29971  44.103   8.220   8.555
 7761POPC   C2B29972  44.099   8.231   8.255
 7761POPC   C3B29973  44.098   8.253   7.955
 7761POPC   C4B29974  44.107   8.198   7.655
 7762POPC   NC329975   4.332  40.008   9.455
 7762POPC   PO429976   4.337  40.030   9.155
 7762POPC   GL129977   4.312  40.012   8.855
 7762POPC   GL229978   4.184  40.055   8.855
 7762POPC   C1A29979   4.306  39.976   8.555
 7762POPC   D2A29980   4.346  39.964   8.255
 7762POPC   C3A29981   4.307  40.043   7.955
 7762POPC   C4A29982   4.318  40.054   7.655
 7762POPC   C1B29983   4.179  40.225   8.555
 7762POPC   C2B29984   4.106  40.196   8.255
 7762POPC   C3B29985   4.162  40.198   7.955
 7762POPC   C4B29986   4.103  40.139   7.655
 7763POPC   NC329987  40.733  21.385   9.455
 7763POPC   PO429988  40.805  21.394   9.155
 7763POPC   GL129989  40.783  21.392   8.855
 7763POPC   GL229990  40.850  21.498   8.855
 7763POPC   C1A29991  40.799  21.356   8.555
 7763POPC   D2A29992  40.812  21.396   8.255
 7763POPC   C3A29993  40.771  21.348   7.955
 7763POPC   C4A29994  40.808  21.405   7.655
 7763POPC   C1B29995  40.979  21.536   8.555
 7763POPC   C2B29996  40.952  21.565   8.255
 7763POPC   C3B29997  41.028  21.504   7.955
 7763POPC   C4B29998  41.017  21.543   7.655
 7764POPC   NC329999  43.112  15.979   9.455
 7764POPC   PO430000  43.158  15.938   9.155
 7764POPC   GL130001  43.063  15.923   8.855
 7764POPC   GL230002  43.163  16.069   8.855
 7764POPC   C1A30003  43.131  15.982   8.555
 7764POPC   D2A30004  43.109  15.949   8.255
 7764POPC   C3A30005  43.127  15.986   7.955
 7764POPC   C4A30006  43.077  15.916   7.655
 7764POPC   C1B30007  43.128  16.169   8.555
 7764POPC   C2B30008  43.140  16.207   8.255
 7764POPC   C3B30009  43.103  16.177   7.955
 7764POPC   C4B30010  43.133  16.219   7.655
 7765POPC   NC330011  27.555  30.714   9.455
 7765POPC   PO430012  27.606  30.680   9.155
 7765POPC   GL130013  27.619  30.660   8.855
 7765POPC   GL230014  27.674  30.654   8.855
 7765POPC   C1A30015  27.608  30.709   8.555
 7765POPC   D2A30016  27.562  30.650   8.255
 7765POPC   C3A30017  27.624  30.654   7.955
 7765POPC   C4A30018  27.619  30.719   7.655
 7765POPC   C1B30019  27.781  30.611   8.555
 7765POPC   C2B30020  27.790  30.578   8.255
 7765POPC   C3B30021  27.825  30.568   7.955
 7765POPC   C4B30022  27.774  30.615   7.655
 7766POPC   NC330023  37.656  29.109   9.455
 7766POPC   PO430024  37.684  29.102   9.155
 7766POPC   GL130025  37.713  29.154   8.855
 7766POPC   GL230026  37.602  29.212   8.855
 7766POPC   C1A30027  37.699  29.130   8.555
 7766POPC   D2A30028  37.683  29.174   8.255
 7766POPC   C3A30029  37.678  29.154   7.955
 7766POPC   C4A30030  37.701  29.118   7.655
 7766POPC   C1B30031  37.519  29.317   8.555
 7766POPC   C2B30032  37.532  29.314   8.255
 7766POPC   C3B30033  37.594  29.390   7.955
 7766POPC   C4B30034  37.603  29.347   7.655
 7767POPC   NC330035  34.540  26.823   9.455
 7767POPC   PO430036  34.584  26.805   9.155
 7767POPC   GL130037  34.626  26.856   8.855
 7767POPC   GL230038  34.717  26.923   8.855
 7767POPC   C1A30039  34.541  26.865   8.555
 7767POPC   D2A30040  34.603  26.820   8.255
 7767POPC   C3A30041  34.545  26.861   7.955
 7767POPC   C4A30042  34.566  26.812   7.655
 7767POPC   C1B30043  34.792  27.029   8.555
 7767POPC   C2B30044  34.763  26.977   8.255
 7767POPC   C3B30045  34.750  27.004   7.955
 7767POPC   C4B30046  34.733  26.969   7.655
 7768POPC   NC330047  43.921   1.960   9.455
 7768POPC   PO430048  43.857   2.039   9.155
 7768POPC   GL130049  43.924   1.962   8.855
 7768POPC   GL230050  43.744   1.996   8.855
 7768POPC   C1A30051  43.873   2.019   8.555
 7768POPC   D2A30052  43.848   2.032   8.255
 7768POPC   C3A30053  43.913   1.964   7.955
 7768POPC   C4A30054  43.892   2.002   7.655
 7768POPC   C1B30055  43.597   2.017   8.555
 7768POPC   C2B30056  43.674   2.032   8.255
 7768POPC   C3B30057  43.611   2.099   7.955
 7768POPC   C4B30058  43.639   2.018   7.655
 7769POPC   NC330059  43.093  21.381   9.455
 7769POPC   PO430060  43.072  21.380   9.155
 7769POPC   GL130061  43.146  21.357   8.855
 7769POPC   GL230062  43.100  21.464   8.855
 7769POPC   C1A30063  43.079  21.399   8.555
 7769POPC   D2A30064  43.129  21.366   8.255
 7769POPC   C3A30065  43.083  21.397   7.955
 7769POPC   C4A30066  43.157  21.364   7.655
 7769POPC   C1B30067  43.079  21.609   8.555
 7769POPC   C2B30068  43.062  21.587   8.255
 7769POPC   C3B30069  43.109  21.617   7.955
 7769POPC   C4B30070  43.024  21.608   7.655
 7770POPC   NC330071  39.220  21.397   9.455
 7770POPC   PO430072  39.246  21.433   9.155
 7770POPC   GL130073  39.232  21.359   8.855
 7770POPC   GL230074  39.163  21.414   8.855
 7770POPC   C1A30075  39.221  21.431   8.555
 7770POPC   D2A30076  39.250  21.356   8.255
 7770POPC   C3A30077  39.229  21.398   7.955
 7770POPC   C4A30078  39.220  21.392   7.655
 7770POPC   C1B30079  39.013  21.464   8.555
 7770POPC   C2B30080  38.950  21.464   8.255
 7770POPC   C3B30081  38.961  21.513   7.955
 7770POPC   C4B30082  38.976  21.516   7.655
 7771POPC   NC330083  16.689  19.816   9.455
 7771POPC   PO430084  16.714  19.854   9.155
 7771POPC   GL130085  16.728  19.857   8.855
 7771POPC   GL230086  16.661  19.990   8.855
 7771POPC   C1A30087  16.715  19.848   8.555
 7771POPC   D2A30088  16.715  19.877   8.255
 7771POPC   C3A30089  16.693  19.873   7.955
 7771POPC   C4A30090  16.737  19.793   7.655
 7771POPC   C1B30091  16.606  20.062   8.555
 7771POPC   C2B30092  16.638  20.069   8.255
 7771POPC   C3B30093  16.657  20.078   7.955
 7771POPC   C4B30094  16.615  20.080   7.655
 7772POPC   NC330095   5.061  36.947   9.455
 7772POPC   PO430096   5.112  36.915   9.155
 7772POPC   GL130097   5.116  36.883   8.855
 7772POPC   GL230098   5.016  36.811   8.855
 7772POPC   C1A30099   5.060  36.874   8.555
 7772POPC   D2A30100   5.140  36.898   8.255
 7772POPC   C3A30101   5.076  36.854   7.955
 7772POPC   C4A30102   5.051  36.871   7.655
 7772POPC   C1B30103   4.927  36.708   8.555
 7772POPC   C2B30104   4.975  36.664   8.255
 7772POPC   C3B30105   4.950  36.703   7.955
 7772POPC   C4B30106   4.992  36.656   7.655
 7773POPC   NC330107  43.145  22.957   9.455
 7773POPC   PO430108  43.144  22.965   9.155
 7773POPC   GL130109  43.159  22.902   8.855
 7773POPC   GL230110  43.229  22.859   8.855
 7773POPC   C1A30111  43.091  22.957   8.555
 7773POPC   D2A30112  43.122  22.938   8.255
 7773POPC   C3A30113  43.098  22.964   7.955
 7773POPC   C4A30114  43.082  22.895   7.655
 7773POPC   C1B30115  43.318  22.779   8.555
 7773POPC   C2B30116  43.269  22.743   8.255
 7773POPC   C3B30117  43.277  22.797   7.955
 7773POPC   C4B30118  43.267  22.747   7.655
 7774POPC   NC330119  16.001   3.516   9.455
 7774POPC   PO430120  15.942   3.522   9.155
 7774POPC   GL130121  15.974   3.504   8.855
 7774POPC   GL230122  15.989   3.691   8.855
 7774POPC   C1A30123  15.951   3.532   8.555
 7774POPC   D2A30124  15.954   3.583   8.255
 7774POPC   C3A30125  15.981   3.533   7.955
 7774POPC   C4A30126  15.967   3.563   7.655
 7774POPC   C1B30127  16.137   3.720   8.555
 7774POPC   C2B30128  16.111   3.754   8.255
 7774POPC   C3B30129  16.108   3.701   7.955
 7774POPC   C4B30130  16.139   3.730   7.655
 7775POPC   NC330131  14.440  32.269   9.455
 7775POPC   PO430132  14.453  32.294   9.155
 7775POPC   GL130133  14.404  32.202   8.855
 7775POPC   GL230134  14.274  32.166   8.855
 7775POPC   C1A30135  14.396  32.231   8.555
 7775POPC   D2A30136  14.417  32.229   8.255
 7775POPC   C3A30137  14.400  32.272   7.955
 7775POPC   C4A30138  14.440  32.259   7.655
 7775POPC   C1B30139  14.249  32.083   8.555
 7775POPC   C2B30140  14.218  32.069   8.255
 7775POPC   C3B30141  14.190  32.026   7.955
 7775POPC   C4B30142  14.211  32.092   7.655
 7776POPC   NC330143   5.847   6.616   9.455
 7776POPC   PO430144   5.843   6.624   9.155
 7776POPC   GL130145   5.856   6.620   8.855
 7776POPC   GL230146   5.916   6.532   8.855
 7776POPC   C1A30147   5.831   6.631   8.555
 7776POPC   D2A30148   5.863   6.643   8.255
 7776POPC   C3A30149   5.822   6.667   7.955
 7776POPC   C4A30150   5.837   6.689   7.655
 7776POPC   C1B30151   6.094   6.437   8.555
 7776POPC   C2B30152   6.091   6.492   8.255
 7776POPC   C3B30153   6.078   6.482   7.955
 7776POPC   C4B30154   6.025   6.441   7.655
 7777POPC   NC330155  43.069  12.061   9.455
 7777POPC   PO430156  43.087  12.119   9.155
 7777POPC   GL130157  43.116  12.076   8.855
 7777POPC   GL230158  43.178  12.149   8.855
 7777POPC   C1A30159  43.064  12.034   8.555
 7777POPC   D2A30160  43.125  12.072   8.255
 7777POPC   C3A30161  43.073  12.047   7.955
 7777POPC   C4A30162  43.141  12.051   7.655
 7777POPC   C1B30163  43.318  12.186   8.555
 7777POPC   C2B30164  43.310  12.245   8.255
 7777POPC   C3B30165  43.320  12.187   7.955
 7777POPC   C4B30166  43.327  12.185   7.655
 7778POPC   NC330167  40.797  36.144   9.455
 7778POPC   PO430168  40.762  36.113   9.155
 7778POPC   GL130169  40.820  36.099   8.855
 7778POPC   GL230170  40.723  36.009   8.855
 7778POPC   C1A30171  40.766  36.123   8.555
 7778POPC   D2A30172  40.752  36.101   8.255
 7778POPC   C3A30173  40.820  36.102   7.955
 7778POPC   C4A30174  40.749  36.090   7.655
 7778POPC   C1B30175  40.749  35.919   8.555
 7778POPC   C2B30176  40.764  35.875   8.255
 7778POPC   C3B30177  40.747  35.858   7.955
 7778POPC   C4B30178  40.723  35.874   7.655
 7779POPC   NC330179  14.443   8.178   9.455
 7779POPC   PO430180  14.357   8.171   9.155
 7779POPC   GL130181  14.418   8.229   8.855
 7779POPC   GL230182  14.470   8.346   8.855
 7779POPC   C1A30183  14.427   8.159   8.555
 7779POPC   D2A30184  14.397   8.225   8.255
 7779POPC   C3A30185  14.432   8.219   7.955
 7779POPC   C4A30186  14.386   8.178   7.655
 7779POPC   C1B30187  14.530   8.430   8.555
 7779POPC   C2B30188  14.480   8.418   8.255
 7779POPC   C3B30189  14.481   8.447   7.955
 7779POPC   C4B30190  14.469   8.404   7.655
 7780POPC   NC330191  13.668  40.832   9.455
 7780POPC   PO430192  13.623  40.746   9.155
 7780POPC   GL130193  13.640  40.763   8.855
 7780POPC   GL230194  13.668  40.839   8.855
 7780POPC   C1A30195  13.622  40.772   8.555
 7780POPC   D2A30196  13.648  40.740   8.255
 7780POPC   C3A30197  13.621  40.820   7.955
 7780POPC   C4A30198  13.633  40.784   7.655
 7780POPC   C1B30199  13.758  40.930   8.555
 7780POPC   C2B30200  13.839  40.985   8.255
 7780POPC   C3B30201  13.825  40.937   7.955
 7780POPC   C4B30202  13.820  40.980   7.655
 7781POPC   NC330203   6.620  37.694   9.455
 7781POPC   PO430204   6.617  37.683   9.155
 7781POPC   GL130205   6.663  37.692   8.855
 7781POPC   GL230206   6.796  37.642   8.855
 7781POPC   C1A30207   6.607  37.674   8.555
 7781POPC   D2A30208   6.674  37.695   8.255
 7781POPC   C3A30209   6.609  37.676   7.955
 7781POPC   C4A30210   6.640  37.706   7.655
 7781POPC   C1B30211   6.905  37.605   8.555
 7781POPC   C2B30212   6.896  37.570   8.255
 7781POPC   C3B30213   6.891  37.635   7.955
 7781POPC   C4B30214   6.838  37.612   7.655
 7782POPC   NC330215   3.582   8.175   9.455
 7782POPC   PO430216   3.500   8.217   9.155
 7782POPC   GL130217   3.584   8.152   8.855
 7782POPC   GL230218   3.500   8.026   8.855
 7782POPC   C1A30219   3.523   8.170   8.555
 7782POPC   D2A30220   3.536   8.202   8.255
 7782POPC   C3A30221   3.577   8.234   7.955
 7782POPC   C4A30222   3.565   8.202   7.655
 7782POPC   C1B30223   3.479   7.992   8.555
 7782POPC   C2B30224   3.475   7.902   8.255
 7782POPC   C3B30225   3.533   7.915   7.955
 7782POPC   C4B30226   3.473   7.987   7.655
 7783POPC   NC330227   5.830  40.765   9.455
 7783POPC   PO430228   5.821  40.745   9.155
 7783POPC   GL130229   5.851  40.740   8.855
 7783POPC   GL230230   5.857  40.947   8.855
 7783POPC   C1A30231   5.843  40.809   8.555
 7783POPC   D2A30232   5.891  40.758   8.255
 7783POPC   C3A30233   5.846  40.783   7.955
 7783POPC   C4A30234   5.901  40.806   7.655
 7783POPC   C1B30235   5.898  41.066   8.555
 7783POPC   C2B30236   5.859  41.059   8.255
 7783POPC   C3B30237   5.897  41.034   7.955
 7783POPC   C4B30238   5.880  41.063   7.655
 7784POPC   NC330239  40.797   1.236   9.455
 7784POPC   PO430240  40.825   1.242   9.155
 7784POPC   GL130241  40.736   1.168   8.855
 7784POPC   GL230242  40.621   1.235   8.855
 7784POPC   C1A30243  40.794   1.178   8.555
 7784POPC   D2A30244  40.822   1.214   8.255
 7784POPC   C3A30245  40.743   1.243   7.955
 7784POPC   C4A30246  40.820   1.179   7.655
 7784POPC   C1B30247  40.504   1.224   8.555
 7784POPC   C2B30248  40.574   1.212   8.255
 7784POPC   C3B30249  40.559   1.251   7.955
 7784POPC   C4B30250  40.506   1.288   7.655
 7785POPC   NC330251  36.888   2.732   9.455
 7785POPC   PO430252  36.874   2.789   9.155
 7785POPC   GL130253  36.881   2.720   8.855
 7785POPC   GL230254  36.758   2.848   8.855
 7785POPC   C1A30255  36.944   2.756   8.555
 7785POPC   D2A30256  36.863   2.783   8.255
 7785POPC   C3A30257  36.911   2.739   7.955
 7785POPC   C4A30258  36.856   2.803   7.655
 7785POPC   C1B30259  36.627   2.837   8.555
 7785POPC   C2B30260  36.688   2.860   8.255
 7785POPC   C3B30261  36.676   2.885   7.955
 7785POPC   C4B30262  36.706   2.820   7.655
 7786POPC   NC330263  25.228   1.952   9.455
 7786POPC   PO430264  25.300   2.024   9.155
 7786POPC   GL130265  25.222   2.017   8.855
 7786POPC   GL230266  25.408   2.035   8.855
 7786POPC   C1A30267  25.280   1.985   8.555
 7786POPC   D2A30268  25.228   1.940   8.255
 7786POPC   C3A30269  25.277   1.965   7.955
 7786POPC   C4A30270  25.285   1.985   7.655
 7786POPC   C1B30271  25.480   2.125   8.555
 7786POPC   C2B30272  25.477   2.150   8.255
 7786POPC   C3B30273  25.429   2.134   7.955
 7786POPC   C4B30274  25.500   2.110   7.655
 7787POPC   NC330275  37.657  43.152   9.455
 7787POPC   PO430276  37.692  43.089   9.155
 7787POPC   GL130277  37.633  43.085   8.855
 7787POPC   GL230278  37.696  43.020   8.855
 7787POPC   C1A30279  37.651  43.131   8.555
 7787POPC   D2A30280  37.666  43.160   8.255
 7787POPC   C3A30281  37.711  43.145   7.955
 7787POPC   C4A30282  37.677  43.109   7.655
 7787POPC   C1B30283  37.573  42.859   8.555
 7787POPC   C2B30284  37.586  42.823   8.255
 7787POPC   C3B30285  37.609  42.829   7.955
 7787POPC   C4B30286  37.657  42.819   7.655
 7788POPC   NC330287  26.808   3.501   9.455
 7788POPC   PO430288  26.832   3.538   9.155
 7788POPC   GL130289  26.796   3.562   8.855
 7788POPC   GL230290  26.901   3.468   8.855
 7788POPC   C1A30291  26.843   3.557   8.555
 7788POPC   D2A30292  26.826   3.540   8.255
 7788POPC   C3A30293  26.810   3.541   7.955
 7788POPC   C4A30294  26.772   3.505   7.655
 7788POPC   C1B30295  27.020   3.383   8.555
 7788POPC   C2B30296  27.004   3.410   8.255
 7788POPC   C3B30297  27.027   3.358   7.955
 7788POPC   C4B30298  27.048   3.422   7.655
 7789POPC   NC330299   3.564  33.843   9.455
 7789POPC   PO430300   3.535  33.778   9.155
 7789POPC   GL130301   3.556  33.836   8.855
 7789POPC   GL230302   3.435  33.914   8.855
 7789POPC   C1A30303   3.558  33.763   8.555
 7789POPC   D2A30304   3.558  33.842   8.255
 7789POPC   C3A30305   3.570  33.766   7.955
 7789POPC   C4A30306   3.569  33.786   7.655
 7789POPC   C1B30307   3.443  34.006   8.555
 7789POPC   C2B30308   3.437  34.054   8.255
 7789POPC   C3B30309   3.409  33.971   7.955
 7789POPC   C4B30310   3.390  33.975   7.655
 7790POPC   NC330311  29.095   0.398   9.455
 7790POPC   PO430312  29.162   0.429   9.155
 7790POPC   GL130313  29.187   0.406   8.855
 7790POPC   GL230314  29.156   0.315   8.855
 7790POPC   C1A30315  29.148   0.411   8.555
 7790POPC   D2A30316  29.096   0.407   8.255
 7790POPC   C3A30317  29.173   0.419   7.955
 7790POPC   C4A30318  29.115   0.475   7.655
 7790POPC   C1B30319  29.065   0.163   8.555
 7790POPC   C2B30320  29.096   0.156   8.255
 7790POPC   C3B30321  29.110   0.150   7.955
 7790POPC   C4B30322  29.076   0.154   7.655
 7791POPC   NC330323  15.214  33.802   9.455
 7791POPC   PO430324  15.166  33.794   9.155
 7791POPC   GL130325  15.176  33.780   8.855
 7791POPC   GL230326  15.267  33.731   8.855
 7791POPC   C1A30327  15.174  33.813   8.555
 7791POPC   D2A30328  15.149  33.786   8.255
 7791POPC   C3A30329  15.147  33.761   7.955
 7791POPC   C4A30330  15.164  33.751   7.655
 7791POPC   C1B30331  15.427  33.647   8.555
 7791POPC   C2B30332  15.409  33.629   8.255
 7791POPC   C3B30333  15.437  33.685   7.955
 7791POPC   C4B30334  15.349  33.718   7.655
 7792POPC   NC330335  42.306   5.908   9.455
 7792POPC   PO430336  42.337   5.827   9.155
 7792POPC   GL130337  42.339   5.828   8.855
 7792POPC   GL230338  42.300   5.741   8.855
 7792POPC   C1A30339  42.327   5.916   8.555
 7792POPC   D2A30340  42.338   5.828   8.255
 7792POPC   C3A30341  42.340   5.875   7.955
 7792POPC   C4A30342  42.314   5.881   7.655
 7792POPC   C1B30343  42.264   5.667   8.555
 7792POPC   C2B30344  42.334   5.643   8.255
 7792POPC   C3B30345  42.244   5.574   7.955
 7792POPC   C4B30346  42.255   5.578   7.655
 7793POPC   NC330347  26.056  30.673   9.455
 7793POPC   PO430348  26.074  30.651   9.155
 7793POPC   GL130349  26.022  30.706   8.855
 7793POPC   GL230350  25.918  30.847   8.855
 7793POPC   C1A30351  26.076  30.718   8.555
 7793POPC   D2A30352  26.069  30.661   8.255
 7793POPC   C3A30353  26.082  30.721   7.955
 7793POPC   C4A30354  26.065  30.691   7.655
 7793POPC   C1B30355  25.934  30.851   8.555
 7793POPC   C2B30356  25.932  30.898   8.255
 7793POPC   C3B30357  25.892  30.921   7.955
 7793POPC   C4B30358  25.921  30.910   7.655
 7794POPC   NC330359  15.988  24.514   9.455
 7794POPC   PO430360  15.986  24.505   9.155
 7794POPC   GL130361  15.917  24.489   8.855
 7794POPC   GL230362  15.862  24.545   8.855
 7794POPC   C1A30363  15.961  24.495   8.555
 7794POPC   D2A30364  15.968  24.443   8.255
 7794POPC   C3A30365  15.968  24.468   7.955
 7794POPC   C4A30366  15.983  24.461   7.655
 7794POPC   C1B30367  15.702  24.561   8.555
 7794POPC   C2B30368  15.728  24.555   8.255
 7794POPC   C3B30369  15.702  24.564   7.955
 7794POPC   C4B30370  15.732  24.575   7.655
 7795POPC   NC330371  23.725   4.324   9.455
 7795POPC   PO430372  23.703   4.347   9.155
 7795POPC   GL130373  23.693   4.304   8.855
 7795POPC   GL230374  23.742   4.155   8.855
 7795POPC   C1A30375  23.753   4.321   8.555
 7795POPC   D2A30376  23.721   4.312   8.255
 7795POPC   C3A30377  23.710   4.310   7.955
 7795POPC   C4A30378  23.715   4.347   7.655
 7795POPC   C1B30379  23.695   4.026   8.555
 7795POPC   C2B30380  23.697   4.058   8.255
 7795POPC   C3B30381  23.747   4.103   7.955
 7795POPC   C4B30382  23.769   4.053   7.655
 7796POPC   NC330383  39.973  18.251   9.455
 7796POPC   PO430384  39.957  18.285   9.155
 7796POPC   GL130385  40.041  18.234   8.855
 7796POPC   GL230386  40.065  18.364   8.855
 7796POPC   C1A30387  40.040  18.317   8.555
 7796POPC   D2A30388  39.998  18.311   8.255
 7796POPC   C3A30389  40.009  18.261   7.955
 7796POPC   C4A30390  40.003  18.266   7.655
 7796POPC   C1B30391  40.146  18.470   8.555
 7796POPC   C2B30392  40.090  18.515   8.255
 7796POPC   C3B30393  40.140  18.541   7.955
 7796POPC   C4B30394  40.151  18.544   7.655
 7797POPC   NC330395  41.542  16.682   9.455
 7797POPC   PO430396  41.579  16.754   9.155
 7797POPC   GL130397  41.539  16.695   8.855
 7797POPC   GL230398  41.715  16.677   8.855
 7797POPC   C1A30399  41.578  16.753   8.555
 7797POPC   D2A30400  41.552  16.719   8.255
 7797POPC   C3A30401  41.560  16.739   7.955
 7797POPC   C4A30402  41.520  16.683   7.655
 7797POPC   C1B30403  41.756  16.596   8.555
 7797POPC   C2B30404  41.739  16.599   8.255
 7797POPC   C3B30405  41.754  16.615   7.955
 7797POPC   C4B30406  41.821  16.665   7.655
 7798POPC   NC330407  43.848  32.230   9.455
 7798POPC   PO430408  43.928  32.222   9.155
 7798POPC   GL130409  43.936  32.245   8.855
 7798POPC   GL230410  43.994  32.355   8.855
 7798POPC   C1A30411  43.924  32.247   8.555
 7798POPC   D2A30412  43.907  32.244   8.255
 7798POPC   C3A30413  43.851  32.246   7.955
 7798POPC   C4A30414  43.856  32.263   7.655
 7798POPC   C1B30415  44.019  32.430   8.555
 7798POPC   C2B30416  44.054  32.410   8.255
 7798POPC   C3B30417  44.072  32.473   7.955
 7798POPC   C4B30418  44.099  32.449   7.655
 7799POPC   NC330419  36.102  33.056   9.455
 7799POPC   PO430420  36.150  33.064   9.155
 7799POPC   GL130421  36.148  33.060   8.855
 7799POPC   GL230422  36.205  32.997   8.855
 7799POPC   C1A30423  36.168  33.001   8.555
 7799POPC   D2A30424  36.158  33.027   8.255
 7799POPC   C3A30425  36.081  32.999   7.955
 7799POPC   C4A30426  36.135  33.053   7.655
 7799POPC   C1B30427  36.355  33.051   8.555
 7799POPC   C2B30428  36.346  33.047   8.255
 7799POPC   C3B30429  36.373  33.031   7.955
 7799POPC   C4B30430  36.354  33.065   7.655
 7800POPC   NC330431  26.025  44.654   9.455
 7800POPC   PO430432  25.998  44.649   9.155
 7800POPC   GL130433  26.066  44.653   8.855
 7800POPC   GL230434  25.984  44.567   8.855
 7800POPC   C1A30435  26.076  44.663   8.555
 7800POPC   D2A30436  26.007  44.633   8.255
 7800POPC   C3A30437  26.015  44.653   7.955
 7800POPC   C4A30438  26.077  44.708   7.655
 7800POPC   C1B30439  25.905  44.501   8.555
 7800POPC   C2B30440  25.830  44.454   8.255
 7800POPC   C3B30441  25.841  44.454   7.955
 7800POPC   C4B30442  25.880  44.526   7.655
 7801POPC   NC330443  32.256   1.950   9.455
 7801POPC   PO430444  32.271   1.990   9.155
 7801POPC   GL130445  32.235   2.021   8.855
 7801POPC   GL230446  32.234   2.067   8.855
 7801POPC   C1A30447  32.294   1.984   8.555
 7801POPC   D2A30448  32.244   1.950   8.255
 7801POPC   C3A30449  32.237   1.956   7.955
 7801POPC   C4A30450  32.205   2.004   7.655
 7801POPC   C1B30451  32.241   2.207   8.555
 7801POPC   C2B30452  32.211   2.214   8.255
 7801POPC   C3B30453  32.259   2.232   7.955
 7801POPC   C4B30454  32.195   2.233   7.655
 7802POPC   NC330455   1.180  40.750   9.455
 7802POPC   PO430456   1.193  40.796   9.155
 7802POPC   GL130457   1.226  40.813   8.855
 7802POPC   GL230458   1.333  40.792   8.855
 7802POPC   C1A30459   1.213  40.810   8.555
 7802POPC   D2A30460   1.180  40.760   8.255
 7802POPC   C3A30461   1.207  40.803   7.955
 7802POPC   C4A30462   1.263  40.819   7.655
 7802POPC   C1B30463   1.394  40.931   8.555
 7802POPC   C2B30464   1.394  40.856   8.255
 7802POPC   C3B30465   1.441  40.883   7.955
 7802POPC   C4B30466   1.435  40.920   7.655
 7803POPC   NC330467  20.632  15.146   9.455
 7803POPC   PO430468  20.584  15.138   9.155
 7803POPC   GL130469  20.595  15.140   8.855
 7803POPC   GL230470  20.534  15.066   8.855
 7803POPC   C1A30471  20.656  15.184   8.555
 7803POPC   D2A30472  20.623  15.144   8.255
 7803POPC   C3A30473  20.634  15.195   7.955
 7803POPC   C4A30474  20.584  15.174   7.655
 7803POPC   C1B30475  20.544  14.909   8.555
 7803POPC   C2B30476  20.538  14.952   8.255
 7803POPC   C3B30477  20.561  14.957   7.955
 7803POPC   C4B30478  20.524  14.899   7.655
 7804POPC   NC330479  16.765   0.414   9.455
 7804POPC   PO430480  16.762   0.414   9.155
 7804POPC   GL130481  16.780   0.438   8.855
 7804POPC   GL230482  16.882   0.520   8.855
 7804POPC   C1A30483  16.775   0.397   8.555
 7804POPC   D2A30484  16.707   0.431   8.255
 7804POPC   C3A30485  16.696   0.407   7.955
 7804POPC   C4A30486  16.706   0.480   7.655
 7804POPC   C1B30487  16.941   0.479   8.555
 7804POPC   C2B30488  17.009   0.484   8.255
 7804POPC   C3B30489  16.989   0.527   7.955
 7804POPC   C4B30490  16.934   0.523   7.655
 7805POPC   NC330491  17.466   2.039   9.455
 7805POPC   PO430492  17.549   2.023   9.155
 7805POPC   GL130493  17.481   2.005   8.855
 7805POPC   GL230494  17.402   2.017   8.855
 7805POPC   C1A30495  17.468   1.948   8.555
 7805POPC   D2A30496  17.473   1.947   8.255
 7805POPC   C3A30497  17.548   2.026   7.955
 7805POPC   C4A30498  17.507   2.038   7.655
 7805POPC   C1B30499  17.293   2.006   8.555
 7805POPC   C2B30500  17.212   2.026   8.255
 7805POPC   C3B30501  17.216   1.961   7.955
 7805POPC   C4B30502  17.250   2.023   7.655
 7806POPC   NC330503  14.354  15.948   9.455
 7806POPC   PO430504  14.423  15.947   9.155
 7806POPC   GL130505  14.438  16.005   8.855
 7806POPC   GL230506  14.465  15.904   8.855
 7806POPC   C1A30507  14.367  15.976   8.555
 7806POPC   D2A30508  14.373  15.977   8.255
 7806POPC   C3A30509  14.398  15.913   7.955
 7806POPC   C4A30510  14.408  15.937   7.655
 7806POPC   C1B30511  14.546  15.797   8.555
 7806POPC   C2B30512  14.562  15.737   8.255
 7806POPC   C3B30513  14.593  15.781   7.955
 7806POPC   C4B30514  14.522  15.792   7.655
 7807POPC   NC330515  12.027  32.279   9.455
 7807POPC   PO430516  12.036  32.263   9.155
 7807POPC   GL130517  12.058  32.247   8.855
 7807POPC   GL230518  12.176  32.190   8.855
 7807POPC   C1A30519  12.056  32.200   8.555
 7807POPC   D2A30520  12.102  32.295   8.255
 7807POPC   C3A30521  12.047  32.275   7.955
 7807POPC   C4A30522  12.083  32.213   7.655
 7807POPC   C1B30523  12.185  32.011   8.555
 7807POPC   C2B30524  12.232  32.063   8.255
 7807POPC   C3B30525  12.235  32.079   7.955
 7807POPC   C4B30526  12.231  32.033   7.655
 7808POPC   NC330527  42.370  29.159   9.455
 7808POPC   PO430528  42.382  29.139   9.155
 7808POPC   GL130529  42.324  29.164   8.855
 7808POPC   GL230530  42.447  29.096   8.855
 7808POPC   C1A30531  42.305  29.171   8.555
 7808POPC   D2A30532  42.380  29.130   8.255
 7808POPC   C3A30533  42.355  29.147   7.955
 7808POPC   C4A30534  42.350  29.172   7.655
 7808POPC   C1B30535  42.579  29.041   8.555
 7808POPC   C2B30536  42.560  28.997   8.255
 7808POPC   C3B30537  42.525  29.051   7.955
 7808POPC   C4B30538  42.555  29.040   7.655
 7809POPC   NC330539  40.028  33.838   9.455
 7809POPC   PO430540  40.002  33.811   9.155
 7809POPC   GL130541  40.040  33.814   8.855
 7809POPC   GL230542  39.890  33.801   8.855
 7809POPC   C1A30543  39.958  33.806   8.555
 7809POPC   D2A30544  40.045  33.826   8.255
 7809POPC   C3A30545  39.997  33.773   7.955
 7809POPC   C4A30546  40.017  33.804   7.655
 7809POPC   C1B30547  39.782  33.755   8.555
 7809POPC   C2B30548  39.788  33.704   8.255
 7809POPC   C3B30549  39.785  33.738   7.955
 7809POPC   C4B30550  39.804  33.719   7.655
 7810POPC   NC330551  17.529  20.600   9.455
 7810POPC   PO430552  17.503  20.562   9.155
 7810POPC   GL130553  17.503  20.605   8.855
 7810POPC   GL230554  17.658  20.580   8.855
 7810POPC   C1A30555  17.463  20.624   8.555
 7810POPC   D2A30556  17.533  20.645   8.255
 7810POPC   C3A30557  17.487  20.575   7.955
 7810POPC   C4A30558  17.473  20.654   7.655
 7810POPC   C1B30559  17.770  20.502   8.555
 7810POPC   C2B30560  17.705  20.557   8.255
 7810POPC   C3B30561  17.690  20.520   7.955
 7810POPC   C4B30562  17.739  20.486   7.655
 7811POPC   NC330563  36.953  30.662   9.455
 7811POPC   PO430564  36.883  30.721   9.155
 7811POPC   GL130565  36.941  30.655   8.855
 7811POPC   GL230566  36.879  30.797   8.855
 7811POPC   C1A30567  36.870  30.690   8.555
 7811POPC   D2A30568  36.855  30.650   8.255
 7811POPC   C3A30569  36.907  30.660   7.955
 7811POPC   C4A30570  36.918  30.745   7.655
 7811POPC   C1B30571  36.887  30.993   8.555
 7811POPC   C2B30572  36.885  30.976   8.255
 7811POPC   C3B30573  36.900  30.904   7.955
 7811POPC   C4B30574  36.936  30.935   7.655
 7812POPC   NC330575  25.291   5.912   9.455
 7812POPC   PO430576  25.303   5.878   9.155
 7812POPC   GL130577  25.271   5.876   8.855
 7812POPC   GL230578  25.190   5.968   8.855
 7812POPC   C1A30579  25.312   5.902   8.555
 7812POPC   D2A30580  25.306   5.863   8.255
 7812POPC   C3A30581  25.241   5.844   7.955
 7812POPC   C4A30582  25.221   5.873   7.655
 7812POPC   C1B30583  25.098   6.023   8.555
 7812POPC   C2B30584  25.088   6.078   8.255
 7812POPC   C3B30585  25.138   6.048   7.955
 7812POPC   C4B30586  25.126   6.061   7.655
 7813POPC   NC330587  33.033   0.405   9.455
 7813POPC   PO430588  33.038   0.427   9.155
 7813POPC   GL130589  33.014   0.485   8.855
 7813POPC   GL230590  33.088   0.400   8.855
 7813POPC   C1A30591  33.028   0.452   8.555
 7813POPC   D2A30592  33.034   0.435   8.255
 7813POPC   C3A30593  33.068   0.474   7.955
 7813POPC   C4A30594  33.042   0.390   7.655
 7813POPC   C1B30595  33.169   0.253   8.555
 7813POPC   C2B30596  33.244   0.275   8.255
 7813POPC   C3B30597  33.232   0.268   7.955
 7813POPC   C4B30598  33.197   0.312   7.655
 7814POPC   NC330599  32.979  10.543   9.455
 7814POPC   PO430600  33.058  10.514   9.155
 7814POPC   GL130601  33.018  10.483   8.855
 7814POPC   GL230602  33.175  10.465   8.855
 7814POPC   C1A30603  33.068  10.499   8.555
 7814POPC   D2A30604  33.052  10.495   8.255
 7814POPC   C3A30605  32.981  10.489   7.955
 7814POPC   C4A30606  32.980  10.531   7.655
 7814POPC   C1B30607  33.291  10.465   8.555
 7814POPC   C2B30608  33.310  10.501   8.255
 7814POPC   C3B30609  33.263  10.490   7.955
 7814POPC   C4B30610  33.280  10.466   7.655
 7815POPC   NC330611  36.857   1.199   9.455
 7815POPC   PO430612  36.867   1.215   9.155
 7815POPC   GL130613  36.900   1.241   8.855
 7815POPC   GL230614  37.029   1.093   8.855
 7815POPC   C1A30615  36.895   1.172   8.555
 7815POPC   D2A30616  36.940   1.204   8.255
 7815POPC   C3A30617  36.914   1.261   7.955
 7815POPC   C4A30618  36.912   1.206   7.655
 7815POPC   C1B30619  37.111   1.088   8.555
 7815POPC   C2B30620  37.065   1.062   8.255
 7815POPC   C3B30621  37.093   1.017   7.955
 7815POPC   C4B30622  37.058   1.061   7.655
 7816POPC   NC330623  37.634   3.539   9.455
 7816POPC   PO430624  37.652   3.559   9.155
 7816POPC   GL130625  37.710   3.559   8.855
 7816POPC   GL230626  37.736   3.430   8.855
 7816POPC   C1A30627  37.658   3.547   8.555
 7816POPC   D2A30628  37.667   3.558   8.255
 7816POPC   C3A30629  37.652   3.499   7.955
 7816POPC   C4A30630  37.671   3.523   7.655
 7816POPC   C1B30631  37.815   3.314   8.555
 7816POPC   C2B30632  37.886   3.347   8.255
 7816POPC   C3B30633  37.811   3.342   7.955
 7816POPC   C4B30634  37.819   3.336   7.655
 7817POPC   NC330635   1.219  37.716   9.455
 7817POPC   PO430636   1.176  37.640   9.155
 7817POPC   GL130637   1.256  37.638   8.855
 7817POPC   GL230638   1.082  37.615   8.855
 7817POPC   C1A30639   1.237  37.636   8.555
 7817POPC   D2A30640   1.235  37.676   8.255
 7817POPC   C3A30641   1.187  37.692   7.955
 7817POPC   C4A30642   1.175  37.713   7.655
 7817POPC   C1B30643   1.076  37.541   8.555
 7817POPC   C2B30644   1.012  37.472   8.255
 7817POPC   C3B30645   1.062  37.533   7.955
 7817POPC   C4B30646   1.000  37.506   7.655
 7818POPC   NC330647  20.582  18.243   9.455
 7818POPC   PO430648  20.575  18.326   9.155
 7818POPC   GL130649  20.581  18.318   8.855
 7818POPC   GL230650  20.673  18.214   8.855
 7818POPC   C1A30651  20.596  18.297   8.555
 7818POPC   D2A30652  20.570  18.295   8.255
 7818POPC   C3A30653  20.590  18.235   7.955
 7818POPC   C4A30654  20.608  18.287   7.655
 7818POPC   C1B30655  20.784  18.139   8.555
 7818POPC   C2B30656  20.754  18.102   8.255
 7818POPC   C3B30657  20.789  18.168   7.955
 7818POPC   C4B30658  20.848  18.169   7.655
 7819POPC   NC330659   1.224  33.816   9.455
 7819POPC   PO430660   1.182  33.821   9.155
 7819POPC   GL130661   1.228  33.800   8.855
 7819POPC   GL230662   1.098  33.846   8.855
 7819POPC   C1A30663   1.261  33.837   8.555
 7819POPC   D2A30664   1.230  33.832   8.255
 7819POPC   C3A30665   1.202  33.842   7.955
 7819POPC   C4A30666   1.169  33.822   7.655
 7819POPC   C1B30667   1.036  33.889   8.555
 7819POPC   C2B30668   0.959  33.963   8.255
 7819POPC   C3B30669   1.021  33.890   7.955
 7819POPC   C4B30670   0.979  33.888   7.655
 7820POPC   NC330671  43.909  10.537   9.455
 7820POPC   PO430672  43.866  10.573   9.155
 7820POPC   GL130673  43.923  10.546   8.855
 7820POPC   GL230674  43.766  10.613   8.855
 7820POPC   C1A30675  43.915  10.477   8.555
 7820POPC   D2A30676  43.933  10.493   8.255
 7820POPC   C3A30677  43.860  10.539   7.955
 7820POPC   C4A30678  43.926  10.548   7.655
 7820POPC   C1B30679  43.699  10.698   8.555
 7820POPC   C2B30680  43.705  10.700   8.255
 7820POPC   C3B30681  43.702  10.696   7.955
 7820POPC   C4B30682  43.744  10.682   7.655
 7821POPC   NC330683  25.301   6.631   9.455
 7821POPC   PO430684  25.245   6.682   9.155
 7821POPC   GL130685  25.290   6.598   8.855
 7821POPC   GL230686  25.227   6.728   8.855
 7821POPC   C1A30687  25.232   6.629   8.555
 7821POPC   D2A30688  25.280   6.649   8.255
 7821POPC   C3A30689  25.269   6.624   7.955
 7821POPC   C4A30690  25.264   6.674   7.655
 7821POPC   C1B30691  25.138   6.850   8.555
 7821POPC   C2B30692  25.140   6.907   8.255
 7821POPC   C3B30693  25.190   6.882   7.955
 7821POPC   C4B30694  25.214   6.832   7.655
 7822POPC   NC330695  34.562  12.044   9.455
 7822POPC   PO430696  34.546  12.051   9.155
 7822POPC   GL130697  34.616  12.073   8.855
 7822POPC   GL230698  34.561  11.959   8.855
 7822POPC   C1A30699  34.570  12.037   8.555
 7822POPC   D2A30700  34.597  12.092   8.255
 7822POPC   C3A30701  34.537  12.087   7.955
 7822POPC   C4A30702  34.563  12.077   7.655
 7822POPC   C1B30703  34.534  11.805   8.555
 7822POPC   C2B30704  34.491  11.784   8.255
 7822POPC   C3B30705  34.524  11.847   7.955
 7822POPC   C4B30706  34.494  11.823   7.655
 7823POPC   NC330707   4.284  12.103   9.455
 7823POPC   PO430708   4.360  12.038   9.155
 7823POPC   GL130709   4.286  12.047   8.855
 7823POPC   GL230710   4.389  12.162   8.855
 7823POPC   C1A30711   4.351  12.074   8.555
 7823POPC   D2A30712   4.271  12.090   8.255
 7823POPC   C3A30713   4.345  12.089   7.955
 7823POPC   C4A30714   4.361  12.111   7.655
 7823POPC   C1B30715   4.407  12.367   8.555
 7823POPC   C2B30716   4.420  12.338   8.255
 7823POPC   C3B30717   4.372  12.299   7.955
 7823POPC   C4B30718   4.346  12.296   7.655
 7824POPC   NC330719  11.292  22.908   9.455
 7824POPC   PO430720  11.278  22.890   9.155
 7824POPC   GL130721  11.256  22.956   8.855
 7824POPC   GL230722  11.260  22.805   8.855
 7824POPC   C1A30723  11.308  22.923   8.555
 7824POPC   D2A30724  11.281  22.923   8.255
 7824POPC   C3A30725  11.329  22.931   7.955
 7824POPC   C4A30726  11.276  22.949   7.655
 7824POPC   C1B30727  11.320  22.723   8.555
 7824POPC   C2B30728  11.284  22.659   8.255
 7824POPC   C3B30729  11.331  22.703   7.955
 7824POPC   C4B30730  11.292  22.668   7.655
 7825POPC   NC330731  31.431  16.778   9.455
 7825POPC   PO430732  31.470  16.777   9.155
 7825POPC   GL130733  31.431  16.696   8.855
 7825POPC   GL230734  31.551  16.673   8.855
 7825POPC   C1A30735  31.520  16.741   8.555
 7825POPC   D2A30736  31.445  16.690   8.255
 7825POPC   C3A30737  31.434  16.768   7.955
 7825POPC   C4A30738  31.490  16.755   7.655
 7825POPC   C1B30739  31.586  16.487   8.555
 7825POPC   C2B30740  31.629  16.549   8.255
 7825POPC   C3B30741  31.608  16.535   7.955
 7825POPC   C4B30742  31.668  16.504   7.655
 7826POPC   NC330743   1.993  18.259   9.455
 7826POPC   PO430744   1.961  18.261   9.155
 7826POPC   GL130745   1.941  18.293   8.855
 7826POPC   GL230746   1.980  18.415   8.855
 7826POPC   C1A30747   2.005  18.312   8.555
 7826POPC   D2A30748   2.039  18.285   8.255
 7826POPC   C3A30749   2.025  18.244   7.955
 7826POPC   C4A30750   1.988  18.326   7.655
 7826POPC   C1B30751   1.964  18.486   8.555
 7826POPC   C2B30752   1.980  18.534   8.255
 7826POPC   C3B30753   1.956  18.572   7.955
 7826POPC   C4B30754   1.897  18.576   7.655
 7827POPC   NC330755  38.481  36.897   9.455
 7827POPC   PO430756  38.498  36.888   9.155
 7827POPC   GL130757  38.421  36.949   8.855
 7827POPC   GL230758  38.582  36.853   8.855
 7827POPC   C1A30759  38.484  36.901   8.555
 7827POPC   D2A30760  38.444  36.857   8.255
 7827POPC   C3A30761  38.471  36.889   7.955
 7827POPC   C4A30762  38.414  36.890   7.655
 7827POPC   C1B30763  38.629  36.755   8.555
 7827POPC   C2B30764  38.675  36.746   8.255
 7827POPC   C3B30765  38.700  36.705   7.955
 7827POPC   C4B30766  38.617  36.760   7.655
 7828POPC   NC330767  43.879  15.227   9.455
 7828POPC   PO430768  43.850  15.147   9.155
 7828POPC   GL130769  43.843  15.198   8.855
 7828POPC   GL230770  43.791  15.089   8.855
 7828POPC   C1A30771  43.936  15.141   8.555
 7828POPC   D2A30772  43.924  15.138   8.255
 7828POPC   C3A30773  43.877  15.189   7.955
 7828POPC   C4A30774  43.860  15.146   7.655
 7828POPC   C1B30775  43.719  14.968   8.555
 7828POPC   C2B30776  43.729  15.015   8.255
 7828POPC   C3B30777  43.733  15.047   7.955
 7828POPC   C4B30778  43.696  14.997   7.655
 7829POPC   NC330779  40.017  15.221   9.455
 7829POPC   PO430780  39.998  15.225   9.155
 7829POPC   GL130781  40.019  15.192   8.855
 7829POPC   GL230782  40.140  15.182   8.855
 7829POPC   C1A30783  39.961  15.228   8.555
 7829POPC   D2A30784  39.958  15.201   8.255
 7829POPC   C3A30785  40.031  15.171   7.955
 7829POPC   C4A30786  39.962  15.204   7.655
 7829POPC   C1B30787  40.255  15.256   8.555
 7829POPC   C2B30788  40.231  15.256   8.255
 7829POPC   C3B30789  40.234  15.281   7.955
 7829POPC   C4B30790  40.215  15.239   7.655
 7830POPC   NC330791   1.247  19.108   9.455
 7830POPC   PO430792   1.235  19.069   9.155
 7830POPC   GL130793   1.179  19.035   8.855
 7830POPC   GL230794   1.344  19.052   8.855
 7830POPC   C1A30795   1.184  19.087   8.555
 7830POPC   D2A30796   1.247  19.083   8.255
 7830POPC   C3A30797   1.181  19.011   7.955
 7830POPC   C4A30798   1.195  19.052   7.655
 7830POPC   C1B30799   1.437  19.024   8.555
 7830POPC   C2B30800   1.496  19.031   8.255
 7830POPC   C3B30801   1.478  19.020   7.955
 7830POPC   C4B30802   1.455  19.007   7.655
 7831POPC   NC330803  42.315  43.910   9.455
 7831POPC   PO430804  42.313  43.855   9.155
 7831POPC   GL130805  42.300  43.901   8.855
 7831POPC   GL230806  42.370  43.804   8.855
 7831POPC   C1A30807  42.369  43.909   8.555
 7831POPC   D2A30808  42.344  43.867   8.255
 7831POPC   C3A30809  42.295  43.845   7.955
 7831POPC   C4A30810  42.311  43.898   7.655
 7831POPC   C1B30811  42.502  43.699   8.555
 7831POPC   C2B30812  42.439  43.684   8.255
 7831POPC   C3B30813  42.483  43.719   7.955
 7831POPC   C4B30814  42.514  43.664   7.655
 7832POPC   NC330815  27.631  24.507   9.455
 7832POPC   PO430816  27.549  24.445   9.155
 7832POPC   GL130817  27.548  24.528   8.855
 7832POPC   GL230818  27.603  24.409   8.855
 7832POPC   C1A30819  27.575  24.535   8.555
 7832POPC   D2A30820  27.558  24.500   8.255
 7832POPC   C3A30821  27.589  24.465   7.955
 7832POPC   C4A30822  27.572  24.529   7.655
 7832POPC   C1B30823  27.635  24.276   8.555
 7832POPC   C2B30824  27.617  24.210   8.255
 7832POPC   C3B30825  27.578  24.249   7.955
 7832POPC   C4B30826  27.597  24.289   7.655
 7833POPC   NC330827   8.213  42.381   9.455
 7833POPC   PO430828   8.155  42.366   9.155
 7833POPC   GL130829   8.220  42.374   8.855
 7833POPC   GL230830   8.205  42.183   8.855
 7833POPC   C1A30831   8.245  42.373   8.555
 7833POPC   D2A30832   8.174  42.303   8.255
 7833POPC   C3A30833   8.200  42.290   7.955
 7833POPC   C4A30834   8.218  42.374   7.655
 7833POPC   C1B30835   8.210  42.121   8.555
 7833POPC   C2B30836   8.197  42.125   8.255
 7833POPC   C3B30837   8.170  42.130   7.955
 7833POPC   C4B30838   8.172  42.075   7.655
 7834POPC   NC330839  39.241  44.641   9.455
 7834POPC   PO430840  39.253  44.646   9.155
 7834POPC   GL130841  39.186  44.621   8.855
 7834POPC   GL230842  39.302  44.550   8.855
 7834POPC   C1A30843  39.207  44.671   8.555
 7834POPC   D2A30844  39.244  44.680   8.255
 7834POPC   C3A30845  39.242  44.697   7.955
 7834POPC   C4A30846  39.219  44.693   7.655
 7834POPC   C1B30847  39.370  44.452   8.555
 7834POPC   C2B30848  39.419  44.521   8.255
 7834POPC   C3B30849  39.403  44.475   7.955
 7834POPC   C4B30850  39.455  44.512   7.655
 7835POPC   NC330851  29.143  29.968   9.455
 7835POPC   PO430852  29.124  29.961   9.155
 7835POPC   GL130853  29.119  29.882   8.855
 7835POPC   GL230854  29.099  29.817   8.855
 7835POPC   C1A30855  29.161  29.959   8.555
 7835POPC   D2A30856  29.177  29.948   8.255
 7835POPC   C3A30857  29.152  29.929   7.955
 7835POPC   C4A30858  29.119  29.909   7.655
 7835POPC   C1B30859  29.043  29.674   8.555
 7835POPC   C2B30860  29.009  29.700   8.255
 7835POPC   C3B30861  29.025  29.684   7.955
 7835POPC   C4B30862  28.982  29.670   7.655
 7836POPC   NC330863  43.883  29.949   9.455
 7836POPC   PO430864  43.888  29.882   9.155
 7836POPC   GL130865  43.868  29.908   8.855
 7836POPC   GL230866  44.011  29.867   8.855
 7836POPC   C1A30867  43.896  29.886   8.555
 7836POPC   D2A30868  43.924  29.929   8.255
 7836POPC   C3A30869  43.934  29.912   7.955
 7836POPC   C4A30870  43.871  29.944   7.655
 7836POPC   C1B30871  44.132  29.868   8.555
 7836POPC   C2B30872  44.095  29.861   8.255
 7836POPC   C3B30873  44.116  29.830   7.955
 7836POPC   C4B30874  44.108  29.917   7.655
 7837POPC   NC330875  11.325  26.061   9.455
 7837POPC   PO430876  11.270  26.043   9.155
 7837POPC   GL130877  11.293  26.086   8.855
 7837POPC   GL230878  11.419  25.979   8.855
 7837POPC   C1A30879  11.336  25.994   8.555
 7837POPC   D2A30880  11.336  26.025   8.255
 7837POPC   C3A30881  11.284  25.993   7.955
 7837POPC   C4A30882  11.256  26.014   7.655
 7837POPC   C1B30883  11.478  25.848   8.555
 7837POPC   C2B30884  11.446  25.844   8.255
 7837POPC   C3B30885  11.447  25.821   7.955
 7837POPC   C4B30886  11.417  25.843   7.655
 7838POPC   NC330887  12.830  23.709   9.455
 7838POPC   PO430888  12.840  23.691   9.155
 7838POPC   GL130889  12.868  23.750   8.855
 7838POPC   GL230890  12.896  23.813   8.855
 7838POPC   C1A30891  12.837  23.683   8.555
 7838POPC   D2A30892  12.901  23.751   8.255
 7838POPC   C3A30893  12.873  23.760   7.955
 7838POPC   C4A30894  12.839  23.720   7.655
 7838POPC   C1B30895  12.883  23.971   8.555
 7838POPC   C2B30896  12.870  23.924   8.255
 7838POPC   C3B30897  12.835  23.991   7.955
 7838POPC   C4B30898  12.903  23.943   7.655
 7839POPC   NC330899  43.094  13.654   9.455
 7839POPC   PO430900  43.095  13.627   9.155
 7839POPC   GL130901  43.158  13.612   8.855
 7839POPC   GL230902  43.022  13.791   8.855
 7839POPC   C1A30903  43.077  13.640   8.555
 7839POPC   D2A30904  43.065  13.589   8.255
 7839POPC   C3A30905  43.146  13.588   7.955
 7839POPC   C4A30906  43.119  13.586   7.655
 7839POPC   C1B30907  43.053  13.809   8.555
 7839POPC   C2B30908  43.055  13.888   8.255
 7839POPC   C3B30909  42.971  13.899   7.955
 7839POPC   C4B30910  42.999  13.867   7.655
 7840POPC   NC330911  21.369  26.848   9.455
 7840POPC   PO430912  21.420  26.838   9.155
 7840POPC   GL130913  21.436  26.810   8.855
 7840POPC   GL230914  21.472  26.762   8.855
 7840POPC   C1A30915  21.388  26.826   8.555
 7840POPC   D2A30916  21.427  26.849   8.255
 7840POPC   C3A30917  21.353  26.803   7.955
 7840POPC   C4A30918  21.397  26.806   7.655
 7840POPC   C1B30919  21.602  26.696   8.555
 7840POPC   C2B30920  21.643  26.708   8.255
 7840POPC   C3B30921  21.625  26.727   7.955
 7840POPC   C4B30922  21.645  26.755   7.655
 7841POPC   NC330923  35.391   2.007   9.455
 7841POPC   PO430924  35.387   1.950   9.155
 7841POPC   GL130925  35.363   1.979   8.855
 7841POPC   GL230926  35.277   2.028   8.855
 7841POPC   C1A30927  35.308   1.947   8.555
 7841POPC   D2A30928  35.331   2.036   8.255
 7841POPC   C3A30929  35.345   2.009   7.955
 7841POPC   C4A30930  35.392   2.029   7.655
 7841POPC   C1B30931  35.152   2.058   8.555
 7841POPC   C2B30932  35.117   2.034   8.255
 7841POPC   C3B30933  35.087   2.073   7.955
 7841POPC   C4B30934  35.156   2.061   7.655
 7842POPC   NC330935   5.094  11.310   9.455
 7842POPC   PO430936   5.073  11.347   9.155
 7842POPC   GL130937   5.122  11.313   8.855
 7842POPC   GL230938   5.085  11.178   8.855
 7842POPC   C1A30939   5.113  11.291   8.555
 7842POPC   D2A30940   5.053  11.277   8.255
 7842POPC   C3A30941   5.091  11.334   7.955
 7842POPC   C4A30942   5.122  11.262   7.655
 7842POPC   C1B30943   4.992  11.116   8.555
 7842POPC   C2B30944   5.025  11.085   8.255
 7842POPC   C3B30945   4.985  11.096   7.955
 7842POPC   C4B30946   4.998  11.101   7.655
 7843POPC   NC330947  28.389   8.162   9.455
 7843POPC   PO430948  28.419   8.186   9.155
 7843POPC   GL130949  28.348   8.177   8.855
 7843POPC   GL230950  28.455   8.072   8.855
 7843POPC   C1A30951  28.355   8.188   8.555
 7843POPC   D2A30952  28.359   8.185   8.255
 7843POPC   C3A30953  28.404   8.163   7.955
 7843POPC   C4A30954  28.336   8.162   7.655
 7843POPC   C1B30955  28.516   8.018   8.555
 7843POPC   C2B30956  28.560   8.012   8.255
 7843POPC   C3B30957  28.575   8.026   7.955
 7843POPC   C4B30958  28.569   7.961   7.655
 7844POPC   NC330959  19.804   1.980   9.455
 7844POPC   PO430960  19.808   2.016   9.155
 7844POPC   GL130961  19.867   2.015   8.855
 7844POPC   GL230962  19.699   1.920   8.855
 7844POPC   C1A30963  19.863   2.024   8.555
 7844POPC   D2A30964  19.851   2.022   8.255
 7844POPC   C3A30965  19.847   2.001   7.955
 7844POPC   C4A30966  19.845   1.959   7.655
 7844POPC   C1B30967  19.626   1.969   8.555
 7844POPC   C2B30968  19.586   1.877   8.255
 7844POPC   C3B30969  19.634   1.969   7.955
 7844POPC   C4B30970  19.590   1.905   7.655
 7845POPC   NC330971   7.384   2.717   9.455
 7845POPC   PO430972   7.462   2.749   9.155
 7845POPC   GL130973   7.434   2.801   8.855
 7845POPC   GL230974   7.446   2.608   8.855
 7845POPC   C1A30975   7.469   2.717   8.555
 7845POPC   D2A30976   7.413   2.746   8.255
 7845POPC   C3A30977   7.459   2.718   7.955
 7845POPC   C4A30978   7.393   2.748   7.655
 7845POPC   C1B30979   7.455   2.492   8.555
 7845POPC   C2B30980   7.511   2.571   8.255
 7845POPC   C3B30981   7.491   2.502   7.955
 7845POPC   C4B30982   7.494   2.535   7.655
 7846POPC   NC330983  28.385  27.594   9.455
 7846POPC   PO430984  28.402  27.567   9.155
 7846POPC   GL130985  28.352  27.576   8.855
 7846POPC   GL230986  28.422  27.670   8.855
 7846POPC   C1A30987  28.407  27.617   8.555
 7846POPC   D2A30988  28.414  27.601   8.255
 7846POPC   C3A30989  28.354  27.613   7.955
 7846POPC   C4A30990  28.347  27.607   7.655
 7846POPC   C1B30991  28.565  27.737   8.555
 7846POPC   C2B30992  28.539  27.760   8.255
 7846POPC   C3B30993  28.561  27.723   7.955
 7846POPC   C4B30994  28.518  27.751   7.655
 7847POPC   NC330995  31.491  32.247   9.455
 7847POPC   PO430996  31.465  32.236   9.155
 7847POPC   GL130997  31.469  32.270   8.855
 7847POPC   GL230998  31.353  32.366   8.855
 7847POPC   C1A30999  31.480  32.286   8.555
 7847POPC   D2A31000  31.433  32.288   8.255
 7847POPC   C3A31001  31.474  32.291   7.955
 7847POPC   C4A31002  31.429  32.240   7.655
 7847POPC   C1B31003  31.280  32.421   8.555
 7847POPC   C2B31004  31.320  32.418   8.255
 7847POPC   C3B31005  31.303  32.413   7.955
 7847POPC   C4B31006  31.276  32.421   7.655
 7848POPC   NC331007  19.800  15.188   9.455
 7848POPC   PO431008  19.881  15.175   9.155
 7848POPC   GL131009  19.879  15.184   8.855
 7848POPC   GL231010  19.696  15.150   8.855
 7848POPC   C1A31011  19.787  15.198   8.555
 7848POPC   D2A31012  19.818  15.135   8.255
 7848POPC   C3A31013  19.861  15.215   7.955
 7848POPC   C4A31014  19.786  15.161   7.655
 7848POPC   C1B31015  19.659  14.994   8.555
 7848POPC   C2B31016  19.595  15.081   8.255
 7848POPC   C3B31017  19.666  15.077   7.955
 7848POPC   C4B31018  19.633  15.019   7.655
 7849POPC   NC331019  33.789   5.141   9.455
 7849POPC   PO431020  33.829   5.142   9.155
 7849POPC   GL131021  33.779   5.096   8.855
 7849POPC   GL231022  33.946   5.064   8.855
 7849POPC   C1A31023  33.827   5.121   8.555
 7849POPC   D2A31024  33.830   5.137   8.255
 7849POPC   C3A31025  33.802   5.071   7.955
 7849POPC   C4A31026  33.822   5.095   7.655
 7849POPC   C1B31027  34.049   5.137   8.555
 7849POPC   C2B31028  34.038   5.121   8.255
 7849POPC   C3B31029  34.034   5.071   7.955
 7849POPC   C4B31030  34.060   5.117   7.655
 7850POPC   NC331031   8.212  40.002   9.455
 7850POPC   PO431032   8.198  40.013   9.155
 7850POPC   GL131033   8.148  40.025   8.855
 7850POPC   GL231034   8.369  40.022   8.855
 7850POPC   C1A31035   8.158  40.020   8.555
 7850POPC   D2A31036   8.206  39.966   8.255
 7850POPC   C3A31037   8.155  40.021   7.955
 7850POPC   C4A31038   8.211  40.012   7.655
 7850POPC   C1B31039   8.419  39.985   8.555
 7850POPC   C2B31040   8.478  40.042   8.255
 7850POPC   C3B31041   8.426  40.059   7.955
 7850POPC   C4B31042   8.439  40.047   7.655
 7851POPC   NC331043  28.374  13.596   9.455
 7851POPC   PO431044  28.416  13.668   9.155
 7851POPC   GL131045  28.343  13.621   8.855
 7851POPC   GL231046  28.301  13.725   8.855
 7851POPC   C1A31047  28.361  13.639   8.555
 7851POPC   D2A31048  28.334  13.582   8.255
 7851POPC   C3A31049  28.336  13.599   7.955
 7851POPC   C4A31050  28.403  13.626   7.655
 7851POPC   C1B31051  28.225  13.892   8.555
 7851POPC   C2B31052  28.243  13.823   8.255
 7851POPC   C3B31053  28.279  13.883   7.955
 7851POPC   C4B31054  28.284  13.846   7.655
 7852POPC   NC331055  22.188  39.239   9.455
 7852POPC   PO431056  22.170  39.241   9.155
 7852POPC   GL131057  22.181  39.256   8.855
 7852POPC   GL231058  22.040  39.243   8.855
 7852POPC   C1A31059  22.113  39.199   8.555
 7852POPC   D2A31060  22.122  39.266   8.255
 7852POPC   C3A31061  22.138  39.230   7.955
 7852POPC   C4A31062  22.155  39.181   7.655
 7852POPC   C1B31063  21.942  39.306   8.555
 7852POPC   C2B31064  21.913  39.346   8.255
 7852POPC   C3B31065  21.935  39.265   7.955
 7852POPC   C4B31066  21.911  39.322   7.655
 7853POPC   NC331067   2.001  15.943   9.455
 7853POPC   PO431068   1.989  15.908   9.155
 7853POPC   GL131069   1.975  15.962   8.855
 7853POPC   GL231070   2.019  15.819   8.855
 7853POPC   C1A31071   2.000  15.950   8.555
 7853POPC   D2A31072   2.003  15.934   8.255
 7853POPC   C3A31073   2.010  15.974   7.955
 7853POPC   C4A31074   2.012  15.964   7.655
 7853POPC   C1B31075   1.968  15.680   8.555
 7853POPC   C2B31076   1.930  15.715   8.255
 7853POPC   C3B31077   1.985  15.755   7.955
 7853POPC   C4B31078   1.933  15.743   7.655
 7854POPC   NC331079  43.149   6.621   9.455
 7854POPC   PO431080  43.137   6.674   9.155
 7854POPC   GL131081  43.133   6.636   8.855
 7854POPC   GL231082  42.972   6.610   8.855
 7854POPC   C1A31083  43.082   6.665   8.555
 7854POPC   D2A31084  43.089   6.652   8.255
 7854POPC   C3A31085  43.125   6.628   7.955
 7854POPC   C4A31086  43.141   6.635   7.655
 7854POPC   C1B31087  42.909   6.584   8.555
 7854POPC   C2B31088  42.887   6.636   8.255
 7854POPC   C3B31089  42.859   6.647   7.955
 7854POPC   C4B31090  42.823   6.624   7.655
 7855POPC   NC331091  26.060  26.032   9.455
 7855POPC   PO431092  26.085  26.043   9.155
 7855POPC   GL131093  26.042  25.997   8.855
 7855POPC   GL231094  25.877  26.037   8.855
 7855POPC   C1A31095  26.023  26.074   8.555
 7855POPC   D2A31096  26.075  26.045   8.255
 7855POPC   C3A31097  26.001  26.074   7.955
 7855POPC   C4A31098  26.071  26.082   7.655
 7855POPC   C1B31099  25.835  26.105   8.555
 7855POPC   C2B31100  25.756  26.077   8.255
 7855POPC   C3B31101  25.762  26.066   7.955
 7855POPC   C4B31102  25.792  26.078   7.655
 7856POPC   NC331103  20.629  13.619   9.455
 7856POPC   PO431104  20.607  13.658   9.155
 7856POPC   GL131105  20.650  13.585   8.855
 7856POPC   GL231106  20.598  13.522   8.855
 7856POPC   C1A31107  20.567  13.579   8.555
 7856POPC   D2A31108  20.632  13.619   8.255
 7856POPC   C3A31109  20.574  13.655   7.955
 7856POPC   C4A31110  20.561  13.594   7.655
 7856POPC   C1B31111  20.514  13.418   8.555
 7856POPC   C2B31112  20.514  13.419   8.255
 7856POPC   C3B31113  20.516  13.334   7.955
 7856POPC   C4B31114  20.564  13.362   7.655
 7857POPC   NC331115   3.548  12.819   9.455
 7857POPC   PO431116   3.533  12.853   9.155
 7857POPC   GL131117   3.587  12.840   8.855
 7857POPC   GL231118   3.410  12.905   8.855
 7857POPC   C1A31119   3.588  12.884   8.555
 7857POPC   D2A31120   3.534  12.868   8.255
 7857POPC   C3A31121   3.502  12.852   7.955
 7857POPC   C4A31122   3.517  12.814   7.655
 7857POPC   C1B31123   3.326  13.066   8.555
 7857POPC   C2B31124   3.407  13.075   8.255
 7857POPC   C3B31125   3.384  13.003   7.955
 7857POPC   C4B31126   3.336  12.986   7.655
 7858POPC   NC331127   1.246  29.097   9.455
 7858POPC   PO431128   1.239  29.117   9.155
 7858POPC   GL131129   1.249  29.184   8.855
 7858POPC   GL231130   1.305  29.106   8.855
 7858POPC   C1A31131   1.212  29.105   8.555
 7858POPC   D2A31132   1.199  29.150   8.255
 7858POPC   C3A31133   1.190  29.155   7.955
 7858POPC   C4A31134   1.197  29.146   7.655
 7858POPC   C1B31135   1.429  29.199   8.555
 7858POPC   C2B31136   1.502  29.132   8.255
 7858POPC   C3B31137   1.462  29.189   7.955
 7858POPC   C4B31138   1.489  29.189   7.655
 7859POPC   NC331139  42.319  34.565   9.455
 7859POPC   PO431140  42.379  34.614   9.155
 7859POPC   GL131141  42.292  34.620   8.855
 7859POPC   GL231142  42.415  34.469   8.855
 7859POPC   C1A31143  42.351  34.544   8.555
 7859POPC   D2A31144  42.296  34.613   8.255
 7859POPC   C3A31145  42.362  34.536   7.955
 7859POPC   C4A31146  42.357  34.577   7.655
 7859POPC   C1B31147  42.374  34.292   8.555
 7859POPC   C2B31148  42.364  34.341   8.255
 7859POPC   C3B31149  42.400  34.329   7.955
 7859POPC   C4B31150  42.415  34.302   7.655
 7860POPC   NC331151  36.896  33.025   9.455
 7860POPC   PO431152  36.877  33.020   9.155
 7860POPC   GL131153  36.880  33.009   8.855
 7860POPC   GL231154  36.938  32.902   8.855
 7860POPC   C1A31155  36.891  33.062   8.555
 7860POPC   D2A31156  36.884  33.008   8.255
 7860POPC   C3A31157  36.885  33.033   7.955
 7860POPC   C4A31158  36.922  32.984   7.655
 7860POPC   C1B31159  37.076  32.875   8.555
 7860POPC   C2B31160  37.095  32.874   8.255
 7860POPC   C3B31161  37.047  32.787   7.955
 7860POPC   C4B31162  37.117  32.795   7.655
 7861POPC   NC331163  10.506   1.949   9.455
 7861POPC   PO431164  10.494   1.952   9.155
 7861POPC   GL131165  10.533   2.006   8.855
 7861POPC   GL231166  10.464   2.124   8.855
 7861POPC   C1A31167  10.534   1.969   8.555
 7861POPC   D2A31168  10.488   2.036   8.255
 7861POPC   C3A31169  10.489   1.963   7.955
 7861POPC   C4A31170  10.510   2.040   7.655
 7861POPC   C1B31171  10.428   2.234   8.555
 7861POPC   C2B31172  10.421   2.263   8.255
 7861POPC   C3B31173  10.439   2.240   7.955
 7861POPC   C4B31174  10.409   2.196   7.655
 7862POPC   NC331175  34.554  29.135   9.455
 7862POPC   PO431176  34.544  29.132   9.155
 7862POPC   GL131177  34.590  29.159   8.855
 7862POPC   GL231178  34.560  29.009   8.855
 7862POPC   C1A31179  34.581  29.171   8.555
 7862POPC   D2A31180  34.567  29.181   8.255
 7862POPC   C3A31181  34.550  29.146   7.955
 7862POPC   C4A31182  34.527  29.178   7.655
 7862POPC   C1B31183  34.428  28.928   8.555
 7862POPC   C2B31184  34.443  28.931   8.255
 7862POPC   C3B31185  34.482  28.935   7.955
 7862POPC   C4B31186  34.462  28.883   7.655
 7863POPC   NC331187   3.499  12.092   9.455
 7863POPC   PO431188   3.569  12.085   9.155
 7863POPC   GL131189   3.562  12.113   8.855
 7863POPC   GL231190   3.543  11.979   8.855
 7863POPC   C1A31191   3.522  12.086   8.555
 7863POPC   D2A31192   3.555  12.060   8.255
 7863POPC   C3A31193   3.551  12.121   7.955
 7863POPC   C4A31194   3.514  12.056   7.655
 7863POPC   C1B31195   3.620  11.878   8.555
 7863POPC   C2B31196   3.598  11.859   8.255
 7863POPC   C3B31197   3.633  11.855   7.955
 7863POPC   C4B31198   3.572  11.800   7.655
 7864POPC   NC331199  20.570  21.421   9.455
 7864POPC   PO431200  20.575  21.337   9.155
 7864POPC   GL131201  20.616  21.413   8.855
 7864POPC   GL231202  20.702  21.288   8.855
 7864POPC   C1A31203  20.584  21.395   8.555
 7864POPC   D2A31204  20.598  21.430   8.255
 7864POPC   C3A31205  20.624  21.355   7.955
 7864POPC   C4A31206  20.562  21.369   7.655
 7864POPC   C1B31207  20.742  21.177   8.555
 7864POPC   C2B31208  20.667  21.134   8.255
 7864POPC   C3B31209  20.678  21.174   7.955
 7864POPC   C4B31210  20.667  21.124   7.655
 7865POPC   NC331211  27.572  29.167   9.455
 7865POPC   PO431212  27.565  29.161   9.155
 7865POPC   GL131213  27.631  29.123   8.855
 7865POPC   GL231214  27.515  29.046   8.855
 7865POPC   C1A31215  27.569  29.123   8.555
 7865POPC   D2A31216  27.626  29.115   8.255
 7865POPC   C3A31217  27.577  29.111   7.955
 7865POPC   C4A31218  27.584  29.171   7.655
 7865POPC   C1B31219  27.495  28.932   8.555
 7865POPC   C2B31220  27.504  28.927   8.255
 7865POPC   C3B31221  27.438  28.920   7.955
 7865POPC   C4B31222  27.464  28.918   7.655
 7866POPC   NC331223  27.582  13.645   9.455
 7866POPC   PO431224  27.551  13.653   9.155
 7866POPC   GL131225  27.625  13.662   8.855
 7866POPC   GL231226  27.709  13.570   8.855
 7866POPC   C1A31227  27.600  13.659   8.555
 7866POPC   D2A31228  27.562  13.647   8.255
 7866POPC   C3A31229  27.589  13.670   7.955
 7866POPC   C4A31230  27.602  13.594   7.655
 7866POPC   C1B31231  27.737  13.451   8.555
 7866POPC   C2B31232  27.776  13.422   8.255
 7866POPC   C3B31233  27.740  13.451   7.955
 7866POPC   C4B31234  27.758  13.420   7.655
 7867POPC   NC331235  40.052  37.648   9.455
 7867POPC   PO431236  39.965  37.723   9.155
 7867POPC   GL131237  40.038  37.642   8.855
 7867POPC   GL231238  40.033  37.531   8.855
 7867POPC   C1A31239  40.015  37.680   8.555
 7867POPC   D2A31240  40.006  37.644   8.255
 7867POPC   C3A31241  40.048  37.715   7.955
 7867POPC   C4A31242  40.016  37.684   7.655
 7867POPC   C1B31243  39.927  37.416   8.555
 7867POPC   C2B31244  39.972  37.411   8.255
 7867POPC   C3B31245  39.940  37.443   7.955
 7867POPC   C4B31246  39.945  37.473   7.655
 7868POPC   NC331247  43.894  34.615   9.455
 7868POPC   PO431248  43.876  34.574   9.155
 7868POPC   GL131249  43.900  34.562   8.855
 7868POPC   GL231250  43.743  34.511   8.855
 7868POPC   C1A31251  43.935  34.534   8.555
 7868POPC   D2A31252  43.869  34.532   8.255
 7868POPC   C3A31253  43.870  34.620   7.955
 7868POPC   C4A31254  43.908  34.607   7.655
 7868POPC   C1B31255  43.669  34.519   8.555
 7868POPC   C2B31256  43.673  34.535   8.255
 7868POPC   C3B31257  43.678  34.537   7.955
 7868POPC   C4B31258  43.683  34.478   7.655
 7869POPC   NC331259  42.365  23.699   9.455
 7869POPC   PO431260  42.302  23.701   9.155
 7869POPC   GL131261  42.290  23.680   8.855
 7869POPC   GL231262  42.414  23.607   8.855
 7869POPC   C1A31263  42.365  23.728   8.555
 7869POPC   D2A31264  42.319  23.693   8.255
 7869POPC   C3A31265  42.289  23.716   7.955
 7869POPC   C4A31266  42.364  23.707   7.655
 7869POPC   C1B31267  42.531  23.567   8.555
 7869POPC   C2B31268  42.556  23.561   8.255
 7869POPC   C3B31269  42.484  23.516   7.955
 7869POPC   C4B31270  42.461  23.508   7.655
 7870POPC   NC331271  30.687  11.305   9.455
 7870POPC   PO431272  30.743  11.286   9.155
 7870POPC   GL131273  30.691  11.280   8.855
 7870POPC   GL231274  30.816  11.251   8.855
 7870POPC   C1A31275  30.666  11.345   8.555
 7870POPC   D2A31276  30.746  11.331   8.255
 7870POPC   C3A31277  30.661  11.322   7.955
 7870POPC   C4A31278  30.683  11.344   7.655
 7870POPC   C1B31279  30.877  11.157   8.555
 7870POPC   C2B31280  30.870  11.125   8.255
 7870POPC   C3B31281  30.903  11.097   7.955
 7870POPC   C4B31282  30.834  11.092   7.655
 7871POPC   NC331283   9.735   1.950   9.455
 7871POPC   PO431284   9.756   1.996   9.155
 7871POPC   GL131285   9.758   2.028   8.855
 7871POPC   GL231286   9.822   2.112   8.855
 7871POPC   C1A31287   9.784   1.949   8.555
 7871POPC   D2A31288   9.780   1.962   8.255
 7871POPC   C3A31289   9.736   2.016   7.955
 7871POPC   C4A31290   9.759   1.976   7.655
 7871POPC   C1B31291   9.874   2.206   8.555
 7871POPC   C2B31292   9.863   2.238   8.255
 7871POPC   C3B31293   9.797   2.228   7.955
 7871POPC   C4B31294   9.846   2.200   7.655
 7872POPC   NC331295  28.349   3.547   9.455
 7872POPC   PO431296  28.324   3.503   9.155
 7872POPC   GL131297  28.371   3.573   8.855
 7872POPC   GL231298  28.285   3.694   8.855
 7872POPC   C1A31299  28.344   3.568   8.555
 7872POPC   D2A31300  28.397   3.513   8.255
 7872POPC   C3A31301  28.341   3.553   7.955
 7872POPC   C4A31302  28.370   3.501   7.655
 7872POPC   C1B31303  28.258   3.765   8.555
 7872POPC   C2B31304  28.280   3.826   8.255
 7872POPC   C3B31305  28.246   3.789   7.955
 7872POPC   C4B31306  28.298   3.798   7.655
 7873POPC   NC331307   9.711  13.617   9.455
 7873POPC   PO431308   9.756  13.600   9.155
 7873POPC   GL131309   9.707  13.591   8.855
 7873POPC   GL231310   9.607  13.583   8.855
 7873POPC   C1A31311   9.700  13.676   8.555
 7873POPC   D2A31312   9.784  13.605   8.255
 7873POPC   C3A31313   9.768  13.608   7.955
 7873POPC   C4A31314   9.759  13.612   7.655
 7873POPC   C1B31315   9.544  13.634   8.555
 7873POPC   C2B31316   9.502  13.680   8.255
 7873POPC   C3B31317   9.467  13.605   7.955
 7873POPC   C4B31318   9.517  13.605   7.655
 7874POPC   NC331319  14.407  37.678   9.455
 7874POPC   PO431320  14.400  37.698   9.155
 7874POPC   GL131321  14.411  37.693   8.855
 7874POPC   GL231322  14.497  37.583   8.855
 7874POPC   C1A31323  14.442  37.646   8.555
 7874POPC   D2A31324  14.416  37.630   8.255
 7874POPC   C3A31325  14.450  37.671   7.955
 7874POPC   C4A31326  14.423  37.638   7.655
 7874POPC   C1B31327  14.528  37.506   8.555
 7874POPC   C2B31328  14.478  37.432   8.255
 7874POPC   C3B31329  14.560  37.455   7.955
 7874POPC   C4B31330  14.535  37.451   7.655
 7875POPC   NC331331   6.671  11.349   9.455
 7875POPC   PO431332   6.618  11.334   9.155
 7875POPC   GL131333   6.656  11.261   8.855
 7875POPC   GL231334   6.554  11.447   8.855
 7875POPC   C1A31335   6.692  11.276   8.555
 7875POPC   D2A31336   6.615  11.320   8.255
 7875POPC   C3A31337   6.622  11.328   7.955
 7875POPC   C4A31338   6.614  11.329   7.655
 7875POPC   C1B31339   6.542  11.464   8.555
 7875POPC   C2B31340   6.529  11.549   8.255
 7875POPC   C3B31341   6.468  11.482   7.955
 7875POPC   C4B31342   6.526  11.532   7.655
 7876POPC   NC331343   0.415   7.413   9.455
 7876POPC   PO431344   0.484   7.426   9.155
 7876POPC   GL131345   0.443   7.470   8.855
 7876POPC   GL231346   0.479   7.485   8.855
 7876POPC   C1A31347   0.404   7.437   8.555
 7876POPC   D2A31348   0.439   7.436   8.255
 7876POPC   C3A31349   0.404   7.419   7.955
 7876POPC   C4A31350   0.483   7.400   7.655
 7876POPC   C1B31351   0.629   7.586   8.555
 7876POPC   C2B31352   0.613   7.565   8.255
 7876POPC   C3B31353   0.611   7.572   7.955
 7876POPC   C4B31354   0.591   7.656   7.655
 7877POPC   NC331355   2.034   7.384   9.455
 7877POPC   PO431356   2.009   7.468   9.155
 7877POPC   GL131357   1.968   7.435   8.855
 7877POPC   GL231358   2.015   7.358   8.855
 7877POPC   C1A31359   2.007   7.451   8.555
 7877POPC   D2A31360   1.999   7.444   8.255
 7877POPC   C3A31361   1.981   7.413   7.955
 7877POPC   C4A31362   1.973   7.458   7.655
 7877POPC   C1B31363   2.124   7.196   8.555
 7877POPC   C2B31364   2.119   7.218   8.255
 7877POPC   C3B31365   2.117   7.168   7.955
 7877POPC   C4B31366   2.113   7.165   7.655
 7878POPC   NC331367  25.231  12.824   9.455
 7878POPC   PO431368  25.305  12.839   9.155
 7878POPC   GL131369  25.303  12.817   8.855
 7878POPC   GL231370  25.372  12.868   8.855
 7878POPC   C1A31371  25.276  12.831   8.555
 7878POPC   D2A31372  25.268  12.892   8.255
 7878POPC   C3A31373  25.315  12.854   7.955
 7878POPC   C4A31374  25.262  12.820   7.655
 7878POPC   C1B31375  25.521  12.832   8.555
 7878POPC   C2B31376  25.498  12.812   8.255
 7878POPC   C3B31377  25.560  12.879   7.955
 7878POPC   C4B31378  25.499  12.804   7.655
 7879POPC   NC331379  30.715  28.364   9.455
 7879POPC   PO431380  30.728  28.352   9.155
 7879POPC   GL131381  30.671  28.393   8.855
 7879POPC   GL231382  30.772  28.516   8.855
 7879POPC   C1A31383  30.715  28.348   8.555
 7879POPC   D2A31384  30.659  28.351   8.255
 7879POPC   C3A31385  30.687  28.358   7.955
 7879POPC   C4A31386  30.666  28.405   7.655
 7879POPC   C1B31387  30.836  28.637   8.555
 7879POPC   C2B31388  30.833  28.650   8.255
 7879POPC   C3B31389  30.744  28.607   7.955
 7879POPC   C4B31390  30.832  28.565   7.655
 7880POPC   NC331391  26.771  28.388   9.455
 7880POPC   PO431392  26.843  28.369   9.155
 7880POPC   GL131393  26.848  28.377   8.855
 7880POPC   GL231394  26.678  28.307   8.855
 7880POPC   C1A31395  26.798  28.375   8.555
 7880POPC   D2A31396  26.839  28.363   8.255
 7880POPC   C3A31397  26.823  28.331   7.955
 7880POPC   C4A31398  26.825  28.380   7.655
 7880POPC   C1B31399  26.562  28.271   8.555
 7880POPC   C2B31400  26.633  28.243   8.255
 7880POPC   C3B31401  26.569  28.287   7.955
 7880POPC   C4B31402  26.603  28.285   7.655
 7881POPC   NC331403  23.695  32.992   9.455
 7881POPC   PO431404  23.670  33.028   9.155
 7881POPC   GL131405  23.685  33.027   8.855
 7881POPC   GL231406  23.639  33.078   8.855
 7881POPC   C1A31407  23.665  33.002   8.555
 7881POPC   D2A31408  23.703  33.072   8.255
 7881POPC   C3A31409  23.713  33.063   7.955
 7881POPC   C4A31410  23.747  33.066   7.655
 7881POPC   C1B31411  23.523  33.233   8.555
 7881POPC   C2B31412  23.521  33.185   8.255
 7881POPC   C3B31413  23.549  33.243   7.955
 7881POPC   C4B31414  23.502  33.185   7.655
 7882POPC   NC331415  32.266  10.490   9.455
 7882POPC   PO431416  32.278  10.568   9.155
 7882POPC   GL131417  32.278  10.475   8.855
 7882POPC   GL231418  32.213  10.672   8.855
 7882POPC   C1A31419  32.232  10.554   8.555
 7882POPC   D2A31420  32.247  10.514   8.255
 7882POPC   C3A31421  32.233  10.552   7.955
 7882POPC   C4A31422  32.215  10.523   7.655
 7882POPC   C1B31423  32.202  10.746   8.555
 7882POPC   C2B31424  32.265  10.798   8.255
 7882POPC   C3B31425  32.205  10.761   7.955
 7882POPC   C4B31426  32.196  10.730   7.655
 7883POPC   NC331427  39.969   2.764   9.455
 7883POPC   PO431428  40.030   2.756   9.155
 7883POPC   GL131429  39.991   2.815   8.855
 7883POPC   GL231430  39.938   2.664   8.855
 7883POPC   C1A31431  40.023   2.809   8.555
 7883POPC   D2A31432  39.981   2.731   8.255
 7883POPC   C3A31433  40.013   2.804   7.955
 7883POPC   C4A31434  40.054   2.766   7.655
 7883POPC   C1B31435  39.785   2.660   8.555
 7883POPC   C2B31436  39.791   2.639   8.255
 7883POPC   C3B31437  39.799   2.655   7.955
 7883POPC   C4B31438  39.785   2.689   7.655
 7884POPC   NC331439  39.238   5.850   9.455
 7884POPC   PO431440  39.247   5.821   9.155
 7884POPC   GL131441  39.229   5.863   8.855
 7884POPC   GL231442  39.225   5.780   8.855
 7884POPC   C1A31443  39.248   5.875   8.555
 7884POPC   D2A31444  39.248   5.893   8.255
 7884POPC   C3A31445  39.247   5.851   7.955
 7884POPC   C4A31446  39.194   5.873   7.655
 7884POPC   C1B31447  39.274   5.578   8.555
 7884POPC   C2B31448  39.268   5.620   8.255
 7884POPC   C3B31449  39.209   5.664   7.955
 7884POPC   C4B31450  39.273   5.620   7.655
 7885POPC   NC331451  18.294  41.551   9.455
 7885POPC   PO431452  18.270  41.577   9.155
 7885POPC   GL131453  18.322  41.591   8.855
 7885POPC   GL231454  18.188  41.425   8.855
 7885POPC   C1A31455  18.277  41.540   8.555
 7885POPC   D2A31456  18.316  41.567   8.255
 7885POPC   C3A31457  18.328  41.575   7.955
 7885POPC   C4A31458  18.254  41.512   7.655
 7885POPC   C1B31459  18.176  41.365   8.555
 7885POPC   C2B31460  18.118  41.385   8.255
 7885POPC   C3B31461  18.118  41.366   7.955
 7885POPC   C4B31462  18.115  41.366   7.655
 7886POPC   NC331463  34.538  39.219   9.455
 7886POPC   PO431464  34.576  39.237   9.155
 7886POPC   GL131465  34.583  39.263   8.855
 7886POPC   GL231466  34.627  39.118   8.855
 7886POPC   C1A31467  34.549  39.258   8.555
 7886POPC   D2A31468  34.599  39.216   8.255
 7886POPC   C3A31469  34.604  39.197   7.955
 7886POPC   C4A31470  34.601  39.230   7.655
 7886POPC   C1B31471  34.730  39.020   8.555
 7886POPC   C2B31472  34.685  39.002   8.255
 7886POPC   C3B31473  34.653  38.973   7.955
 7886POPC   C4B31474  34.648  38.982   7.655
 7887POPC   NC331475   4.279  15.976   9.455
 7887POPC   PO431476   4.338  15.933   9.155
 7887POPC   GL131477   4.313  15.992   8.855
 7887POPC   GL231478   4.375  15.788   8.855
 7887POPC   C1A31479   4.344  15.916   8.555
 7887POPC   D2A31480   4.279  15.960   8.255
 7887POPC   C3A31481   4.306  15.966   7.955
 7887POPC   C4A31482   4.319  15.969   7.655
 7887POPC   C1B31483   4.376  15.672   8.555
 7887POPC   C2B31484   4.432  15.694   8.255
 7887POPC   C3B31485   4.397  15.673   7.955
 7887POPC   C4B31486   4.428  15.724   7.655
 7888POPC   NC331487  31.455  29.095   9.455
 7888POPC   PO431488  31.511  29.096   9.155
 7888POPC   GL131489  31.446  29.192   8.855
 7888POPC   GL231490  31.488  29.034   8.855
 7888POPC   C1A31491  31.515  29.189   8.555
 7888POPC   D2A31492  31.463  29.164   8.255
 7888POPC   C3A31493  31.508  29.149   7.955
 7888POPC   C4A31494  31.481  29.178   7.655
 7888POPC   C1B31495  31.618  28.913   8.555
 7888POPC   C2B31496  31.607  28.885   8.255
 7888POPC   C3B31497  31.583  28.930   7.955
 7888POPC   C4B31498  31.563  28.918   7.655
 7889POPC   NC331499  34.571  27.589   9.455
 7889POPC   PO431500  34.531  27.624   9.155
 7889POPC   GL131501  34.624  27.564   8.855
 7889POPC   GL231502  34.675  27.620   8.855
 7889POPC   C1A31503  34.526  27.596   8.555
 7889POPC   D2A31504  34.599  27.590   8.255
 7889POPC   C3A31505  34.548  27.633   7.955
 7889POPC   C4A31506  34.619  27.589   7.655
 7889POPC   C1B31507  34.827  27.667   8.555
 7889POPC   C2B31508  34.806  27.643   8.255
 7889POPC   C3B31509  34.797  27.636   7.955
 7889POPC   C4B31510  34.862  27.642   7.655
 7890POPC   NC331511  37.645  29.874   9.455
 7890POPC   PO431512  37.687  29.940   9.155
 7890POPC   GL131513  37.680  29.907   8.855
 7890POPC   GL231514  37.597  29.838   8.855
 7890POPC   C1A31515  37.728  29.943   8.555
 7890POPC   D2A31516  37.721  29.903   8.255
 7890POPC   C3A31517  37.657  29.874   7.955
 7890POPC   C4A31518  37.698  29.953   7.655
 7890POPC   C1B31519  37.482  29.879   8.555
 7890POPC   C2B31520  37.449  29.834   8.255
 7890POPC   C3B31521  37.454  29.846   7.955
 7890POPC   C4B31522  37.395  29.873   7.655
 7891POPC   NC331523  43.906  44.620   9.455
 7891POPC   PO431524  43.842  44.636   9.155
 7891POPC   GL131525  43.888  44.637   8.855
 7891POPC   GL231526  43.872  44.750   8.855
 7891POPC   C1A31527  43.920  44.621   8.555
 7891POPC   D2A31528  43.924  44.639   8.255
 7891POPC   C3A31529  43.907  44.674   7.955
 7891POPC   C4A31530  43.857  44.687   7.655
 7891POPC   C1B31531  43.926  44.914   8.555
 7891POPC   C2B31532  43.977  44.908   8.255
 7891POPC   C3B31533  43.990  44.907   7.955
 7891POPC   C4B31534  43.938  44.889   7.655
 7892POPC   NC331535  42.361  10.479   9.455
 7892POPC   PO431536  42.332  10.485   9.155
 7892POPC   GL131537  42.334  10.550   8.855
 7892POPC   GL231538  42.357  10.615   8.855
 7892POPC   C1A31539  42.297  10.566   8.555
 7892POPC   D2A31540  42.287  10.557   8.255
 7892POPC   C3A31541  42.293  10.501   7.955
 7892POPC   C4A31542  42.381  10.500   7.655
 7892POPC   C1B31543  42.423  10.753   8.555
 7892POPC   C2B31544  42.473  10.745   8.255
 7892POPC   C3B31545  42.460  10.759   7.955
 7892POPC   C4B31546  42.493  10.775   7.655
 7893POPC   NC331547  23.674  23.676   9.455
 7893POPC   PO431548  23.666  23.710   9.155
 7893POPC   GL131549  23.687  23.686   8.855
 7893POPC   GL231550  23.752  23.581   8.855
 7893POPC   C1A31551  23.756  23.733   8.555
 7893POPC   D2A31552  23.675  23.716   8.255
 7893POPC   C3A31553  23.678  23.673   7.955
 7893POPC   C4A31554  23.750  23.727   7.655
 7893POPC   C1B31555  23.892  23.518   8.555
 7893POPC   C2B31556  23.830  23.543   8.255
 7893POPC   C3B31557  23.902  23.471   7.955
 7893POPC   C4B31558  23.847  23.531   7.655
 7894POPC   NC331559   9.781  30.665   9.455
 7894POPC   PO431560   9.698  30.716   9.155
 7894POPC   GL131561   9.778  30.683   8.855
 7894POPC   GL231562   9.788  30.837   8.855
 7894POPC   C1A31563   9.755  30.744   8.555
 7894POPC   D2A31564   9.740  30.716   8.255
 7894POPC   C3A31565   9.781  30.710   7.955
 7894POPC   C4A31566   9.762  30.709   7.655
 7894POPC   C1B31567   9.836  30.881   8.555
 7894POPC   C2B31568   9.867  30.967   8.255
 7894POPC   C3B31569   9.891  30.900   7.955
 7894POPC   C4B31570   9.840  30.960   7.655
 7895POPC   NC331571  29.934  19.823   9.455
 7895POPC   PO431572  29.959  19.878   9.155
 7895POPC   GL131573  29.884  19.857   8.855
 7895POPC   GL231574  30.056  19.894   8.855
 7895POPC   C1A31575  29.903  19.838   8.555
 7895POPC   D2A31576  29.912  19.792   8.255
 7895POPC   C3A31577  29.960  19.879   7.955
 7895POPC   C4A31578  29.883  19.855   7.655
 7895POPC   C1B31579  30.130  19.933   8.555
 7895POPC   C2B31580  30.180  19.934   8.255
 7895POPC   C3B31581  30.136  19.919   7.955
 7895POPC   C4B31582  30.116  19.962   7.655
 7896POPC   NC331583   2.750  41.549   9.455
 7896POPC   PO431584   2.758  41.554   9.155
 7896POPC   GL131585   2.788  41.572   8.855
 7896POPC   GL231586   2.909  41.632   8.855
 7896POPC   C1A31587   2.768  41.514   8.555
 7896POPC   D2A31588   2.811  41.533   8.255
 7896POPC   C3A31589   2.718  41.557   7.955
 7896POPC   C4A31590   2.806  41.596   7.655
 7896POPC   C1B31591   2.993  41.691   8.555
 7896POPC   C2B31592   3.011  41.601   8.255
 7896POPC   C3B31593   3.026  41.671   7.955
 7896POPC   C4B31594   3.010  41.617   7.655
 7897POPC   NC331595  20.629  31.508   9.455
 7897POPC   PO431596  20.594  31.459   9.155
 7897POPC   GL131597  20.586  31.438   8.855
 7897POPC   GL231598  20.550  31.544   8.855
 7897POPC   C1A31599  20.578  31.477   8.555
 7897POPC   D2A31600  20.560  31.440   8.255
 7897POPC   C3A31601  20.584  31.507   7.955
 7897POPC   C4A31602  20.564  31.467   7.655
 7897POPC   C1B31603  20.396  31.636   8.555
 7897POPC   C2B31604  20.396  31.604   8.255
 7897POPC   C3B31605  20.382  31.651   7.955
 7897POPC   C4B31606  20.401  31.639   7.655
 7898POPC   NC331607   4.280  14.370   9.455
 7898POPC   PO431608   4.328  14.401   9.155
 7898POPC   GL131609   4.304  14.448   8.855
 7898POPC   GL231610   4.377  14.500   8.855
 7898POPC   C1A31611   4.354  14.369   8.555
 7898POPC   D2A31612   4.285  14.439   8.255
 7898POPC   C3A31613   4.296  14.390   7.955
 7898POPC   C4A31614   4.286  14.453   7.655
 7898POPC   C1B31615   4.500  14.564   8.555
 7898POPC   C2B31616   4.519  14.576   8.255
 7898POPC   C3B31617   4.478  14.517   7.955
 7898POPC   C4B31618   4.550  14.521   7.655
 7899POPC   NC331619   0.451  43.116   9.455
 7899POPC   PO431620   0.473  43.107   9.155
 7899POPC   GL131621   0.483  43.100   8.855
 7899POPC   GL231622   0.380  43.023   8.855
 7899POPC   C1A31623   0.402  43.078   8.555
 7899POPC   D2A31624   0.447  43.063   8.255
 7899POPC   C3A31625   0.460  43.090   7.955
 7899POPC   C4A31626   0.475  43.090   7.655
 7899POPC   C1B31627   0.220  42.962   8.555
 7899POPC   C2B31628   0.239  42.957   8.255
 7899POPC   C3B31629   0.215  42.896   7.955
 7899POPC   C4B31630   0.282  42.932   7.655
 7900POPC   NC331631  24.499  11.262   9.455
 7900POPC   PO431632  24.529  11.286   9.155
 7900POPC   GL131633  24.462  11.284   8.855
 7900POPC   GL231634  24.448  11.447   8.855
 7900POPC   C1A31635  24.484  11.290   8.555
 7900POPC   D2A31636  24.495  11.305   8.255
 7900POPC   C3A31637  24.465  11.349   7.955
 7900POPC   C4A31638  24.499  11.272   7.655
 7900POPC   C1B31639  24.424  11.577   8.555
 7900POPC   C2B31640  24.483  11.589   8.255
 7900POPC   C3B31641  24.459  11.544   7.955
 7900POPC   C4B31642  24.431  11.575   7.655
 7901POPC   NC331643  43.863  39.988   9.455
 7901POPC   PO431644  43.892  40.016   9.155
 7901POPC   GL131645  43.886  40.052   8.855
 7901POPC   GL231646  44.047  39.942   8.855
 7901POPC   C1A31647  43.841  40.035   8.555
 7901POPC   D2A31648  43.872  40.013   8.255
 7901POPC   C3A31649  43.841  40.049   7.955
 7901POPC   C4A31650  43.933  39.993   7.655
 7901POPC   C1B31651  44.117  39.924   8.555
 7901POPC   C2B31652  44.129  39.903   8.255
 7901POPC   C3B31653  44.112  39.965   7.955
 7901POPC   C4B31654  44.140  39.926   7.655
 7902POPC   NC331655  29.116  39.193   9.455
 7902POPC   PO431656  29.191  39.196   9.155
 7902POPC   GL131657  29.133  39.192   8.855
 7902POPC   GL231658  29.023  39.243   8.855
 7902POPC   C1A31659  29.142  39.208   8.555
 7902POPC   D2A31660  29.113  39.254   8.255
 7902POPC   C3A31661  29.120  39.240   7.955
 7902POPC   C4A31662  29.143  39.199   7.655
 7902POPC   C1B31663  28.949  39.141   8.555
 7902POPC   C2B31664  28.853  39.137   8.255
 7902POPC   C3B31665  28.882  39.222   7.955
 7902POPC   C4B31666  28.908  39.223   7.655
 7903POPC   NC331667  36.899  42.380   9.455
 7903POPC   PO431668  36.906  42.320   9.155
 7903POPC   GL131669  36.908  42.293   8.855
 7903POPC   GL231670  36.846  42.289   8.855
 7903POPC   C1A31671  36.942  42.377   8.555
 7903POPC   D2A31672  36.897  42.353   8.255
 7903POPC   C3A31673  36.900  42.305   7.955
 7903POPC   C4A31674  36.940  42.311   7.655
 7903POPC   C1B31675  36.692  42.103   8.555
 7903POPC   C2B31676  36.723  42.133   8.255
 7903POPC   C3B31677  36.738  42.120   7.955
 7903POPC   C4B31678  36.694  42.189   7.655
 7904POPC   NC331679  19.024  31.443   9.455
 7904POPC   PO431680  19.009  31.500   9.155
 7904POPC   GL131681  19.017  31.455   8.855
 7904POPC   GL231682  19.032  31.337   8.855
 7904POPC   C1A31683  19.070  31.496   8.555
 7904POPC   D2A31684  19.079  31.498   8.255
 7904POPC   C3A31685  19.033  31.511   7.955
 7904POPC   C4A31686  19.089  31.448   7.655
 7904POPC   C1B31687  18.989  31.197   8.555
 7904POPC   C2B31688  18.921  31.192   8.255
 7904POPC   C3B31689  18.917  31.225   7.955
 7904POPC   C4B31690  18.948  31.195   7.655
 7905POPC   NC331691  39.973  42.293   9.455
 7905POPC   PO431692  39.976  42.320   9.155
 7905POPC   GL131693  40.051  42.347   8.855
 7905POPC   GL231694  40.130  42.309   8.855
 7905POPC   C1A31695  40.002  42.312   8.555
 7905POPC   D2A31696  40.053  42.320   8.255
 7905POPC   C3A31697  39.992  42.356   7.955
 7905POPC   C4A31698  39.980  42.325   7.655
 7905POPC   C1B31699  40.303  42.262   8.555
 7905POPC   C2B31700  40.230  42.332   8.255
 7905POPC   C3B31701  40.209  42.307   7.955
 7905POPC   C4B31702  40.253  42.270   7.655
 7906POPC   NC331703  18.290  44.642   9.455
 7906POPC   PO431704  18.289  44.675   9.155
 7906POPC   GL131705  18.238  44.686   8.855
 7906POPC   GL231706  18.173  44.681   8.855
 7906POPC   C1A31707  18.276  44.712   8.555
 7906POPC   D2A31708  18.238  44.640   8.255
 7906POPC   C3A31709  18.243  44.640   7.955
 7906POPC   C4A31710  18.331  44.622   7.655
 7906POPC   C1B31711  18.025  44.694   8.555
 7906POPC   C2B31712  18.032  44.639   8.255
 7906POPC   C3B31713  18.074  44.610   7.955
 7906POPC   C4B31714  18.067  44.680   7.655
 7907POPC   NC331715  38.448  39.187   9.455
 7907POPC   PO431716  38.406  39.207   9.155
 7907POPC   GL131717  38.430  39.217   8.855
 7907POPC   GL231718  38.600  39.223   8.855
 7907POPC   C1A31719  38.421  39.215   8.555
 7907POPC   D2A31720  38.468  39.226   8.255
 7907POPC   C3A31721  38.502  39.232   7.955
 7907POPC   C4A31722  38.450  39.264   7.655
 7907POPC   C1B31723  38.653  39.203   8.555
 7907POPC   C2B31724  38.656  39.185   8.255
 7907POPC   C3B31725  38.664  39.144   7.955
 7907POPC   C4B31726  38.698  39.195   7.655
 7908POPC   NC331727  16.004  33.050   9.455
 7908POPC   PO431728  15.917  33.062   9.155
 7908POPC   GL131729  15.961  32.998   8.855
 7908POPC   GL231730  16.079  32.992   8.855
 7908POPC   C1A31731  15.915  32.994   8.555
 7908POPC   D2A31732  15.938  32.983   8.255
 7908POPC   C3A31733  15.931  33.018   7.955
 7908POPC   C4A31734  15.923  33.053   7.655
 7908POPC   C1B31735  16.150  32.898   8.555
 7908POPC   C2B31736  16.216  32.869   8.255
 7908POPC   C3B31737  16.149  32.902   7.955
 7908POPC   C4B31738  16.153  32.872   7.655
 7909POPC   NC331739  17.498   4.329   9.455
 7909POPC   PO431740  17.487   4.329   9.155
 7909POPC   GL131741  17.549   4.281   8.855
 7909POPC   GL231742  17.634   4.310   8.855
 7909POPC   C1A31743  17.555   4.348   8.555
 7909POPC   D2A31744  17.459   4.332   8.255
 7909POPC   C3A31745  17.499   4.311   7.955
 7909POPC   C4A31746  17.552   4.268   7.655
 7909POPC   C1B31747  17.742   4.247   8.555
 7909POPC   C2B31748  17.794   4.226   8.255
 7909POPC   C3B31749  17.771   4.248   7.955
 7909POPC   C4B31750  17.776   4.238   7.655
 7910POPC   NC331751  27.577  14.379   9.455
 7910POPC   PO431752  27.628  14.410   9.155
 7910POPC   GL131753  27.547  14.428   8.855
 7910POPC   GL231754  27.505  14.341   8.855
 7910POPC   C1A31755  27.610  14.402   8.555
 7910POPC   D2A31756  27.562  14.370   8.255
 7910POPC   C3A31757  27.595  14.416   7.955
 7910POPC   C4A31758  27.622  14.358   7.655
 7910POPC   C1B31759  27.383  14.266   8.555
 7910POPC   C2B31760  27.351  14.318   8.255
 7910POPC   C3B31761  27.415  14.286   7.955
 7910POPC   C4B31762  27.361  14.287   7.655
 7911POPC   NC331763  16.687   8.208   9.455
 7911POPC   PO431764  16.686   8.153   9.155
 7911POPC   GL131765  16.682   8.232   8.855
 7911POPC   GL231766  16.687   8.247   8.855
 7911POPC   C1A31767  16.735   8.190   8.555
 7911POPC   D2A31768  16.714   8.157   8.255
 7911POPC   C3A31769  16.685   8.161   7.955
 7911POPC   C4A31770  16.760   8.228   7.655
 7911POPC   C1B31771  16.512   8.392   8.555
 7911POPC   C2B31772  16.503   8.379   8.255
 7911POPC   C3B31773  16.567   8.380   7.955
 7911POPC   C4B31774  16.553   8.399   7.655
 7912POPC   NC331775   9.728  36.156   9.455
 7912POPC   PO431776   9.759  36.086   9.155
 7912POPC   GL131777   9.730  36.123   8.855
 7912POPC   GL231778   9.765  36.028   8.855
 7912POPC   C1A31779   9.755  36.128   8.555
 7912POPC   D2A31780   9.793  36.138   8.255
 7912POPC   C3A31781   9.737  36.124   7.955
 7912POPC   C4A31782   9.704  36.121   7.655
 7912POPC   C1B31783   9.727  35.837   8.555
 7912POPC   C2B31784   9.759  35.834   8.255
 7912POPC   C3B31785   9.764  35.864   7.955
 7912POPC   C4B31786   9.700  35.857   7.655
 7913POPC   NC331787  31.510  10.571   9.455
 7913POPC   PO431788  31.496  10.487   9.155
 7913POPC   GL131789  31.465  10.568   8.855
 7913POPC   GL231790  31.581  10.397   8.855
 7913POPC   C1A31791  31.455  10.544   8.555
 7913POPC   D2A31792  31.424  10.536   8.255
 7913POPC   C3A31793  31.466  10.541   7.955
 7913POPC   C4A31794  31.446  10.545   7.655
 7913POPC   C1B31795  31.579  10.328   8.555
 7913POPC   C2B31796  31.634  10.313   8.255
 7913POPC   C3B31797  31.570  10.345   7.955
 7913POPC   C4B31798  31.652  10.339   7.655
 7914POPC   NC331799  39.202  12.871   9.455
 7914POPC   PO431800  39.188  12.876   9.155
 7914POPC   GL131801  39.201  12.810   8.855
 7914POPC   GL231802  39.135  12.853   8.855
 7914POPC   C1A31803  39.223  12.843   8.555
 7914POPC   D2A31804  39.219  12.807   8.255
 7914POPC   C3A31805  39.189  12.837   7.955
 7914POPC   C4A31806  39.268  12.900   7.655
 7914POPC   C1B31807  38.971  12.914   8.555
 7914POPC   C2B31808  38.940  12.898   8.255
 7914POPC   C3B31809  38.939  12.855   7.955
 7914POPC   C4B31810  38.946  12.898   7.655
 7915POPC   NC331811  36.105   6.671   9.455
 7915POPC   PO431812  36.124   6.596   9.155
 7915POPC   GL131813  36.095   6.602   8.855
 7915POPC   GL231814  36.163   6.793   8.855
 7915POPC   C1A31815  36.111   6.654   8.555
 7915POPC   D2A31816  36.134   6.625   8.255
 7915POPC   C3A31817  36.106   6.626   7.955
 7915POPC   C4A31818  36.141   6.645   7.655
 7915POPC   C1B31819  36.083   6.927   8.555
 7915POPC   C2B31820  36.089   6.849   8.255
 7915POPC   C3B31821  36.136   6.853   7.955
 7915POPC   C4B31822  36.138   6.930   7.655
 7916POPC   NC331823  43.130  26.781   9.455
 7916POPC   PO431824  43.109  26.771   9.155
 7916POPC   GL131825  43.070  26.775   8.855
 7916POPC   GL231826  42.984  26.834   8.855
 7916POPC   C1A31827  43.112  26.768   8.555
 7916POPC   D2A31828  43.122  26.858   8.255
 7916POPC   C3A31829  43.132  26.771   7.955
 7916POPC   C4A31830  43.126  26.792   7.655
 7916POPC   C1B31831  42.888  26.854   8.555
 7916POPC   C2B31832  42.851  26.938   8.255
 7916POPC   C3B31833  42.891  26.936   7.955
 7916POPC   C4B31834  42.925  26.904   7.655
 7917POPC   NC331835  44.682  25.997   9.455
 7917POPC   PO431836  44.700  26.050   9.155
 7917POPC   GL131837  44.698  26.078   8.855
 7917POPC   GL231838  44.533  26.069   8.855
 7917POPC   C1A31839  44.660  26.074   8.555
 7917POPC   D2A31840  44.670  26.066   8.255
 7917POPC   C3A31841  44.655  26.055   7.955
 7917POPC   C4A31842  44.637  26.014   7.655
 7917POPC   C1B31843  44.433  26.168   8.555
 7917POPC   C2B31844  44.493  26.161   8.255
 7917POPC   C3B31845  44.473  26.200   7.955
 7917POPC   C4B31846  44.486  26.160   7.655
 7918POPC   NC331847  33.047  28.333   9.455
 7918POPC   PO431848  32.980  28.373   9.155
 7918POPC   GL131849  33.066  28.374   8.855
 7918POPC   GL231850  32.897  28.293   8.855
 7918POPC   C1A31851  33.036  28.410   8.555
 7918POPC   D2A31852  33.056  28.368   8.255
 7918POPC   C3A31853  33.057  28.324   7.955
 7918POPC   C4A31854  32.989  28.362   7.655
 7918POPC   C1B31855  32.826  28.266   8.555
 7918POPC   C2B31856  32.846  28.288   8.255
 7918POPC   C3B31857  32.797  28.268   7.955
 7918POPC   C4B31858  32.766  28.229   7.655
 7919POPC   NC331859   2.719  36.177   9.455
 7919POPC   PO431860   2.752  36.096   9.155
 7919POPC   GL131861   2.801  36.155   8.855
 7919POPC   GL231862   2.643  36.068   8.855
 7919POPC   C1A31863   2.725  36.170   8.555
 7919POPC   D2A31864   2.771  36.117   8.255
 7919POPC   C3A31865   2.773  36.173   7.955
 7919POPC   C4A31866   2.740  36.100   7.655
 7919POPC   C1B31867   2.568  35.939   8.555
 7919POPC   C2B31868   2.619  35.965   8.255
 7919POPC   C3B31869   2.553  36.006   7.955
 7919POPC   C4B31870   2.556  35.984   7.655
 7920POPC   NC331871  21.343  22.210   9.455
 7920POPC   PO431872  21.341  22.197   9.155
 7920POPC   GL131873  21.341  22.145   8.855
 7920POPC   GL231874  21.258  22.251   8.855
 7920POPC   C1A31875  21.392  22.113   8.555
 7920POPC   D2A31876  21.343  22.148   8.255
 7920POPC   C3A31877  21.358  22.128   7.955
 7920POPC   C4A31878  21.380  22.120   7.655
 7920POPC   C1B31879  21.218  22.315   8.555
 7920POPC   C2B31880  21.188  22.362   8.255
 7920POPC   C3B31881  21.159  22.347   7.955
 7920POPC   C4B31882  21.211  22.344   7.655
 7921POPC   NC331883   2.032  20.650   9.455
 7921POPC   PO431884   1.972  20.565   9.155
 7921POPC   GL131885   1.988  20.632   8.855
 7921POPC   GL231886   1.895  20.689   8.855
 7921POPC   C1A31887   2.015  20.578   8.555
 7921POPC   D2A31888   2.032  20.653   8.255
 7921POPC   C3A31889   1.986  20.641   7.955
 7921POPC   C4A31890   2.035  20.585   7.655
 7921POPC   C1B31891   1.904  20.805   8.555
 7921POPC   C2B31892   1.898  20.786   8.255
 7921POPC   C3B31893   1.883  20.868   7.955
 7921POPC   C4B31894   1.830  20.800   7.655
 7922POPC   NC331895  44.680  36.940   9.455
 7922POPC   PO431896  44.685  36.860   9.155
 7922POPC   GL131897  44.704  36.904   8.855
 7922POPC   GL231898  44.517  36.844   8.855
 7922POPC   C1A31899  44.620  36.939   8.555
 7922POPC   D2A31900  44.624  36.922   8.255
 7922POPC   C3A31901  44.709  36.911   7.955
 7922POPC   C4A31902  44.697  36.931   7.655
 7922POPC   C1B31903  44.503  36.752   8.555
 7922POPC   C2B31904  44.436  36.745   8.255
 7922POPC   C3B31905  44.421  36.755   7.955
 7922POPC   C4B31906  44.436  36.734   7.655
 7923POPC   NC331907  40.780  22.979   9.455
 7923POPC   PO431908  40.791  22.895   9.155
 7923POPC   GL131909  40.796  22.961   8.855
 7923POPC   GL231910  40.738  22.847   8.855
 7923POPC   C1A31911  40.792  22.920   8.555
 7923POPC   D2A31912  40.822  22.936   8.255
 7923POPC   C3A31913  40.768  22.888   7.955
 7923POPC   C4A31914  40.769  22.891   7.655
 7923POPC   C1B31915  40.808  22.690   8.555
 7923POPC   C2B31916  40.814  22.647   8.255
 7923POPC   C3B31917  40.735  22.727   7.955
 7923POPC   C4B31918  40.802  22.693   7.655
 7924POPC   NC331919  22.175  44.703   9.455
 7924POPC   PO431920  22.199  44.672   9.155
 7924POPC   GL131921  22.123  44.660   8.855
 7924POPC   GL231922  22.285  44.576   8.855
 7924POPC   C1A31923  22.153  44.658   8.555
 7924POPC   D2A31924  22.181  44.634   8.255
 7924POPC   C3A31925  22.132  44.643   7.955
 7924POPC   C4A31926  22.121  44.671   7.655
 7924POPC   C1B31927  22.285  44.504   8.555
 7924POPC   C2B31928  22.335  44.435   8.255
 7924POPC   C3B31929  22.346  44.511   7.955
 7924POPC   C4B31930  22.368  44.487   7.655
 7925POPC   NC331931  10.569   0.433   9.455
 7925POPC   PO431932  10.508   0.445   9.155
 7925POPC   GL131933  10.569   0.424   8.855
 7925POPC   GL231934  10.609   0.414   8.855
 7925POPC   C1A31935  10.503   0.479   8.555
 7925POPC   D2A31936  10.477   0.487   8.255
 7925POPC   C3A31937  10.559   0.430   7.955
 7925POPC   C4A31938  10.497   0.410   7.655
 7925POPC   C1B31939  10.752   0.332   8.555
 7925POPC   C2B31940  10.773   0.280   8.255
 7925POPC   C3B31941  10.791   0.276   7.955
 7925POPC   C4B31942  10.763   0.368   7.655
 7926POPC   NC331943  27.637  25.299   9.455
 7926POPC   PO431944  27.551  25.230   9.155
 7926POPC   GL131945  27.554  25.295   8.855
 7926POPC   GL231946  27.580  25.169   8.855
 7926POPC   C1A31947  27.607  25.245   8.555
 7926POPC   D2A31948  27.569  25.271   8.255
 7926POPC   C3A31949  27.592  25.223   7.955
 7926POPC   C4A31950  27.619  25.244   7.655
 7926POPC   C1B31951  27.573  25.022   8.555
 7926POPC   C2B31952  27.530  25.001   8.255
 7926POPC   C3B31953  27.495  25.029   7.955
 7926POPC   C4B31954  27.539  25.020   7.655
 7927POPC   NC331955  24.498  15.137   9.455
 7927POPC   PO431956  24.510  15.133   9.155
 7927POPC   GL131957  24.463  15.220   8.855
 7927POPC   GL231958  24.594  15.145   8.855
 7927POPC   C1A31959  24.492  15.131   8.555
 7927POPC   D2A31960  24.513  15.207   8.255
 7927POPC   C3A31961  24.505  15.164   7.955
 7927POPC   C4A31962  24.478  15.166   7.655
 7927POPC   C1B31963  24.756  15.125   8.555
 7927POPC   C2B31964  24.767  15.215   8.255
 7927POPC   C3B31965  24.689  15.143   7.955
 7927POPC   C4B31966  24.780  15.158   7.655
 7928POPC   NC331967  41.577  26.078   9.455
 7928POPC   PO431968  41.571  25.997   9.155
 7928POPC   GL131969  41.540  26.065   8.855
 7928POPC   GL231970  41.430  26.020   8.855
 7928POPC   C1A31971  41.540  26.047   8.555
 7928POPC   D2A31972  41.527  26.053   8.255
 7928POPC   C3A31973  41.529  26.054   7.955
 7928POPC   C4A31974  41.512  26.058   7.655
 7928POPC   C1B31975  41.341  26.025   8.555
 7928POPC   C2B31976  41.330  25.994   8.255
 7928POPC   C3B31977  41.279  26.020   7.955
 7928POPC   C4B31978  41.336  26.039   7.655
 7929POPC   NC331979  30.746  33.757   9.455
 7929POPC   PO431980  30.741  33.829   9.155
 7929POPC   GL131981  30.652  33.782   8.855
 7929POPC   GL231982  30.766  33.902   8.855
 7929POPC   C1A31983  30.735  33.804   8.555
 7929POPC   D2A31984  30.726  33.836   8.255
 7929POPC   C3A31985  30.691  33.829   7.955
 7929POPC   C4A31986  30.689  33.841   7.655
 7929POPC   C1B31987  30.802  33.997   8.555
 7929POPC   C2B31988  30.823  34.019   8.255
 7929POPC   C3B31989  30.804  34.010   7.955
 7929POPC   C4B31990  30.817  34.008   7.655
 7930POPC   NC331991   3.575  16.781   9.455
 7930POPC   PO431992   3.581  16.714   9.155
 7930POPC   GL131993   3.558  16.696   8.855
 7930POPC   GL231994   3.396  16.776   8.855
 7930POPC   C1A31995   3.495  16.758   8.555
 7930POPC   D2A31996   3.520  16.769   8.255
 7930POPC   C3A31997   3.527  16.688   7.955
 7930POPC   C4A31998   3.521  16.689   7.655
 7930POPC   C1B31999   3.289  16.881   8.555
 7930POPC   C2B32000   3.354  16.792   8.255
 7930POPC   C3B32001   3.318  16.850   7.955
 7930POPC   C4B32002   3.349  16.841   7.655
 7931POPC   NC332003  29.116  31.500   9.455
 7931POPC   PO432004  29.156  31.461   9.155
 7931POPC   GL132005  29.168  31.431   8.855
 7931POPC   GL232006  29.161  31.339   8.855
 7931POPC   C1A32007  29.117  31.464   8.555
 7931POPC   D2A32008  29.148  31.484   8.255
 7931POPC   C3A32009  29.150  31.455   7.955
 7931POPC   C4A32010  29.187  31.522   7.655
 7931POPC   C1B32011  29.163  31.183   8.555
 7931POPC   C2B32012  29.182  31.218   8.255
 7931POPC   C3B32013  29.237  31.222   7.955
 7931POPC   C4B32014  29.238  31.234   7.655
 7932POPC   NC332015  25.300  30.676   9.455
 7932POPC   PO432016  25.232  30.673   9.155
 7932POPC   GL132017  25.224  30.705   8.855
 7932POPC   GL232018  25.327  30.553   8.855
 7932POPC   C1A32019  25.286  30.720   8.555
 7932POPC   D2A32020  25.235  30.745   8.255
 7932POPC   C3A32021  25.274  30.716   7.955
 7932POPC   C4A32022  25.230  30.677   7.655
 7932POPC   C1B32023  25.393  30.508   8.555
 7932POPC   C2B32024  25.434  30.522   8.255
 7932POPC   C3B32025  25.370  30.456   7.955
 7932POPC   C4B32026  25.399  30.493   7.655
 7933POPC   NC332027  19.840  15.924   9.455
 7933POPC   PO432028  19.793  15.973   9.155
 7933POPC   GL132029  19.843  15.971   8.855
 7933POPC   GL232030  19.847  16.124   8.855
 7933POPC   C1A32031  19.861  15.966   8.555
 7933POPC   D2A32032  19.792  15.969   8.255
 7933POPC   C3A32033  19.818  15.965   7.955
 7933POPC   C4A32034  19.855  15.934   7.655
 7933POPC   C1B32035  19.867  16.234   8.555
 7933POPC   C2B32036  19.835  16.250   8.255
 7933POPC   C3B32037  19.885  16.211   7.955
 7933POPC   C4B32038  19.824  16.242   7.655
 7934POPC   NC332039  43.933   0.460   9.455
 7934POPC   PO432040  43.931   0.480   9.155
 7934POPC   GL132041  43.838   0.443   8.855
 7934POPC   GL232042  43.856   0.343   8.855
 7934POPC   C1A32043  43.897   0.448   8.555
 7934POPC   D2A32044  43.867   0.406   8.255
 7934POPC   C3A32045  43.876   0.419   7.955
 7934POPC   C4A32046  43.887   0.413   7.655
 7934POPC   C1B32047  43.856   0.158   8.555
 7934POPC   C2B32048  43.893   0.177   8.255
 7934POPC   C3B32049  43.834   0.158   7.955
 7934POPC   C4B32050  43.883   0.229   7.655
 7935POPC   NC332051   5.106  16.708   9.455
 7935POPC   PO432052   5.126  16.769   9.155
 7935POPC   GL132053   5.104  16.686   8.855
 7935POPC   GL232054   4.985  16.789   8.855
 7935POPC   C1A32055   5.049  16.735   8.555
 7935POPC   D2A32056   5.129  16.748   8.255
 7935POPC   C3A32057   5.121  16.778   7.955
 7935POPC   C4A32058   5.142  16.764   7.655
 7935POPC   C1B32059   4.888  16.824   8.555
 7935POPC   C2B32060   4.868  16.850   8.255
 7935POPC   C3B32061   4.875  16.790   7.955
 7935POPC   C4B32062   4.817  16.812   7.655
 7936POPC   NC332063  12.088  43.141   9.455
 7936POPC   PO432064  12.053  43.149   9.155
 7936POPC   GL132065  12.029  43.071   8.855
 7936POPC   GL232066  12.115  42.993   8.855
 7936POPC   C1A32067  12.060  43.109   8.555
 7936POPC   D2A32068  12.028  43.064   8.255
 7936POPC   C3A32069  12.115  43.099   7.955
 7936POPC   C4A32070  12.119  43.104   7.655
 7936POPC   C1B32071  12.041  42.892   8.555
 7936POPC   C2B32072  12.118  42.899   8.255
 7936POPC   C3B32073  12.047  42.835   7.955
 7936POPC   C4B32074  12.052  42.903   7.655
 7937POPC   NC332075   0.460   5.078   9.455
 7937POPC   PO432076   0.468   5.099   9.155
 7937POPC   GL132077   0.435   5.132   8.855
 7937POPC   GL232078   0.425   4.988   8.855
 7937POPC   C1A32079   0.437   5.113   8.555
 7937POPC   D2A32080   0.418   5.103   8.255
 7937POPC   C3A32081   0.400   5.135   7.955
 7937POPC   C4A32082   0.416   5.126   7.655
 7937POPC   C1B32083   0.457   4.822   8.555
 7937POPC   C2B32084   0.423   4.873   8.255
 7937POPC   C3B32085   0.472   4.837   7.955
 7937POPC   C4B32086   0.445   4.811   7.655
 7938POPC   NC332087  22.142  15.219   9.455
 7938POPC   PO432088  22.143  15.147   9.155
 7938POPC   GL132089  22.172  15.217   8.855
 7938POPC   GL232090  22.061  15.335   8.855
 7938POPC   C1A32091  22.141  15.180   8.555
 7938POPC   D2A32092  22.139  15.149   8.255
 7938POPC   C3A32093  22.128  15.137   7.955
 7938POPC   C4A32094  22.148  15.160   7.655
 7938POPC   C1B32095  22.093  15.365   8.555
 7938POPC   C2B32096  22.094  15.444   8.255
 7938POPC   C3B32097  22.078  15.368   7.955
 7938POPC   C4B32098  22.056  15.398   7.655
 7939POPC   NC332099  33.050   5.833   9.455
 7939POPC   PO432100  33.048   5.844   9.155
 7939POPC   GL132101  33.036   5.897   8.855
 7939POPC   GL232102  33.128   5.856   8.855
 7939POPC   C1A32103  33.016   5.893   8.555
 7939POPC   D2A32104  32.992   5.838   8.255
 7939POPC   C3A32105  33.025   5.890   7.955
 7939POPC   C4A32106  33.000   5.908   7.655
 7939POPC   C1B32107  33.294   5.813   8.555
 7939POPC   C2B32108  33.290   5.795   8.255
 7939POPC   C3B32109  33.287   5.834   7.955
 7939POPC   C4B32110  33.254   5.772   7.655
 7940POPC   NC332111   9.727  23.698   9.455
 7940POPC   PO432112   9.701  23.682   9.155
 7940POPC   GL132113   9.748  23.748   8.855
 7940POPC   GL232114   9.876  23.817   8.855
 7940POPC   C1A32115   9.763  23.695   8.555
 7940POPC   D2A32116   9.769  23.750   8.255
 7940POPC   C3A32117   9.726  23.701   7.955
 7940POPC   C4A32118   9.798  23.731   7.655
 7940POPC   C1B32119   9.900  23.913   8.555
 7940POPC   C2B32120   9.952  23.872   8.255
 7940POPC   C3B32121   9.946  23.872   7.955
 7940POPC   C4B32122   9.876  23.923   7.655
 7941POPC   NC332123   1.964  28.415   9.455
 7941POPC   PO432124   1.946  28.340   9.155
 7941POPC   GL132125   2.013  28.384   8.855
 7941POPC   GL232126   1.974  28.251   8.855
 7941POPC   C1A32127   1.961  28.385   8.555
 7941POPC   D2A32128   1.947  28.383   8.255
 7941POPC   C3A32129   1.943  28.401   7.955
 7941POPC   C4A32130   2.039  28.389   7.655
 7941POPC   C1B32131   2.054  28.113   8.555
 7941POPC   C2B32132   2.049  28.094   8.255
 7941POPC   C3B32133   2.021  28.081   7.955
 7941POPC   C4B32134   2.070  28.090   7.655
 7942POPC   NC332135  23.751   9.006   9.455
 7942POPC   PO432136  23.751   8.934   9.155
 7942POPC   GL132137  23.761   8.964   8.855
 7942POPC   GL232138  23.772   8.937   8.855
 7942POPC   C1A32139  23.671   8.929   8.555
 7942POPC   D2A32140  23.727   8.952   8.255
 7942POPC   C3A32141  23.732   8.986   7.955
 7942POPC   C4A32142  23.757   9.003   7.655
 7942POPC   C1B32143  23.886   8.859   8.555
 7942POPC   C2B32144  23.938   8.878   8.255
 7942POPC   C3B32145  23.957   8.838   7.955
 7942POPC   C4B32146  23.912   8.849   7.655
 7943POPC   NC332147  38.496  17.537   9.455
 7943POPC   PO432148  38.430  17.512   9.155
 7943POPC   GL132149  38.450  17.508   8.855
 7943POPC   GL232150  38.442  17.661   8.855
 7943POPC   C1A32151  38.438  17.491   8.555
 7943POPC   D2A32152  38.493  17.497   8.255
 7943POPC   C3A32153  38.456  17.552   7.955
 7943POPC   C4A32154  38.445  17.480   7.655
 7943POPC   C1B32155  38.445  17.758   8.555
 7943POPC   C2B32156  38.485  17.754   8.255
 7943POPC   C3B32157  38.474  17.762   7.955
 7943POPC   C4B32158  38.457  17.716   7.655
 7944POPC   NC332159   8.214   2.038   9.455
 7944POPC   PO432160   8.151   1.967   9.155
 7944POPC   GL132161   8.228   2.000   8.855
 7944POPC   GL232162   8.171   2.074   8.855
 7944POPC   C1A32163   8.244   1.984   8.555
 7944POPC   D2A32164   8.210   1.966   8.255
 7944POPC   C3A32165   8.234   2.025   7.955
 7944POPC   C4A32166   8.196   1.973   7.655
 7944POPC   C1B32167   8.113   2.237   8.555
 7944POPC   C2B32168   8.129   2.235   8.255
 7944POPC   C3B32169   8.120   2.214   7.955
 7944POPC   C4B32170   8.113   2.214   7.655
 7945POPC   NC332171  24.472  24.467   9.455
 7945POPC   PO432172  24.451  24.456   9.155
 7945POPC   GL132173  24.504  24.491   8.855
 7945POPC   GL232174  24.465  24.614   8.855
 7945POPC   C1A32175  24.537  24.494   8.555
 7945POPC   D2A32176  24.477  24.536   8.255
 7945POPC   C3A32177  24.538  24.449   7.955
 7945POPC   C4A32178  24.523  24.508   7.655
 7945POPC   C1B32179  24.493  24.704   8.555
 7945POPC   C2B32180  24.492  24.701   8.255
 7945POPC   C3B32181  24.469  24.765   7.955
 7945POPC   C4B32182  24.435  24.751   7.655
 7946POPC   NC332183  36.165  22.924   9.455
 7946POPC   PO432184  36.086  22.925   9.155
 7946POPC   GL132185  36.134  22.927   8.855
 7946POPC   GL232186  35.973  22.931   8.855
 7946POPC   C1A32187  36.137  22.901   8.555
 7946POPC   D2A32188  36.078  22.892   8.255
 7946POPC   C3A32189  36.108  22.900   7.955
 7946POPC   C4A32190  36.110  22.944   7.655
 7946POPC   C1B32191  35.876  22.811   8.555
 7946POPC   C2B32192  35.896  22.900   8.255
 7946POPC   C3B32193  35.914  22.853   7.955
 7946POPC   C4B32194  35.930  22.896   7.655
 7947POPC   NC332195  10.543  41.541   9.455
 7947POPC   PO432196  10.517  41.538   9.155
 7947POPC   GL132197  10.542  41.512   8.855
 7947POPC   GL232198  10.499  41.433   8.855
 7947POPC   C1A32199  10.480  41.561   8.555
 7947POPC   D2A32200  10.476  41.555   8.255
 7947POPC   C3A32201  10.517  41.552   7.955
 7947POPC   C4A32202  10.480  41.556   7.655
 7947POPC   C1B32203  10.428  41.373   8.555
 7947POPC   C2B32204  10.420  41.349   8.255
 7947POPC   C3B32205  10.366  41.363   7.955
 7947POPC   C4B32206  10.372  41.315   7.655
 7948POPC   NC332207  17.484  18.300   9.455
 7948POPC   PO432208  17.547  18.285   9.155
 7948POPC   GL132209  17.548  18.279   8.855
 7948POPC   GL232210  17.414  18.217   8.855
 7948POPC   C1A32211  17.534  18.246   8.555
 7948POPC   D2A32212  17.510  18.238   8.255
 7948POPC   C3A32213  17.522  18.325   7.955
 7948POPC   C4A32214  17.515  18.284   7.655
 7948POPC   C1B32215  17.250  18.229   8.555
 7948POPC   C2B32216  17.235  18.260   8.255
 7948POPC   C3B32217  17.238  18.255   7.955
 7948POPC   C4B32218  17.294  18.186   7.655
 7949POPC   NC332219  43.139  44.658   9.455
 7949POPC   PO432220  43.145  44.705   9.155
 7949POPC   GL132221  43.119  44.712   8.855
 7949POPC   GL232222  43.028  44.745   8.855
 7949POPC   C1A32223  43.085  44.689   8.555
 7949POPC   D2A32224  43.063  44.666   8.255
 7949POPC   C3A32225  43.104  44.666   7.955
 7949POPC   C4A32226  43.121  44.666   7.655
 7949POPC   C1B32227  43.061  44.877   8.555
 7949POPC   C2B32228  43.055  44.863   8.255
 7949POPC   C3B32229  42.987  44.879   7.955
 7949POPC   C4B32230  43.056  44.937   7.655
 7950POPC   NC332231   2.797   4.329   9.455
 7950POPC   PO432232   2.794   4.307   9.155
 7950POPC   GL132233   2.749   4.360   8.855
 7950POPC   GL232234   2.688   4.360   8.855
 7950POPC   C1A32235   2.802   4.273   8.555
 7950POPC   D2A32236   2.721   4.334   8.255
 7950POPC   C3A32237   2.751   4.305   7.955
 7950POPC   C4A32238   2.751   4.311   7.655
 7950POPC   C1B32239   2.570   4.431   8.555
 7950POPC   C2B32240   2.584   4.394   8.255
 7950POPC   C3B32241   2.525   4.416   7.955
 7950POPC   C4B32242   2.500   4.423   7.655
 7951POPC   NC332243  33.833  44.656   9.455
 7951POPC   PO432244  33.800  44.676   9.155
 7951POPC   GL132245  33.849  44.679   8.855
 7951POPC   GL232246  33.777  44.547   8.855
 7951POPC   C1A32247  33.774  44.660   8.555
 7951POPC   D2A32248  33.787  44.659   8.255
 7951POPC   C3A32249  33.783  44.622   7.955
 7951POPC   C4A32250  33.774  44.683   7.655
 7951POPC   C1B32251  33.722  44.456   8.555
 7951POPC   C2B32252  33.715  44.477   8.255
 7951POPC   C3B32253  33.726  44.422   7.955
 7951POPC   C4B32254  33.755  44.431   7.655
 7952POPC   NC332255  13.649  44.646   9.455
 7952POPC   PO432256  13.602  44.706   9.155
 7952POPC   GL132257  13.599  44.616   8.855
 7952POPC   GL232258  13.730  44.671   8.855
 7952POPC   C1A32259  13.638  44.681   8.555
 7952POPC   D2A32260  13.667  44.636   8.255
 7952POPC   C3A32261  13.676  44.696   7.955
 7952POPC   C4A32262  13.661  44.652   7.655
 7952POPC   C1B32263  13.847  44.732   8.555
 7952POPC   C2B32264  13.910  44.701   8.255
 7952POPC   C3B32265  13.866  44.730   7.955
 7952POPC   C4B32266  13.891  44.719   7.655
 7953POPC   NC332267  15.934  43.146   9.455
 7953POPC   PO432268  15.958  43.141   9.155
 7953POPC   GL132269  15.916  43.122   8.855
 7953POPC   GL232270  15.975  43.030   8.855
 7953POPC   C1A32271  15.996  43.073   8.555
 7953POPC   D2A32272  15.924  43.092   8.255
 7953POPC   C3A32273  15.909  43.081   7.955
 7953POPC   C4A32274  15.976  43.090   7.655
 7953POPC   C1B32275  16.112  42.890   8.555
 7953POPC   C2B32276  16.104  42.890   8.255
 7953POPC   C3B32277  16.092  42.889   7.955
 7953POPC   C4B32278  16.054  42.908   7.655
 7954POPC   NC332279  39.229  30.711   9.455
 7954POPC   PO432280  39.273  30.687   9.155
 7954POPC   GL132281  39.280  30.675   8.855
 7954POPC   GL232282  39.347  30.658   8.855
 7954POPC   C1A32283  39.243  30.669   8.555
 7954POPC   D2A32284  39.270  30.659   8.255
 7954POPC   C3A32285  39.190  30.652   7.955
 7954POPC   C4A32286  39.247  30.649   7.655
 7954POPC   C1B32287  39.429  30.557   8.555
 7954POPC   C2B32288  39.378  30.504   8.255
 7954POPC   C3B32289  39.402  30.576   7.955
 7954POPC   C4B32290  39.377  30.560   7.655
 7955POPC   NC332291  29.097   1.197   9.455
 7955POPC   PO432292  29.097   1.244   9.155
 7955POPC   GL132293  29.183   1.166   8.855
 7955POPC   GL232294  29.249   1.140   8.855
 7955POPC   C1A32295  29.131   1.205   8.555
 7955POPC   D2A32296  29.150   1.204   8.255
 7955POPC   C3A32297  29.183   1.202   7.955
 7955POPC   C4A32298  29.111   1.204   7.655
 7955POPC   C1B32299  29.318   1.029   8.555
 7955POPC   C2B32300  29.285   1.008   8.255
 7955POPC   C3B32301  29.317   0.988   7.955
 7955POPC   C4B32302  29.267   1.049   7.655
 7956POPC   NC332303  27.546  32.995   9.455
 7956POPC   PO432304  27.620  33.065   9.155
 7956POPC   GL132305  27.600  33.055   8.855
 7956POPC   GL232306  27.671  32.954   8.855
 7956POPC   C1A32307  27.592  32.998   8.555
 7956POPC   D2A32308  27.560  33.040   8.255
 7956POPC   C3A32309  27.598  33.011   7.955
 7956POPC   C4A32310  27.565  33.040   7.655
 7956POPC   C1B32311  27.696  32.831   8.555
 7956POPC   C2B32312  27.667  32.841   8.255
 7956POPC   C3B32313  27.707  32.821   7.955
 7956POPC   C4B32314  27.656  32.821   7.655
 7957POPC   NC332315  25.274   2.735   9.455
 7957POPC   PO432316  25.288   2.779   9.155
 7957POPC   GL132317  25.236   2.783   8.855
 7957POPC   GL232318  25.165   2.759   8.855
 7957POPC   C1A32319  25.244   2.771   8.555
 7957POPC   D2A32320  25.284   2.746   8.255
 7957POPC   C3A32321  25.226   2.773   7.955
 7957POPC   C4A32322  25.306   2.777   7.655
 7957POPC   C1B32323  24.981   2.828   8.555
 7957POPC   C2B32324  25.077   2.801   8.255
 7957POPC   C3B32325  24.981   2.828   7.955
 7957POPC   C4B32326  25.067   2.854   7.655
 7958POPC   NC332327  15.135   3.559   9.455
 7958POPC   PO432328  15.145   3.511   9.155
 7958POPC   GL132329  15.150   3.579   8.855
 7958POPC   GL232330  15.323   3.507   8.855
 7958POPC   C1A32331  15.181   3.507   8.555
 7958POPC   D2A32332  15.159   3.586   8.255
 7958POPC   C3A32333  15.187   3.557   7.955
 7958POPC   C4A32334  15.162   3.564   7.655
 7958POPC   C1B32335  15.434   3.504   8.555
 7958POPC   C2B32336  15.470   3.490   8.255
 7958POPC   C3B32337  15.439   3.464   7.955
 7958POPC   C4B32338  15.429   3.453   7.655
 7959POPC   NC332339   9.759   5.847   9.455
 7959POPC   PO432340   9.717   5.878   9.155
 7959POPC   GL132341   9.772   5.864   8.855
 7959POPC   GL232342   9.734   5.995   8.855
 7959POPC   C1A32343   9.762   5.888   8.555
 7959POPC   D2A32344   9.709   5.896   8.255
 7959POPC   C3A32345   9.759   5.853   7.955
 7959POPC   C4A32346   9.713   5.887   7.655
 7959POPC   C1B32347   9.770   6.135   8.555
 7959POPC   C2B32348   9.748   6.085   8.255
 7959POPC   C3B32349   9.724   6.126   7.955
 7959POPC   C4B32350   9.771   6.091   7.655
 7960POPC   NC332351  38.424  37.680   9.455
 7960POPC   PO432352  38.490  37.668   9.155
 7960POPC   GL132353  38.504  37.680   8.855
 7960POPC   GL232354  38.314  37.787   8.855
 7960POPC   C1A32355  38.435  37.702   8.555
 7960POPC   D2A32356  38.487  37.638   8.255
 7960POPC   C3A32357  38.462  37.695   7.955
 7960POPC   C4A32358  38.460  37.673   7.655
 7960POPC   C1B32359  38.234  37.775   8.555
 7960POPC   C2B32360  38.221  37.801   8.255
 7960POPC   C3B32361  38.226  37.789   7.955
 7960POPC   C4B32362  38.223  37.814   7.655
 7961POPC   NC332363  18.249   1.947   9.455
 7961POPC   PO432364  18.290   1.968   9.155
 7961POPC   GL132365  18.271   2.000   8.855
 7961POPC   GL232366  18.415   2.015   8.855
 7961POPC   C1A32367  18.246   1.970   8.555
 7961POPC   D2A32368  18.306   1.989   8.255
 7961POPC   C3A32369  18.261   1.959   7.955
 7961POPC   C4A32370  18.243   1.944   7.655
 7961POPC   C1B32371  18.571   2.059   8.555
 7961POPC   C2B32372  18.496   1.994   8.255
 7961POPC   C3B32373  18.565   2.042   7.955
 7961POPC   C4B32374  18.571   2.066   7.655
 7962POPC   NC332375  41.572  22.911   9.455
 7962POPC   PO432376  41.594  22.893   9.155
 7962POPC   GL132377  41.608  22.945   8.855
 7962POPC   GL232378  41.552  23.043   8.855
 7962POPC   C1A32379  41.543  22.914   8.555
 7962POPC   D2A32380  41.554  22.926   8.255
 7962POPC   C3A32381  41.563  22.902   7.955
 7962POPC   C4A32382  41.546  22.907   7.655
 7962POPC   C1B32383  41.462  23.163   8.555
 7962POPC   C2B32384  41.492  23.222   8.255
 7962POPC   C3B32385  41.453  23.174   7.955
 7962POPC   C4B32386  41.475  23.222   7.655
 7963POPC   NC332387   3.584  17.523   9.455
 7963POPC   PO432388   3.574  17.541   9.155
 7963POPC   GL132389   3.530  17.533   8.855
 7963POPC   GL232390   3.653  17.598   8.855
 7963POPC   C1A32391   3.530  17.461   8.555
 7963POPC   D2A32392   3.536  17.463   8.255
 7963POPC   C3A32393   3.500  17.500   7.955
 7963POPC   C4A32394   3.578  17.512   7.655
 7963POPC   C1B32395   3.758  17.647   8.555
 7963POPC   C2B32396   3.748  17.599   8.255
 7963POPC   C3B32397   3.799  17.624   7.955
 7963POPC   C4B32398   3.796  17.598   7.655
 7964POPC   NC332399  22.976  31.491   9.455
 7964POPC   PO432400  22.917  31.471   9.155
 7964POPC   GL132401  22.949  31.460   8.855
 7964POPC   GL232402  22.948  31.363   8.855
 7964POPC   C1A32403  22.903  31.424   8.555
 7964POPC   D2A32404  22.921  31.469   8.255
 7964POPC   C3A32405  22.892  31.424   7.955
 7964POPC   C4A32406  22.905  31.459   7.655
 7964POPC   C1B32407  23.028  31.205   8.555
 7964POPC   C2B32408  23.083  31.288   8.255
 7964POPC   C3B32409  23.046  31.284   7.955
 7964POPC   C4B32410  23.011  31.249   7.655
 7965POPC   NC332411   8.952   9.011   9.455
 7965POPC   PO432412   8.996   8.960   9.155
 7965POPC   GL132413   8.968   9.007   8.855
 7965POPC   GL232414   9.043   8.951   8.855
 7965POPC   C1A32415   9.017   8.984   8.555
 7965POPC   D2A32416   9.007   8.949   8.255
 7965POPC   C3A32417   8.979   8.942   7.955
 7965POPC   C4A32418   8.945   8.928   7.655
 7965POPC   C1B32419   9.235   8.837   8.555
 7965POPC   C2B32420   9.183   8.873   8.255
 7965POPC   C3B32421   9.182   8.894   7.955
 7965POPC   C4B32422   9.143   8.880   7.655
 7966POPC   NC332423  20.638   1.251   9.455
 7966POPC   PO432424  20.569   1.191   9.155
 7966POPC   GL132425  20.648   1.255   8.855
 7966POPC   GL232426  20.645   1.363   8.855
 7966POPC   C1A32427  20.634   1.191   8.555
 7966POPC   D2A32428  20.632   1.180   8.255
 7966POPC   C3A32429  20.619   1.173   7.955
 7966POPC   C4A32430  20.654   1.191   7.655
 7966POPC   C1B32431  20.723   1.458   8.555
 7966POPC   C2B32432  20.739   1.395   8.255
 7966POPC   C3B32433  20.698   1.401   7.955
 7966POPC   C4B32434  20.777   1.476   7.655
 7967POPC   NC332435  26.081  27.622   9.455
 7967POPC   PO432436  26.009  27.551   9.155
 7967POPC   GL132437  26.076  27.623   8.855
 7967POPC   GL232438  25.956  27.696   8.855
 7967POPC   C1A32439  26.089  27.596   8.555
 7967POPC   D2A32440  26.004  27.566   8.255
 7967POPC   C3A32441  26.058  27.577   7.955
 7967POPC   C4A32442  26.053  27.559   7.655
 7967POPC   C1B32443  25.988  27.801   8.555
 7967POPC   C2B32444  25.963  27.867   8.255
 7967POPC   C3B32445  25.945  27.847   7.955
 7967POPC   C4B32446  25.967  27.820   7.655
 7968POPC   NC332447   2.761  37.719   9.455
 7968POPC   PO432448   2.737  37.712   9.155
 7968POPC   GL132449   2.730  37.662   8.855
 7968POPC   GL232450   2.848  37.524   8.855
 7968POPC   C1A32451   2.775  37.675   8.555
 7968POPC   D2A32452   2.757  37.729   8.255
 7968POPC   C3A32453   2.792  37.693   7.955
 7968POPC   C4A32454   2.751  37.690   7.655
 7968POPC   C1B32455   2.928  37.424   8.555
 7968POPC   C2B32456   2.853  37.452   8.255
 7968POPC   C3B32457   2.938  37.464   7.955
 7968POPC   C4B32458   2.946  37.515   7.655
 7969POPC   NC332459  23.716  27.587   9.455
 7969POPC   PO432460  23.702  27.630   9.155
 7969POPC   GL132461  23.702  27.576   8.855
 7969POPC   GL232462  23.799  27.648   8.855
 7969POPC   C1A32463  23.754  27.557   8.555
 7969POPC   D2A32464  23.760  27.545   8.255
 7969POPC   C3A32465  23.722  27.630   7.955
 7969POPC   C4A32466  23.684  27.594   7.655
 7969POPC   C1B32467  23.916  27.763   8.555
 7969POPC   C2B32468  23.892  27.837   8.255
 7969POPC   C3B32469  23.857  27.788   7.955
 7969POPC   C4B32470  23.855  27.821   7.655
 7970POPC   NC332471  11.253  11.256   9.455
 7970POPC   PO432472  11.271  11.250   9.155
 7970POPC   GL132473  11.325  11.308   8.855
 7970POPC   GL232474  11.187  11.423   8.855
 7970POPC   C1A32475  11.269  11.330   8.555
 7970POPC   D2A32476  11.310  11.251   8.255
 7970POPC   C3A32477  11.289  11.300   7.955
 7970POPC   C4A32478  11.273  11.327   7.655
 7970POPC   C1B32479  11.137  11.542   8.555
 7970POPC   C2B32480  11.167  11.522   8.255
 7970POPC   C3B32481  11.211  11.556   7.955
 7970POPC   C4B32482  11.144  11.503   7.655
 7971POPC   NC332483  41.560  40.818   9.455
 7971POPC   PO432484  41.552  40.773   9.155
 7971POPC   GL132485  41.534  40.825   8.855
 7971POPC   GL232486  41.705  40.856   8.855
 7971POPC   C1A32487  41.520  40.739   8.555
 7971POPC   D2A32488  41.573  40.815   8.255
 7971POPC   C3A32489  41.542  40.808   7.955
 7971POPC   C4A32490  41.521  40.815   7.655
 7971POPC   C1B32491  41.783  40.832   8.555
 7971POPC   C2B32492  41.828  40.897   8.255
 7971POPC   C3B32493  41.828  40.875   7.955
 7971POPC   C4B32494  41.789  40.896   7.655
 7972POPC   NC332495  40.772  26.858   9.455
 7972POPC   PO432496  40.823  26.827   9.155
 7972POPC   GL132497  40.746  26.823   8.855
 7972POPC   GL232498  40.690  26.880   8.855
 7972POPC   C1A32499  40.803  26.795   8.555
 7972POPC   D2A32500  40.745  26.845   8.255
 7972POPC   C3A32501  40.744  26.814   7.955
 7972POPC   C4A32502  40.769  26.823   7.655
 7972POPC   C1B32503  40.581  26.972   8.555
 7972POPC   C2B32504  40.539  26.920   8.255
 7972POPC   C3B32505  40.566  26.943   7.955
 7972POPC   C4B32506  40.556  26.928   7.655
 7973POPC   NC332507  34.532   5.897   9.455
 7973POPC   PO432508  34.577   5.871   9.155
 7973POPC   GL132509  34.598   5.874   8.855
 7973POPC   GL232510  34.698   5.805   8.855
 7973POPC   C1A32511  34.563   5.893   8.555
 7973POPC   D2A32512  34.527   5.831   8.255
 7973POPC   C3A32513  34.608   5.865   7.955
 7973POPC   C4A32514  34.619   5.843   7.655
 7973POPC   C1B32515  34.737   5.672   8.555
 7973POPC   C2B32516  34.686   5.636   8.255
 7973POPC   C3B32517  34.691   5.655   7.955
 7973POPC   C4B32518  34.719   5.705   7.655
 7974POPC   NC332519  35.391  19.023   9.455
 7974POPC   PO432520  35.306  19.043   9.155
 7974POPC   GL132521  35.340  19.078   8.855
 7974POPC   GL232522  35.361  19.198   8.855
 7974POPC   C1A32523  35.332  19.100   8.555
 7974POPC   D2A32524  35.324  19.080   8.255
 7974POPC   C3A32525  35.375  19.059   7.955
 7974POPC   C4A32526  35.326  19.039   7.655
 7974POPC   C1B32527  35.431  19.261   8.555
 7974POPC   C2B32528  35.420  19.235   8.255
 7974POPC   C3B32529  35.472  19.293   7.955
 7974POPC   C4B32530  35.431  19.297   7.655
 7975POPC   NC332531  19.881  30.673   9.455
 7975POPC   PO432532  19.857  30.714   9.155
 7975POPC   GL132533  19.822  30.677   8.855
 7975POPC   GL232534  19.845  30.545   8.855
 7975POPC   C1A32535  19.879  30.731   8.555
 7975POPC   D2A32536  19.880  30.652   8.255
 7975POPC   C3A32537  19.840  30.693   7.955
 7975POPC   C4A32538  19.851  30.712   7.655
 7975POPC   C1B32539  19.801  30.469   8.555
 7975POPC   C2B32540  19.862  30.470   8.255
 7975POPC   C3B32541  19.855  30.484   7.955
 7975POPC   C4B32542  19.887  30.466   7.655
 7976POPC   NC332543  11.270   0.425   9.455
 7976POPC   PO432544  11.326   0.415   9.155
 7976POPC   GL132545  11.342   0.453   8.855
 7976POPC   GL232546  11.417   0.486   8.855
 7976POPC   C1A32547  11.295   0.389   8.555
 7976POPC   D2A32548  11.276   0.436   8.255
 7976POPC   C3A32549  11.279   0.469   7.955
 7976POPC   C4A32550  11.313   0.442   7.655
 7976POPC   C1B32551  11.480   0.587   8.555
 7976POPC   C2B32552  11.507   0.622   8.255
 7976POPC   C3B32553  11.542   0.600   7.955
 7976POPC   C4B32554  11.542   0.570   7.655
 7977POPC   NC332555   9.781   0.440   9.455
 7977POPC   PO432556   9.794   0.439   9.155
 7977POPC   GL132557   9.726   0.472   8.855
 7977POPC   GL232558   9.680   0.545   8.855
 7977POPC   C1A32559   9.789   0.396   8.555
 7977POPC   D2A32560   9.738   0.389   8.255
 7977POPC   C3A32561   9.764   0.396   7.955
 7977POPC   C4A32562   9.730   0.389   7.655
 7977POPC   C1B32563   9.554   0.525   8.555
 7977POPC   C2B32564   9.573   0.541   8.255
 7977POPC   C3B32565   9.524   0.544   7.955
 7977POPC   C4B32566   9.521   0.565   7.655
 7978POPC   NC332567  15.210   8.166   9.455
 7978POPC   PO432568  15.175   8.193   9.155
 7978POPC   GL132569  15.223   8.210   8.855
 7978POPC   GL232570  15.205   8.348   8.855
 7978POPC   C1A32571  15.155   8.207   8.555
 7978POPC   D2A32572  15.199   8.187   8.255
 7978POPC   C3A32573  15.212   8.149   7.955
 7978POPC   C4A32574  15.185   8.188   7.655
 7978POPC   C1B32575  15.113   8.411   8.555
 7978POPC   C2B32576  15.174   8.459   8.255
 7978POPC   C3B32577  15.133   8.440   7.955
 7978POPC   C4B32578  15.158   8.426   7.655
 7979POPC   NC332579  12.894  11.274   9.455
 7979POPC   PO432580  12.807  11.315   9.155
 7979POPC   GL132581  12.836  11.346   8.855
 7979POPC   GL232582  12.944  11.351   8.855
 7979POPC   C1A32583  12.860  11.279   8.555
 7979POPC   D2A32584  12.881  11.329   8.255
 7979POPC   C3A32585  12.885  11.321   7.955
 7979POPC   C4A32586  12.810  11.276   7.655
 7979POPC   C1B32587  13.102  11.375   8.555
 7979POPC   C2B32588  13.047  11.371   8.255
 7979POPC   C3B32589  13.044  11.447   7.955
 7979POPC   C4B32590  13.063  11.390   7.655
 7980POPC   NC332591   8.181   2.768   9.455
 7980POPC   PO432592   8.152   2.790   9.155
 7980POPC   GL132593   8.157   2.747   8.855
 7980POPC   GL232594   8.080   2.689   8.855
 7980POPC   C1A32595   8.244   2.812   8.555
 7980POPC   D2A32596   8.183   2.812   8.255
 7980POPC   C3A32597   8.178   2.751   7.955
 7980POPC   C4A32598   8.208   2.739   7.655
 7980POPC   C1B32599   7.946   2.725   8.555
 7980POPC   C2B32600   7.927   2.632   8.255
 7980POPC   C3B32601   8.004   2.635   7.955
 7980POPC   C4B32602   7.917   2.649   7.655
 7981POPC   NC332603   4.327   0.452   9.455
 7981POPC   PO432604   4.295   0.445   9.155
 7981POPC   GL132605   4.328   0.484   8.855
 7981POPC   GL232606   4.403   0.510   8.855
 7981POPC   C1A32607   4.324   0.394   8.555
 7981POPC   D2A32608   4.289   0.414   8.255
 7981POPC   C3A32609   4.333   0.461   7.955
 7981POPC   C4A32610   4.330   0.413   7.655
 7981POPC   C1B32611   4.435   0.644   8.555
 7981POPC   C2B32612   4.375   0.625   8.255
 7981POPC   C3B32613   4.366   0.673   7.955
 7981POPC   C4B32614   4.365   0.713   7.655
 7982POPC   NC332615  29.146   4.299   9.455
 7982POPC   PO432616  29.126   4.355   9.155
 7982POPC   GL132617  29.195   4.319   8.855
 7982POPC   GL232618  29.008   4.236   8.855
 7982POPC   C1A32619  29.183   4.274   8.555
 7982POPC   D2A32620  29.173   4.274   8.255
 7982POPC   C3A32621  29.143   4.317   7.955
 7982POPC   C4A32622  29.107   4.316   7.655
 7982POPC   C1B32623  28.998   4.123   8.555
 7982POPC   C2B32624  28.964   4.123   8.255
 7982POPC   C3B32625  29.001   4.125   7.955
 7982POPC   C4B32626  28.930   4.139   7.655
 7983POPC   NC332627  27.544   1.981   9.455
 7983POPC   PO432628  27.636   2.039   9.155
 7983POPC   GL132629  27.580   1.997   8.855
 7983POPC   GL232630  27.500   2.027   8.855
 7983POPC   C1A32631  27.624   1.993   8.555
 7983POPC   D2A32632  27.590   1.969   8.255
 7983POPC   C3A32633  27.549   2.024   7.955
 7983POPC   C4A32634  27.587   1.943   7.655
 7983POPC   C1B32635  27.302   1.966   8.555
 7983POPC   C2B32636  27.386   1.968   8.255
 7983POPC   C3B32637  27.347   1.966   7.955
 7983POPC   C4B32638  27.368   1.991   7.655
 7984POPC   NC332639  25.280  43.141   9.455
 7984POPC   PO432640  25.293  43.106   9.155
 7984POPC   GL132641  25.270  43.139   8.855
 7984POPC   GL232642  25.251  43.281   8.855
 7984POPC   C1A32643  25.289  43.084   8.555
 7984POPC   D2A32644  25.283  43.091   8.255
 7984POPC   C3A32645  25.289  43.072   7.955
 7984POPC   C4A32646  25.292  43.098   7.655
 7984POPC   C1B32647  25.328  43.387   8.555
 7984POPC   C2B32648  25.281  43.382   8.255
 7984POPC   C3B32649  25.355  43.393   7.955
 7984POPC   C4B32650  25.312  43.324   7.655
 7985POPC   NC332651  40.004  24.497   9.455
 7985POPC   PO432652  39.960  24.455   9.155
 7985POPC   GL132653  40.030  24.490   8.855
 7985POPC   GL232654  40.141  24.432   8.855
 7985POPC   C1A32655  40.005  24.456   8.555
 7985POPC   D2A32656  39.965  24.481   8.255
 7985POPC   C3A32657  39.965  24.477   7.955
 7985POPC   C4A32658  39.987  24.513   7.655
 7985POPC   C1B32659  40.150  24.368   8.555
 7985POPC   C2B32660  40.220  24.361   8.255
 7985POPC   C3B32661  40.153  24.344   7.955
 7985POPC   C4B32662  40.213  24.320   7.655
 7986POPC   NC332663  12.878  22.149   9.455
 7986POPC   PO432664  12.848  22.134   9.155
 7986POPC   GL132665  12.854  22.211   8.855
 7986POPC   GL232666  12.990  22.227   8.855
 7986POPC   C1A32667  12.844  22.154   8.555
 7986POPC   D2A32668  12.824  22.197   8.255
 7986POPC   C3A32669  12.872  22.122   7.955
 7986POPC   C4A32670  12.891  22.154   7.655
 7986POPC   C1B32671  13.085  22.216   8.555
 7986POPC   C2B32672  13.067  22.223   8.255
 7986POPC   C3B32673  13.102  22.262   7.955
 7986POPC   C4B32674  13.127  22.246   7.655
 7987POPC   NC332675  18.287  26.091   9.455
 7987POPC   PO432676  18.277  26.023   9.155
 7987POPC   GL132677  18.309  26.032   8.855
 7987POPC   GL232678  18.264  26.200   8.855
 7987POPC   C1A32679  18.301  26.080   8.555
 7987POPC   D2A32680  18.317  26.047   8.255
 7987POPC   C3A32681  18.275  26.040   7.955
 7987POPC   C4A32682  18.269  26.072   7.655
 7987POPC   C1B32683  18.137  26.310   8.555
 7987POPC   C2B32684  18.210  26.278   8.255
 7987POPC   C3B32685  18.137  26.302   7.955
 7987POPC   C4B32686  18.190  26.265   7.655
 7988POPC   NC332687  26.793  29.108   9.455
 7988POPC   PO432688  26.783  29.177   9.155
 7988POPC   GL132689  26.770  29.109   8.855
 7988POPC   GL232690  26.705  29.202   8.855
 7988POPC   C1A32691  26.803  29.113   8.555
 7988POPC   D2A32692  26.830  29.181   8.255
 7988POPC   C3A32693  26.807  29.110   7.955
 7988POPC   C4A32694  26.850  29.193   7.655
 7988POPC   C1B32695  26.665  29.359   8.555
 7988POPC   C2B32696  26.641  29.329   8.255
 7988POPC   C3B32697  26.688  29.300   7.955
 7988POPC   C4B32698  26.665  29.378   7.655
 7989POPC   NC332699   1.217  28.398   9.455
 7989POPC   PO432700   1.213  28.352   9.155
 7989POPC   GL132701   1.234  28.358   8.855
 7989POPC   GL232702   1.238  28.488   8.855
 7989POPC   C1A32703   1.179  28.402   8.555
 7989POPC   D2A32704   1.210  28.417   8.255
 7989POPC   C3A32705   1.165  28.340   7.955
 7989POPC   C4A32706   1.225  28.337   7.655
 7989POPC   C1B32707   1.197  28.632   8.555
 7989POPC   C2B32708   1.153  28.588   8.255
 7989POPC   C3B32709   1.230  28.601   7.955
 7989POPC   C4B32710   1.236  28.628   7.655
 7990POPC   NC332711  12.105  36.907   9.455
 7990POPC   PO432712  12.036  36.935   9.155
 7990POPC   GL132713  12.118  36.919   8.855
 7990POPC   GL232714  11.987  36.819   8.855
 7990POPC   C1A32715  12.097  36.906   8.555
 7990POPC   D2A32716  12.030  36.872   8.255
 7990POPC   C3A32717  12.097  36.952   7.955
 7990POPC   C4A32718  12.081  36.854   7.655
 7990POPC   C1B32719  11.851  36.741   8.555
 7990POPC   C2B32720  11.832  36.717   8.255
 7990POPC   C3B32721  11.904  36.761   7.955
 7990POPC   C4B32722  11.877  36.736   7.655
 7991POPC   NC332723  20.567  44.613   9.455
 7991POPC   PO432724  20.607  44.617   9.155
 7991POPC   GL132725  20.613  44.614   8.855
 7991POPC   GL232726  20.725  44.572   8.855
 7991POPC   C1A32727  20.643  44.697   8.555
 7991POPC   D2A32728  20.596  44.675   8.255
 7991POPC   C3A32729  20.620  44.702   7.955
 7991POPC   C4A32730  20.656  44.656   7.655
 7991POPC   C1B32731  20.769  44.518   8.555
 7991POPC   C2B32732  20.784  44.435   8.255
 7991POPC   C3B32733  20.761  44.492   7.955
 7991POPC   C4B32734  20.753  44.493   7.655
 7992POPC   NC332735   3.517  18.251   9.455
 7992POPC   PO432736   3.552  18.306   9.155
 7992POPC   GL132737   3.518  18.256   8.855
 7992POPC   GL232738   3.628  18.382   8.855
 7992POPC   C1A32739   3.582  18.331   8.555
 7992POPC   D2A32740   3.540  18.247   8.255
 7992POPC   C3A32741   3.584  18.298   7.955
 7992POPC   C4A32742   3.590  18.330   7.655
 7992POPC   C1B32743   3.768  18.419   8.555
 7992POPC   C2B32744   3.731  18.406   8.255
 7992POPC   C3B32745   3.716  18.363   7.955
 7992POPC   C4B32746   3.792  18.403   7.655
 7993POPC   NC332747   7.444  18.274   9.455
 7993POPC   PO432748   7.406  18.273   9.155
 7993POPC   GL132749   7.424  18.236   8.855
 7993POPC   GL232750   7.289  18.205   8.855
 7993POPC   C1A32751   7.378  18.286   8.555
 7993POPC   D2A32752   7.386  18.304   8.255
 7993POPC   C3A32753   7.443  18.233   7.955
 7993POPC   C4A32754   7.380  18.318   7.655
 7993POPC   C1B32755   7.165  18.123   8.555
 7993POPC   C2B32756   7.225  18.109   8.255
 7993POPC   C3B32757   7.161  18.181   7.955
 7993POPC   C4B32758   7.191  18.183   7.655
 7994POPC   NC332759   4.280  18.304   9.455
 7994POPC   PO432760   4.290  18.262   9.155
 7994POPC   GL132761   4.329  18.241   8.855
 7994POPC   GL232762   4.305  18.190   8.855
 7994POPC   C1A32763   4.327  18.248   8.555
 7994POPC   D2A32764   4.344  18.310   8.255
 7994POPC   C3A32765   4.324  18.330   7.955
 7994POPC   C4A32766   4.353  18.240   7.655
 7994POPC   C1B32767   4.267  18.010   8.555
 7994POPC   C2B32768   4.295  18.022   8.255
 7994POPC   C3B32769   4.288  18.061   7.955
 7994POPC   C4B32770   4.251  18.027   7.655
 7995POPC   NC332771  33.797   4.339   9.455
 7995POPC   PO432772  33.844   4.271   9.155
 7995POPC   GL132773  33.816   4.295   8.855
 7995POPC   GL232774  33.873   4.221   8.855
 7995POPC   C1A32775  33.783   4.319   8.555
 7995POPC   D2A32776  33.771   4.294   8.255
 7995POPC   C3A32777  33.760   4.285   7.955
 7995POPC   C4A32778  33.821   4.318   7.655
 7995POPC   C1B32779  33.950   4.145   8.555
 7995POPC   C2B32780  33.969   4.092   8.255
 7995POPC   C3B32781  33.957   4.108   7.955
 7995POPC   C4B32782  33.937   4.167   7.655
 7996POPC   NC332783  36.909  31.433   9.455
 7996POPC   PO432784  36.911  31.519   9.155
 7996POPC   GL132785  36.902  31.425   8.855
 7996POPC   GL232786  36.897  31.553   8.855
 7996POPC   C1A32787  36.897  31.480   8.555
 7996POPC   D2A32788  36.891  31.495   8.255
 7996POPC   C3A32789  36.934  31.509   7.955
 7996POPC   C4A32790  36.943  31.473   7.655
 7996POPC   C1B32791  36.828  31.684   8.555
 7996POPC   C2B32792  36.842  31.723   8.255
 7996POPC   C3B32793  36.865  31.671   7.955
 7996POPC   C4B32794  36.780  31.674   7.655
 7997POPC   NC332795  41.587   5.913   9.455
 7997POPC   PO432796  41.578   5.862   9.155
 7997POPC   GL132797  41.541   5.839   8.855
 7997POPC   GL232798  41.558   5.720   8.855
 7997POPC   C1A32799  41.577   5.871   8.555
 7997POPC   D2A32800  41.533   5.877   8.255
 7997POPC   C3A32801  41.589   5.827   7.955
 7997POPC   C4A32802  41.577   5.878   7.655
 7997POPC   C1B32803  41.535   5.606   8.555
 7997POPC   C2B32804  41.457   5.676   8.255
 7997POPC   C3B32805  41.541   5.610   7.955
 7997POPC   C4B32806  41.488   5.649   7.655
 7998POPC   NC332807  39.217  18.233   9.455
 7998POPC   PO432808  39.204  18.287   9.155
 7998POPC   GL132809  39.228  18.271   8.855
 7998POPC   GL232810  39.095  18.195   8.855
 7998POPC   C1A32811  39.266  18.263   8.555
 7998POPC   D2A32812  39.263  18.279   8.255
 7998POPC   C3A32813  39.226  18.283   7.955
 7998POPC   C4A32814  39.215  18.270   7.655
 7998POPC   C1B32815  38.970  18.180   8.555
 7998POPC   C2B32816  38.962  18.194   8.255
 7998POPC   C3B32817  39.047  18.146   7.955
 7998POPC   C4B32818  39.038  18.183   7.655
 7999POPC   NC332819  44.629  33.766   9.455
 7999POPC   PO432820  44.688  33.807   9.155
 7999POPC   GL132821  44.631  33.806   8.855
 7999POPC   GL232822  44.563  33.848   8.855
 7999POPC   C1A32823  44.622  33.835   8.555
 7999POPC   D2A32824  44.636  33.816   8.255
 7999POPC   C3A32825  44.667  33.768   7.955
 7999POPC   C4A32826  44.699  33.755   7.655
 7999POPC   C1B32827  44.397  33.951   8.555
 7999POPC   C2B32828  44.429  33.949   8.255
 7999POPC   C3B32829  44.436  33.928   7.955
 7999POPC   C4B32830  44.479  33.950   7.655
 8000POPC   NC332831  40.020   0.440   9.455
 8000POPC   PO432832  39.973   0.434   9.155
 8000POPC   GL132833  40.017   0.402   8.855
 8000POPC   GL232834  39.968   0.303   8.855
 8000POPC   C1A32835  40.048   0.474   8.555
 8000POPC   D2A32836  40.047   0.420   8.255
 8000POPC   C3A32837  39.972   0.451   7.955
 8000POPC   C4A32838  40.045   0.471   7.655
 8000POPC   C1B32839  39.932   0.163   8.555
 8000POPC   C2B32840  39.929   0.224   8.255
 8000POPC   C3B32841  39.865   0.191   7.955
 8000POPC   C4B32842  39.952   0.193   7.655
 8001POPC   NC332843   3.549   6.676   9.455
 8001POPC   PO432844   3.513   6.678   9.155
 8001POPC   GL132845   3.533   6.687   8.855
 8001POPC   GL232846   3.519   6.479   8.855
 8001POPC   C1A32847   3.518   6.630   8.555
 8001POPC   D2A32848   3.570   6.687   8.255
 8001POPC   C3A32849   3.540   6.600   7.955
 8001POPC   C4A32850   3.532   6.655   7.655
 8001POPC   C1B32851   3.528   6.403   8.555
 8001POPC   C2B32852   3.471   6.383   8.255
 8001POPC   C3B32853   3.471   6.384   7.955
 8001POPC   C4B32854   3.486   6.445   7.655
 8002POPC   NC332855  37.636  21.366   9.455
 8002POPC   PO432856  37.691  21.343   9.155
 8002POPC   GL132857  37.640  21.393   8.855
 8002POPC   GL232858  37.756  21.405   8.855
 8002POPC   C1A32859  37.717  21.389   8.555
 8002POPC   D2A32860  37.717  21.345   8.255
 8002POPC   C3A32861  37.652  21.425   7.955
 8002POPC   C4A32862  37.684  21.404   7.655
 8002POPC   C1B32863  37.879  21.428   8.555
 8002POPC   C2B32864  37.915  21.448   8.255
 8002POPC   C3B32865  37.908  21.441   7.955
 8002POPC   C4B32866  37.938  21.426   7.655
 8003POPC   NC332867   7.404  29.876   9.455
 8003POPC   PO432868   7.381  29.931   9.155
 8003POPC   GL132869   7.464  29.902   8.855
 8003POPC   GL232870   7.551  29.909   8.855
 8003POPC   C1A32871   7.413  29.934   8.555
 8003POPC   D2A32872   7.455  29.899   8.255
 8003POPC   C3A32873   7.455  29.969   7.955
 8003POPC   C4A32874   7.452  29.961   7.655
 8003POPC   C1B32875   7.644  29.914   8.555
 8003POPC   C2B32876   7.695  29.897   8.255
 8003POPC   C3B32877   7.637  29.896   7.955
 8003POPC   C4B32878   7.648  29.857   7.655
 8004POPC   NC332879  11.326  36.910   9.455
 8004POPC   PO432880  11.271  36.947   9.155
 8004POPC   GL132881  11.276  36.873   8.855
 8004POPC   GL232882  11.310  37.040   8.855
 8004POPC   C1A32883  11.302  36.891   8.555
 8004POPC   D2A32884  11.303  36.940   8.255
 8004POPC   C3A32885  11.263  36.877   7.955
 8004POPC   C4A32886  11.283  36.855   7.655
 8004POPC   C1B32887  11.356  37.111   8.555
 8004POPC   C2B32888  11.313  37.197   8.255
 8004POPC   C3B32889  11.312  37.104   7.955
 8004POPC   C4B32890  11.330  37.123   7.655
 8005POPC   NC332891  15.924  22.908   9.455
 8005POPC   PO432892  15.996  22.914   9.155
 8005POPC   GL132893  15.965  22.900   8.855
 8005POPC   GL232894  15.817  22.987   8.855
 8005POPC   C1A32895  15.936  22.957   8.555
 8005POPC   D2A32896  15.969  22.916   8.255
 8005POPC   C3A32897  15.979  22.983   7.955
 8005POPC   C4A32898  15.988  22.984   7.655
 8005POPC   C1B32899  15.670  22.900   8.555
 8005POPC   C2B32900  15.692  22.982   8.255
 8005POPC   C3B32901  15.712  22.976   7.955
 8005POPC   C4B32902  15.747  22.986   7.655
 8006POPC   NC332903   6.595  40.050   9.455
 8006POPC   PO432904   6.687  40.004   9.155
 8006POPC   GL132905   6.602  40.039   8.855
 8006POPC   GL232906   6.568  39.969   8.855
 8006POPC   C1A32907   6.655  40.001   8.555
 8006POPC   D2A32908   6.608  40.043   8.255
 8006POPC   C3A32909   6.647  40.055   7.955
 8006POPC   C4A32910   6.659  40.001   7.655
 8006POPC   C1B32911   6.378  39.881   8.555
 8006POPC   C2B32912   6.411  39.968   8.255
 8006POPC   C3B32913   6.451  39.892   7.955
 8006POPC   C4B32914   6.392  39.933   7.655
 8007POPC   NC332915  26.091  13.586   9.455
 8007POPC   PO432916  26.037  13.592   9.155
 8007POPC   GL132917  26.031  13.584   8.855
 8007POPC   GL232918  26.034  13.753   8.855
 8007POPC   C1A32919  26.027  13.589   8.555
 8007POPC   D2A32920  26.008  13.648   8.255
 8007POPC   C3A32921  26.068  13.587   7.955
 8007POPC   C4A32922  26.073  13.602   7.655
 8007POPC   C1B32923  26.091  13.844   8.555
 8007POPC   C2B32924  26.085  13.876   8.255
 8007POPC   C3B32925  26.135  13.906   7.955
 8007POPC   C4B32926  26.149  13.865   7.655
 8008POPC   NC332927   2.718  29.961   9.455
 8008POPC   PO432928   2.794  29.946   9.155
 8008POPC   GL132929   2.772  29.934   8.855
 8008POPC   GL232930   2.638  29.856   8.855
 8008POPC   C1A32931   2.716  29.952   8.555
 8008POPC   D2A32932   2.773  29.922   8.255
 8008POPC   C3A32933   2.735  29.916   7.955
 8008POPC   C4A32934   2.774  29.930   7.655
 8008POPC   C1B32935   2.625  29.753   8.555
 8008POPC   C2B32936   2.571  29.756   8.255
 8008POPC   C3B32937   2.580  29.754   7.955
 8008POPC   C4B32938   2.641  29.692   7.655
 8009POPC   NC332939  26.036   9.767   9.455
 8009POPC   PO432940  26.016   9.747   9.155
 8009POPC   GL132941  26.076   9.759   8.855
 8009POPC   GL232942  26.173   9.713   8.855
 8009POPC   C1A32943  26.061   9.788   8.555
 8009POPC   D2A32944  26.060   9.714   8.255
 8009POPC   C3A32945  26.032   9.795   7.955
 8009POPC   C4A32946  25.993   9.761   7.655
 8009POPC   C1B32947  26.258   9.787   8.555
 8009POPC   C2B32948  26.334   9.718   8.255
 8009POPC   C3B32949  26.288   9.727   7.955
 8009POPC   C4B32950  26.333   9.770   7.655
 8010POPC   NC332951   8.167  16.769   9.455
 8010POPC   PO432952   8.212  16.748   9.155
 8010POPC   GL132953   8.229  16.759   8.855
 8010POPC   GL232954   8.169  16.874   8.855
 8010POPC   C1A32955   8.214  16.725   8.555
 8010POPC   D2A32956   8.158  16.685   8.255
 8010POPC   C3A32957   8.244  16.714   7.955
 8010POPC   C4A32958   8.226  16.765   7.655
 8010POPC   C1B32959   8.023  16.969   8.555
 8010POPC   C2B32960   8.010  16.977   8.255
 8010POPC   C3B32961   8.080  16.896   7.955
 8010POPC   C4B32962   8.075  16.928   7.655
 8011POPC   NC332963   5.093  10.531   9.455
 8011POPC   PO432964   5.102  10.571   9.155
 8011POPC   GL132965   5.075  10.540   8.855
 8011POPC   GL232966   5.066  10.398   8.855
 8011POPC   C1A32967   5.061  10.497   8.555
 8011POPC   D2A32968   5.101  10.512   8.255
 8011POPC   C3A32969   5.117  10.549   7.955
 8011POPC   C4A32970   5.086  10.554   7.655
 8011POPC   C1B32971   5.034  10.310   8.555
 8011POPC   C2B32972   5.040  10.310   8.255
 8011POPC   C3B32973   5.006  10.253   7.955
 8011POPC   C4B32974   5.025  10.266   7.655
 8012POPC   NC332975  22.205  27.642   9.455
 8012POPC   PO432976  22.158  27.582   9.155
 8012POPC   GL132977  22.144  27.636   8.855
 8012POPC   GL232978  22.235  27.555   8.855
 8012POPC   C1A32979  22.165  27.620   8.555
 8012POPC   D2A32980  22.165  27.632   8.255
 8012POPC   C3A32981  22.192  27.613   7.955
 8012POPC   C4A32982  22.112  27.617   7.655
 8012POPC   C1B32983  22.389  27.431   8.555
 8012POPC   C2B32984  22.300  27.406   8.255
 8012POPC   C3B32985  22.319  27.433   7.955
 8012POPC   C4B32986  22.370  27.409   7.655
 8013POPC   NC332987   4.293   9.770   9.455
 8013POPC   PO432988   4.336   9.783   9.155
 8013POPC   GL132989   4.342   9.722   8.855
 8013POPC   GL232990   4.330   9.880   8.855
 8013POPC   C1A32991   4.310   9.760   8.555
 8013POPC   D2A32992   4.284   9.794   8.255
 8013POPC   C3A32993   4.341   9.785   7.955
 8013POPC   C4A32994   4.326   9.763   7.655
 8013POPC   C1B32995   4.333  10.031   8.555
 8013POPC   C2B32996   4.378  10.014   8.255
 8013POPC   C3B32997   4.352  10.034   7.955
 8013POPC   C4B32998   4.326  10.032   7.655
 8014POPC   NC332999   1.253  26.803   9.455
 8014POPC   PO433000   1.239  26.798   9.155
 8014POPC   GL133001   1.201  26.768   8.855
 8014POPC   GL233002   1.207  26.660   8.855
 8014POPC   C1A33003   1.238  26.866   8.555
 8014POPC   D2A33004   1.168  26.860   8.255
 8014POPC   C3A33005   1.208  26.846   7.955
 8014POPC   C4A33006   1.180  26.798   7.655
 8014POPC   C1B33007   1.132  26.609   8.555
 8014POPC   C2B33008   1.193  26.577   8.255
 8014POPC   C3B33009   1.140  26.595   7.955
 8014POPC   C4B33010   1.186  26.599   7.655
 8015POPC   NC333011   2.786  13.654   9.455
 8015POPC   PO433012   2.815  13.645   9.155
 8015POPC   GL133013   2.760  13.664   8.855
 8015POPC   GL233014   2.657  13.567   8.855
 8015POPC   C1A33015   2.769  13.594   8.555
 8015POPC   D2A33016   2.770  13.596   8.255
 8015POPC   C3A33017   2.803  13.643   7.955
 8015POPC   C4A33018   2.733  13.648   7.655
 8015POPC   C1B33019   2.511  13.470   8.555
 8015POPC   C2B33020   2.504  13.479   8.255
 8015POPC   C3B33021   2.521  13.524   7.955
 8015POPC   C4B33022   2.552  13.490   7.655
 8016POPC   NC333023   8.974  25.245   9.455
 8016POPC   PO433024   9.008  25.229   9.155
 8016POPC   GL133025   8.993  25.229   8.855
 8016POPC   GL233026   9.045  25.342   8.855
 8016POPC   C1A33027   8.956  25.302   8.555
 8016POPC   D2A33028   8.948  25.262   8.255
 8016POPC   C3A33029   8.980  25.313   7.955
 8016POPC   C4A33030   8.960  25.315   7.655
 8016POPC   C1B33031   9.097  25.449   8.555
 8016POPC   C2B33032   9.104  25.457   8.255
 8016POPC   C3B33033   9.092  25.485   7.955
 8016POPC   C4B33034   9.091  25.465   7.655
 8017POPC   NC333035  40.006  39.235   9.455
 8017POPC   PO433036  39.976  39.230   9.155
 8017POPC   GL133037  40.023  39.224   8.855
 8017POPC   GL233038  40.170  39.260   8.855
 8017POPC   C1A33039  39.963  39.198   8.555
 8017POPC   D2A33040  40.024  39.244   8.255
 8017POPC   C3A33041  40.030  39.224   7.955
 8017POPC   C4A33042  40.022  39.200   7.655
 8017POPC   C1B33043  40.235  39.258   8.555
 8017POPC   C2B33044  40.267  39.178   8.255
 8017POPC   C3B33045  40.264  39.182   7.955
 8017POPC   C4B33046  40.230  39.212   7.655
 8018POPC   NC333047   6.649  20.635   9.455
 8018POPC   PO433048   6.623  20.630   9.155
 8018POPC   GL133049   6.647  20.620   8.855
 8018POPC   GL233050   6.540  20.540   8.855
 8018POPC   C1A33051   6.613  20.655   8.555
 8018POPC   D2A33052   6.634  20.616   8.255
 8018POPC   C3A33053   6.624  20.658   7.955
 8018POPC   C4A33054   6.694  20.621   7.655
 8018POPC   C1B33055   6.453  20.392   8.555
 8018POPC   C2B33056   6.505  20.421   8.255
 8018POPC   C3B33057   6.476  20.454   7.955
 8018POPC   C4B33058   6.460  20.403   7.655
 8019POPC   NC333059  26.848  40.807   9.455
 8019POPC   PO433060  26.816  40.805   9.155
 8019POPC   GL133061  26.781  40.826   8.855
 8019POPC   GL233062  26.675  40.776   8.855
 8019POPC   C1A33063  26.839  40.776   8.555
 8019POPC   D2A33064  26.861  40.765   8.255
 8019POPC   C3A33065  26.866  40.765   7.955
 8019POPC   C4A33066  26.784  40.822   7.655
 8019POPC   C1B33067  26.615  40.844   8.555
 8019POPC   C2B33068  26.534  40.777   8.255
 8019POPC   C3B33069  26.588  40.795   7.955
 8019POPC   C4B33070  26.519  40.795   7.655
 8020POPC   NC333071  44.656  31.464   9.455
 8020POPC   PO433072  44.683  31.488   9.155
 8020POPC   GL133073  44.623  31.495   8.855
 8020POPC   GL233074  44.535  31.490   8.855
 8020POPC   C1A33075  44.683  31.449   8.555
 8020POPC   D2A33076  44.616  31.460   8.255
 8020POPC   C3A33077  44.634  31.436   7.955
 8020POPC   C4A33078  44.618  31.463   7.655
 8020POPC   C1B33079  44.420  31.385   8.555
 8020POPC   C2B33080  44.451  31.406   8.255
 8020POPC   C3B33081  44.453  31.380   7.955
 8020POPC   C4B33082  44.389  31.466   7.655
 8021POPC   NC333083  13.594  25.267   9.455
 8021POPC   PO433084  13.607  25.263   9.155
 8021POPC   GL133085  13.666  25.290   8.855
 8021POPC   GL233086  13.594  25.177   8.855
 8021POPC   C1A33087  13.631  25.288   8.555
 8021POPC   D2A33088  13.619  25.273   8.255
 8021POPC   C3A33089  13.607  25.293   7.955
 8021POPC   C4A33090  13.622  25.241   7.655
 8021POPC   C1B33091  13.609  25.029   8.555
 8021POPC   C2B33092  13.667  25.017   8.255
 8021POPC   C3B33093  13.620  25.027   7.955
 8021POPC   C4B33094  13.661  25.048   7.655
 8022POPC   NC333095  27.598  31.496   9.455
 8022POPC   PO433096  27.561  31.507   9.155
 8022POPC   GL133097  27.577  31.466   8.855
 8022POPC   GL233098  27.567  31.401   8.855
 8022POPC   C1A33099  27.545  31.503   8.555
 8022POPC   D2A33100  27.545  31.503   8.255
 8022POPC   C3A33101  27.602  31.512   7.955
 8022POPC   C4A33102  27.606  31.450   7.655
 8022POPC   C1B33103  27.462  31.316   8.555
 8022POPC   C2B33104  27.460  31.239   8.255
 8022POPC   C3B33105  27.410  31.222   7.955
 8022POPC   C4B33106  27.459  31.301   7.655
 8023POPC   NC333107  21.425  18.264   9.455
 8023POPC   PO433108  21.376  18.320   9.155
 8023POPC   GL133109  21.363  18.284   8.855
 8023POPC   GL233110  21.283  18.273   8.855
 8023POPC   C1A33111  21.399  18.236   8.555
 8023POPC   D2A33112  21.400  18.326   8.255
 8023POPC   C3A33113  21.367  18.288   7.955
 8023POPC   C4A33114  21.385  18.287   7.655
 8023POPC   C1B33115  21.156  18.305   8.555
 8023POPC   C2B33116  21.192  18.318   8.255
 8023POPC   C3B33117  21.101  18.318   7.955
 8023POPC   C4B33118  21.094  18.348   7.655
 8024POPC   NC333119  27.605   9.766   9.455
 8024POPC   PO433120  27.597   9.765   9.155
 8024POPC   GL133121  27.587   9.730   8.855
 8024POPC   GL233122  27.500   9.838   8.855
 8024POPC   C1A33123  27.585   9.720   8.555
 8024POPC   D2A33124  27.615   9.749   8.255
 8024POPC   C3A33125  27.599   9.762   7.955
 8024POPC   C4A33126  27.618   9.755   7.655
 8024POPC   C1B33127  27.331   9.823   8.555
 8024POPC   C2B33128  27.366   9.864   8.255
 8024POPC   C3B33129  27.402   9.866   7.955
 8024POPC   C4B33130  27.350   9.782   7.655
 8025POPC   NC333131  22.971  41.575   9.455
 8025POPC   PO433132  22.965  41.541   9.155
 8025POPC   GL133133  22.967  41.532   8.855
 8025POPC   GL233134  22.813  41.591   8.855
 8025POPC   C1A33135  22.897  41.579   8.555
 8025POPC   D2A33136  22.958  41.591   8.255
 8025POPC   C3A33137  22.909  41.597   7.955
 8025POPC   C4A33138  22.926  41.523   7.655
 8025POPC   C1B33139  22.694  41.681   8.555
 8025POPC   C2B33140  22.690  41.678   8.255
 8025POPC   C3B33141  22.746  41.701   7.955
 8025POPC   C4B33142  22.708  41.659   7.655
 8026POPC   NC333143  28.342   8.969   9.455
 8026POPC   PO433144  28.376   8.942   9.155
 8026POPC   GL133145  28.320   8.973   8.855
 8026POPC   GL233146  28.340   9.110   8.855
 8026POPC   C1A33147  28.411   8.977   8.555
 8026POPC   D2A33148  28.364   9.010   8.255
 8026POPC   C3A33149  28.319   8.994   7.955
 8026POPC   C4A33150  28.419   9.004   7.655
 8026POPC   C1B33151  28.220   9.166   8.555
 8026POPC   C2B33152  28.266   9.207   8.255
 8026POPC   C3B33153  28.278   9.166   7.955
 8026POPC   C4B33154  28.212   9.195   7.655
 8027POPC   NC333155  42.336  27.587   9.455
 8027POPC   PO433156  42.294  27.568   9.155
 8027POPC   GL133157  42.348  27.553   8.855
 8027POPC   GL233158  42.474  27.473   8.855
 8027POPC   C1A33159  42.291  27.564   8.555
 8027POPC   D2A33160  42.353  27.616   8.255
 8027POPC   C3A33161  42.347  27.632   7.955
 8027POPC   C4A33162  42.329  27.546   7.655
 8027POPC   C1B33163  42.500  27.480   8.555
 8027POPC   C2B33164  42.554  27.434   8.255
 8027POPC   C3B33165  42.521  27.422   7.955
 8027POPC   C4B33166  42.589  27.410   7.655
 8028POPC   NC333167  21.436  28.331   9.455
 8028POPC   PO433168  21.408  28.332   9.155
 8028POPC   GL133169  21.356  28.322   8.855
 8028POPC   GL233170  21.440  28.440   8.855
 8028POPC   C1A33171  21.344  28.327   8.555
 8028POPC   D2A33172  21.397  28.355   8.255
 8028POPC   C3A33173  21.342  28.388   7.955
 8028POPC   C4A33174  21.405  28.372   7.655
 8028POPC   C1B33175  21.537  28.574   8.555
 8028POPC   C2B33176  21.496  28.561   8.255
 8028POPC   C3B33177  21.506  28.554   7.955
 8028POPC   C4B33178  21.537  28.563   7.655
 8029POPC   NC333179   0.478  18.279   9.455
 8029POPC   PO433180   0.433  18.235   9.155
 8029POPC   GL133181   0.455  18.286   8.855
 8029POPC   GL233182   0.503  18.372   8.855
 8029POPC   C1A33183   0.422  18.260   8.555
 8029POPC   D2A33184   0.441  18.306   8.255
 8029POPC   C3A33185   0.459  18.309   7.955
 8029POPC   C4A33186   0.400  18.317   7.655
 8029POPC   C1B33187   0.563  18.457   8.555
 8029POPC   C2B33188   0.600  18.515   8.255
 8029POPC   C3B33189   0.549  18.473   7.955
 8029POPC   C4B33190   0.528  18.541   7.655
 8030POPC   NC333191  32.254  12.117   9.455
 8030POPC   PO433192  32.295  12.103   9.155
 8030POPC   GL133193  32.223  12.078   8.855
 8030POPC   GL233194  32.178  12.141   8.855
 8030POPC   C1A33195  32.292  12.064   8.555
 8030POPC   D2A33196  32.235  12.046   8.255
 8030POPC   C3A33197  32.274  12.053   7.955
 8030POPC   C4A33198  32.272  12.038   7.655
 8030POPC   C1B33199  32.126  12.312   8.555
 8030POPC   C2B33200  32.110  12.230   8.255
 8030POPC   C3B33201  32.139  12.304   7.955
 8030POPC   C4B33202  32.125  12.233   7.655
 8031POPC   NC333203  38.426  40.738   9.455
 8031POPC   PO433204  38.421  40.793   9.155
 8031POPC   GL133205  38.426  40.746   8.855
 8031POPC   GL233206  38.611  40.877   8.855
 8031POPC   C1A33207  38.421  40.786   8.555
 8031POPC   D2A33208  38.461  40.752   8.255
 8031POPC   C3A33209  38.497  40.811   7.955
 8031POPC   C4A33210  38.499  40.799   7.655
 8031POPC   C1B33211  38.692  40.917   8.555
 8031POPC   C2B33212  38.644  40.942   8.255
 8031POPC   C3B33213  38.700  40.876   7.955
 8031POPC   C4B33214  38.722  40.939   7.655
 8032POPC   NC333215  41.549  19.082   9.455
 8032POPC   PO433216  41.571  19.050   9.155
 8032POPC   GL133217  41.558  19.046   8.855
 8032POPC   GL233218  41.727  19.011   8.855
 8032POPC   C1A33219  41.516  19.041   8.555
 8032POPC   D2A33220  41.581  19.040   8.255
 8032POPC   C3A33221  41.605  19.025   7.955
 8032POPC   C4A33222  41.563  19.099   7.655
 8032POPC   C1B33223  41.800  19.048   8.555
 8032POPC   C2B33224  41.831  19.049   8.255
 8032POPC   C3B33225  41.822  19.027   7.955
 8032POPC   C4B33226  41.770  19.074   7.655
 8033POPC   NC333227  29.925  42.383   9.455
 8033POPC   PO433228  29.965  42.364   9.155
 8033POPC   GL133229  29.953  42.342   8.855
 8033POPC   GL233230  29.873  42.442   8.855
 8033POPC   C1A33231  29.915  42.370   8.555
 8033POPC   D2A33232  29.930  42.299   8.255
 8033POPC   C3A33233  29.900  42.368   7.955
 8033POPC   C4A33234  29.878  42.291   7.655
 8033POPC   C1B33235  29.738  42.549   8.555
 8033POPC   C2B33236  29.782  42.525   8.255
 8033POPC   C3B33237  29.723  42.516   7.955
 8033POPC   C4B33238  29.743  42.511   7.655
 8034POPC   NC333239   2.038  19.088   9.455
 8034POPC   PO433240   2.004  19.044   9.155
 8034POPC   GL133241   1.946  19.096   8.855
 8034POPC   GL233242   1.855  19.126   8.855
 8034POPC   C1A33243   1.987  19.035   8.555
 8034POPC   D2A33244   1.981  19.083   8.255
 8034POPC   C3A33245   1.963  19.097   7.955
 8034POPC   C4A33246   2.027  19.060   7.655
 8034POPC   C1B33247   1.827  19.236   8.555
 8034POPC   C2B33248   1.809  19.223   8.255
 8034POPC   C3B33249   1.766  19.179   7.955
 8034POPC   C4B33250   1.809  19.165   7.655
 8035POPC   NC333251  29.141  19.795   9.455
 8035POPC   PO433252  29.102  19.826   9.155
 8035POPC   GL133253  29.108  19.852   8.855
 8035POPC   GL233254  29.241  19.787   8.855
 8035POPC   C1A33255  29.126  19.864   8.555
 8035POPC   D2A33256  29.121  19.803   8.255
 8035POPC   C3A33257  29.131  19.787   7.955
 8035POPC   C4A33258  29.181  19.874   7.655
 8035POPC   C1B33259  29.427  19.793   8.555
 8035POPC   C2B33260  29.358  19.804   8.255
 8035POPC   C3B33261  29.429  19.800   7.955
 8035POPC   C4B33262  29.440  19.884   7.655
 8036POPC   NC333263   8.166   8.203   9.455
 8036POPC   PO433264   8.234   8.194   9.155
 8036POPC   GL133265   8.155   8.196   8.855
 8036POPC   GL233266   8.313   8.059   8.855
 8036POPC   C1A33267   8.155   8.228   8.555
 8036POPC   D2A33268   8.210   8.244   8.255
 8036POPC   C3A33269   8.152   8.237   7.955
 8036POPC   C4A33270   8.193   8.230   7.655
 8036POPC   C1B33271   8.303   8.029   8.555
 8036POPC   C2B33272   8.372   7.980   8.255
 8036POPC   C3B33273   8.347   8.021   7.955
 8036POPC   C4B33274   8.395   7.956   7.655
 8037POPC   NC333275  30.730   2.010   9.455
 8037POPC   PO433276  30.702   1.966   9.155
 8037POPC   GL133277  30.726   2.008   8.855
 8037POPC   GL233278  30.755   1.870   8.855
 8037POPC   C1A33279  30.652   1.996   8.555
 8037POPC   D2A33280  30.656   1.989   8.255
 8037POPC   C3A33281  30.684   1.963   7.955
 8037POPC   C4A33282  30.725   2.034   7.655
 8037POPC   C1B33283  30.732   1.727   8.555
 8037POPC   C2B33284  30.777   1.773   8.255
 8037POPC   C3B33285  30.753   1.760   7.955
 8037POPC   C4B33286  30.803   1.724   7.655
 8038POPC   NC333287  15.932  19.878   9.455
 8038POPC   PO433288  15.943  19.793   9.155
 8038POPC   GL133289  15.910  19.841   8.855
 8038POPC   GL233290  15.951  19.912   8.855
 8038POPC   C1A33291  15.920  19.822   8.555
 8038POPC   D2A33292  15.951  19.843   8.255
 8038POPC   C3A33293  15.974  19.801   7.955
 8038POPC   C4A33294  15.989  19.825   7.655
 8038POPC   C1B33295  15.912  20.068   8.555
 8038POPC   C2B33296  15.911  20.034   8.255
 8038POPC   C3B33297  15.851  20.092   7.955
 8038POPC   C4B33298  15.843  20.080   7.655
 8039POPC   NC333299  12.819  20.658   9.455
 8039POPC   PO433300  12.835  20.645   9.155
 8039POPC   GL133301  12.851  20.578   8.855
 8039POPC   GL233302  12.978  20.588   8.855
 8039POPC   C1A33303  12.888  20.573   8.555
 8039POPC   D2A33304  12.862  20.597   8.255
 8039POPC   C3A33305  12.841  20.589   7.955
 8039POPC   C4A33306  12.807  20.655   7.655
 8039POPC   C1B33307  13.076  20.641   8.555
 8039POPC   C2B33308  13.105  20.680   8.255
 8039POPC   C3B33309  13.136  20.667   7.955
 8039POPC   C4B33310  13.076  20.662   7.655
 8040POPC   NC333311  44.620  41.553   9.455
 8040POPC   PO433312  44.693  41.517   9.155
 8040POPC   GL133313  44.633  41.543   8.855
 8040POPC   GL233314  44.704  41.605   8.855
 8040POPC   C1A33315  44.636  41.589   8.555
 8040POPC   D2A33316  44.707  41.545   8.255
 8040POPC   C3A33317  44.700  41.527   7.955
 8040POPC   C4A33318  44.685  41.599   7.655
 8040POPC   C1B33319  44.838  41.705   8.555
 8040POPC   C2B33320  44.823  41.745   8.255
 8040POPC   C3B33321  44.834  41.698   7.955
 8040POPC   C4B33322  44.829  41.704   7.655
 8041POPC   NC333323   3.495  15.205   9.455
 8041POPC   PO433324   3.492  15.208   9.155
 8041POPC   GL133325   3.524  15.141   8.855
 8041POPC   GL233326   3.696  15.265   8.855
 8041POPC   C1A33327   3.494  15.203   8.555
 8041POPC   D2A33328   3.534  15.180   8.255
 8041POPC   C3A33329   3.501  15.189   7.955
 8041POPC   C4A33330   3.586  15.218   7.655
 8041POPC   C1B33331   3.801  15.275   8.555
 8041POPC   C2B33332   3.762  15.271   8.255
 8041POPC   C3B33333   3.822  15.304   7.955
 8041POPC   C4B33334   3.747  15.265   7.655
 8042POPC   NC333335  19.882  43.913   9.455
 8042POPC   PO433336  19.835  43.867   9.155
 8042POPC   GL133337  19.796  43.925   8.855
 8042POPC   GL233338  19.931  43.757   8.855
 8042POPC   C1A33339  19.857  43.905   8.555
 8042POPC   D2A33340  19.813  43.918   8.255
 8042POPC   C3A33341  19.854  43.872   7.955
 8042POPC   C4A33342  19.809  43.887   7.655
 8042POPC   C1B33343  20.034  43.691   8.555
 8042POPC   C2B33344  19.955  43.734   8.255
 8042POPC   C3B33345  20.034  43.693   7.955
 8042POPC   C4B33346  19.987  43.709   7.655
 8043POPC   NC333347  22.928  16.747   9.455
 8043POPC   PO433348  22.940  16.760   9.155
 8043POPC   GL133349  22.984  16.756   8.855
 8043POPC   GL233350  22.778  16.719   8.855
 8043POPC   C1A33351  22.948  16.690   8.555
 8043POPC   D2A33352  22.957  16.724   8.255
 8043POPC   C3A33353  22.945  16.736   7.955
 8043POPC   C4A33354  22.954  16.732   7.655
 8043POPC   C1B33355  22.699  16.702   8.555
 8043POPC   C2B33356  22.734  16.699   8.255
 8043POPC   C3B33357  22.726  16.748   7.955
 8043POPC   C4B33358  22.647  16.752   7.655
 8044POPC   NC333359   2.810  35.314   9.455
 8044POPC   PO433360   2.769  35.323   9.155
 8044POPC   GL133361   2.737  35.357   8.855
 8044POPC   GL233362   2.814  35.242   8.855
 8044POPC   C1A33363   2.782  35.381   8.555
 8044POPC   D2A33364   2.783  35.381   8.255
 8044POPC   C3A33365   2.784  35.382   7.955
 8044POPC   C4A33366   2.742  35.400   7.655
 8044POPC   C1B33367   2.872  35.091   8.555
 8044POPC   C2B33368   2.834  35.112   8.255
 8044POPC   C3B33369   2.919  35.128   7.955
 8044POPC   C4B33370   2.858  35.117   7.655
 8045POPC   NC333371  11.268  24.471   9.455
 8045POPC   PO433372  11.258  24.457   9.155
 8045POPC   GL133373  11.281  24.447   8.855
 8045POPC   GL233374  11.236  24.370   8.855
 8045POPC   C1A33375  11.281  24.480   8.555
 8045POPC   D2A33376  11.335  24.483   8.255
 8045POPC   C3A33377  11.339  24.440   7.955
 8045POPC   C4A33378  11.272  24.456   7.655
 8045POPC   C1B33379  11.221  24.278   8.555
 8045POPC   C2B33380  11.291  24.290   8.255
 8045POPC   C3B33381  11.229  24.264   7.955
 8045POPC   C4B33382  11.249  24.220   7.655
 8046POPC   NC333383   8.982  19.826   9.455
 8046POPC   PO433384   8.960  19.878   9.155
 8046POPC   GL133385   8.962  19.829   8.855
 8046POPC   GL233386   9.035  19.756   8.855
 8046POPC   C1A33387   8.930  19.807   8.555
 8046POPC   D2A33388   8.978  19.786   8.255
 8046POPC   C3A33389   8.939  19.839   7.955
 8046POPC   C4A33390   9.017  19.827   7.655
 8046POPC   C1B33391   8.979  19.560   8.555
 8046POPC   C2B33392   9.031  19.632   8.255
 8046POPC   C3B33393   8.998  19.624   7.955
 8046POPC   C4B33394   8.974  19.616   7.655
 8047POPC   NC333395   1.217  29.932   9.455
 8047POPC   PO433396   1.237  29.940   9.155
 8047POPC   GL133397   1.238  29.883   8.855
 8047POPC   GL233398   1.082  29.981   8.855
 8047POPC   C1A33399   1.183  29.961   8.555
 8047POPC   D2A33400   1.187  29.942   8.255
 8047POPC   C3A33401   1.245  29.913   7.955
 8047POPC   C4A33402   1.167  29.912   7.655
 8047POPC   C1B33403   1.015  30.102   8.555
 8047POPC   C2B33404   1.005  30.122   8.255
 8047POPC   C3B33405   1.045  30.063   7.955
 8047POPC   C4B33406   0.982  30.085   7.655
 8048POPC   NC333407  27.555  16.692   9.455
 8048POPC   PO433408  27.606  16.701   9.155
 8048POPC   GL133409  27.638  16.704   8.855
 8048POPC   GL233410  27.673  16.628   8.855
 8048POPC   C1A33411  27.576  16.711   8.555
 8048POPC   D2A33412  27.627  16.714   8.255
 8048POPC   C3A33413  27.629  16.706   7.955
 8048POPC   C4A33414  27.547  16.741   7.655
 8048POPC   C1B33415  27.710  16.515   8.555
 8048POPC   C2B33416  27.736  16.528   8.255
 8048POPC   C3B33417  27.785  16.502   7.955
 8048POPC   C4B33418  27.736  16.506   7.655
 8049POPC   NC333419  41.594  12.827   9.455
 8049POPC   PO433420  41.595  12.820   9.155
 8049POPC   GL133421  41.526  12.806   8.855
 8049POPC   GL233422  41.606  12.973   8.855
 8049POPC   C1A33423  41.600  12.894   8.555
 8049POPC   D2A33424  41.553  12.896   8.255
 8049POPC   C3A33425  41.551  12.883   7.955
 8049POPC   C4A33426  41.540  12.872   7.655
 8049POPC   C1B33427  41.716  13.089   8.555
 8049POPC   C2B33428  41.695  13.060   8.255
 8049POPC   C3B33429  41.641  13.037   7.955
 8049POPC   C4B33430  41.686  13.067   7.655
 8050POPC   NC333431   1.176  39.215   9.455
 8050POPC   PO433432   1.172  39.189   9.155
 8050POPC   GL133433   1.181  39.258   8.855
 8050POPC   GL233434   1.160  39.090   8.855
 8050POPC   C1A33435   1.233  39.251   8.555
 8050POPC   D2A33436   1.253  39.253   8.255
 8050POPC   C3A33437   1.191  39.258   7.955
 8050POPC   C4A33438   1.212  39.260   7.655
 8050POPC   C1B33439   1.089  39.021   8.555
 8050POPC   C2B33440   1.102  39.042   8.255
 8050POPC   C3B33441   1.049  38.987   7.955
 8050POPC   C4B33442   1.066  38.986   7.655
 8051POPC   NC333443  21.339   3.561   9.455
 8051POPC   PO433444  21.388   3.494   9.155
 8051POPC   GL133445  21.363   3.581   8.855
 8051POPC   GL233446  21.418   3.633   8.855
 8051POPC   C1A33447  21.431   3.590   8.555
 8051POPC   D2A33448  21.346   3.565   8.255
 8051POPC   C3A33449  21.433   3.524   7.955
 8051POPC   C4A33450  21.398   3.496   7.655
 8051POPC   C1B33451  21.412   3.815   8.555
 8051POPC   C2B33452  21.435   3.748   8.255
 8051POPC   C3B33453  21.378   3.753   7.955
 8051POPC   C4B33454  21.446   3.768   7.655
 8052POPC   NC333455   5.101  20.613   9.455
 8052POPC   PO433456   5.104  20.644   9.155
 8052POPC   GL133457   5.103  20.617   8.855
 8052POPC   GL233458   4.997  20.663   8.855
 8052POPC   C1A33459   5.055  20.606   8.555
 8052POPC   D2A33460   5.085  20.659   8.255
 8052POPC   C3A33461   5.098  20.605   7.955
 8052POPC   C4A33462   5.092  20.651   7.655
 8052POPC   C1B33463   4.849  20.763   8.555
 8052POPC   C2B33464   4.905  20.769   8.255
 8052POPC   C3B33465   4.835  20.750   7.955
 8052POPC   C4B33466   4.860  20.714   7.655
 8053POPC   NC333467   2.774  20.658   9.455
 8053POPC   PO433468   2.763  20.589   9.155
 8053POPC   GL133469   2.814  20.569   8.855
 8053POPC   GL233470   2.620  20.655   8.855
 8053POPC   C1A33471   2.744  20.626   8.555
 8053POPC   D2A33472   2.784  20.659   8.255
 8053POPC   C3A33473   2.806  20.581   7.955
 8053POPC   C4A33474   2.720  20.610   7.655
 8053POPC   C1B33475   2.557  20.743   8.555
 8053POPC   C2B33476   2.548  20.682   8.255
 8053POPC   C3B33477   2.545  20.730   7.955
 8053POPC   C4B33478   2.531  20.700   7.655
 8054POPC   NC333479   0.390  20.567   9.455
 8054POPC   PO433480   0.436  20.608   9.155
 8054POPC   GL133481   0.483  20.621   8.855
 8054POPC   GL233482   0.267  20.624   8.855
 8054POPC   C1A33483   0.405  20.588   8.555
 8054POPC   D2A33484   0.432  20.627   8.255
 8054POPC   C3A33485   0.446  20.643   7.955
 8054POPC   C4A33486   0.398  20.613   7.655
 8054POPC   C1B33487   0.163  20.602   8.555
 8054POPC   C2B33488   0.218  20.666   8.255
 8054POPC   C3B33489   0.218  20.681   7.955
 8054POPC   C4B33490   0.155  20.633   7.655
 8055POPC   NC333491   0.413  29.130   9.455
 8055POPC   PO433492   0.421  29.190   9.155
 8055POPC   GL133493   0.479  29.188   8.855
 8055POPC   GL233494   0.449  29.027   8.855
 8055POPC   C1A33495   0.457  29.104   8.555
 8055POPC   D2A33496   0.474  29.161   8.255
 8055POPC   C3A33497   0.455  29.146   7.955
 8055POPC   C4A33498   0.412  29.095   7.655
 8055POPC   C1B33499   0.477  28.891   8.555
 8055POPC   C2B33500   0.494  28.889   8.255
 8055POPC   C3B33501   0.562  28.930   7.955
 8055POPC   C4B33502   0.514  28.921   7.655
 8056POPC   NC333503  41.529  23.666   9.455
 8056POPC   PO433504  41.544  23.678   9.155
 8056POPC   GL133505  41.533  23.719   8.855
 8056POPC   GL233506  41.507  23.871   8.855
 8056POPC   C1A33507  41.576  23.723   8.555
 8056POPC   D2A33508  41.552  23.732   8.255
 8056POPC   C3A33509  41.578  23.743   7.955
 8056POPC   C4A33510  41.516  23.758   7.655
 8056POPC   C1B33511  41.530  23.930   8.555
 8056POPC   C2B33512  41.485  23.946   8.255
 8056POPC   C3B33513  41.548  23.965   7.955
 8056POPC   C4B33514  41.514  23.979   7.655
 8057POPC   NC333515  23.686   1.941   9.455
 8057POPC   PO433516  23.687   1.979   9.155
 8057POPC   GL133517  23.731   2.009   8.855
 8057POPC   GL233518  23.631   1.999   8.855
 8057POPC   C1A33519  23.733   1.947   8.555
 8057POPC   D2A33520  23.700   1.965   8.255
 8057POPC   C3A33521  23.710   2.007   7.955
 8057POPC   C4A33522  23.692   1.952   7.655
 8057POPC   C1B33523  23.505   2.049   8.555
 8057POPC   C2B33524  23.450   2.031   8.255
 8057POPC   C3B33525  23.502   2.034   7.955
 8057POPC   C4B33526  23.434   1.998   7.655
 8058POPC   NC333527  33.794   7.399   9.455
 8058POPC   PO433528  33.796   7.387   9.155
 8058POPC   GL133529  33.788   7.383   8.855
 8058POPC   GL233530  33.808   7.506   8.855
 8058POPC   C1A33531  33.813   7.402   8.555
 8058POPC   D2A33532  33.760   7.399   8.255
 8058POPC   C3A33533  33.760   7.399   7.955
 8058POPC   C4A33534  33.807   7.429   7.655
 8058POPC   C1B33535  33.792   7.686   8.555
 8058POPC   C2B33536  33.778   7.684   8.255
 8058POPC   C3B33537  33.748   7.625   7.955
 8058POPC   C4B33538  33.780   7.628   7.655
 8059POPC   NC333539  39.963  21.343   9.455
 8059POPC   PO433540  39.986  21.402   9.155
 8059POPC   GL133541  40.021  21.417   8.855
 8059POPC   GL233542  39.850  21.432   8.855
 8059POPC   C1A33543  39.981  21.414   8.555
 8059POPC   D2A33544  40.043  21.436   8.255
 8059POPC   C3A33545  40.039  21.360   7.955
 8059POPC   C4A33546  40.022  21.354   7.655
 8059POPC   C1B33547  39.775  21.498   8.555
 8059POPC   C2B33548  39.788  21.448   8.255
 8059POPC   C3B33549  39.732  21.464   7.955
 8059POPC   C4B33550  39.817  21.515   7.655
 8060POPC   NC333551   5.121  43.891   9.455
 8060POPC   PO433552   5.091  43.898   9.155
 8060POPC   GL133553   5.143  43.859   8.855
 8060POPC   GL233554   5.151  43.796   8.855
 8060POPC   C1A33555   5.099  43.907   8.555
 8060POPC   D2A33556   5.137  43.847   8.255
 8060POPC   C3A33557   5.122  43.873   7.955
 8060POPC   C4A33558   5.090  43.848   7.655
 8060POPC   C1B33559   5.189  43.693   8.555
 8060POPC   C2B33560   5.163  43.665   8.255
 8060POPC   C3B33561   5.192  43.638   7.955
 8060POPC   C4B33562   5.128  43.646   7.655
 8061POPC   NC333563  28.320  12.057   9.455
 8061POPC   PO433564  28.350  12.084   9.155
 8061POPC   GL133565  28.371  12.080   8.855
 8061POPC   GL233566  28.445  12.145   8.855
 8061POPC   C1A33567  28.323  12.121   8.555
 8061POPC   D2A33568  28.381  12.053   8.255
 8061POPC   C3A33569  28.370  12.084   7.955
 8061POPC   C4A33570  28.344  12.053   7.655
 8061POPC   C1B33571  28.442  12.256   8.555
 8061POPC   C2B33572  28.439  12.270   8.255
 8061POPC   C3B33573  28.509  12.258   7.955
 8061POPC   C4B33574  28.528  12.302   7.655
 8062POPC   NC333575  38.499  22.893   9.455
 8062POPC   PO433576  38.438  22.939   9.155
 8062POPC   GL133577  38.492  22.943   8.855
 8062POPC   GL233578  38.355  22.879   8.855
 8062POPC   C1A33579  38.498  22.928   8.555
 8062POPC   D2A33580  38.414  22.965   8.255
 8062POPC   C3A33581  38.502  22.891   7.955
 8062POPC   C4A33582  38.456  22.983   7.655
 8062POPC   C1B33583  38.223  22.853   8.555
 8062POPC   C2B33584  38.190  22.795   8.255
 8062POPC   C3B33585  38.201  22.808   7.955
 8062POPC   C4B33586  38.270  22.839   7.655
 8063POPC   NC333587   6.666  17.547   9.455
 8063POPC   PO433588   6.648  17.503   9.155
 8063POPC   GL133589   6.687  17.469   8.855
 8063POPC   GL233590   6.625  17.382   8.855
 8063POPC   C1A33591   6.692  17.508   8.555
 8063POPC   D2A33592   6.650  17.481   8.255
 8063POPC   C3A33593   6.639  17.553   7.955
 8063POPC   C4A33594   6.685  17.464   7.655
 8063POPC   C1B33595   6.666  17.306   8.555
 8063POPC   C2B33596   6.693  17.226   8.255
 8063POPC   C3B33597   6.700  17.303   7.955
 8063POPC   C4B33598   6.714  17.241   7.655
 8064POPC   NC333599  33.839  41.603   9.455
 8064POPC   PO433600  33.824  41.540   9.155
 8064POPC   GL133601  33.841  41.567   8.855
 8064POPC   GL233602  33.909  41.504   8.855
 8064POPC   C1A33603  33.807  41.602   8.555
 8064POPC   D2A33604  33.752  41.542   8.255
 8064POPC   C3A33605  33.838  41.533   7.955
 8064POPC   C4A33606  33.766  41.576   7.655
 8064POPC   C1B33607  34.018  41.507   8.555
 8064POPC   C2B33608  34.083  41.436   8.255
 8064POPC   C3B33609  34.002  41.494   7.955
 8064POPC   C4B33610  33.994  41.480   7.655
 8065POPC   NC333611  12.846  21.428   9.455
 8065POPC   PO433612  12.867  21.433   9.155
 8065POPC   GL133613  12.830  21.359   8.855
 8065POPC   GL233614  12.932  21.415   8.855
 8065POPC   C1A33615  12.808  21.432   8.555
 8065POPC   D2A33616  12.898  21.409   8.255
 8065POPC   C3A33617  12.807  21.379   7.955
 8065POPC   C4A33618  12.877  21.426   7.655
 8065POPC   C1B33619  13.142  21.410   8.555
 8065POPC   C2B33620  13.074  21.504   8.255
 8065POPC   C3B33621  13.094  21.433   7.955
 8065POPC   C4B33622  13.108  21.431   7.655
 8066POPC   NC333623  14.427  12.053   9.455
 8066POPC   PO433624  14.438  12.039   9.155
 8066POPC   GL133625  14.405  12.118   8.855
 8066POPC   GL233626  14.259  12.084   8.855
 8066POPC   C1A33627  14.388  12.096   8.555
 8066POPC   D2A33628  14.432  12.036   8.255
 8066POPC   C3A33629  14.390  12.101   7.955
 8066POPC   C4A33630  14.369  12.070   7.655
 8066POPC   C1B33631  14.150  12.134   8.555
 8066POPC   C2B33632  14.191  12.160   8.255
 8066POPC   C3B33633  14.172  12.203   7.955
 8066POPC   C4B33634  14.136  12.120   7.655
 8067POPC   NC333635  28.390   2.748   9.455
 8067POPC   PO433636  28.398   2.718   9.155
 8067POPC   GL133637  28.358   2.749   8.855
 8067POPC   GL233638  28.424   2.706   8.855
 8067POPC   C1A33639  28.361   2.800   8.555
 8067POPC   D2A33640  28.406   2.737   8.255
 8067POPC   C3A33641  28.335   2.736   7.955
 8067POPC   C4A33642  28.371   2.747   7.655
 8067POPC   C1B33643  28.560   2.622   8.555
 8067POPC   C2B33644  28.569   2.591   8.255
 8067POPC   C3B33645  28.511   2.586   7.955
 8067POPC   C4B33646  28.496   2.592   7.655
 8068POPC   NC333647  27.603   5.059   9.455
 8068POPC   PO433648  27.599   5.052   9.155
 8068POPC   GL133649  27.629   5.098   8.855
 8068POPC   GL233650  27.457   5.112   8.855
 8068POPC   C1A33651  27.625   5.079   8.555
 8068POPC   D2A33652  27.633   5.139   8.255
 8068POPC   C3A33653  27.618   5.057   7.955
 8068POPC   C4A33654  27.584   5.076   7.655
 8068POPC   C1B33655  27.350   5.251   8.555
 8068POPC   C2B33656  27.378   5.276   8.255
 8068POPC   C3B33657  27.350   5.190   7.955
 8068POPC   C4B33658  27.347   5.187   7.655
 8069POPC   NC333659  24.442  42.331   9.455
 8069POPC   PO433660  24.523  42.326   9.155
 8069POPC   GL133661  24.452  42.338   8.855
 8069POPC   GL233662  24.408  42.302   8.855
 8069POPC   C1A33663  24.452  42.338   8.555
 8069POPC   D2A33664  24.497  42.374   8.255
 8069POPC   C3A33665  24.525  42.345   7.955
 8069POPC   C4A33666  24.505  42.322   7.655
 8069POPC   C1B33667  24.283  42.322   8.555
 8069POPC   C2B33668  24.271  42.369   8.255
 8069POPC   C3B33669  24.264  42.339   7.955
 8069POPC   C4B33670  24.258  42.294   7.655
 8070POPC   NC333671  19.821  12.058   9.455
 8070POPC   PO433672  19.863  12.125   9.155
 8070POPC   GL133673  19.867  12.029   8.855
 8070POPC   GL233674  19.734  11.967   8.855
 8070POPC   C1A33675  19.851  12.116   8.555
 8070POPC   D2A33676  19.821  12.125   8.255
 8070POPC   C3A33677  19.826  12.076   7.955
 8070POPC   C4A33678  19.803  12.119   7.655
 8070POPC   C1B33679  19.639  11.990   8.555
 8070POPC   C2B33680  19.661  11.910   8.255
 8070POPC   C3B33681  19.660  11.907   7.955
 8070POPC   C4B33682  19.618  11.965   7.655
 8071POPC   NC333683   5.101  28.418   9.455
 8071POPC   PO433684   5.090  28.383   9.155
 8071POPC   GL133685   5.097  28.418   8.855
 8071POPC   GL233686   5.072  28.445   8.855
 8071POPC   C1A33687   5.134  28.356   8.555
 8071POPC   D2A33688   5.045  28.355   8.255
 8071POPC   C3A33689   5.080  28.326   7.955
 8071POPC   C4A33690   5.074  28.402   7.655
 8071POPC   C1B33691   5.132  28.656   8.555
 8071POPC   C2B33692   5.074  28.627   8.255
 8071POPC   C3B33693   5.137  28.614   7.955
 8071POPC   C4B33694   5.101  28.584   7.655
 8072POPC   NC333695  17.538  19.822   9.455
 8072POPC   PO433696  17.529  19.804   9.155
 8072POPC   GL133697  17.521  19.816   8.855
 8072POPC   GL233698  17.435  19.730   8.855
 8072POPC   C1A33699  17.498  19.823   8.555
 8072POPC   D2A33700  17.502  19.868   8.255
 8072POPC   C3A33701  17.525  19.795   7.955
 8072POPC   C4A33702  17.515  19.827   7.655
 8072POPC   C1B33703  17.403  19.623   8.555
 8072POPC   C2B33704  17.355  19.659   8.255
 8072POPC   C3B33705  17.367  19.619   7.955
 8072POPC   C4B33706  17.392  19.626   7.655
 8073POPC   NC333707  37.644  27.563   9.455
 8073POPC   PO433708  37.672  27.635   9.155
 8073POPC   GL133709  37.642  27.597   8.855
 8073POPC   GL233710  37.709  27.448   8.855
 8073POPC   C1A33711  37.720  27.554   8.555
 8073POPC   D2A33712  37.635  27.592   8.255
 8073POPC   C3A33713  37.643  27.569   7.955
 8073POPC   C4A33714  37.701  27.633   7.655
 8073POPC   C1B33715  37.821  27.370   8.555
 8073POPC   C2B33716  37.763  27.361   8.255
 8073POPC   C3B33717  37.744  27.361   7.955
 8073POPC   C4B33718  37.768  27.340   7.655
 8074POPC   NC333719  33.755   8.166   9.455
 8074POPC   PO433720  33.757   8.168   9.155
 8074POPC   GL133721  33.799   8.175   8.855
 8074POPC   GL233722  33.856   8.095   8.855
 8074POPC   C1A33723  33.821   8.205   8.555
 8074POPC   D2A33724  33.846   8.159   8.255
 8074POPC   C3A33725  33.753   8.188   7.955
 8074POPC   C4A33726  33.818   8.161   7.655
 8074POPC   C1B33727  33.879   8.017   8.555
 8074POPC   C2B33728  33.948   8.014   8.255
 8074POPC   C3B33729  33.880   7.961   7.955
 8074POPC   C4B33730  33.939   7.958   7.655
 8075POPC   NC333731  23.750  26.837   9.455
 8075POPC   PO433732  23.675  26.779   9.155
 8075POPC   GL133733  23.680  26.867   8.855
 8075POPC   GL233734  23.746  26.925   8.855
 8075POPC   C1A33735  23.730  26.857   8.555
 8075POPC   D2A33736  23.742  26.778   8.255
 8075POPC   C3A33737  23.694  26.821   7.955
 8075POPC   C4A33738  23.758  26.783   7.655
 8075POPC   C1B33739  23.876  27.031   8.555
 8075POPC   C2B33740  23.863  26.983   8.255
 8075POPC   C3B33741  23.835  27.019   7.955
 8075POPC   C4B33742  23.860  27.023   7.655
 8076POPC   NC333743  18.295  32.277   9.455
 8076POPC   PO433744  18.316  32.228   9.155
 8076POPC   GL133745  18.272  32.280   8.855
 8076POPC   GL233746  18.158  32.219   8.855
 8076POPC   C1A33747  18.241  32.273   8.555
 8076POPC   D2A33748  18.239  32.286   8.255
 8076POPC   C3A33749  18.314  32.289   7.955
 8076POPC   C4A33750  18.294  32.248   7.655
 8076POPC   C1B33751  18.020  32.315   8.555
 8076POPC   C2B33752  18.012  32.304   8.255
 8076POPC   C3B33753  18.073  32.281   7.955
 8076POPC   C4B33754  18.040  32.285   7.655
 8077POPC   NC333755   1.222   5.886   9.455
 8077POPC   PO433756   1.211   5.910   9.155
 8077POPC   GL133757   1.250   5.859   8.855
 8077POPC   GL233758   1.076   5.783   8.855
 8077POPC   C1A33759   1.192   5.848   8.555
 8077POPC   D2A33760   1.189   5.838   8.255
 8077POPC   C3A33761   1.248   5.888   7.955
 8077POPC   C4A33762   1.168   5.909   7.655
 8077POPC   C1B33763   0.971   5.700   8.555
 8077POPC   C2B33764   1.034   5.762   8.255
 8077POPC   C3B33765   1.018   5.764   7.955
 8077POPC   C4B33766   0.993   5.746   7.655
 8078POPC   NC333767  15.141  21.338   9.455
 8078POPC   PO433768  15.136  21.412   9.155
 8078POPC   GL133769  15.179  21.362   8.855
 8078POPC   GL233770  15.303  21.453   8.855
 8078POPC   C1A33771  15.137  21.434   8.555
 8078POPC   D2A33772  15.189  21.351   8.255
 8078POPC   C3A33773  15.195  21.425   7.955
 8078POPC   C4A33774  15.131  21.373   7.655
 8078POPC   C1B33775  15.401  21.596   8.555
 8078POPC   C2B33776  15.329  21.616   8.255
 8078POPC   C3B33777  15.354  21.554   7.955
 8078POPC   C4B33778  15.395  21.568   7.655
 8079POPC   NC333779  43.095  29.195   9.455
 8079POPC   PO433780  43.110  29.115   9.155
 8079POPC   GL133781  43.069  29.141   8.855
 8079POPC   GL233782  43.016  29.057   8.855
 8079POPC   C1A33783  43.082  29.135   8.555
 8079POPC   D2A33784  43.136  29.131   8.255
 8079POPC   C3A33785  43.097  29.163   7.955
 8079POPC   C4A33786  43.093  29.169   7.655
 8079POPC   C1B33787  42.834  29.058   8.555
 8079POPC   C2B33788  42.877  29.102   8.255
 8079POPC   C3B33789  42.869  29.026   7.955
 8079POPC   C4B33790  42.914  29.109   7.655
 8080POPC   NC333791  29.909  22.196   9.455
 8080POPC   PO433792  29.874  22.209   9.155
 8080POPC   GL133793  29.920  22.193   8.855
 8080POPC   GL233794  29.810  22.274   8.855
 8080POPC   C1A33795  29.904  22.209   8.555
 8080POPC   D2A33796  29.919  22.141   8.255
 8080POPC   C3A33797  29.947  22.126   7.955
 8080POPC   C4A33798  29.899  22.115   7.655
 8080POPC   C1B33799  29.722  22.333   8.555
 8080POPC   C2B33800  29.677  22.310   8.255
 8080POPC   C3B33801  29.715  22.327   7.955
 8080POPC   C4B33802  29.725  22.266   7.655
 8081POPC   NC333803  12.040   8.954   9.455
 8081POPC   PO433804  12.057   8.946   9.155
 8081POPC   GL133805  12.050   8.983   8.855
 8081POPC   GL233806  12.170   9.110   8.855
 8081POPC   C1A33807  12.037   8.949   8.555
 8081POPC   D2A33808  12.044   8.984   8.255
 8081POPC   C3A33809  12.107   8.928   7.955
 8081POPC   C4A33810  12.061   8.960   7.655
 8081POPC   C1B33811  12.244   9.188   8.555
 8081POPC   C2B33812  12.173   9.225   8.255
 8081POPC   C3B33813  12.176   9.142   7.955
 8081POPC   C4B33814  12.269   9.189   7.655
 8082POPC   NC333815  32.213  29.897   9.455
 8082POPC   PO433816  32.207  29.885   9.155
 8082POPC   GL133817  32.235  29.924   8.855
 8082POPC   GL233818  32.135  29.895   8.855
 8082POPC   C1A33819  32.274  29.945   8.555
 8082POPC   D2A33820  32.210  29.903   8.255
 8082POPC   C3A33821  32.206  29.873   7.955
 8082POPC   C4A33822  32.283  29.967   7.655
 8082POPC   C1B33823  31.965  29.861   8.555
 8082POPC   C2B33824  32.033  29.797   8.255
 8082POPC   C3B33825  32.018  29.794   7.955
 8082POPC   C4B33826  32.006  29.847   7.655
 8083POPC   NC333827   9.731  37.695   9.455
 8083POPC   PO433828   9.729  37.728   9.155
 8083POPC   GL133829   9.736  37.655   8.855
 8083POPC   GL233830   9.878  37.692   8.855
 8083POPC   C1A33831   9.725  37.716   8.555
 8083POPC   D2A33832   9.734  37.689   8.255
 8083POPC   C3A33833   9.752  37.647   7.955
 8083POPC   C4A33834   9.771  37.699   7.655
 8083POPC   C1B33835   9.982  37.702   8.555
 8083POPC   C2B33836  10.040  37.714   8.255
 8083POPC   C3B33837   9.969  37.748   7.955
 8083POPC   C4B33838   9.971  37.679   7.655
 8084POPC   NC333839  10.568  10.491   9.455
 8084POPC   PO433840  10.549  10.484   9.155
 8084POPC   GL133841  10.475  10.553   8.855
 8084POPC   GL233842  10.379  10.519   8.855
 8084POPC   C1A33843  10.518  10.511   8.555
 8084POPC   D2A33844  10.480  10.487   8.255
 8084POPC   C3A33845  10.489  10.573   7.955
 8084POPC   C4A33846  10.502  10.537   7.655
 8084POPC   C1B33847  10.314  10.583   8.555
 8084POPC   C2B33848  10.312  10.563   8.255
 8084POPC   C3B33849  10.259  10.577   7.955
 8084POPC   C4B33850  10.317  10.624   7.655
 8085POPC   NC333851  16.730  18.283   9.455
 8085POPC   PO433852  16.781  18.254   9.155
 8085POPC   GL133853  16.699  18.282   8.855
 8085POPC   GL233854  16.721  18.121   8.855
 8085POPC   C1A33855  16.758  18.262   8.555
 8085POPC   D2A33856  16.743  18.248   8.255
 8085POPC   C3A33857  16.732  18.245   7.955
 8085POPC   C4A33858  16.780  18.256   7.655
 8085POPC   C1B33859  16.643  18.084   8.555
 8085POPC   C2B33860  16.670  18.050   8.255
 8085POPC   C3B33861  16.658  18.073   7.955
 8085POPC   C4B33862  16.728  18.006   7.655
 8086POPC   NC333863   3.552  15.977   9.455
 8086POPC   PO433864   3.585  15.917   9.155
 8086POPC   GL133865   3.541  15.911   8.855
 8086POPC   GL233866   3.441  15.993   8.855
 8086POPC   C1A33867   3.528  15.996   8.555
 8086POPC   D2A33868   3.533  15.917   8.255
 8086POPC   C3A33869   3.501  15.913   7.955
 8086POPC   C4A33870   3.563  15.931   7.655
 8086POPC   C1B33871   3.351  16.158   8.555
 8086POPC   C2B33872   3.353  16.129   8.255
 8086POPC   C3B33873   3.337  16.115   7.955
 8086POPC   C4B33874   3.335  16.087   7.655
 8087POPC   NC333875  31.424  31.491   9.455
 8087POPC   PO433876  31.429  31.502   9.155
 8087POPC   GL133877  31.460  31.518   8.855
 8087POPC   GL233878  31.478  31.589   8.855
 8087POPC   C1A33879  31.477  31.479   8.555
 8087POPC   D2A33880  31.480  31.512   8.255
 8087POPC   C3A33881  31.508  31.487   7.955
 8087POPC   C4A33882  31.462  31.461   7.655
 8087POPC   C1B33883  31.446  31.695   8.555
 8087POPC   C2B33884  31.497  31.692   8.255
 8087POPC   C3B33885  31.468  31.721   7.955
 8087POPC   C4B33886  31.467  31.771   7.655
 8088POPC   NC333887  12.079  40.806   9.455
 8088POPC   PO433888  12.094  40.773   9.155
 8088POPC   GL133889  12.111  40.820   8.855
 8088POPC   GL233890  12.181  40.748   8.855
 8088POPC   C1A33891  12.082  40.788   8.555
 8088POPC   D2A33892  12.104  40.776   8.255
 8088POPC   C3A33893  12.048  40.777   7.955
 8088POPC   C4A33894  12.095  40.821   7.655
 8088POPC   C1B33895  12.219  40.635   8.555
 8088POPC   C2B33896  12.230  40.580   8.255
 8088POPC   C3B33897  12.281  40.573   7.955
 8088POPC   C4B33898  12.243  40.590   7.655
 8089POPC   NC333899  26.845   8.172   9.455
 8089POPC   PO433900  26.809   8.147   9.155
 8089POPC   GL133901  26.855   8.210   8.855
 8089POPC   GL233902  26.683   8.173   8.855
 8089POPC   C1A33903  26.806   8.222   8.555
 8089POPC   D2A33904  26.814   8.163   8.255
 8089POPC   C3A33905  26.792   8.151   7.955
 8089POPC   C4A33906  26.838   8.207   7.655
 8089POPC   C1B33907  26.579   8.208   8.555
 8089POPC   C2B33908  26.593   8.296   8.255
 8089POPC   C3B33909  26.621   8.214   7.955
 8089POPC   C4B33910  26.598   8.223   7.655
 8090POPC   NC333911   7.389  12.876   9.455
 8090POPC   PO433912   7.453  12.815   9.155
 8090POPC   GL133913   7.424  12.842   8.855
 8090POPC   GL233914   7.515  12.922   8.855
 8090POPC   C1A33915   7.419  12.820   8.555
 8090POPC   D2A33916   7.451  12.856   8.255
 8090POPC   C3A33917   7.470  12.882   7.955
 8090POPC   C4A33918   7.374  12.893   7.655
 8090POPC   C1B33919   7.604  13.014   8.555
 8090POPC   C2B33920   7.600  12.981   8.255
 8090POPC   C3B33921   7.655  12.949   7.955
 8090POPC   C4B33922   7.601  12.948   7.655
 8091POPC   NC333923   5.880  29.878   9.455
 8091POPC   PO433924   5.842  29.935   9.155
 8091POPC   GL133925   5.910  29.932   8.855
 8091POPC   GL233926   5.721  29.893   8.855
 8091POPC   C1A33927   5.895  29.938   8.555
 8091POPC   D2A33928   5.888  29.912   8.255
 8091POPC   C3A33929   5.902  29.879   7.955
 8091POPC   C4A33930   5.867  29.953   7.655
 8091POPC   C1B33931   5.674  29.786   8.555
 8091POPC   C2B33932   5.658  29.782   8.255
 8091POPC   C3B33933   5.656  29.775   7.955
 8091POPC   C4B33934   5.629  29.780   7.655
 8092POPC   NC333935  23.762   2.722   9.455
 8092POPC   PO433936  23.666   2.732   9.155
 8092POPC   GL133937  23.695   2.807   8.855
 8092POPC   GL233938  23.555   2.683   8.855
 8092POPC   C1A33939  23.717   2.810   8.555
 8092POPC   D2A33940  23.744   2.798   8.255
 8092POPC   C3A33941  23.677   2.740   7.955
 8092POPC   C4A33942  23.705   2.807   7.655
 8092POPC   C1B33943  23.518   2.683   8.555
 8092POPC   C2B33944  23.505   2.732   8.255
 8092POPC   C3B33945  23.468   2.730   7.955
 8092POPC   C4B33946  23.503   2.653   7.655
 8093POPC   NC333947   8.942  39.975   9.455
 8093POPC   PO433948   8.936  40.050   9.155
 8093POPC   GL133949   8.950  40.010   8.855
 8093POPC   GL233950   8.879  39.996   8.855
 8093POPC   C1A33951   8.937  39.993   8.555
 8093POPC   D2A33952   8.949  40.053   8.255
 8093POPC   C3A33953   8.924  39.958   7.955
 8093POPC   C4A33954   8.987  40.023   7.655
 8093POPC   C1B33955   8.685  40.015   8.555
 8093POPC   C2B33956   8.677  40.029   8.255
 8093POPC   C3B33957   8.698  39.985   7.955
 8093POPC   C4B33958   8.754  40.039   7.655
 8094POPC   NC333959  10.568  36.887   9.455
 8094POPC   PO433960  10.517  36.884   9.155
 8094POPC   GL133961  10.485  36.857   8.855
 8094POPC   GL233962  10.485  37.024   8.855
 8094POPC   C1A33963  10.563  36.879   8.555
 8094POPC   D2A33964  10.568  36.886   8.255
 8094POPC   C3A33965  10.547  36.864   7.955
 8094POPC   C4A33966  10.567  36.932   7.655
 8094POPC   C1B33967  10.324  37.090   8.555
 8094POPC   C2B33968  10.387  37.071   8.255
 8094POPC   C3B33969  10.378  37.062   7.955
 8094POPC   C4B33970  10.361  37.105   7.655
 8095POPC   NC333971  27.595  23.740   9.455
 8095POPC   PO433972  27.628  23.710   9.155
 8095POPC   GL133973  27.548  23.702   8.855
 8095POPC   GL233974  27.671  23.735   8.855
 8095POPC   C1A33975  27.606  23.690   8.555
 8095POPC   D2A33976  27.578  23.701   8.255
 8095POPC   C3A33977  27.582  23.733   7.955
 8095POPC   C4A33978  27.608  23.754   7.655
 8095POPC   C1B33979  27.798  23.756   8.555
 8095POPC   C2B33980  27.812  23.772   8.255
 8095POPC   C3B33981  27.849  23.747   7.955
 8095POPC   C4B33982  27.804  23.711   7.655
 8096POPC   NC333983  18.244   9.705   9.455
 8096POPC   PO433984  18.259   9.797   9.155
 8096POPC   GL133985  18.264   9.737   8.855
 8096POPC   GL233986  18.260   9.629   8.855
 8096POPC   C1A33987  18.267   9.707   8.555
 8096POPC   D2A33988  18.311   9.755   8.255
 8096POPC   C3A33989  18.308   9.772   7.955
 8096POPC   C4A33990  18.330   9.708   7.655
 8096POPC   C1B33991  18.143   9.547   8.555
 8096POPC   C2B33992  18.146   9.507   8.255
 8096POPC   C3B33993  18.180   9.578   7.955
 8096POPC   C4B33994  18.146   9.515   7.655
 8097POPC   NC333995  10.571  34.595   9.455
 8097POPC   PO433996  10.559  34.572   9.155
 8097POPC   GL133997  10.502  34.556   8.855
 8097POPC   GL233998  10.471  34.689   8.855
 8097POPC   C1A33999  10.530  34.565   8.555
 8097POPC   D2A34000  10.488  34.591   8.255
 8097POPC   C3A34001  10.571  34.531   7.955
 8097POPC   C4A34002  10.482  34.534   7.655
 8097POPC   C1B34003  10.488  34.778   8.555
 8097POPC   C2B34004  10.426  34.825   8.255
 8097POPC   C3B34005  10.452  34.782   7.955
 8097POPC   C4B34006  10.451  34.775   7.655
 8098POPC   NC334007  32.235  32.283   9.455
 8098POPC   PO434008  32.226  32.249   9.155
 8098POPC   GL134009  32.268  32.238   8.855
 8098POPC   GL234010  32.356  32.306   8.855
 8098POPC   C1A34011  32.236  32.267   8.555
 8098POPC   D2A34012  32.294  32.272   8.255
 8098POPC   C3A34013  32.258  32.216   7.955
 8098POPC   C4A34014  32.263  32.290   7.655
 8098POPC   C1B34015  32.412  32.406   8.555
 8098POPC   C2B34016  32.423  32.404   8.255
 8098POPC   C3B34017  32.422  32.403   7.955
 8098POPC   C4B34018  32.410  32.386   7.655
 8099POPC   NC334019  31.426  41.521   9.455
 8099POPC   PO434020  31.521  41.591   9.155
 8099POPC   GL134021  31.463  41.570   8.855
 8099POPC   GL234022  31.587  41.610   8.855
 8099POPC   C1A34023  31.443  41.590   8.555
 8099POPC   D2A34024  31.480  41.564   8.255
 8099POPC   C3A34025  31.472  41.522   7.955
 8099POPC   C4A34026  31.448  41.512   7.655
 8099POPC   C1B34027  31.673  41.735   8.555
 8099POPC   C2B34028  31.654  41.713   8.255
 8099POPC   C3B34029  31.672  41.659   7.955
 8099POPC   C4B34030  31.717  41.708   7.655
 8100POPC   NC334031  16.731  42.354   9.455
 8100POPC   PO434032  16.701  42.338   9.155
 8100POPC   GL134033  16.768  42.342   8.855
 8100POPC   GL234034  16.732  42.184   8.855
 8100POPC   C1A34035  16.698  42.371   8.555
 8100POPC   D2A34036  16.683  42.310   8.255
 8100POPC   C3A34037  16.707  42.384   7.955
 8100POPC   C4A34038  16.713  42.317   7.655
 8100POPC   C1B34039  16.738  42.050   8.555
 8100POPC   C2B34040  16.762  42.064   8.255
 8100POPC   C3B34041  16.744  42.044   7.955
 8100POPC   C4B34042  16.740  42.101   7.655
 8101POPC   NC334043   4.315   6.608   9.455
 8101POPC   PO434044   4.311   6.617   9.155
 8101POPC   GL134045   4.350   6.636   8.855
 8101POPC   GL234046   4.364   6.519   8.855
 8101POPC   C1A34047   4.363   6.614   8.555
 8101POPC   D2A34048   4.366   6.678   8.255
 8101POPC   C3A34049   4.305   6.692   7.955
 8101POPC   C4A34050   4.293   6.617   7.655
 8101POPC   C1B34051   4.407   6.372   8.555
 8101POPC   C2B34052   4.389   6.433   8.255
 8101POPC   C3B34053   4.380   6.367   7.955
 8101POPC   C4B34054   4.440   6.428   7.655
 8102POPC   NC334055  18.317  13.621   9.455
 8102POPC   PO434056  18.261  13.634   9.155
 8102POPC   GL134057  18.239  13.589   8.855
 8102POPC   GL234058  18.222  13.608   8.855
 8102POPC   C1A34059  18.319  13.594   8.555
 8102POPC   D2A34060  18.302  13.642   8.255
 8102POPC   C3A34061  18.261  13.581   7.955
 8102POPC   C4A34062  18.330  13.664   7.655
 8102POPC   C1B34063  18.109  13.485   8.555
 8102POPC   C2B34064  18.109  13.504   8.255
 8102POPC   C3B34065  18.077  13.486   7.955
 8102POPC   C4B34066  18.122  13.458   7.655
 8103POPC   NC334067   7.467  21.398   9.455
 8103POPC   PO434068   7.412  21.342   9.155
 8103POPC   GL134069   7.420  21.415   8.855
 8103POPC   GL234070   7.485  21.365   8.855
 8103POPC   C1A34071   7.447  21.429   8.555
 8103POPC   D2A34072   7.396  21.376   8.255
 8103POPC   C3A34073   7.399  21.365   7.955
 8103POPC   C4A34074   7.404  21.429   7.655
 8103POPC   C1B34075   7.618  21.302   8.555
 8103POPC   C2B34076   7.666  21.296   8.255
 8103POPC   C3B34077   7.603  21.282   7.955
 8103POPC   C4B34078   7.599  21.275   7.655
 8104POPC   NC334079  12.824   3.561   9.455
 8104POPC   PO434080  12.855   3.579   9.155
 8104POPC   GL134081  12.876   3.560   8.855
 8104POPC   GL234082  12.979   3.587   8.855
 8104POPC   C1A34083  12.839   3.495   8.555
 8104POPC   D2A34084  12.834   3.584   8.255
 8104POPC   C3A34085  12.865   3.554   7.955
 8104POPC   C4A34086  12.848   3.554   7.655
 8104POPC   C1B34087  13.007   3.710   8.555
 8104POPC   C2B34088  13.012   3.722   8.255
 8104POPC   C3B34089  13.021   3.650   7.955
 8104POPC   C4B34090  13.046   3.656   7.655
 8105POPC   NC334091   8.204  41.548   9.455
 8105POPC   PO434092   8.228  41.573   9.155
 8105POPC   GL134093   8.164  41.538   8.855
 8105POPC   GL234094   8.142  41.435   8.855
 8105POPC   C1A34095   8.220  41.565   8.555
 8105POPC   D2A34096   8.202  41.578   8.255
 8105POPC   C3A34097   8.217  41.534   7.955
 8105POPC   C4A34098   8.197  41.603   7.655
 8105POPC   C1B34099   8.147  41.330   8.555
 8105POPC   C2B34100   8.151  41.356   8.255
 8105POPC   C3B34101   8.103  41.330   7.955
 8105POPC   C4B34102   8.104  41.307   7.655
 8106POPC   NC334103  36.102  37.677   9.455
 8106POPC   PO434104  36.122  37.652   9.155
 8106POPC   GL134105  36.144  37.648   8.855
 8106POPC   GL234106  36.298  37.644   8.855
 8106POPC   C1A34107  36.092  37.632   8.555
 8106POPC   D2A34108  36.132  37.662   8.255
 8106POPC   C3A34109  36.084  37.721   7.955
 8106POPC   C4A34110  36.090  37.637   7.655
 8106POPC   C1B34111  36.342  37.604   8.555
 8106POPC   C2B34112  36.361  37.666   8.255
 8106POPC   C3B34113  36.383  37.586   7.955
 8106POPC   C4B34114  36.390  37.666   7.655
 8107POPC   NC334115  42.285  12.849   9.455
 8107POPC   PO434116  42.384  12.814   9.155
 8107POPC   GL134117  42.349  12.835   8.855
 8107POPC   GL234118  42.469  12.781   8.855
 8107POPC   C1A34119  42.325  12.815   8.555
 8107POPC   D2A34120  42.317  12.843   8.255
 8107POPC   C3A34121  42.347  12.839   7.955
 8107POPC   C4A34122  42.294  12.803   7.655
 8107POPC   C1B34123  42.554  12.786   8.555
 8107POPC   C2B34124  42.550  12.758   8.255
 8107POPC   C3B34125  42.562  12.734   7.955
 8107POPC   C4B34126  42.597  12.775   7.655
 8108POPC   NC334127  39.206  34.573   9.455
 8108POPC   PO434128  39.266  34.556   9.155
 8108POPC   GL134129  39.221  34.613   8.855
 8108POPC   GL234130  39.228  34.489   8.855
 8108POPC   C1A34131  39.218  34.566   8.555
 8108POPC   D2A34132  39.224  34.600   8.255
 8108POPC   C3A34133  39.238  34.579   7.955
 8108POPC   C4A34134  39.186  34.609   7.655
 8108POPC   C1B34135  39.221  34.346   8.555
 8108POPC   C2B34136  39.160  34.314   8.255
 8108POPC   C3B34137  39.166  34.350   7.955
 8108POPC   C4B34138  39.223  34.293   7.655
 8109POPC   NC334139  43.143  40.015   9.455
 8109POPC   PO434140  43.109  40.051   9.155
 8109POPC   GL134141  43.123  39.967   8.855
 8109POPC   GL234142  43.056  39.953   8.855
 8109POPC   C1A34143  43.066  39.970   8.555
 8109POPC   D2A34144  43.094  39.991   8.255
 8109POPC   C3A34145  43.106  40.016   7.955
 8109POPC   C4A34146  43.123  40.039   7.655
 8109POPC   C1B34147  42.902  39.829   8.555
 8109POPC   C2B34148  42.909  39.840   8.255
 8109POPC   C3B34149  42.939  39.795   7.955
 8109POPC   C4B34150  42.881  39.827   7.655
 8110POPC   NC334151   5.119   7.462   9.455
 8110POPC   PO434152   5.114   7.409   9.155
 8110POPC   GL134153   5.099   7.420   8.855
 8110POPC   GL234154   5.008   7.284   8.855
 8110POPC   C1A34155   5.132   7.395   8.555
 8110POPC   D2A34156   5.122   7.374   8.255
 8110POPC   C3A34157   5.116   7.419   7.955
 8110POPC   C4A34158   5.075   7.403   7.655
 8110POPC   C1B34159   4.960   7.219   8.555
 8110POPC   C2B34160   4.912   7.265   8.255
 8110POPC   C3B34161   4.957   7.243   7.955
 8110POPC   C4B34162   4.970   7.179   7.655
 8111POPC   NC334163   0.464  27.641   9.455
 8111POPC   PO434164   0.427  27.546   9.155
 8111POPC   GL134165   0.402  27.635   8.855
 8111POPC   GL234166   0.305  27.575   8.855
 8111POPC   C1A34167   0.450  27.612   8.555
 8111POPC   D2A34168   0.433  27.588   8.255
 8111POPC   C3A34169   0.448  27.601   7.955
 8111POPC   C4A34170   0.444  27.545   7.655
 8111POPC   C1B34171   0.186  27.574   8.555
 8111POPC   C2B34172   0.207  27.553   8.255
 8111POPC   C3B34173   0.235  27.547   7.955
 8111POPC   C4B34174   0.162  27.545   7.655
 8112POPC   NC334175  34.579  37.658   9.455
 8112POPC   PO434176  34.597  37.727   9.155
 8112POPC   GL134177  34.598  37.652   8.855
 8112POPC   GL234178  34.562  37.782   8.855
 8112POPC   C1A34179  34.563  37.636   8.555
 8112POPC   D2A34180  34.592  37.654   8.255
 8112POPC   C3A34181  34.567  37.715   7.955
 8112POPC   C4A34182  34.527  37.674   7.655
 8112POPC   C1B34183  34.507  37.959   8.555
 8112POPC   C2B34184  34.486  37.867   8.255
 8112POPC   C3B34185  34.514  37.890   7.955
 8112POPC   C4B34186  34.452  37.950   7.655
 8113POPC   NC334187  40.816  41.568   9.455
 8113POPC   PO434188  40.747  41.572   9.155
 8113POPC   GL134189  40.825  41.580   8.855
 8113POPC   GL234190  40.775  41.655   8.855
 8113POPC   C1A34191  40.762  41.588   8.555
 8113POPC   D2A34192  40.831  41.597   8.255
 8113POPC   C3A34193  40.756  41.579   7.955
 8113POPC   C4A34194  40.798  41.582   7.655
 8113POPC   C1B34195  40.796  41.811   8.555
 8113POPC   C2B34196  40.786  41.822   8.255
 8113POPC   C3B34197  40.844  41.798   7.955
 8113POPC   C4B34198  40.880  41.806   7.655
 8114POPC   NC334199  22.918   5.133   9.455
 8114POPC   PO434200  22.970   5.078   9.155
 8114POPC   GL134201  22.943   5.080   8.855
 8114POPC   GL234202  22.789   5.000   8.855
 8114POPC   C1A34203  22.924   5.063   8.555
 8114POPC   D2A34204  22.947   5.079   8.255
 8114POPC   C3A34205  22.903   5.048   7.955
 8114POPC   C4A34206  22.909   5.060   7.655
 8114POPC   C1B34207  22.662   5.024   8.555
 8114POPC   C2B34208  22.732   4.944   8.255
 8114POPC   C3B34209  22.747   5.032   7.955
 8114POPC   C4B34210  22.751   4.952   7.655
 8115POPC   NC334211  36.138  31.504   9.455
 8115POPC   PO434212  36.174  31.466   9.155
 8115POPC   GL134213  36.126  31.471   8.855
 8115POPC   GL234214  36.237  31.522   8.855
 8115POPC   C1A34215  36.164  31.484   8.555
 8115POPC   D2A34216  36.105  31.446   8.255
 8115POPC   C3A34217  36.126  31.509   7.955
 8115POPC   C4A34218  36.083  31.469   7.655
 8115POPC   C1B34219  36.318  31.616   8.555
 8115POPC   C2B34220  36.384  31.626   8.255
 8115POPC   C3B34221  36.353  31.566   7.955
 8115POPC   C4B34222  36.357  31.649   7.655
 8116POPC   NC334223  19.082  24.526   9.455
 8116POPC   PO434224  19.099  24.498   9.155
 8116POPC   GL134225  19.048  24.538   8.855
 8116POPC   GL234226  18.918  24.509   8.855
 8116POPC   C1A34227  19.026  24.521   8.555
 8116POPC   D2A34228  19.059  24.471   8.255
 8116POPC   C3A34229  19.050  24.454   7.955
 8116POPC   C4A34230  19.082  24.482   7.655
 8116POPC   C1B34231  18.816  24.584   8.555
 8116POPC   C2B34232  18.809  24.629   8.255
 8116POPC   C3B34233  18.792  24.564   7.955
 8116POPC   C4B34234  18.836  24.618   7.655
 8117POPC   NC334235   3.496   2.717   9.455
 8117POPC   PO434236   3.569   2.765   9.155
 8117POPC   GL134237   3.543   2.751   8.855
 8117POPC   GL234238   3.561   2.658   8.855
 8117POPC   C1A34239   3.521   2.720   8.555
 8117POPC   D2A34240   3.575   2.764   8.255
 8117POPC   C3A34241   3.565   2.730   7.955
 8117POPC   C4A34242   3.492   2.801   7.655
 8117POPC   C1B34243   3.615   2.504   8.555
 8117POPC   C2B34244   3.545   2.543   8.255
 8117POPC   C3B34245   3.555   2.471   7.955
 8117POPC   C4B34246   3.605   2.512   7.655
 8118POPC   NC334247  31.507  13.622   9.455
 8118POPC   PO434248  31.474  13.636   9.155
 8118POPC   GL134249  31.466  13.675   8.855
 8118POPC   GL234250  31.473  13.492   8.855
 8118POPC   C1A34251  31.456  13.649   8.555
 8118POPC   D2A34252  31.480  13.596   8.255
 8118POPC   C3A34253  31.505  13.580   7.955
 8118POPC   C4A34254  31.447  13.676   7.655
 8118POPC   C1B34255  31.512  13.349   8.555
 8118POPC   C2B34256  31.576  13.402   8.255
 8118POPC   C3B34257  31.534  13.406   7.955
 8118POPC   C4B34258  31.487  13.398   7.655
 8119POPC   NC334259  44.661  35.311   9.455
 8119POPC   PO434260  44.637  35.345   9.155
 8119POPC   GL134261  44.641  35.345   8.855
 8119POPC   GL234262  44.744  35.332   8.855
 8119POPC   C1A34263  44.639  35.401   8.555
 8119POPC   D2A34264  44.623  35.347   8.255
 8119POPC   C3A34265  44.703  35.386   7.955
 8119POPC   C4A34266  44.679  35.320   7.655
 8119POPC   C1B34267  44.926  35.318   8.555
 8119POPC   C2B34268  44.884  35.381   8.255
 8119POPC   C3B34269  44.873  35.318   7.955
 8119POPC   C4B34270  44.923  35.321   7.655
 8120POPC   NC334271  37.677  28.335   9.455
 8120POPC   PO434272  37.659  28.343   9.155
 8120POPC   GL134273  37.635  28.372   8.855
 8120POPC   GL234274  37.736  28.511   8.855
 8120POPC   C1A34275  37.729  28.395   8.555
 8120POPC   D2A34276  37.633  28.386   8.255
 8120POPC   C3A34277  37.729  28.350   7.955
 8120POPC   C4A34278  37.699  28.401   7.655
 8120POPC   C1B34279  37.740  28.606   8.555
 8120POPC   C2B34280  37.768  28.560   8.255
 8120POPC   C3B34281  37.814  28.624   7.955
 8120POPC   C4B34282  37.808  28.600   7.655
 8121POPC   NC334283   5.916  37.637   9.455
 8121POPC   PO434284   5.890  37.695   9.155
 8121POPC   GL134285   5.826  37.632   8.855
 8121POPC   GL234286   5.733  37.649   8.855
 8121POPC   C1A34287   5.834  37.652   8.555
 8121POPC   D2A34288   5.861  37.644   8.255
 8121POPC   C3A34289   5.833  37.714   7.955
 8121POPC   C4A34290   5.873  37.677   7.655
 8121POPC   C1B34291   5.631  37.582   8.555
 8121POPC   C2B34292   5.631  37.525   8.255
 8121POPC   C3B34293   5.675  37.551   7.955
 8121POPC   C4B34294   5.632  37.528   7.655
 8122POPC   NC334295   9.773  36.908   9.455
 8122POPC   PO434296   9.700  36.856   9.155
 8122POPC   GL134297   9.724  36.901   8.855
 8122POPC   GL234298   9.682  37.034   8.855
 8122POPC   C1A34299   9.712  36.886   8.555
 8122POPC   D2A34300   9.730  36.861   8.255
 8122POPC   C3A34301   9.702  36.910   7.955
 8122POPC   C4A34302   9.725  36.896   7.655
 8122POPC   C1B34303   9.638  37.059   8.555
 8122POPC   C2B34304   9.568  37.084   8.255
 8122POPC   C3B34305   9.599  37.103   7.955
 8122POPC   C4B34306   9.550  37.116   7.655
 8123POPC   NC334307  17.552  16.761   9.455
 8123POPC   PO434308  17.502  16.685   9.155
 8123POPC   GL134309  17.481  16.771   8.855
 8123POPC   GL234310  17.606  16.635   8.855
 8123POPC   C1A34311  17.553  16.739   8.555
 8123POPC   D2A34312  17.517  16.723   8.255
 8123POPC   C3A34313  17.544  16.704   7.955
 8123POPC   C4A34314  17.472  16.719   7.655
 8123POPC   C1B34315  17.640  16.549   8.555
 8123POPC   C2B34316  17.710  16.590   8.255
 8123POPC   C3B34317  17.668  16.558   7.955
 8123POPC   C4B34318  17.650  16.505   7.655
 8124POPC   NC334319  39.968  38.464   9.455
 8124POPC   PO434320  39.986  38.502   9.155
 8124POPC   GL134321  40.055  38.473   8.855
 8124POPC   GL234322  40.146  38.507   8.855
 8124POPC   C1A34323  39.971  38.494   8.555
 8124POPC   D2A34324  40.037  38.485   8.255
 8124POPC   C3A34325  40.032  38.417   7.955
 8124POPC   C4A34326  40.040  38.465   7.655
 8124POPC   C1B34327  40.178  38.549   8.555
 8124POPC   C2B34328  40.222  38.607   8.255
 8124POPC   C3B34329  40.183  38.581   7.955
 8124POPC   C4B34330  40.256  38.640   7.655
 8125POPC   NC334331   2.740   1.203   9.455
 8125POPC   PO434332   2.781   1.252   9.155
 8125POPC   GL134333   2.724   1.239   8.855
 8125POPC   GL234334   2.655   1.170   8.855
 8125POPC   C1A34335   2.747   1.172   8.555
 8125POPC   D2A34336   2.791   1.187   8.255
 8125POPC   C3A34337   2.746   1.174   7.955
 8125POPC   C4A34338   2.745   1.252   7.655
 8125POPC   C1B34339   2.555   1.238   8.555
 8125POPC   C2B34340   2.505   1.201   8.255
 8125POPC   C3B34341   2.466   1.244   7.955
 8125POPC   C4B34342   2.521   1.228   7.655
 8126POPC   NC334343   2.726  25.230   9.455
 8126POPC   PO434344   2.758  25.234   9.155
 8126POPC   GL134345   2.771  25.278   8.855
 8126POPC   GL234346   2.837  25.412   8.855
 8126POPC   C1A34347   2.766  25.218   8.555
 8126POPC   D2A34348   2.815  25.259   8.255
 8126POPC   C3A34349   2.780  25.299   7.955
 8126POPC   C4A34350   2.774  25.254   7.655
 8126POPC   C1B34351   2.811  25.485   8.555
 8126POPC   C2B34352   2.799  25.489   8.255
 8126POPC   C3B34353   2.853  25.547   7.955
 8126POPC   C4B34354   2.794  25.540   7.655
 8127POPC   NC334355  15.145  22.191   9.455
 8127POPC   PO434356  15.184  22.124   9.155
 8127POPC   GL134357  15.142  22.126   8.855
 8127POPC   GL234358  15.267  22.049   8.855
 8127POPC   C1A34359  15.160  22.182   8.555
 8127POPC   D2A34360  15.147  22.195   8.255
 8127POPC   C3A34361  15.163  22.157   7.955
 8127POPC   C4A34362  15.154  22.134   7.655
 8127POPC   C1B34363  15.338  21.911   8.555
 8127POPC   C2B34364  15.283  21.976   8.255
 8127POPC   C3B34365  15.271  21.947   7.955
 8127POPC   C4B34366  15.255  21.907   7.655
 8128POPC   NC334367   2.798  39.958   9.455
 8128POPC   PO434368   2.783  39.963   9.155
 8128POPC   GL134369   2.756  39.982   8.855
 8128POPC   GL234370   2.665  40.118   8.855
 8128POPC   C1A34371   2.792  40.020   8.555
 8128POPC   D2A34372   2.794  40.009   8.255
 8128POPC   C3A34373   2.807  40.006   7.955
 8128POPC   C4A34374   2.771  40.046   7.655
 8128POPC   C1B34375   2.671  40.231   8.555
 8128POPC   C2B34376   2.646  40.251   8.255
 8128POPC   C3B34377   2.655  40.170   7.955
 8128POPC   C4B34378   2.640  40.221   7.655
 8129POPC   NC334379  44.678   6.620   9.455
 8129POPC   PO434380  44.668   6.610   9.155
 8129POPC   GL134381  44.685   6.651   8.855
 8129POPC   GL234382  44.714   6.759   8.855
 8129POPC   C1A34383  44.620   6.618   8.555
 8129POPC   D2A34384  44.648   6.607   8.255
 8129POPC   C3A34385  44.651   6.661   7.955
 8129POPC   C4A34386  44.660   6.684   7.655
 8129POPC   C1B34387  44.714   6.913   8.555
 8129POPC   C2B34388  44.709   6.913   8.255
 8129POPC   C3B34389  44.647   6.866   7.955
 8129POPC   C4B34390  44.651   6.892   7.655
 8130POPC   NC334391  42.325  26.089   9.455
 8130POPC   PO434392  42.359  26.053   9.155
 8130POPC   GL134393  42.285  26.059   8.855
 8130POPC   GL234394  42.306  26.119   8.855
 8130POPC   C1A34395  42.384  26.047   8.555
 8130POPC   D2A34396  42.309  26.003   8.255
 8130POPC   C3A34397  42.360  26.052   7.955
 8130POPC   C4A34398  42.347  26.005   7.655
 8130POPC   C1B34399  42.217  26.290   8.555
 8130POPC   C2B34400  42.201  26.291   8.255
 8130POPC   C3B34401  42.197  26.260   7.955
 8130POPC   C4B34402  42.247  26.306   7.655
 8131POPC   NC334403   5.889   9.760   9.455
 8131POPC   PO434404   5.910   9.775   9.155
 8131POPC   GL134405   5.859   9.778   8.855
 8131POPC   GL234406   5.891   9.898   8.855
 8131POPC   C1A34407   5.898   9.739   8.555
 8131POPC   D2A34408   5.862   9.731   8.255
 8131POPC   C3A34409   5.843   9.702   7.955
 8131POPC   C4A34410   5.872   9.785   7.655
 8131POPC   C1B34411   5.843  10.001   8.555
 8131POPC   C2B34412   5.870   9.972   8.255
 8131POPC   C3B34413   5.893   9.975   7.955
 8131POPC   C4B34414   5.902  10.043   7.655
 8132POPC   NC334415  26.823  16.777   9.455
 8132POPC   PO434416  26.804  16.690   9.155
 8132POPC   GL134417  26.834  16.776   8.855
 8132POPC   GL234418  26.903  16.855   8.855
 8132POPC   C1A34419  26.807  16.727   8.555
 8132POPC   D2A34420  26.769  16.737   8.255
 8132POPC   C3A34421  26.863  16.732   7.955
 8132POPC   C4A34422  26.853  16.747   7.655
 8132POPC   C1B34423  26.970  16.957   8.555
 8132POPC   C2B34424  26.988  16.892   8.255
 8132POPC   C3B34425  26.943  16.870   7.955
 8132POPC   C4B34426  26.957  16.925   7.655
 8133POPC   NC334427  35.303  41.566   9.455
 8133POPC   PO434428  35.341  41.592   9.155
 8133POPC   GL134429  35.321  41.562   8.855
 8133POPC   GL234430  35.421  41.528   8.855
 8133POPC   C1A34431  35.342  41.514   8.555
 8133POPC   D2A34432  35.314  41.590   8.255
 8133POPC   C3A34433  35.377  41.522   7.955
 8133POPC   C4A34434  35.346  41.550   7.655
 8133POPC   C1B34435  35.600  41.481   8.555
 8133POPC   C2B34436  35.596  41.450   8.255
 8133POPC   C3B34437  35.610  41.403   7.955
 8133POPC   C4B34438  35.588  41.455   7.655
 8134POPC   NC334439  36.133  43.152   9.455
 8134POPC   PO434440  36.166  43.090   9.155
 8134POPC   GL134441  36.122  43.114   8.855
 8134POPC   GL234442  36.052  43.162   8.855
 8134POPC   C1A34443  36.089  43.144   8.555
 8134POPC   D2A34444  36.136  43.103   8.255
 8134POPC   C3A34445  36.166  43.094   7.955
 8134POPC   C4A34446  36.153  43.158   7.655
 8134POPC   C1B34447  35.927  43.165   8.555
 8134POPC   C2B34448  35.938  43.170   8.255
 8134POPC   C3B34449  35.907  43.170   7.955
 8134POPC   C4B34450  35.874  43.238   7.655
 8135POPC   NC334451   8.935   2.720   9.455
 8135POPC   PO434452   8.945   2.812   9.155
 8135POPC   GL134453   8.965   2.794   8.855
 8135POPC   GL234454   8.841   2.749   8.855
 8135POPC   C1A34455   8.944   2.776   8.555
 8135POPC   D2A34456   8.972   2.780   8.255
 8135POPC   C3A34457   8.949   2.790   7.955
 8135POPC   C4A34458   8.923   2.793   7.655
 8135POPC   C1B34459   8.761   2.698   8.555
 8135POPC   C2B34460   8.780   2.648   8.255
 8135POPC   C3B34461   8.708   2.678   7.955
 8135POPC   C4B34462   8.762   2.711   7.655
 8136POPC   NC334463   5.910  31.521   9.455
 8136POPC   PO434464   5.864  31.518   9.155
 8136POPC   GL134465   5.907  31.511   8.855
 8136POPC   GL234466   5.948  31.569   8.855
 8136POPC   C1A34467   5.871  31.431   8.555
 8136POPC   D2A34468   5.830  31.477   8.255
 8136POPC   C3A34469   5.855  31.456   7.955
 8136POPC   C4A34470   5.882  31.491   7.655
 8136POPC   C1B34471   5.948  31.651   8.555
 8136POPC   C2B34472   5.936  31.693   8.255
 8136POPC   C3B34473   6.008  31.740   7.955
 8136POPC   C4B34474   6.026  31.674   7.655
 8137POPC   NC334475  13.613  22.925   9.455
 8137POPC   PO434476  13.592  22.923   9.155
 8137POPC   GL134477  13.668  22.930   8.855
 8137POPC   GL234478  13.533  22.899   8.855
 8137POPC   C1A34479  13.579  22.890   8.555
 8137POPC   D2A34480  13.648  22.987   8.255
 8137POPC   C3A34481  13.589  22.960   7.955
 8137POPC   C4A34482  13.630  22.911   7.655
 8137POPC   C1B34483  13.381  22.834   8.555
 8137POPC   C2B34484  13.377  22.876   8.255
 8137POPC   C3B34485  13.421  22.889   7.955
 8137POPC   C4B34486  13.434  22.851   7.655
 8138POPC   NC334487  10.489  36.159   9.455
 8138POPC   PO434488  10.506  36.134   9.155
 8138POPC   GL134489  10.568  36.166   8.855
 8138POPC   GL234490  10.629  36.075   8.855
 8138POPC   C1A34491  10.483  36.096   8.555
 8138POPC   D2A34492  10.574  36.142   8.255
 8138POPC   C3A34493  10.486  36.122   7.955
 8138POPC   C4A34494  10.486  36.115   7.655
 8138POPC   C1B34495  10.770  36.157   8.555
 8138POPC   C2B34496  10.822  36.124   8.255
 8138POPC   C3B34497  10.807  36.085   7.955
 8138POPC   C4B34498  10.808  36.133   7.655
 8139POPC   NC334499  29.926   8.182   9.455
 8139POPC   PO434500  29.943   8.242   9.155
 8139POPC   GL134501  29.884   8.179   8.855
 8139POPC   GL234502  29.898   8.293   8.855
 8139POPC   C1A34503  29.876   8.179   8.555
 8139POPC   D2A34504  29.938   8.193   8.255
 8139POPC   C3A34505  29.969   8.163   7.955
 8139POPC   C4A34506  29.873   8.193   7.655
 8139POPC   C1B34507  29.797   8.426   8.555
 8139POPC   C2B34508  29.852   8.446   8.255
 8139POPC   C3B34509  29.793   8.403   7.955
 8139POPC   C4B34510  29.864   8.424   7.655
 8140POPC   NC334511  12.120   9.747   9.455
 8140POPC   PO434512  12.037   9.723   9.155
 8140POPC   GL134513  12.028   9.705   8.855
 8140POPC   GL234514  12.138   9.878   8.855
 8140POPC   C1A34515  12.039   9.744   8.555
 8140POPC   D2A34516  12.058   9.731   8.255
 8140POPC   C3A34517  12.052   9.716   7.955
 8140POPC   C4A34518  12.030   9.782   7.655
 8140POPC   C1B34519  12.230   9.955   8.555
 8140POPC   C2B34520  12.243   9.970   8.255
 8140POPC   C3B34521  12.187   9.966   7.955
 8140POPC   C4B34522  12.243   9.986   7.655
 8141POPC   NC334523  40.744   2.793   9.455
 8141POPC   PO434524  40.748   2.736   9.155
 8141POPC   GL134525  40.819   2.813   8.855
 8141POPC   GL234526  40.849   2.693   8.855
 8141POPC   C1A34527  40.769   2.720   8.555
 8141POPC   D2A34528  40.787   2.737   8.255
 8141POPC   C3A34529  40.743   2.801   7.955
 8141POPC   C4A34530  40.802   2.797   7.655
 8141POPC   C1B34531  40.992   2.662   8.555
 8141POPC   C2B34532  40.991   2.627   8.255
 8141POPC   C3B34533  40.968   2.628   7.955
 8141POPC   C4B34534  40.987   2.677   7.655
 8142POPC   NC334535  31.437   5.895   9.455
 8142POPC   PO434536  31.451   5.897   9.155
 8142POPC   GL134537  31.444   5.833   8.855
 8142POPC   GL234538  31.416   5.743   8.855
 8142POPC   C1A34539  31.480   5.894   8.555
 8142POPC   D2A34540  31.512   5.884   8.255
 8142POPC   C3A34541  31.456   5.859   7.955
 8142POPC   C4A34542  31.506   5.875   7.655
 8142POPC   C1B34543  31.458   5.625   8.555
 8142POPC   C2B34544  31.379   5.587   8.255
 8142POPC   C3B34545  31.456   5.595   7.955
 8142POPC   C4B34546  31.409   5.602   7.655
 8143POPC   NC334547  44.629  15.993   9.455
 8143POPC   PO434548  44.657  15.990   9.155
 8143POPC   GL134549  44.683  15.910   8.855
 8143POPC   GL234550  44.587  15.948   8.855
 8143POPC   C1A34551  44.619  15.986   8.555
 8143POPC   D2A34552  44.658  15.984   8.255
 8143POPC   C3A34553  44.649  15.941   7.955
 8143POPC   C4A34554  44.707  15.939   7.655
 8143POPC   C1B34555  44.379  15.920   8.555
 8143POPC   C2B34556  44.405  15.925   8.255
 8143POPC   C3B34557  44.418  15.961   7.955
 8143POPC   C4B34558  44.378  15.892   7.655
 8144POPC   NC334559  12.886  41.515   9.455
 8144POPC   PO434560  12.807  41.541   9.155
 8144POPC   GL134561  12.866  41.513   8.855
 8144POPC   GL234562  12.978  41.513   8.855
 8144POPC   C1A34563  12.885  41.517   8.555
 8144POPC   D2A34564  12.895  41.516   8.255
 8144POPC   C3A34565  12.880  41.511   7.955
 8144POPC   C4A34566  12.835  41.584   7.655
 8144POPC   C1B34567  13.130  41.496   8.555
 8144POPC   C2B34568  13.119  41.544   8.255
 8144POPC   C3B34569  13.132  41.563   7.955
 8144POPC   C4B34570  13.145  41.544   7.655
 8145POPC   NC334571  40.040  13.648   9.455
 8145POPC   PO434572  39.999  13.609   9.155
 8145POPC   GL134573  40.026  13.593   8.855
 8145POPC   GL234574  39.895  13.739   8.855
 8145POPC   C1A34575  39.997  13.677   8.555
 8145POPC   D2A34576  40.006  13.647   8.255
 8145POPC   C3A34577  40.019  13.597   7.955
 8145POPC   C4A34578  40.009  13.578   7.655
 8145POPC   C1B34579  39.870  13.781   8.555
 8145POPC   C2B34580  39.786  13.777   8.255
 8145POPC   C3B34581  39.776  13.754   7.955
 8145POPC   C4B34582  39.776  13.766   7.655
 8146POPC   NC334583  32.201  31.498   9.455
 8146POPC   PO434584  32.288  31.519   9.155
 8146POPC   GL134585  32.273  31.463   8.855
 8146POPC   GL234586  32.322  31.605   8.855
 8146POPC   C1A34587  32.199  31.484   8.555
 8146POPC   D2A34588  32.210  31.452   8.255
 8146POPC   C3A34589  32.257  31.442   7.955
 8146POPC   C4A34590  32.285  31.425   7.655
 8146POPC   C1B34591  32.430  31.649   8.555
 8146POPC   C2B34592  32.399  31.671   8.255
 8146POPC   C3B34593  32.440  31.614   7.955
 8146POPC   C4B34594  32.441  31.663   7.655
 8147POPC   NC334595  21.391   2.020   9.455
 8147POPC   PO434596  21.366   2.030   9.155
 8147POPC   GL134597  21.347   2.004   8.855
 8147POPC   GL234598  21.520   1.949   8.855
 8147POPC   C1A34599  21.413   1.962   8.555
 8147POPC   D2A34600  21.350   2.037   8.255
 8147POPC   C3A34601  21.427   1.944   7.955
 8147POPC   C4A34602  21.391   1.987   7.655
 8147POPC   C1B34603  21.680   1.930   8.555
 8147POPC   C2B34604  21.664   2.006   8.255
 8147POPC   C3B34605  21.634   1.963   7.955
 8147POPC   C4B34606  21.655   1.916   7.655
 8148POPC   NC334607  15.200  14.423   9.455
 8148POPC   PO434608  15.219  14.416   9.155
 8148POPC   GL134609  15.133  14.421   8.855
 8148POPC   GL234610  15.157  14.306   8.855
 8148POPC   C1A34611  15.175  14.357   8.555
 8148POPC   D2A34612  15.198  14.414   8.255
 8148POPC   C3A34613  15.224  14.410   7.955
 8148POPC   C4A34614  15.220  14.360   7.655
 8148POPC   C1B34615  15.076  14.144   8.555
 8148POPC   C2B34616  15.085  14.168   8.255
 8148POPC   C3B34617  15.055  14.199   7.955
 8148POPC   C4B34618  15.056  14.167   7.655
 8149POPC   NC334619  43.846  21.353   9.455
 8149POPC   PO434620  43.875  21.381   9.155
 8149POPC   GL134621  43.932  21.389   8.855
 8149POPC   GL234622  44.052  21.372   8.855
 8149POPC   C1A34623  43.864  21.387   8.555
 8149POPC   D2A34624  43.837  21.338   8.255
 8149POPC   C3A34625  43.873  21.424   7.955
 8149POPC   C4A34626  43.924  21.373   7.655
 8149POPC   C1B34627  44.146  21.391   8.555
 8149POPC   C2B34628  44.113  21.396   8.255
 8149POPC   C3B34629  44.112  21.372   7.955
 8149POPC   C4B34630  44.131  21.396   7.655
 8150POPC   NC334631   9.783  10.529   9.455
 8150POPC   PO434632   9.790  10.549   9.155
 8150POPC   GL134633   9.713  10.487   8.855
 8150POPC   GL234634   9.653  10.436   8.855
 8150POPC   C1A34635   9.757  10.573   8.555
 8150POPC   D2A34636   9.767  10.533   8.255
 8150POPC   C3A34637   9.702  10.543   7.955
 8150POPC   C4A34638   9.727  10.567   7.655
 8150POPC   C1B34639   9.577  10.282   8.555
 8150POPC   C2B34640   9.584  10.348   8.255
 8150POPC   C3B34641   9.598  10.280   7.955
 8150POPC   C4B34642   9.593  10.355   7.655
 8151POPC   NC334643   5.912   0.408   9.455
 8151POPC   PO434644   5.858   0.416   9.155
 8151POPC   GL134645   5.820   0.487   8.855
 8151POPC   GL234646   5.876   0.581   8.855
 8151POPC   C1A34647   5.892   0.446   8.555
 8151POPC   D2A34648   5.872   0.432   8.255
 8151POPC   C3A34649   5.862   0.467   7.955
 8151POPC   C4A34650   5.914   0.455   7.655
 8151POPC   C1B34651   5.960   0.710   8.555
 8151POPC   C2B34652   5.952   0.702   8.255
 8151POPC   C3B34653   5.960   0.671   7.955
 8151POPC   C4B34654   5.923   0.688   7.655
 8152POPC   NC334655  31.431  42.300   9.455
 8152POPC   PO434656  31.483  42.312   9.155
 8152POPC   GL134657  31.488  42.320   8.855
 8152POPC   GL234658  31.569  42.287   8.855
 8152POPC   C1A34659  31.471  42.384   8.555
 8152POPC   D2A34660  31.453  42.348   8.255
 8152POPC   C3A34661  31.442  42.305   7.955
 8152POPC   C4A34662  31.443  42.296   7.655
 8152POPC   C1B34663  31.722  42.232   8.555
 8152POPC   C2B34664  31.750  42.268   8.255
 8152POPC   C3B34665  31.730  42.242   7.955
 8152POPC   C4B34666  31.695  42.254   7.655
 8153POPC   NC334667  31.473  38.464   9.455
 8153POPC   PO434668  31.474  38.489   9.155
 8153POPC   GL134669  31.444  38.495   8.855
 8153POPC   GL234670  31.607  38.439   8.855
 8153POPC   C1A34671  31.513  38.476   8.555
 8153POPC   D2A34672  31.486  38.428   8.255
 8153POPC   C3A34673  31.442  38.497   7.955
 8153POPC   C4A34674  31.460  38.471   7.655
 8153POPC   C1B34675  31.762  38.384   8.555
 8153POPC   C2B34676  31.681  38.430   8.255
 8153POPC   C3B34677  31.741  38.363   7.955
 8153POPC   C4B34678  31.698  38.399   7.655
 8154POPC   NC334679  32.274  12.882   9.455
 8154POPC   PO434680  32.285  12.835   9.155
 8154POPC   GL134681  32.283  12.863   8.855
 8154POPC   GL234682  32.248  13.008   8.855
 8154POPC   C1A34683  32.212  12.898   8.555
 8154POPC   D2A34684  32.297  12.818   8.255
 8154POPC   C3A34685  32.226  12.822   7.955
 8154POPC   C4A34686  32.263  12.814   7.655
 8154POPC   C1B34687  32.200  13.064   8.555
 8154POPC   C2B34688  32.262  13.066   8.255
 8154POPC   C3B34689  32.234  13.053   7.955
 8154POPC   C4B34690  32.259  13.110   7.655
 8155POPC   NC334691  14.387   5.102   9.455
 8155POPC   PO434692  14.430   5.121   9.155
 8155POPC   GL134693  14.444   5.120   8.855
 8155POPC   GL234694  14.338   5.219   8.855
 8155POPC   C1A34695  14.355   5.126   8.555
 8155POPC   D2A34696  14.438   5.108   8.255
 8155POPC   C3A34697  14.387   5.124   7.955
 8155POPC   C4A34698  14.415   5.066   7.655
 8155POPC   C1B34699  14.267   5.323   8.555
 8155POPC   C2B34700  14.327   5.267   8.255
 8155POPC   C3B34701  14.247   5.336   7.955
 8155POPC   C4B34702  14.326   5.279   7.655
 8156POPC   NC334703  13.604   4.296   9.455
 8156POPC   PO434704  13.622   4.342   9.155
 8156POPC   GL134705  13.620   4.314   8.855
 8156POPC   GL234706  13.476   4.349   8.855
 8156POPC   C1A34707  13.648   4.305   8.555
 8156POPC   D2A34708  13.625   4.293   8.255
 8156POPC   C3A34709  13.582   4.347   7.955
 8156POPC   C4A34710  13.675   4.362   7.655
 8156POPC   C1B34711  13.359   4.350   8.555
 8156POPC   C2B34712  13.376   4.345   8.255
 8156POPC   C3B34713  13.376   4.408   7.955
 8156POPC   C4B34714  13.366   4.385   7.655
 8157POPC   NC334715  28.354  38.483   9.455
 8157POPC   PO434716  28.366  38.452   9.155
 8157POPC   GL134717  28.339  38.453   8.855
 8157POPC   GL234718  28.500  38.465   8.855
 8157POPC   C1A34719  28.374  38.475   8.555
 8157POPC   D2A34720  28.369  38.415   8.255
 8157POPC   C3A34721  28.368  38.421   7.955
 8157POPC   C4A34722  28.360  38.461   7.655
 8157POPC   C1B34723  28.622  38.514   8.555
 8157POPC   C2B34724  28.552  38.542   8.255
 8157POPC   C3B34725  28.574  38.558   7.955
 8157POPC   C4B34726  28.561  38.518   7.655
 8158POPC   NC334727  43.148  19.861   9.455
 8158POPC   PO434728  43.083  19.883   9.155
 8158POPC   GL134729  43.135  19.797   8.855
 8158POPC   GL234730  42.995  19.922   8.855
 8158POPC   C1A34731  43.084  19.791   8.555
 8158POPC   D2A34732  43.128  19.865   8.255
 8158POPC   C3A34733  43.102  19.795   7.955
 8158POPC   C4A34734  43.076  19.813   7.655
 8158POPC   C1B34735  42.926  19.998   8.555
 8158POPC   C2B34736  42.902  19.940   8.255
 8158POPC   C3B34737  42.927  19.948   7.955
 8158POPC   C4B34738  42.900  19.935   7.655
 8159POPC   NC334739   1.218  11.310   9.455
 8159POPC   PO434740   1.224  11.308   9.155
 8159POPC   GL134741   1.200  11.323   8.855
 8159POPC   GL234742   1.165  11.435   8.855
 8159POPC   C1A34743   1.177  11.266   8.555
 8159POPC   D2A34744   1.169  11.279   8.255
 8159POPC   C3A34745   1.234  11.314   7.955
 8159POPC   C4A34746   1.205  11.340   7.655
 8159POPC   C1B34747   1.160  11.498   8.555
 8159POPC   C2B34748   1.172  11.517   8.255
 8159POPC   C3B34749   1.141  11.522   7.955
 8159POPC   C4B34750   1.186  11.589   7.655
 8160POPC   NC334751  39.184  22.935   9.455
 8160POPC   PO434752  39.277  22.965   9.155
 8160POPC   GL134753  39.223  22.957   8.855
 8160POPC   GL234754  39.265  23.026   8.855
 8160POPC   C1A34755  39.248  22.901   8.555
 8160POPC   D2A34756  39.253  22.944   8.255
 8160POPC   C3A34757  39.193  22.906   7.955
 8160POPC   C4A34758  39.276  22.922   7.655
 8160POPC   C1B34759  39.324  23.230   8.555
 8160POPC   C2B34760  39.332  23.163   8.255
 8160POPC   C3B34761  39.306  23.182   7.955
 8160POPC   C4B34762  39.284  23.193   7.655
 8161POPC   NC334763  39.266  43.927   9.455
 8161POPC   PO434764  39.218  43.861   9.155
 8161POPC   GL134765  39.194  43.909   8.855
 8161POPC   GL234766  39.246  43.719   8.855
 8161POPC   C1A34767  39.239  43.848   8.555
 8161POPC   D2A34768  39.202  43.867   8.255
 8161POPC   C3A34769  39.224  43.905   7.955
 8161POPC   C4A34770  39.249  43.907   7.655
 8161POPC   C1B34771  39.242  43.648   8.555
 8161POPC   C2B34772  39.235  43.661   8.255
 8161POPC   C3B34773  39.277  43.621   7.955
 8161POPC   C4B34774  39.251  43.639   7.655
 8162POPC   NC334775  17.520  27.628   9.455
 8162POPC   PO434776  17.522  27.547   9.155
 8162POPC   GL134777  17.536  27.577   8.855
 8162POPC   GL234778  17.604  27.640   8.855
 8162POPC   C1A34779  17.510  27.567   8.555
 8162POPC   D2A34780  17.548  27.632   8.255
 8162POPC   C3A34781  17.458  27.639   7.955
 8162POPC   C4A34782  17.506  27.598   7.655
 8162POPC   C1B34783  17.746  27.788   8.555
 8162POPC   C2B34784  17.716  27.757   8.255
 8162POPC   C3B34785  17.689  27.744   7.955
 8162POPC   C4B34786  17.746  27.774   7.655
 8163POPC   NC334787  40.828  33.024   9.455
 8163POPC   PO434788  40.809  32.993   9.155
 8163POPC   GL134789  40.763  33.046   8.855
 8163POPC   GL234790  40.818  32.927   8.855
 8163POPC   C1A34791  40.787  32.978   8.555
 8163POPC   D2A34792  40.784  33.002   8.255
 8163POPC   C3A34793  40.802  32.986   7.955
 8163POPC   C4A34794  40.791  32.990   7.655
 8163POPC   C1B34795  40.832  32.819   8.555
 8163POPC   C2B34796  40.875  32.764   8.255
 8163POPC   C3B34797  40.796  32.772   7.955
 8163POPC   C4B34798  40.783  32.814   7.655
 8164POPC   NC334799  36.907   1.977   9.455
 8164POPC   PO434800  36.950   2.018   9.155
 8164POPC   GL134801  36.951   1.960   8.855
 8164POPC   GL234802  37.052   1.953   8.855
 8164POPC   C1A34803  36.945   1.986   8.555
 8164POPC   D2A34804  36.868   1.974   8.255
 8164POPC   C3A34805  36.908   1.963   7.955
 8164POPC   C4A34806  36.861   2.029   7.655
 8164POPC   C1B34807  37.115   1.856   8.555
 8164POPC   C2B34808  37.145   1.836   8.255
 8164POPC   C3B34809  37.090   1.863   7.955
 8164POPC   C4B34810  37.056   1.847   7.655
 8165POPC   NC334811   8.977  27.598   9.455
 8165POPC   PO434812   8.957  27.624   9.155
 8165POPC   GL134813   9.004  27.563   8.855
 8165POPC   GL234814   9.139  27.505   8.855
 8165POPC   C1A34815   8.956  27.608   8.555
 8165POPC   D2A34816   8.950  27.581   8.255
 8165POPC   C3A34817   8.957  27.550   7.955
 8165POPC   C4A34818   9.011  27.624   7.655
 8165POPC   C1B34819   9.174  27.536   8.555
 8165POPC   C2B34820   9.186  27.553   8.255
 8165POPC   C3B34821   9.221  27.532   7.955
 8165POPC   C4B34822   9.231  27.478   7.655
 8166POPC   NC334823  19.880  26.861   9.455
 8166POPC   PO434824  19.874  26.811   9.155
 8166POPC   GL134825  19.810  26.853   8.855
 8166POPC   GL234826  19.877  26.949   8.855
 8166POPC   C1A34827  19.817  26.770   8.555
 8166POPC   D2A34828  19.860  26.793   8.255
 8166POPC   C3A34829  19.815  26.862   7.955
 8166POPC   C4A34830  19.849  26.858   7.655
 8166POPC   C1B34831  19.863  27.112   8.555
 8166POPC   C2B34832  19.829  27.115   8.255
 8166POPC   C3B34833  19.826  27.054   7.955
 8166POPC   C4B34834  19.893  27.054   7.655
 8167POPC   NC334835  17.504   9.776   9.455
 8167POPC   PO434836  17.489   9.737   9.155
 8167POPC   GL134837  17.529   9.714   8.855
 8167POPC   GL234838  17.489   9.593   8.855
 8167POPC   C1A34839  17.534   9.778   8.555
 8167POPC   D2A34840  17.499   9.773   8.255
 8167POPC   C3A34841  17.546   9.752   7.955
 8167POPC   C4A34842  17.500   9.739   7.655
 8167POPC   C1B34843  17.434   9.466   8.555
 8167POPC   C2B34844  17.410   9.469   8.255
 8167POPC   C3B34845  17.477   9.520   7.955
 8167POPC   C4B34846  17.425   9.520   7.655
 8168POPC   NC334847  38.420  38.439   9.455
 8168POPC   PO434848  38.475  38.467   9.155
 8168POPC   GL134849  38.463  38.443   8.855
 8168POPC   GL234850  38.605  38.468   8.855
 8168POPC   C1A34851  38.433  38.423   8.555
 8168POPC   D2A34852  38.435  38.484   8.255
 8168POPC   C3A34853  38.417  38.471   7.955
 8168POPC   C4A34854  38.471  38.419   7.655
 8168POPC   C1B34855  38.749  38.422   8.555
 8168POPC   C2B34856  38.684  38.447   8.255
 8168POPC   C3B34857  38.710  38.452   7.955
 8168POPC   C4B34858  38.733  38.411   7.655
 8169POPC   NC334859  42.382  39.211   9.455
 8169POPC   PO434860  42.286  39.268   9.155
 8169POPC   GL134861  42.296  39.246   8.855
 8169POPC   GL234862  42.503  39.242   8.855
 8169POPC   C1A34863  42.338  39.247   8.555
 8169POPC   D2A34864  42.374  39.268   8.255
 8169POPC   C3A34865  42.318  39.278   7.955
 8169POPC   C4A34866  42.336  39.203   7.655
 8169POPC   C1B34867  42.541  39.257   8.555
 8169POPC   C2B34868  42.613  39.223   8.255
 8169POPC   C3B34869  42.577  39.270   7.955
 8169POPC   C4B34870  42.616  39.195   7.655
 8170POPC   NC334871  43.080  27.562   9.455
 8170POPC   PO434872  43.094  27.635   9.155
 8170POPC   GL134873  43.115  27.581   8.855
 8170POPC   GL234874  43.230  27.644   8.855
 8170POPC   C1A34875  43.091  27.616   8.555
 8170POPC   D2A34876  43.096  27.609   8.255
 8170POPC   C3A34877  43.066  27.624   7.955
 8170POPC   C4A34878  43.142  27.598   7.655
 8170POPC   C1B34879  43.357  27.646   8.555
 8170POPC   C2B34880  43.327  27.669   8.255
 8170POPC   C3B34881  43.311  27.691   7.955
 8170POPC   C4B34882  43.340  27.657   7.655
 8171POPC   NC334883   9.788   4.357   9.455
 8171POPC   PO434884   9.751   4.366   9.155
 8171POPC   GL134885   9.780   4.342   8.855
 8171POPC   GL234886   9.638   4.408   8.855
 8171POPC   C1A34887   9.710   4.319   8.555
 8171POPC   D2A34888   9.717   4.282   8.255
 8171POPC   C3A34889   9.769   4.275   7.955
 8171POPC   C4A34890   9.704   4.281   7.655
 8171POPC   C1B34891   9.488   4.446   8.555
 8171POPC   C2B34892   9.511   4.419   8.255
 8171POPC   C3B34893   9.535   4.452   7.955
 8171POPC   C4B34894   9.504   4.448   7.655
 8172POPC   NC334895  12.057   1.197   9.455
 8172POPC   PO434896  12.062   1.250   9.155
 8172POPC   GL134897  12.053   1.244   8.855
 8172POPC   GL234898  12.062   1.341   8.855
 8172POPC   C1A34899  12.081   1.170   8.555
 8172POPC   D2A34900  12.110   1.179   8.255
 8172POPC   C3A34901  12.081   1.255   7.955
 8172POPC   C4A34902  12.065   1.256   7.655
 8172POPC   C1B34903  12.001   1.432   8.555
 8172POPC   C2B34904  11.951   1.455   8.255
 8172POPC   C3B34905  11.997   1.391   7.955
 8172POPC   C4B34906  11.971   1.432   7.655
 8173POPC   NC334907  33.020  39.275   9.455
 8173POPC   PO434908  33.074  39.187   9.155
 8173POPC   GL134909  33.015  39.265   8.855
 8173POPC   GL234910  33.011  39.141   8.855
 8173POPC   C1A34911  32.987  39.233   8.555
 8173POPC   D2A34912  33.033  39.269   8.255
 8173POPC   C3A34913  32.997  39.237   7.955
 8173POPC   C4A34914  33.022  39.258   7.655
 8173POPC   C1B34915  32.999  38.984   8.555
 8173POPC   C2B34916  32.914  38.982   8.255
 8173POPC   C3B34917  32.909  39.023   7.955
 8173POPC   C4B34918  33.004  38.980   7.655
 8174POPC   NC334919   0.471  38.413   9.455
 8174POPC   PO434920   0.403  38.488   9.155
 8174POPC   GL134921   0.407  38.463   8.855
 8174POPC   GL234922   0.589  38.473   8.855
 8174POPC   C1A34923   0.430  38.489   8.555
 8174POPC   D2A34924   0.460  38.408   8.255
 8174POPC   C3A34925   0.396  38.441   7.955
 8174POPC   C4A34926   0.460  38.430   7.655
 8174POPC   C1B34927   0.657  38.470   8.555
 8174POPC   C2B34928   0.733  38.461   8.255
 8174POPC   C3B34929   0.692  38.489   7.955
 8174POPC   C4B34930   0.717  38.500   7.655
 8175POPC   NC334931  37.689   5.119   9.455
 8175POPC   PO434932  37.707   5.095   9.155
 8175POPC   GL134933  37.707   5.054   8.855
 8175POPC   GL234934  37.665   4.981   8.855
 8175POPC   C1A34935  37.703   5.141   8.555
 8175POPC   D2A34936  37.683   5.077   8.255
 8175POPC   C3A34937  37.668   5.120   7.955
 8175POPC   C4A34938  37.667   5.044   7.655
 8175POPC   C1B34939  37.768   4.844   8.555
 8175POPC   C2B34940  37.713   4.843   8.255
 8175POPC   C3B34941  37.777   4.858   7.955
 8175POPC   C4B34942  37.789   4.870   7.655
 8176POPC   NC334943   9.714  40.745   9.455
 8176POPC   PO434944   9.746  40.786   9.155
 8176POPC   GL134945   9.788  40.829   8.855
 8176POPC   GL234946   9.767  40.708   8.855
 8176POPC   C1A34947   9.763  40.759   8.555
 8176POPC   D2A34948   9.757  40.801   8.255
 8176POPC   C3A34949   9.720  40.822   7.955
 8176POPC   C4A34950   9.768  40.817   7.655
 8176POPC   C1B34951   9.807  40.537   8.555
 8176POPC   C2B34952   9.886  40.516   8.255
 8176POPC   C3B34953   9.835  40.575   7.955
 8176POPC   C4B34954   9.885  40.592   7.655
 8177POPC   NC334955  28.399  31.447   9.455
 8177POPC   PO434956  28.392  31.522   9.155
 8177POPC   GL134957  28.328  31.511   8.855
 8177POPC   GL234958  28.445  31.485   8.855
 8177POPC   C1A34959  28.388  31.491   8.555
 8177POPC   D2A34960  28.379  31.444   8.255
 8177POPC   C3A34961  28.404  31.448   7.955
 8177POPC   C4A34962  28.394  31.451   7.655
 8177POPC   C1B34963  28.637  31.524   8.555
 8177POPC   C2B34964  28.582  31.491   8.255
 8177POPC   C3B34965  28.570  31.457   7.955
 8177POPC   C4B34966  28.597  31.519   7.655
 8178POPC   NC334967   9.797  11.309   9.455
 8178POPC   PO434968   9.772  11.294   9.155
 8178POPC   GL134969   9.704  11.260   8.855
 8178POPC   GL234970   9.741  11.219   8.855
 8178POPC   C1A34971   9.793  11.263   8.555
 8178POPC   D2A34972   9.699  11.273   8.255
 8178POPC   C3A34973   9.777  11.293   7.955
 8178POPC   C4A34974   9.760  11.307   7.655
 8178POPC   C1B34975   9.809  11.104   8.555
 8178POPC   C2B34976   9.788  11.081   8.255
 8178POPC   C3B34977   9.801  11.094   7.955
 8178POPC   C4B34978   9.807  11.024   7.655
 8179POPC   NC334979  22.981  37.690   9.455
 8179POPC   PO434980  22.907  37.697   9.155
 8179POPC   GL134981  22.928  37.657   8.855
 8179POPC   GL234982  22.947  37.797   8.855
 8179POPC   C1A34983  22.918  37.657   8.555
 8179POPC   D2A34984  22.896  37.664   8.255
 8179POPC   C3A34985  22.961  37.663   7.955
 8179POPC   C4A34986  22.920  37.640   7.655
 8179POPC   C1B34987  23.009  37.899   8.555
 8179POPC   C2B34988  22.998  37.879   8.255
 8179POPC   C3B34989  23.054  37.955   7.955
 8179POPC   C4B34990  23.013  37.943   7.655
 8180POPC   NC334991  44.658  23.681   9.455
 8180POPC   PO434992  44.666  23.719   9.155
 8180POPC   GL134993  44.657  23.754   8.855
 8180POPC   GL234994  44.743  23.727   8.855
 8180POPC   C1A34995  44.619  23.746   8.555
 8180POPC   D2A34996  44.658  23.751   8.255
 8180POPC   C3A34997  44.691  23.732   7.955
 8180POPC   C4A34998  44.640  23.702   7.655
 8180POPC   C1B34999  44.936  23.692   8.555
 8180POPC   C2B35000  44.887  23.656   8.255
 8180POPC   C3B35001  44.863  23.752   7.955
 8180POPC   C4B35002  44.911  23.664   7.655
 8181POPC   NC335003  19.099   2.722   9.455
 8181POPC   PO435004  19.058   2.765   9.155
 8181POPC   GL135005  19.016   2.758   8.855
 8181POPC   GL235006  18.978   2.658   8.855
 8181POPC   C1A35007  19.035   2.726   8.555
 8181POPC   D2A35008  19.023   2.775   8.255
 8181POPC   C3A35009  19.082   2.751   7.955
 8181POPC   C4A35010  19.086   2.723   7.655
 8181POPC   C1B35011  19.011   2.567   8.555
 8181POPC   C2B35012  19.001   2.573   8.255
 8181POPC   C3B35013  18.992   2.533   7.955
 8181POPC   C4B35014  18.991   2.490   7.655
 8182POPC   NC335015  37.649  23.710   9.455
 8182POPC   PO435016  37.638  23.753   9.155
 8182POPC   GL135017  37.682  23.762   8.855
 8182POPC   GL235018  37.569  23.820   8.855
 8182POPC   C1A35019  37.640  23.753   8.555
 8182POPC   D2A35020  37.718  23.757   8.255
 8182POPC   C3A35021  37.695  23.755   7.955
 8182POPC   C4A35022  37.697  23.689   7.655
 8182POPC   C1B35023  37.481  23.873   8.555
 8182POPC   C2B35024  37.546  23.856   8.255
 8182POPC   C3B35025  37.479  23.913   7.955
 8182POPC   C4B35026  37.519  23.842   7.655
 8183POPC   NC335027  40.762   0.419   9.455
 8183POPC   PO435028  40.783   0.394   9.155
 8183POPC   GL135029  40.788   0.455   8.855
 8183POPC   GL235030  40.935   0.430   8.855
 8183POPC   C1A35031  40.757   0.480   8.555
 8183POPC   D2A35032  40.758   0.481   8.255
 8183POPC   C3A35033  40.754   0.457   7.955
 8183POPC   C4A35034  40.749   0.482   7.655
 8183POPC   C1B35035  41.048   0.393   8.555
 8183POPC   C2B35036  41.078   0.420   8.255
 8183POPC   C3B35037  41.036   0.381   7.955
 8183POPC   C4B35038  41.048   0.389   7.655
 8184POPC   NC335039  11.281  38.405   9.455
 8184POPC   PO435040  11.335  38.462   9.155
 8184POPC   GL135041  11.263  38.463   8.855
 8184POPC   GL235042  11.322  38.615   8.855
 8184POPC   C1A35043  11.313  38.407   8.555
 8184POPC   D2A35044  11.279  38.436   8.255
 8184POPC   C3A35045  11.310  38.483   7.955
 8184POPC   C4A35046  11.347  38.433   7.655
 8184POPC   C1B35047  11.452  38.726   8.555
 8184POPC   C2B35048  11.362  38.686   8.255
 8184POPC   C3B35049  11.395  38.659   7.955
 8184POPC   C4B35050  11.455  38.649   7.655
 8185POPC   NC335051  43.123  12.882   9.455
 8185POPC   PO435052  43.086  12.851   9.155
 8185POPC   GL135053  43.132  12.896   8.855
 8185POPC   GL235054  43.095  12.962   8.855
 8185POPC   C1A35055  43.144  12.802   8.555
 8185POPC   D2A35056  43.087  12.871   8.255
 8185POPC   C3A35057  43.098  12.895   7.955
 8185POPC   C4A35058  43.152  12.898   7.655
 8185POPC   C1B35059  43.104  13.061   8.555
 8185POPC   C2B35060  43.090  13.117   8.255
 8185POPC   C3B35061  43.086  13.127   7.955
 8185POPC   C4B35062  43.089  13.071   7.655
 8186POPC   NC335063  26.808   1.973   9.455
 8186POPC   PO435064  26.770   1.961   9.155
 8186POPC   GL135065  26.852   2.004   8.855
 8186POPC   GL235066  26.820   2.162   8.855
 8186POPC   C1A35067  26.806   1.954   8.555
 8186POPC   D2A35068  26.773   1.944   8.255
 8186POPC   C3A35069  26.802   2.013   7.955
 8186POPC   C4A35070  26.861   2.013   7.655
 8186POPC   C1B35071  26.850   2.277   8.555
 8186POPC   C2B35072  26.872   2.193   8.255
 8186POPC   C3B35073  26.892   2.215   7.955
 8186POPC   C4B35074  26.872   2.281   7.655
 8187POPC   NC335075  33.752   6.644   9.455
 8187POPC   PO435076  33.750   6.646   9.155
 8187POPC   GL135077  33.827   6.653   8.855
 8187POPC   GL235078  33.802   6.775   8.855
 8187POPC   C1A35079  33.765   6.615   8.555
 8187POPC   D2A35080  33.810   6.642   8.255
 8187POPC   C3A35081  33.832   6.663   7.955
 8187POPC   C4A35082  33.770   6.643   7.655
 8187POPC   C1B35083  33.846   6.918   8.555
 8187POPC   C2B35084  33.862   6.888   8.255
 8187POPC   C3B35085  33.862   6.917   7.955
 8187POPC   C4B35086  33.922   6.849   7.655
 8188POPC   NC335087  36.887  34.603   9.455
 8188POPC   PO435088  36.876  34.565   9.155
 8188POPC   GL135089  36.919  34.544   8.855
 8188POPC   GL235090  36.812  34.657   8.855
 8188POPC   C1A35091  36.893  34.559   8.555
 8188POPC   D2A35092  36.933  34.568   8.255
 8188POPC   C3A35093  36.951  34.526   7.955
 8188POPC   C4A35094  36.882  34.625   7.655
 8188POPC   C1B35095  36.661  34.691   8.555
 8188POPC   C2B35096  36.717  34.705   8.255
 8188POPC   C3B35097  36.628  34.673   7.955
 8188POPC   C4B35098  36.692  34.730   7.655
 8189POPC   NC335099  26.000  12.043   9.455
 8189POPC   PO435100  26.075  12.043   9.155
 8189POPC   GL135101  26.021  12.103   8.855
 8189POPC   GL235102  25.952  12.058   8.855
 8189POPC   C1A35103  26.058  12.054   8.555
 8189POPC   D2A35104  26.083  12.065   8.255
 8189POPC   C3A35105  26.063  12.027   7.955
 8189POPC   C4A35106  26.084  12.056   7.655
 8189POPC   C1B35107  25.793  11.946   8.555
 8189POPC   C2B35108  25.804  11.984   8.255
 8189POPC   C3B35109  25.766  11.933   7.955
 8189POPC   C4B35110  25.800  11.958   7.655
 8190POPC   NC335111  40.034  43.894   9.455
 8190POPC   PO435112  39.997  43.915   9.155
 8190POPC   GL135113  40.025  43.848   8.855
 8190POPC   GL235114  40.064  44.026   8.855
 8190POPC   C1A35115  40.015  43.867   8.555
 8190POPC   D2A35116  39.982  43.893   8.255
 8190POPC   C3A35117  40.020  43.914   7.955
 8190POPC   C4A35118  40.043  43.881   7.655
 8190POPC   C1B35119  40.046  44.137   8.555
 8190POPC   C2B35120  40.010  44.176   8.255
 8190POPC   C3B35121  40.074  44.096   7.955
 8190POPC   C4B35122  39.999  44.156   7.655
 8191POPC   NC335123  36.948  41.556   9.455
 8191POPC   PO435124  36.931  41.512   9.155
 8191POPC   GL135125  36.906  41.589   8.855
 8191POPC   GL235126  36.980  41.470   8.855
 8191POPC   C1A35127  36.935  41.599   8.555
 8191POPC   D2A35128  36.887  41.549   8.255
 8191POPC   C3A35129  36.937  41.526   7.955
 8191POPC   C4A35130  36.937  41.601   7.655
 8191POPC   C1B35131  37.081  41.403   8.555
 8191POPC   C2B35132  37.056  41.404   8.255
 8191POPC   C3B35133  37.077  41.406   7.955
 8191POPC   C4B35134  37.077  41.357   7.655
 8192POPC   NC335135  44.664   8.177   9.455
 8192POPC   PO435136  44.659   8.147   9.155
 8192POPC   GL135137  44.688   8.205   8.855
 8192POPC   GL235138  44.596   8.083   8.855
 8192POPC   C1A35139  44.656   8.243   8.555
 8192POPC   D2A35140  44.706   8.158   8.255
 8192POPC   C3A35141  44.635   8.246   7.955
 8192POPC   C4A35142  44.664   8.201   7.655
 8192POPC   C1B35143  44.550   8.009   8.555
 8192POPC   C2B35144  44.547   8.047   8.255
 8192POPC   C3B35145  44.524   8.013   7.955
 8192POPC   C4B35146  44.503   7.972   7.655
 8193POPC   NC335147   1.185  17.523   9.455
 8193POPC   PO435148   1.208  17.537   9.155
 8193POPC   GL135149   1.226  17.464   8.855
 8193POPC   GL235150   1.332  17.429   8.855
 8193POPC   C1A35151   1.223  17.543   8.555
 8193POPC   D2A35152   1.169  17.535   8.255
 8193POPC   C3A35153   1.222  17.475   7.955
 8193POPC   C4A35154   1.232  17.551   7.655
 8193POPC   C1B35155   1.345  17.280   8.555
 8193POPC   C2B35156   1.381  17.302   8.255
 8193POPC   C3B35157   1.338  17.339   7.955
 8193POPC   C4B35158   1.389  17.300   7.655
 8194POPC   NC335159  43.875  20.587   9.455
 8194POPC   PO435160  43.894  20.615   9.155
 8194POPC   GL135161  43.886  20.565   8.855
 8194POPC   GL235162  43.962  20.666   8.855
 8194POPC   C1A35163  43.852  20.656   8.555
 8194POPC   D2A35164  43.908  20.655   8.255
 8194POPC   C3A35165  43.857  20.572   7.955
 8194POPC   C4A35166  43.902  20.645   7.655
 8194POPC   C1B35167  44.035  20.737   8.555
 8194POPC   C2B35168  44.074  20.812   8.255
 8194POPC   C3B35169  44.038  20.758   7.955
 8194POPC   C4B35170  44.045  20.775   7.655
 8195POPC   NC335171   5.125  42.377   9.455
 8195POPC   PO435172   5.055  42.335   9.155
 8195POPC   GL135173   5.126  42.290   8.855
 8195POPC   GL235174   5.103  42.446   8.855
 8195POPC   C1A35175   5.119  42.348   8.555
 8195POPC   D2A35176   5.125  42.307   8.255
 8195POPC   C3A35177   5.081  42.335   7.955
 8195POPC   C4A35178   5.095  42.287   7.655
 8195POPC   C1B35179   5.224  42.551   8.555
 8195POPC   C2B35180   5.210  42.565   8.255
 8195POPC   C3B35181   5.171  42.552   7.955
 8195POPC   C4B35182   5.159  42.528   7.655
 8196POPC   NC335183  39.226  29.099   9.455
 8196POPC   PO435184  39.219  29.144   9.155
 8196POPC   GL135185  39.249  29.118   8.855
 8196POPC   GL235186  39.154  29.081   8.855
 8196POPC   C1A35187  39.240  29.100   8.555
 8196POPC   D2A35188  39.237  29.131   8.255
 8196POPC   C3A35189  39.233  29.109   7.955
 8196POPC   C4A35190  39.219  29.133   7.655
 8196POPC   C1B35191  39.122  28.940   8.555
 8196POPC   C2B35192  39.112  28.929   8.255
 8196POPC   C3B35193  39.087  28.892   7.955
 8196POPC   C4B35194  39.132  28.916   7.655
 8197POPC   NC335195   7.451   0.443   9.455
 8197POPC   PO435196   7.466   0.400   9.155
 8197POPC   GL135197   7.431   0.392   8.855
 8197POPC   GL235198   7.361   0.503   8.855
 8197POPC   C1A35199   7.413   0.406   8.555
 8197POPC   D2A35200   7.407   0.400   8.255
 8197POPC   C3A35201   7.371   0.486   7.955
 8197POPC   C4A35202   7.384   0.465   7.655
 8197POPC   C1B35203   7.311   0.646   8.555
 8197POPC   C2B35204   7.315   0.629   8.255
 8197POPC   C3B35205   7.286   0.657   7.955
 8197POPC   C4B35206   7.236   0.667   7.655
 8198POPC   NC335207  27.628  12.848   9.455
 8198POPC   PO435208  27.544  12.842   9.155
 8198POPC   GL135209  27.596  12.845   8.855
 8198POPC   GL235210  27.494  12.869   8.855
 8198POPC   C1A35211  27.590  12.889   8.555
 8198POPC   D2A35212  27.553  12.870   8.255
 8198POPC   C3A35213  27.634  12.856   7.955
 8198POPC   C4A35214  27.545  12.880   7.655
 8198POPC   C1B35215  27.344  12.928   8.555
 8198POPC   C2B35216  27.351  12.904   8.255
 8198POPC   C3B35217  27.311  12.893   7.955
 8198POPC   C4B35218  27.312  12.912   7.655
 8199POPC   NC335219   9.767  40.026   9.455
 8199POPC   PO435220   9.722  40.019   9.155
 8199POPC   GL135221   9.714  40.025   8.855
 8199POPC   GL235222   9.671  39.997   8.855
 8199POPC   C1A35223   9.786  40.046   8.555
 8199POPC   D2A35224   9.783  40.054   8.255
 8199POPC   C3A35225   9.772  40.051   7.955
 8199POPC   C4A35226   9.792  40.011   7.655
 8199POPC   C1B35227   9.551  40.067   8.555
 8199POPC   C2B35228   9.543  40.069   8.255
 8199POPC   C3B35229   9.500  40.000   7.955
 8199POPC   C4B35230   9.471  40.071   7.655
 8200POPC   NC335231  16.733  16.719   9.455
 8200POPC   PO435232  16.744  16.758   9.155
 8200POPC   GL135233  16.766  16.695   8.855
 8200POPC   GL235234  16.672  16.653   8.855
 8200POPC   C1A35235  16.686  16.720   8.555
 8200POPC   D2A35236  16.727  16.749   8.255
 8200POPC   C3A35237  16.765  16.709   7.955
 8200POPC   C4A35238  16.690  16.709   7.655
 8200POPC   C1B35239  16.533  16.599   8.555
 8200POPC   C2B35240  16.511  16.553   8.255
 8200POPC   C3B35241  16.528  16.603   7.955
 8200POPC   C4B35242  16.554  16.614   7.655
 8201POPC   NC335243  10.571  33.781   9.455
 8201POPC   PO435244  10.494  33.751   9.155
 8201POPC   GL135245  10.566  33.765   8.855
 8201POPC   GL235246  10.617  33.696   8.855
 8201POPC   C1A35247  10.531  33.773   8.555
 8201POPC   D2A35248  10.498  33.847   8.255
 8201POPC   C3A35249  10.556  33.781   7.955
 8201POPC   C4A35250  10.539  33.835   7.655
 8201POPC   C1B35251  10.718  33.687   8.555
 8201POPC   C2B35252  10.741  33.703   8.255
 8201POPC   C3B35253  10.764  33.695   7.955
 8201POPC   C4B35254  10.691  33.664   7.655
 8202POPC   NC335255  29.929   5.100   9.455
 8202POPC   PO435256  29.933   5.095   9.155
 8202POPC   GL135257  29.905   5.057   8.855
 8202POPC   GL235258  29.760   5.065   8.855
 8202POPC   C1A35259  29.930   5.098   8.555
 8202POPC   D2A35260  29.918   5.067   8.255
 8202POPC   C3A35261  29.895   5.060   7.955
 8202POPC   C4A35262  29.883   5.134   7.655
 8202POPC   C1B35263  29.652   5.063   8.555
 8202POPC   C2B35264  29.674   5.008   8.255
 8202POPC   C3B35265  29.716   5.092   7.955
 8202POPC   C4B35266  29.693   5.035   7.655
 8203POPC   NC335267  15.176   5.848   9.455
 8203POPC   PO435268  15.226   5.903   9.155
 8203POPC   GL135269  15.144   5.891   8.855
 8203POPC   GL235270  15.301   5.991   8.855
 8203POPC   C1A35271  15.180   5.916   8.555
 8203POPC   D2A35272  15.229   5.874   8.255
 8203POPC   C3A35273  15.201   5.899   7.955
 8203POPC   C4A35274  15.192   5.843   7.655
 8203POPC   C1B35275  15.404   6.045   8.555
 8203POPC   C2B35276  15.418   6.037   8.255
 8203POPC   C3B35277  15.424   6.041   7.955
 8203POPC   C4B35278  15.369   6.053   7.655
 8204POPC   NC335279  37.710  20.561   9.455
 8204POPC   PO435280  37.698  20.603   9.155
 8204POPC   GL135281  37.650  20.592   8.855
 8204POPC   GL235282  37.657  20.751   8.855
 8204POPC   C1A35283  37.631  20.647   8.555
 8204POPC   D2A35284  37.634  20.564   8.255
 8204POPC   C3A35285  37.688  20.614   7.955
 8204POPC   C4A35286  37.662  20.577   7.655
 8204POPC   C1B35287  37.605  20.834   8.555
 8204POPC   C2B35288  37.594  20.870   8.255
 8204POPC   C3B35289  37.591  20.855   7.955
 8204POPC   C4B35290  37.561  20.821   7.655
 8205POPC   NC335291  43.853  36.150   9.455
 8205POPC   PO435292  43.903  36.155   9.155
 8205POPC   GL135293  43.903  36.143   8.855
 8205POPC   GL235294  43.802  36.007   8.855
 8205POPC   C1A35295  43.867  36.158   8.555
 8205POPC   D2A35296  43.856  36.119   8.255
 8205POPC   C3A35297  43.895  36.124   7.955
 8205POPC   C4A35298  43.924  36.139   7.655
 8205POPC   C1B35299  43.789  35.838   8.555
 8205POPC   C2B35300  43.795  35.889   8.255
 8205POPC   C3B35301  43.837  35.885   7.955
 8205POPC   C4B35302  43.858  35.919   7.655
 8206POPC   NC335303  16.762  40.008   9.455
 8206POPC   PO435304  16.686  39.957   9.155
 8206POPC   GL135305  16.757  40.027   8.855
 8206POPC   GL235306  16.805  40.010   8.855
 8206POPC   C1A35307  16.685  40.027   8.555
 8206POPC   D2A35308  16.705  40.006   8.255
 8206POPC   C3A35309  16.744  40.003   7.955
 8206POPC   C4A35310  16.761  40.015   7.655
 8206POPC   C1B35311  16.985  40.060   8.555
 8206POPC   C2B35312  17.015  40.019   8.255
 8206POPC   C3B35313  17.024  40.005   7.955
 8206POPC   C4B35314  16.952  40.054   7.655
 8207POPC   NC335315  19.802   5.119   9.455
 8207POPC   PO435316  19.784   5.060   9.155
 8207POPC   GL135317  19.797   5.056   8.855
 8207POPC   GL235318  19.825   5.207   8.855
 8207POPC   C1A35319  19.789   5.137   8.555
 8207POPC   D2A35320  19.811   5.076   8.255
 8207POPC   C3A35321  19.823   5.051   7.955
 8207POPC   C4A35322  19.807   5.112   7.655
 8207POPC   C1B35323  19.764   5.331   8.555
 8207POPC   C2B35324  19.719   5.343   8.255
 8207POPC   C3B35325  19.767   5.336   7.955
 8207POPC   C4B35326  19.745   5.277   7.655
 8208POPC   NC335327  13.659   2.718   9.455
 8208POPC   PO435328  13.601   2.753   9.155
 8208POPC   GL135329  13.607   2.810   8.855
 8208POPC   GL235330  13.583   2.687   8.855
 8208POPC   C1A35331  13.610   2.790   8.555
 8208POPC   D2A35332  13.642   2.750   8.255
 8208POPC   C3A35333  13.653   2.765   7.955
 8208POPC   C4A35334  13.638   2.749   7.655
 8208POPC   C1B35335  13.482   2.566   8.555
 8208POPC   C2B35336  13.500   2.569   8.255
 8208POPC   C3B35337  13.546   2.562   7.955
 8208POPC   C4B35338  13.514   2.571   7.655
 8209POPC   NC335339   8.156   4.355   9.455
 8209POPC   PO435340   8.217   4.330   9.155
 8209POPC   GL135341   8.199   4.343   8.855
 8209POPC   GL235342   8.335   4.303   8.855
 8209POPC   C1A35343   8.244   4.349   8.555
 8209POPC   D2A35344   8.181   4.333   8.255
 8209POPC   C3A35345   8.194   4.298   7.955
 8209POPC   C4A35346   8.230   4.275   7.655
 8209POPC   C1B35347   8.406   4.324   8.555
 8209POPC   C2B35348   8.462   4.365   8.255
 8209POPC   C3B35349   8.422   4.386   7.955
 8209POPC   C4B35350   8.489   4.369   7.655
 8210POPC   NC335351  37.631  39.200   9.455
 8210POPC   PO435352  37.649  39.233   9.155
 8210POPC   GL135353  37.641  39.279   8.855
 8210POPC   GL235354  37.659  39.121   8.855
 8210POPC   C1A35355  37.647  39.205   8.555
 8210POPC   D2A35356  37.674  39.251   8.255
 8210POPC   C3A35357  37.657  39.266   7.955
 8210POPC   C4A35358  37.678  39.210   7.655
 8210POPC   C1B35359  37.749  39.014   8.555
 8210POPC   C2B35360  37.758  38.990   8.255
 8210POPC   C3B35361  37.751  38.956   7.955
 8210POPC   C4B35362  37.700  39.028   7.655
 8211POPC   NC335363  27.563  39.971   9.455
 8211POPC   PO435364  27.608  39.982   9.155
 8211POPC   GL135365  27.636  40.045   8.855
 8211POPC   GL235366  27.543  39.914   8.855
 8211POPC   C1A35367  27.608  40.020   8.555
 8211POPC   D2A35368  27.555  39.973   8.255
 8211POPC   C3A35369  27.603  40.000   7.955
 8211POPC   C4A35370  27.582  39.995   7.655
 8211POPC   C1B35371  27.557  39.751   8.555
 8211POPC   C2B35372  27.514  39.748   8.255
 8211POPC   C3B35373  27.501  39.791   7.955
 8211POPC   C4B35374  27.539  39.760   7.655
 8212POPC   NC335375   5.087  32.221   9.455
 8212POPC   PO435376   5.073  32.275   9.155
 8212POPC   GL135377   5.046  32.296   8.855
 8212POPC   GL235378   4.991  32.203   8.855
 8212POPC   C1A35379   5.101  32.289   8.555
 8212POPC   D2A35380   5.067  32.242   8.255
 8212POPC   C3A35381   5.102  32.213   7.955
 8212POPC   C4A35382   5.061  32.203   7.655
 8212POPC   C1B35383   4.806  32.139   8.555
 8212POPC   C2B35384   4.854  32.156   8.255
 8212POPC   C3B35385   4.852  32.160   7.955
 8212POPC   C4B35386   4.824  32.177   7.655
 8213POPC   NC335387  19.091  43.110   9.455
 8213POPC   PO435388  19.072  43.096   9.155
 8213POPC   GL135389  19.054  43.144   8.855
 8213POPC   GL235390  19.195  43.189   8.855
 8213POPC   C1A35391  19.099  43.085   8.555
 8213POPC   D2A35392  19.078  43.092   8.255
 8213POPC   C3A35393  19.049  43.110   7.955
 8213POPC   C4A35394  19.077  43.096   7.655
 8213POPC   C1B35395  19.284  43.203   8.555
 8213POPC   C2B35396  19.229  43.188   8.255
 8213POPC   C3B35397  19.278  43.220   7.955
 8213POPC   C4B35398  19.239  43.284   7.655
 8214POPC   NC335399  29.132   5.902   9.455
 8214POPC   PO435400  29.105   5.871   9.155
 8214POPC   GL135401  29.095   5.899   8.855
 8214POPC   GL235402  29.121   5.775   8.855
 8214POPC   C1A35403  29.141   5.834   8.555
 8214POPC   D2A35404  29.105   5.845   8.255
 8214POPC   C3A35405  29.120   5.845   7.955
 8214POPC   C4A35406  29.157   5.846   7.655
 8214POPC   C1B35407  29.106   5.655   8.555
 8214POPC   C2B35408  29.150   5.613   8.255
 8214POPC   C3B35409  29.173   5.665   7.955
 8214POPC   C4B35410  29.139   5.589   7.655
 8215POPC   NC335411  21.417  29.908   9.455
 8215POPC   PO435412  21.344  29.957   9.155
 8215POPC   GL135413  21.434  29.939   8.855
 8215POPC   GL235414  21.473  29.961   8.855
 8215POPC   C1A35415  21.339  29.930   8.555
 8215POPC   D2A35416  21.408  29.877   8.255
 8215POPC   C3A35417  21.387  29.896   7.955
 8215POPC   C4A35418  21.355  29.963   7.655
 8215POPC   C1B35419  21.621  30.119   8.555
 8215POPC   C2B35420  21.621  30.104   8.255
 8215POPC   C3B35421  21.545  30.083   7.955
 8215POPC   C4B35422  21.606  30.070   7.655
 8216POPC   NC335423  25.249   5.072   9.455
 8216POPC   PO435424  25.261   5.133   9.155
 8216POPC   GL135425  25.299   5.108   8.855
 8216POPC   GL235426  25.158   5.076   8.855
 8216POPC   C1A35427  25.291   5.141   8.555
 8216POPC   D2A35428  25.300   5.112   8.255
 8216POPC   C3A35429  25.251   5.083   7.955
 8216POPC   C4A35430  25.233   5.058   7.655
 8216POPC   C1B35431  25.011   5.087   8.555
 8216POPC   C2B35432  24.980   5.037   8.255
 8216POPC   C3B35433  25.047   5.105   7.955
 8216POPC   C4B35434  25.058   5.052   7.655
 8217POPC   NC335435   0.396  21.381   9.455
 8217POPC   PO435436   0.458  21.393   9.155
 8217POPC   GL135437   0.433  21.403   8.855
 8217POPC   GL235438   0.505  21.244   8.855
 8217POPC   C1A35439   0.428  21.363   8.555
 8217POPC   D2A35440   0.422  21.435   8.255
 8217POPC   C3A35441   0.473  21.341   7.955
 8217POPC   C4A35442   0.409  21.391   7.655
 8217POPC   C1B35443   0.542  21.184   8.555
 8217POPC   C2B35444   0.467  21.153   8.255
 8217POPC   C3B35445   0.484  21.126   7.955
 8217POPC   C4B35446   0.517  21.099   7.655
 8218POPC   NC335447  14.372  21.360   9.455
 8218POPC   PO435448  14.416  21.385   9.155
 8218POPC   GL135449  14.354  21.356   8.855
 8218POPC   GL235450  14.350  21.275   8.855
 8218POPC   C1A35451  14.386  21.389   8.555
 8218POPC   D2A35452  14.407  21.384   8.255
 8218POPC   C3A35453  14.397  21.396   7.955
 8218POPC   C4A35454  14.367  21.382   7.655
 8218POPC   C1B35455  14.394  21.176   8.555
 8218POPC   C2B35456  14.386  21.112   8.255
 8218POPC   C3B35457  14.375  21.102   7.955
 8218POPC   C4B35458  14.390  21.193   7.655
 8219POPC   NC335459   8.191  29.951   9.455
 8219POPC   PO435460   8.235  29.927   9.155
 8219POPC   GL135461   8.154  29.938   8.855
 8219POPC   GL235462   8.102  29.874   8.855
 8219POPC   C1A35463   8.242  29.925   8.555
 8219POPC   D2A35464   8.220  29.954   8.255
 8219POPC   C3A35465   8.217  29.885   7.955
 8219POPC   C4A35466   8.230  29.923   7.655
 8219POPC   C1B35467   7.974  29.917   8.555
 8219POPC   C2B35468   7.946  29.893   8.255
 8219POPC   C3B35469   7.973  29.913   7.955
 8219POPC   C4B35470   7.908  29.904   7.655
 8220POPC   NC335471  32.983  43.875   9.455
 8220POPC   PO435472  32.984  43.903   9.155
 8220POPC   GL135473  32.997  43.915   8.855
 8220POPC   GL235474  32.996  44.044   8.855
 8220POPC   C1A35475  33.053  43.862   8.555
 8220POPC   D2A35476  33.015  43.932   8.255
 8220POPC   C3A35477  32.994  43.877   7.955
 8220POPC   C4A35478  33.046  43.921   7.655
 8220POPC   C1B35479  33.068  44.171   8.555
 8220POPC   C2B35480  33.075  44.128   8.255
 8220POPC   C3B35481  33.008  44.087   7.955
 8220POPC   C4B35482  33.031  44.097   7.655
 8221POPC   NC335483   5.050  33.028   9.455
 8221POPC   PO435484   5.068  33.018   9.155
 8221POPC   GL135485   5.075  33.051   8.855
 8221POPC   GL235486   5.060  33.181   8.855
 8221POPC   C1A35487   5.067  32.977   8.555
 8221POPC   D2A35488   5.081  33.009   8.255
 8221POPC   C3A35489   5.084  33.002   7.955
 8221POPC   C4A35490   5.142  33.037   7.655
 8221POPC   C1B35491   5.038  33.237   8.555
 8221POPC   C2B35492   5.055  33.303   8.255
 8221POPC   C3B35493   5.042  33.295   7.955
 8221POPC   C4B35494   5.019  33.230   7.655
 8222POPC   NC335495  35.390  36.901   9.455
 8222POPC   PO435496  35.393  36.913   9.155
 8222POPC   GL135497  35.328  36.873   8.855
 8222POPC   GL235498  35.252  36.936   8.855
 8222POPC   C1A35499  35.383  36.906   8.555
 8222POPC   D2A35500  35.346  36.938   8.255
 8222POPC   C3A35501  35.388  36.869   7.955
 8222POPC   C4A35502  35.303  36.870   7.655
 8222POPC   C1B35503  35.178  37.057   8.555
 8222POPC   C2B35504  35.112  37.019   8.255
 8222POPC   C3B35505  35.151  37.039   7.955
 8222POPC   C4B35506  35.110  37.080   7.655
 8223POPC   NC335507  29.886  21.420   9.455
 8223POPC   PO435508  29.959  21.386   9.155
 8223POPC   GL135509  29.963  21.395   8.855
 8223POPC   GL235510  30.033  21.265   8.855
 8223POPC   C1A35511  29.932  21.384   8.555
 8223POPC   D2A35512  29.901  21.410   8.255
 8223POPC   C3A35513  29.967  21.412   7.955
 8223POPC   C4A35514  29.917  21.378   7.655
 8223POPC   C1B35515  30.095  21.234   8.555
 8223POPC   C2B35516  30.099  21.214   8.255
 8223POPC   C3B35517  30.155  21.280   7.955
 8223POPC   C4B35518  30.137  21.260   7.655
 8224POPC   NC335519  44.711  11.273   9.455
 8224POPC   PO435520  44.711  11.349   9.155
 8224POPC   GL135521  44.681  11.267   8.855
 8224POPC   GL235522  44.540  11.338   8.855
 8224POPC   C1A35523  44.688  11.337   8.555
 8224POPC   D2A35524  44.624  11.303   8.255
 8224POPC   C3A35525  44.620  11.255   7.955
 8224POPC   C4A35526  44.635  11.250   7.655
 8224POPC   C1B35527  44.433  11.317   8.555
 8224POPC   C2B35528  44.431  11.278   8.255
 8224POPC   C3B35529  44.450  11.270   7.955
 8224POPC   C4B35530  44.430  11.270   7.655
 8225POPC   NC335531   4.297   5.059   9.455
 8225POPC   PO435532   4.366   5.054   9.155
 8225POPC   GL135533   4.310   5.075   8.855
 8225POPC   GL235534   4.428   5.032   8.855
 8225POPC   C1A35535   4.336   5.129   8.555
 8225POPC   D2A35536   4.359   5.077   8.255
 8225POPC   C3A35537   4.365   5.096   7.955
 8225POPC   C4A35538   4.321   5.133   7.655
 8225POPC   C1B35539   4.429   4.922   8.555
 8225POPC   C2B35540   4.494   4.911   8.255
 8225POPC   C3B35541   4.516   4.903   7.955
 8225POPC   C4B35542   4.489   4.867   7.655
 8226POPC   NC335543  26.016   5.098   9.455
 8226POPC   PO435544  26.075   5.094   9.155
 8226POPC   GL135545  26.035   5.126   8.855
 8226POPC   GL235546  26.065   5.218   8.855
 8226POPC   C1A35547  26.011   5.052   8.555
 8226POPC   D2A35548  26.028   5.048   8.255
 8226POPC   C3A35549  26.006   5.061   7.955
 8226POPC   C4A35550  26.011   5.086   7.655
 8226POPC   C1B35551  26.121   5.293   8.555
 8226POPC   C2B35552  26.050   5.380   8.255
 8226POPC   C3B35553  26.059   5.326   7.955
 8226POPC   C4B35554  26.050   5.308   7.655
 8227POPC   NC335555  12.035  25.253   9.455
 8227POPC   PO435556  12.060  25.255   9.155
 8227POPC   GL135557  12.120  25.306   8.855
 8227POPC   GL235558  11.978  25.271   8.855
 8227POPC   C1A35559  12.103  25.293   8.555
 8227POPC   D2A35560  12.029  25.234   8.255
 8227POPC   C3A35561  12.062  25.275   7.955
 8227POPC   C4A35562  12.027  25.295   7.655
 8227POPC   C1B35563  11.865  25.179   8.555
 8227POPC   C2B35564  11.871  25.185   8.255
 8227POPC   C3B35565  11.836  25.147   7.955
 8227POPC   C4B35566  11.824  25.197   7.655
 8228POPC   NC335567  24.479  41.556   9.455
 8228POPC   PO435568  24.478  41.579   9.155
 8228POPC   GL135569  24.474  41.581   8.855
 8228POPC   GL235570  24.331  41.476   8.855
 8228POPC   C1A35571  24.448  41.532   8.555
 8228POPC   D2A35572  24.503  41.521   8.255
 8228POPC   C3A35573  24.521  41.603   7.955
 8228POPC   C4A35574  24.479  41.564   7.655
 8228POPC   C1B35575  24.215  41.469   8.555
 8228POPC   C2B35576  24.237  41.520   8.255
 8228POPC   C3B35577  24.239  41.469   7.955
 8228POPC   C4B35578  24.253  41.515   7.655
 8229POPC   NC335579  17.482  19.093   9.455
 8229POPC   PO435580  17.457  19.077   9.155
 8229POPC   GL135581  17.536  19.016   8.855
 8229POPC   GL235582  17.394  19.018   8.855
 8229POPC   C1A35583  17.477  19.094   8.555
 8229POPC   D2A35584  17.457  19.096   8.255
 8229POPC   C3A35585  17.506  19.033   7.955
 8229POPC   C4A35586  17.496  19.070   7.655
 8229POPC   C1B35587  17.243  18.951   8.555
 8229POPC   C2B35588  17.297  18.975   8.255
 8229POPC   C3B35589  17.306  18.966   7.955
 8229POPC   C4B35590  17.272  18.944   7.655
 8230POPC   NC335591  15.914   6.639   9.455
 8230POPC   PO435592  15.983   6.660   9.155
 8230POPC   GL135593  15.978   6.598   8.855
 8230POPC   GL235594  16.020   6.542   8.855
 8230POPC   C1A35595  15.980   6.602   8.555
 8230POPC   D2A35596  15.990   6.598   8.255
 8230POPC   C3A35597  15.959   6.638   7.955
 8230POPC   C4A35598  15.953   6.671   7.655
 8230POPC   C1B35599  16.071   6.395   8.555
 8230POPC   C2B35600  16.052   6.447   8.255
 8230POPC   C3B35601  16.074   6.427   7.955
 8230POPC   C4B35602  16.049   6.438   7.655
 8231POPC   NC335603  40.798  23.689   9.455
 8231POPC   PO435604  40.742  23.725   9.155
 8231POPC   GL135605  40.748  23.705   8.855
 8231POPC   GL235606  40.850  23.795   8.855
 8231POPC   C1A35607  40.789  23.692   8.555
 8231POPC   D2A35608  40.829  23.682   8.255
 8231POPC   C3A35609  40.791  23.690   7.955
 8231POPC   C4A35610  40.804  23.716   7.655
 8231POPC   C1B35611  41.051  23.766   8.555
 8231POPC   C2B35612  41.007  23.758   8.255
 8231POPC   C3B35613  41.044  23.848   7.955
 8231POPC   C4B35614  41.052  23.779   7.655
 8232POPC   NC335615  33.832  29.176   9.455
 8232POPC   PO435616  33.759  29.162   9.155
 8232POPC   GL135617  33.792  29.172   8.855
 8232POPC   GL235618  33.673  29.147   8.855
 8232POPC   C1A35619  33.786  29.107   8.555
 8232POPC   D2A35620  33.791  29.168   8.255
 8232POPC   C3A35621  33.812  29.159   7.955
 8232POPC   C4A35622  33.824  29.124   7.655
 8232POPC   C1B35623  33.584  29.200   8.555
 8232POPC   C2B35624  33.591  29.216   8.255
 8232POPC   C3B35625  33.531  29.190   7.955
 8232POPC   C4B35626  33.594  29.209   7.655
 8233POPC   NC335627  37.641  40.765   9.455
 8233POPC   PO435628  37.673  40.815   9.155
 8233POPC   GL135629  37.672  40.773   8.855
 8233POPC   GL235630  37.730  40.722   8.855
 8233POPC   C1A35631  37.703  40.829   8.555
 8233POPC   D2A35632  37.657  40.755   8.255
 8233POPC   C3A35633  37.648  40.799   7.955
 8233POPC   C4A35634  37.716  40.782   7.655
 8233POPC   C1B35635  37.854  40.564   8.555
 8233POPC   C2B35636  37.786  40.584   8.255
 8233POPC   C3B35637  37.844  40.530   7.955
 8233POPC   C4B35638  37.770  40.543   7.655
 8234POPC   NC335639  33.025   9.784   9.455
 8234POPC   PO435640  33.012   9.723   9.155
 8234POPC   GL135641  33.027   9.741   8.855
 8234POPC   GL235642  33.154   9.771   8.855
 8234POPC   C1A35643  33.039   9.737   8.555
 8234POPC   D2A35644  33.015   9.726   8.255
 8234POPC   C3A35645  33.023   9.744   7.955
 8234POPC   C4A35646  33.041   9.707   7.655
 8234POPC   C1B35647  33.301   9.815   8.555
 8234POPC   C2B35648  33.239   9.833   8.255
 8234POPC   C3B35649  33.272   9.780   7.955
 8234POPC   C4B35650  33.269   9.822   7.655
 8235POPC   NC335651  44.643  43.900   9.455
 8235POPC   PO435652  44.617  43.901   9.155
 8235POPC   GL135653  44.674  43.857   8.855
 8235POPC   GL235654  44.539  43.830   8.855
 8235POPC   C1A35655  44.636  43.880   8.555
 8235POPC   D2A35656  44.705  43.845   8.255
 8235POPC   C3A35657  44.690  43.895   7.955
 8235POPC   C4A35658  44.685  43.897   7.655
 8235POPC   C1B35659  44.396  43.768   8.555
 8235POPC   C2B35660  44.389  43.833   8.255
 8235POPC   C3B35661  44.422  43.779   7.955
 8235POPC   C4B35662  44.424  43.794   7.655
 8236POPC   NC335663  26.000  15.937   9.455
 8236POPC   PO435664  26.023  15.924   9.155
 8236POPC   GL135665  26.034  16.000   8.855
 8236POPC   GL235666  25.870  15.942   8.855
 8236POPC   C1A35667  26.041  15.953   8.555
 8236POPC   D2A35668  25.998  15.984   8.255
 8236POPC   C3A35669  25.998  15.936   7.955
 8236POPC   C4A35670  26.015  15.986   7.655
 8236POPC   C1B35671  25.788  15.877   8.555
 8236POPC   C2B35672  25.815  15.940   8.255
 8236POPC   C3B35673  25.837  15.954   7.955
 8236POPC   C4B35674  25.789  15.891   7.655
 8237POPC   NC335675  13.622   7.390   9.455
 8237POPC   PO435676  13.594   7.437   9.155
 8237POPC   GL135677  13.604   7.425   8.855
 8237POPC   GL235678  13.614   7.313   8.855
 8237POPC   C1A35679  13.670   7.449   8.555
 8237POPC   D2A35680  13.623   7.391   8.255
 8237POPC   C3A35681  13.631   7.470   7.955
 8237POPC   C4A35682  13.602   7.438   7.655
 8237POPC   C1B35683  13.684   7.215   8.555
 8237POPC   C2B35684  13.658   7.179   8.255
 8237POPC   C3B35685  13.698   7.217   7.955
 8237POPC   C4B35686  13.725   7.145   7.655
 8238POPC   NC335687  33.073  42.357   9.455
 8238POPC   PO435688  33.030  42.360   9.155
 8238POPC   GL135689  32.996  42.305   8.855
 8238POPC   GL235690  32.901  42.399   8.855
 8238POPC   C1A35691  33.022  42.292   8.555
 8238POPC   D2A35692  32.986  42.286   8.255
 8238POPC   C3A35693  33.017  42.320   7.955
 8238POPC   C4A35694  33.033  42.313   7.655
 8238POPC   C1B35695  32.866  42.472   8.555
 8238POPC   C2B35696  32.803  42.498   8.255
 8238POPC   C3B35697  32.854  42.480   7.955
 8238POPC   C4B35698  32.826  42.532   7.655
 8239POPC   NC335699  22.183  12.124   9.455
 8239POPC   PO435700  22.116  12.046   9.155
 8239POPC   GL135701  22.115  12.076   8.855
 8239POPC   GL235702  22.288  12.136   8.855
 8239POPC   C1A35703  22.140  12.113   8.555
 8239POPC   D2A35704  22.151  12.045   8.255
 8239POPC   C3A35705  22.136  12.120   7.955
 8239POPC   C4A35706  22.178  12.098   7.655
 8239POPC   C1B35707  22.361  12.166   8.555
 8239POPC   C2B35708  22.431  12.171   8.255
 8239POPC   C3B35709  22.424  12.206   7.955
 8239POPC   C4B35710  22.356  12.173   7.655
 8240POPC   NC335711  15.149   2.745   9.455
 8240POPC   PO435712  15.220   2.776   9.155
 8240POPC   GL135713  15.168   2.787   8.855
 8240POPC   GL235714  15.238   2.608   8.855
 8240POPC   C1A35715  15.166   2.729   8.555
 8240POPC   D2A35716  15.202   2.785   8.255
 8240POPC   C3A35717  15.194   2.782   7.955
 8240POPC   C4A35718  15.228   2.797   7.655
 8240POPC   C1B35719  15.266   2.515   8.555
 8240POPC   C2B35720  15.190   2.564   8.255
 8240POPC   C3B35721  15.194   2.552   7.955
 8240POPC   C4B35722  15.221   2.470   7.655
 8241POPC   NC335723  24.446  28.334   9.455
 8241POPC   PO435724  24.447  28.330   9.155
 8241POPC   GL135725  24.467  28.321   8.855
 8241POPC   GL235726  24.511  28.475   8.855
 8241POPC   C1A35727  24.522  28.389   8.555
 8241POPC   D2A35728  24.454  28.344   8.255
 8241POPC   C3A35729  24.479  28.333   7.955
 8241POPC   C4A35730  24.503  28.346   7.655
 8241POPC   C1B35731  24.491  28.633   8.555
 8241POPC   C2B35732  24.476  28.657   8.255
 8241POPC   C3B35733  24.507  28.628   7.955
 8241POPC   C4B35734  24.478  28.626   7.655
 8242POPC   NC335735  26.011   8.980   9.455
 8242POPC   PO435736  26.025   8.927   9.155
 8242POPC   GL135737  26.090   9.004   8.855
 8242POPC   GL235738  25.876   8.925   8.855
 8242POPC   C1A35739  26.078   8.952   8.555
 8242POPC   D2A35740  26.017   8.938   8.255
 8242POPC   C3A35741  26.064   8.966   7.955
 8242POPC   C4A35742  26.061   8.970   7.655
 8242POPC   C1B35743  25.816   8.856   8.555
 8242POPC   C2B35744  25.771   8.932   8.255
 8242POPC   C3B35745  25.781   8.915   7.955
 8242POPC   C4B35746  25.790   8.934   7.655
 8243POPC   NC335747  20.594   5.047   9.455
 8243POPC   PO435748  20.646   5.054   9.155
 8243POPC   GL135749  20.644   5.122   8.855
 8243POPC   GL235750  20.633   5.190   8.855
 8243POPC   C1A35751  20.629   5.082   8.555
 8243POPC   D2A35752  20.590   5.105   8.255
 8243POPC   C3A35753  20.624   5.089   7.955
 8243POPC   C4A35754  20.565   5.104   7.655
 8243POPC   C1B35755  20.778   5.325   8.555
 8243POPC   C2B35756  20.697   5.326   8.255
 8243POPC   C3B35757  20.764   5.302   7.955
 8243POPC   C4B35758  20.730   5.315   7.655
 8244POPC   NC335759  42.354  36.173   9.455
 8244POPC   PO435760  42.320  36.140   9.155
 8244POPC   GL135761  42.369  36.162   8.855
 8244POPC   GL235762  42.209  36.182   8.855
 8244POPC   C1A35763  42.289  36.104   8.555
 8244POPC   D2A35764  42.359  36.111   8.255
 8244POPC   C3A35765  42.286  36.111   7.955
 8244POPC   C4A35766  42.322  36.093   7.655
 8244POPC   C1B35767  42.083  36.252   8.555
 8244POPC   C2B35768  42.086  36.232   8.255
 8244POPC   C3B35769  42.098  36.292   7.955
 8244POPC   C4B35770  42.153  36.235   7.655
 8245POPC   NC335771  39.987  32.279   9.455
 8245POPC   PO435772  39.966  32.261   9.155
 8245POPC   GL135773  40.027  32.286   8.855
 8245POPC   GL235774  39.887  32.310   8.855
 8245POPC   C1A35775  39.993  32.293   8.555
 8245POPC   D2A35776  40.041  32.252   8.255
 8245POPC   C3A35777  40.031  32.229   7.955
 8245POPC   C4A35778  40.042  32.271   7.655
 8245POPC   C1B35779  39.795  32.362   8.555
 8245POPC   C2B35780  39.805  32.327   8.255
 8245POPC   C3B35781  39.785  32.373   7.955
 8245POPC   C4B35782  39.825  32.357   7.655
 8246POPC   NC335783   1.244  10.564   9.455
 8246POPC   PO435784   1.188  10.548   9.155
 8246POPC   GL135785   1.193  10.498   8.855
 8246POPC   GL235786   1.274  10.682   8.855
 8246POPC   C1A35787   1.204  10.490   8.555
 8246POPC   D2A35788   1.176  10.506   8.255
 8246POPC   C3A35789   1.225  10.549   7.955
 8246POPC   C4A35790   1.174  10.495   7.655
 8246POPC   C1B35791   1.333  10.751   8.555
 8246POPC   C2B35792   1.253  10.714   8.255
 8246POPC   C3B35793   1.266  10.794   7.955
 8246POPC   C4B35794   1.318  10.746   7.655
 8247POPC   NC335795  12.094  13.583   9.455
 8247POPC   PO435796  12.089  13.619   9.155
 8247POPC   GL135797  12.067  13.622   8.855
 8247POPC   GL235798  11.984  13.612   8.855
 8247POPC   C1A35799  12.106  13.604   8.555
 8247POPC   D2A35800  12.038  13.586   8.255
 8247POPC   C3A35801  12.044  13.635   7.955
 8247POPC   C4A35802  12.082  13.592   7.655
 8247POPC   C1B35803  11.845  13.705   8.555
 8247POPC   C2B35804  11.804  13.606   8.255
 8247POPC   C3B35805  11.877  13.693   7.955
 8247POPC   C4B35806  11.877  13.667   7.655
 8248POPC   NC335807  31.468  35.347   9.455
 8248POPC   PO435808  31.454  35.339   9.155
 8248POPC   GL135809  31.431  35.351   8.855
 8248POPC   GL235810  31.622  35.268   8.855
 8248POPC   C1A35811  31.486  35.372   8.555
 8248POPC   D2A35812  31.456  35.309   8.255
 8248POPC   C3A35813  31.431  35.339   7.955
 8248POPC   C4A35814  31.423  35.340   7.655
 8248POPC   C1B35815  31.693  35.205   8.555
 8248POPC   C2B35816  31.716  35.237   8.255
 8248POPC   C3B35817  31.733  35.274   7.955
 8248POPC   C4B35818  31.723  35.205   7.655
 8249POPC   NC335819  36.129  34.567   9.455
 8249POPC   PO435820  36.173  34.619   9.155
 8249POPC   GL135821  36.147  34.533   8.855
 8249POPC   GL235822  36.035  34.651   8.855
 8249POPC   C1A35823  36.096  34.545   8.555
 8249POPC   D2A35824  36.085  34.609   8.255
 8249POPC   C3A35825  36.121  34.566   7.955
 8249POPC   C4A35826  36.083  34.534   7.655
 8249POPC   C1B35827  35.931  34.700   8.555
 8249POPC   C2B35828  35.919  34.709   8.255
 8249POPC   C3B35829  35.943  34.768   7.955
 8249POPC   C4B35830  35.893  34.762   7.655
 8250POPC   NC335831  41.566  15.194   9.455
 8250POPC   PO435832  41.530  15.135   9.155
 8250POPC   GL135833  41.525  15.190   8.855
 8250POPC   GL235834  41.720  15.112   8.855
 8250POPC   C1A35835  41.521  15.205   8.555
 8250POPC   D2A35836  41.535  15.191   8.255
 8250POPC   C3A35837  41.542  15.151   7.955
 8250POPC   C4A35838  41.535  15.227   7.655
 8250POPC   C1B35839  41.762  15.127   8.555
 8250POPC   C2B35840  41.768  15.136   8.255
 8250POPC   C3B35841  41.803  15.072   7.955
 8250POPC   C4B35842  41.808  15.066   7.655
 8251POPC   NC335843  15.193  42.346   9.455
 8251POPC   PO435844  15.130  42.352   9.155
 8251POPC   GL135845  15.171  42.362   8.855
 8251POPC   GL235846  15.302  42.356   8.855
 8251POPC   C1A35847  15.177  42.349   8.555
 8251POPC   D2A35848  15.166  42.294   8.255
 8251POPC   C3A35849  15.216  42.349   7.955
 8251POPC   C4A35850  15.158  42.354   7.655
 8251POPC   C1B35851  15.419  42.478   8.555
 8251POPC   C2B35852  15.389  42.472   8.255
 8251POPC   C3B35853  15.431  42.487   7.955
 8251POPC   C4B35854  15.416  42.424   7.655
 8252POPC   NC335855  43.881  19.880   9.455
 8252POPC   PO435856  43.882  19.789   9.155
 8252POPC   GL135857  43.905  19.806   8.855
 8252POPC   GL235858  43.897  19.930   8.855
 8252POPC   C1A35859  43.861  19.829   8.555
 8252POPC   D2A35860  43.842  19.834   8.255
 8252POPC   C3A35861  43.934  19.819   7.955
 8252POPC   C4A35862  43.877  19.877   7.655
 8252POPC   C1B35863  43.882  20.046   8.555
 8252POPC   C2B35864  43.817  20.036   8.255
 8252POPC   C3B35865  43.866  20.046   7.955
 8252POPC   C4B35866  43.865  20.056   7.655
 8253POPC   NC335867  13.631  19.839   9.455
 8253POPC   PO435868  13.667  19.787   9.155
 8253POPC   GL135869  13.619  19.846   8.855
 8253POPC   GL235870  13.670  19.736   8.855
 8253POPC   C1A35871  13.639  19.795   8.555
 8253POPC   D2A35872  13.631  19.799   8.255
 8253POPC   C3A35873  13.643  19.870   7.955
 8253POPC   C4A35874  13.662  19.825   7.655
 8253POPC   C1B35875  13.652  19.592   8.555
 8253POPC   C2B35876  13.576  19.614   8.255
 8253POPC   C3B35877  13.614  19.577   7.955
 8253POPC   C4B35878  13.634  19.573   7.655
 8254POPC   NC335879  14.396  11.315   9.455
 8254POPC   PO435880  14.442  11.305   9.155
 8254POPC   GL135881  14.379  11.350   8.855
 8254POPC   GL235882  14.340  11.374   8.855
 8254POPC   C1A35883  14.452  11.284   8.555
 8254POPC   D2A35884  14.361  11.316   8.255
 8254POPC   C3A35885  14.399  11.281   7.955
 8254POPC   C4A35886  14.420  11.320   7.655
 8254POPC   C1B35887  14.311  11.565   8.555
 8254POPC   C2B35888  14.392  11.527   8.255
 8254POPC   C3B35889  14.353  11.581   7.955
 8254POPC   C4B35890  14.369  11.563   7.655
 8255POPC   NC335891   5.876  41.604   9.455
 8255POPC   PO435892   5.896  41.560   9.155
 8255POPC   GL135893   5.879  41.534   8.855
 8255POPC   GL235894   5.957  41.545   8.855
 8255POPC   C1A35895   5.888  41.604   8.555
 8255POPC   D2A35896   5.901  41.510   8.255
 8255POPC   C3A35897   5.850  41.589   7.955
 8255POPC   C4A35898   5.821  41.577   7.655
 8255POPC   C1B35899   6.119  41.619   8.555
 8255POPC   C2B35900   6.164  41.556   8.255
 8255POPC   C3B35901   6.117  41.547   7.955
 8255POPC   C4B35902   6.084  41.633   7.655
 8256POPC   NC335903  42.298   1.262   9.455
 8256POPC   PO435904  42.357   1.233   9.155
 8256POPC   GL135905  42.384   1.203   8.855
 8256POPC   GL235906  42.415   1.151   8.855
 8256POPC   C1A35907  42.333   1.203   8.555
 8256POPC   D2A35908  42.352   1.179   8.255
 8256POPC   C3A35909  42.346   1.248   7.955
 8256POPC   C4A35910  42.291   1.260   7.655
 8256POPC   C1B35911  42.613   1.163   8.555
 8256POPC   C2B35912  42.587   1.135   8.255
 8256POPC   C3B35913  42.532   1.159   7.955
 8256POPC   C4B35914  42.533   1.147   7.655
 8257POPC   NC335915  10.505   3.557   9.455
 8257POPC   PO435916  10.553   3.565   9.155
 8257POPC   GL135917  10.560   3.495   8.855
 8257POPC   GL235918  10.459   3.441   8.855
 8257POPC   C1A35919  10.537   3.550   8.555
 8257POPC   D2A35920  10.493   3.577   8.255
 8257POPC   C3A35921  10.535   3.556   7.955
 8257POPC   C4A35922  10.519   3.508   7.655
 8257POPC   C1B35923  10.444   3.324   8.555
 8257POPC   C2B35924  10.409   3.336   8.255
 8257POPC   C3B35925  10.403   3.330   7.955
 8257POPC   C4B35926  10.421   3.282   7.655
 8258POPC   NC335927  12.867  10.559   9.455
 8258POPC   PO435928  12.879  10.487   9.155
 8258POPC   GL135929  12.838  10.520   8.855
 8258POPC   GL235930  12.787  10.413   8.855
 8258POPC   C1A35931  12.898  10.479   8.555
 8258POPC   D2A35932  12.889  10.542   8.255
 8258POPC   C3A35933  12.892  10.570   7.955
 8258POPC   C4A35934  12.831  10.519   7.655
 8258POPC   C1B35935  12.737  10.347   8.555
 8258POPC   C2B35936  12.641  10.370   8.255
 8258POPC   C3B35937  12.682  10.340   7.955
 8258POPC   C4B35938  12.728  10.301   7.655
 8259POPC   NC335939  15.170  11.338   9.455
 8259POPC   PO435940  15.192  11.334   9.155
 8259POPC   GL135941  15.193  11.297   8.855
 8259POPC   GL235942  15.102  11.225   8.855
 8259POPC   C1A35943  15.153  11.321   8.555
 8259POPC   D2A35944  15.226  11.324   8.255
 8259POPC   C3A35945  15.175  11.337   7.955
 8259POPC   C4A35946  15.191  11.284   7.655
 8259POPC   C1B35947  14.990  11.140   8.555
 8259POPC   C2B35948  15.016  11.141   8.255
 8259POPC   C3B35949  14.980  11.203   7.955
 8259POPC   C4B35950  14.998  11.177   7.655
 8260POPC   NC335951  36.109  21.430   9.455
 8260POPC   PO435952  36.146  21.359   9.155
 8260POPC   GL135953  36.086  21.382   8.855
 8260POPC   GL235954  36.257  21.389   8.855
 8260POPC   C1A35955  36.103  21.411   8.555
 8260POPC   D2A35956  36.127  21.347   8.255
 8260POPC   C3A35957  36.143  21.417   7.955
 8260POPC   C4A35958  36.098  21.369   7.655
 8260POPC   C1B35959  36.351  21.364   8.555
 8260POPC   C2B35960  36.419  21.388   8.255
 8260POPC   C3B35961  36.330  21.404   7.955
 8260POPC   C4B35962  36.358  21.347   7.655
 8261POPC   NC335963   2.742  14.407   9.455
 8261POPC   PO435964   2.774  14.412   9.155
 8261POPC   GL135965   2.745  14.354   8.855
 8261POPC   GL235966   2.606  14.339   8.855
 8261POPC   C1A35967   2.789  14.410   8.555
 8261POPC   D2A35968   2.811  14.425   8.255
 8261POPC   C3A35969   2.770  14.416   7.955
 8261POPC   C4A35970   2.782  14.430   7.655
 8261POPC   C1B35971   2.499  14.330   8.555
 8261POPC   C2B35972   2.495  14.339   8.255
 8261POPC   C3B35973   2.500  14.351   7.955
 8261POPC   C4B35974   2.491  14.327   7.655
 8262POPC   NC335975   8.973  16.686   9.455
 8262POPC   PO435976   8.993  16.766   9.155
 8262POPC   GL135977   8.962  16.732   8.855
 8262POPC   GL235978   8.903  16.639   8.855
 8262POPC   C1A35979   8.937  16.727   8.555
 8262POPC   D2A35980   8.991  16.711   8.255
 8262POPC   C3A35981   9.013  16.707   7.955
 8262POPC   C4A35982   9.013  16.765   7.655
 8262POPC   C1B35983   8.876  16.565   8.555
 8262POPC   C2B35984   8.846  16.531   8.255
 8262POPC   C3B35985   8.844  16.576   7.955
 8262POPC   C4B35986   8.872  16.546   7.655
 8263POPC   NC335987  43.094   8.166   9.455
 8263POPC   PO435988  43.063   8.157   9.155
 8263POPC   GL135989  43.146   8.226   8.855
 8263POPC   GL235990  43.203   8.328   8.855
 8263POPC   C1A35991  43.099   8.170   8.555
 8263POPC   D2A35992  43.066   8.182   8.255
 8263POPC   C3A35993  43.113   8.174   7.955
 8263POPC   C4A35994  43.100   8.232   7.655
 8263POPC   C1B35995  43.287   8.427   8.555
 8263POPC   C2B35996  43.196   8.386   8.255
 8263POPC   C3B35997  43.265   8.421   7.955
 8263POPC   C4B35998  43.273   8.430   7.655
 8264POPC   NC335999   3.563   5.843   9.455
 8264POPC   PO436000   3.500   5.912   9.155
 8264POPC   GL136001   3.560   5.908   8.855
 8264POPC   GL236002   3.690   5.870   8.855
 8264POPC   C1A36003   3.586   5.897   8.555
 8264POPC   D2A36004   3.524   5.884   8.255
 8264POPC   C3A36005   3.502   5.840   7.955
 8264POPC   C4A36006   3.510   5.826   7.655
 8264POPC   C1B36007   3.821   5.896   8.555
 8264POPC   C2B36008   3.755   5.898   8.255
 8264POPC   C3B36009   3.806   5.892   7.955
 8264POPC   C4B36010   3.772   5.917   7.655
 8265POPC   NC336011  20.580   2.024   9.455
 8265POPC   PO436012  20.566   1.970   9.155
 8265POPC   GL136013  20.605   1.978   8.855
 8265POPC   GL236014  20.601   2.152   8.855
 8265POPC   C1A36015  20.627   2.024   8.555
 8265POPC   D2A36016  20.610   2.019   8.255
 8265POPC   C3A36017  20.645   2.003   7.955
 8265POPC   C4A36018  20.626   1.971   7.655
 8265POPC   C1B36019  20.558   2.277   8.555
 8265POPC   C2B36020  20.590   2.205   8.255
 8265POPC   C3B36021  20.584   2.223   7.955
 8265POPC   C4B36022  20.537   2.267   7.655
 8266POPC   NC336023  17.527  13.670   9.455
 8266POPC   PO436024  17.534  13.602   9.155
 8266POPC   GL136025  17.465  13.654   8.855
 8266POPC   GL236026  17.575  13.534   8.855
 8266POPC   C1A36027  17.480  13.604   8.555
 8266POPC   D2A36028  17.536  13.620   8.255
 8266POPC   C3A36029  17.491  13.673   7.955
 8266POPC   C4A36030  17.496  13.614   7.655
 8266POPC   C1B36031  17.629  13.375   8.555
 8266POPC   C2B36032  17.620  13.374   8.255
 8266POPC   C3B36033  17.612  13.379   7.955
 8266POPC   C4B36034  17.675  13.463   7.655
 8267POPC   NC336035  12.056  24.534   9.455
 8267POPC   PO436036  12.107  24.451   9.155
 8267POPC   GL136037  12.053  24.468   8.855
 8267POPC   GL236038  12.232  24.453   8.855
 8267POPC   C1A36039  12.045  24.454   8.555
 8267POPC   D2A36040  12.123  24.513   8.255
 8267POPC   C3A36041  12.097  24.509   7.955
 8267POPC   C4A36042  12.084  24.518   7.655
 8267POPC   C1B36043  12.302  24.493   8.555
 8267POPC   C2B36044  12.353  24.523   8.255
 8267POPC   C3B36045  12.374  24.464   7.955
 8267POPC   C4B36046  12.311  24.528   7.655
 8268POPC   NC336047  43.070  31.454   9.455
 8268POPC   PO436048  43.093  31.515   9.155
 8268POPC   GL136049  43.136  31.521   8.855
 8268POPC   GL236050  43.191  31.403   8.855
 8268POPC   C1A36051  43.063  31.485   8.555
 8268POPC   D2A36052  43.081  31.496   8.255
 8268POPC   C3A36053  43.126  31.445   7.955
 8268POPC   C4A36054  43.083  31.518   7.655
 8268POPC   C1B36055  43.267  31.237   8.555
 8268POPC   C2B36056  43.207  31.220   8.255
 8268POPC   C3B36057  43.208  31.296   7.955
 8268POPC   C4B36058  43.262  31.233   7.655
 8269POPC   NC336059  26.050   0.463   9.455
 8269POPC   PO436060  26.048   0.471   9.155
 8269POPC   GL136061  26.013   0.394   8.855
 8269POPC   GL236062  25.969   0.521   8.855
 8269POPC   C1A36063  26.073   0.412   8.555
 8269POPC   D2A36064  26.063   0.415   8.255
 8269POPC   C3A36065  26.002   0.405   7.955
 8269POPC   C4A36066  26.020   0.477   7.655
 8269POPC   C1B36067  25.787   0.555   8.555
 8269POPC   C2B36068  25.787   0.540   8.255
 8269POPC   C3B36069  25.784   0.520   7.955
 8269POPC   C4B36070  25.840   0.561   7.655
 8270POPC   NC336071   7.414  30.740   9.455
 8270POPC   PO436072   7.402  30.726   9.155
 8270POPC   GL136073   7.423  30.661   8.855
 8270POPC   GL236074   7.555  30.664   8.855
 8270POPC   C1A36075   7.458  30.736   8.555
 8270POPC   D2A36076   7.453  30.651   8.255
 8270POPC   C3A36077   7.411  30.666   7.955
 8270POPC   C4A36078   7.453  30.701   7.655
 8270POPC   C1B36079   7.678  30.715   8.555
 8270POPC   C2B36080   7.682  30.722   8.255
 8270POPC   C3B36081   7.648  30.735   7.955
 8270POPC   C4B36082   7.663  30.679   7.655
 8271POPC   NC336083  24.502   9.702   9.455
 8271POPC   PO436084  24.527   9.735   9.155
 8271POPC   GL136085  24.467   9.745   8.855
 8271POPC   GL236086  24.394   9.720   8.855
 8271POPC   C1A36087  24.445   9.707   8.555
 8271POPC   D2A36088  24.535   9.776   8.255
 8271POPC   C3A36089  24.506   9.772   7.955
 8271POPC   C4A36090  24.464   9.725   7.655
 8271POPC   C1B36091  24.237   9.730   8.555
 8271POPC   C2B36092  24.282   9.694   8.255
 8271POPC   C3B36093  24.240   9.670   7.955
 8271POPC   C4B36094  24.229   9.657   7.655
 8272POPC   NC336095   3.559   7.418   9.455
 8272POPC   PO436096   3.506   7.375   9.155
 8272POPC   GL136097   3.577   7.466   8.855
 8272POPC   GL236098   3.468   7.414   8.855
 8272POPC   C1A36099   3.529   7.391   8.555
 8272POPC   D2A36100   3.513   7.383   8.255
 8272POPC   C3A36101   3.503   7.425   7.955
 8272POPC   C4A36102   3.567   7.393   7.655
 8272POPC   C1B36103   3.252   7.441   8.555
 8272POPC   C2B36104   3.281   7.497   8.255
 8272POPC   C3B36105   3.304   7.501   7.955
 8272POPC   C4B36106   3.298   7.524   7.655
 8273POPC   NC336107  12.890  39.210   9.455
 8273POPC   PO436108  12.879  39.238   9.155
 8273POPC   GL136109  12.863  39.199   8.855
 8273POPC   GL236110  12.906  39.182   8.855
 8273POPC   C1A36111  12.826  39.206   8.555
 8273POPC   D2A36112  12.811  39.196   8.255
 8273POPC   C3A36113  12.822  39.219   7.955
 8273POPC   C4A36114  12.877  39.272   7.655
 8273POPC   C1B36115  13.064  39.056   8.555
 8273POPC   C2B36116  12.998  39.065   8.255
 8273POPC   C3B36117  13.034  39.106   7.955
 8273POPC   C4B36118  13.053  39.093   7.655
 8274POPC   NC336119  29.185  28.352   9.455
 8274POPC   PO436120  29.145  28.364   9.155
 8274POPC   GL136121  29.160  28.403   8.855
 8274POPC   GL236122  29.026  28.304   8.855
 8274POPC   C1A36123  29.116  28.329   8.555
 8274POPC   D2A36124  29.111  28.372   8.255
 8274POPC   C3A36125  29.106  28.407   7.955
 8274POPC   C4A36126  29.183  28.371   7.655
 8274POPC   C1B36127  28.948  28.351   8.555
 8274POPC   C2B36128  28.859  28.366   8.255
 8274POPC   C3B36129  28.858  28.346   7.955
 8274POPC   C4B36130  28.895  28.305   7.655
 8275POPC   NC336131   5.097   2.014   9.455
 8275POPC   PO436132   5.122   2.025   9.155
 8275POPC   GL136133   5.069   2.001   8.855
 8275POPC   GL236134   4.992   2.096   8.855
 8275POPC   C1A36135   5.069   2.034   8.555
 8275POPC   D2A36136   5.109   2.023   8.255
 8275POPC   C3A36137   5.104   1.988   7.955
 8275POPC   C4A36138   5.048   1.946   7.655
 8275POPC   C1B36139   4.876   2.080   8.555
 8275POPC   C2B36140   4.918   2.124   8.255
 8275POPC   C3B36141   4.856   2.150   7.955
 8275POPC   C4B36142   4.872   2.132   7.655
 8276POPC   NC336143  16.717  31.495   9.455
 8276POPC   PO436144  16.774  31.515   9.155
 8276POPC   GL136145  16.729  31.478   8.855
 8276POPC   GL236146  16.640  31.364   8.855
 8276POPC   C1A36147  16.712  31.468   8.555
 8276POPC   D2A36148  16.767  31.506   8.255
 8276POPC   C3A36149  16.700  31.476   7.955
 8276POPC   C4A36150  16.751  31.430   7.655
 8276POPC   C1B36151  16.525  31.353   8.555
 8276POPC   C2B36152  16.520  31.382   8.255
 8276POPC   C3B36153  16.529  31.336   7.955
 8276POPC   C4B36154  16.481  31.340   7.655
 8277POPC   NC336155   3.590  40.775   9.455
 8277POPC   PO436156   3.508  40.780   9.155
 8277POPC   GL136157   3.536  40.805   8.855
 8277POPC   GL236158   3.496  40.650   8.855
 8277POPC   C1A36159   3.570  40.771   8.555
 8277POPC   D2A36160   3.492  40.803   8.255
 8277POPC   C3A36161   3.553  40.775   7.955
 8277POPC   C4A36162   3.587  40.812   7.655
 8277POPC   C1B36163   3.534  40.506   8.555
 8277POPC   C2B36164   3.567  40.537   8.255
 8277POPC   C3B36165   3.503  40.547   7.955
 8277POPC   C4B36166   3.541  40.491   7.655
 8278POPC   NC336167   5.119   1.203   9.455
 8278POPC   PO436168   5.073   1.240   9.155
 8278POPC   GL136169   5.057   1.216   8.855
 8278POPC   GL236170   4.996   1.098   8.855
 8278POPC   C1A36171   5.139   1.233   8.555
 8278POPC   D2A36172   5.142   1.196   8.255
 8278POPC   C3A36173   5.061   1.167   7.955
 8278POPC   C4A36174   5.095   1.213   7.655
 8278POPC   C1B36175   4.911   1.061   8.555
 8278POPC   C2B36176   4.880   1.059   8.255
 8278POPC   C3B36177   4.914   1.031   7.955
 8278POPC   C4B36178   4.956   0.994   7.655
 8279POPC   NC336179   3.557  19.026   9.455
 8279POPC   PO436180   3.492  19.037   9.155
 8279POPC   GL136181   3.515  19.017   8.855
 8279POPC   GL236182   3.650  19.041   8.855
 8279POPC   C1A36183   3.520  19.086   8.555
 8279POPC   D2A36184   3.575  19.071   8.255
 8279POPC   C3A36185   3.526  19.050   7.955
 8279POPC   C4A36186   3.555  19.060   7.655
 8279POPC   C1B36187   3.742  18.968   8.555
 8279POPC   C2B36188   3.728  18.913   8.255
 8279POPC   C3B36189   3.744  18.950   7.955
 8279POPC   C4B36190   3.742  18.955   7.655
 8280POPC   NC336191  12.097   8.213   9.455
 8280POPC   PO436192  12.046   8.190   9.155
 8280POPC   GL136193  12.094   8.204   8.855
 8280POPC   GL236194  12.239   8.153   8.855
 8280POPC   C1A36195  12.047   8.168   8.555
 8280POPC   D2A36196  12.033   8.245   8.255
 8280POPC   C3A36197  12.056   8.181   7.955
 8280POPC   C4A36198  12.091   8.245   7.655
 8280POPC   C1B36199  12.366   8.200   8.555
 8280POPC   C2B36200  12.333   8.199   8.255
 8280POPC   C3B36201  12.287   8.175   7.955
 8280POPC   C4B36202  12.328   8.192   7.655
 8281POPC   NC336203   7.392  39.979   9.455
 8281POPC   PO436204   7.461  39.999   9.155
 8281POPC   GL136205   7.461  40.030   8.855
 8281POPC   GL236206   7.501  39.998   8.855
 8281POPC   C1A36207   7.466  39.968   8.555
 8281POPC   D2A36208   7.401  39.961   8.255
 8281POPC   C3A36209   7.411  39.968   7.955
 8281POPC   C4A36210   7.429  40.026   7.655
 8281POPC   C1B36211   7.710  40.079   8.555
 8281POPC   C2B36212   7.621  40.090   8.255
 8281POPC   C3B36213   7.700  40.031   7.955
 8281POPC   C4B36214   7.670  40.027   7.655
 8282POPC   NC336215  16.002  33.793   9.455
 8282POPC   PO436216  15.905  33.849   9.155
 8282POPC   GL136217  15.972  33.835   8.855
 8282POPC   GL236218  16.067  33.938   8.855
 8282POPC   C1A36219  15.967  33.838   8.555
 8282POPC   D2A36220  15.982  33.773   8.255
 8282POPC   C3A36221  15.972  33.831   7.955
 8282POPC   C4A36222  15.911  33.750   7.655
 8282POPC   C1B36223  16.097  34.029   8.555
 8282POPC   C2B36224  16.174  33.961   8.255
 8282POPC   C3B36225  16.078  34.017   7.955
 8282POPC   C4B36226  16.086  33.956   7.655
 8283POPC   NC336227  25.222   1.241   9.455
 8283POPC   PO436228  25.280   1.229   9.155
 8283POPC   GL136229  25.249   1.213   8.855
 8283POPC   GL236230  25.385   1.133   8.855
 8283POPC   C1A36231  25.287   1.260   8.555
 8283POPC   D2A36232  25.227   1.174   8.255
 8283POPC   C3A36233  25.265   1.223   7.955
 8283POPC   C4A36234  25.230   1.172   7.655
 8283POPC   C1B36235  25.543   1.173   8.555
 8283POPC   C2B36236  25.528   1.150   8.255
 8283POPC   C3B36237  25.513   1.134   7.955
 8283POPC   C4B36238  25.483   1.126   7.655
 8284POPC   NC336239  29.889  15.202   9.455
 8284POPC   PO436240  29.893  15.136   9.155
 8284POPC   GL136241  29.969  15.131   8.855
 8284POPC   GL236242  29.802  15.154   8.855
 8284POPC   C1A36243  29.963  15.204   8.555
 8284POPC   D2A36244  29.891  15.139   8.255
 8284POPC   C3A36245  29.970  15.184   7.955
 8284POPC   C4A36246  29.871  15.149   7.655
 8284POPC   C1B36247  29.714  15.204   8.555
 8284POPC   C2B36248  29.702  15.161   8.255
 8284POPC   C3B36249  29.653  15.196   7.955
 8284POPC   C4B36250  29.709  15.190   7.655
 8285POPC   NC336251  41.569  32.234   9.455
 8285POPC   PO436252  41.573  32.257   9.155
 8285POPC   GL136253  41.579  32.213   8.855
 8285POPC   GL236254  41.495  32.324   8.855
 8285POPC   C1A36255  41.553  32.258   8.555
 8285POPC   D2A36256  41.568  32.269   8.255
 8285POPC   C3A36257  41.526  32.205   7.955
 8285POPC   C4A36258  41.553  32.290   7.655
 8285POPC   C1B36259  41.369  32.346   8.555
 8285POPC   C2B36260  41.308  32.424   8.255
 8285POPC   C3B36261  41.363  32.430   7.955
 8285POPC   C4B36262  41.338  32.362   7.655
 8286POPC   NC336263  40.741  26.066   9.455
 8286POPC   PO436264  40.832  26.084   9.155
 8286POPC   GL136265  40.756  26.009   8.855
 8286POPC   GL236266  40.762  25.946   8.855
 8286POPC   C1A36267  40.796  26.052   8.555
 8286POPC   D2A36268  40.806  26.051   8.255
 8286POPC   C3A36269  40.831  26.037   7.955
 8286POPC   C4A36270  40.825  26.086   7.655
 8286POPC   C1B36271  40.721  25.838   8.555
 8286POPC   C2B36272  40.736  25.820   8.255
 8286POPC   C3B36273  40.709  25.753   7.955
 8286POPC   C4B36274  40.781  25.756   7.655
 8287POPC   NC336275  28.404   2.008   9.455
 8287POPC   PO436276  28.411   1.971   9.155
 8287POPC   GL136277  28.347   1.961   8.855
 8287POPC   GL236278  28.458   1.993   8.855
 8287POPC   C1A36279  28.330   1.988   8.555
 8287POPC   D2A36280  28.332   1.947   8.255
 8287POPC   C3A36281  28.347   1.956   7.955
 8287POPC   C4A36282  28.363   1.970   7.655
 8287POPC   C1B36283  28.567   2.111   8.555
 8287POPC   C2B36284  28.623   2.075   8.255
 8287POPC   C3B36285  28.590   2.050   7.955
 8287POPC   C4B36286  28.571   2.083   7.655
 8288POPC   NC336287   9.715  44.629   9.455
 8288POPC   PO436288   9.735  44.635   9.155
 8288POPC   GL136289   9.706  44.677   8.855
 8288POPC   GL236290   9.729  44.527   8.855
 8288POPC   C1A36291   9.718  44.636   8.555
 8288POPC   D2A36292   9.723  44.637   8.255
 8288POPC   C3A36293   9.789  44.684   7.955
 8288POPC   C4A36294   9.794  44.679   7.655
 8288POPC   C1B36295   9.638  44.413   8.555
 8288POPC   C2B36296   9.593  44.406   8.255
 8288POPC   C3B36297   9.649  44.476   7.955
 8288POPC   C4B36298   9.589  44.433   7.655
 8289POPC   NC336299   3.534  29.942   9.455
 8289POPC   PO436300   3.520  29.965   9.155
 8289POPC   GL136301   3.502  29.909   8.855
 8289POPC   GL236302   3.660  30.012   8.855
 8289POPC   C1A36303   3.521  29.906   8.555
 8289POPC   D2A36304   3.544  29.930   8.255
 8289POPC   C3A36305   3.551  29.943   7.955
 8289POPC   C4A36306   3.512  29.891   7.655
 8289POPC   C1B36307   3.739  30.123   8.555
 8289POPC   C2B36308   3.701  30.087   8.255
 8289POPC   C3B36309   3.690  30.105   7.955
 8289POPC   C4B36310   3.736  30.083   7.655
 8290POPC   NC336311   9.006   1.977   9.455
 8290POPC   PO436312   8.953   2.040   9.155
 8290POPC   GL136313   9.011   2.005   8.855
 8290POPC   GL236314   8.923   1.856   8.855
 8290POPC   C1A36315   8.976   1.997   8.555
 8290POPC   D2A36316   8.949   1.971   8.255
 8290POPC   C3A36317   9.018   2.039   7.955
 8290POPC   C4A36318   8.974   1.950   7.655
 8290POPC   C1B36319   8.839   1.786   8.555
 8290POPC   C2B36320   8.814   1.830   8.255
 8290POPC   C3B36321   8.817   1.837   7.955
 8290POPC   C4B36322   8.787   1.756   7.655
 8291POPC   NC336323   1.204   3.571   9.455
 8291POPC   PO436324   1.254   3.495   9.155
 8291POPC   GL136325   1.193   3.591   8.855
 8291POPC   GL236326   1.176   3.691   8.855
 8291POPC   C1A36327   1.254   3.515   8.555
 8291POPC   D2A36328   1.238   3.587   8.255
 8291POPC   C3A36329   1.223   3.515   7.955
 8291POPC   C4A36330   1.192   3.533   7.655
 8291POPC   C1B36331   1.070   3.798   8.555
 8291POPC   C2B36332   1.056   3.764   8.255
 8291POPC   C3B36333   1.049   3.777   7.955
 8291POPC   C4B36334   1.121   3.727   7.655
 8292POPC   NC336335  44.700   3.586   9.455
 8292POPC   PO436336  44.638   3.496   9.155
 8292POPC   GL136337  44.668   3.584   8.855
 8292POPC   GL236338  44.788   3.485   8.855
 8292POPC   C1A36339  44.662   3.528   8.555
 8292POPC   D2A36340  44.679   3.510   8.255
 8292POPC   C3A36341  44.706   3.578   7.955
 8292POPC   C4A36342  44.617   3.553   7.655
 8292POPC   C1B36343  44.864   3.482   8.555
 8292POPC   C2B36344  44.911   3.531   8.255
 8292POPC   C3B36345  44.874   3.501   7.955
 8292POPC   C4B36346  44.906   3.465   7.655
 8293POPC   NC336347  32.285  26.822   9.455
 8293POPC   PO436348  32.261  26.848   9.155
 8293POPC   GL136349  32.289  26.850   8.855
 8293POPC   GL236350  32.200  26.985   8.855
 8293POPC   C1A36351  32.271  26.832   8.555
 8293POPC   D2A36352  32.270  26.773   8.255
 8293POPC   C3A36353  32.297  26.777   7.955
 8293POPC   C4A36354  32.200  26.817   7.655
 8293POPC   C1B36355  32.214  27.095   8.555
 8293POPC   C2B36356  32.218  27.068   8.255
 8293POPC   C3B36357  32.166  27.039   7.955
 8293POPC   C4B36358  32.164  27.010   7.655
 8294POPC   NC336359   4.318  22.173   9.455
 8294POPC   PO436360   4.315  22.203   9.155
 8294POPC   GL136361   4.352  22.164   8.855
 8294POPC   GL236362   4.404  22.144   8.855
 8294POPC   C1A36363   4.268  22.178   8.555
 8294POPC   D2A36364   4.298  22.145   8.255
 8294POPC   C3A36365   4.364  22.202   7.955
 8294POPC   C4A36366   4.269  22.165   7.655
 8294POPC   C1B36367   4.571  22.065   8.555
 8294POPC   C2B36368   4.543  22.053   8.255
 8294POPC   C3B36369   4.550  22.087   7.955
 8294POPC   C4B36370   4.514  22.031   7.655
 8295POPC   NC336371   4.280  33.770   9.455
 8295POPC   PO436372   4.312  33.785   9.155
 8295POPC   GL136373   4.364  33.817   8.855
 8295POPC   GL236374   4.242  33.957   8.855
 8295POPC   C1A36375   4.298  33.820   8.555
 8295POPC   D2A36376   4.319  33.773   8.255
 8295POPC   C3A36377   4.279  33.778   7.955
 8295POPC   C4A36378   4.324  33.787   7.655
 8295POPC   C1B36379   4.260  34.062   8.555
 8295POPC   C2B36380   4.301  34.079   8.255
 8295POPC   C3B36381   4.205  34.049   7.955
 8295POPC   C4B36382   4.257  34.052   7.655
 8296POPC   NC336383  43.124  33.753   9.455
 8296POPC   PO436384  43.068  33.812   9.155
 8296POPC   GL136385  43.104  33.795   8.855
 8296POPC   GL236386  43.015  33.654   8.855
 8296POPC   C1A36387  43.096  33.785   8.555
 8296POPC   D2A36388  43.132  33.761   8.255
 8296POPC   C3A36389  43.159  33.804   7.955
 8296POPC   C4A36390  43.125  33.785   7.655
 8296POPC   C1B36391  43.018  33.528   8.555
 8296POPC   C2B36392  42.981  33.539   8.255
 8296POPC   C3B36393  43.053  33.525   7.955
 8296POPC   C4B36394  42.980  33.552   7.655
 8297POPC   NC336395  32.983  30.684   9.455
 8297POPC   PO436396  33.047  30.670   9.155
 8297POPC   GL136397  33.010  30.704   8.855
 8297POPC   GL236398  33.105  30.571   8.855
 8297POPC   C1A36399  33.072  30.670   8.555
 8297POPC   D2A36400  33.064  30.650   8.255
 8297POPC   C3A36401  32.989  30.648   7.955
 8297POPC   C4A36402  32.978  30.693   7.655
 8297POPC   C1B36403  33.041  30.460   8.555
 8297POPC   C2B36404  33.133  30.419   8.255
 8297POPC   C3B36405  33.104  30.434   7.955
 8297POPC   C4B36406  33.116  30.460   7.655
 8298POPC   NC336407   1.192  19.879   9.455
 8298POPC   PO436408   1.189  19.801   9.155
 8298POPC   GL136409   1.164  19.791   8.855
 8298POPC   GL236410   1.148  19.747   8.855
 8298POPC   C1A36411   1.249  19.863   8.555
 8298POPC   D2A36412   1.173  19.799   8.255
 8298POPC   C3A36413   1.224  19.859   7.955
 8298POPC   C4A36414   1.231  19.855   7.655
 8298POPC   C1B36415   1.054  19.609   8.555
 8298POPC   C2B36416   1.113  19.634   8.255
 8298POPC   C3B36417   1.125  19.667   7.955
 8298POPC   C4B36418   1.073  19.669   7.655
 8299POPC   NC336419  35.401  29.968   9.455
 8299POPC   PO436420  35.354  29.959   9.155
 8299POPC   GL136421  35.373  29.946   8.855
 8299POPC   GL236422  35.278  29.988   8.855
 8299POPC   C1A36423  35.328  29.916   8.555
 8299POPC   D2A36424  35.349  29.887   8.255
 8299POPC   C3A36425  35.347  29.943   7.955
 8299POPC   C4A36426  35.369  29.958   7.655
 8299POPC   C1B36427  35.150  30.110   8.555
 8299POPC   C2B36428  35.235  30.092   8.255
 8299POPC   C3B36429  35.193  30.128   7.955
 8299POPC   C4B36430  35.194  30.100   7.655
 8300POPC   NC336431  39.277  15.223   9.455
 8300POPC   PO436432  39.204  15.184   9.155
 8300POPC   GL136433  39.214  15.146   8.855
 8300POPC   GL236434  39.303  15.331   8.855
 8300POPC   C1A36435  39.185  15.140   8.555
 8300POPC   D2A36436  39.254  15.210   8.255
 8300POPC   C3A36437  39.271  15.130   7.955
 8300POPC   C4A36438  39.249  15.145   7.655
 8300POPC   C1B36439  39.250  15.456   8.555
 8300POPC   C2B36440  39.285  15.396   8.255
 8300POPC   C3B36441  39.244  15.423   7.955
 8300POPC   C4B36442  39.286  15.378   7.655
 8301POPC   NC336443  10.493  40.052   9.455
 8301POPC   PO436444  10.504  40.032   9.155
 8301POPC   GL136445  10.526  40.020   8.855
 8301POPC   GL236446  10.681  40.051   8.855
 8301POPC   C1A36447  10.537  40.055   8.555
 8301POPC   D2A36448  10.573  40.017   8.255
 8301POPC   C3A36449  10.526  39.990   7.955
 8301POPC   C4A36450  10.558  40.012   7.655
 8301POPC   C1B36451  10.715  40.102   8.555
 8301POPC   C2B36452  10.731  40.071   8.255
 8301POPC   C3B36453  10.773  40.061   7.955
 8301POPC   C4B36454  10.795  40.050   7.655
 8302POPC   NC336455  30.652  19.835   9.455
 8302POPC   PO436456  30.709  19.868   9.155
 8302POPC   GL136457  30.728  19.818   8.855
 8302POPC   GL236458  30.588  19.776   8.855
 8302POPC   C1A36459  30.734  19.811   8.555
 8302POPC   D2A36460  30.689  19.828   8.255
 8302POPC   C3A36461  30.678  19.870   7.955
 8302POPC   C4A36462  30.732  19.798   7.655
 8302POPC   C1B36463  30.490  19.733   8.555
 8302POPC   C2B36464  30.473  19.682   8.255
 8302POPC   C3B36465  30.449  19.663   7.955
 8302POPC   C4B36466  30.513  19.667   7.655
 8303POPC   NC336467  24.486   9.001   9.455
 8303POPC   PO436468  24.516   9.003   9.155
 8303POPC   GL136469  24.532   8.981   8.855
 8303POPC   GL236470  24.378   8.972   8.855
 8303POPC   C1A36471  24.454   8.965   8.555
 8303POPC   D2A36472  24.534   8.939   8.255
 8303POPC   C3A36473  24.476   8.957   7.955
 8303POPC   C4A36474  24.502   9.021   7.655
 8303POPC   C1B36475  24.236   9.091   8.555
 8303POPC   C2B36476  24.268   9.035   8.255
 8303POPC   C3B36477  24.226   9.040   7.955
 8303POPC   C4B36478  24.253   9.025   7.655
 8304POPC   NC336479   3.569  36.900   9.455
 8304POPC   PO436480   3.576  36.887   9.155
 8304POPC   GL136481   3.576  36.869   8.855
 8304POPC   GL236482   3.546  37.073   8.855
 8304POPC   C1A36483   3.520  36.923   8.555
 8304POPC   D2A36484   3.503  36.899   8.255
 8304POPC   C3A36485   3.511  36.861   7.955
 8304POPC   C4A36486   3.493  36.936   7.655
 8304POPC   C1B36487   3.555  37.193   8.555
 8304POPC   C2B36488   3.505  37.151   8.255
 8304POPC   C3B36489   3.563  37.168   7.955
 8304POPC   C4B36490   3.533  37.199   7.655
 8305POPC   NC336491  29.098  11.255   9.455
 8305POPC   PO436492  29.168  11.299   9.155
 8305POPC   GL136493  29.105  11.350   8.855
 8305POPC   GL236494  28.999  11.306   8.855
 8305POPC   C1A36495  29.168  11.302   8.555
 8305POPC   D2A36496  29.112  11.304   8.255
 8305POPC   C3A36497  29.161  11.285   7.955
 8305POPC   C4A36498  29.179  11.341   7.655
 8305POPC   C1B36499  28.914  11.341   8.555
 8305POPC   C2B36500  28.863  11.422   8.255
 8305POPC   C3B36501  28.908  11.397   7.955
 8305POPC   C4B36502  28.878  11.366   7.655
 8306POPC   NC336503  36.123   3.507   9.455
 8306POPC   PO436504  36.089   3.553   9.155
 8306POPC   GL136505  36.144   3.521   8.855
 8306POPC   GL236506  36.022   3.415   8.855
 8306POPC   C1A36507  36.104   3.561   8.555
 8306POPC   D2A36508  36.082   3.577   8.255
 8306POPC   C3A36509  36.170   3.572   7.955
 8306POPC   C4A36510  36.169   3.508   7.655
 8306POPC   C1B36511  35.970   3.371   8.555
 8306POPC   C2B36512  35.997   3.317   8.255
 8306POPC   C3B36513  35.936   3.299   7.955
 8306POPC   C4B36514  35.973   3.364   7.655
 8307POPC   NC336515  44.667  43.105   9.455
 8307POPC   PO436516  44.635  43.114   9.155
 8307POPC   GL136517  44.683  43.089   8.855
 8307POPC   GL236518  44.752  43.173   8.855
 8307POPC   C1A36519  44.638  43.123   8.555
 8307POPC   D2A36520  44.621  43.158   8.255
 8307POPC   C3A36521  44.679  43.085   7.955
 8307POPC   C4A36522  44.654  43.080   7.655
 8307POPC   C1B36523  44.772  43.302   8.555
 8307POPC   C2B36524  44.769  43.299   8.255
 8307POPC   C3B36525  44.778  43.294   7.955
 8307POPC   C4B36526  44.836  43.317   7.655
 8308POPC   NC336527   8.982   5.049   9.455
 8308POPC   PO436528   8.929   5.115   9.155
 8308POPC   GL136529   8.968   5.055   8.855
 8308POPC   GL236530   8.827   5.075   8.855
 8308POPC   C1A36531   8.999   5.091   8.555
 8308POPC   D2A36532   9.021   5.078   8.255
 8308POPC   C3A36533   9.009   5.115   7.955
 8308POPC   C4A36534   8.957   5.121   7.655
 8308POPC   C1B36535   8.707   5.030   8.555
 8308POPC   C2B36536   8.757   4.988   8.255
 8308POPC   C3B36537   8.775   5.016   7.955
 8308POPC   C4B36538   8.731   5.000   7.655
 8309POPC   NC336539   1.219   9.752   9.455
 8309POPC   PO436540   1.231   9.751   9.155
 8309POPC   GL136541   1.189   9.726   8.855
 8309POPC   GL236542   1.317   9.765   8.855
 8309POPC   C1A36543   1.260   9.782   8.555
 8309POPC   D2A36544   1.203   9.749   8.255
 8309POPC   C3A36545   1.194   9.729   7.955
 8309POPC   C4A36546   1.185   9.776   7.655
 8309POPC   C1B36547   1.499   9.720   8.555
 8309POPC   C2B36548   1.488   9.733   8.255
 8309POPC   C3B36549   1.478   9.791   7.955
 8309POPC   C4B36550   1.449   9.730   7.655
 8310POPC   NC336551  20.631  32.237   9.455
 8310POPC   PO436552  20.624  32.199   9.155
 8310POPC   GL136553  20.599  32.226   8.855
 8310POPC   GL236554  20.673  32.350   8.855
 8310POPC   C1A36555  20.645  32.247   8.555
 8310POPC   D2A36556  20.614  32.271   8.255
 8310POPC   C3A36557  20.588  32.203   7.955
 8310POPC   C4A36558  20.587  32.279   7.655
 8310POPC   C1B36559  20.875  32.351   8.555
 8310POPC   C2B36560  20.788  32.373   8.255
 8310POPC   C3B36561  20.826  32.393   7.955
 8310POPC   C4B36562  20.864  32.331   7.655
 8311POPC   NC336563   8.983   4.301   9.455
 8311POPC   PO436564   8.991   4.339   9.155
 8311POPC   GL136565   8.961   4.299   8.855
 8311POPC   GL236566   8.857   4.221   8.855
 8311POPC   C1A36567   8.946   4.301   8.555
 8311POPC   D2A36568   8.937   4.272   8.255
 8311POPC   C3A36569   8.973   4.308   7.955
 8311POPC   C4A36570   8.972   4.298   7.655
 8311POPC   C1B36571   8.709   4.209   8.555
 8311POPC   C2B36572   8.700   4.221   8.255
 8311POPC   C3B36573   8.710   4.182   7.955
 8311POPC   C4B36574   8.789   4.226   7.655
 8312POPC   NC336575  11.272  35.350   9.455
 8312POPC   PO436576  11.279  35.392   9.155
 8312POPC   GL136577  11.348  35.304   8.855
 8312POPC   GL236578  11.458  35.394   8.855
 8312POPC   C1A36579  11.330  35.367   8.555
 8312POPC   D2A36580  11.334  35.393   8.255
 8312POPC   C3A36581  11.262  35.374   7.955
 8312POPC   C4A36582  11.345  35.384   7.655
 8312POPC   C1B36583  11.576  35.345   8.555
 8312POPC   C2B36584  11.534  35.365   8.255
 8312POPC   C3B36585  11.567  35.328   7.955
 8312POPC   C4B36586  11.537  35.315   7.655
 8313POPC   NC336587  42.314  35.391   9.455
 8313POPC   PO436588  42.373  35.371   9.155
 8313POPC   GL136589  42.340  35.348   8.855
 8313POPC   GL236590  42.457  35.463   8.855
 8313POPC   C1A36591  42.307  35.315   8.555
 8313POPC   D2A36592  42.311  35.304   8.255
 8313POPC   C3A36593  42.323  35.393   7.955
 8313POPC   C4A36594  42.309  35.378   7.655
 8313POPC   C1B36595  42.588  35.462   8.555
 8313POPC   C2B36596  42.565  35.494   8.255
 8313POPC   C3B36597  42.574  35.485   7.955
 8313POPC   C4B36598  42.533  35.461   7.655
 8314POPC   NC336599  11.336  25.220   9.455
 8314POPC   PO436600  11.312  25.272   9.155
 8314POPC   GL136601  11.259  25.278   8.855
 8314POPC   GL236602  11.331  25.359   8.855
 8314POPC   C1A36603  11.301  25.308   8.555
 8314POPC   D2A36604  11.261  25.269   8.255
 8314POPC   C3A36605  11.255  25.248   7.955
 8314POPC   C4A36606  11.271  25.299   7.655
 8314POPC   C1B36607  11.461  25.497   8.555
 8314POPC   C2B36608  11.471  25.482   8.255
 8314POPC   C3B36609  11.404  25.479   7.955
 8314POPC   C4B36610  11.423  25.452   7.655
 8315POPC   NC336611  30.707  18.294   9.455
 8315POPC   PO436612  30.733  18.238   9.155
 8315POPC   GL136613  30.667  18.289   8.855
 8315POPC   GL236614  30.529  18.241   8.855
 8315POPC   C1A36615  30.735  18.247   8.555
 8315POPC   D2A36616  30.689  18.280   8.255
 8315POPC   C3A36617  30.652  18.262   7.955
 8315POPC   C4A36618  30.675  18.287   7.655
 8315POPC   C1B36619  30.432  18.235   8.555
 8315POPC   C2B36620  30.418  18.233   8.255
 8315POPC   C3B36621  30.411  18.191   7.955
 8315POPC   C4B36622  30.441  18.218   7.655
 8316POPC   NC336623  12.897  34.589   9.455
 8316POPC   PO436624  12.812  34.623   9.155
 8316POPC   GL136625  12.844  34.574   8.855
 8316POPC   GL236626  12.777  34.471   8.855
 8316POPC   C1A36627  12.845  34.608   8.555
 8316POPC   D2A36628  12.811  34.593   8.255
 8316POPC   C3A36629  12.860  34.571   7.955
 8316POPC   C4A36630  12.808  34.581   7.655
 8316POPC   C1B36631  12.738  34.397   8.555
 8316POPC   C2B36632  12.720  34.372   8.255
 8316POPC   C3B36633  12.714  34.349   7.955
 8316POPC   C4B36634  12.731  34.349   7.655
 8317POPC   NC336635  19.074  15.921   9.455
 8317POPC   PO436636  19.072  15.976   9.155
 8317POPC   GL136637  19.031  16.001   8.855
 8317POPC   GL236638  18.979  15.871   8.855
 8317POPC   C1A36639  19.026  15.927   8.555
 8317POPC   D2A36640  19.100  15.936   8.255
 8317POPC   C3A36641  19.067  15.949   7.955
 8317POPC   C4A36642  19.023  15.949   7.655
 8317POPC   C1B36643  18.878  15.812   8.555
 8317POPC   C2B36644  18.849  15.884   8.255
 8317POPC   C3B36645  18.823  15.870   7.955
 8317POPC   C4B36646  18.877  15.899   7.655
 8318POPC   NC336647   2.001  43.838   9.455
 8318POPC   PO436648   1.974  43.876   9.155
 8318POPC   GL136649   1.953  43.884   8.855
 8318POPC   GL236650   2.086  43.934   8.855
 8318POPC   C1A36651   2.020  43.930   8.555
 8318POPC   D2A36652   1.956  43.862   8.255
 8318POPC   C3A36653   1.982  43.840   7.955
 8318POPC   C4A36654   2.003  43.895   7.655
 8318POPC   C1B36655   2.109  44.070   8.555
 8318POPC   C2B36656   2.156  44.056   8.255
 8318POPC   C3B36657   2.147  44.094   7.955
 8318POPC   C4B36658   2.136  44.048   7.655
 8319POPC   NC336659   1.250  30.660   9.455
 8319POPC   PO436660   1.224  30.709   9.155
 8319POPC   GL136661   1.245  30.711   8.855
 8319POPC   GL236662   1.141  30.792   8.855
 8319POPC   C1A36663   1.252  30.703   8.555
 8319POPC   D2A36664   1.217  30.725   8.255
 8319POPC   C3A36665   1.192  30.689   7.955
 8319POPC   C4A36666   1.209  30.666   7.655
 8319POPC   C1B36667   1.139  30.906   8.555
 8319POPC   C2B36668   1.205  30.898   8.255
 8319POPC   C3B36669   1.167  30.932   7.955
 8319POPC   C4B36670   1.180  30.960   7.655
 8320POPC   NC336671  14.355  25.309   9.455
 8320POPC   PO436672  14.367  25.256   9.155
 8320POPC   GL136673  14.364  25.307   8.855
 8320POPC   GL236674  14.335  25.142   8.855
 8320POPC   C1A36675  14.406  25.227   8.555
 8320POPC   D2A36676  14.433  25.311   8.255
 8320POPC   C3A36677  14.437  25.252   7.955
 8320POPC   C4A36678  14.358  25.284   7.655
 8320POPC   C1B36679  14.328  25.018   8.555
 8320POPC   C2B36680  14.341  25.055   8.255
 8320POPC   C3B36681  14.352  25.059   7.955
 8320POPC   C4B36682  14.335  25.071   7.655
 8321POPC   NC336683   4.285  36.170   9.455
 8321POPC   PO436684   4.297  36.143   9.155
 8321POPC   GL136685   4.327  36.143   8.855
 8321POPC   GL236686   4.237  36.236   8.855
 8321POPC   C1A36687   4.362  36.118   8.555
 8321POPC   D2A36688   4.275  36.080   8.255
 8321POPC   C3A36689   4.274  36.177   7.955
 8321POPC   C4A36690   4.270  36.131   7.655
 8321POPC   C1B36691   4.209  36.380   8.555
 8321POPC   C2B36692   4.212  36.350   8.255
 8321POPC   C3B36693   4.151  36.304   7.955
 8321POPC   C4B36694   4.198  36.349   7.655
 8322POPC   NC336695  12.062   4.295   9.455
 8322POPC   PO436696  12.037   4.297   9.155
 8322POPC   GL136697  12.032   4.302   8.855
 8322POPC   GL236698  11.984   4.390   8.855
 8322POPC   C1A36699  12.082   4.328   8.555
 8322POPC   D2A36700  12.117   4.309   8.255
 8322POPC   C3A36701  12.103   4.288   7.955
 8322POPC   C4A36702  12.053   4.279   7.655
 8322POPC   C1B36703  11.859   4.444   8.555
 8322POPC   C2B36704  11.887   4.468   8.255
 8322POPC   C3B36705  11.823   4.479   7.955
 8322POPC   C4B36706  11.899   4.426   7.655
 8323POPC   NC336707  38.477  29.106   9.455
 8323POPC   PO436708  38.480  29.151   9.155
 8323POPC   GL136709  38.495  29.146   8.855
 8323POPC   GL236710  38.618  29.166   8.855
 8323POPC   C1A36711  38.484  29.107   8.555
 8323POPC   D2A36712  38.441  29.193   8.255
 8323POPC   C3A36713  38.483  29.170   7.955
 8323POPC   C4A36714  38.492  29.165   7.655
 8323POPC   C1B36715  38.681  29.203   8.555
 8323POPC   C2B36716  38.751  29.188   8.255
 8323POPC   C3B36717  38.661  29.202   7.955
 8323POPC   C4B36718  38.713  29.126   7.655
 8324POPC   NC336719   5.867  42.360   9.455
 8324POPC   PO436720   5.849  42.304   9.155
 8324POPC   GL136721   5.893  42.291   8.855
 8324POPC   GL236722   5.961  42.280   8.855
 8324POPC   C1A36723   5.904  42.381   8.555
 8324POPC   D2A36724   5.900  42.310   8.255
 8324POPC   C3A36725   5.881  42.374   7.955
 8324POPC   C4A36726   5.841  42.345   7.655
 8324POPC   C1B36727   6.082  42.186   8.555
 8324POPC   C2B36728   6.084  42.172   8.255
 8324POPC   C3B36729   6.100  42.216   7.955
 8324POPC   C4B36730   6.040  42.181   7.655
 8325POPC   NC336731  27.610  28.418   9.455
 8325POPC   PO436732  27.629  28.414   9.155
 8325POPC   GL136733  27.590  28.343   8.855
 8325POPC   GL236734  27.494  28.308   8.855
 8325POPC   C1A36735  27.572  28.375   8.555
 8325POPC   D2A36736  27.597  28.334   8.255
 8325POPC   C3A36737  27.632  28.349   7.955
 8325POPC   C4A36738  27.583  28.352   7.655
 8325POPC   C1B36739  27.315  28.314   8.555
 8325POPC   C2B36740  27.381  28.318   8.255
 8325POPC   C3B36741  27.385  28.329   7.955
 8325POPC   C4B36742  27.318  28.304   7.655
 8326POPC   NC336743  33.758  40.805   9.455
 8326POPC   PO436744  33.755  40.791   9.155
 8326POPC   GL136745  33.771  40.799   8.855
 8326POPC   GL236746  33.897  40.910   8.855
 8326POPC   C1A36747  33.783  40.817   8.555
 8326POPC   D2A36748  33.846  40.826   8.255
 8326POPC   C3A36749  33.781  40.761   7.955
 8326POPC   C4A36750  33.773  40.758   7.655
 8326POPC   C1B36751  33.947  40.942   8.555
 8326POPC   C2B36752  33.985  40.987   8.255
 8326POPC   C3B36753  33.997  40.903   7.955
 8326POPC   C4B36754  33.946  40.976   7.655
 8327POPC   NC336755   4.307  19.806   9.455
 8327POPC   PO436756   4.274  19.789   9.155
 8327POPC   GL136757   4.291  19.811   8.855
 8327POPC   GL236758   4.464  19.936   8.855
 8327POPC   C1A36759   4.345  19.877   8.555
 8327POPC   D2A36760   4.273  19.817   8.255
 8327POPC   C3A36761   4.341  19.832   7.955
 8327POPC   C4A36762   4.316  19.797   7.655
 8327POPC   C1B36763   4.561  19.961   8.555
 8327POPC   C2B36764   4.543  19.943   8.255
 8327POPC   C3B36765   4.522  19.978   7.955
 8327POPC   C4B36766   4.498  19.965   7.655
 8328POPC   NC336767  43.116  20.627   9.455
 8328POPC   PO436768  43.062  20.609   9.155
 8328POPC   GL136769  43.130  20.625   8.855
 8328POPC   GL236770  43.025  20.660   8.855
 8328POPC   C1A36771  43.089  20.639   8.555
 8328POPC   D2A36772  43.129  20.640   8.255
 8328POPC   C3A36773  43.080  20.646   7.955
 8328POPC   C4A36774  43.150  20.609   7.655
 8328POPC   C1B36775  42.844  20.764   8.555
 8328POPC   C2B36776  42.857  20.693   8.255
 8328POPC   C3B36777  42.878  20.784   7.955
 8328POPC   C4B36778  42.867  20.721   7.655
 8329POPC   NC336779  29.100   3.572   9.455
 8329POPC   PO436780  29.102   3.507   9.155
 8329POPC   GL136781  29.144   3.524   8.855
 8329POPC   GL236782  29.095   3.513   8.855
 8329POPC   C1A36783  29.151   3.540   8.555
 8329POPC   D2A36784  29.125   3.586   8.255
 8329POPC   C3A36785  29.139   3.526   7.955
 8329POPC   C4A36786  29.161   3.560   7.655
 8329POPC   C1B36787  28.915   3.421   8.555
 8329POPC   C2B36788  28.934   3.407   8.255
 8329POPC   C3B36789  28.962   3.364   7.955
 8329POPC   C4B36790  28.915   3.422   7.655
 8330POPC   NC336791  40.016  22.191   9.455
 8330POPC   PO436792  40.041  22.153   9.155
 8330POPC   GL136793  39.985  22.149   8.855
 8330POPC   GL236794  40.049  22.044   8.855
 8330POPC   C1A36795  40.041  22.195   8.555
 8330POPC   D2A36796  40.013  22.183   8.255
 8330POPC   C3A36797  40.029  22.195   7.955
 8330POPC   C4A36798  39.999  22.152   7.655
 8330POPC   C1B36799  40.187  21.919   8.555
 8330POPC   C2B36800  40.174  21.968   8.255
 8330POPC   C3B36801  40.132  21.916   7.955
 8330POPC   C4B36802  40.166  22.007   7.655
 8331POPC   NC336803  19.869  12.865   9.455
 8331POPC   PO436804  19.817  12.830   9.155
 8331POPC   GL136805  19.808  12.809   8.855
 8331POPC   GL236806  19.832  13.010   8.855
 8331POPC   C1A36807  19.878  12.878   8.555
 8331POPC   D2A36808  19.799  12.850   8.255
 8331POPC   C3A36809  19.810  12.882   7.955
 8331POPC   C4A36810  19.822  12.900   7.655
 8331POPC   C1B36811  19.896  13.091   8.555
 8331POPC   C2B36812  19.881  13.067   8.255
 8331POPC   C3B36813  19.863  13.142   7.955
 8331POPC   C4B36814  19.863  13.131   7.655
 8332POPC   NC336815  26.027  14.399   9.455
 8332POPC   PO436816  26.072  14.378   9.155
 8332POPC   GL136817  25.994  14.447   8.855
 8332POPC   GL236818  26.104  14.514   8.855
 8332POPC   C1A36819  26.073  14.430   8.555
 8332POPC   D2A36820  26.014  14.405   8.255
 8332POPC   C3A36821  26.040  14.367   7.955
 8332POPC   C4A36822  26.037  14.409   7.655
 8332POPC   C1B36823  26.101  14.672   8.555
 8332POPC   C2B36824  26.026  14.657   8.255
 8332POPC   C3B36825  26.098  14.698   7.955
 8332POPC   C4B36826  26.096  14.605   7.655
 8333POPC   NC336827  19.845  29.960   9.455
 8333POPC   PO436828  19.810  29.899   9.155
 8333POPC   GL136829  19.800  29.970   8.855
 8333POPC   GL236830  19.989  29.843   8.855
 8333POPC   C1A36831  19.812  29.892   8.555
 8333POPC   D2A36832  19.828  29.918   8.255
 8333POPC   C3A36833  19.811  29.963   7.955
 8333POPC   C4A36834  19.795  29.886   7.655
 8333POPC   C1B36835  20.083  29.896   8.555
 8333POPC   C2B36836  20.122  29.880   8.255
 8333POPC   C3B36837  20.111  29.892   7.955
 8333POPC   C4B36838  20.107  29.875   7.655
 8334POPC   NC336839  20.568   0.485   9.455
 8334POPC   PO436840  20.591   0.392   9.155
 8334POPC   GL136841  20.660   0.429   8.855
 8334POPC   GL236842  20.608   0.600   8.855
 8334POPC   C1A36843  20.603   0.478   8.555
 8334POPC   D2A36844  20.615   0.444   8.255
 8334POPC   C3A36845  20.571   0.422   7.955
 8334POPC   C4A36846  20.622   0.413   7.655
 8334POPC   C1B36847  20.688   0.697   8.555
 8334POPC   C2B36848  20.709   0.705   8.255
 8334POPC   C3B36849  20.672   0.674   7.955
 8334POPC   C4B36850  20.707   0.703   7.655
 8335POPC   NC336851  37.697  31.461   9.455
 8335POPC   PO436852  37.677  31.449   9.155
 8335POPC   GL136853  37.645  31.484   8.855
 8335POPC   GL236854  37.813  31.528   8.855
 8335POPC   C1A36855  37.686  31.472   8.555
 8335POPC   D2A36856  37.683  31.513   8.255
 8335POPC   C3A36857  37.686  31.509   7.955
 8335POPC   C4A36858  37.665  31.497   7.655
 8335POPC   C1B36859  37.896  31.475   8.555
 8335POPC   C2B36860  37.958  31.517   8.255
 8335POPC   C3B36861  37.909  31.493   7.955
 8335POPC   C4B36862  37.973  31.509   7.655
 8336POPC   NC336863  22.122   5.087   9.455
 8336POPC   PO436864  22.158   5.053   9.155
 8336POPC   GL136865  22.160   5.073   8.855
 8336POPC   GL236866  22.298   5.048   8.855
 8336POPC   C1A36867  22.175   5.112   8.555
 8336POPC   D2A36868  22.201   5.097   8.255
 8336POPC   C3A36869  22.160   5.079   7.955
 8336POPC   C4A36870  22.199   5.122   7.655
 8336POPC   C1B36871  22.354   4.935   8.555
 8336POPC   C2B36872  22.393   4.987   8.255
 8336POPC   C3B36873  22.365   4.990   7.955
 8336POPC   C4B36874  22.362   4.933   7.655
 8337POPC   NC336875  15.205   9.791   9.455
 8337POPC   PO436876  15.169   9.724   9.155
 8337POPC   GL136877  15.149   9.775   8.855
 8337POPC   GL236878  15.247   9.832   8.855
 8337POPC   C1A36879  15.130   9.785   8.555
 8337POPC   D2A36880  15.181   9.761   8.255
 8337POPC   C3A36881  15.191   9.786   7.955
 8337POPC   C4A36882  15.220   9.723   7.655
 8337POPC   C1B36883  15.236   9.980   8.555
 8337POPC   C2B36884  15.271   9.944   8.255
 8337POPC   C3B36885  15.315   9.937   7.955
 8337POPC   C4B36886  15.314   9.959   7.655
 8338POPC   NC336887  15.993  28.385   9.455
 8338POPC   PO436888  15.906  28.374   9.155
 8338POPC   GL136889  15.935  28.339   8.855
 8338POPC   GL236890  15.808  28.285   8.855
 8338POPC   C1A36891  15.944  28.337   8.555
 8338POPC   D2A36892  15.908  28.335   8.255
 8338POPC   C3A36893  15.989  28.358   7.955
 8338POPC   C4A36894  15.969  28.373   7.655
 8338POPC   C1B36895  15.692  28.205   8.555
 8338POPC   C2B36896  15.720  28.290   8.255
 8338POPC   C3B36897  15.695  28.271   7.955
 8338POPC   C4B36898  15.748  28.218   7.655
 8339POPC   NC336899  43.152   7.455   9.455
 8339POPC   PO436900  43.071   7.392   9.155
 8339POPC   GL136901  43.155   7.376   8.855
 8339POPC   GL236902  43.229   7.317   8.855
 8339POPC   C1A36903  43.077   7.425   8.555
 8339POPC   D2A36904  43.137   7.416   8.255
 8339POPC   C3A36905  43.144   7.374   7.955
 8339POPC   C4A36906  43.082   7.405   7.655
 8339POPC   C1B36907  43.267   7.230   8.555
 8339POPC   C2B36908  43.337   7.269   8.255
 8339POPC   C3B36909  43.338   7.247   7.955
 8339POPC   C4B36910  43.290   7.278   7.655
 8340POPC   NC336911   6.644  22.945   9.455
 8340POPC   PO436912   6.630  22.983   9.155
 8340POPC   GL136913   6.685  22.929   8.855
 8340POPC   GL236914   6.543  22.930   8.855
 8340POPC   C1A36915   6.692  22.932   8.555
 8340POPC   D2A36916   6.677  22.909   8.255
 8340POPC   C3A36917   6.682  22.962   7.955
 8340POPC   C4A36918   6.679  22.933   7.655
 8340POPC   C1B36919   6.389  22.954   8.555
 8340POPC   C2B36920   6.350  22.962   8.255
 8340POPC   C3B36921   6.404  22.916   7.955
 8340POPC   C4B36922   6.413  22.928   7.655
 8341POPC   NC336923  17.470  42.327   9.455
 8341POPC   PO436924  17.473  42.349   9.155
 8341POPC   GL136925  17.469  42.363   8.855
 8341POPC   GL236926  17.676  42.266   8.855
 8341POPC   C1A36927  17.546  42.305   8.555
 8341POPC   D2A36928  17.492  42.308   8.255
 8341POPC   C3A36929  17.505  42.341   7.955
 8341POPC   C4A36930  17.462  42.297   7.655
 8341POPC   C1B36931  17.735  42.298   8.555
 8341POPC   C2B36932  17.738  42.226   8.255
 8341POPC   C3B36933  17.720  42.277   7.955
 8341POPC   C4B36934  17.707  42.244   7.655
 8342POPC   NC336935  19.019  26.812   9.455
 8342POPC   PO436936  19.058  26.826   9.155
 8342POPC   GL136937  19.090  26.818   8.855
 8342POPC   GL236938  18.978  26.812   8.855
 8342POPC   C1A36939  19.049  26.838   8.555
 8342POPC   D2A36940  19.046  26.809   8.255
 8342POPC   C3A36941  19.071  26.773   7.955
 8342POPC   C4A36942  19.099  26.780   7.655
 8342POPC   C1B36943  18.765  26.827   8.555
 8342POPC   C2B36944  18.852  26.760   8.255
 8342POPC   C3B36945  18.839  26.776   7.955
 8342POPC   C4B36946  18.846  26.839   7.655
 8343POPC   NC336947  19.851   2.765   9.455
 8343POPC   PO436948  19.820   2.789   9.155
 8343POPC   GL136949  19.875   2.806   8.855
 8343POPC   GL236950  19.728   2.862   8.855
 8343POPC   C1A36951  19.873   2.777   8.555
 8343POPC   D2A36952  19.816   2.755   8.255
 8343POPC   C3A36953  19.855   2.799   7.955
 8343POPC   C4A36954  19.794   2.737   7.655
 8343POPC   C1B36955  19.606   2.833   8.555
 8343POPC   C2B36956  19.591   2.883   8.255
 8343POPC   C3B36957  19.606   2.829   7.955
 8343POPC   C4B36958  19.606   2.870   7.655
 8344POPC   NC336959  19.099  29.123   9.455
 8344POPC   PO436960  19.104  29.169   9.155
 8344POPC   GL136961  19.065  29.102   8.855
 8344POPC   GL236962  19.169  29.164   8.855
 8344POPC   C1A36963  19.094  29.139   8.555
 8344POPC   D2A36964  19.081  29.121   8.255
 8344POPC   C3A36965  19.071  29.160   7.955
 8344POPC   C4A36966  19.027  29.133   7.655
 8344POPC   C1B36967  19.312  29.176   8.555
 8344POPC   C2B36968  19.301  29.219   8.255
 8344POPC   C3B36969  19.261  29.132   7.955
 8344POPC   C4B36970  19.303  29.210   7.655
 8345POPC   NC336971  18.262  22.188   9.455
 8345POPC   PO436972  18.253  22.159   9.155
 8345POPC   GL136973  18.282  22.144   8.855
 8345POPC   GL236974  18.208  22.307   8.855
 8345POPC   C1A36975  18.250  22.160   8.555
 8345POPC   D2A36976  18.331  22.205   8.255
 8345POPC   C3A36977  18.242  22.147   7.955
 8345POPC   C4A36978  18.279  22.125   7.655
 8345POPC   C1B36979  18.140  22.391   8.555
 8345POPC   C2B36980  18.156  22.359   8.255
 8345POPC   C3B36981  18.099  22.391   7.955
 8345POPC   C4B36982  18.108  22.376   7.655
 8346POPC   NC336983  29.164  39.991   9.455
 8346POPC   PO436984  29.108  39.984   9.155
 8346POPC   GL136985  29.134  40.010   8.855
 8346POPC   GL236986  29.167  39.847   8.855
 8346POPC   C1A36987  29.117  39.989   8.555
 8346POPC   D2A36988  29.121  40.032   8.255
 8346POPC   C3A36989  29.109  40.032   7.955
 8346POPC   C4A36990  29.171  39.965   7.655
 8346POPC   C1B36991  29.165  39.754   8.555
 8346POPC   C2B36992  29.211  39.720   8.255
 8346POPC   C3B36993  29.191  39.740   7.955
 8346POPC   C4B36994  29.235  39.789   7.655
 8347POPC   NC336995  38.474  43.122   9.455
 8347POPC   PO436996  38.446  43.090   9.155
 8347POPC   GL136997  38.433  43.103   8.855
 8347POPC   GL236998  38.544  43.068   8.855
 8347POPC   C1A36999  38.498  43.096   8.555
 8347POPC   D2A37000  38.416  43.101   8.255
 8347POPC   C3A37001  38.416  43.106   7.955
 8347POPC   C4A37002  38.440  43.153   7.655
 8347POPC   C1B37003  38.660  43.157   8.555
 8347POPC   C2B37004  38.692  43.124   8.255
 8347POPC   C3B37005  38.738  43.106   7.955
 8347POPC   C4B37006  38.700  43.123   7.655
 8348POPC   NC337007  18.249  29.878   9.455
 8348POPC   PO437008  18.293  29.942   9.155
 8348POPC   GL137009  18.324  29.956   8.855
 8348POPC   GL237010  18.341  30.026   8.855
 8348POPC   C1A37011  18.317  29.896   8.555
 8348POPC   D2A37012  18.307  29.925   8.255
 8348POPC   C3A37013  18.237  29.929   7.955
 8348POPC   C4A37014  18.320  29.894   7.655
 8348POPC   C1B37015  18.386  30.178   8.555
 8348POPC   C2B37016  18.353  30.189   8.255
 8348POPC   C3B37017  18.318  30.127   7.955
 8348POPC   C4B37018  18.388  30.121   7.655
 8349POPC   NC337019   1.219  22.201   9.455
 8349POPC   PO437020   1.190  22.185   9.155
 8349POPC   GL137021   1.193  22.165   8.855
 8349POPC   GL237022   1.343  22.157   8.855
 8349POPC   C1A37023   1.177  22.179   8.555
 8349POPC   D2A37024   1.253  22.183   8.255
 8349POPC   C3A37025   1.249  22.191   7.955
 8349POPC   C4A37026   1.218  22.120   7.655
 8349POPC   C1B37027   1.415  22.121   8.555
 8349POPC   C2B37028   1.503  22.119   8.255
 8349POPC   C3B37029   1.462  22.141   7.955
 8349POPC   C4B37030   1.440  22.141   7.655
 8350POPC   NC337031   3.580  28.391   9.455
 8350POPC   PO437032   3.497  28.377   9.155
 8350POPC   GL137033   3.567  28.407   8.855
 8350POPC   GL237034   3.638  28.237   8.855
 8350POPC   C1A37035   3.549  28.391   8.555
 8350POPC   D2A37036   3.530  28.364   8.255
 8350POPC   C3A37037   3.496  28.339   7.955
 8350POPC   C4A37038   3.543  28.355   7.655
 8350POPC   C1B37039   3.683  28.186   8.555
 8350POPC   C2B37040   3.713  28.169   8.255
 8350POPC   C3B37041   3.744  28.206   7.955
 8350POPC   C4B37042   3.736  28.214   7.655
 8351POPC   NC337043   1.210  36.862   9.455
 8351POPC   PO437044   1.233  36.868   9.155
 8351POPC   GL137045   1.259  36.877   8.855
 8351POPC   GL237046   1.087  37.001   8.855
 8351POPC   C1A37047   1.199  36.870   8.555
 8351POPC   D2A37048   1.175  36.911   8.255
 8351POPC   C3A37049   1.239  36.952   7.955
 8351POPC   C4A37050   1.166  36.913   7.655
 8351POPC   C1B37051   1.025  37.035   8.555
 8351POPC   C2B37052   1.047  37.056   8.255
 8351POPC   C3B37053   1.046  37.049   7.955
 8351POPC   C4B37054   1.023  37.077   7.655
 8352POPC   NC337055  39.984  26.054   9.455
 8352POPC   PO437056  40.046  26.036   9.155
 8352POPC   GL137057  40.046  26.025   8.855
 8352POPC   GL237058  39.926  26.126   8.855
 8352POPC   C1A37059  40.024  26.052   8.555
 8352POPC   D2A37060  40.007  26.020   8.255
 8352POPC   C3A37061  40.016  26.047   7.955
 8352POPC   C4A37062  39.966  26.002   7.655
 8352POPC   C1B37063  39.796  26.192   8.555
 8352POPC   C2B37064  39.803  26.166   8.255
 8352POPC   C3B37065  39.807  26.183   7.955
 8352POPC   C4B37066  39.798  26.135   7.655
 8353POPC   NC337067  13.612  35.366   9.455
 8353POPC   PO437068  13.600  35.302   9.155
 8353POPC   GL137069  13.621  35.326   8.855
 8353POPC   GL237070  13.673  35.457   8.855
 8353POPC   C1A37071  13.668  35.397   8.555
 8353POPC   D2A37072  13.633  35.317   8.255
 8353POPC   C3A37073  13.583  35.327   7.955
 8353POPC   C4A37074  13.608  35.367   7.655
 8353POPC   C1B37075  13.802  35.564   8.555
 8353POPC   C2B37076  13.821  35.529   8.255
 8353POPC   C3B37077  13.763  35.495   7.955
 8353POPC   C4B37078  13.817  35.483   7.655
 8354POPC   NC337079  30.687   9.750   9.455
 8354POPC   PO437080  30.706   9.757   9.155
 8354POPC   GL137081  30.684   9.774   8.855
 8354POPC   GL237082  30.853   9.764   8.855
 8354POPC   C1A37083  30.689   9.781   8.555
 8354POPC   D2A37084  30.678   9.778   8.255
 8354POPC   C3A37085  30.657   9.730   7.955
 8354POPC   C4A37086  30.722   9.765   7.655
 8354POPC   C1B37087  30.988   9.734   8.555
 8354POPC   C2B37088  30.896   9.712   8.255
 8354POPC   C3B37089  30.972   9.691   7.955
 8354POPC   C4B37090  30.948   9.650   7.655
 8355POPC   NC337091  10.512   1.204   9.455
 8355POPC   PO437092  10.552   1.234   9.155
 8355POPC   GL137093  10.549   1.177   8.855
 8355POPC   GL237094  10.576   1.085   8.855
 8355POPC   C1A37095  10.521   1.202   8.555
 8355POPC   D2A37096  10.478   1.250   8.255
 8355POPC   C3A37097  10.522   1.259   7.955
 8355POPC   C4A37098  10.522   1.263   7.655
 8355POPC   C1B37099  10.681   1.043   8.555
 8355POPC   C2B37100  10.689   1.021   8.255
 8355POPC   C3B37101  10.660   0.990   7.955
 8355POPC   C4B37102  10.708   1.027   7.655
 8356POPC   NC337103  18.326  12.877   9.455
 8356POPC   PO437104  18.253  12.867   9.155
 8356POPC   GL137105  18.267  12.818   8.855
 8356POPC   GL237106  18.340  12.796   8.855
 8356POPC   C1A37107  18.237  12.881   8.555
 8356POPC   D2A37108  18.292  12.818   8.255
 8356POPC   C3A37109  18.318  12.805   7.955
 8356POPC   C4A37110  18.270  12.857   7.655
 8356POPC   C1B37111  18.419  12.647   8.555
 8356POPC   C2B37112  18.468  12.698   8.255
 8356POPC   C3B37113  18.514  12.719   7.955
 8356POPC   C4B37114  18.422  12.702   7.655
 8357POPC   NC337115  34.532  28.331   9.455
 8357POPC   PO437116  34.583  28.333   9.155
 8357POPC   GL137117  34.555  28.381   8.855
 8357POPC   GL237118  34.486  28.521   8.855
 8357POPC   C1A37119  34.548  28.334   8.555
 8357POPC   D2A37120  34.552  28.337   8.255
 8357POPC   C3A37121  34.605  28.354   7.955
 8357POPC   C4A37122  34.605  28.409   7.655
 8357POPC   C1B37123  34.435  28.572   8.555
 8357POPC   C2B37124  34.498  28.569   8.255
 8357POPC   C3B37125  34.411  28.627   7.955
 8357POPC   C4B37126  34.460  28.556   7.655
 8358POPC   NC337127  22.891  14.423   9.455
 8358POPC   PO437128  22.918  14.372   9.155
 8358POPC   GL137129  22.939  14.355   8.855
 8358POPC   GL237130  22.838  14.390   8.855
 8358POPC   C1A37131  22.907  14.364   8.555
 8358POPC   D2A37132  22.965  14.398   8.255
 8358POPC   C3A37133  22.964  14.356   7.955
 8358POPC   C4A37134  22.911  14.416   7.655
 8358POPC   C1B37135  22.671  14.436   8.555
 8358POPC   C2B37136  22.640  14.398   8.255
 8358POPC   C3B37137  22.719  14.414   7.955
 8358POPC   C4B37138  22.727  14.345   7.655
 8359POPC   NC337139  40.770  19.787   9.455
 8359POPC   PO437140  40.774  19.797   9.155
 8359POPC   GL137141  40.757  19.833   8.855
 8359POPC   GL237142  40.714  19.721   8.855
 8359POPC   C1A37143  40.790  19.874   8.555
 8359POPC   D2A37144  40.780  19.818   8.255
 8359POPC   C3A37145  40.788  19.874   7.955
 8359POPC   C4A37146  40.786  19.866   7.655
 8359POPC   C1B37147  40.543  19.677   8.555
 8359POPC   C2B37148  40.544  19.727   8.255
 8359POPC   C3B37149  40.559  19.683   7.955
 8359POPC   C4B37150  40.591  19.694   7.655
 8360POPC   NC337151  29.192   1.961   9.455
 8360POPC   PO437152  29.194   1.986   9.155
 8360POPC   GL137153  29.110   2.024   8.855
 8360POPC   GL237154  29.157   1.880   8.855
 8360POPC   C1A37155  29.103   1.984   8.555
 8360POPC   D2A37156  29.170   2.033   8.255
 8360POPC   C3A37157  29.177   1.995   7.955
 8360POPC   C4A37158  29.165   1.998   7.655
 8360POPC   C1B37159  29.066   1.761   8.555
 8360POPC   C2B37160  29.047   1.769   8.255
 8360POPC   C3B37161  29.030   1.756   7.955
 8360POPC   C4B37162  29.101   1.791   7.655
 8361POPC   NC337163  20.648  43.907   9.455
 8361POPC   PO437164  20.630  43.865   9.155
 8361POPC   GL137165  20.659  43.841   8.855
 8361POPC   GL237166  20.541  43.768   8.855
 8361POPC   C1A37167  20.635  43.839   8.555
 8361POPC   D2A37168  20.567  43.914   8.255
 8361POPC   C3A37169  20.651  43.861   7.955
 8361POPC   C4A37170  20.655  43.842   7.655
 8361POPC   C1B37171  20.502  43.708   8.555
 8361POPC   C2B37172  20.468  43.675   8.255
 8361POPC   C3B37173  20.480  43.725   7.955
 8361POPC   C4B37174  20.499  43.667   7.655
 8362POPC   NC337175   7.434  10.556   9.455
 8362POPC   PO437176   7.380  10.562   9.155
 8362POPC   GL137177   7.420  10.500   8.855
 8362POPC   GL237178   7.505  10.664   8.855
 8362POPC   C1A37179   7.409  10.514   8.555
 8362POPC   D2A37180   7.463  10.565   8.255
 8362POPC   C3A37181   7.416  10.557   7.955
 8362POPC   C4A37182   7.438  10.519   7.655
 8362POPC   C1B37183   7.520  10.748   8.555
 8362POPC   C2B37184   7.593  10.735   8.255
 8362POPC   C3B37185   7.564  10.718   7.955
 8362POPC   C4B37186   7.552  10.707   7.655
 8363POPC   NC337187   2.793  44.706   9.455
 8363POPC   PO437188   2.727  44.615   9.155
 8363POPC   GL137189   2.761  44.632   8.855
 8363POPC   GL237190   2.849  44.747   8.855
 8363POPC   C1A37191   2.733  44.674   8.555
 8363POPC   D2A37192   2.739  44.637   8.255
 8363POPC   C3A37193   2.787  44.635   7.955
 8363POPC   C4A37194   2.769  44.644   7.655
 8363POPC   C1B37195   2.998  44.782   8.555
 8363POPC   C2B37196   2.962  44.769   8.255
 8363POPC   C3B37197   3.038  44.809   7.955
 8363POPC   C4B37198   3.018  44.784   7.655
 8364POPC   NC337199  21.423  32.976   9.455
 8364POPC   PO437200  21.395  32.975   9.155
 8364POPC   GL137201  21.405  33.048   8.855
 8364POPC   GL237202  21.223  33.054   8.855
 8364POPC   C1A37203  21.351  33.070   8.555
 8364POPC   D2A37204  21.369  33.063   8.255
 8364POPC   C3A37205  21.383  32.992   7.955
 8364POPC   C4A37206  21.393  33.018   7.655
 8364POPC   C1B37207  21.101  33.090   8.555
 8364POPC   C2B37208  21.099  33.007   8.255
 8364POPC   C3B37209  21.139  33.089   7.955
 8364POPC   C4B37210  21.131  33.091   7.655
 8365POPC   NC337211   1.976  36.154   9.455
 8365POPC   PO437212   2.027  36.112   9.155
 8365POPC   GL137213   1.976  36.100   8.855
 8365POPC   GL237214   2.028  35.982   8.855
 8365POPC   C1A37215   1.996  36.117   8.555
 8365POPC   D2A37216   1.962  36.147   8.255
 8365POPC   C3A37217   2.000  36.124   7.955
 8365POPC   C4A37218   2.018  36.169   7.655
 8365POPC   C1B37219   2.113  35.918   8.555
 8365POPC   C2B37220   2.105  35.931   8.255
 8365POPC   C3B37221   2.142  35.904   7.955
 8365POPC   C4B37222   2.168  35.904   7.655
 8366POPC   NC337223   8.929  43.159   9.455
 8366POPC   PO437224   9.009  43.094   9.155
 8366POPC   GL137225   8.994  43.115   8.855
 8366POPC   GL237226   8.949  43.224   8.855
 8366POPC   C1A37227   8.974  43.079   8.555
 8366POPC   D2A37228   9.015  43.159   8.255
 8366POPC   C3A37229   8.948  43.115   7.955
 8366POPC   C4A37230   8.969  43.082   7.655
 8366POPC   C1B37231   8.881  43.309   8.555
 8366POPC   C2B37232   8.934  43.349   8.255
 8366POPC   C3B37233   8.857  43.311   7.955
 8366POPC   C4B37234   8.935  43.370   7.655
 8367POPC   NC337235  42.376  14.447   9.455
 8367POPC   PO437236  42.290  14.422   9.155
 8367POPC   GL137237  42.331  14.378   8.855
 8367POPC   GL237238  42.437  14.315   8.855
 8367POPC   C1A37239  42.384  14.407   8.555
 8367POPC   D2A37240  42.290  14.420   8.255
 8367POPC   C3A37241  42.299  14.453   7.955
 8367POPC   C4A37242  42.377  14.402   7.655
 8367POPC   C1B37243  42.530  14.260   8.555
 8367POPC   C2B37244  42.493  14.283   8.255
 8367POPC   C3B37245  42.558  14.269   7.955
 8367POPC   C4B37246  42.520  14.259   7.655
 8368POPC   NC337247  22.915  13.601   9.455
 8368POPC   PO437248  22.919  13.652   9.155
 8368POPC   GL137249  22.888  13.671   8.855
 8368POPC   GL237250  22.914  13.470   8.855
 8368POPC   C1A37251  22.926  13.648   8.555
 8368POPC   D2A37252  22.930  13.600   8.255
 8368POPC   C3A37253  22.977  13.628   7.955
 8368POPC   C4A37254  22.916  13.625   7.655
 8368POPC   C1B37255  22.847  13.341   8.555
 8368POPC   C2B37256  22.889  13.373   8.255
 8368POPC   C3B37257  22.916  13.388   7.955
 8368POPC   C4B37258  22.904  13.434   7.655
 8369POPC   NC337259   3.516   3.502   9.455
 8369POPC   PO437260   3.499   3.499   9.155
 8369POPC   GL137261   3.574   3.526   8.855
 8369POPC   GL237262   3.521   3.659   8.855
 8369POPC   C1A37263   3.509   3.492   8.555
 8369POPC   D2A37264   3.503   3.519   8.255
 8369POPC   C3A37265   3.575   3.537   7.955
 8369POPC   C4A37266   3.547   3.559   7.655
 8369POPC   C1B37267   3.417   3.721   8.555
 8369POPC   C2B37268   3.466   3.730   8.255
 8369POPC   C3B37269   3.418   3.766   7.955
 8369POPC   C4B37270   3.428   3.721   7.655
 8370POPC   NC337271  32.230  27.572   9.455
 8370POPC   PO437272  32.277  27.579   9.155
 8370POPC   GL137273  32.293  27.547   8.855
 8370POPC   GL237274  32.387  27.607   8.855
 8370POPC   C1A37275  32.258  27.553   8.555
 8370POPC   D2A37276  32.204  27.561   8.255
 8370POPC   C3A37277  32.248  27.568   7.955
 8370POPC   C4A37278  32.251  27.557   7.655
 8370POPC   C1B37279  32.481  27.621   8.555
 8370POPC   C2B37280  32.459  27.634   8.255
 8370POPC   C3B37281  32.534  27.574   7.955
 8370POPC   C4B37282  32.519  27.605   7.655
 8371POPC   NC337283  42.300  43.070   9.455
 8371POPC   PO437284  42.380  43.067   9.155
 8371POPC   GL137285  42.375  43.080   8.855
 8371POPC   GL237286  42.410  43.138   8.855
 8371POPC   C1A37287  42.285  43.123   8.555
 8371POPC   D2A37288  42.372  43.144   8.255
 8371POPC   C3A37289  42.347  43.131   7.955
 8371POPC   C4A37290  42.336  43.096   7.655
 8371POPC   C1B37291  42.508  43.249   8.555
 8371POPC   C2B37292  42.596  43.218   8.255
 8371POPC   C3B37293  42.554  43.233   7.955
 8371POPC   C4B37294  42.555  43.194   7.655
 8372POPC   NC337295  19.047  40.736   9.455
 8372POPC   PO437296  19.108  40.826   9.155
 8372POPC   GL137297  19.082  40.769   8.855
 8372POPC   GL237298  19.100  40.857   8.855
 8372POPC   C1A37299  19.097  40.812   8.555
 8372POPC   D2A37300  19.064  40.734   8.255
 8372POPC   C3A37301  19.018  40.784   7.955
 8372POPC   C4A37302  19.069  40.802   7.655
 8372POPC   C1B37303  19.254  40.953   8.555
 8372POPC   C2B37304  19.238  40.928   8.255
 8372POPC   C3B37305  19.194  40.919   7.955
 8372POPC   C4B37306  19.213  40.995   7.655
 8373POPC   NC337307  39.979  22.944   9.455
 8373POPC   PO437308  40.017  22.927   9.155
 8373POPC   GL137309  40.000  22.893   8.855
 8373POPC   GL237310  39.960  23.031   8.855
 8373POPC   C1A37311  39.997  22.900   8.555
 8373POPC   D2A37312  40.020  22.888   8.255
 8373POPC   C3A37313  39.986  22.928   7.955
 8373POPC   C4A37314  39.983  22.922   7.655
 8373POPC   C1B37315  39.913  23.175   8.555
 8373POPC   C2B37316  39.991  23.189   8.255
 8373POPC   C3B37317  39.920  23.164   7.955
 8373POPC   C4B37318  39.937  23.164   7.655
 8374POPC   NC337319  19.046   3.509   9.455
 8374POPC   PO437320  19.049   3.522   9.155
 8374POPC   GL137321  19.075   3.562   8.855
 8374POPC   GL237322  19.164   3.549   8.855
 8374POPC   C1A37323  19.019   3.494   8.555
 8374POPC   D2A37324  19.093   3.518   8.255
 8374POPC   C3A37325  19.076   3.550   7.955
 8374POPC   C4A37326  19.024   3.566   7.655
 8374POPC   C1B37327  19.281   3.605   8.555
 8374POPC   C2B37328  19.335   3.634   8.255
 8374POPC   C3B37329  19.285   3.636   7.955
 8374POPC   C4B37330  19.296   3.658   7.655
 8375POPC   NC337331  39.198  16.779   9.455
 8375POPC   PO437332  39.188  16.691   9.155
 8375POPC   GL137333  39.281  16.744   8.855
 8375POPC   GL237334  39.073  16.754   8.855
 8375POPC   C1A37335  39.252  16.756   8.555
 8375POPC   D2A37336  39.210  16.770   8.255
 8375POPC   C3A37337  39.241  16.718   7.955
 8375POPC   C4A37338  39.221  16.712   7.655
 8375POPC   C1B37339  39.018  16.722   8.555
 8375POPC   C2B37340  39.017  16.739   8.255
 8375POPC   C3B37341  39.020  16.728   7.955
 8375POPC   C4B37342  39.020  16.734   7.655
 8376POPC   NC337343  31.461  20.562   9.455
 8376POPC   PO437344  31.485  20.580   9.155
 8376POPC   GL137345  31.508  20.594   8.855
 8376POPC   GL237346  31.316  20.569   8.855
 8376POPC   C1A37347  31.477  20.587   8.555
 8376POPC   D2A37348  31.481  20.570   8.255
 8376POPC   C3A37349  31.483  20.611   7.955
 8376POPC   C4A37350  31.466  20.611   7.655
 8376POPC   C1B37351  31.206  20.659   8.555
 8376POPC   C2B37352  31.234  20.620   8.255
 8376POPC   C3B37353  31.217  20.634   7.955
 8376POPC   C4B37354  31.193  20.600   7.655
 8377POPC   NC337355  39.233  36.109   9.455
 8377POPC   PO437356  39.213  36.164   9.155
 8377POPC   GL137357  39.238  36.129   8.855
 8377POPC   GL237358  39.076  36.219   8.855
 8377POPC   C1A37359  39.240  36.137   8.555
 8377POPC   D2A37360  39.208  36.079   8.255
 8377POPC   C3A37361  39.209  36.117   7.955
 8377POPC   C4A37362  39.187  36.125   7.655
 8377POPC   C1B37363  39.006  36.249   8.555
 8377POPC   C2B37364  39.066  36.295   8.255
 8377POPC   C3B37365  39.062  36.270   7.955
 8377POPC   C4B37366  39.059  36.220   7.655
 8378POPC   NC337367  30.703  35.386   9.455
 8378POPC   PO437368  30.740  35.314   9.155
 8378POPC   GL137369  30.717  35.322   8.855
 8378POPC   GL237370  30.812  35.265   8.855
 8378POPC   C1A37371  30.678  35.398   8.555
 8378POPC   D2A37372  30.717  35.347   8.255
 8378POPC   C3A37373  30.652  35.380   7.955
 8378POPC   C4A37374  30.694  35.348   7.655
 8378POPC   C1B37375  30.834  35.164   8.555
 8378POPC   C2B37376  30.895  35.147   8.255
 8378POPC   C3B37377  30.864  35.215   7.955
 8378POPC   C4B37378  30.914  35.217   7.655
 8379POPC   NC337379   8.198  19.841   9.455
 8379POPC   PO437380   8.156  19.795   9.155
 8379POPC   GL137381   8.239  19.786   8.855
 8379POPC   GL237382   8.195  19.760   8.855
 8379POPC   C1A37383   8.157  19.810   8.555
 8379POPC   D2A37384   8.204  19.809   8.255
 8379POPC   C3A37385   8.164  19.802   7.955
 8379POPC   C4A37386   8.208  19.875   7.655
 8379POPC   C1B37387   8.116  19.625   8.555
 8379POPC   C2B37388   8.109  19.634   8.255
 8379POPC   C3B37389   8.156  19.620   7.955
 8379POPC   C4B37390   8.150  19.616   7.655
 8380POPC   NC337391  10.512  39.237   9.455
 8380POPC   PO437392  10.482  39.222   9.155
 8380POPC   GL137393  10.558  39.209   8.855
 8380POPC   GL237394  10.622  39.312   8.855
 8380POPC   C1A37395  10.521  39.230   8.555
 8380POPC   D2A37396  10.552  39.270   8.255
 8380POPC   C3A37397  10.491  39.214   7.955
 8380POPC   C4A37398  10.498  39.256   7.655
 8380POPC   C1B37399  10.711  39.306   8.555
 8380POPC   C2B37400  10.757  39.297   8.255
 8380POPC   C3B37401  10.747  39.346   7.955
 8380POPC   C4B37402  10.806  39.355   7.655
 8381POPC   NC337403  15.210  25.278   9.455
 8381POPC   PO437404  15.177  25.224   9.155
 8381POPC   GL137405  15.187  25.283   8.855
 8381POPC   GL237406  15.036  25.251   8.855
 8381POPC   C1A37407  15.156  25.283   8.555
 8381POPC   D2A37408  15.136  25.259   8.255
 8381POPC   C3A37409  15.153  25.235   7.955
 8381POPC   C4A37410  15.204  25.287   7.655
 8381POPC   C1B37411  14.954  25.136   8.555
 8381POPC   C2B37412  14.936  25.145   8.255
 8381POPC   C3B37413  15.001  25.123   7.955
 8381POPC   C4B37414  14.965  25.174   7.655
 8382POPC   NC337415  12.059  22.191   9.455
 8382POPC   PO437416  12.036  22.180   9.155
 8382POPC   GL137417  12.067  22.134   8.855
 8382POPC   GL237418  12.112  22.274   8.855
 8382POPC   C1A37419  12.080  22.133   8.555
 8382POPC   D2A37420  12.122  22.138   8.255
 8382POPC   C3A37421  12.045  22.176   7.955
 8382POPC   C4A37422  12.086  22.148   7.655
 8382POPC   C1B37423  12.059  22.369   8.555
 8382POPC   C2B37424  12.055  22.460   8.255
 8382POPC   C3B37425  12.105  22.373   7.955
 8382POPC   C4B37426  12.032  22.366   7.655
 8383POPC   NC337427  19.108  22.148   9.455
 8383POPC   PO437428  19.109  22.168   9.155
 8383POPC   GL137429  19.081  22.166   8.855
 8383POPC   GL237430  19.176  22.033   8.855
 8383POPC   C1A37431  19.068  22.136   8.555
 8383POPC   D2A37432  19.016  22.173   8.255
 8383POPC   C3A37433  19.096  22.161   7.955
 8383POPC   C4A37434  19.067  22.147   7.655
 8383POPC   C1B37435  19.230  21.966   8.555
 8383POPC   C2B37436  19.152  21.999   8.255
 8383POPC   C3B37437  19.192  21.912   7.955
 8383POPC   C4B37438  19.163  21.989   7.655
 8384POPC   NC337439  41.518  13.615   9.455
 8384POPC   PO437440  41.527  13.676   9.155
 8384POPC   GL137441  41.558  13.640   8.855
 8384POPC   GL237442  41.433  13.739   8.855
 8384POPC   C1A37443  41.573  13.666   8.555
 8384POPC   D2A37444  41.573  13.604   8.255
 8384POPC   C3A37445  41.517  13.629   7.955
 8384POPC   C4A37446  41.520  13.659   7.655
 8384POPC   C1B37447  41.409  13.786   8.555
 8384POPC   C2B37448  41.369  13.825   8.255
 8384POPC   C3B37449  41.403  13.816   7.955
 8384POPC   C4B37450  41.398  13.793   7.655
 8385POPC   NC337451  16.728  26.017   9.455
 8385POPC   PO437452  16.781  26.058   9.155
 8385POPC   GL137453  16.760  26.041   8.855
 8385POPC   GL237454  16.586  26.054   8.855
 8385POPC   C1A37455  16.713  26.089   8.555
 8385POPC   D2A37456  16.705  26.035   8.255
 8385POPC   C3A37457  16.682  26.003   7.955
 8385POPC   C4A37458  16.728  26.070   7.655
 8385POPC   C1B37459  16.502  26.109   8.555
 8385POPC   C2B37460  16.492  26.052   8.255
 8385POPC   C3B37461  16.473  26.041   7.955
 8385POPC   C4B37462  16.489  26.112   7.655
 8386POPC   NC337463  41.563  27.563   9.455
 8386POPC   PO437464  41.585  27.582   9.155
 8386POPC   GL137465  41.591  27.563   8.855
 8386POPC   GL237466  41.543  27.506   8.855
 8386POPC   C1A37467  41.518  27.608   8.555
 8386POPC   D2A37468  41.537  27.551   8.255
 8386POPC   C3A37469  41.552  27.575   7.955
 8386POPC   C4A37470  41.594  27.585   7.655
 8386POPC   C1B37471  41.478  27.323   8.555
 8386POPC   C2B37472  41.425  27.404   8.255
 8386POPC   C3B37473  41.431  27.327   7.955
 8386POPC   C4B37474  41.431  27.363   7.655
 8387POPC   NC337475  19.079  27.603   9.455
 8387POPC   PO437476  19.050  27.634   9.155
 8387POPC   GL137477  19.033  27.578   8.855
 8387POPC   GL237478  19.124  27.495   8.855
 8387POPC   C1A37479  19.069  27.584   8.555
 8387POPC   D2A37480  19.034  27.630   8.255
 8387POPC   C3A37481  19.016  27.631   7.955
 8387POPC   C4A37482  19.084  27.572   7.655
 8387POPC   C1B37483  19.179  27.374   8.555
 8387POPC   C2B37484  19.212  27.392   8.255
 8387POPC   C3B37485  19.171  27.347   7.955
 8387POPC   C4B37486  19.200  27.369   7.655
 8388POPC   NC337487   0.452  26.847   9.455
 8388POPC   PO437488   0.433  26.828   9.155
 8388POPC   GL137489   0.442  26.852   8.855
 8388POPC   GL237490   0.309  26.945   8.855
 8388POPC   C1A37491   0.476  26.862   8.555
 8388POPC   D2A37492   0.440  26.859   8.255
 8388POPC   C3A37493   0.475  26.801   7.955
 8388POPC   C4A37494   0.427  26.840   7.655
 8388POPC   C1B37495   0.237  27.023   8.555
 8388POPC   C2B37496   0.272  26.940   8.255
 8388POPC   C3B37497   0.231  26.974   7.955
 8388POPC   C4B37498   0.214  26.974   7.655
 8389POPC   NC337499   1.249   2.764   9.455
 8389POPC   PO437500   1.247   2.767   9.155
 8389POPC   GL137501   1.234   2.811   8.855
 8389POPC   GL237502   1.080   2.852   8.855
 8389POPC   C1A37503   1.182   2.806   8.555
 8389POPC   D2A37504   1.187   2.808   8.255
 8389POPC   C3A37505   1.221   2.811   7.955
 8389POPC   C4A37506   1.210   2.766   7.655
 8389POPC   C1B37507   1.047   2.951   8.555
 8389POPC   C2B37508   0.969   2.901   8.255
 8389POPC   C3B37509   1.013   2.921   7.955
 8389POPC   C4B37510   1.030   2.911   7.655
 8390POPC   NC337511   9.744  25.244   9.455
 8390POPC   PO437512   9.733  25.244   9.155
 8390POPC   GL137513   9.787  25.251   8.855
 8390POPC   GL237514   9.841  25.150   8.855
 8390POPC   C1A37515   9.705  25.235   8.555
 8390POPC   D2A37516   9.713  25.292   8.255
 8390POPC   C3A37517   9.714  25.292   7.955
 8390POPC   C4A37518   9.763  25.279   7.655
 8390POPC   C1B37519   9.839  25.049   8.555
 8390POPC   C2B37520   9.869  25.056   8.255
 8390POPC   C3B37521   9.884  25.011   7.955
 8390POPC   C4B37522   9.866  25.058   7.655
 8391POPC   NC337523  29.142   6.644   9.455
 8391POPC   PO437524  29.119   6.620   9.155
 8391POPC   GL137525  29.142   6.670   8.855
 8391POPC   GL237526  29.127   6.744   8.855
 8391POPC   C1A37527  29.129   6.655   8.555
 8391POPC   D2A37528  29.124   6.622   8.255
 8391POPC   C3A37529  29.095   6.668   7.955
 8391POPC   C4A37530  29.120   6.676   7.655
 8391POPC   C1B37531  28.997   6.875   8.555
 8391POPC   C2B37532  29.027   6.862   8.255
 8391POPC   C3B37533  29.023   6.866   7.955
 8391POPC   C4B37534  29.010   6.833   7.655
 8392POPC   NC337535  13.665   1.197   9.455
 8392POPC   PO437536  13.624   1.230   9.155
 8392POPC   GL137537  13.643   1.203   8.855
 8392POPC   GL237538  13.703   1.353   8.855
 8392POPC   C1A37539  13.610   1.173   8.555
 8392POPC   D2A37540  13.582   1.253   8.255
 8392POPC   C3A37541  13.643   1.195   7.955
 8392POPC   C4A37542  13.631   1.203   7.655
 8392POPC   C1B37543  13.676   1.473   8.555
 8392POPC   C2B37544  13.659   1.428   8.255
 8392POPC   C3B37545  13.638   1.443   7.955
 8392POPC   C4B37546  13.670   1.440   7.655
 8393POPC   NC337547  41.595  43.135   9.455
 8393POPC   PO437548  41.527  43.123   9.155
 8393POPC   GL137549  41.602  43.127   8.855
 8393POPC   GL237550  41.605  43.020   8.855
 8393POPC   C1A37551  41.520  43.076   8.555
 8393POPC   D2A37552  41.553  43.064   8.255
 8393POPC   C3A37553  41.602  43.114   7.955
 8393POPC   C4A37554  41.543  43.126   7.655
 8393POPC   C1B37555  41.509  42.811   8.555
 8393POPC   C2B37556  41.507  42.845   8.255
 8393POPC   C3B37557  41.586  42.842   7.955
 8393POPC   C4B37558  41.554  42.825   7.655
 8394POPC   NC337559  37.721  43.899   9.455
 8394POPC   PO437560  37.673  43.837   9.155
 8394POPC   GL137561  37.677  43.931   8.855
 8394POPC   GL237562  37.752  43.745   8.855
 8394POPC   C1A37563  37.640  43.924   8.555
 8394POPC   D2A37564  37.724  43.886   8.255
 8394POPC   C3A37565  37.629  43.837   7.955
 8394POPC   C4A37566  37.643  43.921   7.655
 8394POPC   C1B37567  37.852  43.715   8.555
 8394POPC   C2B37568  37.849  43.665   8.255
 8394POPC   C3B37569  37.776  43.678   7.955
 8394POPC   C4B37570  37.845  43.652   7.655
 8395POPC   NC337571  18.324  24.443   9.455
 8395POPC   PO437572  18.251  24.516   9.155
 8395POPC   GL137573  18.234  24.506   8.855
 8395POPC   GL237574  18.375  24.535   8.855
 8395POPC   C1A37575  18.317  24.503   8.555
 8395POPC   D2A37576  18.269  24.468   8.255
 8395POPC   C3A37577  18.266  24.530   7.955
 8395POPC   C4A37578  18.262  24.510   7.655
 8395POPC   C1B37579  18.534  24.539   8.555
 8395POPC   C2B37580  18.487  24.570   8.255
 8395POPC   C3B37581  18.570  24.578   7.955
 8395POPC   C4B37582  18.569  24.582   7.655
 8396POPC   NC337583   8.974   3.553   9.455
 8396POPC   PO437584   8.972   3.556   9.155
 8396POPC   GL137585   9.013   3.496   8.855
 8396POPC   GL237586   8.959   3.687   8.855
 8396POPC   C1A37587   8.994   3.541   8.555
 8396POPC   D2A37588   8.942   3.566   8.255
 8396POPC   C3A37589   9.004   3.590   7.955
 8396POPC   C4A37590   8.956   3.514   7.655
 8396POPC   C1B37591   8.862   3.744   8.555
 8396POPC   C2B37592   8.882   3.820   8.255
 8396POPC   C3B37593   8.868   3.813   7.955
 8396POPC   C4B37594   8.900   3.800   7.655
 8397POPC   NC337595  23.671  29.194   9.455
 8397POPC   PO437596  23.731  29.133   9.155
 8397POPC   GL137597  23.706  29.106   8.855
 8397POPC   GL237598  23.875  29.117   8.855
 8397POPC   C1A37599  23.723  29.183   8.555
 8397POPC   D2A37600  23.728  29.167   8.255
 8397POPC   C3A37601  23.736  29.101   7.955
 8397POPC   C4A37602  23.710  29.104   7.655
 8397POPC   C1B37603  23.952  29.036   8.555
 8397POPC   C2B37604  23.986  29.080   8.255
 8397POPC   C3B37605  23.910  29.059   7.955
 8397POPC   C4B37606  23.935  29.071   7.655
 8398POPC   NC337607  37.666  16.689   5.555
 8398POPC   PO437608  37.698  16.712   5.855
 8398POPC   GL137609  37.646  16.764   6.155
 8398POPC   GL237610  37.534  16.809   6.155
 8398POPC   C1A37611  37.679  16.729   6.455
 8398POPC   D2A37612  37.701  16.772   6.755
 8398POPC   C3A37613  37.678  16.761   7.055
 8398POPC   C4A37614  37.715  16.721   7.355
 8398POPC   C1B37615  37.446  16.836   6.455
 8398POPC   C2B37616  37.473  16.810   6.755
 8398POPC   C3B37617  37.408  16.836   7.055
 8398POPC   C4B37618  37.466  16.759   7.355
 8399POPC   NC337619  35.384  20.607   5.555
 8399POPC   PO437620  35.397  20.563   5.855
 8399POPC   GL137621  35.372  20.569   6.155
 8399POPC   GL237622  35.358  20.460   6.155
 8399POPC   C1A37623  35.386  20.595   6.455
 8399POPC   D2A37624  35.315  20.639   6.755
 8399POPC   C3A37625  35.330  20.579   7.055
 8399POPC   C4A37626  35.372  20.595   7.355
 8399POPC   C1B37627  35.395  20.318   6.455
 8399POPC   C2B37628  35.402  20.369   6.755
 8399POPC   C3B37629  35.359  20.400   7.055
 8399POPC   C4B37630  35.421  20.338   7.355
 8400POPC   NC337631  40.787  13.602   5.555
 8400POPC   PO437632  40.778  13.580   5.855
 8400POPC   GL137633  40.829  13.632   6.155
 8400POPC   GL237634  40.801  13.789   6.155
 8400POPC   C1A37635  40.792  13.615   6.455
 8400POPC   D2A37636  40.828  13.584   6.755
 8400POPC   C3A37637  40.828  13.607   7.055
 8400POPC   C4A37638  40.807  13.677   7.355
 8400POPC   C1B37639  40.731  13.838   6.455
 8400POPC   C2B37640  40.820  13.920   6.755
 8400POPC   C3B37641  40.735  13.843   7.055
 8400POPC   C4B37642  40.797  13.898   7.355
 8401POPC   NC337643  22.134  13.631   5.555
 8401POPC   PO437644  22.204  13.670   5.855
 8401POPC   GL137645  22.173  13.669   6.155
 8401POPC   GL237646  22.305  13.631   6.155
 8401POPC   C1A37647  22.208  13.595   6.455
 8401POPC   D2A37648  22.176  13.663   6.755
 8401POPC   C3A37649  22.121  13.645   7.055
 8401POPC   C4A37650  22.123  13.659   7.355
 8401POPC   C1B37651  22.411  13.715   6.455
 8401POPC   C2B37652  22.360  13.684   6.755
 8401POPC   C3B37653  22.366  13.645   7.055
 8401POPC   C4B37654  22.459  13.679   7.355
 8402POPC   NC337655  11.331  43.138   5.555
 8402POPC   PO437656  11.289  43.084   5.855
 8402POPC   GL137657  11.318  43.116   6.155
 8402POPC   GL237658  11.309  43.183   6.155
 8402POPC   C1A37659  11.283  43.088   6.455
 8402POPC   D2A37660  11.345  43.141   6.755
 8402POPC   C3A37661  11.257  43.130   7.055
 8402POPC   C4A37662  11.321  43.153   7.355
 8402POPC   C1B37663  11.403  43.317   6.455
 8402POPC   C2B37664  11.344  43.334   6.755
 8402POPC   C3B37665  11.427  43.312   7.055
 8402POPC   C4B37666  11.380  43.306   7.355
 8403POPC   NC337667  34.543  10.571   5.555
 8403POPC   PO437668  34.592  10.550   5.855
 8403POPC   GL137669  34.618  10.566   6.155
 8403POPC   GL237670  34.486  10.434   6.155
 8403POPC   C1A37671  34.593  10.553   6.455
 8403POPC   D2A37672  34.564  10.501   6.755
 8403POPC   C3A37673  34.625  10.542   7.055
 8403POPC   C4A37674  34.599  10.488   7.355
 8403POPC   C1B37675  34.485  10.298   6.455
 8403POPC   C2B37676  34.500  10.241   6.755
 8403POPC   C3B37677  34.517  10.275   7.055
 8403POPC   C4B37678  34.522  10.256   7.355
 8404POPC   NC337679  26.820   3.577   5.555
 8404POPC   PO437680  26.790   3.543   5.855
 8404POPC   GL137681  26.821   3.563   6.155
 8404POPC   GL237682  26.832   3.424   6.155
 8404POPC   C1A37683  26.770   3.534   6.455
 8404POPC   D2A37684  26.859   3.500   6.755
 8404POPC   C3A37685  26.790   3.528   7.055
 8404POPC   C4A37686  26.857   3.536   7.355
 8404POPC   C1B37687  26.953   3.320   6.455
 8404POPC   C2B37688  26.929   3.298   6.755
 8404POPC   C3B37689  26.912   3.317   7.055
 8404POPC   C4B37690  26.879   3.280   7.355
 8405POPC   NC337691   3.529  12.872   5.555
 8405POPC   PO437692   3.519  12.893   5.855
 8405POPC   GL137693   3.562  12.870   6.155
 8405POPC   GL237694   3.665  12.862   6.155
 8405POPC   C1A37695   3.521  12.853   6.455
 8405POPC   D2A37696   3.564  12.866   6.755
 8405POPC   C3A37697   3.541  12.830   7.055
 8405POPC   C4A37698   3.560  12.856   7.355
 8405POPC   C1B37699   3.751  12.969   6.455
 8405POPC   C2B37700   3.761  12.968   6.755
 8405POPC   C3B37701   3.743  12.935   7.055
 8405POPC   C4B37702   3.739  12.930   7.355
 8406POPC   NC337703  22.957  28.397   5.555
 8406POPC   PO437704  22.940  28.409   5.855
 8406POPC   GL137705  22.949  28.351   6.155
 8406POPC   GL237706  23.073  28.375   6.155
 8406POPC   C1A37707  22.906  28.407   6.455
 8406POPC   D2A37708  22.889  28.404   6.755
 8406POPC   C3A37709  22.968  28.398   7.055
 8406POPC   C4A37710  22.943  28.356   7.355
 8406POPC   C1B37711  23.168  28.370   6.455
 8406POPC   C2B37712  23.143  28.375   6.755
 8406POPC   C3B37713  23.173  28.360   7.055
 8406POPC   C4B37714  23.179  28.382   7.355
 8407POPC   NC337715  19.055  41.540   5.555
 8407POPC   PO437716  19.069  41.538   5.855
 8407POPC   GL137717  19.100  41.567   6.155
 8407POPC   GL237718  18.960  41.538   6.155
 8407POPC   C1A37719  19.018  41.595   6.455
 8407POPC   D2A37720  19.092  41.515   6.755
 8407POPC   C3A37721  19.010  41.527   7.055
 8407POPC   C4A37722  19.032  41.510   7.355
 8407POPC   C1B37723  18.862  41.506   6.455
 8407POPC   C2B37724  18.864  41.521   6.755
 8407POPC   C3B37725  18.829  41.495   7.055
 8407POPC   C4B37726  18.795  41.513   7.355
 8408POPC   NC337727   2.756  19.846   5.555
 8408POPC   PO437728   2.803  19.832   5.855
 8408POPC   GL137729   2.744  19.819   6.155
 8408POPC   GL237730   2.887  19.746   6.155
 8408POPC   C1A37731   2.814  19.811   6.455
 8408POPC   D2A37732   2.756  19.794   6.755
 8408POPC   C3A37733   2.719  19.866   7.055
 8408POPC   C4A37734   2.782  19.850   7.355
 8408POPC   C1B37735   2.948  19.676   6.455
 8408POPC   C2B37736   2.942  19.673   6.755
 8408POPC   C3B37737   2.969  19.677   7.055
 8408POPC   C4B37738   2.986  19.743   7.355
 8409POPC   NC337739   1.217  33.010   5.555
 8409POPC   PO437740   1.185  33.041   5.855
 8409POPC   GL137741   1.246  33.048   6.155
 8409POPC   GL237742   1.285  33.106   6.155
 8409POPC   C1A37743   1.209  32.987   6.455
 8409POPC   D2A37744   1.231  33.071   6.755
 8409POPC   C3A37745   1.261  33.017   7.055
 8409POPC   C4A37746   1.240  33.025   7.355
 8409POPC   C1B37747   1.407  33.179   6.455
 8409POPC   C2B37748   1.376  33.263   6.755
 8409POPC   C3B37749   1.403  33.174   7.055
 8409POPC   C4B37750   1.324  33.212   7.355
 8410POPC   NC337751   0.457   1.186   5.555
 8410POPC   PO437752   0.422   1.226   5.855
 8410POPC   GL137753   0.468   1.178   6.155
 8410POPC   GL237754   0.555   1.248   6.155
 8410POPC   C1A37755   0.394   1.176   6.455
 8410POPC   D2A37756   0.414   1.206   6.755
 8410POPC   C3A37757   0.389   1.250   7.055
 8410POPC   C4A37758   0.486   1.220   7.355
 8410POPC   C1B37759   0.733   1.244   6.455
 8410POPC   C2B37760   0.712   1.172   6.755
 8410POPC   C3B37761   0.686   1.176   7.055
 8410POPC   C4B37762   0.712   1.261   7.355
 8411POPC   NC337763  17.531  11.334   5.555
 8411POPC   PO437764  17.524  11.346   5.855
 8411POPC   GL137765  17.481  11.300   6.155
 8411POPC   GL237766  17.608  11.361   6.155
 8411POPC   C1A37767  17.547  11.321   6.455
 8411POPC   D2A37768  17.534  11.261   6.755
 8411POPC   C3A37769  17.508  11.261   7.055
 8411POPC   C4A37770  17.490  11.284   7.355
 8411POPC   C1B37771  17.773  11.406   6.455
 8411POPC   C2B37772  17.716  11.458   6.755
 8411POPC   C3B37773  17.754  11.422   7.055
 8411POPC   C4B37774  17.683  11.454   7.355
 8412POPC   NC337775  37.662   4.349   5.555
 8412POPC   PO437776  37.727   4.272   5.855
 8412POPC   GL137777  37.686   4.301   6.155
 8412POPC   GL237778  37.659   4.226   6.155
 8412POPC   C1A37779  37.642   4.332   6.455
 8412POPC   D2A37780  37.673   4.354   6.755
 8412POPC   C3A37781  37.660   4.310   7.055
 8412POPC   C4A37782  37.693   4.269   7.355
 8412POPC   C1B37783  37.588   4.104   6.455
 8412POPC   C2B37784  37.610   4.103   6.755
 8412POPC   C3B37785  37.606   4.063   7.055
 8412POPC   C4B37786  37.644   4.124   7.355
 8413POPC   NC337787  10.519  33.754   5.555
 8413POPC   PO437788  10.520  33.832   5.855
 8413POPC   GL137789  10.501  33.770   6.155
 8413POPC   GL237790  10.459  33.706   6.155
 8413POPC   C1A37791  10.552  33.796   6.455
 8413POPC   D2A37792  10.550  33.818   6.755
 8413POPC   C3A37793  10.512  33.751   7.055
 8413POPC   C4A37794  10.523  33.755   7.355
 8413POPC   C1B37795  10.294  33.633   6.455
 8413POPC   C2B37796  10.333  33.649   6.755
 8413POPC   C3B37797  10.281  33.716   7.055
 8413POPC   C4B37798  10.356  33.712   7.355
 8414POPC   NC337799  33.813  36.872   5.555
 8414POPC   PO437800  33.801  36.860   5.855
 8414POPC   GL137801  33.782  36.908   6.155
 8414POPC   GL237802  33.753  36.859   6.155
 8414POPC   C1A37803  33.770  36.928   6.455
 8414POPC   D2A37804  33.842  36.953   6.755
 8414POPC   C3A37805  33.825  36.934   7.055
 8414POPC   C4A37806  33.780  36.874   7.355
 8414POPC   C1B37807  33.670  36.754   6.455
 8414POPC   C2B37808  33.616  36.689   6.755
 8414POPC   C3B37809  33.667  36.690   7.055
 8414POPC   C4B37810  33.603  36.756   7.355
 8415POPC   NC337811  35.395  40.750   5.555
 8415POPC   PO437812  35.364  40.825   5.855
 8415POPC   GL137813  35.315  40.795   6.155
 8415POPC   GL237814  35.434  40.756   6.155
 8415POPC   C1A37815  35.347  40.752   6.455
 8415POPC   D2A37816  35.396  40.769   6.755
 8415POPC   C3A37817  35.328  40.805   7.055
 8415POPC   C4A37818  35.348  40.757   7.355
 8415POPC   C1B37819  35.621  40.677   6.455
 8415POPC   C2B37820  35.573  40.697   6.755
 8415POPC   C3B37821  35.529  40.653   7.055
 8415POPC   C4B37822  35.531  40.693   7.355
 8416POPC   NC337823  36.107  29.956   5.555
 8416POPC   PO437824  36.138  29.921   5.855
 8416POPC   GL137825  36.176  29.873   6.155
 8416POPC   GL237826  36.195  30.058   6.155
 8416POPC   C1A37827  36.160  29.874   6.455
 8416POPC   D2A37828  36.149  29.950   6.755
 8416POPC   C3A37829  36.171  29.950   7.055
 8416POPC   C4A37830  36.148  29.915   7.355
 8416POPC   C1B37831  36.252  30.139   6.455
 8416POPC   C2B37832  36.251  30.123   6.755
 8416POPC   C3B37833  36.332  30.086   7.055
 8416POPC   C4B37834  36.288  30.137   7.355
 8417POPC   NC337835  26.091  12.833   5.555
 8417POPC   PO437836  26.084  12.819   5.855
 8417POPC   GL137837  26.071  12.893   6.155
 8417POPC   GL237838  25.986  12.920   6.155
 8417POPC   C1A37839  26.044  12.867   6.455
 8417POPC   D2A37840  26.004  12.808   6.755
 8417POPC   C3A37841  26.081  12.857   7.055
 8417POPC   C4A37842  26.049  12.845   7.355
 8417POPC   C1B37843  25.936  13.059   6.455
 8417POPC   C2B37844  25.907  13.107   6.755
 8417POPC   C3B37845  25.954  13.125   7.055
 8417POPC   C4B37846  25.937  13.047   7.355
 8418POPC   NC337847   1.193  14.380   5.555
 8418POPC   PO437848   1.209  14.369   5.855
 8418POPC   GL137849   1.171  14.400   6.155
 8418POPC   GL237850   1.289  14.524   6.155
 8418POPC   C1A37851   1.182  14.409   6.455
 8418POPC   D2A37852   1.231  14.378   6.755
 8418POPC   C3A37853   1.217  14.387   7.055
 8418POPC   C4A37854   1.227  14.407   7.355
 8418POPC   C1B37855   1.390  14.575   6.455
 8418POPC   C2B37856   1.452  14.586   6.755
 8418POPC   C3B37857   1.441  14.539   7.055
 8418POPC   C4B37858   1.409  14.607   7.355
 8419POPC   NC337859   8.985  33.073   5.555
 8419POPC   PO437860   8.929  33.009   5.855
 8419POPC   GL137861   8.970  32.989   6.155
 8419POPC   GL237862   8.890  33.015   6.155
 8419POPC   C1A37863   8.996  32.993   6.455
 8419POPC   D2A37864   8.999  32.979   6.755
 8419POPC   C3A37865   8.992  33.050   7.055
 8419POPC   C4A37866   9.019  33.053   7.355
 8419POPC   C1B37867   8.755  32.932   6.455
 8419POPC   C2B37868   8.715  32.997   6.755
 8419POPC   C3B37869   8.717  32.967   7.055
 8419POPC   C4B37870   8.732  32.931   7.355
 8420POPC   NC337871  43.902  22.147   5.555
 8420POPC   PO437872  43.875  22.169   5.855
 8420POPC   GL137873  43.851  22.183   6.155
 8420POPC   GL237874  43.826  22.023   6.155
 8420POPC   C1A37875  43.849  22.195   6.455
 8420POPC   D2A37876  43.857  22.131   6.755
 8420POPC   C3A37877  43.914  22.181   7.055
 8420POPC   C4A37878  43.879  22.199   7.355
 8420POPC   C1B37879  43.825  21.912   6.455
 8420POPC   C2B37880  43.810  21.885   6.755
 8420POPC   C3B37881  43.875  21.874   7.055
 8420POPC   C4B37882  43.823  21.887   7.355
 8421POPC   NC337883   3.563  34.537   5.555
 8421POPC   PO437884   3.569  34.567   5.855
 8421POPC   GL137885   3.568  34.584   6.155
 8421POPC   GL237886   3.618  34.432   6.155
 8421POPC   C1A37887   3.524  34.615   6.455
 8421POPC   D2A37888   3.566  34.611   6.755
 8421POPC   C3A37889   3.576  34.583   7.055
 8421POPC   C4A37890   3.554  34.532   7.355
 8421POPC   C1B37891   3.656  34.305   6.455
 8421POPC   C2B37892   3.692  34.360   6.755
 8421POPC   C3B37893   3.641  34.395   7.055
 8421POPC   C4B37894   3.607  34.363   7.355
 8422POPC   NC337895   2.808  32.295   5.555
 8422POPC   PO437896   2.738  32.244   5.855
 8422POPC   GL137897   2.745  32.287   6.155
 8422POPC   GL237898   2.661  32.287   6.155
 8422POPC   C1A37899   2.782  32.221   6.455
 8422POPC   D2A37900   2.731  32.232   6.755
 8422POPC   C3A37901   2.746  32.291   7.055
 8422POPC   C4A37902   2.814  32.286   7.355
 8422POPC   C1B37903   2.514  32.182   6.455
 8422POPC   C2B37904   2.507  32.221   6.755
 8422POPC   C3B37905   2.475  32.252   7.055
 8422POPC   C4B37906   2.500  32.198   7.355
 8423POPC   NC337907  10.555  23.691   5.555
 8423POPC   PO437908  10.484  23.726   5.855
 8423POPC   GL137909  10.562  23.683   6.155
 8423POPC   GL237910  10.599  23.611   6.155
 8423POPC   C1A37911  10.524  23.709   6.455
 8423POPC   D2A37912  10.542  23.699   6.755
 8423POPC   C3A37913  10.554  23.732   7.055
 8423POPC   C4A37914  10.510  23.733   7.355
 8423POPC   C1B37915  10.700  23.541   6.455
 8423POPC   C2B37916  10.716  23.602   6.755
 8423POPC   C3B37917  10.730  23.524   7.055
 8423POPC   C4B37918  10.718  23.552   7.355
 8424POPC   NC337919  14.397   5.112   5.555
 8424POPC   PO437920  14.436   5.095   5.855
 8424POPC   GL137921  14.433   5.087   6.155
 8424POPC   GL237922  14.456   5.248   6.155
 8424POPC   C1A37923  14.384   5.141   6.455
 8424POPC   D2A37924  14.396   5.112   6.755
 8424POPC   C3A37925  14.449   5.096   7.055
 8424POPC   C4A37926  14.390   5.138   7.355
 8424POPC   C1B37927  14.464   5.311   6.455
 8424POPC   C2B37928  14.408   5.333   6.755
 8424POPC   C3B37929  14.397   5.371   7.055
 8424POPC   C4B37930  14.407   5.314   7.355
 8425POPC   NC337931  35.363  31.452   5.555
 8425POPC   PO437932  35.377  31.501   5.855
 8425POPC   GL137933  35.397  31.478   6.155
 8425POPC   GL237934  35.421  31.635   6.155
 8425POPC   C1A37935  35.398  31.454   6.455
 8425POPC   D2A37936  35.352  31.453   6.755
 8425POPC   C3A37937  35.393  31.463   7.055
 8425POPC   C4A37938  35.334  31.455   7.355
 8425POPC   C1B37939  35.407  31.696   6.455
 8425POPC   C2B37940  35.438  31.759   6.755
 8425POPC   C3B37941  35.393  31.675   7.055
 8425POPC   C4B37942  35.387  31.667   7.355
 8426POPC   NC337943  34.533  43.127   5.555
 8426POPC   PO437944  34.580  43.126   5.855
 8426POPC   GL137945  34.567  43.082   6.155
 8426POPC   GL237946  34.459  43.176   6.155
 8426POPC   C1A37947  34.617  43.092   6.455
 8426POPC   D2A37948  34.591  43.108   6.755
 8426POPC   C3A37949  34.594  43.155   7.055
 8426POPC   C4A37950  34.594  43.082   7.355
 8426POPC   C1B37951  34.414  43.228   6.455
 8426POPC   C2B37952  34.349  43.287   6.755
 8426POPC   C3B37953  34.344  43.238   7.055
 8426POPC   C4B37954  34.429  43.241   7.355
 8427POPC   NC337955  39.263   5.840   5.555
 8427POPC   PO437956  39.270   5.874   5.855
 8427POPC   GL137957  39.268   5.857   6.155
 8427POPC   GL237958  39.076   5.857   6.155
 8427POPC   C1A37959  39.247   5.826   6.455
 8427POPC   D2A37960  39.252   5.829   6.755
 8427POPC   C3A37961  39.274   5.886   7.055
 8427POPC   C4A37962  39.184   5.889   7.355
 8427POPC   C1B37963  39.032   5.931   6.455
 8427POPC   C2B37964  38.972   5.889   6.755
 8427POPC   C3B37965  38.946   5.882   7.055
 8427POPC   C4B37966  38.977   5.883   7.355
 8428POPC   NC337967   5.076   4.358   5.555
 8428POPC   PO437968   5.125   4.348   5.855
 8428POPC   GL137969   5.116   4.346   6.155
 8428POPC   GL237970   4.979   4.347   6.155
 8428POPC   C1A37971   5.080   4.304   6.455
 8428POPC   D2A37972   5.052   4.338   6.755
 8428POPC   C3A37973   5.087   4.303   7.055
 8428POPC   C4A37974   5.081   4.350   7.355
 8428POPC   C1B37975   4.935   4.510   6.455
 8428POPC   C2B37976   4.919   4.426   6.755
 8428POPC   C3B37977   4.880   4.446   7.055
 8428POPC   C4B37978   4.882   4.456   7.355
 8429POPC   NC337979   2.785   7.417   5.555
 8429POPC   PO437980   2.744   7.440   5.855
 8429POPC   GL137981   2.782   7.427   6.155
 8429POPC   GL237982   2.848   7.435   6.155
 8429POPC   C1A37983   2.796   7.448   6.455
 8429POPC   D2A37984   2.799   7.454   6.755
 8429POPC   C3A37985   2.797   7.463   7.055
 8429POPC   C4A37986   2.740   7.455   7.355
 8429POPC   C1B37987   3.027   7.503   6.455
 8429POPC   C2B37988   2.989   7.578   6.755
 8429POPC   C3B37989   2.944   7.570   7.055
 8429POPC   C4B37990   2.980   7.544   7.355
 8430POPC   NC337991  33.845  11.274   5.555
 8430POPC   PO437992  33.765  11.287   5.855
 8430POPC   GL137993  33.850  11.264   6.155
 8430POPC   GL237994  33.679  11.267   6.155
 8430POPC   C1A37995  33.794  11.288   6.455
 8430POPC   D2A37996  33.817  11.330   6.755
 8430POPC   C3A37997  33.805  11.322   7.055
 8430POPC   C4A37998  33.808  11.289   7.355
 8430POPC   C1B37999  33.584  11.149   6.455
 8430POPC   C2B38000  33.573  11.139   6.755
 8430POPC   C3B38001  33.550  11.172   7.055
 8430POPC   C4B38002  33.639  11.184   7.355
 8431POPC   NC338003   2.775  13.624   5.555
 8431POPC   PO438004   2.806  13.645   5.855
 8431POPC   GL138005   2.733  13.632   6.155
 8431POPC   GL238006   2.664  13.742   6.155
 8431POPC   C1A38007   2.791  13.626   6.455
 8431POPC   D2A38008   2.783  13.624   6.755
 8431POPC   C3A38009   2.747  13.677   7.055
 8431POPC   C4A38010   2.777  13.664   7.355
 8431POPC   C1B38011   2.632  13.821   6.455
 8431POPC   C2B38012   2.654  13.838   6.755
 8431POPC   C3B38013   2.655  13.855   7.055
 8431POPC   C4B38014   2.601  13.867   7.355
 8432POPC   NC338015  29.878  12.816   5.555
 8432POPC   PO438016  29.908  12.829   5.855
 8432POPC   GL138017  29.883  12.847   6.155
 8432POPC   GL238018  29.862  13.023   6.155
 8432POPC   C1A38019  29.938  12.871   6.455
 8432POPC   D2A38020  29.896  12.877   6.755
 8432POPC   C3A38021  29.963  12.882   7.055
 8432POPC   C4A38022  29.931  12.839   7.355
 8432POPC   C1B38023  29.892  13.052   6.455
 8432POPC   C2B38024  29.917  13.080   6.755
 8432POPC   C3B38025  29.891  13.147   7.055
 8432POPC   C4B38026  29.879  13.102   7.355
 8433POPC   NC338027  11.261  33.045   5.555
 8433POPC   PO438028  11.309  33.025   5.855
 8433POPC   GL138029  11.319  33.035   6.155
 8433POPC   GL238030  11.267  32.938   6.155
 8433POPC   C1A38031  11.294  33.017   6.455
 8433POPC   D2A38032  11.257  33.057   6.755
 8433POPC   C3A38033  11.349  32.985   7.055
 8433POPC   C4A38034  11.302  33.072   7.355
 8433POPC   C1B38035  11.203  32.773   6.455
 8433POPC   C2B38036  11.123  32.808   6.755
 8433POPC   C3B38037  11.131  32.814   7.055
 8433POPC   C4B38038  11.122  32.791   7.355
 8434POPC   NC338039  34.540  26.810   5.555
 8434POPC   PO438040  34.612  26.866   5.855
 8434POPC   GL138041  34.602  26.826   6.155
 8434POPC   GL238042  34.439  26.827   6.155
 8434POPC   C1A38043  34.593  26.856   6.455
 8434POPC   D2A38044  34.528  26.788   6.755
 8434POPC   C3A38045  34.609  26.855   7.055
 8434POPC   C4A38046  34.590  26.840   7.355
 8434POPC   C1B38047  34.346  26.805   6.455
 8434POPC   C2B38048  34.364  26.784   6.755
 8434POPC   C3B38049  34.373  26.836   7.055
 8434POPC   C4B38050  34.331  26.823   7.355
 8435POPC   NC338051   6.598  40.780   5.555
 8435POPC   PO438052   6.641  40.804   5.855
 8435POPC   GL138053   6.673  40.763   6.155
 8435POPC   GL238054   6.687  40.918   6.155
 8435POPC   C1A38055   6.601  40.740   6.455
 8435POPC   D2A38056   6.604  40.796   6.755
 8435POPC   C3A38057   6.640  40.807   7.055
 8435POPC   C4A38058   6.668  40.818   7.355
 8435POPC   C1B38059   6.746  41.012   6.455
 8435POPC   C2B38060   6.817  41.039   6.755
 8435POPC   C3B38061   6.748  40.984   7.055
 8435POPC   C4B38062   6.820  40.947   7.355
 8436POPC   NC338063  26.026  43.865   5.555
 8436POPC   PO438064  26.056  43.918   5.855
 8436POPC   GL138065  26.022  43.931   6.155
 8436POPC   GL238066  26.119  43.777   6.155
 8436POPC   C1A38067  26.029  43.918   6.455
 8436POPC   D2A38068  26.008  43.879   6.755
 8436POPC   C3A38069  26.026  43.919   7.055
 8436POPC   C4A38070  26.087  43.902   7.355
 8436POPC   C1B38071  26.225  43.701   6.455
 8436POPC   C2B38072  26.237  43.737   6.755
 8436POPC   C3B38073  26.191  43.719   7.055
 8436POPC   C4B38074  26.189  43.754   7.355
 8437POPC   NC338075   6.635  44.612   5.555
 8437POPC   PO438076   6.642  44.657   5.855
 8437POPC   GL138077   6.652  44.690   6.155
 8437POPC   GL238078   6.574  44.570   6.155
 8437POPC   C1A38079   6.694  44.685   6.455
 8437POPC   D2A38080   6.629  44.635   6.755
 8437POPC   C3A38081   6.672  44.625   7.055
 8437POPC   C4A38082   6.684  44.701   7.355
 8437POPC   C1B38083   6.473  44.545   6.455
 8437POPC   C2B38084   6.409  44.516   6.755
 8437POPC   C3B38085   6.399  44.566   7.055
 8437POPC   C4B38086   6.433  44.529   7.355
 8438POPC   NC338087   5.101  40.784   5.555
 8438POPC   PO438088   5.097  40.804   5.855
 8438POPC   GL138089   5.104  40.763   6.155
 8438POPC   GL238090   5.142  40.705   6.155
 8438POPC   C1A38091   5.074  40.787   6.455
 8438POPC   D2A38092   5.088  40.787   6.755
 8438POPC   C3A38093   5.142  40.822   7.055
 8438POPC   C4A38094   5.066  40.771   7.355
 8438POPC   C1B38095   5.272  40.612   6.455
 8438POPC   C2B38096   5.294  40.565   6.755
 8438POPC   C3B38097   5.250  40.645   7.055
 8438POPC   C4B38098   5.251  40.644   7.355
 8439POPC   NC338099  30.690  19.856   5.555
 8439POPC   PO438100  30.684  19.786   5.855
 8439POPC   GL138101  30.663  19.851   6.155
 8439POPC   GL238102  30.783  19.701   6.155
 8439POPC   C1A38103  30.730  19.871   6.455
 8439POPC   D2A38104  30.713  19.871   6.755
 8439POPC   C3A38105  30.649  19.845   7.055
 8439POPC   C4A38106  30.671  19.863   7.355
 8439POPC   C1B38107  30.746  19.563   6.455
 8439POPC   C2B38108  30.824  19.619   6.755
 8439POPC   C3B38109  30.768  19.615   7.055
 8439POPC   C4B38110  30.767  19.565   7.355
 8440POPC   NC338111  23.675   5.829   5.555
 8440POPC   PO438112  23.736   5.869   5.855
 8440POPC   GL138113  23.724   5.826   6.155
 8440POPC   GL238114  23.689   5.747   6.155
 8440POPC   C1A38115  23.718   5.908   6.455
 8440POPC   D2A38116  23.737   5.819   6.755
 8440POPC   C3A38117  23.752   5.852   7.055
 8440POPC   C4A38118  23.699   5.850   7.355
 8440POPC   C1B38119  23.651   5.635   6.455
 8440POPC   C2B38120  23.629   5.662   6.755
 8440POPC   C3B38121  23.597   5.642   7.055
 8440POPC   C4B38122  23.645   5.676   7.355
 8441POPC   NC338123  25.996   9.722   5.555
 8441POPC   PO438124  26.033   9.753   5.855
 8441POPC   GL138125  26.058   9.777   6.155
 8441POPC   GL238126  26.001   9.615   6.155
 8441POPC   C1A38127  26.008   9.761   6.455
 8441POPC   D2A38128  26.032   9.770   6.755
 8441POPC   C3A38129  26.037   9.701   7.055
 8441POPC   C4A38130  26.015   9.772   7.355
 8441POPC   C1B38131  25.898   9.520   6.455
 8441POPC   C2B38132  25.908   9.506   6.755
 8441POPC   C3B38133  25.912   9.538   7.055
 8441POPC   C4B38134  25.937   9.509   7.355
 8442POPC   NC338135   4.350  44.653   5.555
 8442POPC   PO438136   4.314  44.684   5.855
 8442POPC   GL138137   4.296  44.678   6.155
 8442POPC   GL238138   4.457  44.696   6.155
 8442POPC   C1A38139   4.329  44.702   6.455
 8442POPC   D2A38140   4.348  44.686   6.755
 8442POPC   C3A38141   4.272  44.665   7.055
 8442POPC   C4A38142   4.283  44.680   7.355
 8442POPC   C1B38143   4.511  44.808   6.455
 8442POPC   C2B38144   4.559  44.851   6.755
 8442POPC   C3B38145   4.489  44.810   7.055
 8442POPC   C4B38146   4.567  44.783   7.355
 8443POPC   NC338147   3.494  30.710   5.555
 8443POPC   PO438148   3.558  30.683   5.855
 8443POPC   GL138149   3.580  30.656   6.155
 8443POPC   GL238150   3.425  30.751   6.155
 8443POPC   C1A38151   3.502  30.693   6.455
 8443POPC   D2A38152   3.582  30.703   6.755
 8443POPC   C3A38153   3.563  30.686   7.055
 8443POPC   C4A38154   3.524  30.689   7.355
 8443POPC   C1B38155   3.258  30.779   6.455
 8443POPC   C2B38156   3.280  30.817   6.755
 8443POPC   C3B38157   3.256  30.822   7.055
 8443POPC   C4B38158   3.345  30.752   7.355
 8444POPC   NC338159  20.600   2.793   5.555
 8444POPC   PO438160  20.629   2.723   5.855
 8444POPC   GL138161  20.600   2.779   6.155
 8444POPC   GL238162  20.772   2.776   6.155
 8444POPC   C1A38163  20.566   2.768   6.455
 8444POPC   D2A38164  20.590   2.753   6.755
 8444POPC   C3A38165  20.586   2.740   7.055
 8444POPC   C4A38166  20.632   2.804   7.355
 8444POPC   C1B38167  20.876   2.837   6.455
 8444POPC   C2B38168  20.819   2.786   6.755
 8444POPC   C3B38169  20.880   2.814   7.055
 8444POPC   C4B38170  20.824   2.853   7.355
 8445POPC   NC338171  17.487  44.626   5.555
 8445POPC   PO438172  17.533  44.622   5.855
 8445POPC   GL138173  17.535  44.616   6.155
 8445POPC   GL238174  17.522  44.541   6.155
 8445POPC   C1A38175  17.534  44.656   6.455
 8445POPC   D2A38176  17.550  44.670   6.755
 8445POPC   C3A38177  17.527  44.693   7.055
 8445POPC   C4A38178  17.471  44.647   7.355
 8445POPC   C1B38179  17.438  44.378   6.455
 8445POPC   C2B38180  17.476  44.394   6.755
 8445POPC   C3B38181  17.436  44.403   7.055
 8445POPC   C4B38182  17.483  44.442   7.355
 8446POPC   NC338183  28.346   9.768   5.555
 8446POPC   PO438184  28.333   9.750   5.855
 8446POPC   GL138185  28.362   9.725   6.155
 8446POPC   GL238186  28.488   9.882   6.155
 8446POPC   C1A38187  28.352   9.797   6.455
 8446POPC   D2A38188  28.337   9.775   6.755
 8446POPC   C3A38189  28.410   9.713   7.055
 8446POPC   C4A38190  28.334   9.745   7.355
 8446POPC   C1B38191  28.522   9.897   6.455
 8446POPC   C2B38192  28.524   9.920   6.755
 8446POPC   C3B38193  28.577   9.903   7.055
 8446POPC   C4B38194  28.563   9.955   7.355
 8447POPC   NC338195  40.030   2.790   5.555
 8447POPC   PO438196  39.978   2.726   5.855
 8447POPC   GL138197  40.034   2.789   6.155
 8447POPC   GL238198  40.120   2.692   6.155
 8447POPC   C1A38199  39.988   2.716   6.455
 8447POPC   D2A38200  40.033   2.745   6.755
 8447POPC   C3A38201  40.029   2.793   7.055
 8447POPC   C4A38202  40.013   2.804   7.355
 8447POPC   C1B38203  40.264   2.662   6.455
 8447POPC   C2B38204  40.221   2.673   6.755
 8447POPC   C3B38205  40.214   2.586   7.055
 8447POPC   C4B38206  40.253   2.660   7.355
 8448POPC   NC338207  41.516  32.241   5.555
 8448POPC   PO438208  41.521  32.247   5.855
 8448POPC   GL138209  41.581  32.288   6.155
 8448POPC   GL238210  41.482  32.243   6.155
 8448POPC   C1A38211  41.600  32.259   6.455
 8448POPC   D2A38212  41.605  32.243   6.755
 8448POPC   C3A38213  41.603  32.271   7.055
 8448POPC   C4A38214  41.594  32.284   7.355
 8448POPC   C1B38215  41.352  32.134   6.455
 8448POPC   C2B38216  41.278  32.172   6.755
 8448POPC   C3B38217  41.305  32.223   7.055
 8448POPC   C4B38218  41.359  32.186   7.355
 8449POPC   NC338219  13.630   5.088   5.555
 8449POPC   PO438220  13.607   5.064   5.855
 8449POPC   GL138221  13.627   5.090   6.155
 8449POPC   GL238222  13.589   4.976   6.155
 8449POPC   C1A38223  13.624   5.062   6.455
 8449POPC   D2A38224  13.649   5.072   6.755
 8449POPC   C3A38225  13.671   5.083   7.055
 8449POPC   C4A38226  13.604   5.124   7.355
 8449POPC   C1B38227  13.555   4.865   6.455
 8449POPC   C2B38228  13.581   4.839   6.755
 8449POPC   C3B38229  13.613   4.846   7.055
 8449POPC   C4B38230  13.582   4.891   7.355
 8450POPC   NC338231  43.872  33.846   5.555
 8450POPC   PO438232  43.843  33.844   5.855
 8450POPC   GL138233  43.934  33.768   6.155
 8450POPC   GL238234  43.840  33.738   6.155
 8450POPC   C1A38235  43.869  33.833   6.455
 8450POPC   D2A38236  43.934  33.826   6.755
 8450POPC   C3A38237  43.923  33.829   7.055
 8450POPC   C4A38238  43.914  33.795   7.355
 8450POPC   C1B38239  43.689  33.568   6.455
 8450POPC   C2B38240  43.695  33.614   6.755
 8450POPC   C3B38241  43.702  33.582   7.055
 8450POPC   C4B38242  43.705  33.632   7.355
 8451POPC   NC338243  17.504  15.161   5.555
 8451POPC   PO438244  17.495  15.160   5.855
 8451POPC   GL138245  17.462  15.172   6.155
 8451POPC   GL238246  17.588  15.286   6.155
 8451POPC   C1A38247  17.499  15.225   6.455
 8451POPC   D2A38248  17.502  15.134   6.755
 8451POPC   C3A38249  17.507  15.212   7.055
 8451POPC   C4A38250  17.499  15.221   7.355
 8451POPC   C1B38251  17.693  15.340   6.455
 8451POPC   C2B38252  17.672  15.409   6.755
 8451POPC   C3B38253  17.707  15.346   7.055
 8451POPC   C4B38254  17.653  15.377   7.355
 8452POPC   NC338255  36.930  37.642   5.555
 8452POPC   PO438256  36.900  37.698   5.855
 8452POPC   GL138257  36.949  37.713   6.155
 8452POPC   GL238258  36.787  37.643   6.155
 8452POPC   C1A38259  36.890  37.668   6.455
 8452POPC   D2A38260  36.893  37.696   6.755
 8452POPC   C3A38261  36.924  37.702   7.055
 8452POPC   C4A38262  36.862  37.631   7.355
 8452POPC   C1B38263  36.719  37.542   6.455
 8452POPC   C2B38264  36.741  37.530   6.755
 8452POPC   C3B38265  36.727  37.495   7.055
 8452POPC   C4B38266  36.719  37.504   7.355
 8453POPC   NC338267  26.024  31.504   5.555
 8453POPC   PO438268  26.040  31.423   5.855
 8453POPC   GL138269  26.048  31.482   6.155
 8453POPC   GL238270  26.118  31.383   6.155
 8453POPC   C1A38271  26.038  31.467   6.455
 8453POPC   D2A38272  26.013  31.489   6.755
 8453POPC   C3A38273  26.088  31.454   7.055
 8453POPC   C4A38274  25.994  31.461   7.355
 8453POPC   C1B38275  26.193  31.246   6.455
 8453POPC   C2B38276  26.192  31.285   6.755
 8453POPC   C3B38277  26.178  31.322   7.055
 8453POPC   C4B38278  26.233  31.247   7.355
 8454POPC   NC338279  13.670   3.590   5.555
 8454POPC   PO438280  13.656   3.539   5.855
 8454POPC   GL138281  13.673   3.504   6.155
 8454POPC   GL238282  13.581   3.412   6.155
 8454POPC   C1A38283  13.586   3.525   6.455
 8454POPC   D2A38284  13.600   3.498   6.755
 8454POPC   C3A38285  13.646   3.552   7.055
 8454POPC   C4A38286  13.672   3.551   7.355
 8454POPC   C1B38287  13.539   3.343   6.455
 8454POPC   C2B38288  13.514   3.301   6.755
 8454POPC   C3B38289  13.568   3.271   7.055
 8454POPC   C4B38290  13.553   3.349   7.355
 8455POPC   NC338291   1.944   5.825   5.555
 8455POPC   PO438292   2.016   5.848   5.855
 8455POPC   GL138293   1.987   5.841   6.155
 8455POPC   GL238294   1.860   5.956   6.155
 8455POPC   C1A38295   2.009   5.828   6.455
 8455POPC   D2A38296   1.982   5.895   6.755
 8455POPC   C3A38297   1.981   5.820   7.055
 8455POPC   C4A38298   2.032   5.917   7.355
 8455POPC   C1B38299   1.758   5.985   6.455
 8455POPC   C2B38300   1.817   6.062   6.755
 8455POPC   C3B38301   1.828   6.048   7.055
 8455POPC   C4B38302   1.837   6.067   7.355
 8456POPC   NC338303  39.273  42.384   5.555
 8456POPC   PO438304  39.222  42.328   5.855
 8456POPC   GL138305  39.248  42.298   6.155
 8456POPC   GL238306  39.166  42.382   6.155
 8456POPC   C1A38307  39.274  42.355   6.455
 8456POPC   D2A38308  39.229  42.313   6.755
 8456POPC   C3A38309  39.229  42.375   7.055
 8456POPC   C4A38310  39.201  42.355   7.355
 8456POPC   C1B38311  39.068  42.515   6.455
 8456POPC   C2B38312  39.028  42.517   6.755
 8456POPC   C3B38313  39.097  42.513   7.055
 8456POPC   C4B38314  39.096  42.557   7.355
 8457POPC   NC338315   8.928   7.433   5.555
 8457POPC   PO438316   8.989   7.453   5.855
 8457POPC   GL138317   8.950   7.441   6.155
 8457POPC   GL238318   9.046   7.496   6.155
 8457POPC   C1A38319   8.952   7.453   6.455
 8457POPC   D2A38320   8.965   7.393   6.755
 8457POPC   C3A38321   9.022   7.424   7.055
 8457POPC   C4A38322   8.970   7.453   7.355
 8457POPC   C1B38323   9.181   7.592   6.455
 8457POPC   C2B38324   9.149   7.646   6.755
 8457POPC   C3B38325   9.136   7.602   7.055
 8457POPC   C4B38326   9.143   7.615   7.355
 8458POPC   NC338327  30.716   2.727   5.555
 8458POPC   PO438328  30.689   2.797   5.855
 8458POPC   GL138329  30.713   2.751   6.155
 8458POPC   GL238330  30.741   2.632   6.155
 8458POPC   C1A38331  30.727   2.789   6.455
 8458POPC   D2A38332  30.706   2.805   6.755
 8458POPC   C3A38333  30.677   2.793   7.055
 8458POPC   C4A38334  30.661   2.731   7.355
 8458POPC   C1B38335  30.825   2.562   6.455
 8458POPC   C2B38336  30.763   2.514   6.755
 8458POPC   C3B38337  30.800   2.528   7.055
 8458POPC   C4B38338  30.763   2.555   7.355
 8459POPC   NC338339  15.919   1.224   5.555
 8459POPC   PO438340  15.955   1.208   5.855
 8459POPC   GL138341  15.965   1.228   6.155
 8459POPC   GL238342  15.923   1.123   6.155
 8459POPC   C1A38343  15.974   1.232   6.455
 8459POPC   D2A38344  15.917   1.237   6.755
 8459POPC   C3A38345  15.973   1.214   7.055
 8459POPC   C4A38346  15.915   1.186   7.355
 8459POPC   C1B38347  15.794   1.046   6.455
 8459POPC   C2B38348  15.764   1.000   6.755
 8459POPC   C3B38349  15.848   1.031   7.055
 8459POPC   C4B38350  15.831   0.966   7.355
 8460POPC   NC338351  21.368  22.134   5.555
 8460POPC   PO438352  21.347  22.200   5.855
 8460POPC   GL138353  21.371  22.182   6.155
 8460POPC   GL238354  21.333  22.259   6.155
 8460POPC   C1A38355  21.336  22.174   6.455
 8460POPC   D2A38356  21.428  22.128   6.755
 8460POPC   C3A38357  21.421  22.137   7.055
 8460POPC   C4A38358  21.380  22.115   7.355
 8460POPC   C1B38359  21.332  22.345   6.455
 8460POPC   C2B38360  21.323  22.374   6.755
 8460POPC   C3B38361  21.263  22.422   7.055
 8460POPC   C4B38362  21.292  22.436   7.355
 8461POPC   NC338363   3.539   8.218   5.555
 8461POPC   PO438364   3.558   8.235   5.855
 8461POPC   GL138365   3.500   8.149   6.155
 8461POPC   GL238366   3.499   8.292   6.155
 8461POPC   C1A38367   3.570   8.218   6.455
 8461POPC   D2A38368   3.550   8.235   6.755
 8461POPC   C3A38369   3.494   8.206   7.055
 8461POPC   C4A38370   3.589   8.182   7.355
 8461POPC   C1B38371   3.402   8.420   6.455
 8461POPC   C2B38372   3.393   8.365   6.755
 8461POPC   C3B38373   3.406   8.380   7.055
 8461POPC   C4B38374   3.378   8.410   7.355
 8462POPC   NC338375  40.745  29.953   5.555
 8462POPC   PO438376  40.822  29.893   5.855
 8462POPC   GL138377  40.739  29.943   6.155
 8462POPC   GL238378  40.705  29.773   6.155
 8462POPC   C1A38379  40.739  29.938   6.455
 8462POPC   D2A38380  40.765  29.903   6.755
 8462POPC   C3A38381  40.783  29.881   7.055
 8462POPC   C4A38382  40.781  29.917   7.355
 8462POPC   C1B38383  40.766  29.677   6.455
 8462POPC   C2B38384  40.740  29.681   6.755
 8462POPC   C3B38385  40.702  29.651   7.055
 8462POPC   C4B38386  40.692  29.642   7.355
 8463POPC   NC338387  21.353  42.370   5.555
 8463POPC   PO438388  21.390  42.363   5.855
 8463POPC   GL138389  21.356  42.298   6.155
 8463POPC   GL238390  21.495  42.277   6.155
 8463POPC   C1A38391  21.399  42.325   6.455
 8463POPC   D2A38392  21.400  42.329   6.755
 8463POPC   C3A38393  21.406  42.310   7.055
 8463POPC   C4A38394  21.347  42.338   7.355
 8463POPC   C1B38395  21.565  42.115   6.455
 8463POPC   C2B38396  21.504  42.166   6.755
 8463POPC   C3B38397  21.562  42.170   7.055
 8463POPC   C4B38398  21.497  42.085   7.355
 8464POPC   NC338399  34.561  13.659   5.555
 8464POPC   PO438400  34.540  13.619   5.855
 8464POPC   GL138401  34.530  13.657   6.155
 8464POPC   GL238402  34.484  13.664   6.155
 8464POPC   C1A38403  34.528  13.581   6.455
 8464POPC   D2A38404  34.588  13.607   6.755
 8464POPC   C3A38405  34.592  13.648   7.055
 8464POPC   C4A38406  34.624  13.587   7.355
 8464POPC   C1B38407  34.319  13.663   6.455
 8464POPC   C2B38408  34.352  13.715   6.755
 8464POPC   C3B38409  34.340  13.655   7.055
 8464POPC   C4B38410  34.342  13.698   7.355
 8465POPC   NC338411   3.538   9.733   5.555
 8465POPC   PO438412   3.541   9.724   5.855
 8465POPC   GL138413   3.542   9.751   6.155
 8465POPC   GL238414   3.530   9.910   6.155
 8465POPC   C1A38415   3.492   9.703   6.455
 8465POPC   D2A38416   3.546   9.709   6.755
 8465POPC   C3A38417   3.561   9.741   7.055
 8465POPC   C4A38418   3.534   9.753   7.355
 8465POPC   C1B38419   3.614   9.992   6.455
 8465POPC   C2B38420   3.590   9.949   6.755
 8465POPC   C3B38421   3.551   9.979   7.055
 8465POPC   C4B38422   3.588   9.959   7.355
 8466POPC   NC338423  24.465  43.118   5.555
 8466POPC   PO438424  24.461  43.132   5.855
 8466POPC   GL138425  24.480  43.129   6.155
 8466POPC   GL238426  24.370  43.257   6.155
 8466POPC   C1A38427  24.444  43.086   6.455
 8466POPC   D2A38428  24.441  43.069   6.755
 8466POPC   C3A38429  24.451  43.063   7.055
 8466POPC   C4A38430  24.490  43.066   7.355
 8466POPC   C1B38431  24.331  43.280   6.455
 8466POPC   C2B38432  24.322  43.320   6.755
 8466POPC   C3B38433  24.374  43.292   7.055
 8466POPC   C4B38434  24.373  43.272   7.355
 8467POPC   NC338435   0.391  23.738   5.555
 8467POPC   PO438436   0.424  23.708   5.855
 8467POPC   GL138437   0.475  23.750   6.155
 8467POPC   GL238438   0.400  23.809   6.155
 8467POPC   C1A38439   0.463  23.762   6.455
 8467POPC   D2A38440   0.413  23.740   6.755
 8467POPC   C3A38441   0.388  23.691   7.055
 8467POPC   C4A38442   0.420  23.734   7.355
 8467POPC   C1B38443   0.404  23.992   6.455
 8467POPC   C2B38444   0.493  23.971   6.755
 8467POPC   C3B38445   0.461  23.981   7.055
 8467POPC   C4B38446   0.453  23.954   7.355
 8468POPC   NC338447  31.473   8.984   5.555
 8468POPC   PO438448  31.480   8.954   5.855
 8468POPC   GL138449  31.432   8.973   6.155
 8468POPC   GL238450  31.591   9.015   6.155
 8468POPC   C1A38451  31.475   8.968   6.455
 8468POPC   D2A38452  31.441   8.957   6.755
 8468POPC   C3A38453  31.440   8.997   7.055
 8468POPC   C4A38454  31.502   8.983   7.355
 8468POPC   C1B38455  31.701   8.997   6.455
 8468POPC   C2B38456  31.701   9.006   6.755
 8468POPC   C3B38457  31.735   8.996   7.055
 8468POPC   C4B38458  31.671   9.032   7.355
 8469POPC   NC338459  25.280   2.772   5.555
 8469POPC   PO438460  25.253   2.722   5.855
 8469POPC   GL138461  25.260   2.756   6.155
 8469POPC   GL238462  25.153   2.716   6.155
 8469POPC   C1A38463  25.300   2.722   6.455
 8469POPC   D2A38464  25.229   2.753   6.755
 8469POPC   C3A38465  25.236   2.723   7.055
 8469POPC   C4A38466  25.247   2.791   7.355
 8469POPC   C1B38467  25.003   2.695   6.455
 8469POPC   C2B38468  25.014   2.783   6.755
 8469POPC   C3B38469  25.048   2.724   7.055
 8469POPC   C4B38470  25.060   2.766   7.355
 8470POPC   NC338471  33.794  40.023   5.555
 8470POPC   PO438472  33.820  40.020   5.855
 8470POPC   GL138473  33.780  40.030   6.155
 8470POPC   GL238474  33.955  40.029   6.155
 8470POPC   C1A38475  33.823  40.031   6.455
 8470POPC   D2A38476  33.753  40.041   6.755
 8470POPC   C3A38477  33.771  40.024   7.055
 8470POPC   C4A38478  33.780  39.974   7.355
 8470POPC   C1B38479  34.082  40.079   6.455
 8470POPC   C2B38480  34.000  40.058   6.755
 8470POPC   C3B38481  34.080  40.126   7.055
 8470POPC   C4B38482  34.002  40.130   7.355
 8471POPC   NC338483  23.739  29.142   5.555
 8471POPC   PO438484  23.742  29.194   5.855
 8471POPC   GL138485  23.694  29.167   6.155
 8471POPC   GL238486  23.587  29.119   6.155
 8471POPC   C1A38487  23.680  29.161   6.455
 8471POPC   D2A38488  23.680  29.151   6.755
 8471POPC   C3A38489  23.728  29.159   7.055
 8471POPC   C4A38490  23.691  29.195   7.355
 8471POPC   C1B38491  23.514  29.053   6.455
 8471POPC   C2B38492  23.488  29.009   6.755
 8471POPC   C3B38493  23.519  28.987   7.055
 8471POPC   C4B38494  23.542  28.965   7.355
 8472POPC   NC338495  41.586   8.162   5.555
 8472POPC   PO438496  41.578   8.241   5.855
 8472POPC   GL138497  41.597   8.147   6.155
 8472POPC   GL238498  41.498   8.318   6.155
 8472POPC   C1A38499  41.599   8.208   6.455
 8472POPC   D2A38500  41.584   8.175   6.755
 8472POPC   C3A38501  41.515   8.170   7.055
 8472POPC   C4A38502  41.526   8.166   7.355
 8472POPC   C1B38503  41.350   8.352   6.455
 8472POPC   C2B38504  41.356   8.385   6.755
 8472POPC   C3B38505  41.359   8.361   7.055
 8472POPC   C4B38506  41.410   8.342   7.355
 8473POPC   NC338507   5.081  43.927   5.555
 8473POPC   PO438508   5.061  43.839   5.855
 8473POPC   GL138509   5.048  43.847   6.155
 8473POPC   GL238510   4.981  43.895   6.155
 8473POPC   C1A38511   5.108  43.843   6.455
 8473POPC   D2A38512   5.124  43.845   6.755
 8473POPC   C3A38513   5.088  43.911   7.055
 8473POPC   C4A38514   5.123  43.929   7.355
 8473POPC   C1B38515   4.838  44.025   6.455
 8473POPC   C2B38516   4.823  43.931   6.755
 8473POPC   C3B38517   4.884  43.971   7.055
 8473POPC   C4B38518   4.815  44.015   7.355
 8474POPC   NC338519  16.706  23.680   5.555
 8474POPC   PO438520  16.720  23.667   5.855
 8474POPC   GL138521  16.732  23.715   6.155
 8474POPC   GL238522  16.638  23.600   6.155
 8474POPC   C1A38523  16.706  23.736   6.455
 8474POPC   D2A38524  16.712  23.708   6.755
 8474POPC   C3A38525  16.719  23.705   7.055
 8474POPC   C4A38526  16.733  23.723   7.355
 8474POPC   C1B38527  16.577  23.494   6.455
 8474POPC   C2B38528  16.649  23.446   6.755
 8474POPC   C3B38529  16.620  23.466   7.055
 8474POPC   C4B38530  16.576  23.526   7.355
 8475POPC   NC338531  10.486  21.364   5.555
 8475POPC   PO438532  10.552  21.370   5.855
 8475POPC   GL138533  10.475  21.355   6.155
 8475POPC   GL238534  10.569  21.219   6.155
 8475POPC   C1A38535  10.563  21.423   6.455
 8475POPC   D2A38536  10.510  21.407   6.755
 8475POPC   C3A38537  10.572  21.380   7.055
 8475POPC   C4A38538  10.480  21.349   7.355
 8475POPC   C1B38539  10.495  21.177   6.455
 8475POPC   C2B38540  10.506  21.122   6.755
 8475POPC   C3B38541  10.547  21.123   7.055
 8475POPC   C4B38542  10.521  21.183   7.355
 8476POPC   NC338543  43.143  43.934   5.555
 8476POPC   PO438544  43.145  43.846   5.855
 8476POPC   GL138545  43.097  43.894   6.155
 8476POPC   GL238546  43.198  44.035   6.155
 8476POPC   C1A38547  43.116  43.860   6.455
 8476POPC   D2A38548  43.076  43.934   6.755
 8476POPC   C3A38549  43.097  43.878   7.055
 8476POPC   C4A38550  43.144  43.877   7.355
 8476POPC   C1B38551  43.226  44.147   6.455
 8476POPC   C2B38552  43.207  44.108   6.755
 8476POPC   C3B38553  43.185  44.065   7.055
 8476POPC   C4B38554  43.185  44.069   7.355
 8477POPC   NC338555  38.472   0.406   5.555
 8477POPC   PO438556  38.489   0.419   5.855
 8477POPC   GL138557  38.460   0.421   6.155
 8477POPC   GL238558  38.561   0.343   6.155
 8477POPC   C1A38559  38.477   0.474   6.455
 8477POPC   D2A38560  38.437   0.445   6.755
 8477POPC   C3A38561  38.502   0.479   7.055
 8477POPC   C4A38562  38.418   0.432   7.355
 8477POPC   C1B38563  38.612   0.303   6.455
 8477POPC   C2B38564  38.641   0.251   6.755
 8477POPC   C3B38565  38.592   0.226   7.055
 8477POPC   C4B38566  38.654   0.212   7.355
 8478POPC   NC338567  38.425  24.440   5.555
 8478POPC   PO438568  38.453  24.499   5.855
 8478POPC   GL138569  38.405  24.508   6.155
 8478POPC   GL238570  38.591  24.608   6.155
 8478POPC   C1A38571  38.445  24.483   6.455
 8478POPC   D2A38572  38.474  24.525   6.755
 8478POPC   C3A38573  38.436  24.500   7.055
 8478POPC   C4A38574  38.482  24.494   7.355
 8478POPC   C1B38575  38.605  24.612   6.455
 8478POPC   C2B38576  38.685  24.681   6.755
 8478POPC   C3B38577  38.652  24.633   7.055
 8478POPC   C4B38578  38.687  24.612   7.355
 8479POPC   NC338579  35.347  44.699   5.555
 8479POPC   PO438580  35.384  44.663   5.855
 8479POPC   GL138581  35.390  44.651   6.155
 8479POPC   GL238582  35.294  44.562   6.155
 8479POPC   C1A38583  35.373  44.644   6.455
 8479POPC   D2A38584  35.385  44.678   6.755
 8479POPC   C3A38585  35.358  44.679   7.055
 8479POPC   C4A38586  35.367  44.661   7.355
 8479POPC   C1B38587  35.184  44.429   6.455
 8479POPC   C2B38588  35.247  44.432   6.755
 8479POPC   C3B38589  35.197  44.481   7.055
 8479POPC   C4B38590  35.257  44.458   7.355
 8480POPC   NC338591   2.733  41.532   5.555
 8480POPC   PO438592   2.800  41.539   5.855
 8480POPC   GL138593   2.728  41.512   6.155
 8480POPC   GL238594   2.648  41.491   6.155
 8480POPC   C1A38595   2.770  41.604   6.455
 8480POPC   D2A38596   2.762  41.524   6.755
 8480POPC   C3A38597   2.810  41.565   7.055
 8480POPC   C4A38598   2.744  41.541   7.355
 8480POPC   C1B38599   2.477  41.464   6.455
 8480POPC   C2B38600   2.555  41.502   6.755
 8480POPC   C3B38601   2.499  41.498   7.055
 8480POPC   C4B38602   2.515  41.495   7.355
 8481POPC   NC338603  14.397  12.812   5.555
 8481POPC   PO438604  14.389  12.885   5.855
 8481POPC   GL138605  14.435  12.814   6.155
 8481POPC   GL238606  14.337  12.756   6.155
 8481POPC   C1A38607  14.414  12.849   6.455
 8481POPC   D2A38608  14.397  12.819   6.755
 8481POPC   C3A38609  14.370  12.862   7.055
 8481POPC   C4A38610  14.384  12.819   7.355
 8481POPC   C1B38611  14.138  12.741   6.455
 8481POPC   C2B38612  14.197  12.758   6.755
 8481POPC   C3B38613  14.199  12.705   7.055
 8481POPC   C4B38614  14.210  12.742   7.355
 8482POPC   NC338615  28.330  38.462   5.555
 8482POPC   PO438616  28.388  38.497   5.855
 8482POPC   GL138617  28.362  38.425   6.155
 8482POPC   GL238618  28.291  38.430   6.155
 8482POPC   C1A38619  28.352  38.479   6.455
 8482POPC   D2A38620  28.378  38.443   6.755
 8482POPC   C3A38621  28.396  38.417   7.055
 8482POPC   C4A38622  28.412  38.470   7.355
 8482POPC   C1B38623  28.126  38.465   6.455
 8482POPC   C2B38624  28.097  38.476   6.755
 8482POPC   C3B38625  28.120  38.491   7.055
 8482POPC   C4B38626  28.106  38.474   7.355
 8483POPC   NC338627   4.344  10.503   5.555
 8483POPC   PO438628   4.366  10.504   5.855
 8483POPC   GL138629   4.364  10.573   6.155
 8483POPC   GL238630   4.366  10.424   6.155
 8483POPC   C1A38631   4.337  10.538   6.455
 8483POPC   D2A38632   4.323  10.515   6.755
 8483POPC   C3A38633   4.343  10.503   7.055
 8483POPC   C4A38634   4.314  10.552   7.355
 8483POPC   C1B38635   4.426  10.278   6.455
 8483POPC   C2B38636   4.355  10.237   6.755
 8483POPC   C3B38637   4.413  10.240   7.055
 8483POPC   C4B38638   4.359  10.299   7.355
 8484POPC   NC338639  17.485  19.819   5.555
 8484POPC   PO438640  17.524  19.825   5.855
 8484POPC   GL138641  17.467  19.863   6.155
 8484POPC   GL238642  17.412  19.856   6.155
 8484POPC   C1A38643  17.537  19.872   6.455
 8484POPC   D2A38644  17.487  19.813   6.755
 8484POPC   C3A38645  17.471  19.794   7.055
 8484POPC   C4A38646  17.469  19.840   7.355
 8484POPC   C1B38647  17.247  19.939   6.455
 8484POPC   C2B38648  17.287  19.938   6.755
 8484POPC   C3B38649  17.264  20.008   7.055
 8484POPC   C4B38650  17.306  19.933   7.355
 8485POPC   NC338651   5.918  12.898   5.555
 8485POPC   PO438652   5.888  12.872   5.855
 8485POPC   GL138653   5.834  12.876   6.155
 8485POPC   GL238654   5.864  12.699   6.155
 8485POPC   C1A38655   5.826  12.885   6.455
 8485POPC   D2A38656   5.912  12.826   6.755
 8485POPC   C3A38657   5.859  12.812   7.055
 8485POPC   C4A38658   5.837  12.880   7.355
 8485POPC   C1B38659   5.847  12.651   6.455
 8485POPC   C2B38660   5.936  12.623   6.755
 8485POPC   C3B38661   5.847  12.632   7.055
 8485POPC   C4B38662   5.896  12.633   7.355
 8486POPC   NC338663  15.181  21.365   5.555
 8486POPC   PO438664  15.191  21.401   5.855
 8486POPC   GL138665  15.154  21.371   6.155
 8486POPC   GL238666  15.120  21.417   6.155
 8486POPC   C1A38667  15.145  21.338   6.455
 8486POPC   D2A38668  15.172  21.381   6.755
 8486POPC   C3A38669  15.224  21.356   7.055
 8486POPC   C4A38670  15.196  21.358   7.355
 8486POPC   C1B38671  14.963  21.480   6.455
 8486POPC   C2B38672  14.984  21.565   6.755
 8486POPC   C3B38673  15.016  21.517   7.055
 8486POPC   C4B38674  14.989  21.550   7.355
 8487POPC   NC338675  25.261  42.296   5.555
 8487POPC   PO438676  25.314  42.285   5.855
 8487POPC   GL138677  25.230  42.368   6.155
 8487POPC   GL238678  25.145  42.342   6.155
 8487POPC   C1A38679  25.222  42.307   6.455
 8487POPC   D2A38680  25.298  42.294   6.755
 8487POPC   C3A38681  25.237  42.337   7.055
 8487POPC   C4A38682  25.262  42.341   7.355
 8487POPC   C1B38683  24.975  42.332   6.455
 8487POPC   C2B38684  25.014  42.407   6.755
 8487POPC   C3B38685  25.035  42.369   7.055
 8487POPC   C4B38686  24.997  42.360   7.355
 8488POPC   NC338687  37.647  25.246   5.555
 8488POPC   PO438688  37.650  25.242   5.855
 8488POPC   GL138689  37.677  25.283   6.155
 8488POPC   GL238690  37.583  25.190   6.155
 8488POPC   C1A38691  37.657  25.286   6.455
 8488POPC   D2A38692  37.655  25.242   6.755
 8488POPC   C3A38693  37.665  25.217   7.055
 8488POPC   C4A38694  37.723  25.222   7.355
 8488POPC   C1B38695  37.570  25.081   6.455
 8488POPC   C2B38696  37.583  24.996   6.755
 8488POPC   C3B38697  37.531  25.047   7.055
 8488POPC   C4B38698  37.551  25.074   7.355
 8489POPC   NC338699  34.603   0.463   5.555
 8489POPC   PO438700  34.588   0.401   5.855
 8489POPC   GL138701  34.562   0.419   6.155
 8489POPC   GL238702  34.736   0.442   6.155
 8489POPC   C1A38703  34.566   0.458   6.455
 8489POPC   D2A38704  34.527   0.432   6.755
 8489POPC   C3A38705  34.562   0.409   7.055
 8489POPC   C4A38706  34.589   0.439   7.355
 8489POPC   C1B38707  34.797   0.467   6.455
 8489POPC   C2B38708  34.821   0.417   6.755
 8489POPC   C3B38709  34.849   0.479   7.055
 8489POPC   C4B38710  34.790   0.478   7.355
 8490POPC   NC338711  13.626  12.868   5.555
 8490POPC   PO438712  13.655  12.878   5.855
 8490POPC   GL138713  13.673  12.830   6.155
 8490POPC   GL238714  13.652  12.757   6.155
 8490POPC   C1A38715  13.651  12.862   6.455
 8490POPC   D2A38716  13.634  12.868   6.755
 8490POPC   C3A38717  13.666  12.876   7.055
 8490POPC   C4A38718  13.628  12.826   7.355
 8490POPC   C1B38719  13.768  12.594   6.455
 8490POPC   C2B38720  13.724  12.655   6.755
 8490POPC   C3B38721  13.789  12.618   7.055
 8490POPC   C4B38722  13.787  12.684   7.355
 8491POPC   NC338723  20.614  43.933   5.555
 8491POPC   PO438724  20.574  43.866   5.855
 8491POPC   GL138725  20.593  43.901   6.155
 8491POPC   GL238726  20.692  43.781   6.155
 8491POPC   C1A38727  20.586  43.873   6.455
 8491POPC   D2A38728  20.653  43.877   6.755
 8491POPC   C3A38729  20.581  43.920   7.055
 8491POPC   C4A38730  20.577  43.898   7.355
 8491POPC   C1B38731  20.842  43.698   6.455
 8491POPC   C2B38732  20.792  43.751   6.755
 8491POPC   C3B38733  20.859  43.708   7.055
 8491POPC   C4B38734  20.852  43.710   7.355
 8492POPC   NC338735  15.962  33.842   5.555
 8492POPC   PO438736  15.906  33.793   5.855
 8492POPC   GL138737  15.947  33.756   6.155
 8492POPC   GL238738  15.982  33.656   6.155
 8492POPC   C1A38739  15.996  33.822   6.455
 8492POPC   D2A38740  15.996  33.787   6.755
 8492POPC   C3A38741  15.938  33.813   7.055
 8492POPC   C4A38742  15.984  33.836   7.355
 8492POPC   C1B38743  16.082  33.584   6.455
 8492POPC   C2B38744  16.081  33.571   6.755
 8492POPC   C3B38745  16.122  33.596   7.055
 8492POPC   C4B38746  16.068  33.619   7.355
 8493POPC   NC338747   5.855  33.020   5.555
 8493POPC   PO438748   5.897  33.034   5.855
 8493POPC   GL138749   5.822  33.042   6.155
 8493POPC   GL238750   5.984  32.973   6.155
 8493POPC   C1A38751   5.860  33.047   6.455
 8493POPC   D2A38752   5.879  33.019   6.755
 8493POPC   C3A38753   5.913  33.035   7.055
 8493POPC   C4A38754   5.851  32.981   7.355
 8493POPC   C1B38755   6.054  32.855   6.455
 8493POPC   C2B38756   6.070  32.828   6.755
 8493POPC   C3B38757   6.086  32.841   7.055
 8493POPC   C4B38758   6.043  32.855   7.355
 8494POPC   NC338759  43.902  40.044   5.555
 8494POPC   PO438760  43.880  40.041   5.855
 8494POPC   GL138761  43.925  39.960   6.155
 8494POPC   GL238762  43.780  39.966   6.155
 8494POPC   C1A38763  43.872  40.005   6.455
 8494POPC   D2A38764  43.860  40.055   6.755
 8494POPC   C3A38765  43.868  40.028   7.055
 8494POPC   C4A38766  43.923  40.021   7.355
 8494POPC   C1B38767  43.699  39.883   6.455
 8494POPC   C2B38768  43.668  39.927   6.755
 8494POPC   C3B38769  43.705  39.910   7.055
 8494POPC   C4B38770  43.673  39.891   7.355
 8495POPC   NC338771  30.686  43.857   5.555
 8495POPC   PO438772  30.728  43.893   5.855
 8495POPC   GL138773  30.712  43.933   6.155
 8495POPC   GL238774  30.748  43.803   6.155
 8495POPC   C1A38775  30.705  43.883   6.455
 8495POPC   D2A38776  30.703  43.917   6.755
 8495POPC   C3A38777  30.714  43.870   7.055
 8495POPC   C4A38778  30.732  43.896   7.355
 8495POPC   C1B38779  30.835  43.693   6.455
 8495POPC   C2B38780  30.867  43.707   6.755
 8495POPC   C3B38781  30.870  43.765   7.055
 8495POPC   C4B38782  30.909  43.684   7.355
 8496POPC   NC338783  13.593   8.156   5.555
 8496POPC   PO438784  13.659   8.225   5.855
 8496POPC   GL138785  13.632   8.228   6.155
 8496POPC   GL238786  13.688   8.287   6.155
 8496POPC   C1A38787  13.654   8.230   6.455
 8496POPC   D2A38788  13.658   8.177   6.755
 8496POPC   C3A38789  13.617   8.212   7.055
 8496POPC   C4A38790  13.589   8.149   7.355
 8496POPC   C1B38791  13.708   8.488   6.455
 8496POPC   C2B38792  13.688   8.424   6.755
 8496POPC   C3B38793  13.698   8.481   7.055
 8496POPC   C4B38794  13.634   8.454   7.355
 8497POPC   NC338795  32.274  26.829   5.555
 8497POPC   PO438796  32.241  26.841   5.855
 8497POPC   GL138797  32.203  26.833   6.155
 8497POPC   GL238798  32.179  26.743   6.155
 8497POPC   C1A38799  32.296  26.802   6.455
 8497POPC   D2A38800  32.218  26.859   6.755
 8497POPC   C3A38801  32.271  26.830   7.055
 8497POPC   C4A38802  32.219  26.864   7.355
 8497POPC   C1B38803  31.986  26.685   6.455
 8497POPC   C2B38804  32.050  26.671   6.755
 8497POPC   C3B38805  32.070  26.736   7.055
 8497POPC   C4B38806  31.992  26.725   7.355
 8498POPC   NC338807  44.644   8.158   5.555
 8498POPC   PO438808  44.627   8.184   5.855
 8498POPC   GL138809  44.646   8.180   6.155
 8498POPC   GL238810  44.734   8.180   6.155
 8498POPC   C1A38811  44.640   8.239   6.455
 8498POPC   D2A38812  44.642   8.204   6.755
 8498POPC   C3A38813  44.679   8.239   7.055
 8498POPC   C4A38814  44.682   8.230   7.355
 8498POPC   C1B38815  44.898   8.133   6.455
 8498POPC   C2B38816  44.863   8.075   6.755
 8498POPC   C3B38817  44.871   8.151   7.055
 8498POPC   C4B38818  44.874   8.065   7.355
 8499POPC   NC338819  10.546   0.441   5.555
 8499POPC   PO438820  10.528   0.485   5.855
 8499POPC   GL138821  10.513   0.459   6.155
 8499POPC   GL238822  10.430   0.459   6.155
 8499POPC   C1A38823  10.526   0.447   6.455
 8499POPC   D2A38824  10.487   0.438   6.755
 8499POPC   C3A38825  10.563   0.418   7.055
 8499POPC   C4A38826  10.525   0.450   7.355
 8499POPC   C1B38827  10.266   0.495   6.455
 8499POPC   C2B38828  10.231   0.484   6.755
 8499POPC   C3B38829  10.268   0.429   7.055
 8499POPC   C4B38830  10.247   0.408   7.355
 8500POPC   NC338831   4.315   7.440   5.555
 8500POPC   PO438832   4.312   7.439   5.855
 8500POPC   GL138833   4.285   7.401   6.155
 8500POPC   GL238834   4.408   7.448   6.155
 8500POPC   C1A38835   4.366   7.460   6.455
 8500POPC   D2A38836   4.279   7.430   6.755
 8500POPC   C3A38837   4.300   7.409   7.055
 8500POPC   C4A38838   4.363   7.421   7.355
 8500POPC   C1B38839   4.508   7.483   6.455
 8500POPC   C2B38840   4.574   7.491   6.755
 8500POPC   C3B38841   4.537   7.538   7.055
 8500POPC   C4B38842   4.506   7.540   7.355
 8501POPC   NC338843   7.419   3.561   5.555
 8501POPC   PO438844   7.379   3.509   5.855
 8501POPC   GL138845   7.411   3.585   6.155
 8501POPC   GL238846   7.455   3.468   6.155
 8501POPC   C1A38847   7.384   3.517   6.455
 8501POPC   D2A38848   7.450   3.534   6.755
 8501POPC   C3A38849   7.405   3.572   7.055
 8501POPC   C4A38850   7.428   3.567   7.355
 8501POPC   C1B38851   7.567   3.350   6.455
 8501POPC   C2B38852   7.549   3.280   6.755
 8501POPC   C3B38853   7.506   3.311   7.055
 8501POPC   C4B38854   7.485   3.289   7.355
 8502POPC   NC338855  20.614  36.899   5.555
 8502POPC   PO438856  20.583  36.923   5.855
 8502POPC   GL138857  20.602  36.913   6.155
 8502POPC   GL238858  20.715  36.902   6.155
 8502POPC   C1A38859  20.561  36.910   6.455
 8502POPC   D2A38860  20.644  36.950   6.755
 8502POPC   C3A38861  20.626  36.858   7.055
 8502POPC   C4A38862  20.598  36.926   7.355
 8502POPC   C1B38863  20.848  36.965   6.455
 8502POPC   C2B38864  20.836  36.910   6.755
 8502POPC   C3B38865  20.896  36.896   7.055
 8502POPC   C4B38866  20.873  36.922   7.355
 8503POPC   NC338867  22.962  25.245   5.555
 8503POPC   PO438868  22.895  25.315   5.855
 8503POPC   GL138869  22.914  25.250   6.155
 8503POPC   GL238870  22.978  25.177   6.155
 8503POPC   C1A38871  22.978  25.250   6.455
 8503POPC   D2A38872  22.951  25.224   6.755
 8503POPC   C3A38873  22.986  25.298   7.055
 8503POPC   C4A38874  22.968  25.292   7.355
 8503POPC   C1B38875  23.033  25.063   6.455
 8503POPC   C2B38876  23.088  25.050   6.755
 8503POPC   C3B38877  23.101  25.100   7.055
 8503POPC   C4B38878  23.059  25.073   7.355
 8504POPC   NC338879  41.570  33.776   5.555
 8504POPC   PO438880  41.532  33.777   5.855
 8504POPC   GL138881  41.565  33.796   6.155
 8504POPC   GL238882  41.560  33.643   6.155
 8504POPC   C1A38883  41.606  33.848   6.455
 8504POPC   D2A38884  41.569  33.807   6.755
 8504POPC   C3A38885  41.523  33.783   7.055
 8504POPC   C4A38886  41.555  33.799   7.355
 8504POPC   C1B38887  41.508  33.554   6.455
 8504POPC   C2B38888  41.563  33.524   6.755
 8504POPC   C3B38889  41.517  33.564   7.055
 8504POPC   C4B38890  41.552  33.594   7.355
 8505POPC   NC338891  12.103  11.270   5.555
 8505POPC   PO438892  12.072  11.346   5.855
 8505POPC   GL138893  12.116  11.275   6.155
 8505POPC   GL238894  11.952  11.250   6.155
 8505POPC   C1A38895  12.109  11.286   6.455
 8505POPC   D2A38896  12.046  11.294   6.755
 8505POPC   C3A38897  12.098  11.266   7.055
 8505POPC   C4A38898  12.123  11.271   7.355
 8505POPC   C1B38899  11.861  11.222   6.455
 8505POPC   C2B38900  11.816  11.243   6.755
 8505POPC   C3B38901  11.810  11.197   7.055
 8505POPC   C4B38902  11.840  11.158   7.355
 8506POPC   NC338903  10.511  11.252   5.555
 8506POPC   PO438904  10.571  11.301   5.855
 8506POPC   GL138905  10.505  11.253   6.155
 8506POPC   GL238906  10.395  11.311   6.155
 8506POPC   C1A38907  10.552  11.300   6.455
 8506POPC   D2A38908  10.531  11.347   6.755
 8506POPC   C3A38909  10.561  11.346   7.055
 8506POPC   C4A38910  10.555  11.281   7.355
 8506POPC   C1B38911  10.288  11.360   6.455
 8506POPC   C2B38912  10.303  11.395   6.755
 8506POPC   C3B38913  10.318  11.342   7.055
 8506POPC   C4B38914  10.250  11.380   7.355
 8507POPC   NC338915  39.243  39.229   5.555
 8507POPC   PO438916  39.232  39.255   5.855
 8507POPC   GL138917  39.211  39.225   6.155
 8507POPC   GL238918  39.264  39.120   6.155
 8507POPC   C1A38919  39.244  39.260   6.455
 8507POPC   D2A38920  39.195  39.271   6.755
 8507POPC   C3A38921  39.245  39.262   7.055
 8507POPC   C4A38922  39.249  39.260   7.355
 8507POPC   C1B38923  39.348  39.031   6.455
 8507POPC   C2B38924  39.315  39.028   6.755
 8507POPC   C3B38925  39.344  39.003   7.055
 8507POPC   C4B38926  39.378  38.989   7.355
 8508POPC   NC338927  36.101  26.077   5.555
 8508POPC   PO438928  36.095  26.071   5.855
 8508POPC   GL138929  36.080  26.017   6.155
 8508POPC   GL238930  36.195  25.906   6.155
 8508POPC   C1A38931  36.127  26.073   6.455
 8508POPC   D2A38932  36.112  26.086   6.755
 8508POPC   C3A38933  36.113  25.997   7.055
 8508POPC   C4A38934  36.081  26.031   7.355
 8508POPC   C1B38935  36.184  25.807   6.455
 8508POPC   C2B38936  36.188  25.794   6.755
 8508POPC   C3B38937  36.158  25.823   7.055
 8508POPC   C4B38938  36.134  25.794   7.355
 8509POPC   NC338939  33.039  11.299   5.555
 8509POPC   PO438940  33.041  11.336   5.855
 8509POPC   GL138941  32.998  11.278   6.155
 8509POPC   GL238942  32.970  11.252   6.155
 8509POPC   C1A38943  32.975  11.284   6.455
 8509POPC   D2A38944  33.048  11.326   6.755
 8509POPC   C3A38945  32.994  11.272   7.055
 8509POPC   C4A38946  33.031  11.297   7.355
 8509POPC   C1B38947  32.841  11.172   6.455
 8509POPC   C2B38948  32.872  11.126   6.755
 8509POPC   C3B38949  32.793  11.117   7.055
 8509POPC   C4B38950  32.830  11.174   7.355
 8510POPC   NC338951  40.766   0.486   5.555
 8510POPC   PO438952  40.769   0.450   5.855
 8510POPC   GL138953  40.753   0.411   6.155
 8510POPC   GL238954  40.936   0.369   6.155
 8510POPC   C1A38955  40.778   0.438   6.455
 8510POPC   D2A38956  40.770   0.422   6.755
 8510POPC   C3A38957  40.747   0.484   7.055
 8510POPC   C4A38958  40.803   0.456   7.355
 8510POPC   C1B38959  41.030   0.360   6.455
 8510POPC   C2B38960  40.961   0.378   6.755
 8510POPC   C3B38961  40.989   0.375   7.055
 8510POPC   C4B38962  41.026   0.313   7.355
 8511POPC   NC338963   8.940  39.209   5.555
 8511POPC   PO438964   8.928  39.246   5.855
 8511POPC   GL138965   8.958  39.183   6.155
 8511POPC   GL238966   8.916  39.147   6.155
 8511POPC   C1A38967   8.985  39.269   6.455
 8511POPC   D2A38968   8.939  39.270   6.755
 8511POPC   C3A38969   8.974  39.260   7.055
 8511POPC   C4A38970   9.010  39.184   7.355
 8511POPC   C1B38971   8.752  39.069   6.455
 8511POPC   C2B38972   8.822  39.111   6.755
 8511POPC   C3B38973   8.739  39.043   7.055
 8511POPC   C4B38974   8.777  39.061   7.355
 8512POPC   NC338975  38.462  37.646   5.555
 8512POPC   PO438976  38.408  37.707   5.855
 8512POPC   GL138977  38.463  37.701   6.155
 8512POPC   GL238978  38.543  37.774   6.155
 8512POPC   C1A38979  38.481  37.648   6.455
 8512POPC   D2A38980  38.456  37.697   6.755
 8512POPC   C3A38981  38.504  37.709   7.055
 8512POPC   C4A38982  38.429  37.726   7.355
 8512POPC   C1B38983  38.571  37.910   6.455
 8512POPC   C2B38984  38.598  37.852   6.755
 8512POPC   C3B38985  38.590  37.847   7.055
 8512POPC   C4B38986  38.609  37.885   7.355
 8513POPC   NC338987  34.623  39.183   5.555
 8513POPC   PO438988  34.528  39.234   5.855
 8513POPC   GL138989  34.625  39.206   6.155
 8513POPC   GL238990  34.681  39.307   6.155
 8513POPC   C1A38991  34.569  39.188   6.455
 8513POPC   D2A38992  34.578  39.226   6.755
 8513POPC   C3A38993  34.624  39.233   7.055
 8513POPC   C4A38994  34.624  39.193   7.355
 8513POPC   C1B38995  34.819  39.313   6.455
 8513POPC   C2B38996  34.794  39.344   6.755
 8513POPC   C3B38997  34.804  39.397   7.055
 8513POPC   C4B38998  34.810  39.318   7.355
 8514POPC   NC338999   8.938  11.337   5.555
 8514POPC   PO439000   8.955  11.315   5.855
 8514POPC   GL139001   9.004  11.281   6.155
 8514POPC   GL239002   8.865  11.275   6.155
 8514POPC   C1A39003   8.928  11.259   6.455
 8514POPC   D2A39004   9.004  11.295   6.755
 8514POPC   C3A39005   8.942  11.308   7.055
 8514POPC   C4A39006   8.994  11.347   7.355
 8514POPC   C1B39007   8.720  11.199   6.455
 8514POPC   C2B39008   8.769  11.187   6.755
 8514POPC   C3B39009   8.789  11.235   7.055
 8514POPC   C4B39010   8.746  11.244   7.355
 8515POPC   NC339011  41.577  24.525   5.555
 8515POPC   PO439012  41.566  24.447   5.855
 8515POPC   GL139013  41.548  24.522   6.155
 8515POPC   GL239014  41.700  24.516   6.155
 8515POPC   C1A39015  41.555  24.528   6.455
 8515POPC   D2A39016  41.552  24.530   6.755
 8515POPC   C3A39017  41.602  24.479   7.055
 8515POPC   C4A39018  41.509  24.479   7.355
 8515POPC   C1B39019  41.778  24.582   6.455
 8515POPC   C2B39020  41.820  24.554   6.755
 8515POPC   C3B39021  41.761  24.565   7.055
 8515POPC   C4B39022  41.777  24.599   7.355
 8516POPC   NC339023  16.760  15.986   5.555
 8516POPC   PO439024  16.694  15.906   5.855
 8516POPC   GL139025  16.686  15.933   6.155
 8516POPC   GL239026  16.815  16.016   6.155
 8516POPC   C1A39027  16.708  15.921   6.455
 8516POPC   D2A39028  16.777  15.945   6.755
 8516POPC   C3A39029  16.718  15.987   7.055
 8516POPC   C4A39030  16.735  15.946   7.355
 8516POPC   C1B39031  16.966  16.102   6.455
 8516POPC   C2B39032  16.961  16.107   6.755
 8516POPC   C3B39033  16.947  16.100   7.055
 8516POPC   C4B39034  16.872  16.131   7.355
 8517POPC   NC339035  38.450  42.304   5.555
 8517POPC   PO439036  38.495  42.350   5.855
 8517POPC   GL139037  38.476  42.306   6.155
 8517POPC   GL239038  38.439  42.173   6.155
 8517POPC   C1A39039  38.419  42.359   6.455
 8517POPC   D2A39040  38.482  42.377   6.755
 8517POPC   C3A39041  38.455  42.315   7.055
 8517POPC   C4A39042  38.431  42.377   7.355
 8517POPC   C1B39043  38.335  42.050   6.455
 8517POPC   C2B39044  38.378  42.108   6.755
 8517POPC   C3B39045  38.413  42.112   7.055
 8517POPC   C4B39046  38.360  42.107   7.355
 8518POPC   NC339047  15.925  21.435   5.555
 8518POPC   PO439048  15.927  21.357   5.855
 8518POPC   GL139049  15.983  21.405   6.155
 8518POPC   GL239050  16.024  21.532   6.155
 8518POPC   C1A39051  15.954  21.415   6.455
 8518POPC   D2A39052  15.971  21.349   6.755
 8518POPC   C3A39053  15.931  21.380   7.055
 8518POPC   C4A39054  15.964  21.343   7.355
 8518POPC   C1B39055  16.043  21.640   6.455
 8518POPC   C2B39056  16.036  21.611   6.755
 8518POPC   C3B39057  16.018  21.641   7.055
 8518POPC   C4B39058  16.010  21.661   7.355
 8519POPC   NC339059  19.013  12.869   5.555
 8519POPC   PO439060  19.073  12.877   5.855
 8519POPC   GL139061  19.024  12.866   6.155
 8519POPC   GL239062  19.125  12.769   6.155
 8519POPC   C1A39063  19.012  12.860   6.455
 8519POPC   D2A39064  19.077  12.882   6.755
 8519POPC   C3A39065  19.021  12.869   7.055
 8519POPC   C4A39066  19.045  12.884   7.355
 8519POPC   C1B39067  19.070  12.568   6.455
 8519POPC   C2B39068  19.068  12.651   6.755
 8519POPC   C3B39069  19.075  12.621   7.055
 8519POPC   C4B39070  19.075  12.583   7.355
 8520POPC   NC339071  25.242  31.474   5.555
 8520POPC   PO439072  25.249  31.505   5.855
 8520POPC   GL139073  25.273  31.489   6.155
 8520POPC   GL239074  25.330  31.362   6.155
 8520POPC   C1A39075  25.274  31.436   6.455
 8520POPC   D2A39076  25.256  31.431   6.755
 8520POPC   C3A39077  25.293  31.492   7.055
 8520POPC   C4A39078  25.245  31.469   7.355
 8520POPC   C1B39079  25.423  31.230   6.455
 8520POPC   C2B39080  25.420  31.313   6.755
 8520POPC   C3B39081  25.377  31.283   7.055
 8520POPC   C4B39082  25.465  31.304   7.355
 8521POPC   NC339083  19.093  42.377   5.555
 8521POPC   PO439084  19.074  42.320   5.855
 8521POPC   GL139085  19.065  42.356   6.155
 8521POPC   GL239086  19.148  42.191   6.155
 8521POPC   C1A39087  19.043  42.300   6.455
 8521POPC   D2A39088  19.049  42.377   6.755
 8521POPC   C3A39089  19.049  42.322   7.055
 8521POPC   C4A39090  19.024  42.294   7.355
 8521POPC   C1B39091  19.171  42.109   6.455
 8521POPC   C2B39092  19.224  42.174   6.755
 8521POPC   C3B39093  19.168  42.166   7.055
 8521POPC   C4B39094  19.229  42.159   7.355
 8522POPC   NC339095  11.274  34.605   5.555
 8522POPC   PO439096  11.290  34.590   5.855
 8522POPC   GL139097  11.323  34.594   6.155
 8522POPC   GL239098  11.177  34.558   6.155
 8522POPC   C1A39099  11.344  34.541   6.455
 8522POPC   D2A39100  11.278  34.578   6.755
 8522POPC   C3A39101  11.337  34.623   7.055
 8522POPC   C4A39102  11.324  34.551   7.355
 8522POPC   C1B39103  11.067  34.542   6.455
 8522POPC   C2B39104  11.025  34.574   6.755
 8522POPC   C3B39105  11.016  34.562   7.055
 8522POPC   C4B39106  11.030  34.560   7.355
 8523POPC   NC339107  22.902  27.544   5.555
 8523POPC   PO439108  22.935  27.608   5.855
 8523POPC   GL139109  22.897  27.569   6.155
 8523POPC   GL239110  22.845  27.670   6.155
 8523POPC   C1A39111  22.927  27.616   6.455
 8523POPC   D2A39112  22.931  27.549   6.755
 8523POPC   C3A39113  22.933  27.632   7.055
 8523POPC   C4A39114  22.892  27.606   7.355
 8523POPC   C1B39115  22.725  27.700   6.455
 8523POPC   C2B39116  22.706  27.634   6.755
 8523POPC   C3B39117  22.706  27.616   7.055
 8523POPC   C4B39118  22.698  27.652   7.355
 8524POPC   NC339119  22.938  14.413   5.555
 8524POPC   PO439120  22.895  14.363   5.855
 8524POPC   GL139121  22.949  14.405   6.155
 8524POPC   GL239122  22.899  14.564   6.155
 8524POPC   C1A39123  22.913  14.375   6.455
 8524POPC   D2A39124  22.979  14.419   6.755
 8524POPC   C3A39125  22.926  14.422   7.055
 8524POPC   C4A39126  22.896  14.360   7.355
 8524POPC   C1B39127  22.955  14.652   6.455
 8524POPC   C2B39128  22.891  14.607   6.755
 8524POPC   C3B39129  22.899  14.656   7.055
 8524POPC   C4B39130  22.955  14.680   7.355
 8525POPC   NC339131  25.306   1.226   5.555
 8525POPC   PO439132  25.285   1.253   5.855
 8525POPC   GL139133  25.259   1.225   6.155
 8525POPC   GL239134  25.104   1.255   6.155
 8525POPC   C1A39135  25.286   1.226   6.455
 8525POPC   D2A39136  25.265   1.264   6.755
 8525POPC   C3A39137  25.298   1.263   7.055
 8525POPC   C4A39138  25.296   1.199   7.355
 8525POPC   C1B39139  24.976   1.269   6.455
 8525POPC   C2B39140  25.061   1.240   6.755
 8525POPC   C3B39141  25.004   1.208   7.055
 8525POPC   C4B39142  25.001   1.285   7.355
 8526POPC   NC339143  35.399  28.372   5.555
 8526POPC   PO439144  35.311  28.332   5.855
 8526POPC   GL139145  35.398  28.401   6.155
 8526POPC   GL239146  35.421  28.316   6.155
 8526POPC   C1A39147  35.314  28.417   6.455
 8526POPC   D2A39148  35.302  28.404   6.755
 8526POPC   C3A39149  35.357  28.336   7.055
 8526POPC   C4A39150  35.389  28.385   7.355
 8526POPC   C1B39151  35.604  28.252   6.455
 8526POPC   C2B39152  35.593  28.284   6.755
 8526POPC   C3B39153  35.535  28.215   7.055
 8526POPC   C4B39154  35.625  28.297   7.355
 8527POPC   NC339155   8.975  33.791   5.555
 8527POPC   PO439156   9.011  33.818   5.855
 8527POPC   GL139157   8.950  33.820   6.155
 8527POPC   GL239158   9.033  33.934   6.155
 8527POPC   C1A39159   8.952  33.841   6.455
 8527POPC   D2A39160   8.937  33.820   6.755
 8527POPC   C3A39161   8.929  33.751   7.055
 8527POPC   C4A39162   8.979  33.820   7.355
 8527POPC   C1B39163   9.014  34.061   6.455
 8527POPC   C2B39164   9.010  34.087   6.755
 8527POPC   C3B39165   9.013  34.056   7.055
 8527POPC   C4B39166   9.038  34.063   7.355
 8528POPC   NC339167  44.689  35.320   5.555
 8528POPC   PO439168  44.692  35.309   5.855
 8528POPC   GL139169  44.655  35.305   6.155
 8528POPC   GL239170  44.669  35.454   6.155
 8528POPC   C1A39171  44.706  35.379   6.455
 8528POPC   D2A39172  44.704  35.353   6.755
 8528POPC   C3A39173  44.699  35.330   7.055
 8528POPC   C4A39174  44.655  35.325   7.355
 8528POPC   C1B39175  44.650  35.564   6.455
 8528POPC   C2B39176  44.620  35.548   6.755
 8528POPC   C3B39177  44.627  35.596   7.055
 8528POPC   C4B39178  44.658  35.550   7.355
 8529POPC   NC339179  21.342  34.537   5.555
 8529POPC   PO439180  21.430  34.555   5.855
 8529POPC   GL139181  21.376  34.529   6.155
 8529POPC   GL239182  21.535  34.568   6.155
 8529POPC   C1A39183  21.360  34.554   6.455
 8529POPC   D2A39184  21.375  34.536   6.755
 8529POPC   C3A39185  21.407  34.610   7.055
 8529POPC   C4A39186  21.344  34.562   7.355
 8529POPC   C1B39187  21.667  34.576   6.455
 8529POPC   C2B39188  21.629  34.531   6.755
 8529POPC   C3B39189  21.657  34.574   7.055
 8529POPC   C4B39190  21.669  34.519   7.355
 8530POPC   NC339191  29.932   8.966   5.555
 8530POPC   PO439192  29.943   8.998   5.855
 8530POPC   GL139193  29.970   8.993   6.155
 8530POPC   GL239194  29.989   8.932   6.155
 8530POPC   C1A39195  29.953   8.966   6.455
 8530POPC   D2A39196  29.887   8.933   6.755
 8530POPC   C3A39197  29.909   8.988   7.055
 8530POPC   C4A39198  29.969   8.940   7.355
 8530POPC   C1B39199  30.150   8.880   6.455
 8530POPC   C2B39200  30.162   8.886   6.755
 8530POPC   C3B39201  30.124   8.902   7.055
 8530POPC   C4B39202  30.193   8.825   7.355
 8531POPC   NC339203  36.868  13.663   5.555
 8531POPC   PO439204  36.938  13.627   5.855
 8531POPC   GL139205  36.856  13.632   6.155
 8531POPC   GL239206  36.887  13.732   6.155
 8531POPC   C1A39207  36.938  13.656   6.455
 8531POPC   D2A39208  36.933  13.637   6.755
 8531POPC   C3A39209  36.862  13.674   7.055
 8531POPC   C4A39210  36.865  13.665   7.355
 8531POPC   C1B39211  36.929  13.905   6.455
 8531POPC   C2B39212  36.924  13.922   6.755
 8531POPC   C3B39213  36.869  13.865   7.055
 8531POPC   C4B39214  36.917  13.905   7.355
 8532POPC   NC339215  18.330   1.972   5.555
 8532POPC   PO439216  18.255   1.965   5.855
 8532POPC   GL139217  18.284   2.031   6.155
 8532POPC   GL239218  18.438   2.054   6.155
 8532POPC   C1A39219  18.247   1.984   6.455
 8532POPC   D2A39220  18.305   1.956   6.755
 8532POPC   C3A39221  18.282   1.970   7.055
 8532POPC   C4A39222  18.245   2.036   7.355
 8532POPC   C1B39223  18.486   2.059   6.455
 8532POPC   C2B39224  18.466   2.121   6.755
 8532POPC   C3B39225  18.479   2.078   7.055
 8532POPC   C4B39226  18.549   2.084   7.355
 8533POPC   NC339227   8.931  38.434   5.555
 8533POPC   PO439228   8.944  38.428   5.855
 8533POPC   GL139229   8.935  38.442   6.155
 8533POPC   GL239230   9.062  38.526   6.155
 8533POPC   C1A39231   8.964  38.444   6.455
 8533POPC   D2A39232   8.973  38.439   6.755
 8533POPC   C3A39233   8.935  38.457   7.055
 8533POPC   C4A39234   8.991  38.443   7.355
 8533POPC   C1B39235   9.173  38.632   6.455
 8533POPC   C2B39236   9.119  38.587   6.755
 8533POPC   C3B39237   9.114  38.615   7.055
 8533POPC   C4B39238   9.196  38.645   7.355
 8534POPC   NC339239  37.728  23.668   5.555
 8534POPC   PO439240  37.688  23.690   5.855
 8534POPC   GL139241  37.640  23.687   6.155
 8534POPC   GL239242  37.566  23.837   6.155
 8534POPC   C1A39243  37.728  23.751   6.455
 8534POPC   D2A39244  37.727  23.744   6.755
 8534POPC   C3A39245  37.727  23.759   7.055
 8534POPC   C4A39246  37.632  23.671   7.355
 8534POPC   C1B39247  37.510  23.864   6.455
 8534POPC   C2B39248  37.563  23.946   6.755
 8534POPC   C3B39249  37.489  23.908   7.055
 8534POPC   C4B39250  37.536  23.931   7.355
 8535POPC   NC339251   5.859  34.526   5.555
 8535POPC   PO439252   5.903  34.583   5.855
 8535POPC   GL139253   5.872  34.576   6.155
 8535POPC   GL239254   5.915  34.742   6.155
 8535POPC   C1A39255   5.889  34.579   6.455
 8535POPC   D2A39256   5.893  34.610   6.755
 8535POPC   C3A39257   5.847  34.587   7.055
 8535POPC   C4A39258   5.909  34.615   7.355
 8535POPC   C1B39259   5.981  34.859   6.455
 8535POPC   C2B39260   5.938  34.787   6.755
 8535POPC   C3B39261   5.915  34.784   7.055
 8535POPC   C4B39262   5.955  34.770   7.355
 8536POPC   NC339263  32.198  12.112   5.555
 8536POPC   PO439264  32.240  12.098   5.855
 8536POPC   GL139265  32.289  12.077   6.155
 8536POPC   GL239266  32.335  12.166   6.155
 8536POPC   C1A39267  32.277  12.098   6.455
 8536POPC   D2A39268  32.296  12.060   6.755
 8536POPC   C3A39269  32.274  12.085   7.055
 8536POPC   C4A39270  32.289  12.091   7.355
 8536POPC   C1B39271  32.410  12.237   6.455
 8536POPC   C2B39272  32.411  12.269   6.755
 8536POPC   C3B39273  32.388  12.319   7.055
 8536POPC   C4B39274  32.396  12.241   7.355
 8537POPC   NC339275  10.527  43.128   5.555
 8537POPC   PO439276  10.501  43.092   5.855
 8537POPC   GL139277  10.527  43.080   6.155
 8537POPC   GL239278  10.590  43.159   6.155
 8537POPC   C1A39279  10.561  43.139   6.455
 8537POPC   D2A39280  10.496  43.139   6.755
 8537POPC   C3A39281  10.554  43.136   7.055
 8537POPC   C4A39282  10.514  43.118   7.355
 8537POPC   C1B39283  10.729  43.287   6.455
 8537POPC   C2B39284  10.755  43.242   6.755
 8537POPC   C3B39285  10.712  43.234   7.055
 8537POPC   C4B39286  10.765  43.227   7.355
 8538POPC   NC339287   7.445  43.075   5.555
 8538POPC   PO439288   7.462  43.061   5.855
 8538POPC   GL139289   7.457  43.118   6.155
 8538POPC   GL239290   7.400  42.938   6.155
 8538POPC   C1A39291   7.413  43.123   6.455
 8538POPC   D2A39292   7.404  43.083   6.755
 8538POPC   C3A39293   7.394  43.120   7.055
 8538POPC   C4A39294   7.423  43.140   7.355
 8538POPC   C1B39295   7.453  42.811   6.455
 8538POPC   C2B39296   7.458  42.902   6.755
 8538POPC   C3B39297   7.421  42.885   7.055
 8538POPC   C4B39298   7.458  42.858   7.355
 8539POPC   NC339299  26.091  28.399   5.555
 8539POPC   PO439300  26.050  28.367   5.855
 8539POPC   GL139301  26.075  28.399   6.155
 8539POPC   GL239302  25.948  28.502   6.155
 8539POPC   C1A39303  26.078  28.385   6.455
 8539POPC   D2A39304  26.012  28.387   6.755
 8539POPC   C3A39305  26.061  28.383   7.055
 8539POPC   C4A39306  26.051  28.378   7.355
 8539POPC   C1B39307  25.876  28.598   6.455
 8539POPC   C2B39308  25.936  28.537   6.755
 8539POPC   C3B39309  25.917  28.575   7.055
 8539POPC   C4B39310  25.930  28.579   7.355
 8540POPC   NC339311  19.849   0.444   5.555
 8540POPC   PO439312  19.807   0.404   5.855
 8540POPC   GL139313  19.835   0.470   6.155
 8540POPC   GL239314  19.709   0.457   6.155
 8540POPC   C1A39315  19.823   0.400   6.455
 8540POPC   D2A39316  19.865   0.416   6.755
 8540POPC   C3A39317  19.794   0.473   7.055
 8540POPC   C4A39318  19.871   0.422   7.355
 8540POPC   C1B39319  19.552   0.529   6.455
 8540POPC   C2B39320  19.626   0.473   6.755
 8540POPC   C3B39321  19.573   0.489   7.055
 8540POPC   C4B39322  19.560   0.504   7.355
 8541POPC   NC339323  35.368   0.457   5.555
 8541POPC   PO439324  35.345   0.400   5.855
 8541POPC   GL139325  35.330   0.423   6.155
 8541POPC   GL239326  35.281   0.365   6.155
 8541POPC   C1A39327  35.374   0.442   6.455
 8541POPC   D2A39328  35.319   0.465   6.755
 8541POPC   C3A39329  35.367   0.434   7.055
 8541POPC   C4A39330  35.308   0.432   7.355
 8541POPC   C1B39331  35.176   0.235   6.455
 8541POPC   C2B39332  35.141   0.244   6.755
 8541POPC   C3B39333  35.134   0.258   7.055
 8541POPC   C4B39334  35.226   0.301   7.355
 8542POPC   NC339335  33.033   0.483   5.555
 8542POPC   PO439336  33.009   0.434   5.855
 8542POPC   GL139337  33.003   0.463   6.155
 8542POPC   GL239338  33.129   0.389   6.155
 8542POPC   C1A39339  33.012   0.476   6.455
 8542POPC   D2A39340  33.026   0.460   6.755
 8542POPC   C3A39341  33.047   0.484   7.055
 8542POPC   C4A39342  32.987   0.474   7.355
 8542POPC   C1B39343  33.234   0.390   6.455
 8542POPC   C2B39344  33.223   0.401   6.755
 8542POPC   C3B39345  33.263   0.392   7.055
 8542POPC   C4B39346  33.281   0.351   7.355
 8543POPC   NC339347  12.053  38.471   5.555
 8543POPC   PO439348  12.077  38.418   5.855
 8543POPC   GL139349  12.057  38.459   6.155
 8543POPC   GL239350  12.161  38.329   6.155
 8543POPC   C1A39351  12.069  38.502   6.455
 8543POPC   D2A39352  12.057  38.413   6.755
 8543POPC   C3A39353  12.063  38.452   7.055
 8543POPC   C4A39354  12.069  38.447   7.355
 8543POPC   C1B39355  12.203  38.230   6.455
 8543POPC   C2B39356  12.229  38.312   6.755
 8543POPC   C3B39357  12.250  38.274   7.055
 8543POPC   C4B39358  12.276  38.265   7.355
 8544POPC   NC339359   8.235  39.999   5.555
 8544POPC   PO439360   8.233  39.982   5.855
 8544POPC   GL139361   8.218  39.993   6.155
 8544POPC   GL239362   8.251  39.912   6.155
 8544POPC   C1A39363   8.242  39.958   6.455
 8544POPC   D2A39364   8.175  40.051   6.755
 8544POPC   C3A39365   8.184  40.055   7.055
 8544POPC   C4A39366   8.197  39.981   7.355
 8544POPC   C1B39367   8.242  39.715   6.455
 8544POPC   C2B39368   8.182  39.787   6.755
 8544POPC   C3B39369   8.235  39.728   7.055
 8544POPC   C4B39370   8.256  39.749   7.355
 8545POPC   NC339371  15.991  19.814   5.555
 8545POPC   PO439372  16.004  19.807   5.855
 8545POPC   GL139373  15.927  19.870   6.155
 8545POPC   GL239374  16.073  19.878   6.155
 8545POPC   C1A39375  15.951  19.868   6.455
 8545POPC   D2A39376  15.970  19.871   6.755
 8545POPC   C3A39377  16.004  19.883   7.055
 8545POPC   C4A39378  15.960  19.841   7.355
 8545POPC   C1B39379  16.131  19.972   6.455
 8545POPC   C2B39380  16.161  19.930   6.755
 8545POPC   C3B39381  16.230  19.960   7.055
 8545POPC   C4B39382  16.176  19.975   7.355
 8546POPC   NC339383  30.688  44.639   5.555
 8546POPC   PO439384  30.662  44.701   5.855
 8546POPC   GL139385  30.687  44.689   6.155
 8546POPC   GL239386  30.660  44.521   6.155
 8546POPC   C1A39387  30.704  44.689   6.455
 8546POPC   D2A39388  30.667  44.657   6.755
 8546POPC   C3A39389  30.726  44.697   7.055
 8546POPC   C4A39390  30.720  44.647   7.355
 8546POPC   C1B39391  30.561  44.416   6.455
 8546POPC   C2B39392  30.635  44.412   6.755
 8546POPC   C3B39393  30.608  44.456   7.055
 8546POPC   C4B39394  30.570  44.431   7.355
 8547POPC   NC339395   8.180  30.654   5.555
 8547POPC   PO439396   8.234  30.708   5.855
 8547POPC   GL139397   8.158  30.714   6.155
 8547POPC   GL239398   8.327  30.629   6.155
 8547POPC   C1A39399   8.180  30.682   6.455
 8547POPC   D2A39400   8.201  30.692   6.755
 8547POPC   C3A39401   8.199  30.707   7.055
 8547POPC   C4A39402   8.186  30.716   7.355
 8547POPC   C1B39403   8.347  30.495   6.455
 8547POPC   C2B39404   8.400  30.536   6.755
 8547POPC   C3B39405   8.365  30.470   7.055
 8547POPC   C4B39406   8.384  30.508   7.355
 8548POPC   NC339407  32.287  39.964   5.555
 8548POPC   PO439408  32.231  40.006   5.855
 8548POPC   GL139409  32.248  40.041   6.155
 8548POPC   GL239410  32.411  40.031   6.155
 8548POPC   C1A39411  32.262  39.988   6.455
 8548POPC   D2A39412  32.268  40.038   6.755
 8548POPC   C3A39413  32.262  40.014   7.055
 8548POPC   C4A39414  32.239  40.023   7.355
 8548POPC   C1B39415  32.457  40.060   6.455
 8548POPC   C2B39416  32.473  40.043   6.755
 8548POPC   C3B39417  32.464  40.016   7.055
 8548POPC   C4B39418  32.486  40.069   7.355
 8549POPC   NC339419  31.458  39.960   5.555
 8549POPC   PO439420  31.434  40.019   5.855
 8549POPC   GL139421  31.440  39.988   6.155
 8549POPC   GL239422  31.550  39.933   6.155
 8549POPC   C1A39423  31.448  39.970   6.455
 8549POPC   D2A39424  31.510  40.015   6.755
 8549POPC   C3A39425  31.476  40.010   7.055
 8549POPC   C4A39426  31.455  40.013   7.355
 8549POPC   C1B39427  31.665  39.864   6.455
 8549POPC   C2B39428  31.637  39.860   6.755
 8549POPC   C3B39429  31.692  39.864   7.055
 8549POPC   C4B39430  31.676  39.822   7.355
 8550POPC   NC339431  28.370  44.673   5.555
 8550POPC   PO439432  28.356  44.700   5.855
 8550POPC   GL139433  28.375  44.648   6.155
 8550POPC   GL239434  28.502  44.548   6.155
 8550POPC   C1A39435  28.412  44.618   6.455
 8550POPC   D2A39436  28.380  44.702   6.755
 8550POPC   C3A39437  28.338  44.694   7.055
 8550POPC   C4A39438  28.392  44.663   7.355
 8550POPC   C1B39439  28.546  44.580   6.455
 8550POPC   C2B39440  28.615  44.499   6.755
 8550POPC   C3B39441  28.607  44.529   7.055
 8550POPC   C4B39442  28.589  44.497   7.355
 8551POPC   NC339443   4.298  16.715   5.555
 8551POPC   PO439444   4.334  16.760   5.855
 8551POPC   GL139445   4.329  16.752   6.155
 8551POPC   GL239446   4.185  16.711   6.155
 8551POPC   C1A39447   4.278  16.714   6.455
 8551POPC   D2A39448   4.354  16.752   6.755
 8551POPC   C3A39449   4.366  16.742   7.055
 8551POPC   C4A39450   4.346  16.701   7.355
 8551POPC   C1B39451   4.041  16.762   6.455
 8551POPC   C2B39452   4.088  16.800   6.755
 8551POPC   C3B39453   4.054  16.804   7.055
 8551POPC   C4B39454   4.035  16.777   7.355
 8552POPC   NC339455  12.042  36.923   5.555
 8552POPC   PO439456  12.082  36.931   5.855
 8552POPC   GL139457  12.032  36.949   6.155
 8552POPC   GL239458  11.998  36.964   6.155
 8552POPC   C1A39459  12.049  36.927   6.455
 8552POPC   D2A39460  12.110  36.904   6.755
 8552POPC   C3A39461  12.097  36.866   7.055
 8552POPC   C4A39462  12.075  36.899   7.355
 8552POPC   C1B39463  11.827  37.002   6.455
 8552POPC   C2B39464  11.880  37.053   6.755
 8552POPC   C3B39465  11.882  37.045   7.055
 8552POPC   C4B39466  11.813  37.027   7.355
 8553POPC   NC339467  19.825  22.901   5.555
 8553POPC   PO439468  19.793  22.979   5.855
 8553POPC   GL139469  19.825  22.936   6.155
 8553POPC   GL239470  19.755  22.798   6.155
 8553POPC   C1A39471  19.858  22.984   6.455
 8553POPC   D2A39472  19.825  22.930   6.755
 8553POPC   C3A39473  19.823  22.931   7.055
 8553POPC   C4A39474  19.812  22.922   7.355
 8553POPC   C1B39475  19.737  22.696   6.455
 8553POPC   C2B39476  19.695  22.713   6.755
 8553POPC   C3B39477  19.679  22.733   7.055
 8553POPC   C4B39478  19.686  22.772   7.355
 8554POPC   NC339479  40.820  38.428   5.555
 8554POPC   PO439480  40.743  38.438   5.855
 8554POPC   GL139481  40.790  38.438   6.155
 8554POPC   GL239482  40.722  38.608   6.155
 8554POPC   C1A39483  40.807  38.433   6.455
 8554POPC   D2A39484  40.752  38.419   6.755
 8554POPC   C3A39485  40.805  38.471   7.055
 8554POPC   C4A39486  40.806  38.416   7.355
 8554POPC   C1B39487  40.643  38.678   6.455
 8554POPC   C2B39488  40.662  38.713   6.755
 8554POPC   C3B39489  40.618  38.672   7.055
 8554POPC   C4B39490  40.616  38.680   7.355
 8555POPC   NC339491  40.042  35.325   5.555
 8555POPC   PO439492  40.032  35.400   5.855
 8555POPC   GL139493  40.052  35.398   6.155
 8555POPC   GL239494  40.097  35.414   6.155
 8555POPC   C1A39495  40.032  35.341   6.455
 8555POPC   D2A39496  39.992  35.313   6.755
 8555POPC   C3A39497  40.001  35.321   7.055
 8555POPC   C4A39498  39.998  35.347   7.355
 8555POPC   C1B39499  40.126  35.573   6.455
 8555POPC   C2B39500  40.149  35.539   6.755
 8555POPC   C3B39501  40.156  35.542   7.055
 8555POPC   C4B39502  40.087  35.579   7.355
 8556POPC   NC339503  36.945  39.195   5.555
 8556POPC   PO439504  36.949  39.213   5.855
 8556POPC   GL139505  36.879  39.189   6.155
 8556POPC   GL239506  37.036  39.224   6.155
 8556POPC   C1A39507  36.948  39.233   6.455
 8556POPC   D2A39508  36.870  39.235   6.755
 8556POPC   C3A39509  36.866  39.209   7.055
 8556POPC   C4A39510  36.941  39.259   7.355
 8556POPC   C1B39511  37.149  39.155   6.455
 8556POPC   C2B39512  37.136  39.097   6.755
 8556POPC   C3B39513  37.171  39.090   7.055
 8556POPC   C4B39514  37.144  39.181   7.355
 8557POPC   NC339515  14.385  39.959   5.555
 8557POPC   PO439516  14.418  40.053   5.855
 8557POPC   GL139517  14.410  39.998   6.155
 8557POPC   GL239518  14.399  40.098   6.155
 8557POPC   C1A39519  14.387  40.001   6.455
 8557POPC   D2A39520  14.452  39.961   6.755
 8557POPC   C3A39521  14.446  39.967   7.055
 8557POPC   C4A39522  14.366  39.987   7.355
 8557POPC   C1B39523  14.409  40.214   6.455
 8557POPC   C2B39524  14.477  40.254   6.755
 8557POPC   C3B39525  14.410  40.297   7.055
 8557POPC   C4B39526  14.427  40.271   7.355
 8558POPC   NC339527  26.791  12.066   5.555
 8558POPC   PO439528  26.812  12.041   5.855
 8558POPC   GL139529  26.861  12.072   6.155
 8558POPC   GL239530  26.899  11.981   6.155
 8558POPC   C1A39531  26.771  12.098   6.455
 8558POPC   D2A39532  26.784  12.063   6.755
 8558POPC   C3A39533  26.818  12.040   7.055
 8558POPC   C4A39534  26.807  12.101   7.355
 8558POPC   C1B39535  27.044  11.879   6.455
 8558POPC   C2B39536  27.052  11.934   6.755
 8558POPC   C3B39537  27.011  11.901   7.055
 8558POPC   C4B39538  27.006  11.874   7.355
 8559POPC   NC339539  36.105  36.166   5.555
 8559POPC   PO439540  36.095  36.151   5.855
 8559POPC   GL139541  36.128  36.094   6.155
 8559POPC   GL239542  35.969  36.067   6.155
 8559POPC   C1A39543  36.140  36.159   6.455
 8559POPC   D2A39544  36.080  36.102   6.755
 8559POPC   C3A39545  36.149  36.143   7.055
 8559POPC   C4A39546  36.117  36.134   7.355
 8559POPC   C1B39547  35.942  35.975   6.455
 8559POPC   C2B39548  35.885  35.965   6.755
 8559POPC   C3B39549  35.943  35.984   7.055
 8559POPC   C4B39550  35.887  35.970   7.355
 8560POPC   NC339551  14.436   8.172   5.555
 8560POPC   PO439552  14.354   8.192   5.855
 8560POPC   GL139553  14.431   8.154   6.155
 8560POPC   GL239554  14.296   8.176   6.155
 8560POPC   C1A39555  14.372   8.193   6.455
 8560POPC   D2A39556  14.433   8.217   6.755
 8560POPC   C3A39557  14.379   8.241   7.055
 8560POPC   C4A39558  14.388   8.212   7.355
 8560POPC   C1B39559  14.145   8.230   6.455
 8560POPC   C2B39560  14.150   8.250   6.755
 8560POPC   C3B39561  14.176   8.252   7.055
 8560POPC   C4B39562  14.132   8.218   7.355
 8561POPC   NC339563  29.134  29.138   5.555
 8561POPC   PO439564  29.113  29.161   5.855
 8561POPC   GL139565  29.101  29.154   6.155
 8561POPC   GL239566  29.250  29.070   6.155
 8561POPC   C1A39567  29.174  29.179   6.455
 8561POPC   D2A39568  29.112  29.096   6.755
 8561POPC   C3A39569  29.147  29.140   7.055
 8561POPC   C4A39570  29.131  29.122   7.355
 8561POPC   C1B39571  29.243  28.956   6.455
 8561POPC   C2B39572  29.261  28.968   6.755
 8561POPC   C3B39573  29.308  28.971   7.055
 8561POPC   C4B39574  29.247  28.987   7.355
 8562POPC   NC339575  33.001  36.866   5.555
 8562POPC   PO439576  33.001  36.878   5.855
 8562POPC   GL139577  33.000  36.880   6.155
 8562POPC   GL239578  33.117  36.975   6.155
 8562POPC   C1A39579  33.004  36.938   6.455
 8562POPC   D2A39580  33.046  36.889   6.755
 8562POPC   C3A39581  33.052  36.886   7.055
 8562POPC   C4A39582  33.062  36.854   7.355
 8562POPC   C1B39583  33.275  37.015   6.455
 8562POPC   C2B39584  33.226  36.955   6.755
 8562POPC   C3B39585  33.215  37.006   7.055
 8562POPC   C4B39586  33.216  36.963   7.355
 8563POPC   NC339587  38.470   5.907   5.555
 8563POPC   PO439588  38.410   5.856   5.855
 8563POPC   GL139589  38.503   5.839   6.155
 8563POPC   GL239590  38.459   5.788   6.155
 8563POPC   C1A39591  38.458   5.823   6.455
 8563POPC   D2A39592  38.451   5.864   6.755
 8563POPC   C3A39593  38.420   5.839   7.055
 8563POPC   C4A39594  38.461   5.915   7.355
 8563POPC   C1B39595  38.468   5.632   6.455
 8563POPC   C2B39596  38.469   5.627   6.755
 8563POPC   C3B39597  38.438   5.602   7.055
 8563POPC   C4B39598  38.521   5.664   7.355
 8564POPC   NC339599  36.897  33.062   5.555
 8564POPC   PO439600  36.899  33.039   5.855
 8564POPC   GL139601  36.914  32.992   6.155
 8564POPC   GL239602  37.010  33.010   6.155
 8564POPC   C1A39603  36.862  33.064   6.455
 8564POPC   D2A39604  36.873  32.987   6.755
 8564POPC   C3A39605  36.919  33.048   7.055
 8564POPC   C4A39606  36.920  32.987   7.355
 8564POPC   C1B39607  37.124  32.974   6.455
 8564POPC   C2B39608  37.124  33.007   6.755
 8564POPC   C3B39609  37.144  33.008   7.055
 8564POPC   C4B39610  37.164  32.924   7.355
 8565POPC   NC339611  15.138  14.355   5.555
 8565POPC   PO439612  15.183  14.420   5.855
 8565POPC   GL139613  15.161  14.441   6.155
 8565POPC   GL239614  15.045  14.394   6.155
 8565POPC   C1A39615  15.152  14.432   6.455
 8565POPC   D2A39616  15.194  14.419   6.755
 8565POPC   C3A39617  15.197  14.412   7.055
 8565POPC   C4A39618  15.170  14.385   7.355
 8565POPC   C1B39619  14.981  14.473   6.455
 8565POPC   C2B39620  14.915  14.488   6.755
 8565POPC   C3B39621  14.966  14.530   7.055
 8565POPC   C4B39622  14.948  14.521   7.355
 8566POPC   NC339623  30.676  32.999   5.555
 8566POPC   PO439624  30.651  33.068   5.855
 8566POPC   GL139625  30.720  33.027   6.155
 8566POPC   GL239626  30.698  32.917   6.155
 8566POPC   C1A39627  30.725  33.051   6.455
 8566POPC   D2A39628  30.700  33.032   6.755
 8566POPC   C3A39629  30.652  33.018   7.055
 8566POPC   C4A39630  30.699  33.037   7.355
 8566POPC   C1B39631  30.682  32.812   6.455
 8566POPC   C2B39632  30.665  32.798   6.755
 8566POPC   C3B39633  30.678  32.773   7.055
 8566POPC   C4B39634  30.729  32.815   7.355
 8567POPC   NC339635  39.191  39.984   5.555
 8567POPC   PO439636  39.250  40.001   5.855
 8567POPC   GL139637  39.206  39.963   6.155
 8567POPC   GL239638  39.106  40.014   6.155
 8567POPC   C1A39639  39.233  39.996   6.455
 8567POPC   D2A39640  39.219  40.034   6.755
 8567POPC   C3A39641  39.260  40.012   7.055
 8567POPC   C4A39642  39.267  40.005   7.355
 8567POPC   C1B39643  39.024  39.938   6.455
 8567POPC   C2B39644  38.981  39.893   6.755
 8567POPC   C3B39645  39.034  39.959   7.055
 8567POPC   C4B39646  38.964  39.908   7.355
 8568POPC   NC339647  41.517  44.615   5.555
 8568POPC   PO439648  41.539  44.702   5.855
 8568POPC   GL139649  41.520  44.668   6.155
 8568POPC   GL239650  41.461  44.597   6.155
 8568POPC   C1A39651  41.509  44.672   6.455
 8568POPC   D2A39652  41.513  44.616   6.755
 8568POPC   C3A39653  41.546  44.649   7.055
 8568POPC   C4A39654  41.529  44.664   7.355
 8568POPC   C1B39655  41.282  44.596   6.455
 8568POPC   C2B39656  41.362  44.647   6.755
 8568POPC   C3B39657  41.349  44.628   7.055
 8568POPC   C4B39658  41.268  44.561   7.355
 8569POPC   NC339659  15.914  18.309   5.555
 8569POPC   PO439660  15.935  18.285   5.855
 8569POPC   GL139661  15.983  18.305   6.155
 8569POPC   GL239662  16.004  18.389   6.155
 8569POPC   C1A39663  15.959  18.276   6.455
 8569POPC   D2A39664  15.925  18.298   6.755
 8569POPC   C3A39665  15.924  18.302   7.055
 8569POPC   C4A39666  15.925  18.280   7.355
 8569POPC   C1B39667  16.072  18.530   6.455
 8569POPC   C2B39668  16.061  18.567   6.755
 8569POPC   C3B39669  16.064  18.533   7.055
 8569POPC   C4B39670  16.038  18.545   7.355
 8570POPC   NC339671  12.871   5.854   5.555
 8570POPC   PO439672  12.817   5.876   5.855
 8570POPC   GL139673  12.834   5.905   6.155
 8570POPC   GL239674  12.740   5.797   6.155
 8570POPC   C1A39675  12.876   5.889   6.455
 8570POPC   D2A39676  12.807   5.876   6.755
 8570POPC   C3A39677  12.872   5.819   7.055
 8570POPC   C4A39678  12.859   5.831   7.355
 8570POPC   C1B39679  12.706   5.630   6.455
 8570POPC   C2B39680  12.707   5.707   6.755
 8570POPC   C3B39681  12.686   5.704   7.055
 8570POPC   C4B39682  12.685   5.687   7.355
 8571POPC   NC339683   2.006   2.720   5.555
 8571POPC   PO439684   2.035   2.788   5.855
 8571POPC   GL139685   1.984   2.753   6.155
 8571POPC   GL239686   2.004   2.663   6.155
 8571POPC   C1A39687   1.978   2.813   6.455
 8571POPC   D2A39688   1.974   2.815   6.755
 8571POPC   C3A39689   1.996   2.808   7.055
 8571POPC   C4A39690   2.037   2.745   7.355
 8571POPC   C1B39691   2.056   2.567   6.455
 8571POPC   C2B39692   2.081   2.544   6.755
 8571POPC   C3B39693   2.051   2.540   7.055
 8571POPC   C4B39694   2.082   2.570   7.355
 8572POPC   NC339695   7.386  22.196   5.555
 8572POPC   PO439696   7.425  22.138   5.855
 8572POPC   GL139697   7.456  22.139   6.155
 8572POPC   GL239698   7.564  22.266   6.155
 8572POPC   C1A39699   7.390  22.168   6.455
 8572POPC   D2A39700   7.410  22.114   6.755
 8572POPC   C3A39701   7.430  22.184   7.055
 8572POPC   C4A39702   7.378  22.162   7.355
 8572POPC   C1B39703   7.579  22.345   6.455
 8572POPC   C2B39704   7.634  22.340   6.755
 8572POPC   C3B39705   7.611  22.358   7.055
 8572POPC   C4B39706   7.596  22.290   7.355
 8573POPC   NC339707  28.398   1.176   5.555
 8573POPC   PO439708  28.368   1.246   5.855
 8573POPC   GL139709  28.355   1.189   6.155
 8573POPC   GL239710  28.299   1.271   6.155
 8573POPC   C1A39711  28.361   1.217   6.455
 8573POPC   D2A39712  28.389   1.226   6.755
 8573POPC   C3A39713  28.364   1.206   7.055
 8573POPC   C4A39714  28.331   1.253   7.355
 8573POPC   C1B39715  28.210   1.411   6.455
 8573POPC   C2B39716  28.224   1.355   6.755
 8573POPC   C3B39717  28.195   1.443   7.055
 8573POPC   C4B39718  28.201   1.358   7.355
 8574POPC   NC339719  31.513  34.578   5.555
 8574POPC   PO439720  31.512  34.559   5.855
 8574POPC   GL139721  31.507  34.580   6.155
 8574POPC   GL239722  31.431  34.456   6.155
 8574POPC   C1A39723  31.426  34.596   6.455
 8574POPC   D2A39724  31.431  34.533   6.755
 8574POPC   C3A39725  31.474  34.547   7.055
 8574POPC   C4A39726  31.435  34.600   7.355
 8574POPC   C1B39727  31.419  34.338   6.455
 8574POPC   C2B39728  31.365  34.372   6.755
 8574POPC   C3B39729  31.406  34.366   7.055
 8574POPC   C4B39730  31.373  34.298   7.355
 8575POPC   NC339731   4.280   1.952   5.555
 8575POPC   PO439732   4.345   1.962   5.855
 8575POPC   GL139733   4.283   1.998   6.155
 8575POPC   GL239734   4.350   2.078   6.155
 8575POPC   C1A39735   4.282   1.948   6.455
 8575POPC   D2A39736   4.289   1.948   6.755
 8575POPC   C3A39737   4.268   2.022   7.055
 8575POPC   C4A39738   4.306   2.007   7.355
 8575POPC   C1B39739   4.352   2.277   6.455
 8575POPC   C2B39740   4.356   2.242   6.755
 8575POPC   C3B39741   4.391   2.189   7.055
 8575POPC   C4B39742   4.388   2.216   7.355
 8576POPC   NC339743  11.322  43.919   5.555
 8576POPC   PO439744  11.291  43.871   5.855
 8576POPC   GL139745  11.297  43.883   6.155
 8576POPC   GL239746  11.355  43.763   6.155
 8576POPC   C1A39747  11.329  43.900   6.455
 8576POPC   D2A39748  11.262  43.853   6.755
 8576POPC   C3A39749  11.286  43.875   7.055
 8576POPC   C4A39750  11.277  43.876   7.355
 8576POPC   C1B39751  11.326  43.609   6.455
 8576POPC   C2B39752  11.384  43.600   6.755
 8576POPC   C3B39753  11.360  43.633   7.055
 8576POPC   C4B39754  11.304  43.624   7.355
 8577POPC   NC339755   2.728  17.485   5.555
 8577POPC   PO439756   2.790  17.463   5.855
 8577POPC   GL139757   2.739  17.493   6.155
 8577POPC   GL239758   2.614  17.517   6.155
 8577POPC   C1A39759   2.740  17.530   6.455
 8577POPC   D2A39760   2.770  17.470   6.755
 8577POPC   C3A39761   2.776  17.538   7.055
 8577POPC   C4A39762   2.773  17.528   7.355
 8577POPC   C1B39763   2.551  17.497   6.455
 8577POPC   C2B39764   2.495  17.566   6.755
 8577POPC   C3B39765   2.507  17.517   7.055
 8577POPC   C4B39766   2.469  17.499   7.355
 8578POPC   NC339767   2.787   8.925   5.555
 8578POPC   PO439768   2.812   8.990   5.855
 8578POPC   GL139769   2.721   8.994   6.155
 8578POPC   GL239770   2.753   9.044   6.155
 8578POPC   C1A39771   2.812   8.997   6.455
 8578POPC   D2A39772   2.803   8.948   6.755
 8578POPC   C3A39773   2.812   8.966   7.055
 8578POPC   C4A39774   2.720   8.992   7.355
 8578POPC   C1B39775   2.643   9.237   6.455
 8578POPC   C2B39776   2.629   9.186   6.755
 8578POPC   C3B39777   2.674   9.186   7.055
 8578POPC   C4B39778   2.654   9.180   7.355
 8579POPC   NC339779  20.586   3.502   5.555
 8579POPC   PO439780  20.659   3.571   5.855
 8579POPC   GL139781  20.636   3.566   6.155
 8579POPC   GL239782  20.775   3.532   6.155
 8579POPC   C1A39783  20.657   3.538   6.455
 8579POPC   D2A39784  20.611   3.532   6.755
 8579POPC   C3A39785  20.594   3.518   7.055
 8579POPC   C4A39786  20.605   3.499   7.355
 8579POPC   C1B39787  20.860   3.646   6.455
 8579POPC   C2B39788  20.849   3.594   6.755
 8579POPC   C3B39789  20.869   3.617   7.055
 8579POPC   C4B39790  20.836   3.625   7.355
 8580POPC   NC339791  19.855  30.675   5.555
 8580POPC   PO439792  19.791  30.695   5.855
 8580POPC   GL139793  19.859  30.659   6.155
 8580POPC   GL239794  19.899  30.764   6.155
 8580POPC   C1A39795  19.788  30.667   6.455
 8580POPC   D2A39796  19.866  30.744   6.755
 8580POPC   C3A39797  19.866  30.681   7.055
 8580POPC   C4A39798  19.796  30.680   7.355
 8580POPC   C1B39799  20.003  30.910   6.455
 8580POPC   C2B39800  20.004  30.860   6.755
 8580POPC   C3B39801  20.000  30.909   7.055
 8580POPC   C4B39802  19.985  30.891   7.355
 8581POPC   NC339803  29.100   3.582   5.555
 8581POPC   PO439804  29.112   3.508   5.855
 8581POPC   GL139805  29.097   3.553   6.155
 8581POPC   GL239806  29.252   3.537   6.155
 8581POPC   C1A39807  29.179   3.521   6.455
 8581POPC   D2A39808  29.162   3.584   6.755
 8581POPC   C3A39809  29.166   3.577   7.055
 8581POPC   C4A39810  29.165   3.569   7.355
 8581POPC   C1B39811  29.363   3.493   6.455
 8581POPC   C2B39812  29.346   3.473   6.755
 8581POPC   C3B39813  29.356   3.513   7.055
 8581POPC   C4B39814  29.376   3.461   7.355
 8582POPC   NC339815  34.576   5.819   5.555
 8582POPC   PO439816  34.580   5.861   5.855
 8582POPC   GL139817  34.556   5.858   6.155
 8582POPC   GL239818  34.708   5.776   6.155
 8582POPC   C1A39819  34.558   5.912   6.455
 8582POPC   D2A39820  34.557   5.826   6.755
 8582POPC   C3A39821  34.565   5.857   7.055
 8582POPC   C4A39822  34.545   5.841   7.355
 8582POPC   C1B39823  34.830   5.818   6.455
 8582POPC   C2B39824  34.761   5.795   6.755
 8582POPC   C3B39825  34.828   5.804   7.055
 8582POPC   C4B39826  34.813   5.769   7.355
 8583POPC   NC339827  29.902  29.958   5.555
 8583POPC   PO439828  29.895  29.884   5.855
 8583POPC   GL139829  29.963  29.962   6.155
 8583POPC   GL239830  29.964  29.775   6.155
 8583POPC   C1A39831  29.904  29.921   6.455
 8583POPC   D2A39832  29.871  29.940   6.755
 8583POPC   C3A39833  29.874  29.885   7.055
 8583POPC   C4A39834  29.958  29.894   7.355
 8583POPC   C1B39835  30.031  29.693   6.455
 8583POPC   C2B39836  29.994  29.685   6.755
 8583POPC   C3B39837  30.034  29.715   7.055
 8583POPC   C4B39838  30.005  29.661   7.355
 8584POPC   NC339839   3.517  19.802   5.555
 8584POPC   PO439840   3.504  19.800   5.855
 8584POPC   GL139841   3.534  19.826   6.155
 8584POPC   GL239842   3.409  19.886   6.155
 8584POPC   C1A39843   3.551  19.849   6.455
 8584POPC   D2A39844   3.581  19.847   6.755
 8584POPC   C3A39845   3.518  19.785   7.055
 8584POPC   C4A39846   3.586  19.796   7.355
 8584POPC   C1B39847   3.258  19.905   6.455
 8584POPC   C2B39848   3.296  19.908   6.755
 8584POPC   C3B39849   3.280  19.864   7.055
 8584POPC   C4B39850   3.276  19.893   7.355
 8585POPC   NC339851   9.772   8.192   5.555
 8585POPC   PO439852   9.772   8.150   5.855
 8585POPC   GL139853   9.778   8.178   6.155
 8585POPC   GL239854   9.764   8.076   6.155
 8585POPC   C1A39855   9.792   8.177   6.455
 8585POPC   D2A39856   9.773   8.174   6.755
 8585POPC   C3A39857   9.766   8.173   7.055
 8585POPC   C4A39858   9.729   8.237   7.355
 8585POPC   C1B39859   9.818   7.948   6.455
 8585POPC   C2B39860   9.761   7.939   6.755
 8585POPC   C3B39861   9.802   7.961   7.055
 8585POPC   C4B39862   9.752   7.939   7.355
 8586POPC   NC339863  31.493   1.210   5.555
 8586POPC   PO439864  31.517   1.171   5.855
 8586POPC   GL139865  31.474   1.263   6.155
 8586POPC   GL239866  31.307   1.215   6.155
 8586POPC   C1A39867  31.509   1.220   6.455
 8586POPC   D2A39868  31.451   1.232   6.755
 8586POPC   C3A39869  31.480   1.201   7.055
 8586POPC   C4A39870  31.516   1.227   7.355
 8586POPC   C1B39871  31.207   1.147   6.455
 8586POPC   C2B39872  31.198   1.177   6.755
 8586POPC   C3B39873  31.250   1.136   7.055
 8586POPC   C4B39874  31.263   1.216   7.355
 8587POPC   NC339875  35.396  41.584   5.555
 8587POPC   PO439876  35.330  41.555   5.855
 8587POPC   GL139877  35.359  41.591   6.155
 8587POPC   GL239878  35.423  41.643   6.155
 8587POPC   C1A39879  35.311  41.569   6.455
 8587POPC   D2A39880  35.395  41.604   6.755
 8587POPC   C3A39881  35.382  41.567   7.055
 8587POPC   C4A39882  35.357  41.597   7.355
 8587POPC   C1B39883  35.569  41.700   6.455
 8587POPC   C2B39884  35.572  41.645   6.755
 8587POPC   C3B39885  35.545  41.730   7.055
 8587POPC   C4B39886  35.538  41.704   7.355
 8588POPC   NC339887   1.166  43.931   5.555
 8588POPC   PO439888   1.203  43.849   5.855
 8588POPC   GL139889   1.226  43.874   6.155
 8588POPC   GL239890   1.342  43.844   6.155
 8588POPC   C1A39891   1.225  43.883   6.455
 8588POPC   D2A39892   1.237  43.925   6.755
 8588POPC   C3A39893   1.228  43.918   7.055
 8588POPC   C4A39894   1.229  43.847   7.355
 8588POPC   C1B39895   1.404  43.764   6.455
 8588POPC   C2B39896   1.457  43.811   6.755
 8588POPC   C3B39897   1.451  43.775   7.055
 8588POPC   C4B39898   1.404  43.716   7.355
 8589POPC   NC339899  41.550   7.468   5.555
 8589POPC   PO439900  41.515   7.424   5.855
 8589POPC   GL139901  41.602   7.405   6.155
 8589POPC   GL239902  41.558   7.338   6.155
 8589POPC   C1A39903  41.606   7.406   6.455
 8589POPC   D2A39904  41.555   7.382   6.755
 8589POPC   C3A39905  41.582   7.398   7.055
 8589POPC   C4A39906  41.592   7.388   7.355
 8589POPC   C1B39907  41.484   7.133   6.455
 8589POPC   C2B39908  41.470   7.196   6.755
 8589POPC   C3B39909  41.463   7.170   7.055
 8589POPC   C4B39910  41.514   7.193   7.355
 8590POPC   NC339911  23.701  33.829   5.555
 8590POPC   PO439912  23.681  33.818   5.855
 8590POPC   GL139913  23.681  33.752   6.155
 8590POPC   GL239914  23.695  33.688   6.155
 8590POPC   C1A39915  23.687  33.781   6.455
 8590POPC   D2A39916  23.665  33.772   6.755
 8590POPC   C3A39917  23.740  33.800   7.055
 8590POPC   C4A39918  23.748  33.802   7.355
 8590POPC   C1B39919  23.770  33.600   6.455
 8590POPC   C2B39920  23.710  33.559   6.755
 8590POPC   C3B39921  23.693  33.587   7.055
 8590POPC   C4B39922  23.777  33.505   7.355
 8591POPC   NC339923  23.739  44.692   5.555
 8591POPC   PO439924  23.670  44.669   5.855
 8591POPC   GL139925  23.708  44.687   6.155
 8591POPC   GL239926  23.690  44.554   6.155
 8591POPC   C1A39927  23.672  44.693   6.455
 8591POPC   D2A39928  23.736  44.703   6.755
 8591POPC   C3A39929  23.665  44.615   7.055
 8591POPC   C4A39930  23.667  44.662   7.355
 8591POPC   C1B39931  23.641  44.459   6.455
 8591POPC   C2B39932  23.694  44.396   6.755
 8591POPC   C3B39933  23.664  44.384   7.055
 8591POPC   C4B39934  23.670  44.433   7.355
 8592POPC   NC339935  42.331  24.489   5.555
 8592POPC   PO439936  42.319  24.446   5.855
 8592POPC   GL139937  42.312  24.473   6.155
 8592POPC   GL239938  42.215  24.406   6.155
 8592POPC   C1A39939  42.364  24.527   6.455
 8592POPC   D2A39940  42.339  24.483   6.755
 8592POPC   C3A39941  42.380  24.486   7.055
 8592POPC   C4A39942  42.366  24.514   7.355
 8592POPC   C1B39943  42.102  24.380   6.455
 8592POPC   C2B39944  42.092  24.354   6.755
 8592POPC   C3B39945  42.085  24.354   7.055
 8592POPC   C4B39946  42.154  24.355   7.355
 8593POPC   NC339947   6.641  40.000   5.555
 8593POPC   PO439948   6.602  40.030   5.855
 8593POPC   GL139949   6.637  39.961   6.155
 8593POPC   GL239950   6.621  40.120   6.155
 8593POPC   C1A39951   6.657  40.042   6.455
 8593POPC   D2A39952   6.669  40.002   6.755
 8593POPC   C3A39953   6.615  39.986   7.055
 8593POPC   C4A39954   6.601  39.969   7.355
 8593POPC   C1B39955   6.596  40.270   6.455
 8593POPC   C2B39956   6.604  40.216   6.755
 8593POPC   C3B39957   6.587  40.270   7.055
 8593POPC   C4B39958   6.551  40.272   7.355
 8594POPC   NC339959  21.403   3.545   5.555
 8594POPC   PO439960  21.427   3.572   5.855
 8594POPC   GL139961  21.416   3.502   6.155
 8594POPC   GL239962  21.501   3.576   6.155
 8594POPC   C1A39963  21.343   3.570   6.455
 8594POPC   D2A39964  21.410   3.564   6.755
 8594POPC   C3A39965  21.369   3.564   7.055
 8594POPC   C4A39966  21.396   3.513   7.355
 8594POPC   C1B39967  21.634   3.575   6.455
 8594POPC   C2B39968  21.637   3.585   6.755
 8594POPC   C3B39969  21.642   3.562   7.055
 8594POPC   C4B39970  21.618   3.544   7.355
 8595POPC   NC339971  13.604  12.086   5.555
 8595POPC   PO439972  13.648  12.044   5.855
 8595POPC   GL139973  13.640  12.038   6.155
 8595POPC   GL239974  13.642  12.146   6.155
 8595POPC   C1A39975  13.603  12.067   6.455
 8595POPC   D2A39976  13.674  12.119   6.755
 8595POPC   C3A39977  13.677  12.121   7.055
 8595POPC   C4A39978  13.666  12.084   7.355
 8595POPC   C1B39979  13.750  12.315   6.455
 8595POPC   C2B39980  13.742  12.326   6.755
 8595POPC   C3B39981  13.674  12.308   7.055
 8595POPC   C4B39982  13.714  12.269   7.355
 8596POPC   NC339983  31.497  39.197   5.555
 8596POPC   PO439984  31.449  39.247   5.855
 8596POPC   GL139985  31.521  39.190   6.155
 8596POPC   GL239986  31.587  39.186   6.155
 8596POPC   C1A39987  31.483  39.273   6.455
 8596POPC   D2A39988  31.425  39.266   6.755
 8596POPC   C3A39989  31.500  39.214   7.055
 8596POPC   C4A39990  31.459  39.199   7.355
 8596POPC   C1B39991  31.761  39.239   6.455
 8596POPC   C2B39992  31.771  39.181   6.755
 8596POPC   C3B39993  31.683  39.198   7.055
 8596POPC   C4B39994  31.704  39.225   7.355
 8597POPC   NC339995   5.835  37.654   5.555
 8597POPC   PO439996   5.833  37.637   5.855
 8597POPC   GL139997   5.874  37.632   6.155
 8597POPC   GL239998   5.758  37.679   6.155
 8597POPC   C1A39999   5.897  37.702   6.455
 8597POPC   D2A40000   5.828  37.710   6.755
 8597POPC   C3A40001   5.865  37.673   7.055
 8597POPC   C4A40002   5.862  37.728   7.355
 8597POPC   C1B40003   5.589  37.671   6.455
 8597POPC   C2B40004   5.656  37.712   6.755
 8597POPC   C3B40005   5.634  37.670   7.055
 8597POPC   C4B40006   5.588  37.681   7.355
 8598POPC   NC340007  19.100  43.892   5.555
 8598POPC   PO440008  19.065  43.871   5.855
 8598POPC   GL140009  19.092  43.917   6.155
 8598POPC   GL240010  19.173  43.822   6.155
 8598POPC   C1A40011  19.045  43.907   6.455
 8598POPC   D2A40012  19.075  43.920   6.755
 8598POPC   C3A40013  19.025  43.882   7.055
 8598POPC   C4A40014  19.024  43.875   7.355
 8598POPC   C1B40015  19.276  43.776   6.455
 8598POPC   C2B40016  19.223  43.732   6.755
 8598POPC   C3B40017  19.255  43.691   7.055
 8598POPC   C4B40018  19.300  43.711   7.355
 8599POPC   NC340019  39.996  14.442   5.555
 8599POPC   PO440020  40.020  14.357   5.855
 8599POPC   GL140021  39.958  14.439   6.155
 8599POPC   GL240022  40.096  14.324   6.155
 8599POPC   C1A40023  40.050  14.357   6.455
 8599POPC   D2A40024  40.004  14.357   6.755
 8599POPC   C3A40025  40.039  14.431   7.055
 8599POPC   C4A40026  40.027  14.387   7.355
 8599POPC   C1B40027  40.269  14.298   6.455
 8599POPC   C2B40028  40.222  14.348   6.755
 8599POPC   C3B40029  40.281  14.290   7.055
 8599POPC   C4B40030  40.286  14.318   7.355
 8600POPC   NC340031  20.580   1.974   5.555
 8600POPC   PO440032  20.561   2.023   5.855
 8600POPC   GL140033  20.651   2.009   6.155
 8600POPC   GL240034  20.563   2.088   6.155
 8600POPC   C1A40035  20.618   1.998   6.455
 8600POPC   D2A40036  20.656   1.948   6.755
 8600POPC   C3A40037  20.576   1.975   7.055
 8600POPC   C4A40038  20.595   2.006   7.355
 8600POPC   C1B40039  20.462   2.179   6.455
 8600POPC   C2B40040  20.476   2.222   6.755
 8600POPC   C3B40041  20.484   2.183   7.055
 8600POPC   C4B40042  20.493   2.172   7.355
 8601POPC   NC340043  16.764  17.520   5.555
 8601POPC   PO440044  16.770  17.506   5.855
 8601POPC   GL140045  16.692  17.539   6.155
 8601POPC   GL240046  16.852  17.438   6.155
 8601POPC   C1A40047  16.771  17.459   6.455
 8601POPC   D2A40048  16.745  17.457   6.755
 8601POPC   C3A40049  16.753  17.488   7.055
 8601POPC   C4A40050  16.736  17.470   7.355
 8601POPC   C1B40051  16.919  17.430   6.455
 8601POPC   C2B40052  16.923  17.405   6.755
 8601POPC   C3B40053  16.988  17.373   7.055
 8601POPC   C4B40054  16.999  17.416   7.355
 8602POPC   NC340055  16.738   2.022   5.555
 8602POPC   PO440056  16.719   1.959   5.855
 8602POPC   GL140057  16.728   1.948   6.155
 8602POPC   GL240058  16.893   2.075   6.155
 8602POPC   C1A40059  16.718   1.974   6.455
 8602POPC   D2A40060  16.756   1.995   6.755
 8602POPC   C3A40061  16.781   2.012   7.055
 8602POPC   C4A40062  16.752   1.980   7.355
 8602POPC   C1B40063  16.995   2.054   6.455
 8602POPC   C2B40064  16.925   2.089   6.755
 8602POPC   C3B40065  16.991   2.123   7.055
 8602POPC   C4B40066  16.974   2.063   7.355
 8603POPC   NC340067  15.999   5.124   5.555
 8603POPC   PO440068  15.912   5.054   5.855
 8603POPC   GL140069  15.922   5.094   6.155
 8603POPC   GL240070  15.879   5.014   6.155
 8603POPC   C1A40071  15.992   5.055   6.455
 8603POPC   D2A40072  15.995   5.094   6.755
 8603POPC   C3A40073  15.992   5.141   7.055
 8603POPC   C4A40074  15.908   5.132   7.355
 8603POPC   C1B40075  15.735   4.958   6.455
 8603POPC   C2B40076  15.672   4.967   6.755
 8603POPC   C3B40077  15.746   4.964   7.055
 8603POPC   C4B40078  15.754   5.046   7.355
 8604POPC   NC340079   2.752  11.303   5.555
 8604POPC   PO440080   2.774  11.307   5.855
 8604POPC   GL140081   2.785  11.314   6.155
 8604POPC   GL240082   2.784  11.136   6.155
 8604POPC   C1A40083   2.790  11.308   6.455
 8604POPC   D2A40084   2.739  11.304   6.755
 8604POPC   C3A40085   2.755  11.291   7.055
 8604POPC   C4A40086   2.735  11.280   7.355
 8604POPC   C1B40087   2.817  11.051   6.455
 8604POPC   C2B40088   2.835  11.020   6.755
 8604POPC   C3B40089   2.824  11.013   7.055
 8604POPC   C4B40090   2.875  11.087   7.355
 8605POPC   NC340091  32.252   6.606   5.555
 8605POPC   PO440092  32.203   6.596   5.855
 8605POPC   GL140093  32.244   6.632   6.155
 8605POPC   GL240094  32.207   6.547   6.155
 8605POPC   C1A40095  32.283   6.688   6.455
 8605POPC   D2A40096  32.250   6.672   6.755
 8605POPC   C3A40097  32.255   6.667   7.055
 8605POPC   C4A40098  32.248   6.668   7.355
 8605POPC   C1B40099  32.129   6.458   6.455
 8605POPC   C2B40100  32.081   6.396   6.755
 8605POPC   C3B40101  32.073   6.391   7.055
 8605POPC   C4B40102  32.126   6.386   7.355
 8606POPC   NC340103  32.281  34.533   5.555
 8606POPC   PO440104  32.231  34.544   5.855
 8606POPC   GL140105  32.297  34.561   6.155
 8606POPC   GL240106  32.142  34.477   6.155
 8606POPC   C1A40107  32.232  34.610   6.455
 8606POPC   D2A40108  32.282  34.579   6.755
 8606POPC   C3A40109  32.290  34.531   7.055
 8606POPC   C4A40110  32.284  34.596   7.355
 8606POPC   C1B40111  32.152  34.392   6.455
 8606POPC   C2B40112  32.164  34.342   6.755
 8606POPC   C3B40113  32.098  34.315   7.055
 8606POPC   C4B40114  32.181  34.335   7.355
 8607POPC   NC340115  35.336   9.704   5.555
 8607POPC   PO440116  35.391   9.729   5.855
 8607POPC   GL140117  35.390   9.748   6.155
 8607POPC   GL240118  35.203   9.734   6.155
 8607POPC   C1A40119  35.361   9.743   6.455
 8607POPC   D2A40120  35.307   9.716   6.755
 8607POPC   C3A40121  35.351   9.796   7.055
 8607POPC   C4A40122  35.390   9.708   7.355
 8607POPC   C1B40123  35.069   9.733   6.455
 8607POPC   C2B40124  35.073   9.717   6.755
 8607POPC   C3B40125  35.152   9.692   7.055
 8607POPC   C4B40126  35.125   9.767   7.355
 8608POPC   NC340127  23.705  43.885   5.555
 8608POPC   PO440128  23.727  43.885   5.855
 8608POPC   GL140129  23.722  43.896   6.155
 8608POPC   GL240130  23.594  43.883   6.155
 8608POPC   C1A40131  23.723  43.931   6.455
 8608POPC   D2A40132  23.708  43.919   6.755
 8608POPC   C3A40133  23.707  43.907   7.055
 8608POPC   C4A40134  23.716  43.859   7.355
 8608POPC   C1B40135  23.510  43.832   6.455
 8608POPC   C2B40136  23.445  43.843   6.755
 8608POPC   C3B40137  23.501  43.874   7.055
 8608POPC   C4B40138  23.432  43.793   7.355
 8609POPC   NC340139  40.749  33.763   5.555
 8609POPC   PO440140  40.787  33.756   5.855
 8609POPC   GL140141  40.803  33.832   6.155
 8609POPC   GL240142  40.791  33.725   6.155
 8609POPC   C1A40143  40.800  33.762   6.455
 8609POPC   D2A40144  40.815  33.810   6.755
 8609POPC   C3A40145  40.798  33.773   7.055
 8609POPC   C4A40146  40.776  33.807   7.355
 8609POPC   C1B40147  40.866  33.593   6.455
 8609POPC   C2B40148  40.826  33.519   6.755
 8609POPC   C3B40149  40.878  33.518   7.055
 8609POPC   C4B40150  40.879  33.601   7.355
 8610POPC   NC340151  22.194  36.144   5.555
 8610POPC   PO440152  22.200  36.096   5.855
 8610POPC   GL140153  22.180  36.107   6.155
 8610POPC   GL240154  22.210  36.003   6.155
 8610POPC   C1A40155  22.116  36.131   6.455
 8610POPC   D2A40156  22.160  36.164   6.755
 8610POPC   C3A40157  22.143  36.167   7.055
 8610POPC   C4A40158  22.124  36.110   7.355
 8610POPC   C1B40159  22.372  35.912   6.455
 8610POPC   C2B40160  22.346  35.971   6.755
 8610POPC   C3B40161  22.373  35.915   7.055
 8610POPC   C4B40162  22.308  35.999   7.355
 8611POPC   NC340163  19.878  12.037   5.555
 8611POPC   PO440164  19.816  12.027   5.855
 8611POPC   GL140165  19.860  12.042   6.155
 8611POPC   GL240166  19.988  12.063   6.155
 8611POPC   C1A40167  19.797  12.104   6.455
 8611POPC   D2A40168  19.878  12.055   6.755
 8611POPC   C3A40169  19.795  12.032   7.055
 8611POPC   C4A40170  19.812  12.088   7.355
 8611POPC   C1B40171  20.121  11.987   6.455
 8611POPC   C2B40172  20.050  12.026   6.755
 8611POPC   C3B40173  20.113  12.020   7.055
 8611POPC   C4B40174  20.078  12.017   7.355
 8612POPC   NC340175   2.763  22.154   5.555
 8612POPC   PO440176   2.768  22.157   5.855
 8612POPC   GL140177   2.794  22.173   6.155
 8612POPC   GL240178   2.703  22.106   6.155
 8612POPC   C1A40179   2.811  22.173   6.455
 8612POPC   D2A40180   2.783  22.191   6.755
 8612POPC   C3A40181   2.770  22.142   7.055
 8612POPC   C4A40182   2.719  22.200   7.355
 8612POPC   C1B40183   2.557  22.084   6.455
 8612POPC   C2B40184   2.591  22.047   6.755
 8612POPC   C3B40185   2.524  22.020   7.055
 8612POPC   C4B40186   2.558  22.090   7.355
 8613POPC   NC340187  25.308  44.633   5.555
 8613POPC   PO440188  25.269  44.625   5.855
 8613POPC   GL140189  25.239  44.645   6.155
 8613POPC   GL240190  25.291  44.827   6.155
 8613POPC   C1A40191  25.309  44.632   6.455
 8613POPC   D2A40192  25.233  44.644   6.755
 8613POPC   C3A40193  25.265  44.659   7.055
 8613POPC   C4A40194  25.286  44.710   7.355
 8613POPC   C1B40195  25.307  44.914   6.455
 8613POPC   C2B40196  25.302  44.923   6.755
 8613POPC   C3B40197  25.282  44.938   7.055
 8613POPC   C4B40198  25.246  44.911   7.355
 8614POPC   NC340199  13.602  22.955   5.555
 8614POPC   PO440200  13.632  22.953   5.855
 8614POPC   GL140201  13.644  22.895   6.155
 8614POPC   GL240202  13.779  22.940   6.155
 8614POPC   C1A40203  13.585  22.932   6.455
 8614POPC   D2A40204  13.612  22.915   6.755
 8614POPC   C3A40205  13.610  22.937   7.055
 8614POPC   C4A40206  13.599  22.934   7.355
 8614POPC   C1B40207  13.857  22.967   6.455
 8614POPC   C2B40208  13.865  22.969   6.755
 8614POPC   C3B40209  13.873  22.972   7.055
 8614POPC   C4B40210  13.904  22.903   7.355
 8615POPC   NC340211  41.575  42.335   5.555
 8615POPC   PO440212  41.548  42.312   5.855
 8615POPC   GL140213  41.596  42.342   6.155
 8615POPC   GL240214  41.466  42.340   6.155
 8615POPC   C1A40215  41.587  42.294   6.455
 8615POPC   D2A40216  41.594  42.365   6.755
 8615POPC   C3A40217  41.525  42.346   7.055
 8615POPC   C4A40218  41.537  42.360   7.355
 8615POPC   C1B40219  41.341  42.295   6.455
 8615POPC   C2B40220  41.328  42.320   6.755
 8615POPC   C3B40221  41.352  42.322   7.055
 8615POPC   C4B40222  41.360  42.324   7.355
 8616POPC   NC340223  31.510  10.574   5.555
 8616POPC   PO440224  31.483  10.553   5.855
 8616POPC   GL140225  31.513  10.545   6.155
 8616POPC   GL240226  31.439  10.666   6.155
 8616POPC   C1A40227  31.457  10.504   6.455
 8616POPC   D2A40228  31.441  10.490   6.755
 8616POPC   C3A40229  31.512  10.493   7.055
 8616POPC   C4A40230  31.476  10.535   7.355
 8616POPC   C1B40231  31.306  10.674   6.455
 8616POPC   C2B40232  31.272  10.739   6.755
 8616POPC   C3B40233  31.293  10.680   7.055
 8616POPC   C4B40234  31.335  10.738   7.355
 8617POPC   NC340235  18.331  18.315   5.555
 8617POPC   PO440236  18.262  18.289   5.855
 8617POPC   GL140237  18.234  18.278   6.155
 8617POPC   GL240238  18.215  18.201   6.155
 8617POPC   C1A40239  18.236  18.241   6.455
 8617POPC   D2A40240  18.331  18.324   6.755
 8617POPC   C3A40241  18.323  18.324   7.055
 8617POPC   C4A40242  18.251  18.252   7.355
 8617POPC   C1B40243  18.065  18.182   6.455
 8617POPC   C2B40244  18.095  18.184   6.755
 8617POPC   C3B40245  18.068  18.212   7.055
 8617POPC   C4B40246  18.089  18.148   7.355
 8618POPC   NC340247  16.711  14.359   5.555
 8618POPC   PO440248  16.703  14.371   5.855
 8618POPC   GL140249  16.755  14.441   6.155
 8618POPC   GL240250  16.794  14.522   6.155
 8618POPC   C1A40251  16.751  14.366   6.455
 8618POPC   D2A40252  16.696  14.396   6.755
 8618POPC   C3A40253  16.728  14.427   7.055
 8618POPC   C4A40254  16.738  14.393   7.355
 8618POPC   C1B40255  16.821  14.608   6.455
 8618POPC   C2B40256  16.766  14.629   6.755
 8618POPC   C3B40257  16.771  14.648   7.055
 8618POPC   C4B40258  16.761  14.626   7.355
 8619POPC   NC340259  25.291  30.694   5.555
 8619POPC   PO440260  25.243  30.731   5.855
 8619POPC   GL140261  25.296  30.676   6.155
 8619POPC   GL240262  25.357  30.742   6.155
 8619POPC   C1A40263  25.223  30.676   6.455
 8619POPC   D2A40264  25.301  30.711   6.755
 8619POPC   C3A40265  25.253  30.652   7.055
 8619POPC   C4A40266  25.299  30.721   7.355
 8619POPC   C1B40267  25.492  30.678   6.455
 8619POPC   C2B40268  25.513  30.708   6.755
 8619POPC   C3B40269  25.534  30.705   7.055
 8619POPC   C4B40270  25.549  30.664   7.355
 8620POPC   NC340271  21.432   6.615   5.555
 8620POPC   PO440272  21.375   6.630   5.855
 8620POPC   GL140273  21.402   6.630   6.155
 8620POPC   GL240274  21.299   6.554   6.155
 8620POPC   C1A40275  21.431   6.669   6.455
 8620POPC   D2A40276  21.406   6.677   6.755
 8620POPC   C3A40277  21.408   6.663   7.055
 8620POPC   C4A40278  21.423   6.654   7.355
 8620POPC   C1B40279  21.133   6.570   6.455
 8620POPC   C2B40280  21.130   6.570   6.755
 8620POPC   C3B40281  21.131   6.567   7.055
 8620POPC   C4B40282  21.160   6.510   7.355
 8621POPC   NC340283  38.498  38.479   5.555
 8621POPC   PO440284  38.431  38.477   5.855
 8621POPC   GL140285  38.503  38.504   6.155
 8621POPC   GL240286  38.597  38.371   6.155
 8621POPC   C1A40287  38.449  38.485   6.455
 8621POPC   D2A40288  38.487  38.418   6.755
 8621POPC   C3A40289  38.409  38.501   7.055
 8621POPC   C4A40290  38.458  38.444   7.355
 8621POPC   C1B40291  38.650  38.331   6.455
 8621POPC   C2B40292  38.653  38.342   6.755
 8621POPC   C3B40293  38.690  38.269   7.055
 8621POPC   C4B40294  38.655  38.334   7.355
 8622POPC   NC340295  23.685  28.398   5.555
 8622POPC   PO440296  23.672  28.414   5.855
 8622POPC   GL140297  23.688  28.339   6.155
 8622POPC   GL240298  23.776  28.268   6.155
 8622POPC   C1A40299  23.743  28.397   6.455
 8622POPC   D2A40300  23.677  28.407   6.755
 8622POPC   C3A40301  23.670  28.412   7.055
 8622POPC   C4A40302  23.731  28.381   7.355
 8622POPC   C1B40303  23.727  28.084   6.455
 8622POPC   C2B40304  23.773  28.134   6.755
 8622POPC   C3B40305  23.764  28.092   7.055
 8622POPC   C4B40306  23.757  28.156   7.355
 8623POPC   NC340307  13.598  37.684   5.555
 8623POPC   PO440308  13.597  37.636   5.855
 8623POPC   GL140309  13.621  37.710   6.155
 8623POPC   GL240310  13.733  37.772   6.155
 8623POPC   C1A40311  13.587  37.724   6.455
 8623POPC   D2A40312  13.649  37.668   6.755
 8623POPC   C3A40313  13.668  37.667   7.055
 8623POPC   C4A40314  13.605  37.700   7.355
 8623POPC   C1B40315  13.791  37.924   6.455
 8623POPC   C2B40316  13.745  37.903   6.755
 8623POPC   C3B40317  13.780  37.892   7.055
 8623POPC   C4B40318  13.792  37.837   7.355
 8624POPC   NC340319   3.536  15.142   5.555
 8624POPC   PO440320   3.521  15.201   5.855
 8624POPC   GL140321   3.507  15.141   6.155
 8624POPC   GL240322   3.668  15.168   6.155
 8624POPC   C1A40323   3.531  15.211   6.455
 8624POPC   D2A40324   3.501  15.204   6.755
 8624POPC   C3A40325   3.495  15.137   7.055
 8624POPC   C4A40326   3.517  15.209   7.355
 8624POPC   C1B40327   3.766  15.176   6.455
 8624POPC   C2B40328   3.780  15.197   6.755
 8624POPC   C3B40329   3.774  15.219   7.055
 8624POPC   C4B40330   3.810  15.237   7.355
 8625POPC   NC340331   0.411  12.836   5.555
 8625POPC   PO440332   0.412  12.898   5.855
 8625POPC   GL140333   0.478  12.814   6.155
 8625POPC   GL240334   0.545  12.959   6.155
 8625POPC   C1A40335   0.414  12.898   6.455
 8625POPC   D2A40336   0.422  12.891   6.755
 8625POPC   C3A40337   0.424  12.839   7.055
 8625POPC   C4A40338   0.465  12.886   7.355
 8625POPC   C1B40339   0.525  13.101   6.455
 8625POPC   C2B40340   0.580  13.099   6.755
 8625POPC   C3B40341   0.521  13.036   7.055
 8625POPC   C4B40342   0.579  13.080   7.355
 8626POPC   NC340343  15.931  42.336   5.555
 8626POPC   PO440344  15.910  42.343   5.855
 8626POPC   GL140345  15.969  42.348   6.155
 8626POPC   GL240346  15.853  42.318   6.155
 8626POPC   C1A40347  15.923  42.330   6.455
 8626POPC   D2A40348  15.935  42.285   6.755
 8626POPC   C3A40349  15.913  42.342   7.055
 8626POPC   C4A40350  15.955  42.310   7.355
 8626POPC   C1B40351  15.735  42.287   6.455
 8626POPC   C2B40352  15.756  42.249   6.755
 8626POPC   C3B40353  15.673  42.209   7.055
 8626POPC   C4B40354  15.769  42.223   7.355
 8627POPC   NC340355  18.252  26.773   5.555
 8627POPC   PO440356  18.322  26.791   5.855
 8627POPC   GL140357  18.246  26.790   6.155
 8627POPC   GL240358  18.310  26.959   6.155
 8627POPC   C1A40359  18.246  26.814   6.455
 8627POPC   D2A40360  18.320  26.837   6.755
 8627POPC   C3A40361  18.277  26.774   7.055
 8627POPC   C4A40362  18.258  26.768   7.355
 8627POPC   C1B40363  18.371  27.024   6.455
 8627POPC   C2B40364  18.452  27.014   6.755
 8627POPC   C3B40365  18.442  26.996   7.055
 8627POPC   C4B40366  18.453  27.045   7.355
 8628POPC   NC340367  20.586  30.703   5.555
 8628POPC   PO440368  20.614  30.680   5.855
 8628POPC   GL140369  20.577  30.724   6.155
 8628POPC   GL240370  20.474  30.732   6.155
 8628POPC   C1A40371  20.626  30.728   6.455
 8628POPC   D2A40372  20.593  30.689   6.755
 8628POPC   C3A40373  20.660  30.746   7.055
 8628POPC   C4A40374  20.570  30.715   7.355
 8628POPC   C1B40375  20.441  30.857   6.455
 8628POPC   C2B40376  20.468  30.846   6.755
 8628POPC   C3B40377  20.423  30.890   7.055
 8628POPC   C4B40378  20.409  30.875   7.355
 8629POPC   NC340379  37.686  39.254   5.555
 8629POPC   PO440380  37.679  39.262   5.855
 8629POPC   GL140381  37.694  39.222   6.155
 8629POPC   GL240382  37.694  39.373   6.155
 8629POPC   C1A40383  37.715  39.278   6.455
 8629POPC   D2A40384  37.705  39.255   6.755
 8629POPC   C3A40385  37.669  39.218   7.055
 8629POPC   C4A40386  37.681  39.243   7.355
 8629POPC   C1B40387  37.647  39.463   6.455
 8629POPC   C2B40388  37.567  39.425   6.755
 8629POPC   C3B40389  37.654  39.487   7.055
 8629POPC   C4B40390  37.652  39.473   7.355
 8630POPC   NC340391  23.734   1.968   5.555
 8630POPC   PO440392  23.694   1.996   5.855
 8630POPC   GL140393  23.754   1.955   6.155
 8630POPC   GL240394  23.806   2.112   6.155
 8630POPC   C1A40395  23.673   1.985   6.455
 8630POPC   D2A40396  23.733   1.955   6.755
 8630POPC   C3A40397  23.701   1.999   7.055
 8630POPC   C4A40398  23.722   2.005   7.355
 8630POPC   C1B40399  23.897   2.220   6.455
 8630POPC   C2B40400  23.875   2.220   6.755
 8630POPC   C3B40401  23.915   2.194   7.055
 8630POPC   C4B40402  23.850   2.211   7.355
 8631POPC   NC340403  33.849  30.683   5.555
 8631POPC   PO440404  33.764  30.707   5.855
 8631POPC   GL140405  33.772  30.668   6.155
 8631POPC   GL240406  33.707  30.757   6.155
 8631POPC   C1A40407  33.833  30.710   6.455
 8631POPC   D2A40408  33.844  30.669   6.755
 8631POPC   C3A40409  33.761  30.746   7.055
 8631POPC   C4A40410  33.824  30.713   7.355
 8631POPC   C1B40411  33.535  30.822   6.455
 8631POPC   C2B40412  33.525  30.830   6.755
 8631POPC   C3B40413  33.588  30.820   7.055
 8631POPC   C4B40414  33.556  30.790   7.355
 8632POPC   NC340415   1.169   6.670   5.555
 8632POPC   PO440416   1.173   6.614   5.855
 8632POPC   GL140417   1.209   6.633   6.155
 8632POPC   GL240418   1.067   6.699   6.155
 8632POPC   C1A40419   1.212   6.607   6.455
 8632POPC   D2A40420   1.227   6.673   6.755
 8632POPC   C3A40421   1.188   6.683   7.055
 8632POPC   C4A40422   1.222   6.618   7.355
 8632POPC   C1B40423   0.979   6.712   6.455
 8632POPC   C2B40424   0.941   6.694   6.755
 8632POPC   C3B40425   1.011   6.694   7.055
 8632POPC   C4B40426   0.970   6.747   7.355
 8633POPC   NC340427   0.421   1.975   5.555
 8633POPC   PO440428   0.411   2.035   5.855
 8633POPC   GL140429   0.408   1.971   6.155
 8633POPC   GL240430   0.357   2.085   6.155
 8633POPC   C1A40431   0.452   1.979   6.455
 8633POPC   D2A40432   0.482   1.965   6.755
 8633POPC   C3A40433   0.408   1.987   7.055
 8633POPC   C4A40434   0.453   1.985   7.355
 8633POPC   C1B40435   0.235   2.144   6.455
 8633POPC   C2B40436   0.211   2.063   6.755
 8633POPC   C3B40437   0.227   2.105   7.055
 8633POPC   C4B40438   0.215   2.109   7.355
 8634POPC   NC340439  36.951  29.191   5.555
 8634POPC   PO440440  36.893  29.158   5.855
 8634POPC   GL140441  36.951  29.173   6.155
 8634POPC   GL240442  36.859  29.043   6.155
 8634POPC   C1A40443  36.899  29.099   6.455
 8634POPC   D2A40444  36.886  29.151   6.755
 8634POPC   C3A40445  36.930  29.110   7.055
 8634POPC   C4A40446  36.911  29.099   7.355
 8634POPC   C1B40447  36.784  28.872   6.455
 8634POPC   C2B40448  36.855  28.908   6.755
 8634POPC   C3B40449  36.811  28.927   7.055
 8634POPC   C4B40450  36.779  28.916   7.355
 8635POPC   NC340451  22.209  29.116   5.555
 8635POPC   PO440452  22.123  29.139   5.855
 8635POPC   GL140453  22.117  29.176   6.155
 8635POPC   GL240454  22.231  29.242   6.155
 8635POPC   C1A40455  22.191  29.163   6.455
 8635POPC   D2A40456  22.120  29.133   6.755
 8635POPC   C3A40457  22.122  29.181   7.055
 8635POPC   C4A40458  22.136  29.096   7.355
 8635POPC   C1B40459  22.193  29.425   6.455
 8635POPC   C2B40460  22.188  29.372   6.755
 8635POPC   C3B40461  22.165  29.384   7.055
 8635POPC   C4B40462  22.237  29.364   7.355
 8636POPC   NC340463  43.156  36.883   5.555
 8636POPC   PO440464  43.105  36.897   5.855
 8636POPC   GL140465  43.066  36.860   6.155
 8636POPC   GL240466  43.033  36.739   6.155
 8636POPC   C1A40467  43.072  36.937   6.455
 8636POPC   D2A40468  43.138  36.897   6.755
 8636POPC   C3A40469  43.150  36.877   7.055
 8636POPC   C4A40470  43.108  36.909   7.355
 8636POPC   C1B40471  43.020  36.696   6.455
 8636POPC   C2B40472  43.055  36.651   6.755
 8636POPC   C3B40473  43.023  36.659   7.055
 8636POPC   C4B40474  43.081  36.621   7.355
 8637POPC   NC340475  11.282  36.177   5.555
 8637POPC   PO440476  11.294  36.169   5.855
 8637POPC   GL140477  11.330  36.107   6.155
 8637POPC   GL240478  11.266  35.964   6.155
 8637POPC   C1A40479  11.331  36.121   6.455
 8637POPC   D2A40480  11.257  36.152   6.755
 8637POPC   C3A40481  11.348  36.096   7.055
 8637POPC   C4A40482  11.305  36.101   7.355
 8637POPC   C1B40483  11.299  35.844   6.455
 8637POPC   C2B40484  11.255  35.871   6.755
 8637POPC   C3B40485  11.291  35.866   7.055
 8637POPC   C4B40486  11.347  35.895   7.355
 8638POPC   NC340487   3.500   2.024   5.555
 8638POPC   PO440488   3.504   2.016   5.855
 8638POPC   GL140489   3.557   1.946   6.155
 8638POPC   GL240490   3.576   2.056   6.155
 8638POPC   C1A40491   3.586   2.016   6.455
 8638POPC   D2A40492   3.533   2.010   6.755
 8638POPC   C3A40493   3.530   2.037   7.055
 8638POPC   C4A40494   3.527   1.990   7.355
 8638POPC   C1B40495   3.701   2.155   6.455
 8638POPC   C2B40496   3.683   2.152   6.755
 8638POPC   C3B40497   3.710   2.189   7.055
 8638POPC   C4B40498   3.737   2.175   7.355
 8639POPC   NC340499   5.063  34.561   5.555
 8639POPC   PO440500   5.121  34.565   5.855
 8639POPC   GL140501   5.131  34.547   6.155
 8639POPC   GL240502   5.132  34.676   6.155
 8639POPC   C1A40503   5.059  34.602   6.455
 8639POPC   D2A40504   5.092  34.577   6.755
 8639POPC   C3A40505   5.106  34.611   7.055
 8639POPC   C4A40506   5.109  34.548   7.355
 8639POPC   C1B40507   5.245  34.795   6.455
 8639POPC   C2B40508   5.206  34.754   6.755
 8639POPC   C3B40509   5.230  34.755   7.055
 8639POPC   C4B40510   5.295  34.723   7.355
 8640POPC   NC340511  11.311   6.644   5.555
 8640POPC   PO440512  11.297   6.673   5.855
 8640POPC   GL140513  11.254   6.613   6.155
 8640POPC   GL240514  11.192   6.658   6.155
 8640POPC   C1A40515  11.328   6.654   6.455
 8640POPC   D2A40516  11.279   6.687   6.755
 8640POPC   C3A40517  11.290   6.659   7.055
 8640POPC   C4A40518  11.346   6.678   7.355
 8640POPC   C1B40519  11.069   6.685   6.455
 8640POPC   C2B40520  11.078   6.698   6.755
 8640POPC   C3B40521  11.066   6.693   7.055
 8640POPC   C4B40522  11.008   6.716   7.355
 8641POPC   NC340523   1.999   9.779   5.555
 8641POPC   PO440524   2.030   9.707   5.855
 8641POPC   GL140525   1.961   9.731   6.155
 8641POPC   GL240526   2.112   9.873   6.155
 8641POPC   C1A40527   1.944   9.761   6.455
 8641POPC   D2A40528   2.015   9.756   6.755
 8641POPC   C3A40529   1.978   9.724   7.055
 8641POPC   C4A40530   2.013   9.734   7.355
 8641POPC   C1B40531   2.202   9.918   6.455
 8641POPC   C2B40532   2.150   9.910   6.755
 8641POPC   C3B40533   2.225   9.928   7.055
 8641POPC   C4B40534   2.146   9.949   7.355
 8642POPC   NC340535   3.530  33.775   5.555
 8642POPC   PO440536   3.510  33.847   5.855
 8642POPC   GL140537   3.564  33.830   6.155
 8642POPC   GL240538   3.416  33.820   6.155
 8642POPC   C1A40539   3.520  33.773   6.455
 8642POPC   D2A40540   3.572  33.846   6.755
 8642POPC   C3A40541   3.525  33.765   7.055
 8642POPC   C4A40542   3.583  33.796   7.355
 8642POPC   C1B40543   3.272  33.879   6.455
 8642POPC   C2B40544   3.262  33.902   6.755
 8642POPC   C3B40545   3.284  33.856   7.055
 8642POPC   C4B40546   3.305  33.846   7.355
 8643POPC   NC340547  12.126  23.730   5.555
 8643POPC   PO440548  12.042  23.670   5.855
 8643POPC   GL140549  12.033  23.712   6.155
 8643POPC   GL240550  12.050  23.806   6.155
 8643POPC   C1A40551  12.036  23.741   6.455
 8643POPC   D2A40552  12.092  23.705   6.755
 8643POPC   C3A40553  12.042  23.709   7.055
 8643POPC   C4A40554  12.054  23.733   7.355
 8643POPC   C1B40555  12.085  24.012   6.455
 8643POPC   C2B40556  12.088  23.965   6.755
 8643POPC   C3B40557  12.118  23.958   7.055
 8643POPC   C4B40558  12.142  23.918   7.355
 8644POPC   NC340559  44.625  32.233   5.555
 8644POPC   PO440560  44.627  32.203   5.855
 8644POPC   GL140561  44.616  32.269   6.155
 8644POPC   GL240562  44.512  32.233   6.155
 8644POPC   C1A40563  44.625  32.257   6.455
 8644POPC   D2A40564  44.691  32.247   6.755
 8644POPC   C3A40565  44.699  32.282   7.055
 8644POPC   C4A40566  44.637  32.246   7.355
 8644POPC   C1B40567  44.434  32.209   6.455
 8644POPC   C2B40568  44.439  32.137   6.755
 8644POPC   C3B40569  44.376  32.216   7.055
 8644POPC   C4B40570  44.472  32.133   7.355
 8645POPC   NC340571  33.032  10.563   5.555
 8645POPC   PO440572  33.050  10.574   5.855
 8645POPC   GL140573  33.035  10.477   6.155
 8645POPC   GL240574  33.023  10.412   6.155
 8645POPC   C1A40575  33.065  10.513   6.455
 8645POPC   D2A40576  33.038  10.570   6.755
 8645POPC   C3A40577  33.028  10.509   7.055
 8645POPC   C4A40578  33.003  10.564   7.355
 8645POPC   C1B40579  33.015  10.322   6.455
 8645POPC   C2B40580  32.969  10.314   6.755
 8645POPC   C3B40581  33.021  10.235   7.055
 8645POPC   C4B40582  32.993  10.291   7.355
 8646POPC   NC340583   0.486  13.585   5.555
 8646POPC   PO440584   0.454  13.580   5.855
 8646POPC   GL140585   0.403  13.618   6.155
 8646POPC   GL240586   0.324  13.609   6.155
 8646POPC   C1A40587   0.409  13.611   6.455
 8646POPC   D2A40588   0.452  13.650   6.755
 8646POPC   C3A40589   0.457  13.674   7.055
 8646POPC   C4A40590   0.440  13.598   7.355
 8646POPC   C1B40591   0.220  13.691   6.455
 8646POPC   C2B40592   0.212  13.675   6.755
 8646POPC   C3B40593   0.148  13.662   7.055
 8646POPC   C4B40594   0.224  13.711   7.355
 8647POPC   NC340595  24.531  30.725   5.555
 8647POPC   PO440596  24.467  30.676   5.855
 8647POPC   GL140597  24.523  30.697   6.155
 8647POPC   GL240598  24.643  30.634   6.155
 8647POPC   C1A40599  24.443  30.718   6.455
 8647POPC   D2A40600  24.455  30.718   6.755
 8647POPC   C3A40601  24.490  30.654   7.055
 8647POPC   C4A40602  24.509  30.744   7.355
 8647POPC   C1B40603  24.694  30.609   6.455
 8647POPC   C2B40604  24.762  30.641   6.755
 8647POPC   C3B40605  24.706  30.652   7.055
 8647POPC   C4B40606  24.716  30.598   7.355
 8648POPC   NC340607  12.837  36.080   5.555
 8648POPC   PO440608  12.884  36.175   5.855
 8648POPC   GL140609  12.856  36.108   6.155
 8648POPC   GL240610  12.758  36.046   6.155
 8648POPC   C1A40611  12.805  36.085   6.455
 8648POPC   D2A40612  12.877  36.157   6.755
 8648POPC   C3A40613  12.841  36.177   7.055
 8648POPC   C4A40614  12.876  36.097   7.355
 8648POPC   C1B40615  12.646  36.035   6.455
 8648POPC   C2B40616  12.603  36.034   6.755
 8648POPC   C3B40617  12.626  36.021   7.055
 8648POPC   C4B40618  12.634  36.039   7.355
 8649POPC   NC340619  24.523  12.893   5.555
 8649POPC   PO440620  24.483  12.868   5.855
 8649POPC   GL140621  24.529  12.806   6.155
 8649POPC   GL240622  24.618  12.961   6.155
 8649POPC   C1A40623  24.484  12.820   6.455
 8649POPC   D2A40624  24.527  12.885   6.755
 8649POPC   C3A40625  24.511  12.878   7.055
 8649POPC   C4A40626  24.518  12.853   7.355
 8649POPC   C1B40627  24.668  12.985   6.455
 8649POPC   C2B40628  24.704  12.981   6.755
 8649POPC   C3B40629  24.696  13.013   7.055
 8649POPC   C4B40630  24.705  13.020   7.355
 8650POPC   NC340631   3.571  19.010   5.555
 8650POPC   PO440632   3.568  19.011   5.855
 8650POPC   GL140633   3.586  19.101   6.155
 8650POPC   GL240634   3.454  18.990   6.155
 8650POPC   C1A40635   3.537  19.069   6.455
 8650POPC   D2A40636   3.499  19.071   6.755
 8650POPC   C3A40637   3.497  19.058   7.055
 8650POPC   C4A40638   3.537  19.049   7.355
 8650POPC   C1B40639   3.447  18.877   6.455
 8650POPC   C2B40640   3.429  18.868   6.755
 8650POPC   C3B40641   3.360  18.885   7.055
 8650POPC   C4B40642   3.406  18.869   7.355
 8651POPC   NC340643  40.031  33.818   5.555
 8651POPC   PO440644  40.017  33.842   5.855
 8651POPC   GL140645  40.026  33.800   6.155
 8651POPC   GL240646  40.111  33.868   6.155
 8651POPC   C1A40647  39.998  33.795   6.455
 8651POPC   D2A40648  40.027  33.790   6.755
 8651POPC   C3A40649  39.973  33.801   7.055
 8651POPC   C4A40650  39.994  33.800   7.355
 8651POPC   C1B40651  40.245  33.929   6.455
 8651POPC   C2B40652  40.232  33.919   6.755
 8651POPC   C3B40653  40.243  33.998   7.055
 8651POPC   C4B40654  40.225  33.921   7.355
 8652POPC   NC340655   0.454  39.982   5.555
 8652POPC   PO440656   0.446  39.981   5.855
 8652POPC   GL140657   0.415  40.002   6.155
 8652POPC   GL240658   0.296  40.017   6.155
 8652POPC   C1A40659   0.467  39.992   6.455
 8652POPC   D2A40660   0.463  39.983   6.755
 8652POPC   C3A40661   0.475  40.001   7.055
 8652POPC   C4A40662   0.414  39.976   7.355
 8652POPC   C1B40663   0.174  40.111   6.455
 8652POPC   C2B40664   0.194  40.088   6.755
 8652POPC   C3B40665   0.207  40.078   7.055
 8652POPC   C4B40666   0.155  40.134   7.355
 8653POPC   NC340667  43.125  19.024   5.555
 8653POPC   PO440668  43.065  19.103   5.855
 8653POPC   GL140669  43.115  19.025   6.155
 8653POPC   GL240670  43.027  19.137   6.155
 8653POPC   C1A40671  43.062  19.094   6.455
 8653POPC   D2A40672  43.100  19.086   6.755
 8653POPC   C3A40673  43.081  19.022   7.055
 8653POPC   C4A40674  43.152  19.022   7.355
 8653POPC   C1B40675  42.872  19.249   6.455
 8653POPC   C2B40676  42.956  19.244   6.755
 8653POPC   C3B40677  42.918  19.174   7.055
 8653POPC   C4B40678  42.901  19.154   7.355
 8654POPC   NC340679  29.127  43.908   5.555
 8654POPC   PO440680  29.113  43.840   5.855
 8654POPC   GL140681  29.166  43.875   6.155
 8654POPC   GL240682  29.184  44.017   6.155
 8654POPC   C1A40683  29.174  43.863   6.455
 8654POPC   D2A40684  29.098  43.855   6.755
 8654POPC   C3A40685  29.124  43.929   7.055
 8654POPC   C4A40686  29.097  43.862   7.355
 8654POPC   C1B40687  29.302  44.051   6.455
 8654POPC   C2B40688  29.289  44.084   6.755
 8654POPC   C3B40689  29.254  44.084   7.055
 8654POPC   C4B40690  29.254  44.141   7.355
 8655POPC   NC340691  21.382  29.191   5.555
 8655POPC   PO440692  21.387  29.166   5.855
 8655POPC   GL140693  21.356  29.148   6.155
 8655POPC   GL240694  21.263  29.103   6.155
 8655POPC   C1A40695  21.338  29.183   6.455
 8655POPC   D2A40696  21.356  29.171   6.755
 8655POPC   C3A40697  21.367  29.155   7.055
 8655POPC   C4A40698  21.343  29.133   7.355
 8655POPC   C1B40699  21.167  28.992   6.455
 8655POPC   C2B40700  21.143  29.020   6.755
 8655POPC   C3B40701  21.170  29.027   7.055
 8655POPC   C4B40702  21.204  29.004   7.355
 8656POPC   NC340703   3.537   3.513   5.555
 8656POPC   PO440704   3.586   3.501   5.855
 8656POPC   GL140705   3.549   3.563   6.155
 8656POPC   GL240706   3.378   3.568   6.155
 8656POPC   C1A40707   3.567   3.517   6.455
 8656POPC   D2A40708   3.529   3.563   6.755
 8656POPC   C3A40709   3.492   3.560   7.055
 8656POPC   C4A40710   3.533   3.565   7.355
 8656POPC   C1B40711   3.297   3.496   6.455
 8656POPC   C2B40712   3.330   3.527   6.755
 8656POPC   C3B40713   3.258   3.474   7.055
 8656POPC   C4B40714   3.302   3.460   7.355
 8657POPC   NC340715   0.479  14.354   5.555
 8657POPC   PO440716   0.446  14.395   5.855
 8657POPC   GL140717   0.409  14.446   6.155
 8657POPC   GL240718   0.331  14.406   6.155
 8657POPC   C1A40719   0.479  14.401   6.455
 8657POPC   D2A40720   0.410  14.428   6.755
 8657POPC   C3A40721   0.420  14.365   7.055
 8657POPC   C4A40722   0.484  14.421   7.355
 8657POPC   C1B40723   0.208  14.276   6.455
 8657POPC   C2B40724   0.215  14.318   6.755
 8657POPC   C3B40725   0.163  14.358   7.055
 8657POPC   C4B40726   0.203  14.290   7.355
 8658POPC   NC340727   7.385  29.899   5.555
 8658POPC   PO440728   7.437  29.939   5.855
 8658POPC   GL140729   7.436  29.926   6.155
 8658POPC   GL240730   7.439  29.803   6.155
 8658POPC   C1A40731   7.375  29.915   6.455
 8658POPC   D2A40732   7.384  29.913   6.755
 8658POPC   C3A40733   7.432  29.899   7.055
 8658POPC   C4A40734   7.447  29.970   7.355
 8658POPC   C1B40735   7.374  29.666   6.455
 8658POPC   C2B40736   7.362  29.689   6.755
 8658POPC   C3B40737   7.409  29.709   7.055
 8658POPC   C4B40738   7.403  29.686   7.355
 8659POPC   NC340739  41.585  10.480   5.555
 8659POPC   PO440740  41.598  10.543   5.855
 8659POPC   GL140741  41.606  10.506   6.155
 8659POPC   GL240742  41.525  10.619   6.155
 8659POPC   C1A40743  41.562  10.554   6.455
 8659POPC   D2A40744  41.510  10.545   6.755
 8659POPC   C3A40745  41.586  10.567   7.055
 8659POPC   C4A40746  41.526  10.516   7.355
 8659POPC   C1B40747  41.549  10.798   6.455
 8659POPC   C2B40748  41.457  10.779   6.755
 8659POPC   C3B40749  41.508  10.759   7.055
 8659POPC   C4B40750  41.504  10.724   7.355
 8660POPC   NC340751  21.428   1.259   5.555
 8660POPC   PO440752  21.398   1.223   5.855
 8660POPC   GL140753  21.416   1.215   6.155
 8660POPC   GL240754  21.349   1.298   6.155
 8660POPC   C1A40755  21.431   1.246   6.455
 8660POPC   D2A40756  21.356   1.241   6.755
 8660POPC   C3A40757  21.394   1.189   7.055
 8660POPC   C4A40758  21.399   1.261   7.355
 8660POPC   C1B40759  21.305   1.441   6.455
 8660POPC   C2B40760  21.260   1.447   6.755
 8660POPC   C3B40761  21.337   1.434   7.055
 8660POPC   C4B40762  21.332   1.416   7.355
 8661POPC   NC340763  43.159   5.123   5.555
 8661POPC   PO440764  43.061   5.093   5.855
 8661POPC   GL140765  43.090   5.087   6.155
 8661POPC   GL240766  43.017   4.990   6.155
 8661POPC   C1A40767  43.130   5.110   6.455
 8661POPC   D2A40768  43.082   5.080   6.755
 8661POPC   C3A40769  43.135   5.083   7.055
 8661POPC   C4A40770  43.112   5.049   7.355
 8661POPC   C1B40771  42.911   4.908   6.455
 8661POPC   C2B40772  42.894   4.879   6.755
 8661POPC   C3B40773  42.936   4.937   7.055
 8661POPC   C4B40774  42.967   4.958   7.355
 8662POPC   NC340775  18.329  34.619   5.555
 8662POPC   PO440776  18.275  34.606   5.855
 8662POPC   GL140777  18.266  34.559   6.155
 8662POPC   GL240778  18.191  34.664   6.155
 8662POPC   C1A40779  18.270  34.548   6.455
 8662POPC   D2A40780  18.296  34.588   6.755
 8662POPC   C3A40781  18.269  34.618   7.055
 8662POPC   C4A40782  18.248  34.581   7.355
 8662POPC   C1B40783  18.153  34.746   6.455
 8662POPC   C2B40784  18.115  34.779   6.755
 8662POPC   C3B40785  18.150  34.775   7.055
 8662POPC   C4B40786  18.158  34.821   7.355
 8663POPC   NC340787  42.367  39.252   5.555
 8663POPC   PO440788  42.383  39.281   5.855
 8663POPC   GL140789  42.368  39.241   6.155
 8663POPC   GL240790  42.439  39.107   6.155
 8663POPC   C1A40791  42.330  39.240   6.455
 8663POPC   D2A40792  42.308  39.236   6.755
 8663POPC   C3A40793  42.308  39.241   7.055
 8663POPC   C4A40794  42.379  39.237   7.355
 8663POPC   C1B40795  42.446  39.012   6.455
 8663POPC   C2B40796  42.476  38.999   6.755
 8663POPC   C3B40797  42.512  39.051   7.055
 8663POPC   C4B40798  42.464  39.082   7.355
 8664POPC   NC340799   6.627  14.389   5.555
 8664POPC   PO440800   6.626  14.416   5.855
 8664POPC   GL140801   6.620  14.379   6.155
 8664POPC   GL240802   6.748  14.482   6.155
 8664POPC   C1A40803   6.650  14.411   6.455
 8664POPC   D2A40804   6.623  14.356   6.755
 8664POPC   C3A40805   6.631  14.437   7.055
 8664POPC   C4A40806   6.647  14.453   7.355
 8664POPC   C1B40807   6.892  14.514   6.455
 8664POPC   C2B40808   6.853  14.452   6.755
 8664POPC   C3B40809   6.865  14.458   7.055
 8664POPC   C4B40810   6.906  14.456   7.355
 8665POPC   NC340811   2.016  27.636   5.555
 8665POPC   PO440812   2.037  27.550   5.855
 8665POPC   GL140813   2.038  27.547   6.155
 8665POPC   GL240814   2.020  27.705   6.155
 8665POPC   C1A40815   1.981  27.546   6.455
 8665POPC   D2A40816   1.986  27.568   6.755
 8665POPC   C3A40817   2.013  27.618   7.055
 8665POPC   C4A40818   2.030  27.615   7.355
 8665POPC   C1B40819   2.088  27.857   6.455
 8665POPC   C2B40820   2.050  27.825   6.755
 8665POPC   C3B40821   2.050  27.879   7.055
 8665POPC   C4B40822   1.992  27.879   7.355
 8666POPC   NC340823  26.060  42.325   5.555
 8666POPC   PO440824  26.064  42.300   5.855
 8666POPC   GL140825  26.026  42.297   6.155
 8666POPC   GL240826  25.969  42.414   6.155
 8666POPC   C1A40827  26.068  42.318   6.455
 8666POPC   D2A40828  26.087  42.328   6.755
 8666POPC   C3A40829  26.026  42.367   7.055
 8666POPC   C4A40830  26.056  42.373   7.355
 8666POPC   C1B40831  25.931  42.497   6.455
 8666POPC   C2B40832  25.865  42.538   6.755
 8666POPC   C3B40833  25.939  42.559   7.055
 8666POPC   C4B40834  25.896  42.556   7.355
 8667POPC   NC340835   2.760  34.604   5.555
 8667POPC   PO440836   2.720  34.567   5.855
 8667POPC   GL140837   2.765  34.543   6.155
 8667POPC   GL240838   2.655  34.557   6.155
 8667POPC   C1A40839   2.739  34.553   6.455
 8667POPC   D2A40840   2.736  34.560   6.755
 8667POPC   C3A40841   2.762  34.602   7.055
 8667POPC   C4A40842   2.758  34.586   7.355
 8667POPC   C1B40843   2.524  34.431   6.455
 8667POPC   C2B40844   2.540  34.496   6.755
 8667POPC   C3B40845   2.529  34.446   7.055
 8667POPC   C4B40846   2.566  34.405   7.355
 8668POPC   NC340847  27.641  43.844   5.555
 8668POPC   PO440848  27.580  43.901   5.855
 8668POPC   GL140849  27.611  43.862   6.155
 8668POPC   GL240850  27.610  44.014   6.155
 8668POPC   C1A40851  27.565  43.877   6.455
 8668POPC   D2A40852  27.570  43.852   6.755
 8668POPC   C3A40853  27.593  43.892   7.055
 8668POPC   C4A40854  27.634  43.863   7.355
 8668POPC   C1B40855  27.675  44.119   6.455
 8668POPC   C2B40856  27.678  44.148   6.755
 8668POPC   C3B40857  27.674  44.124   7.055
 8668POPC   C4B40858  27.672  44.078   7.355
 8669POPC   NC340859  26.043  10.548   5.555
 8669POPC   PO440860  26.037  10.495   5.855
 8669POPC   GL140861  26.013  10.493   6.155
 8669POPC   GL240862  26.027  10.610   6.155
 8669POPC   C1A40863  26.061  10.501   6.455
 8669POPC   D2A40864  25.991  10.553   6.755
 8669POPC   C3A40865  26.013  10.569   7.055
 8669POPC   C4A40866  26.006  10.488   7.355
 8669POPC   C1B40867  25.909  10.745   6.455
 8669POPC   C2B40868  25.959  10.792   6.755
 8669POPC   C3B40869  25.952  10.710   7.055
 8669POPC   C4B40870  25.906  10.756   7.355
 8670POPC   NC340871  32.997  19.835   5.555
 8670POPC   PO440872  33.053  19.871   5.855
 8670POPC   GL140873  33.030  19.864   6.155
 8670POPC   GL240874  33.128  19.900   6.155
 8670POPC   C1A40875  33.053  19.802   6.455
 8670POPC   D2A40876  33.033  19.868   6.755
 8670POPC   C3A40877  32.994  19.820   7.055
 8670POPC   C4A40878  33.034  19.805   7.355
 8670POPC   C1B40879  33.146  20.010   6.455
 8670POPC   C2B40880  33.124  20.024   6.755
 8670POPC   C3B40881  33.133  20.047   7.055
 8670POPC   C4B40882  33.118  20.029   7.355
 8671POPC   NC340883  43.150  40.824   5.555
 8671POPC   PO440884  43.139  40.827   5.855
 8671POPC   GL140885  43.078  40.743   6.155
 8671POPC   GL240886  43.031  40.816   6.155
 8671POPC   C1A40887  43.076  40.813   6.455
 8671POPC   D2A40888  43.084  40.803   6.755
 8671POPC   C3A40889  43.098  40.814   7.055
 8671POPC   C4A40890  43.147  40.767   7.355
 8671POPC   C1B40891  42.912  40.809   6.455
 8671POPC   C2B40892  42.902  40.862   6.755
 8671POPC   C3B40893  42.849  40.835   7.055
 8671POPC   C4B40894  42.875  40.823   7.355
 8672POPC   NC340895  36.911  43.107   5.555
 8672POPC   PO440896  36.941  43.122   5.855
 8672POPC   GL140897  36.904  43.156   6.155
 8672POPC   GL240898  36.829  43.076   6.155
 8672POPC   C1A40899  36.950  43.141   6.455
 8672POPC   D2A40900  36.883  43.147   6.755
 8672POPC   C3A40901  36.888  43.160   7.055
 8672POPC   C4A40902  36.906  43.082   7.355
 8672POPC   C1B40903  36.665  43.049   6.455
 8672POPC   C2B40904  36.621  43.052   6.755
 8672POPC   C3B40905  36.657  43.042   7.055
 8672POPC   C4B40906  36.667  43.085   7.355
 8673POPC   NC340907  32.258  33.839   5.555
 8673POPC   PO440908  32.253  33.816   5.855
 8673POPC   GL140909  32.227  33.809   6.155
 8673POPC   GL240910  32.352  33.825   6.155
 8673POPC   C1A40911  32.221  33.755   6.455
 8673POPC   D2A40912  32.204  33.763   6.755
 8673POPC   C3A40913  32.217  33.790   7.055
 8673POPC   C4A40914  32.247  33.837   7.355
 8673POPC   C1B40915  32.511  33.835   6.455
 8673POPC   C2B40916  32.502  33.897   6.755
 8673POPC   C3B40917  32.516  33.855   7.055
 8673POPC   C4B40918  32.488  33.893   7.355
 8674POPC   NC340919   8.239  43.125   5.555
 8674POPC   PO440920   8.225  43.140   5.855
 8674POPC   GL140921   8.167  43.157   6.155
 8674POPC   GL240922   8.351  43.088   6.155
 8674POPC   C1A40923   8.223  43.134   6.455
 8674POPC   D2A40924   8.196  43.154   6.755
 8674POPC   C3A40925   8.212  43.145   7.055
 8674POPC   C4A40926   8.176  43.133   7.355
 8674POPC   C1B40927   8.400  43.153   6.455
 8674POPC   C2B40928   8.473  43.128   6.755
 8674POPC   C3B40929   8.440  43.178   7.055
 8674POPC   C4B40930   8.470  43.181   7.355
 8675POPC   NC340931  29.176  29.871   5.555
 8675POPC   PO440932  29.173  29.888   5.855
 8675POPC   GL140933  29.158  29.934   6.155
 8675POPC   GL240934  29.127  29.792   6.155
 8675POPC   C1A40935  29.140  29.883   6.455
 8675POPC   D2A40936  29.116  29.886   6.755
 8675POPC   C3A40937  29.143  29.893   7.055
 8675POPC   C4A40938  29.169  29.928   7.355
 8675POPC   C1B40939  29.125  29.622   6.455
 8675POPC   C2B40940  29.166  29.683   6.755
 8675POPC   C3B40941  29.205  29.628   7.055
 8675POPC   C4B40942  29.145  29.631   7.355
 8676POPC   NC340943  10.554  42.297   5.555
 8676POPC   PO440944  10.533  42.305   5.855
 8676POPC   GL140945  10.564  42.327   6.155
 8676POPC   GL240946  10.620  42.275   6.155
 8676POPC   C1A40947  10.503  42.300   6.455
 8676POPC   D2A40948  10.545  42.378   6.755
 8676POPC   C3A40949  10.566  42.320   7.055
 8676POPC   C4A40950  10.517  42.308   7.355
 8676POPC   C1B40951  10.755  42.318   6.455
 8676POPC   C2B40952  10.813  42.296   6.755
 8676POPC   C3B40953  10.775  42.343   7.055
 8676POPC   C4B40954  10.819  42.309   7.355
 8677POPC   NC340955  43.068  18.291   5.555
 8677POPC   PO440956  43.147  18.273   5.855
 8677POPC   GL140957  43.138  18.282   6.155
 8677POPC   GL240958  43.284  18.313   6.155
 8677POPC   C1A40959  43.078  18.257   6.455
 8677POPC   D2A40960  43.071  18.282   6.755
 8677POPC   C3A40961  43.111  18.258   7.055
 8677POPC   C4A40962  43.075  18.317   7.355
 8677POPC   C1B40963  43.366  18.305   6.455
 8677POPC   C2B40964  43.400  18.258   6.755
 8677POPC   C3B40965  43.347  18.294   7.055
 8677POPC   C4B40966  43.359  18.257   7.355
 8678POPC   NC340967  12.843  12.118   5.555
 8678POPC   PO440968  12.892  12.088   5.855
 8678POPC   GL140969  12.854  12.081   6.155
 8678POPC   GL240970  12.964  12.166   6.155
 8678POPC   C1A40971  12.839  12.042   6.455
 8678POPC   D2A40972  12.845  12.048   6.755
 8678POPC   C3A40973  12.870  12.056   7.055
 8678POPC   C4A40974  12.846  12.065   7.355
 8678POPC   C1B40975  13.046  12.176   6.455
 8678POPC   C2B40976  13.077  12.245   6.755
 8678POPC   C3B40977  13.100  12.199   7.055
 8678POPC   C4B40978  13.089  12.240   7.355
 8679POPC   NC340979  39.971  28.331   5.555
 8679POPC   PO440980  39.978  28.359   5.855
 8679POPC   GL140981  40.036  28.367   6.155
 8679POPC   GL240982  39.941  28.315   6.155
 8679POPC   C1A40983  40.008  28.417   6.455
 8679POPC   D2A40984  40.050  28.325   6.755
 8679POPC   C3A40985  39.989  28.387   7.055
 8679POPC   C4A40986  39.978  28.341   7.355
 8679POPC   C1B40987  39.828  28.204   6.455
 8679POPC   C2B40988  39.857  28.184   6.755
 8679POPC   C3B40989  39.835  28.192   7.055
 8679POPC   C4B40990  39.807  28.198   7.355
 8680POPC   NC340991   6.685  17.499   5.555
 8680POPC   PO440992   6.615  17.552   5.855
 8680POPC   GL140993   6.666  17.503   6.155
 8680POPC   GL240994   6.577  17.649   6.155
 8680POPC   C1A40995   6.651  17.503   6.455
 8680POPC   D2A40996   6.684  17.477   6.755
 8680POPC   C3A40997   6.616  17.541   7.055
 8680POPC   C4A40998   6.678  17.502   7.355
 8680POPC   C1B40999   6.544  17.716   6.455
 8680POPC   C2B41000   6.572  17.711   6.755
 8680POPC   C3B41001   6.558  17.779   7.055
 8680POPC   C4B41002   6.625  17.704   7.355
 8681POPC   NC341003  23.702   0.428   5.555
 8681POPC   PO441004  23.684   0.413   5.855
 8681POPC   GL141005  23.677   0.408   6.155
 8681POPC   GL241006  23.781   0.555   6.155
 8681POPC   C1A41007  23.746   0.485   6.455
 8681POPC   D2A41008  23.725   0.485   6.755
 8681POPC   C3A41009  23.704   0.440   7.055
 8681POPC   C4A41010  23.744   0.478   7.355
 8681POPC   C1B41011  23.871   0.582   6.455
 8681POPC   C2B41012  23.910   0.554   6.755
 8681POPC   C3B41013  23.872   0.582   7.055
 8681POPC   C4B41014  23.930   0.617   7.355
 8682POPC   NC341015  36.152   3.513   5.555
 8682POPC   PO441016  36.150   3.499   5.855
 8682POPC   GL141017  36.152   3.552   6.155
 8682POPC   GL241018  36.212   3.665   6.155
 8682POPC   C1A41019  36.117   3.538   6.455
 8682POPC   D2A41020  36.108   3.589   6.755
 8682POPC   C3A41021  36.081   3.579   7.055
 8682POPC   C4A41022  36.173   3.498   7.355
 8682POPC   C1B41023  36.274   3.796   6.455
 8682POPC   C2B41024  36.269   3.804   6.755
 8682POPC   C3B41025  36.277   3.722   7.055
 8682POPC   C4B41026  36.224   3.726   7.355
 8683POPC   NC341027  14.421  36.921   5.555
 8683POPC   PO441028  14.409  36.876   5.855
 8683POPC   GL141029  14.445  36.927   6.155
 8683POPC   GL241030  14.287  36.808   6.155
 8683POPC   C1A41031  14.371  36.922   6.455
 8683POPC   D2A41032  14.403  36.892   6.755
 8683POPC   C3A41033  14.388  36.893   7.055
 8683POPC   C4A41034  14.420  36.895   7.355
 8683POPC   C1B41035  14.167  36.738   6.455
 8683POPC   C2B41036  14.181  36.781   6.755
 8683POPC   C3B41037  14.226  36.782   7.055
 8683POPC   C4B41038  14.173  36.795   7.355
 8684POPC   NC341039  17.495  13.606   5.555
 8684POPC   PO441040  17.514  13.605   5.855
 8684POPC   GL141041  17.491  13.640   6.155
 8684POPC   GL241042  17.508  13.498   6.155
 8684POPC   C1A41043  17.544  13.664   6.455
 8684POPC   D2A41044  17.492  13.615   6.755
 8684POPC   C3A41045  17.464  13.639   7.055
 8684POPC   C4A41046  17.550  13.624   7.355
 8684POPC   C1B41047  17.577  13.428   6.455
 8684POPC   C2B41048  17.623  13.438   6.755
 8684POPC   C3B41049  17.576  13.362   7.055
 8684POPC   C4B41050  17.559  13.349   7.355
 8685POPC   NC341051  36.942  27.595   5.555
 8685POPC   PO441052  36.934  27.590   5.855
 8685POPC   GL141053  36.911  27.549   6.155
 8685POPC   GL241054  36.787  27.585   6.155
 8685POPC   C1A41055  36.857  27.571   6.455
 8685POPC   D2A41056  36.866  27.597   6.755
 8685POPC   C3A41057  36.921  27.609   7.055
 8685POPC   C4A41058  36.885  27.551   7.355
 8685POPC   C1B41059  36.624  27.499   6.455
 8685POPC   C2B41060  36.684  27.505   6.755
 8685POPC   C3B41061  36.652  27.505   7.055
 8685POPC   C4B41062  36.688  27.478   7.355
 8686POPC   NC341063   1.962  33.803   5.555
 8686POPC   PO441064   1.984  33.821   5.855
 8686POPC   GL141065   1.951  33.766   6.155
 8686POPC   GL241066   2.075  33.865   6.155
 8686POPC   C1A41067   1.988  33.850   6.455
 8686POPC   D2A41068   2.013  33.764   6.755
 8686POPC   C3A41069   1.955  33.847   7.055
 8686POPC   C4A41070   1.993  33.826   7.355
 8686POPC   C1B41071   2.263  33.881   6.455
 8686POPC   C2B41072   2.266  33.866   6.755
 8686POPC   C3B41073   2.207  33.829   7.055
 8686POPC   C4B41074   2.199  33.841   7.355
 8687POPC   NC341075   8.950   3.572   5.555
 8687POPC   PO441076   8.991   3.521   5.855
 8687POPC   GL141077   8.967   3.557   6.155
 8687POPC   GL241078   9.058   3.499   6.155
 8687POPC   C1A41079   8.982   3.557   6.455
 8687POPC   D2A41080   8.962   3.511   6.755
 8687POPC   C3A41081   8.943   3.523   7.055
 8687POPC   C4A41082   8.949   3.586   7.355
 8687POPC   C1B41083   9.250   3.529   6.455
 8687POPC   C2B41084   9.185   3.531   6.755
 8687POPC   C3B41085   9.248   3.573   7.055
 8687POPC   C4B41086   9.220   3.536   7.355
 8688POPC   NC341087   6.667  35.358   5.555
 8688POPC   PO441088   6.646  35.323   5.855
 8688POPC   GL141089   6.667  35.384   6.155
 8688POPC   GL241090   6.605  35.526   6.155
 8688POPC   C1A41091   6.656  35.329   6.455
 8688POPC   D2A41092   6.649  35.309   6.755
 8688POPC   C3A41093   6.692  35.369   7.055
 8688POPC   C4A41094   6.666  35.385   7.355
 8688POPC   C1B41095   6.688  35.581   6.455
 8688POPC   C2B41096   6.662  35.622   6.755
 8688POPC   C3B41097   6.662  35.589   7.055
 8688POPC   C4B41098   6.635  35.613   7.355
 8689POPC   NC341099  23.756  36.124   5.555
 8689POPC   PO441100  23.757  36.147   5.855
 8689POPC   GL141101  23.764  36.136   6.155
 8689POPC   GL241102  23.776  35.980   6.155
 8689POPC   C1A41103  23.712  36.139   6.455
 8689POPC   D2A41104  23.739  36.168   6.755
 8689POPC   C3A41105  23.687  36.166   7.055
 8689POPC   C4A41106  23.715  36.113   7.355
 8689POPC   C1B41107  23.777  35.840   6.455
 8689POPC   C2B41108  23.787  35.914   6.755
 8689POPC   C3B41109  23.739  35.878   7.055
 8689POPC   C4B41110  23.800  35.912   7.355
 8690POPC   NC341111  29.165  39.212   5.555
 8690POPC   PO441112  29.110  39.258   5.855
 8690POPC   GL141113  29.169  39.253   6.155
 8690POPC   GL241114  29.231  39.228   6.155
 8690POPC   C1A41115  29.165  39.276   6.455
 8690POPC   D2A41116  29.187  39.250   6.755
 8690POPC   C3A41117  29.153  39.230   7.055
 8690POPC   C4A41118  29.156  39.278   7.355
 8690POPC   C1B41119  29.431  39.211   6.455
 8690POPC   C2B41120  29.403  39.248   6.755
 8690POPC   C3B41121  29.391  39.169   7.055
 8690POPC   C4B41122  29.371  39.231   7.355
 8691POPC   NC341123   1.239   8.929   5.555
 8691POPC   PO441124   1.206   8.928   5.855
 8691POPC   GL141125   1.218   8.963   6.155
 8691POPC   GL241126   1.265   8.821   6.155
 8691POPC   C1A41127   1.182   8.932   6.455
 8691POPC   D2A41128   1.190   9.013   6.755
 8691POPC   C3A41129   1.261   8.956   7.055
 8691POPC   C4A41130   1.220   8.972   7.355
 8691POPC   C1B41131   1.319   8.711   6.455
 8691POPC   C2B41132   1.239   8.742   6.755
 8691POPC   C3B41133   1.295   8.746   7.055
 8691POPC   C4B41134   1.255   8.691   7.355
 8692POPC   NC341135  33.073  31.453   5.555
 8692POPC   PO441136  33.044  31.482   5.855
 8692POPC   GL141137  33.010  31.463   6.155
 8692POPC   GL241138  32.972  31.347   6.155
 8692POPC   C1A41139  33.052  31.517   6.455
 8692POPC   D2A41140  32.983  31.484   6.755
 8692POPC   C3A41141  32.975  31.511   7.055
 8692POPC   C4A41142  33.030  31.426   7.355
 8692POPC   C1B41143  32.890  31.251   6.455
 8692POPC   C2B41144  32.882  31.296   6.755
 8692POPC   C3B41145  32.934  31.273   7.055
 8692POPC   C4B41146  32.939  31.213   7.355
 8693POPC   NC341147  19.869  19.797   5.555
 8693POPC   PO441148  19.846  19.806   5.855
 8693POPC   GL141149  19.846  19.866   6.155
 8693POPC   GL241150  19.725  19.951   6.155
 8693POPC   C1A41151  19.862  19.812   6.455
 8693POPC   D2A41152  19.810  19.840   6.755
 8693POPC   C3A41153  19.870  19.797   7.055
 8693POPC   C4A41154  19.790  19.788   7.355
 8693POPC   C1B41155  19.597  20.040   6.455
 8693POPC   C2B41156  19.669  20.045   6.755
 8693POPC   C3B41157  19.649  19.953   7.055
 8693POPC   C4B41158  19.692  19.967   7.355
 8694POPC   NC341159  21.406   0.462   5.555
 8694POPC   PO441160  21.411   0.401   5.855
 8694POPC   GL141161  21.343   0.418   6.155
 8694POPC   GL241162  21.477   0.493   6.155
 8694POPC   C1A41163  21.404   0.398   6.455
 8694POPC   D2A41164  21.433   0.404   6.755
 8694POPC   C3A41165  21.410   0.408   7.055
 8694POPC   C4A41166  21.339   0.419   7.355
 8694POPC   C1B41167  21.611   0.570   6.455
 8694POPC   C2B41168  21.628   0.522   6.755
 8694POPC   C3B41169  21.658   0.583   7.055
 8694POPC   C4B41170  21.633   0.551   7.355
 8695POPC   NC341171   4.365  38.433   5.555
 8695POPC   PO441172   4.299  38.421   5.855
 8695POPC   GL141173   4.272  38.500   6.155
 8695POPC   GL241174   4.214  38.528   6.155
 8695POPC   C1A41175   4.333  38.464   6.455
 8695POPC   D2A41176   4.339  38.426   6.755
 8695POPC   C3A41177   4.295  38.428   7.055
 8695POPC   C4A41178   4.341  38.409   7.355
 8695POPC   C1B41179   4.151  38.675   6.455
 8695POPC   C2B41180   4.165  38.724   6.755
 8695POPC   C3B41181   4.148  38.642   7.055
 8695POPC   C4B41182   4.234  38.685   7.355
 8696POPC   NC341183  36.165  24.492   5.555
 8696POPC   PO441184  36.116  24.533   5.855
 8696POPC   GL141185  36.099  24.498   6.155
 8696POPC   GL241186  36.218  24.412   6.155
 8696POPC   C1A41187  36.080  24.523   6.455
 8696POPC   D2A41188  36.148  24.478   6.755
 8696POPC   C3A41189  36.115  24.505   7.055
 8696POPC   C4A41190  36.164  24.498   7.355
 8696POPC   C1B41191  36.329  24.352   6.455
 8696POPC   C2B41192  36.328  24.379   6.755
 8696POPC   C3B41193  36.348  24.360   7.055
 8696POPC   C4B41194  36.335  24.411   7.355
 8697POPC   NC341195   3.556  42.323   5.555
 8697POPC   PO441196   3.562  42.316   5.855
 8697POPC   GL141197   3.550  42.369   6.155
 8697POPC   GL241198   3.643  42.434   6.155
 8697POPC   C1A41199   3.499  42.383   6.455
 8697POPC   D2A41200   3.591  42.324   6.755
 8697POPC   C3A41201   3.561  42.357   7.055
 8697POPC   C4A41202   3.506  42.320   7.355
 8697POPC   C1B41203   3.713  42.498   6.455
 8697POPC   C2B41204   3.665  42.561   6.755
 8697POPC   C3B41205   3.648  42.567   7.055
 8697POPC   C4B41206   3.659  42.516   7.355
 8698POPC   NC341207  38.493   4.285   5.555
 8698POPC   PO441208  38.474   4.334   5.855
 8698POPC   GL141209  38.423   4.328   6.155
 8698POPC   GL241210  38.373   4.436   6.155
 8698POPC   C1A41211  38.423   4.349   6.455
 8698POPC   D2A41212  38.491   4.297   6.755
 8698POPC   C3A41213  38.501   4.344   7.055
 8698POPC   C4A41214  38.454   4.287   7.355
 8698POPC   C1B41215  38.281   4.439   6.455
 8698POPC   C2B41216  38.302   4.485   6.755
 8698POPC   C3B41217  38.261   4.447   7.055
 8698POPC   C4B41218  38.315   4.518   7.355
 8699POPC   NC341219   4.290  30.665   5.555
 8699POPC   PO441220   4.301  30.724   5.855
 8699POPC   GL141221   4.343  30.707   6.155
 8699POPC   GL241222   4.341  30.851   6.155
 8699POPC   C1A41223   4.362  30.740   6.455
 8699POPC   D2A41224   4.300  30.719   6.755
 8699POPC   C3A41225   4.268  30.706   7.055
 8699POPC   C4A41226   4.347  30.690   7.355
 8699POPC   C1B41227   4.453  30.899   6.455
 8699POPC   C2B41228   4.408  30.917   6.755
 8699POPC   C3B41229   4.442  30.929   7.055
 8699POPC   C4B41230   4.436  30.924   7.355
 8700POPC   NC341231  14.418   0.472   5.555
 8700POPC   PO441232  14.362   0.487   5.855
 8700POPC   GL141233  14.399   0.397   6.155
 8700POPC   GL241234  14.404   0.276   6.155
 8700POPC   C1A41235  14.395   0.445   6.455
 8700POPC   D2A41236  14.445   0.435   6.755
 8700POPC   C3A41237  14.426   0.469   7.055
 8700POPC   C4A41238  14.434   0.443   7.355
 8700POPC   C1B41239  14.365   0.165   6.455
 8700POPC   C2B41240  14.283   0.178   6.755
 8700POPC   C3B41241  14.328   0.187   7.055
 8700POPC   C4B41242  14.370   0.223   7.355
 8701POPC   NC341243   2.794  25.227   5.555
 8701POPC   PO441244   2.747  25.284   5.855
 8701POPC   GL141245   2.802  25.280   6.155
 8701POPC   GL241246   2.772  25.174   6.155
 8701POPC   C1A41247   2.720  25.274   6.455
 8701POPC   D2A41248   2.790  25.305   6.755
 8701POPC   C3A41249   2.759  25.276   7.055
 8701POPC   C4A41250   2.782  25.228   7.355
 8701POPC   C1B41251   2.739  25.030   6.455
 8701POPC   C2B41252   2.726  25.025   6.755
 8701POPC   C3B41253   2.741  25.028   7.055
 8701POPC   C4B41254   2.728  25.017   7.355
 8702POPC   NC341255   3.578  35.355   5.555
 8702POPC   PO441256   3.584  35.372   5.855
 8702POPC   GL141257   3.556  35.373   6.155
 8702POPC   GL241258   3.471  35.486   6.155
 8702POPC   C1A41259   3.572  35.385   6.455
 8702POPC   D2A41260   3.575  35.346   6.755
 8702POPC   C3A41261   3.563  35.384   7.055
 8702POPC   C4A41262   3.539  35.360   7.355
 8702POPC   C1B41263   3.513  35.577   6.455
 8702POPC   C2B41264   3.534  35.587   6.755
 8702POPC   C3B41265   3.520  35.618   7.055
 8702POPC   C4B41266   3.505  35.570   7.355
 8703POPC   NC341267   1.247  41.559   5.555
 8703POPC   PO441268   1.254  41.606   5.855
 8703POPC   GL141269   1.167  41.590   6.155
 8703POPC   GL241270   1.335  41.639   6.155
 8703POPC   C1A41271   1.250  41.528   6.455
 8703POPC   D2A41272   1.209  41.550   6.755
 8703POPC   C3A41273   1.235  41.535   7.055
 8703POPC   C4A41274   1.203  41.511   7.355
 8703POPC   C1B41275   1.477  41.576   6.455
 8703POPC   C2B41276   1.431  41.624   6.755
 8703POPC   C3B41277   1.486  41.600   7.055
 8703POPC   C4B41278   1.415  41.618   7.355
 8704POPC   NC341279  29.132  32.223   5.555
 8704POPC   PO441280  29.162  32.230   5.855
 8704POPC   GL141281  29.158  32.263   6.155
 8704POPC   GL241282  29.185  32.315   6.155
 8704POPC   C1A41283  29.165  32.290   6.455
 8704POPC   D2A41284  29.140  32.259   6.755
 8704POPC   C3A41285  29.129  32.256   7.055
 8704POPC   C4A41286  29.154  32.231   7.355
 8704POPC   C1B41287  29.263  32.453   6.455
 8704POPC   C2B41288  29.283  32.436   6.755
 8704POPC   C3B41289  29.311  32.460   7.055
 8704POPC   C4B41290  29.236  32.506   7.355
 8705POPC   NC341291  10.512  24.492   5.555
 8705POPC   PO441292  10.509  24.498   5.855
 8705POPC   GL141293  10.541  24.509   6.155
 8705POPC   GL241294  10.589  24.425   6.155
 8705POPC   C1A41295  10.571  24.531   6.455
 8705POPC   D2A41296  10.522  24.453   6.755
 8705POPC   C3A41297  10.550  24.484   7.055
 8705POPC   C4A41298  10.539  24.474   7.355
 8705POPC   C1B41299  10.741  24.380   6.455
 8705POPC   C2B41300  10.777  24.379   6.755
 8705POPC   C3B41301  10.742  24.332   7.055
 8705POPC   C4B41302  10.785  24.395   7.355
 8706POPC   NC341303  31.491   4.349   5.555
 8706POPC   PO441304  31.519   4.358   5.855
 8706POPC   GL141305  31.487   4.316   6.155
 8706POPC   GL241306  31.550   4.412   6.155
 8706POPC   C1A41307  31.438   4.346   6.455
 8706POPC   D2A41308  31.513   4.329   6.755
 8706POPC   C3A41309  31.434   4.331   7.055
 8706POPC   C4A41310  31.491   4.349   7.355
 8706POPC   C1B41311  31.714   4.379   6.455
 8706POPC   C2B41312  31.671   4.400   6.755
 8706POPC   C3B41313  31.739   4.406   7.055
 8706POPC   C4B41314  31.721   4.407   7.355
 8707POPC   NC341315  10.548   9.784   5.555
 8707POPC   PO441316  10.537   9.728   5.855
 8707POPC   GL141317  10.520   9.791   6.155
 8707POPC   GL241318  10.574   9.644   6.155
 8707POPC   C1A41319  10.485   9.791   6.455
 8707POPC   D2A41320  10.569   9.793   6.755
 8707POPC   C3A41321  10.572   9.750   7.055
 8707POPC   C4A41322  10.554   9.761   7.355
 8707POPC   C1B41323  10.684   9.547   6.455
 8707POPC   C2B41324  10.665   9.502   6.755
 8707POPC   C3B41325  10.661   9.548   7.055
 8707POPC   C4B41326  10.627   9.563   7.355
 8708POPC   NC341327  14.444  37.692   5.555
 8708POPC   PO441328  14.414  37.698   5.855
 8708POPC   GL141329  14.427  37.686   6.155
 8708POPC   GL241330  14.271  37.669   6.155
 8708POPC   C1A41331  14.427  37.671   6.455
 8708POPC   D2A41332  14.366  37.707   6.755
 8708POPC   C3A41333  14.425  37.688   7.055
 8708POPC   C4A41334  14.362  37.706   7.355
 8708POPC   C1B41335  14.158  37.652   6.455
 8708POPC   C2B41336  14.176  37.578   6.755
 8708POPC   C3B41337  14.208  37.601   7.055
 8708POPC   C4B41338  14.172  37.630   7.355
 8709POPC   NC341339  24.444   0.419   5.555
 8709POPC   PO441340  24.449   0.398   5.855
 8709POPC   GL141341  24.534   0.432   6.155
 8709POPC   GL241342  24.404   0.531   6.155
 8709POPC   C1A41343  24.536   0.391   6.455
 8709POPC   D2A41344  24.487   0.472   6.755
 8709POPC   C3A41345  24.533   0.390   7.055
 8709POPC   C4A41346  24.493   0.419   7.355
 8709POPC   C1B41347  24.277   0.557   6.455
 8709POPC   C2B41348  24.237   0.574   6.755
 8709POPC   C3B41349  24.228   0.533   7.055
 8709POPC   C4B41350  24.224   0.508   7.355
 8710POPC   NC341351   1.189  15.996   5.555
 8710POPC   PO441352   1.232  15.985   5.855
 8710POPC   GL141353   1.203  15.975   6.155
 8710POPC   GL241354   1.311  15.974   6.155
 8710POPC   C1A41355   1.231  15.921   6.455
 8710POPC   D2A41356   1.205  15.960   6.755
 8710POPC   C3A41357   1.206  15.965   7.055
 8710POPC   C4A41358   1.208  15.916   7.355
 8710POPC   C1B41359   1.473  16.062   6.455
 8710POPC   C2B41360   1.428  16.049   6.755
 8710POPC   C3B41361   1.421  16.128   7.055
 8710POPC   C4B41362   1.397  16.125   7.355
 8711POPC   NC341363  36.112  22.200   5.555
 8711POPC   PO441364  36.121  22.140   5.855
 8711POPC   GL141365  36.142  22.142   6.155
 8711POPC   GL241366  36.002  22.262   6.155
 8711POPC   C1A41367  36.104  22.149   6.455
 8711POPC   D2A41368  36.084  22.155   6.755
 8711POPC   C3A41369  36.148  22.142   7.055
 8711POPC   C4A41370  36.175  22.199   7.355
 8711POPC   C1B41371  35.913  22.340   6.455
 8711POPC   C2B41372  35.871  22.258   6.755
 8711POPC   C3B41373  35.876  22.309   7.055
 8711POPC   C4B41374  35.925  22.268   7.355
 8712POPC   NC341375   7.450  36.146   5.555
 8712POPC   PO441376   7.453  36.163   5.855
 8712POPC   GL141377   7.448  36.080   6.155
 8712POPC   GL241378   7.291  36.184   6.155
 8712POPC   C1A41379   7.420  36.110   6.455
 8712POPC   D2A41380   7.442  36.139   6.755
 8712POPC   C3A41381   7.468  36.095   7.055
 8712POPC   C4A41382   7.375  36.153   7.355
 8712POPC   C1B41383   7.236  36.244   6.455
 8712POPC   C2B41384   7.253  36.253   6.755
 8712POPC   C3B41385   7.254  36.282   7.055
 8712POPC   C4B41386   7.225  36.247   7.355
 8713POPC   NC341387  44.709  36.168   5.555
 8713POPC   PO441388  44.684  36.112   5.855
 8713POPC   GL141389  44.689  36.105   6.155
 8713POPC   GL241390  44.623  36.013   6.155
 8713POPC   C1A41391  44.684  36.167   6.455
 8713POPC   D2A41392  44.613  36.100   6.755
 8713POPC   C3A41393  44.684  36.121   7.055
 8713POPC   C4A41394  44.695  36.146   7.355
 8713POPC   C1B41395  44.647  35.894   6.455
 8713POPC   C2B41396  44.580  35.871   6.755
 8713POPC   C3B41397  44.561  35.878   7.055
 8713POPC   C4B41398  44.596  35.919   7.355
 8714POPC   NC341399  41.521   0.459   5.555
 8714POPC   PO441400  41.574   0.473   5.855
 8714POPC   GL141401  41.559   0.403   6.155
 8714POPC   GL241402  41.600   0.605   6.155
 8714POPC   C1A41403  41.585   0.485   6.455
 8714POPC   D2A41404  41.528   0.396   6.755
 8714POPC   C3A41405  41.606   0.442   7.055
 8714POPC   C4A41406  41.534   0.429   7.355
 8714POPC   C1B41407  41.674   0.649   6.455
 8714POPC   C2B41408  41.673   0.644   6.755
 8714POPC   C3B41409  41.687   0.709   7.055
 8714POPC   C4B41410  41.621   0.639   7.355
 8715POPC   NC341411  33.848  34.597   5.555
 8715POPC   PO441412  33.771  34.571   5.855
 8715POPC   GL141413  33.752  34.606   6.155
 8715POPC   GL241414  33.901  34.632   6.155
 8715POPC   C1A41415  33.822  34.548   6.455
 8715POPC   D2A41416  33.757  34.563   6.755
 8715POPC   C3A41417  33.817  34.615   7.055
 8715POPC   C4A41418  33.794  34.553   7.355
 8715POPC   C1B41419  33.935  34.787   6.455
 8715POPC   C2B41420  33.942  34.712   6.755
 8715POPC   C3B41421  33.942  34.759   7.055
 8715POPC   C4B41422  34.017  34.771   7.355
 8716POPC   NC341423  44.656  30.725   5.555
 8716POPC   PO441424  44.676  30.693   5.855
 8716POPC   GL141425  44.676  30.743   6.155
 8716POPC   GL241426  44.585  30.654   6.155
 8716POPC   C1A41427  44.687  30.662   6.455
 8716POPC   D2A41428  44.622  30.660   6.755
 8716POPC   C3A41429  44.620  30.717   7.055
 8716POPC   C4A41430  44.647  30.717   7.355
 8716POPC   C1B41431  44.444  30.625   6.455
 8716POPC   C2B41432  44.408  30.611   6.755
 8716POPC   C3B41433  44.408  30.595   7.055
 8716POPC   C4B41434  44.457  30.646   7.355
 8717POPC   NC341435  44.653  40.741   5.555
 8717POPC   PO441436  44.673  40.832   5.855
 8717POPC   GL141437  44.623  40.742   6.155
 8717POPC   GL241438  44.583  40.653   6.155
 8717POPC   C1A41439  44.679  40.751   6.455
 8717POPC   D2A41440  44.686  40.751   6.755
 8717POPC   C3A41441  44.621  40.782   7.055
 8717POPC   C4A41442  44.704  40.789   7.355
 8717POPC   C1B41443  44.474  40.610   6.455
 8717POPC   C2B41444  44.471  40.617   6.755
 8717POPC   C3B41445  44.517  40.607   7.055
 8717POPC   C4B41446  44.554  40.610   7.355
 8718POPC   NC341447   1.250  34.527   5.555
 8718POPC   PO441448   1.167  34.584   5.855
 8718POPC   GL141449   1.260  34.571   6.155
 8718POPC   GL241450   1.274  34.657   6.155
 8718POPC   C1A41451   1.251  34.587   6.455
 8718POPC   D2A41452   1.189  34.530   6.755
 8718POPC   C3A41453   1.246  34.573   7.055
 8718POPC   C4A41454   1.210  34.554   7.355
 8718POPC   C1B41455   1.326  34.836   6.455
 8718POPC   C2B41456   1.264  34.773   6.755
 8718POPC   C3B41457   1.324  34.769   7.055
 8718POPC   C4B41458   1.299  34.835   7.355
 8719POPC   NC341459  41.543  39.269   5.555
 8719POPC   PO441460  41.576  39.241   5.855
 8719POPC   GL141461  41.536  39.240   6.155
 8719POPC   GL241462  41.647  39.247   6.155
 8719POPC   C1A41463  41.542  39.277   6.455
 8719POPC   D2A41464  41.516  39.264   6.755
 8719POPC   C3A41465  41.531  39.260   7.055
 8719POPC   C4A41466  41.594  39.202   7.355
 8719POPC   C1B41467  41.822  39.132   6.455
 8719POPC   C2B41468  41.769  39.175   6.755
 8719POPC   C3B41469  41.826  39.200   7.055
 8719POPC   C4B41470  41.830  39.198   7.355
 8720POPC   NC341471   8.213  12.817   5.555
 8720POPC   PO441472   8.165  12.897   5.855
 8720POPC   GL141473   8.240  12.838   6.155
 8720POPC   GL241474   8.271  12.761   6.155
 8720POPC   C1A41475   8.177  12.849   6.455
 8720POPC   D2A41476   8.231  12.805   6.755
 8720POPC   C3A41477   8.177  12.884   7.055
 8720POPC   C4A41478   8.232  12.887   7.355
 8720POPC   C1B41479   8.328  12.676   6.455
 8720POPC   C2B41480   8.407  12.636   6.755
 8720POPC   C3B41481   8.368  12.632   7.055
 8720POPC   C4B41482   8.330  12.675   7.355
 8721POPC   NC341483  12.847  12.812   5.555
 8721POPC   PO441484  12.858  12.851   5.855
 8721POPC   GL141485  12.844  12.865   6.155
 8721POPC   GL241486  12.757  12.728   6.155
 8721POPC   C1A41487  12.865  12.897   6.455
 8721POPC   D2A41488  12.838  12.888   6.755
 8721POPC   C3A41489  12.870  12.836   7.055
 8721POPC   C4A41490  12.853  12.884   7.355
 8721POPC   C1B41491  12.733  12.616   6.455
 8721POPC   C2B41492  12.725  12.595   6.755
 8721POPC   C3B41493  12.731  12.611   7.055
 8721POPC   C4B41494  12.700  12.640   7.355
 8722POPC   NC341495  19.811  19.042   5.555
 8722POPC   PO441496  19.833  19.081   5.855
 8722POPC   GL141497  19.819  19.047   6.155
 8722POPC   GL241498  19.990  19.044   6.155
 8722POPC   C1A41499  19.837  19.105   6.455
 8722POPC   D2A41500  19.874  19.017   6.755
 8722POPC   C3A41501  19.870  19.022   7.055
 8722POPC   C4A41502  19.835  19.020   7.355
 8722POPC   C1B41503  20.093  19.089   6.455
 8722POPC   C2B41504  20.070  19.129   6.755
 8722POPC   C3B41505  20.111  19.101   7.055
 8722POPC   C4B41506  20.095  19.164   7.355
 8723POPC   NC341507   9.719  28.332   5.555
 8723POPC   PO441508   9.742  28.358   5.855
 8723POPC   GL141509   9.709  28.338   6.155
 8723POPC   GL241510   9.870  28.344   6.155
 8723POPC   C1A41511   9.736  28.352   6.455
 8723POPC   D2A41512   9.709  28.405   6.755
 8723POPC   C3A41513   9.712  28.379   7.055
 8723POPC   C4A41514   9.775  28.391   7.355
 8723POPC   C1B41515   9.951  28.349   6.455
 8723POPC   C2B41516   9.954  28.367   6.755
 8723POPC   C3B41517  10.023  28.307   7.055
 8723POPC   C4B41518  10.009  28.330   7.355
 8724POPC   NC341519  16.707  28.328   5.555
 8724POPC   PO441520  16.750  28.398   5.855
 8724POPC   GL141521  16.700  28.341   6.155
 8724POPC   GL241522  16.575  28.361   6.155
 8724POPC   C1A41523  16.778  28.340   6.455
 8724POPC   D2A41524  16.710  28.417   6.755
 8724POPC   C3A41525  16.713  28.365   7.055
 8724POPC   C4A41526  16.683  28.334   7.355
 8724POPC   C1B41527  16.442  28.424   6.455
 8724POPC   C2B41528  16.508  28.402   6.755
 8724POPC   C3B41529  16.470  28.441   7.055
 8724POPC   C4B41530  16.533  28.413   7.355
 8725POPC   NC341531  27.580   8.986   5.555
 8725POPC   PO441532  27.639   8.998   5.855
 8725POPC   GL141533  27.584   8.928   6.155
 8725POPC   GL241534  27.573   9.123   6.155
 8725POPC   C1A41535  27.588   9.004   6.455
 8725POPC   D2A41536  27.597   9.018   6.755
 8725POPC   C3A41537  27.563   9.006   7.055
 8725POPC   C4A41538  27.615   8.958   7.355
 8725POPC   C1B41539  27.560   9.216   6.455
 8725POPC   C2B41540  27.512   9.227   6.755
 8725POPC   C3B41541  27.506   9.164   7.055
 8725POPC   C4B41542  27.558   9.166   7.355
 8726POPC   NC341543   2.015  40.778   5.555
 8726POPC   PO441544   2.036  40.742   5.855
 8726POPC   GL141545   2.026  40.749   6.155
 8726POPC   GL241546   2.117  40.751   6.155
 8726POPC   C1A41547   1.991  40.765   6.455
 8726POPC   D2A41548   1.956  40.757   6.755
 8726POPC   C3A41549   2.024  40.773   7.055
 8726POPC   C4A41550   1.985  40.792   7.355
 8726POPC   C1B41551   2.222  40.739   6.455
 8726POPC   C2B41552   2.210  40.750   6.755
 8726POPC   C3B41553   2.247  40.671   7.055
 8726POPC   C4B41554   2.261  40.709   7.355
 8727POPC   NC341555  12.116   4.291   5.555
 8727POPC   PO441556  12.102   4.285   5.855
 8727POPC   GL141557  12.028   4.281   6.155
 8727POPC   GL241558  12.186   4.275   6.155
 8727POPC   C1A41559  12.084   4.290   6.455
 8727POPC   D2A41560  12.041   4.279   6.755
 8727POPC   C3A41561  12.046   4.323   7.055
 8727POPC   C4A41562  12.039   4.367   7.355
 8727POPC   C1B41563  12.332   4.306   6.455
 8727POPC   C2B41564  12.338   4.285   6.755
 8727POPC   C3B41565  12.303   4.337   7.055
 8727POPC   C4B41566  12.288   4.290   7.355
 8728POPC   NC341567  36.134   5.855   5.555
 8728POPC   PO441568  36.105   5.820   5.855
 8728POPC   GL141569  36.144   5.889   6.155
 8728POPC   GL241570  36.155   5.728   6.155
 8728POPC   C1A41571  36.149   5.908   6.455
 8728POPC   D2A41572  36.104   5.830   6.755
 8728POPC   C3A41573  36.145   5.908   7.055
 8728POPC   C4A41574  36.126   5.903   7.355
 8728POPC   C1B41575  36.062   5.646   6.455
 8728POPC   C2B41576  36.081   5.583   6.755
 8728POPC   C3B41577  36.158   5.627   7.055
 8728POPC   C4B41578  36.080   5.602   7.355
 8729POPC   NC341579  19.816  27.588   5.555
 8729POPC   PO441580  19.817  27.612   5.855
 8729POPC   GL141581  19.790  27.595   6.155
 8729POPC   GL241582  19.714  27.638   6.155
 8729POPC   C1A41583  19.808  27.579   6.455
 8729POPC   D2A41584  19.830  27.631   6.755
 8729POPC   C3A41585  19.849  27.546   7.055
 8729POPC   C4A41586  19.786  27.625   7.355
 8729POPC   C1B41587  19.603  27.704   6.455
 8729POPC   C2B41588  19.606  27.779   6.755
 8729POPC   C3B41589  19.583  27.702   7.055
 8729POPC   C4B41590  19.591  27.711   7.355
 8730POPC   NC341591  40.819  12.802   5.555
 8730POPC   PO441592  40.741  12.892   5.855
 8730POPC   GL141593  40.751  12.840   6.155
 8730POPC   GL241594  40.684  12.735   6.155
 8730POPC   C1A41595  40.830  12.867   6.455
 8730POPC   D2A41596  40.815  12.838   6.755
 8730POPC   C3A41597  40.804  12.813   7.055
 8730POPC   C4A41598  40.767  12.819   7.355
 8730POPC   C1B41599  40.549  12.709   6.455
 8730POPC   C2B41600  40.633  12.708   6.755
 8730POPC   C3B41601  40.567  12.651   7.055
 8730POPC   C4B41602  40.582  12.660   7.355
 8731POPC   NC341603  14.374  20.658   5.555
 8731POPC   PO441604  14.392  20.589   5.855
 8731POPC   GL141605  14.443  20.611   6.155
 8731POPC   GL241606  14.292  20.648   6.155
 8731POPC   C1A41607  14.406  20.608   6.455
 8731POPC   D2A41608  14.361  20.645   6.755
 8731POPC   C3A41609  14.396  20.602   7.055
 8731POPC   C4A41610  14.413  20.596   7.355
 8731POPC   C1B41611  14.120  20.627   6.455
 8731POPC   C2B41612  14.196  20.672   6.755
 8731POPC   C3B41613  14.171  20.628   7.055
 8731POPC   C4B41614  14.147  20.618   7.355
 8732POPC   NC341615  36.103  22.904   5.555
 8732POPC   PO441616  36.105  22.979   5.855
 8732POPC   GL141617  36.118  22.976   6.155
 8732POPC   GL241618  36.222  23.031   6.155
 8732POPC   C1A41619  36.095  22.894   6.455
 8732POPC   D2A41620  36.145  22.893   6.755
 8732POPC   C3A41621  36.170  22.901   7.055
 8732POPC   C4A41622  36.167  22.900   7.355
 8732POPC   C1B41623  36.316  23.066   6.455
 8732POPC   C2B41624  36.272  23.104   6.755
 8732POPC   C3B41625  36.310  23.136   7.055
 8732POPC   C4B41626  36.330  23.131   7.355
 8733POPC   NC341627  40.048   5.835   5.555
 8733POPC   PO441628  40.015   5.849   5.855
 8733POPC   GL141629  40.053   5.871   6.155
 8733POPC   GL241630  39.932   5.822   6.155
 8733POPC   C1A41631  40.027   5.862   6.455
 8733POPC   D2A41632  40.047   5.856   6.755
 8733POPC   C3A41633  40.022   5.845   7.055
 8733POPC   C4A41634  39.957   5.838   7.355
 8733POPC   C1B41635  39.806   5.851   6.455
 8733POPC   C2B41636  39.737   5.777   6.755
 8733POPC   C3B41637  39.725   5.792   7.055
 8733POPC   C4B41638  39.773   5.776   7.355
 8734POPC   NC341639   6.604  18.296   5.555
 8734POPC   PO441640   6.598  18.326   5.855
 8734POPC   GL141641   6.606  18.330   6.155
 8734POPC   GL241642   6.564  18.335   6.155
 8734POPC   C1A41643   6.605  18.283   6.455
 8734POPC   D2A41644   6.598  18.253   6.755
 8734POPC   C3A41645   6.694  18.295   7.055
 8734POPC   C4A41646   6.597  18.298   7.355
 8734POPC   C1B41647   6.415  18.419   6.455
 8734POPC   C2B41648   6.394  18.447   6.755
 8734POPC   C3B41649   6.426  18.373   7.055
 8734POPC   C4B41650   6.442  18.445   7.355
 8735POPC   NC341651  15.170  25.306   5.555
 8735POPC   PO441652  15.208  25.300   5.855
 8735POPC   GL141653  15.146  25.305   6.155
 8735POPC   GL241654  15.241  25.168   6.155
 8735POPC   C1A41655  15.144  25.295   6.455
 8735POPC   D2A41656  15.175  25.289   6.755
 8735POPC   C3A41657  15.150  25.286   7.055
 8735POPC   C4A41658  15.225  25.217   7.355
 8735POPC   C1B41659  15.367  25.106   6.455
 8735POPC   C2B41660  15.327  25.118   6.755
 8735POPC   C3B41661  15.326  25.113   7.055
 8735POPC   C4B41662  15.305  25.044   7.355
 8736POPC   NC341663  41.560  15.148   5.555
 8736POPC   PO441664  41.555  15.223   5.855
 8736POPC   GL141665  41.605  15.217   6.155
 8736POPC   GL241666  41.704  15.122   6.155
 8736POPC   C1A41667  41.595  15.168   6.455
 8736POPC   D2A41668  41.563  15.225   6.755
 8736POPC   C3A41669  41.539  15.227   7.055
 8736POPC   C4A41670  41.594  15.200   7.355
 8736POPC   C1B41671  41.754  15.044   6.455
 8736POPC   C2B41672  41.775  15.081   6.755
 8736POPC   C3B41673  41.813  15.063   7.055
 8736POPC   C4B41674  41.748  15.128   7.355
 8737POPC   NC341675  15.917  19.052   5.555
 8737POPC   PO441676  15.925  19.024   5.855
 8737POPC   GL141677  15.980  19.027   6.155
 8737POPC   GL241678  15.912  19.195   6.155
 8737POPC   C1A41679  15.977  19.079   6.455
 8737POPC   D2A41680  15.921  19.023   6.755
 8737POPC   C3A41681  15.999  19.107   7.055
 8737POPC   C4A41682  16.002  19.067   7.355
 8737POPC   C1B41683  15.802  19.199   6.455
 8737POPC   C2B41684  15.787  19.227   6.755
 8737POPC   C3B41685  15.792  19.277   7.055
 8737POPC   C4B41686  15.838  19.273   7.355
 8738POPC   NC341687  28.371  24.496   5.555
 8738POPC   PO441688  28.404  24.535   5.855
 8738POPC   GL141689  28.338  24.482   6.155
 8738POPC   GL241690  28.496  24.414   6.155
 8738POPC   C1A41691  28.406  24.533   6.455
 8738POPC   D2A41692  28.357  24.482   6.755
 8738POPC   C3A41693  28.341  24.453   7.055
 8738POPC   C4A41694  28.330  24.530   7.355
 8738POPC   C1B41695  28.543  24.284   6.455
 8738POPC   C2B41696  28.542  24.313   6.755
 8738POPC   C3B41697  28.507  24.280   7.055
 8738POPC   C4B41698  28.563  24.308   7.355
 8739POPC   NC341699  11.305  24.454   5.555
 8739POPC   PO441700  11.335  24.510   5.855
 8739POPC   GL141701  11.313  24.482   6.155
 8739POPC   GL241702  11.407  24.436   6.155
 8739POPC   C1A41703  11.262  24.479   6.455
 8739POPC   D2A41704  11.263  24.531   6.755
 8739POPC   C3A41705  11.263  24.471   7.055
 8739POPC   C4A41706  11.271  24.528   7.355
 8739POPC   C1B41707  11.542  24.501   6.455
 8739POPC   C2B41708  11.586  24.468   6.755
 8739POPC   C3B41709  11.513  24.456   7.055
 8739POPC   C4B41710  11.591  24.482   7.355
 8740POPC   NC341711  42.315  19.052   5.555
 8740POPC   PO441712  42.295  19.052   5.855
 8740POPC   GL141713  42.342  19.092   6.155
 8740POPC   GL241714  42.200  19.128   6.155
 8740POPC   C1A41715  42.331  19.069   6.455
 8740POPC   D2A41716  42.287  19.023   6.755
 8740POPC   C3A41717  42.353  19.079   7.055
 8740POPC   C4A41718  42.296  19.038   7.355
 8740POPC   C1B41719  42.109  19.196   6.455
 8740POPC   C2B41720  42.133  19.247   6.755
 8740POPC   C3B41721  42.126  19.180   7.055
 8740POPC   C4B41722  42.148  19.153   7.355
 8741POPC   NC341723  24.462  42.315   5.555
 8741POPC   PO441724  24.473  42.317   5.855
 8741POPC   GL141725  24.497  42.373   6.155
 8741POPC   GL241726  24.447  42.284   6.155
 8741POPC   C1A41727  24.538  42.298   6.455
 8741POPC   D2A41728  24.517  42.307   6.755
 8741POPC   C3A41729  24.494  42.378   7.055
 8741POPC   C4A41730  24.446  42.349   7.355
 8741POPC   C1B41731  24.335  42.171   6.455
 8741POPC   C2B41732  24.261  42.168   6.755
 8741POPC   C3B41733  24.312  42.175   7.055
 8741POPC   C4B41734  24.274  42.179   7.355
 8742POPC   NC341735  12.859  19.832   5.555
 8742POPC   PO441736  12.888  19.860   5.855
 8742POPC   GL141737  12.842  19.812   6.155
 8742POPC   GL241738  12.784  19.930   6.155
 8742POPC   C1A41739  12.882  19.820   6.455
 8742POPC   D2A41740  12.832  19.814   6.755
 8742POPC   C3A41741  12.845  19.814   7.055
 8742POPC   C4A41742  12.868  19.876   7.355
 8742POPC   C1B41743  12.601  19.936   6.455
 8742POPC   C2B41744  12.578  19.900   6.755
 8742POPC   C3B41745  12.598  19.948   7.055
 8742POPC   C4B41746  12.657  19.918   7.355
 8743POPC   NC341747  42.345  33.059   5.555
 8743POPC   PO441748  42.296  33.073   5.855
 8743POPC   GL141749  42.293  33.025   6.155
 8743POPC   GL241750  42.192  33.080   6.155
 8743POPC   C1A41751  42.365  33.073   6.455
 8743POPC   D2A41752  42.329  33.043   6.755
 8743POPC   C3A41753  42.341  33.066   7.055
 8743POPC   C4A41754  42.349  33.005   7.355
 8743POPC   C1B41755  42.085  33.186   6.455
 8743POPC   C2B41756  42.149  33.172   6.755
 8743POPC   C3B41757  42.091  33.203   7.055
 8743POPC   C4B41758  42.097  33.159   7.355
 8744POPC   NC341759   9.780   8.999   5.555
 8744POPC   PO441760   9.725   9.003   5.855
 8744POPC   GL141761   9.773   8.976   6.155
 8744POPC   GL241762   9.663   8.966   6.155
 8744POPC   C1A41763   9.789   8.936   6.455
 8744POPC   D2A41764   9.714   8.927   6.755
 8744POPC   C3A41765   9.703   8.956   7.055
 8744POPC   C4A41766   9.699   8.962   7.355
 8744POPC   C1B41767   9.451   9.027   6.455
 8744POPC   C2B41768   9.536   8.975   6.755
 8744POPC   C3B41769   9.530   8.978   7.055
 8744POPC   C4B41770   9.521   9.018   7.355
 8745POPC   NC341771  16.780  19.809   5.555
 8745POPC   PO441772  16.685  19.815   5.855
 8745POPC   GL141773  16.696  19.815   6.155
 8745POPC   GL241774  16.626  19.845   6.155
 8745POPC   C1A41775  16.683  19.834   6.455
 8745POPC   D2A41776  16.754  19.813   6.755
 8745POPC   C3A41777  16.775  19.865   7.055
 8745POPC   C4A41778  16.740  19.801   7.355
 8745POPC   C1B41779  16.496  19.919   6.455
 8745POPC   C2B41780  16.500  19.890   6.755
 8745POPC   C3B41781  16.482  19.964   7.055
 8745POPC   C4B41782  16.544  19.968   7.355
 8746POPC   NC341783  16.687   5.894   5.555
 8746POPC   PO441784  16.740   5.858   5.855
 8746POPC   GL141785  16.757   5.885   6.155
 8746POPC   GL241786  16.662   5.932   6.155
 8746POPC   C1A41787  16.745   5.858   6.455
 8746POPC   D2A41788  16.700   5.862   6.755
 8746POPC   C3A41789  16.692   5.905   7.055
 8746POPC   C4A41790  16.778   5.829   7.355
 8746POPC   C1B41791  16.471   5.987   6.455
 8746POPC   C2B41792  16.485   5.976   6.755
 8746POPC   C3B41793  16.504   5.991   7.055
 8746POPC   C4B41794  16.549   5.964   7.355
 8747POPC   NC341795  44.683  29.878   5.555
 8747POPC   PO441796  44.701  29.887   5.855
 8747POPC   GL141797  44.645  29.916   6.155
 8747POPC   GL241798  44.693  30.041   6.155
 8747POPC   C1A41799  44.672  29.883   6.455
 8747POPC   D2A41800  44.699  29.895   6.755
 8747POPC   C3A41801  44.668  29.883   7.055
 8747POPC   C4A41802  44.697  29.875   7.355
 8747POPC   C1B41803  44.653  30.145   6.455
 8747POPC   C2B41804  44.633  30.193   6.755
 8747POPC   C3B41805  44.655  30.194   7.055
 8747POPC   C4B41806  44.716  30.213   7.355
 8748POPC   NC341807  17.544  12.821   5.555
 8748POPC   PO441808  17.494  12.858   5.855
 8748POPC   GL141809  17.486  12.861   6.155
 8748POPC   GL241810  17.445  12.779   6.155
 8748POPC   C1A41811  17.515  12.872   6.455
 8748POPC   D2A41812  17.458  12.810   6.755
 8748POPC   C3A41813  17.556  12.886   7.055
 8748POPC   C4A41814  17.538  12.865   7.355
 8748POPC   C1B41815  17.425  12.659   6.455
 8748POPC   C2B41816  17.412  12.607   6.755
 8748POPC   C3B41817  17.427  12.576   7.055
 8748POPC   C4B41818  17.418  12.666   7.355
 8749POPC   NC341819  12.808  38.411   5.555
 8749POPC   PO441820  12.833  38.419   5.855
 8749POPC   GL141821  12.804  38.422   6.155
 8749POPC   GL241822  12.820  38.593   6.155
 8749POPC   C1A41823  12.838  38.409   6.455
 8749POPC   D2A41824  12.899  38.471   6.755
 8749POPC   C3A41825  12.857  38.492   7.055
 8749POPC   C4A41826  12.876  38.503   7.355
 8749POPC   C1B41827  12.735  38.674   6.455
 8749POPC   C2B41828  12.779  38.727   6.755
 8749POPC   C3B41829  12.733  38.671   7.055
 8749POPC   C4B41830  12.737  38.722   7.355
 8750POPC   NC341831  44.697   8.937   5.555
 8750POPC   PO441832  44.666   8.961   5.855
 8750POPC   GL141833  44.668   8.959   6.155
 8750POPC   GL241834  44.739   9.047   6.155
 8750POPC   C1A41835  44.659   8.928   6.455
 8750POPC   D2A41836  44.696   8.941   6.755
 8750POPC   C3A41837  44.629   8.944   7.055
 8750POPC   C4A41838  44.685   9.005   7.355
 8750POPC   C1B41839  44.891   9.059   6.455
 8750POPC   C2B41840  44.893   9.100   6.755
 8750POPC   C3B41841  44.926   9.103   7.055
 8750POPC   C4B41842  44.865   9.057   7.355
 8751POPC   NC341843  43.080  22.942   5.555
 8751POPC   PO441844  43.133  22.918   5.855
 8751POPC   GL141845  43.126  22.946   6.155
 8751POPC   GL241846  43.239  22.940   6.155
 8751POPC   C1A41847  43.098  22.976   6.455
 8751POPC   D2A41848  43.147  22.941   6.755
 8751POPC   C3A41849  43.094  22.893   7.055
 8751POPC   C4A41850  43.149  22.924   7.355
 8751POPC   C1B41851  43.313  22.842   6.455
 8751POPC   C2B41852  43.350  22.857   6.755
 8751POPC   C3B41853  43.351  22.897   7.055
 8751POPC   C4B41854  43.390  22.871   7.355
 8752POPC   NC341855  37.694  34.618   5.555
 8752POPC   PO441856  37.673  34.609   5.855
 8752POPC   GL141857  37.664  34.558   6.155
 8752POPC   GL241858  37.661  34.657   6.155
 8752POPC   C1A41859  37.686  34.578   6.455
 8752POPC   D2A41860  37.697  34.601   6.755
 8752POPC   C3A41861  37.723  34.593   7.055
 8752POPC   C4A41862  37.673  34.594   7.355
 8752POPC   C1B41863  37.560  34.782   6.455
 8752POPC   C2B41864  37.566  34.783   6.755
 8752POPC   C3B41865  37.551  34.828   7.055
 8752POPC   C4B41866  37.579  34.782   7.355
 8753POPC   NC341867   8.209  35.378   5.555
 8753POPC   PO441868   8.222  35.374   5.855
 8753POPC   GL141869   8.190  35.334   6.155
 8753POPC   GL241870   8.052  35.360   6.155
 8753POPC   C1A41871   8.183  35.367   6.455
 8753POPC   D2A41872   8.207  35.366   6.755
 8753POPC   C3A41873   8.229  35.305   7.055
 8753POPC   C4A41874   8.154  35.375   7.355
 8753POPC   C1B41875   7.913  35.331   6.455
 8753POPC   C2B41876   7.968  35.335   6.755
 8753POPC   C3B41877   7.967  35.317   7.055
 8753POPC   C4B41878   7.997  35.309   7.355
 8754POPC   NC341879  40.821  24.457   5.555
 8754POPC   PO441880  40.806  24.479   5.855
 8754POPC   GL141881  40.777  24.447   6.155
 8754POPC   GL241882  40.700  24.562   6.155
 8754POPC   C1A41883  40.776  24.485   6.455
 8754POPC   D2A41884  40.735  24.473   6.755
 8754POPC   C3A41885  40.750  24.489   7.055
 8754POPC   C4A41886  40.763  24.445   7.355
 8754POPC   C1B41887  40.635  24.628   6.455
 8754POPC   C2B41888  40.628  24.666   6.755
 8754POPC   C3B41889  40.635  24.654   7.055
 8754POPC   C4B41890  40.540  24.663   7.355
 8755POPC   NC341891  15.154  26.807   5.555
 8755POPC   PO441892  15.160  26.782   5.855
 8755POPC   GL141893  15.155  26.861   6.155
 8755POPC   GL241894  15.204  26.670   6.155
 8755POPC   C1A41895  15.218  26.773   6.455
 8755POPC   D2A41896  15.162  26.771   6.755
 8755POPC   C3A41897  15.197  26.820   7.055
 8755POPC   C4A41898  15.143  26.852   7.355
 8755POPC   C1B41899  15.274  26.612   6.455
 8755POPC   C2B41900  15.247  26.597   6.755
 8755POPC   C3B41901  15.262  26.579   7.055
 8755POPC   C4B41902  15.197  26.537   7.355
 8756POPC   NC341903  22.146  12.872   5.555
 8756POPC   PO441904  22.185  12.843   5.855
 8756POPC   GL141905  22.183  12.822   6.155
 8756POPC   GL241906  22.019  12.860   6.155
 8756POPC   C1A41907  22.124  12.885   6.455
 8756POPC   D2A41908  22.185  12.805   6.755
 8756POPC   C3A41909  22.208  12.831   7.055
 8756POPC   C4A41910  22.134  12.859   7.355
 8756POPC   C1B41911  21.925  12.963   6.455
 8756POPC   C2B41912  21.941  12.979   6.755
 8756POPC   C3B41913  21.973  12.944   7.055
 8756POPC   C4B41914  21.930  12.957   7.355
 8757POPC   NC341915   2.797   8.170   5.555
 8757POPC   PO441916   2.723   8.167   5.855
 8757POPC   GL141917   2.741   8.194   6.155
 8757POPC   GL241918   2.746   8.292   6.155
 8757POPC   C1A41919   2.756   8.159   6.455
 8757POPC   D2A41920   2.790   8.208   6.755
 8757POPC   C3A41921   2.789   8.163   7.055
 8757POPC   C4A41922   2.790   8.153   7.355
 8757POPC   C1B41923   2.751   8.460   6.455
 8757POPC   C2B41924   2.784   8.495   6.755
 8757POPC   C3B41925   2.737   8.487   7.055
 8757POPC   C4B41926   2.723   8.470   7.355
 8758POPC   NC341927  40.791   5.846   5.555
 8758POPC   PO441928  40.764   5.853   5.855
 8758POPC   GL141929  40.794   5.884   6.155
 8758POPC   GL241930  40.713   5.904   6.155
 8758POPC   C1A41931  40.796   5.853   6.455
 8758POPC   D2A41932  40.815   5.895   6.755
 8758POPC   C3A41933  40.741   5.858   7.055
 8758POPC   C4A41934  40.741   5.829   7.355
 8758POPC   C1B41935  40.544   5.957   6.455
 8758POPC   C2B41936  40.584   6.026   6.755
 8758POPC   C3B41937  40.615   6.010   7.055
 8758POPC   C4B41938  40.580   6.019   7.355
 8759POPC   NC341939   5.061  36.873   5.555
 8759POPC   PO441940   5.101  36.887   5.855
 8759POPC   GL141941   5.077  36.862   6.155
 8759POPC   GL241942   4.933  36.906   6.155
 8759POPC   C1A41943   5.143  36.854   6.455
 8759POPC   D2A41944   5.054  36.944   6.755
 8759POPC   C3A41945   5.142  36.893   7.055
 8759POPC   C4A41946   5.119  36.858   7.355
 8759POPC   C1B41947   4.815  36.907   6.455
 8759POPC   C2B41948   4.846  36.849   6.755
 8759POPC   C3B41949   4.797  36.859   7.055
 8759POPC   C4B41950   4.854  36.912   7.355
 8760POPC   NC341951  32.227  44.632   5.555
 8760POPC   PO441952  32.287  44.622   5.855
 8760POPC   GL141953  32.282  44.633   6.155
 8760POPC   GL241954  32.126  44.679   6.155
 8760POPC   C1A41955  32.259  44.671   6.455
 8760POPC   D2A41956  32.225  44.618   6.755
 8760POPC   C3A41957  32.203  44.642   7.055
 8760POPC   C4A41958  32.222  44.641   7.355
 8760POPC   C1B41959  32.065  44.755   6.455
 8760POPC   C2B41960  32.042  44.738   6.755
 8760POPC   C3B41961  32.010  44.741   7.055
 8760POPC   C4B41962  32.002  44.802   7.355
 8761POPC   NC341963   3.507   4.276   5.555
 8761POPC   PO441964   3.540   4.333   5.855
 8761POPC   GL141965   3.554   4.313   6.155
 8761POPC   GL241966   3.476   4.380   6.155
 8761POPC   C1A41967   3.548   4.342   6.455
 8761POPC   D2A41968   3.549   4.349   6.755
 8761POPC   C3A41969   3.502   4.301   7.055
 8761POPC   C4A41970   3.567   4.285   7.355
 8761POPC   C1B41971   3.405   4.567   6.455
 8761POPC   C2B41972   3.376   4.499   6.755
 8761POPC   C3B41973   3.467   4.578   7.055
 8761POPC   C4B41974   3.388   4.556   7.355
 8762POPC   NC341975   1.232   8.194   5.555
 8762POPC   PO441976   1.243   8.225   5.855
 8762POPC   GL141977   1.242   8.208   6.155
 8762POPC   GL241978   1.315   8.298   6.155
 8762POPC   C1A41979   1.226   8.150   6.455
 8762POPC   D2A41980   1.256   8.166   6.755
 8762POPC   C3A41981   1.208   8.165   7.055
 8762POPC   C4A41982   1.225   8.195   7.355
 8762POPC   C1B41983   1.350   8.367   6.455
 8762POPC   C2B41984   1.364   8.413   6.755
 8762POPC   C3B41985   1.304   8.454   7.055
 8762POPC   C4B41986   1.352   8.378   7.355
 8763POPC   NC341987  33.784  35.316   5.555
 8763POPC   PO441988  33.784  35.375   5.855
 8763POPC   GL141989  33.782  35.329   6.155
 8763POPC   GL241990  33.750  35.316   6.155
 8763POPC   C1A41991  33.846  35.372   6.455
 8763POPC   D2A41992  33.813  35.307   6.755
 8763POPC   C3A41993  33.767  35.372   7.055
 8763POPC   C4A41994  33.793  35.372   7.355
 8763POPC   C1B41995  33.574  35.216   6.455
 8763POPC   C2B41996  33.616  35.165   6.755
 8763POPC   C3B41997  33.613  35.185   7.055
 8763POPC   C4B41998  33.611  35.218   7.355
 8764POPC   NC341999  44.699  43.091   5.555
 8764POPC   PO442000  44.686  43.089   5.855
 8764POPC   GL142001  44.698  43.106   6.155
 8764POPC   GL242002  44.828  43.185   6.155
 8764POPC   C1A42003  44.678  43.121   6.455
 8764POPC   D2A42004  44.658  43.136   6.755
 8764POPC   C3A42005  44.614  43.079   7.055
 8764POPC   C4A42006  44.667  43.160   7.355
 8764POPC   C1B42007  44.884  43.176   6.455
 8764POPC   C2B42008  44.913  43.128   6.755
 8764POPC   C3B42009  44.862  43.202   7.055
 8764POPC   C4B42010  44.890  43.217   7.355
 8765POPC   NC342011  33.793  33.789   5.555
 8765POPC   PO442012  33.773  33.826   5.855
 8765POPC   GL142013  33.837  33.773   6.155
 8765POPC   GL242014  33.701  33.853   6.155
 8765POPC   C1A42015  33.828  33.781   6.455
 8765POPC   D2A42016  33.760  33.759   6.755
 8765POPC   C3A42017  33.805  33.826   7.055
 8765POPC   C4A42018  33.824  33.802   7.355
 8765POPC   C1B42019  33.664  33.951   6.455
 8765POPC   C2B42020  33.619  33.966   6.755
 8765POPC   C3B42021  33.644  33.986   7.055
 8765POPC   C4B42022  33.643  34.026   7.355
 8766POPC   NC342023   2.815   2.757   5.555
 8766POPC   PO442024   2.782   2.793   5.855
 8766POPC   GL142025   2.771   2.736   6.155
 8766POPC   GL242026   2.620   2.808   6.155
 8766POPC   C1A42027   2.766   2.722   6.455
 8766POPC   D2A42028   2.784   2.759   6.755
 8766POPC   C3A42029   2.770   2.809   7.055
 8766POPC   C4A42030   2.795   2.783   7.355
 8766POPC   C1B42031   2.526   2.910   6.455
 8766POPC   C2B42032   2.571   2.844   6.755
 8766POPC   C3B42033   2.499   2.844   7.055
 8766POPC   C4B42034   2.584   2.919   7.355
 8767POPC   NC342035  16.695  26.817   5.555
 8767POPC   PO442036  16.694  26.803   5.855
 8767POPC   GL142037  16.759  26.859   6.155
 8767POPC   GL242038  16.625  26.734   6.155
 8767POPC   C1A42039  16.736  26.792   6.455
 8767POPC   D2A42040  16.722  26.811   6.755
 8767POPC   C3A42041  16.753  26.787   7.055
 8767POPC   C4A42042  16.754  26.801   7.355
 8767POPC   C1B42043  16.585  26.563   6.455
 8767POPC   C2B42044  16.585  26.584   6.755
 8767POPC   C3B42045  16.561  26.606   7.055
 8767POPC   C4B42046  16.639  26.630   7.355
 8768POPC   NC342047  43.902  41.528   5.555
 8768POPC   PO442048  43.897  41.519   5.855
 8768POPC   GL142049  43.905  41.598   6.155
 8768POPC   GL242050  43.802  41.473   6.155
 8768POPC   C1A42051  43.882  41.596   6.455
 8768POPC   D2A42052  43.856  41.567   6.755
 8768POPC   C3A42053  43.882  41.557   7.055
 8768POPC   C4A42054  43.912  41.516   7.355
 8768POPC   C1B42055  43.814  41.307   6.455
 8768POPC   C2B42056  43.809  41.372   6.755
 8768POPC   C3B42057  43.741  41.313   7.055
 8768POPC   C4B42058  43.747  41.359   7.355
 8769POPC   NC342059  30.737  40.764   5.555
 8769POPC   PO442060  30.706  40.814   5.855
 8769POPC   GL142061  30.706  40.751   6.155
 8769POPC   GL242062  30.817  40.892   6.155
 8769POPC   C1A42063  30.657  40.766   6.455
 8769POPC   D2A42064  30.723  40.790   6.755
 8769POPC   C3A42065  30.694  40.803   7.055
 8769POPC   C4A42066  30.707  40.766   7.355
 8769POPC   C1B42067  30.836  40.956   6.455
 8769POPC   C2B42068  30.843  40.950   6.755
 8769POPC   C3B42069  30.892  40.975   7.055
 8769POPC   C4B42070  30.901  40.978   7.355
 8770POPC   NC342071   1.164  30.662   5.555
 8770POPC   PO442072   1.241  30.678   5.855
 8770POPC   GL142073   1.203  30.721   6.155
 8770POPC   GL242074   1.297  30.770   6.155
 8770POPC   C1A42075   1.239  30.647   6.455
 8770POPC   D2A42076   1.246  30.708   6.755
 8770POPC   C3A42077   1.226  30.689   7.055
 8770POPC   C4A42078   1.227  30.665   7.355
 8770POPC   C1B42079   1.307  30.881   6.455
 8770POPC   C2B42080   1.338  30.955   6.755
 8770POPC   C3B42081   1.377  30.936   7.055
 8770POPC   C4B42082   1.389  30.906   7.355
 8771POPC   NC342083   1.210   3.550   5.555
 8771POPC   PO442084   1.237   3.548   5.855
 8771POPC   GL142085   1.238   3.559   6.155
 8771POPC   GL242086   1.247   3.653   6.155
 8771POPC   C1A42087   1.164   3.571   6.455
 8771POPC   D2A42088   1.234   3.523   6.755
 8771POPC   C3A42089   1.245   3.591   7.055
 8771POPC   C4A42090   1.223   3.539   7.355
 8771POPC   C1B42091   1.147   3.830   6.455
 8771POPC   C2B42092   1.190   3.758   6.755
 8771POPC   C3B42093   1.145   3.838   7.055
 8771POPC   C4B42094   1.227   3.772   7.355
 8772POPC   NC342095   8.158   0.393   5.555
 8772POPC   PO442096   8.169   0.431   5.855
 8772POPC   GL142097   8.191   0.436   6.155
 8772POPC   GL242098   8.193   0.516   6.155
 8772POPC   C1A42099   8.229   0.423   6.455
 8772POPC   D2A42100   8.158   0.426   6.755
 8772POPC   C3A42101   8.227   0.410   7.055
 8772POPC   C4A42102   8.241   0.437   7.355
 8772POPC   C1B42103   8.262   0.672   6.455
 8772POPC   C2B42104   8.306   0.652   6.755
 8772POPC   C3B42105   8.256   0.686   7.055
 8772POPC   C4B42106   8.308   0.683   7.355
 8773POPC   NC342107  26.823  42.366   5.555
 8773POPC   PO442108  26.859  42.303   5.855
 8773POPC   GL142109  26.786  42.312   6.155
 8773POPC   GL242110  26.754  42.242   6.155
 8773POPC   C1A42111  26.825  42.336   6.455
 8773POPC   D2A42112  26.792  42.374   6.755
 8773POPC   C3A42113  26.791  42.344   7.055
 8773POPC   C4A42114  26.811  42.298   7.355
 8773POPC   C1B42115  26.683  42.126   6.455
 8773POPC   C2B42116  26.657  42.128   6.755
 8773POPC   C3B42117  26.612  42.192   7.055
 8773POPC   C4B42118  26.703  42.121   7.355
 8774POPC   NC342119  43.074  36.126   5.555
 8774POPC   PO442120  43.132  36.115   5.855
 8774POPC   GL142121  43.109  36.143   6.155
 8774POPC   GL242122  42.998  36.052   6.155
 8774POPC   C1A42123  43.104  36.116   6.455
 8774POPC   D2A42124  43.103  36.125   6.755
 8774POPC   C3A42125  43.101  36.166   7.055
 8774POPC   C4A42126  43.066  36.164   7.355
 8774POPC   C1B42127  42.875  36.084   6.455
 8774POPC   C2B42128  42.844  36.086   6.755
 8774POPC   C3B42129  42.898  36.042   7.055
 8774POPC   C4B42130  42.863  36.014   7.355
 8775POPC   NC342131  41.552  31.477   5.555
 8775POPC   PO442132  41.601  31.508   5.855
 8775POPC   GL142133  41.538  31.499   6.155
 8775POPC   GL242134  41.673  31.445   6.155
 8775POPC   C1A42135  41.586  31.493   6.455
 8775POPC   D2A42136  41.559  31.430   6.755
 8775POPC   C3A42137  41.588  31.460   7.055
 8775POPC   C4A42138  41.554  31.439   7.355
 8775POPC   C1B42139  41.782  31.393   6.455
 8775POPC   C2B42140  41.781  31.386   6.755
 8775POPC   C3B42141  41.833  31.420   7.055
 8775POPC   C4B42142  41.775  31.402   7.355
 8776POPC   NC342143  13.653  36.865   5.555
 8776POPC   PO442144  13.660  36.914   5.855
 8776POPC   GL142145  13.633  36.855   6.155
 8776POPC   GL242146  13.614  36.781   6.155
 8776POPC   C1A42147  13.609  36.940   6.455
 8776POPC   D2A42148  13.585  36.867   6.755
 8776POPC   C3A42149  13.647  36.931   7.055
 8776POPC   C4A42150  13.615  36.884   7.355
 8776POPC   C1B42151  13.482  36.673   6.455
 8776POPC   C2B42152  13.514  36.680   6.755
 8776POPC   C3B42153  13.481  36.711   7.055
 8776POPC   C4B42154  13.531  36.721   7.355
 8777POPC   NC342155  37.693  22.170   5.555
 8777POPC   PO442156  37.664  22.185   5.855
 8777POPC   GL142157  37.663  22.149   6.155
 8777POPC   GL242158  37.776  22.034   6.155
 8777POPC   C1A42159  37.672  22.201   6.455
 8777POPC   D2A42160  37.712  22.131   6.755
 8777POPC   C3A42161  37.668  22.206   7.055
 8777POPC   C4A42162  37.694  22.210   7.355
 8777POPC   C1B42163  37.837  21.925   6.455
 8777POPC   C2B42164  37.771  21.969   6.755
 8777POPC   C3B42165  37.794  21.970   7.055
 8777POPC   C4B42166  37.811  21.986   7.355
 8778POPC   NC342167   7.467  12.809   5.555
 8778POPC   PO442168   7.423  12.816   5.855
 8778POPC   GL142169   7.388  12.881   6.155
 8778POPC   GL242170   7.310  12.774   6.155
 8778POPC   C1A42171   7.398  12.816   6.455
 8778POPC   D2A42172   7.440  12.802   6.755
 8778POPC   C3A42173   7.433  12.879   7.055
 8778POPC   C4A42174   7.389  12.889   7.355
 8778POPC   C1B42175   7.187  12.783   6.455
 8778POPC   C2B42176   7.239  12.771   6.755
 8778POPC   C3B42177   7.194  12.712   7.055
 8778POPC   C4B42178   7.221  12.794   7.355
 8779POPC   NC342179   0.416  32.245   5.555
 8779POPC   PO442180   0.443  32.228   5.855
 8779POPC   GL142181   0.477  32.246   6.155
 8779POPC   GL242182   0.461  32.371   6.155
 8779POPC   C1A42183   0.416  32.286   6.455
 8779POPC   D2A42184   0.481  32.240   6.755
 8779POPC   C3A42185   0.393  32.293   7.055
 8779POPC   C4A42186   0.421  32.298   7.355
 8779POPC   C1B42187   0.585  32.438   6.455
 8779POPC   C2B42188   0.564  32.436   6.755
 8779POPC   C3B42189   0.554  32.456   7.055
 8779POPC   C4B42190   0.553  32.467   7.355
 8780POPC   NC342191  39.996  41.514   5.555
 8780POPC   PO442192  40.001  41.591   5.855
 8780POPC   GL142193  39.979  41.538   6.155
 8780POPC   GL242194  40.065  41.639   6.155
 8780POPC   C1A42195  40.042  41.528   6.455
 8780POPC   D2A42196  39.991  41.568   6.755
 8780POPC   C3A42197  40.049  41.516   7.055
 8780POPC   C4A42198  39.974  41.516   7.355
 8780POPC   C1B42199  40.125  41.790   6.455
 8780POPC   C2B42200  40.104  41.802   6.755
 8780POPC   C3B42201  40.030  41.756   7.055
 8780POPC   C4B42202  40.097  41.769   7.355
 8781POPC   NC342203  39.274  19.787   5.555
 8781POPC   PO442204  39.245  19.818   5.855
 8781POPC   GL142205  39.281  19.861   6.155
 8781POPC   GL242206  39.142  19.770   6.155
 8781POPC   C1A42207  39.226  19.854   6.455
 8781POPC   D2A42208  39.264  19.850   6.755
 8781POPC   C3A42209  39.245  19.870   7.055
 8781POPC   C4A42210  39.263  19.804   7.355
 8781POPC   C1B42211  39.038  19.648   6.455
 8781POPC   C2B42212  39.101  19.677   6.755
 8781POPC   C3B42213  39.099  19.627   7.055
 8781POPC   C4B42214  39.044  19.621   7.355
 8782POPC   NC342215  38.493  20.570   5.555
 8782POPC   PO442216  38.488  20.563   5.855
 8782POPC   GL142217  38.469  20.612   6.155
 8782POPC   GL242218  38.511  20.526   6.155
 8782POPC   C1A42219  38.429  20.632   6.455
 8782POPC   D2A42220  38.488  20.598   6.755
 8782POPC   C3A42221  38.433  20.564   7.055
 8782POPC   C4A42222  38.462  20.567   7.355
 8782POPC   C1B42223  38.595  20.444   6.455
 8782POPC   C2B42224  38.613  20.420   6.755
 8782POPC   C3B42225  38.589  20.485   7.055
 8782POPC   C4B42226  38.682  20.401   7.355
 8783POPC   NC342227  21.433   4.296   5.555
 8783POPC   PO442228  21.387   4.282   5.855
 8783POPC   GL142229  21.416   4.349   6.155
 8783POPC   GL242230  21.311   4.469   6.155
 8783POPC   C1A42231  21.428   4.286   6.455
 8783POPC   D2A42232  21.384   4.340   6.755
 8783POPC   C3A42233  21.392   4.285   7.055
 8783POPC   C4A42234  21.371   4.362   7.355
 8783POPC   C1B42235  21.266   4.516   6.455
 8783POPC   C2B42236  21.276   4.527   6.755
 8783POPC   C3B42237  21.306   4.561   7.055
 8783POPC   C4B42238  21.244   4.549   7.355
 8784POPC   NC342239   8.981  25.221   5.555
 8784POPC   PO442240   8.952  25.226   5.855
 8784POPC   GL142241   9.008  25.310   6.155
 8784POPC   GL242242   9.072  25.319   6.155
 8784POPC   C1A42243   8.976  25.308   6.455
 8784POPC   D2A42244   8.987  25.280   6.755
 8784POPC   C3A42245   8.967  25.265   7.055
 8784POPC   C4A42246   8.993  25.262   7.355
 8784POPC   C1B42247   9.173  25.401   6.455
 8784POPC   C2B42248   9.143  25.476   6.755
 8784POPC   C3B42249   9.166  25.423   7.055
 8784POPC   C4B42250   9.169  25.413   7.355
 8785POPC   NC342251  44.646  21.422   5.555
 8785POPC   PO442252  44.695  21.378   5.855
 8785POPC   GL142253  44.709  21.400   6.155
 8785POPC   GL242254  44.603  21.520   6.155
 8785POPC   C1A42255  44.659  21.424   6.455
 8785POPC   D2A42256  44.619  21.396   6.755
 8785POPC   C3A42257  44.677  21.362   7.055
 8785POPC   C4A42258  44.634  21.344   7.355
 8785POPC   C1B42259  44.461  21.543   6.455
 8785POPC   C2B42260  44.473  21.537   6.755
 8785POPC   C3B42261  44.461  21.548   7.055
 8785POPC   C4B42262  44.512  21.590   7.355
 8786POPC   NC342263  23.698  38.469   5.555
 8786POPC   PO442264  23.751  38.410   5.855
 8786POPC   GL142265  23.692  38.421   6.155
 8786POPC   GL242266  23.581  38.405   6.155
 8786POPC   C1A42267  23.669  38.487   6.455
 8786POPC   D2A42268  23.686  38.451   6.755
 8786POPC   C3A42269  23.684  38.491   7.055
 8786POPC   C4A42270  23.677  38.467   7.355
 8786POPC   C1B42271  23.511  38.303   6.455
 8786POPC   C2B42272  23.456  38.320   6.755
 8786POPC   C3B42273  23.457  38.350   7.055
 8786POPC   C4B42274  23.520  38.357   7.355
 8787POPC   NC342275  23.737   3.535   5.555
 8787POPC   PO442276  23.721   3.546   5.855
 8787POPC   GL142277  23.684   3.562   6.155
 8787POPC   GL242278  23.554   3.501   6.155
 8787POPC   C1A42279  23.720   3.512   6.455
 8787POPC   D2A42280  23.703   3.566   6.755
 8787POPC   C3A42281  23.742   3.536   7.055
 8787POPC   C4A42282  23.698   3.581   7.355
 8787POPC   C1B42283  23.502   3.442   6.455
 8787POPC   C2B42284  23.504   3.446   6.755
 8787POPC   C3B42285  23.480   3.397   7.055
 8787POPC   C4B42286  23.541   3.460   7.355
 8788POPC   NC342287   5.837   8.163   5.555
 8788POPC   PO442288   5.888   8.206   5.855
 8788POPC   GL142289   5.903   8.240   6.155
 8788POPC   GL242290   5.726   8.258   6.155
 8788POPC   C1A42291   5.846   8.245   6.455
 8788POPC   D2A42292   5.867   8.225   6.755
 8788POPC   C3A42293   5.909   8.168   7.055
 8788POPC   C4A42294   5.850   8.199   7.355
 8788POPC   C1B42295   5.607   8.353   6.455
 8788POPC   C2B42296   5.639   8.363   6.755
 8788POPC   C3B42297   5.609   8.313   7.055
 8788POPC   C4B42298   5.639   8.356   7.355
 8789POPC   NC342299   3.590  37.656   5.555
 8789POPC   PO442300   3.557  37.642   5.855
 8789POPC   GL142301   3.538  37.706   6.155
 8789POPC   GL242302   3.375  37.692   6.155
 8789POPC   C1A42303   3.532  37.715   6.455
 8789POPC   D2A42304   3.578  37.669   6.755
 8789POPC   C3A42305   3.556  37.657   7.055
 8789POPC   C4A42306   3.493  37.702   7.355
 8789POPC   C1B42307   3.286  37.695   6.455
 8789POPC   C2B42308   3.285  37.777   6.755
 8789POPC   C3B42309   3.274  37.735   7.055
 8789POPC   C4B42310   3.318  37.751   7.355
 8790POPC   NC342311  22.905  33.753   5.555
 8790POPC   PO442312  22.987  33.771   5.855
 8790POPC   GL142313  22.901  33.780   6.155
 8790POPC   GL242314  23.008  33.799   6.155
 8790POPC   C1A42315  22.908  33.804   6.455
 8790POPC   D2A42316  22.913  33.806   6.755
 8790POPC   C3A42317  22.959  33.794   7.055
 8790POPC   C4A42318  22.984  33.771   7.355
 8790POPC   C1B42319  23.199  33.889   6.455
 8790POPC   C2B42320  23.165  33.895   6.755
 8790POPC   C3B42321  23.218  33.850   7.055
 8790POPC   C4B42322  23.166  33.890   7.355
 8791POPC   NC342323  40.749  19.843   5.555
 8791POPC   PO442324  40.818  19.805   5.855
 8791POPC   GL142325  40.814  19.836   6.155
 8791POPC   GL242326  40.770  19.682   6.155
 8791POPC   C1A42327  40.808  19.828   6.455
 8791POPC   D2A42328  40.812  19.873   6.755
 8791POPC   C3A42329  40.808  19.851   7.055
 8791POPC   C4A42330  40.805  19.853   7.355
 8791POPC   C1B42331  40.658  19.648   6.455
 8791POPC   C2B42332  40.684  19.655   6.755
 8791POPC   C3B42333  40.631  19.618   7.055
 8791POPC   C4B42334  40.669  19.599   7.355
 8792POPC   NC342335   0.401   5.833   5.555
 8792POPC   PO442336   0.389   5.907   5.855
 8792POPC   GL142337   0.422   5.908   6.155
 8792POPC   GL242338   0.371   5.763   6.155
 8792POPC   C1A42339   0.418   5.879   6.455
 8792POPC   D2A42340   0.420   5.896   6.755
 8792POPC   C3A42341   0.481   5.913   7.055
 8792POPC   C4A42342   0.429   5.853   7.355
 8792POPC   C1B42343   0.402   5.649   6.455
 8792POPC   C2B42344   0.372   5.612   6.755
 8792POPC   C3B42345   0.345   5.614   7.055
 8792POPC   C4B42346   0.430   5.599   7.355
 8793POPC   NC342347  12.068  21.343   5.555
 8793POPC   PO442348  12.097  21.362   5.855
 8793POPC   GL142349  12.050  21.342   6.155
 8793POPC   GL242350  12.194  21.344   6.155
 8793POPC   C1A42351  12.055  21.387   6.455
 8793POPC   D2A42352  12.116  21.371   6.755
 8793POPC   C3A42353  12.041  21.398   7.055
 8793POPC   C4A42354  12.073  21.344   7.355
 8793POPC   C1B42355  12.235  21.169   6.455
 8793POPC   C2B42356  12.269  21.197   6.755
 8793POPC   C3B42357  12.230  21.230   7.055
 8793POPC   C4B42358  12.289  21.197   7.355
 8794POPC   NC342359  26.824  29.152   5.555
 8794POPC   PO442360  26.782  29.117   5.855
 8794POPC   GL142361  26.790  29.132   6.155
 8794POPC   GL242362  26.720  29.082   6.155
 8794POPC   C1A42363  26.790  29.159   6.455
 8794POPC   D2A42364  26.811  29.159   6.755
 8794POPC   C3A42365  26.783  29.184   7.055
 8794POPC   C4A42366  26.769  29.125   7.355
 8794POPC   C1B42367  26.607  29.015   6.455
 8794POPC   C2B42368  26.610  28.963   6.755
 8794POPC   C3B42369  26.590  28.971   7.055
 8794POPC   C4B42370  26.679  29.010   7.355
 8795POPC   NC342371  18.320  16.717   5.555
 8795POPC   PO442372  18.281  16.742   5.855
 8795POPC   GL142373  18.263  16.714   6.155
 8795POPC   GL242374  18.156  16.704   6.155
 8795POPC   C1A42375  18.304  16.685   6.455
 8795POPC   D2A42376  18.244  16.692   6.755
 8795POPC   C3A42377  18.235  16.764   7.055
 8795POPC   C4A42378  18.315  16.705   7.355
 8795POPC   C1B42379  18.075  16.621   6.455
 8795POPC   C2B42380  18.106  16.593   6.755
 8795POPC   C3B42381  18.055  16.650   7.055
 8795POPC   C4B42382  18.036  16.642   7.355
 8796POPC   NC342383  24.520  32.203   5.555
 8796POPC   PO442384  24.479  32.283   5.855
 8796POPC   GL142385  24.537  32.289   6.155
 8796POPC   GL242386  24.389  32.305   6.155
 8796POPC   C1A42387  24.461  32.243   6.455
 8796POPC   D2A42388  24.464  32.209   6.755
 8796POPC   C3A42389  24.464  32.205   7.055
 8796POPC   C4A42390  24.452  32.287   7.355
 8796POPC   C1B42391  24.299  32.373   6.455
 8796POPC   C2B42392  24.255  32.372   6.755
 8796POPC   C3B42393  24.275  32.363   7.055
 8796POPC   C4B42394  24.253  32.385   7.355
 8797POPC   NC342395  37.672  28.384   5.555
 8797POPC   PO442396  37.678  28.384   5.855
 8797POPC   GL142397  37.632  28.341   6.155
 8797POPC   GL242398  37.571  28.367   6.155
 8797POPC   C1A42399  37.658  28.407   6.455
 8797POPC   D2A42400  37.633  28.332   6.755
 8797POPC   C3A42401  37.645  28.353   7.055
 8797POPC   C4A42402  37.677  28.413   7.355
 8797POPC   C1B42403  37.437  28.333   6.455
 8797POPC   C2B42404  37.466  28.289   6.755
 8797POPC   C3B42405  37.431  28.363   7.055
 8797POPC   C4B42406  37.423  28.328   7.355
 8798POPC   NC342407  24.504  24.526   5.555
 8798POPC   PO442408  24.504  24.498   5.855
 8798POPC   GL142409  24.519  24.499   6.155
 8798POPC   GL242410  24.341  24.401   6.155
 8798POPC   C1A42411  24.461  24.507   6.455
 8798POPC   D2A42412  24.514  24.462   6.755
 8798POPC   C3A42413  24.476  24.504   7.055
 8798POPC   C4A42414  24.491  24.522   7.355
 8798POPC   C1B42415  24.229  24.383   6.455
 8798POPC   C2B42416  24.213  24.419   6.755
 8798POPC   C3B42417  24.278  24.384   7.055
 8798POPC   C4B42418  24.259  24.386   7.355
 8799POPC   NC342419  29.160   9.723   5.555
 8799POPC   PO442420  29.096   9.753   5.855
 8799POPC   GL142421  29.107   9.734   6.155
 8799POPC   GL242422  29.183   9.595   6.155
 8799POPC   C1A42423  29.189   9.751   6.455
 8799POPC   D2A42424  29.136   9.766   6.755
 8799POPC   C3A42425  29.122   9.790   7.055
 8799POPC   C4A42426  29.109   9.716   7.355
 8799POPC   C1B42427  29.199   9.496   6.455
 8799POPC   C2B42428  29.212   9.560   6.755
 8799POPC   C3B42429  29.208   9.475   7.055
 8799POPC   C4B42430  29.190   9.517   7.355
 8800POPC   NC342431  11.317   9.759   5.555
 8800POPC   PO442432  11.308   9.750   5.855
 8800POPC   GL142433  11.281   9.702   6.155
 8800POPC   GL242434  11.388   9.676   6.155
 8800POPC   C1A42435  11.349   9.754   6.455
 8800POPC   D2A42436  11.309   9.710   6.755
 8800POPC   C3A42437  11.348   9.712   7.055
 8800POPC   C4A42438  11.280   9.783   7.355
 8800POPC   C1B42439  11.415   9.482   6.455
 8800POPC   C2B42440  11.449   9.553   6.755
 8800POPC   C3B42441  11.380   9.557   7.055
 8800POPC   C4B42442  11.425   9.541   7.355
 8801POPC   NC342443  43.159  41.601   5.555
 8801POPC   PO442444  43.062  41.529   5.855
 8801POPC   GL142445  43.117  41.557   6.155
 8801POPC   GL242446  43.245  41.569   6.155
 8801POPC   C1A42447  43.145  41.535   6.455
 8801POPC   D2A42448  43.097  41.527   6.755
 8801POPC   C3A42449  43.076  41.599   7.055
 8801POPC   C4A42450  43.151  41.543   7.355
 8801POPC   C1B42451  43.362  41.622   6.455
 8801POPC   C2B42452  43.325  41.663   6.755
 8801POPC   C3B42453  43.356  41.644   7.055
 8801POPC   C4B42454  43.337  41.685   7.355
 8802POPC   NC342455   8.242  16.767   5.555
 8802POPC   PO442456   8.212  16.762   5.855
 8802POPC   GL142457   8.208  16.704   6.155
 8802POPC   GL242458   8.097  16.750   6.155
 8802POPC   C1A42459   8.155  16.736   6.455
 8802POPC   D2A42460   8.179  16.700   6.755
 8802POPC   C3A42461   8.234  16.689   7.055
 8802POPC   C4A42462   8.218  16.776   7.355
 8802POPC   C1B42463   7.951  16.745   6.455
 8802POPC   C2B42464   7.945  16.707   6.755
 8802POPC   C3B42465   7.990  16.790   7.055
 8802POPC   C4B42466   7.953  16.729   7.355
 8803POPC   NC342467  29.910  20.640   5.555
 8803POPC   PO442468  29.947  20.578   5.855
 8803POPC   GL142469  29.933  20.576   6.155
 8803POPC   GL242470  29.755  20.564   6.155
 8803POPC   C1A42471  29.948  20.603   6.455
 8803POPC   D2A42472  29.913  20.634   6.755
 8803POPC   C3A42473  29.907  20.634   7.055
 8803POPC   C4A42474  29.894  20.631   7.355
 8803POPC   C1B42475  29.708  20.589   6.455
 8803POPC   C2B42476  29.630  20.600   6.755
 8803POPC   C3B42477  29.639  20.630   7.055
 8803POPC   C4B42478  29.657  20.619   7.355
 8804POPC   NC342479  27.549   7.464   5.555
 8804POPC   PO442480  27.578   7.417   5.855
 8804POPC   GL142481  27.567   7.443   6.155
 8804POPC   GL242482  27.447   7.349   6.155
 8804POPC   C1A42483  27.618   7.458   6.455
 8804POPC   D2A42484  27.550   7.416   6.755
 8804POPC   C3A42485  27.590   7.405   7.055
 8804POPC   C4A42486  27.570   7.371   7.355
 8804POPC   C1B42487  27.378   7.237   6.455
 8804POPC   C2B42488  27.436   7.258   6.755
 8804POPC   C3B42489  27.363   7.309   7.055
 8804POPC   C4B42490  27.426   7.280   7.355
 8805POPC   NC342491   7.399  13.632   5.555
 8805POPC   PO442492   7.430  13.589   5.855
 8805POPC   GL142493   7.389  13.629   6.155
 8805POPC   GL242494   7.435  13.501   6.155
 8805POPC   C1A42495   7.453  13.652   6.455
 8805POPC   D2A42496   7.432  13.594   6.755
 8805POPC   C3A42497   7.421  13.673   7.055
 8805POPC   C4A42498   7.441  13.641   7.355
 8805POPC   C1B42499   7.435  13.411   6.455
 8805POPC   C2B42500   7.447  13.419   6.755
 8805POPC   C3B42501   7.424  13.428   7.055
 8805POPC   C4B42502   7.500  13.384   7.355
 8806POPC   NC342503  34.570  31.489   5.555
 8806POPC   PO442504  34.614  31.468   5.855
 8806POPC   GL142505  34.617  31.477   6.155
 8806POPC   GL242506  34.451  31.445   6.155
 8806POPC   C1A42507  34.547  31.463   6.455
 8806POPC   D2A42508  34.560  31.451   6.755
 8806POPC   C3A42509  34.592  31.502   7.055
 8806POPC   C4A42510  34.572  31.510   7.355
 8806POPC   C1B42511  34.350  31.320   6.455
 8806POPC   C2B42512  34.363  31.329   6.755
 8806POPC   C3B42513  34.378  31.319   7.055
 8806POPC   C4B42514  34.373  31.371   7.355
 8807POPC   NC342515   1.169  25.996   5.555
 8807POPC   PO442516   1.260  26.009   5.855
 8807POPC   GL142517   1.197  26.031   6.155
 8807POPC   GL242518   1.237  26.118   6.155
 8807POPC   C1A42519   1.227  26.013   6.455
 8807POPC   D2A42520   1.257  26.006   6.755
 8807POPC   C3A42521   1.182  26.026   7.055
 8807POPC   C4A42522   1.263  26.011   7.355
 8807POPC   C1B42523   1.338  26.280   6.455
 8807POPC   C2B42524   1.332  26.282   6.755
 8807POPC   C3B42525   1.371  26.258   7.055
 8807POPC   C4B42526   1.383  26.211   7.355
 8808POPC   NC342527  29.892   8.185   5.555
 8808POPC   PO442528  29.913   8.198   5.855
 8808POPC   GL142529  29.914   8.155   6.155
 8808POPC   GL242530  29.841   8.335   6.155
 8808POPC   C1A42531  29.875   8.164   6.455
 8808POPC   D2A42532  29.905   8.216   6.755
 8808POPC   C3A42533  29.880   8.158   7.055
 8808POPC   C4A42534  29.900   8.226   7.355
 8808POPC   C1B42535  29.765   8.403   6.455
 8808POPC   C2B42536  29.780   8.405   6.755
 8808POPC   C3B42537  29.818   8.440   7.055
 8808POPC   C4B42538  29.790   8.413   7.355
 8809POPC   NC342539  33.768   4.269   5.555
 8809POPC   PO442540  33.779   4.294   5.855
 8809POPC   GL142541  33.800   4.318   6.155
 8809POPC   GL242542  33.730   4.412   6.155
 8809POPC   C1A42543  33.770   4.351   6.455
 8809POPC   D2A42544  33.804   4.360   6.755
 8809POPC   C3A42545  33.817   4.354   7.055
 8809POPC   C4A42546  33.825   4.316   7.355
 8809POPC   C1B42547  33.659   4.480   6.455
 8809POPC   C2B42548  33.592   4.430   6.755
 8809POPC   C3B42549  33.615   4.459   7.055
 8809POPC   C4B42550  33.605   4.431   7.355
 8810POPC   NC342551  26.780  26.831   5.555
 8810POPC   PO442552  26.833  26.788   5.855
 8810POPC   GL142553  26.795  26.805   6.155
 8810POPC   GL242554  26.933  26.869   6.155
 8810POPC   C1A42555  26.806  26.801   6.455
 8810POPC   D2A42556  26.787  26.787   6.755
 8810POPC   C3A42557  26.785  26.782   7.055
 8810POPC   C4A42558  26.824  26.818   7.355
 8810POPC   C1B42559  27.064  26.851   6.455
 8810POPC   C2B42560  27.023  26.841   6.755
 8810POPC   C3B42561  27.058  26.879   7.055
 8810POPC   C4B42562  27.111  26.818   7.355
 8811POPC   NC342563  33.020  33.834   5.555
 8811POPC   PO442564  33.003  33.833   5.855
 8811POPC   GL142565  33.013  33.819   6.155
 8811POPC   GL242566  33.014  33.877   6.155
 8811POPC   C1A42567  33.053  33.760   6.455
 8811POPC   D2A42568  32.999  33.828   6.755
 8811POPC   C3A42569  33.041  33.777   7.055
 8811POPC   C4A42570  32.984  33.838   7.355
 8811POPC   C1B42571  33.000  34.080   6.455
 8811POPC   C2B42572  32.968  34.014   6.755
 8811POPC   C3B42573  33.045  34.065   7.055
 8811POPC   C4B42574  32.986  34.088   7.355
 8812POPC   NC342575  25.314  26.018   5.555
 8812POPC   PO442576  25.294  26.074   5.855
 8812POPC   GL142577  25.294  26.007   6.155
 8812POPC   GL242578  25.190  26.123   6.155
 8812POPC   C1A42579  25.233  26.035   6.455
 8812POPC   D2A42580  25.283  26.006   6.755
 8812POPC   C3A42581  25.287  26.016   7.055
 8812POPC   C4A42582  25.239  26.088   7.355
 8812POPC   C1B42583  25.165  26.266   6.455
 8812POPC   C2B42584  25.101  26.292   6.755
 8812POPC   C3B42585  25.100  26.285   7.055
 8812POPC   C4B42586  25.155  26.267   7.355
 8813POPC   NC342587   1.176   2.006   5.555
 8813POPC   PO442588   1.235   1.985   5.855
 8813POPC   GL142589   1.191   1.946   6.155
 8813POPC   GL242590   1.153   1.904   6.155
 8813POPC   C1A42591   1.197   2.010   6.455
 8813POPC   D2A42592   1.240   1.967   6.755
 8813POPC   C3A42593   1.262   1.971   7.055
 8813POPC   C4A42594   1.223   2.007   7.355
 8813POPC   C1B42595   1.015   1.835   6.455
 8813POPC   C2B42596   1.002   1.790   6.755
 8813POPC   C3B42597   1.018   1.859   7.055
 8813POPC   C4B42598   0.990   1.860   7.355
 8814POPC   NC342599  10.505  36.877   5.555
 8814POPC   PO442600  10.475  36.942   5.855
 8814POPC   GL142601  10.573  36.908   6.155
 8814POPC   GL242602  10.456  37.011   6.155
 8814POPC   C1A42603  10.526  36.887   6.455
 8814POPC   D2A42604  10.515  36.950   6.755
 8814POPC   C3A42605  10.489  36.907   7.055
 8814POPC   C4A42606  10.520  36.867   7.355
 8814POPC   C1B42607  10.425  37.165   6.455
 8814POPC   C2B42608  10.406  37.146   6.755
 8814POPC   C3B42609  10.416  37.187   7.055
 8814POPC   C4B42610  10.412  37.141   7.355
 8815POPC   NC342611   5.870   3.590   5.555
 8815POPC   PO442612   5.914   3.538   5.855
 8815POPC   GL142613   5.889   3.591   6.155
 8815POPC   GL242614   5.865   3.408   6.155
 8815POPC   C1A42615   5.829   3.564   6.455
 8815POPC   D2A42616   5.885   3.582   6.755
 8815POPC   C3A42617   5.837   3.564   7.055
 8815POPC   C4A42618   5.827   3.585   7.355
 8815POPC   C1B42619   5.818   3.251   6.455
 8815POPC   C2B42620   5.842   3.293   6.755
 8815POPC   C3B42621   5.861   3.292   7.055
 8815POPC   C4B42622   5.791   3.250   7.355
 8816POPC   NC342623  41.569  29.964   5.555
 8816POPC   PO442624  41.557  29.887   5.855
 8816POPC   GL142625  41.543  29.897   6.155
 8816POPC   GL242626  41.675  29.967   6.155
 8816POPC   C1A42627  41.588  29.878   6.455
 8816POPC   D2A42628  41.515  29.882   6.755
 8816POPC   C3A42629  41.560  29.915   7.055
 8816POPC   C4A42630  41.564  29.965   7.355
 8816POPC   C1B42631  41.780  29.965   6.455
 8816POPC   C2B42632  41.769  29.972   6.755
 8816POPC   C3B42633  41.809  29.989   7.055
 8816POPC   C4B42634  41.854  29.955   7.355
 8817POPC   NC342635  22.921  23.708   5.555
 8817POPC   PO442636  22.972  23.753   5.855
 8817POPC   GL142637  22.923  23.673   6.155
 8817POPC   GL242638  22.769  23.781   6.155
 8817POPC   C1A42639  22.981  23.718   6.455
 8817POPC   D2A42640  22.923  23.724   6.755
 8817POPC   C3A42641  22.984  23.744   7.055
 8817POPC   C4A42642  22.895  23.692   7.355
 8817POPC   C1B42643  22.686  23.809   6.455
 8817POPC   C2B42644  22.742  23.826   6.755
 8817POPC   C3B42645  22.703  23.776   7.055
 8817POPC   C4B42646  22.662  23.820   7.355
 8818POPC   NC342647  11.286  44.639   5.555
 8818POPC   PO442648  11.334  44.651   5.855
 8818POPC   GL142649  11.290  44.626   6.155
 8818POPC   GL242650  11.349  44.530   6.155
 8818POPC   C1A42651  11.286  44.705   6.455
 8818POPC   D2A42652  11.267  44.654   6.755
 8818POPC   C3A42653  11.265  44.667   7.055
 8818POPC   C4A42654  11.316  44.631   7.355
 8818POPC   C1B42655  11.412  44.462   6.455
 8818POPC   C2B42656  11.334  44.425   6.755
 8818POPC   C3B42657  11.357  44.372   7.055
 8818POPC   C4B42658  11.386  44.444   7.355
 8819POPC   NC342659   2.038  44.646   5.555
 8819POPC   PO442660   2.037  44.625   5.855
 8819POPC   GL142661   1.949  44.697   6.155
 8819POPC   GL242662   2.100  44.715   6.155
 8819POPC   C1A42663   2.037  44.667   6.455
 8819POPC   D2A42664   1.995  44.675   6.755
 8819POPC   C3A42665   1.985  44.619   7.055
 8819POPC   C4A42666   1.948  44.632   7.355
 8819POPC   C1B42667   2.186  44.821   6.455
 8819POPC   C2B42668   2.217  44.798   6.755
 8819POPC   C3B42669   2.156  44.838   7.055
 8819POPC   C4B42670   2.133  44.793   7.355
 8820POPC   NC342671  43.145   3.521   5.555
 8820POPC   PO442672  43.086   3.533   5.855
 8820POPC   GL142673  43.094   3.543   6.155
 8820POPC   GL242674  43.131   3.436   6.155
 8820POPC   C1A42675  43.159   3.533   6.455
 8820POPC   D2A42676  43.115   3.498   6.755
 8820POPC   C3A42677  43.111   3.578   7.055
 8820POPC   C4A42678  43.072   3.513   7.355
 8820POPC   C1B42679  43.070   3.298   6.455
 8820POPC   C2B42680  43.132   3.276   6.755
 8820POPC   C3B42681  43.143   3.330   7.055
 8820POPC   C4B42682  43.069   3.336   7.355
 8821POPC   NC342683  35.382  32.983   5.555
 8821POPC   PO442684  35.380  33.064   5.855
 8821POPC   GL142685  35.368  32.990   6.155
 8821POPC   GL242686  35.211  33.148   6.155
 8821POPC   C1A42687  35.377  33.007   6.455
 8821POPC   D2A42688  35.360  32.991   6.755
 8821POPC   C3A42689  35.350  32.975   7.055
 8821POPC   C4A42690  35.365  33.038   7.355
 8821POPC   C1B42691  35.112  33.221   6.455
 8821POPC   C2B42692  35.153  33.156   6.755
 8821POPC   C3B42693  35.185  33.181   7.055
 8821POPC   C4B42694  35.120  33.186   7.355
 8822POPC   NC342695  43.926  18.245   5.555
 8822POPC   PO442696  43.893  18.329   5.855
 8822POPC   GL142697  43.930  18.319   6.155
 8822POPC   GL242698  44.052  18.280   6.155
 8822POPC   C1A42699  43.855  18.289   6.455
 8822POPC   D2A42700  43.920  18.263   6.755
 8822POPC   C3A42701  43.922  18.263   7.055
 8822POPC   C4A42702  43.889  18.242   7.355
 8822POPC   C1B42703  44.158  18.249   6.455
 8822POPC   C2B42704  44.123  18.295   6.755
 8822POPC   C3B42705  44.185  18.249   7.055
 8822POPC   C4B42706  44.142  18.268   7.355
 8823POPC   NC342707  15.172   0.458   5.555
 8823POPC   PO442708  15.217   0.411   5.855
 8823POPC   GL142709  15.183   0.463   6.155
 8823POPC   GL242710  15.052   0.346   6.155
 8823POPC   C1A42711  15.180   0.404   6.455
 8823POPC   D2A42712  15.184   0.408   6.755
 8823POPC   C3A42713  15.132   0.482   7.055
 8823POPC   C4A42714  15.211   0.475   7.355
 8823POPC   C1B42715  14.918   0.342   6.455
 8823POPC   C2B42716  14.947   0.308   6.755
 8823POPC   C3B42717  14.939   0.380   7.055
 8823POPC   C4B42718  14.940   0.304   7.355
 8824POPC   NC342719  22.165  43.920   5.555
 8824POPC   PO442720  22.122  43.917   5.855
 8824POPC   GL142721  22.162  43.925   6.155
 8824POPC   GL242722  22.311  43.811   6.155
 8824POPC   C1A42723  22.158  43.838   6.455
 8824POPC   D2A42724  22.195  43.847   6.755
 8824POPC   C3A42725  22.202  43.888   7.055
 8824POPC   C4A42726  22.188  43.891   7.355
 8824POPC   C1B42727  22.412  43.812   6.455
 8824POPC   C2B42728  22.393  43.849   6.755
 8824POPC   C3B42729  22.421  43.810   7.055
 8824POPC   C4B42730  22.431  43.824   7.355
 8825POPC   NC342731   1.197   7.457   5.555
 8825POPC   PO442732   1.203   7.433   5.855
 8825POPC   GL142733   1.242   7.376   6.155
 8825POPC   GL242734   1.283   7.490   6.155
 8825POPC   C1A42735   1.193   7.468   6.455
 8825POPC   D2A42736   1.247   7.397   6.755
 8825POPC   C3A42737   1.220   7.421   7.055
 8825POPC   C4A42738   1.174   7.384   7.355
 8825POPC   C1B42739   1.319   7.637   6.455
 8825POPC   C2B42740   1.265   7.633   6.755
 8825POPC   C3B42741   1.252   7.702   7.055
 8825POPC   C4B42742   1.278   7.706   7.355
 8826POPC   NC342743  39.987  42.297   5.555
 8826POPC   PO442744  39.976  42.350   5.855
 8826POPC   GL142745  40.042  42.302   6.155
 8826POPC   GL242746  39.956  42.260   6.155
 8826POPC   C1A42747  39.997  42.288   6.455
 8826POPC   D2A42748  40.039  42.301   6.755
 8826POPC   C3A42749  39.987  42.294   7.055
 8826POPC   C4A42750  40.028  42.380   7.355
 8826POPC   C1B42751  39.880  42.156   6.455
 8826POPC   C2B42752  39.877  42.132   6.755
 8826POPC   C3B42753  39.865  42.162   7.055
 8826POPC   C4B42754  39.841  42.122   7.355
 8827POPC   NC342755  18.286   0.393   5.555
 8827POPC   PO442756  18.319   0.458   5.855
 8827POPC   GL142757  18.276   0.470   6.155
 8827POPC   GL242758  18.412   0.420   6.155
 8827POPC   C1A42759  18.316   0.436   6.455
 8827POPC   D2A42760  18.277   0.437   6.755
 8827POPC   C3A42761  18.305   0.487   7.055
 8827POPC   C4A42762  18.248   0.407   7.355
 8827POPC   C1B42763  18.497   0.379   6.455
 8827POPC   C2B42764  18.482   0.407   6.755
 8827POPC   C3B42765  18.558   0.323   7.055
 8827POPC   C4B42766  18.519   0.332   7.355
 8828POPC   NC342767  38.450  22.194   5.555
 8828POPC   PO442768  38.490  22.141   5.855
 8828POPC   GL142769  38.450  22.207   6.155
 8828POPC   GL242770  38.518  22.291   6.155
 8828POPC   C1A42771  38.460  22.165   6.455
 8828POPC   D2A42772  38.421  22.115   6.755
 8828POPC   C3A42773  38.487  22.201   7.055
 8828POPC   C4A42774  38.469  22.163   7.355
 8828POPC   C1B42775  38.534  22.400   6.455
 8828POPC   C2B42776  38.607  22.363   6.755
 8828POPC   C3B42777  38.549  22.416   7.055
 8828POPC   C4B42778  38.603  22.407   7.355
 8829POPC   NC342779  32.217  13.579   5.555
 8829POPC   PO442780  32.203  13.592   5.855
 8829POPC   GL142781  32.257  13.675   6.155
 8829POPC   GL242782  32.355  13.622   6.155
 8829POPC   C1A42783  32.219  13.605   6.455
 8829POPC   D2A42784  32.282  13.657   6.755
 8829POPC   C3A42785  32.295  13.616   7.055
 8829POPC   C4A42786  32.264  13.621   7.355
 8829POPC   C1B42787  32.449  13.574   6.455
 8829POPC   C2B42788  32.463  13.488   6.755
 8829POPC   C3B42789  32.490  13.555   7.055
 8829POPC   C4B42790  32.503  13.481   7.355
 8830POPC   NC342791  28.330  31.459   5.555
 8830POPC   PO442792  28.364  31.468   5.855
 8830POPC   GL142793  28.397  31.516   6.155
 8830POPC   GL242794  28.254  31.405   6.155
 8830POPC   C1A42795  28.337  31.424   6.455
 8830POPC   D2A42796  28.322  31.521   6.755
 8830POPC   C3A42797  28.345  31.505   7.055
 8830POPC   C4A42798  28.398  31.488   7.355
 8830POPC   C1B42799  28.218  31.272   6.455
 8830POPC   C2B42800  28.206  31.355   6.755
 8830POPC   C3B42801  28.196  31.291   7.055
 8830POPC   C4B42802  28.132  31.364   7.355
 8831POPC   NC342803  17.525   4.324   5.555
 8831POPC   PO442804  17.549   4.283   5.855
 8831POPC   GL142805  17.476   4.296   6.155
 8831POPC   GL242806  17.546   4.446   6.155
 8831POPC   C1A42807  17.544   4.336   6.455
 8831POPC   D2A42808  17.526   4.271   6.755
 8831POPC   C3A42809  17.472   4.291   7.055
 8831POPC   C4A42810  17.460   4.287   7.355
 8831POPC   C1B42811  17.675   4.557   6.455
 8831POPC   C2B42812  17.640   4.508   6.755
 8831POPC   C3B42813  17.684   4.511   7.055
 8831POPC   C4B42814  17.631   4.506   7.355
 8832POPC   NC342815  25.223   4.305   5.555
 8832POPC   PO442816  25.233   4.332   5.855
 8832POPC   GL142817  25.273   4.290   6.155
 8832POPC   GL242818  25.176   4.324   6.155
 8832POPC   C1A42819  25.310   4.293   6.455
 8832POPC   D2A42820  25.267   4.365   6.755
 8832POPC   C3A42821  25.224   4.336   7.055
 8832POPC   C4A42822  25.246   4.344   7.355
 8832POPC   C1B42823  25.068   4.261   6.455
 8832POPC   C2B42824  24.974   4.222   6.755
 8832POPC   C3B42825  25.035   4.279   7.055
 8832POPC   C4B42826  25.053   4.268   7.355
 8833POPC   NC342827  24.539   7.410   5.555
 8833POPC   PO442828  24.532   7.407   5.855
 8833POPC   GL142829  24.502   7.410   6.155
 8833POPC   GL242830  24.581   7.477   6.155
 8833POPC   C1A42831  24.479   7.375   6.455
 8833POPC   D2A42832  24.539   7.396   6.755
 8833POPC   C3A42833  24.510   7.458   7.055
 8833POPC   C4A42834  24.533   7.434   7.355
 8833POPC   C1B42835  24.751   7.560   6.455
 8833POPC   C2B42836  24.657   7.576   6.755
 8833POPC   C3B42837  24.752   7.572   7.055
 8833POPC   C4B42838  24.658   7.564   7.355
 8834POPC   NC342839  22.117   2.729   5.555
 8834POPC   PO442840  22.132   2.758   5.855
 8834POPC   GL142841  22.206   2.798   6.155
 8834POPC   GL242842  22.123   2.650   6.155
 8834POPC   C1A42843  22.196   2.763   6.455
 8834POPC   D2A42844  22.167   2.742   6.755
 8834POPC   C3A42845  22.120   2.804   7.055
 8834POPC   C4A42846  22.135   2.769   7.355
 8834POPC   C1B42847  22.127   2.569   6.455
 8834POPC   C2B42848  22.107   2.498   6.755
 8834POPC   C3B42849  22.130   2.483   7.055
 8834POPC   C4B42850  22.123   2.568   7.355
 8835POPC   NC342851  40.020  26.866   5.555
 8835POPC   PO442852  40.006  26.785   5.855
 8835POPC   GL142853  40.049  26.858   6.155
 8835POPC   GL242854  40.132  26.788   6.155
 8835POPC   C1A42855  40.017  26.782   6.455
 8835POPC   D2A42856  40.045  26.800   6.755
 8835POPC   C3A42857  40.041  26.782   7.055
 8835POPC   C4A42858  39.970  26.838   7.355
 8835POPC   C1B42859  40.171  26.657   6.455
 8835POPC   C2B42860  40.214  26.669   6.755
 8835POPC   C3B42861  40.180  26.648   7.055
 8835POPC   C4B42862  40.179  26.695   7.355
 8836POPC   NC342863  21.367  36.888   5.555
 8836POPC   PO442864  21.355  36.925   5.855
 8836POPC   GL142865  21.405  36.903   6.155
 8836POPC   GL242866  21.272  36.851   6.155
 8836POPC   C1A42867  21.402  36.944   6.455
 8836POPC   D2A42868  21.358  36.908   6.755
 8836POPC   C3A42869  21.405  36.886   7.055
 8836POPC   C4A42870  21.423  36.953   7.355
 8836POPC   C1B42871  21.153  36.824   6.455
 8836POPC   C2B42872  21.124  36.847   6.755
 8836POPC   C3B42873  21.162  36.845   7.055
 8836POPC   C4B42874  21.158  36.884   7.355
 8837POPC   NC342875  17.520  32.980   5.555
 8837POPC   PO442876  17.526  33.027   5.855
 8837POPC   GL142877  17.466  33.057   6.155
 8837POPC   GL242878  17.378  33.079   6.155
 8837POPC   C1A42879  17.493  33.025   6.455
 8837POPC   D2A42880  17.506  32.997   6.755
 8837POPC   C3A42881  17.511  33.056   7.055
 8837POPC   C4A42882  17.550  32.987   7.355
 8837POPC   C1B42883  17.372  33.195   6.455
 8837POPC   C2B42884  17.354  33.206   6.755
 8837POPC   C3B42885  17.376  33.228   7.055
 8837POPC   C4B42886  17.311  33.210   7.355
 8838POPC   NC342887   5.084   8.221   5.555
 8838POPC   PO442888   5.092   8.217   5.855
 8838POPC   GL142889   5.114   8.236   6.155
 8838POPC   GL242890   5.175   8.036   6.155
 8838POPC   C1A42891   5.135   8.168   6.455
 8838POPC   D2A42892   5.106   8.200   6.755
 8838POPC   C3A42893   5.089   8.214   7.055
 8838POPC   C4A42894   5.098   8.174   7.355
 8838POPC   C1B42895   5.189   7.948   6.455
 8838POPC   C2B42896   5.226   7.994   6.755
 8838POPC   C3B42897   5.158   7.944   7.055
 8838POPC   C4B42898   5.225   8.000   7.355
 8839POPC   NC342899  20.595  39.240   5.555
 8839POPC   PO442900  20.625  39.213   5.855
 8839POPC   GL142901  20.628  39.210   6.155
 8839POPC   GL242902  20.519  39.286   6.155
 8839POPC   C1A42903  20.584  39.188   6.455
 8839POPC   D2A42904  20.588  39.217   6.755
 8839POPC   C3A42905  20.657  39.182   7.055
 8839POPC   C4A42906  20.579  39.225   7.355
 8839POPC   C1B42907  20.410  39.306   6.455
 8839POPC   C2B42908  20.398  39.304   6.755
 8839POPC   C3B42909  20.357  39.328   7.055
 8839POPC   C4B42910  20.358  39.333   7.355
 8840POPC   NC342911  41.509  12.121   5.555
 8840POPC   PO442912  41.597  12.100   5.855
 8840POPC   GL142913  41.527  12.065   6.155
 8840POPC   GL242914  41.658  12.040   6.155
 8840POPC   C1A42915  41.599  12.082   6.455
 8840POPC   D2A42916  41.514  12.080   6.755
 8840POPC   C3A42917  41.542  12.085   7.055
 8840POPC   C4A42918  41.589  12.078   7.355
 8840POPC   C1B42919  41.778  11.998   6.455
 8840POPC   C2B42920  41.741  11.932   6.755
 8840POPC   C3B42921  41.817  11.973   7.055
 8840POPC   C4B42922  41.753  12.019   7.355
 8841POPC   NC342923  40.742  36.149   5.555
 8841POPC   PO442924  40.775  36.085   5.855
 8841POPC   GL142925  40.744  36.139   6.155
 8841POPC   GL242926  40.944  36.080   6.155
 8841POPC   C1A42927  40.825  36.146   6.455
 8841POPC   D2A42928  40.760  36.096   6.755
 8841POPC   C3A42929  40.810  36.128   7.055
 8841POPC   C4A42930  40.820  36.080   7.355
 8841POPC   C1B42931  41.025  36.062   6.455
 8841POPC   C2B42932  41.040  36.091   6.755
 8841POPC   C3B42933  41.078  36.069   7.055
 8841POPC   C4B42934  41.010  36.073   7.355
 8842POPC   NC342935  20.582  15.134   5.555
 8842POPC   PO442936  20.640  15.132   5.855
 8842POPC   GL142937  20.648  15.155   6.155
 8842POPC   GL242938  20.680  15.032   6.155
 8842POPC   C1A42939  20.624  15.211   6.455
 8842POPC   D2A42940  20.597  15.208   6.755
 8842POPC   C3A42941  20.631  15.130   7.055
 8842POPC   C4A42942  20.567  15.159   7.355
 8842POPC   C1B42943  20.721  14.921   6.455
 8842POPC   C2B42944  20.721  14.889   6.755
 8842POPC   C3B42945  20.690  14.926   7.055
 8842POPC   C4B42946  20.653  14.935   7.355
 8843POPC   NC342947   9.704   1.200   5.555
 8843POPC   PO442948   9.740   1.175   5.855
 8843POPC   GL142949   9.771   1.199   6.155
 8843POPC   GL242950   9.841   1.124   6.155
 8843POPC   C1A42951   9.774   1.208   6.455
 8843POPC   D2A42952   9.704   1.211   6.755
 8843POPC   C3A42953   9.782   1.246   7.055
 8843POPC   C4A42954   9.771   1.253   7.355
 8843POPC   C1B42955   9.920   1.044   6.455
 8843POPC   C2B42956   9.875   1.000   6.755
 8843POPC   C3B42957   9.935   0.977   7.055
 8843POPC   C4B42958   9.953   1.002   7.355
 8844POPC   NC342959  41.587  36.153   5.555
 8844POPC   PO442960  41.541  36.173   5.855
 8844POPC   GL142961  41.587  36.143   6.155
 8844POPC   GL242962  41.411  36.200   6.155
 8844POPC   C1A42963  41.512  36.168   6.455
 8844POPC   D2A42964  41.535  36.125   6.755
 8844POPC   C3A42965  41.595  36.137   7.055
 8844POPC   C4A42966  41.520  36.141   7.355
 8844POPC   C1B42967  41.354  36.131   6.455
 8844POPC   C2B42968  41.273  36.222   6.755
 8844POPC   C3B42969  41.292  36.220   7.055
 8844POPC   C4B42970  41.304  36.189   7.355
 8845POPC   NC342971  39.253  40.768   5.555
 8845POPC   PO442972  39.194  40.790   5.855
 8845POPC   GL142973  39.198  40.804   6.155
 8845POPC   GL242974  39.136  40.755   6.155
 8845POPC   C1A42975  39.206  40.742   6.455
 8845POPC   D2A42976  39.253  40.820   6.755
 8845POPC   C3A42977  39.254  40.806   7.055
 8845POPC   C4A42978  39.277  40.791   7.355
 8845POPC   C1B42979  38.936  40.819   6.455
 8845POPC   C2B42980  38.956  40.802   6.755
 8845POPC   C3B42981  38.950  40.827   7.055
 8845POPC   C4B42982  38.974  40.732   7.355
 8846POPC   NC342983  15.193   6.617   5.555
 8846POPC   PO442984  15.165   6.660   5.855
 8846POPC   GL142985  15.191   6.603   6.155
 8846POPC   GL242986  15.121   6.750   6.155
 8846POPC   C1A42987  15.160   6.631   6.455
 8846POPC   D2A42988  15.152   6.614   6.755
 8846POPC   C3A42989  15.162   6.686   7.055
 8846POPC   C4A42990  15.213   6.651   7.355
 8846POPC   C1B42991  15.024   6.898   6.455
 8846POPC   C2B42992  15.059   6.881   6.755
 8846POPC   C3B42993  15.063   6.808   7.055
 8846POPC   C4B42994  15.064   6.871   7.355
 8847POPC   NC342995   2.002   7.437   5.555
 8847POPC   PO442996   1.983   7.395   5.855
 8847POPC   GL142997   1.956   7.373   6.155
 8847POPC   GL242998   2.013   7.504   6.155
 8847POPC   C1A42999   2.003   7.435   6.455
 8847POPC   D2A43000   1.987   7.467   6.755
 8847POPC   C3A43001   2.005   7.401   7.055
 8847POPC   C4A43002   1.986   7.465   7.355
 8847POPC   C1B43003   2.081   7.621   6.455
 8847POPC   C2B43004   2.038   7.680   6.755
 8847POPC   C3B43005   2.022   7.711   7.055
 8847POPC   C4B43006   2.088   7.704   7.355
 8848POPC   NC343007  33.043  44.669   5.555
 8848POPC   PO443008  32.991  44.658   5.855
 8848POPC   GL143009  32.976  44.620   6.155
 8848POPC   GL243010  32.930  44.606   6.155
 8848POPC   C1A43011  33.067  44.672   6.455
 8848POPC   D2A43012  33.043  44.617   6.755
 8848POPC   C3A43013  32.980  44.619   7.055
 8848POPC   C4A43014  33.064  44.624   7.355
 8848POPC   C1B43015  32.771  44.604   6.455
 8848POPC   C2B43016  32.796  44.585   6.755
 8848POPC   C3B43017  32.844  44.594   7.055
 8848POPC   C4B43018  32.825  44.553   7.355
 8849POPC   NC343019  10.476  34.589   5.555
 8849POPC   PO443020  10.565  34.588   5.855
 8849POPC   GL143021  10.503  34.543   6.155
 8849POPC   GL243022  10.484  34.446   6.155
 8849POPC   C1A43023  10.565  34.583   6.455
 8849POPC   D2A43024  10.512  34.621   6.755
 8849POPC   C3A43025  10.499  34.541   7.055
 8849POPC   C4A43026  10.486  34.532   7.355
 8849POPC   C1B43027  10.555  34.322   6.455
 8849POPC   C2B43028  10.485  34.350   6.755
 8849POPC   C3B43029  10.492  34.370   7.055
 8849POPC   C4B43030  10.553  34.279   7.355
 8850POPC   NC343031   4.365   8.972   5.555
 8850POPC   PO443032   4.348   8.984   5.855
 8850POPC   GL143033   4.290   8.981   6.155
 8850POPC   GL243034   4.465   9.092   6.155
 8850POPC   C1A43035   4.338   8.942   6.455
 8850POPC   D2A43036   4.323   9.017   6.755
 8850POPC   C3A43037   4.278   8.932   7.055
 8850POPC   C4A43038   4.312   9.019   7.355
 8850POPC   C1B43039   4.490   9.142   6.455
 8850POPC   C2B43040   4.512   9.140   6.755
 8850POPC   C3B43041   4.538   9.123   7.055
 8850POPC   C4B43042   4.476   9.082   7.355
 8851POPC   NC343043  20.580  16.721   5.555
 8851POPC   PO443044  20.619  16.733   5.855
 8851POPC   GL143045  20.648  16.777   6.155
 8851POPC   GL243046  20.546  16.691   6.155
 8851POPC   C1A43047  20.589  16.770   6.455
 8851POPC   D2A43048  20.634  16.735   6.755
 8851POPC   C3A43049  20.603  16.768   7.055
 8851POPC   C4A43050  20.571  16.707   7.355
 8851POPC   C1B43051  20.387  16.524   6.455
 8851POPC   C2B43052  20.399  16.538   6.755
 8851POPC   C3B43053  20.423  16.595   7.055
 8851POPC   C4B43054  20.476  16.515   7.355
 8852POPC   NC343055  27.611   2.726   5.555
 8852POPC   PO443056  27.642   2.732   5.855
 8852POPC   GL143057  27.638   2.783   6.155
 8852POPC   GL243058  27.676   2.865   6.155
 8852POPC   C1A43059  27.614   2.717   6.455
 8852POPC   D2A43060  27.565   2.795   6.755
 8852POPC   C3A43061  27.565   2.735   7.055
 8852POPC   C4A43062  27.547   2.762   7.355
 8852POPC   C1B43063  27.781   2.925   6.455
 8852POPC   C2B43064  27.746   2.900   6.755
 8852POPC   C3B43065  27.785   2.887   7.055
 8852POPC   C4B43066  27.738   2.880   7.355
 8853POPC   NC343067  26.771  15.970   5.555
 8853POPC   PO443068  26.802  15.995   5.855
 8853POPC   GL143069  26.854  15.971   6.155
 8853POPC   GL243070  26.861  16.050   6.155
 8853POPC   C1A43071  26.793  15.995   6.455
 8853POPC   D2A43072  26.797  15.953   6.755
 8853POPC   C3A43073  26.818  15.946   7.055
 8853POPC   C4A43074  26.833  15.907   7.355
 8853POPC   C1B43075  27.041  16.152   6.455
 8853POPC   C2B43076  27.024  16.143   6.755
 8853POPC   C3B43077  26.984  16.078   7.055
 8853POPC   C4B43078  27.006  16.086   7.355
 8854POPC   NC343079   6.611   7.411   5.555
 8854POPC   PO443080   6.618   7.443   5.855
 8854POPC   GL143081   6.622   7.411   6.155
 8854POPC   GL243082   6.508   7.489   6.155
 8854POPC   C1A43083   6.668   7.412   6.455
 8854POPC   D2A43084   6.676   7.402   6.755
 8854POPC   C3A43085   6.694   7.441   7.055
 8854POPC   C4A43086   6.674   7.396   7.355
 8854POPC   C1B43087   6.408   7.462   6.455
 8854POPC   C2B43088   6.358   7.464   6.755
 8854POPC   C3B43089   6.368   7.454   7.055
 8854POPC   C4B43090   6.357   7.473   7.355
 8855POPC   NC343091  19.086   6.603   5.555
 8855POPC   PO443092  19.035   6.649   5.855
 8855POPC   GL143093  19.097   6.598   6.155
 8855POPC   GL243094  19.053   6.503   6.155
 8855POPC   C1A43095  19.093   6.654   6.455
 8855POPC   D2A43096  19.073   6.605   6.755
 8855POPC   C3A43097  19.088   6.634   7.055
 8855POPC   C4A43098  19.045   6.688   7.355
 8855POPC   C1B43099  19.089   6.419   6.455
 8855POPC   C2B43100  19.099   6.421   6.755
 8855POPC   C3B43101  19.150   6.428   7.055
 8855POPC   C4B43102  19.098   6.383   7.355
 8856POPC   NC343103  36.108   4.301   5.555
 8856POPC   PO443104  36.145   4.351   5.855
 8856POPC   GL143105  36.079   4.292   6.155
 8856POPC   GL243106  36.117   4.218   6.155
 8856POPC   C1A43107  36.081   4.306   6.455
 8856POPC   D2A43108  36.129   4.316   6.755
 8856POPC   C3A43109  36.157   4.335   7.055
 8856POPC   C4A43110  36.091   4.361   7.355
 8856POPC   C1B43111  36.069   4.040   6.455
 8856POPC   C2B43112  36.035   4.023   6.755
 8856POPC   C3B43113  36.040   4.078   7.055
 8856POPC   C4B43114  36.069   4.081   7.355
 8857POPC   NC343115   2.019  37.641   5.555
 8857POPC   PO443116   1.971  37.630   5.855
 8857POPC   GL143117   1.966  37.712   6.155
 8857POPC   GL243118   1.916  37.753   6.155
 8857POPC   C1A43119   2.005  37.717   6.455
 8857POPC   D2A43120   1.954  37.689   6.755
 8857POPC   C3A43121   1.976  37.665   7.055
 8857POPC   C4A43122   2.037  37.712   7.355
 8857POPC   C1B43123   1.813  37.868   6.455
 8857POPC   C2B43124   1.870  37.888   6.755
 8857POPC   C3B43125   1.817  37.818   7.055
 8857POPC   C4B43126   1.804  37.879   7.355
 8858POPC   NC343127  20.585  31.505   5.555
 8858POPC   PO443128  20.577  31.497   5.855
 8858POPC   GL143129  20.641  31.513   6.155
 8858POPC   GL243130  20.774  31.438   6.155
 8858POPC   C1A43131  20.608  31.480   6.455
 8858POPC   D2A43132  20.583  31.464   6.755
 8858POPC   C3A43133  20.635  31.447   7.055
 8858POPC   C4A43134  20.631  31.509   7.355
 8858POPC   C1B43135  20.903  31.478   6.455
 8858POPC   C2B43136  20.908  31.440   6.755
 8858POPC   C3B43137  20.879  31.475   7.055
 8858POPC   C4B43138  20.889  31.459   7.355
 8859POPC   NC343139   4.324  31.424   5.555
 8859POPC   PO443140   4.294  31.426   5.855
 8859POPC   GL143141   4.280  31.435   6.155
 8859POPC   GL243142   4.230  31.595   6.155
 8859POPC   C1A43143   4.302  31.469   6.455
 8859POPC   D2A43144   4.285  31.486   6.755
 8859POPC   C3A43145   4.352  31.457   7.055
 8859POPC   C4A43146   4.323  31.520   7.355
 8859POPC   C1B43147   4.183  31.731   6.455
 8859POPC   C2B43148   4.240  31.750   6.755
 8859POPC   C3B43149   4.223  31.741   7.055
 8859POPC   C4B43150   4.230  31.677   7.355
 8860POPC   NC343151  43.851   4.271   5.555
 8860POPC   PO443152  43.877   4.301   5.855
 8860POPC   GL143153  43.922   4.346   6.155
 8860POPC   GL243154  43.722   4.378   6.155
 8860POPC   C1A43155  43.904   4.321   6.455
 8860POPC   D2A43156  43.879   4.339   6.755
 8860POPC   C3A43157  43.860   4.299   7.055
 8860POPC   C4A43158  43.851   4.295   7.355
 8860POPC   C1B43159  43.606   4.398   6.455
 8860POPC   C2B43160  43.673   4.335   6.755
 8860POPC   C3B43161  43.640   4.357   7.055
 8860POPC   C4B43162  43.640   4.355   7.355
 8861POPC   NC343163   0.415   2.800   5.555
 8861POPC   PO443164   0.435   2.796   5.855
 8861POPC   GL143165   0.420   2.745   6.155
 8861POPC   GL243166   0.514   2.777   6.155
 8861POPC   C1A43167   0.449   2.793   6.455
 8861POPC   D2A43168   0.479   2.733   6.755
 8861POPC   C3A43169   0.397   2.764   7.055
 8861POPC   C4A43170   0.468   2.729   7.355
 8861POPC   C1B43171   0.651   2.849   6.455
 8861POPC   C2B43172   0.638   2.853   6.755
 8861POPC   C3B43173   0.722   2.823   7.055
 8861POPC   C4B43174   0.721   2.816   7.355
 8862POPC   NC343175  31.506  12.051   5.555
 8862POPC   PO443176  31.504  12.047   5.855
 8862POPC   GL143177  31.474  12.080   6.155
 8862POPC   GL243178  31.399  12.202   6.155
 8862POPC   C1A43179  31.428  12.039   6.455
 8862POPC   D2A43180  31.427  12.042   6.755
 8862POPC   C3A43181  31.429  12.037   7.055
 8862POPC   C4A43182  31.468  12.030   7.355
 8862POPC   C1B43183  31.315  12.198   6.455
 8862POPC   C2B43184  31.273  12.235   6.755
 8862POPC   C3B43185  31.256  12.220   7.055
 8862POPC   C4B43186  31.282  12.219   7.355
 8863POPC   NC343187  43.068   7.395   5.555
 8863POPC   PO443188  43.137   7.401   5.855
 8863POPC   GL143189  43.067   7.442   6.155
 8863POPC   GL243190  43.018   7.400   6.155
 8863POPC   C1A43191  43.108   7.404   6.455
 8863POPC   D2A43192  43.097   7.389   6.755
 8863POPC   C3A43193  43.123   7.445   7.055
 8863POPC   C4A43194  43.108   7.429   7.355
 8863POPC   C1B43195  42.876   7.300   6.455
 8863POPC   C2B43196  42.877   7.305   6.755
 8863POPC   C3B43197  42.885   7.337   7.055
 8863POPC   C4B43198  42.924   7.332   7.355
 8864POPC   NC343199  29.104  13.604   5.555
 8864POPC   PO443200  29.147  13.591   5.855
 8864POPC   GL143201  29.107  13.663   6.155
 8864POPC   GL243202  29.044  13.525   6.155
 8864POPC   C1A43203  29.156  13.677   6.455
 8864POPC   D2A43204  29.191  13.652   6.755
 8864POPC   C3A43205  29.128  13.627   7.055
 8864POPC   C4A43206  29.126  13.649   7.355
 8864POPC   C1B43207  28.928  13.525   6.455
 8864POPC   C2B43208  28.890  13.516   6.755
 8864POPC   C3B43209  28.936  13.537   7.055
 8864POPC   C4B43210  28.940  13.514   7.355
 8865POPC   NC343211  40.810  18.302   5.555
 8865POPC   PO443212  40.741  18.313   5.855
 8865POPC   GL143213  40.778  18.317   6.155
 8865POPC   GL243214  40.669  18.323   6.155
 8865POPC   C1A43215  40.755  18.303   6.455
 8865POPC   D2A43216  40.800  18.270   6.755
 8865POPC   C3A43217  40.739  18.256   7.055
 8865POPC   C4A43218  40.761  18.251   7.355
 8865POPC   C1B43219  40.527  18.314   6.455
 8865POPC   C2B43220  40.505  18.350   6.755
 8865POPC   C3B43221  40.530  18.297   7.055
 8865POPC   C4B43222  40.565  18.277   7.355
 8866POPC   NC343223  41.558  38.425   5.555
 8866POPC   PO443224  41.526  38.419   5.855
 8866POPC   GL143225  41.584  38.494   6.155
 8866POPC   GL243226  41.488  38.543   6.155
 8866POPC   C1A43227  41.523  38.420   6.455
 8866POPC   D2A43228  41.523  38.439   6.755
 8866POPC   C3A43229  41.593  38.497   7.055
 8866POPC   C4A43230  41.594  38.444   7.355
 8866POPC   C1B43231  41.339  38.511   6.455
 8866POPC   C2B43232  41.328  38.544   6.755
 8866POPC   C3B43233  41.291  38.532   7.055
 8866POPC   C4B43234  41.363  38.569   7.355
 8867POPC   NC343235  38.445  33.796   5.555
 8867POPC   PO443236  38.431  33.784   5.855
 8867POPC   GL143237  38.428  33.830   6.155
 8867POPC   GL243238  38.419  33.941   6.155
 8867POPC   C1A43239  38.413  33.796   6.455
 8867POPC   D2A43240  38.456  33.777   6.755
 8867POPC   C3A43241  38.450  33.770   7.055
 8867POPC   C4A43242  38.460  33.775   7.355
 8867POPC   C1B43243  38.489  34.002   6.455
 8867POPC   C2B43244  38.469  34.004   6.755
 8867POPC   C3B43245  38.462  34.007   7.055
 8867POPC   C4B43246  38.471  34.059   7.355
 8868POPC   NC343247  39.229   1.218   5.555
 8868POPC   PO443248  39.187   1.193   5.855
 8868POPC   GL143249  39.225   1.177   6.155
 8868POPC   GL243250  39.160   1.081   6.155
 8868POPC   C1A43251  39.276   1.164   6.455
 8868POPC   D2A43252  39.230   1.258   6.755
 8868POPC   C3A43253  39.256   1.263   7.055
 8868POPC   C4A43254  39.253   1.233   7.355
 8868POPC   C1B43255  39.093   0.977   6.455
 8868POPC   C2B43256  39.155   0.972   6.755
 8868POPC   C3B43257  39.090   0.983   7.055
 8868POPC   C4B43258  39.116   0.953   7.355
 8869POPC   NC343259  35.381  43.115   5.555
 8869POPC   PO443260  35.323  43.118   5.855
 8869POPC   GL143261  35.341  43.105   6.155
 8869POPC   GL243262  35.274  43.079   6.155
 8869POPC   C1A43263  35.330  43.134   6.455
 8869POPC   D2A43264  35.317  43.137   6.755
 8869POPC   C3A43265  35.396  43.113   7.055
 8869POPC   C4A43266  35.366  43.124   7.355
 8869POPC   C1B43267  35.145  42.970   6.455
 8869POPC   C2B43268  35.157  43.011   6.755
 8869POPC   C3B43269  35.081  42.976   7.055
 8869POPC   C4B43270  35.148  42.968   7.355
 8870POPC   NC343271  44.614   4.279   5.555
 8870POPC   PO443272  44.634   4.356   5.855
 8870POPC   GL143273  44.650   4.298   6.155
 8870POPC   GL243274  44.649   4.212   6.155
 8870POPC   C1A43275  44.710   4.321   6.455
 8870POPC   D2A43276  44.667   4.326   6.755
 8870POPC   C3A43277  44.699   4.334   7.055
 8870POPC   C4A43278  44.671   4.343   7.355
 8870POPC   C1B43279  44.600   4.096   6.455
 8870POPC   C2B43280  44.661   4.096   6.755
 8870POPC   C3B43281  44.614   4.107   7.055
 8870POPC   C4B43282  44.676   4.064   7.355
 8871POPC   NC343283  36.860  26.773   5.555
 8871POPC   PO443284  36.918  26.768   5.855
 8871POPC   GL143285  36.886  26.770   6.155
 8871POPC   GL243286  37.026  26.712   6.155
 8871POPC   C1A43287  36.910  26.768   6.455
 8871POPC   D2A43288  36.868  26.774   6.755
 8871POPC   C3A43289  36.879  26.818   7.055
 8871POPC   C4A43290  36.910  26.816   7.355
 8871POPC   C1B43291  37.096  26.625   6.455
 8871POPC   C2B43292  37.081  26.653   6.755
 8871POPC   C3B43293  37.073  26.701   7.055
 8871POPC   C4B43294  37.069  26.720   7.355
 8872POPC   NC343295  22.151  32.289   5.555
 8872POPC   PO443296  22.200  32.204   5.855
 8872POPC   GL143297  22.187  32.283   6.155
 8872POPC   GL243298  22.082  32.158   6.155
 8872POPC   C1A43299  22.184  32.214   6.455
 8872POPC   D2A43300  22.168  32.218   6.755
 8872POPC   C3A43301  22.134  32.207   7.055
 8872POPC   C4A43302  22.170  32.266   7.355
 8872POPC   C1B43303  21.954  32.060   6.455
 8872POPC   C2B43304  22.035  32.008   6.755
 8872POPC   C3B43305  21.960  32.102   7.055
 8872POPC   C4B43306  22.029  32.010   7.355
 8873POPC   NC343307   0.402  11.325   5.555
 8873POPC   PO443308   0.459  11.319   5.855
 8873POPC   GL143309   0.388  11.337   6.155
 8873POPC   GL243310   0.436  11.171   6.155
 8873POPC   C1A43311   0.472  11.264   6.455
 8873POPC   D2A43312   0.444  11.272   6.755
 8873POPC   C3A43313   0.401  11.278   7.055
 8873POPC   C4A43314   0.444  11.326   7.355
 8873POPC   C1B43315   0.382  11.004   6.455
 8873POPC   C2B43316   0.389  11.076   6.755
 8873POPC   C3B43317   0.450  11.032   7.055
 8873POPC   C4B43318   0.443  11.018   7.355
 8874POPC   NC343319  31.509  20.621   5.555
 8874POPC   PO443320  31.482  20.660   5.855
 8874POPC   GL143321  31.448  20.598   6.155
 8874POPC   GL243322  31.353  20.656   6.155
 8874POPC   C1A43323  31.446  20.635   6.455
 8874POPC   D2A43324  31.504  20.563   6.755
 8874POPC   C3A43325  31.510  20.640   7.055
 8874POPC   C4A43326  31.516  20.624   7.355
 8874POPC   C1B43327  31.247  20.668   6.455
 8874POPC   C2B43328  31.205  20.695   6.755
 8874POPC   C3B43329  31.278  20.627   7.055
 8874POPC   C4B43330  31.243  20.662   7.355
 8875POPC   NC343331  32.263  43.894   5.555
 8875POPC   PO443332  32.275  43.893   5.855
 8875POPC   GL143333  32.276  43.863   6.155
 8875POPC   GL243334  32.122  43.969   6.155
 8875POPC   C1A43335  32.279  43.847   6.455
 8875POPC   D2A43336  32.213  43.918   6.755
 8875POPC   C3A43337  32.199  43.875   7.055
 8875POPC   C4A43338  32.205  43.894   7.355
 8875POPC   C1B43339  32.072  44.039   6.455
 8875POPC   C2B43340  32.017  44.019   6.755
 8875POPC   C3B43341  32.043  44.085   7.055
 8875POPC   C4B43342  32.089  44.018   7.355
 8876POPC   NC343343  39.976   0.485   5.555
 8876POPC   PO443344  40.010   0.401   5.855
 8876POPC   GL143345  40.012   0.472   6.155
 8876POPC   GL243346  39.873   0.519   6.155
 8876POPC   C1A43347  39.977   0.472   6.455
 8876POPC   D2A43348  40.021   0.451   6.755
 8876POPC   C3A43349  40.000   0.471   7.055
 8876POPC   C4A43350  39.983   0.456   7.355
 8876POPC   C1B43351  39.775   0.626   6.455
 8876POPC   C2B43352  39.810   0.555   6.755
 8876POPC   C3B43353  39.833   0.606   7.055
 8876POPC   C4B43354  39.798   0.561   7.355
 8877POPC   NC343355  22.178  35.367   5.555
 8877POPC   PO443356  22.149  35.368   5.855
 8877POPC   GL143357  22.148  35.303   6.155
 8877POPC   GL243358  22.246  35.379   6.155
 8877POPC   C1A43359  22.136  35.310   6.455
 8877POPC   D2A43360  22.149  35.392   6.755
 8877POPC   C3A43361  22.169  35.384   7.055
 8877POPC   C4A43362  22.117  35.349   7.355
 8877POPC   C1B43363  22.348  35.465   6.455
 8877POPC   C2B43364  22.344  35.510   6.755
 8877POPC   C3B43365  22.331  35.479   7.055
 8877POPC   C4B43366  22.335  35.536   7.355
 8878POPC   NC343367  19.086  15.169   5.555
 8878POPC   PO443368  19.084  15.160   5.855
 8878POPC   GL143369  19.068  15.227   6.155
 8878POPC   GL243370  19.127  15.076   6.155
 8878POPC   C1A43371  19.056  15.173   6.455
 8878POPC   D2A43372  19.024  15.173   6.755
 8878POPC   C3A43373  19.102  15.166   7.055
 8878POPC   C4A43374  19.018  15.224   7.355
 8878POPC   C1B43375  19.227  15.093   6.455
 8878POPC   C2B43376  19.315  14.996   6.755
 8878POPC   C3B43377  19.248  15.068   7.055
 8878POPC   C4B43378  19.278  15.048   7.355
 8879POPC   NC343379   0.448  22.207   5.555
 8879POPC   PO443380   0.439  22.148   5.855
 8879POPC   GL143381   0.402  22.141   6.155
 8879POPC   GL243382   0.322  22.173   6.155
 8879POPC   C1A43383   0.440  22.166   6.455
 8879POPC   D2A43384   0.434  22.136   6.755
 8879POPC   C3A43385   0.441  22.211   7.055
 8879POPC   C4A43386   0.431  22.147   7.355
 8879POPC   C1B43387   0.192  22.222   6.455
 8879POPC   C2B43388   0.216  22.223   6.755
 8879POPC   C3B43389   0.174  22.222   7.055
 8879POPC   C4B43390   0.161  22.256   7.355
 8880POPC   NC343391   9.783   2.000   5.555
 8880POPC   PO443392   9.766   1.954   5.855
 8880POPC   GL143393   9.782   1.945   6.155
 8880POPC   GL243394   9.684   2.023   6.155
 8880POPC   C1A43395   9.797   1.988   6.455
 8880POPC   D2A43396   9.761   2.005   6.755
 8880POPC   C3A43397   9.726   1.962   7.055
 8880POPC   C4A43398   9.722   1.979   7.355
 8880POPC   C1B43399   9.498   2.118   6.455
 8880POPC   C2B43400   9.543   2.088   6.755
 8880POPC   C3B43401   9.560   2.122   7.055
 8880POPC   C4B43402   9.488   2.074   7.355
 8881POPC   NC343403  32.989   2.813   5.555
 8881POPC   PO443404  32.993   2.730   5.855
 8881POPC   GL143405  32.991   2.772   6.155
 8881POPC   GL243406  33.172   2.801   6.155
 8881POPC   C1A43407  32.986   2.785   6.455
 8881POPC   D2A43408  33.027   2.768   6.755
 8881POPC   C3A43409  32.986   2.740   7.055
 8881POPC   C4A43410  33.011   2.776   7.355
 8881POPC   C1B43411  33.280   2.885   6.455
 8881POPC   C2B43412  33.223   2.870   6.755
 8881POPC   C3B43413  33.225   2.901   7.055
 8881POPC   C4B43414  33.269   2.836   7.355
 8882POPC   NC343415  16.755  19.022   5.555
 8882POPC   PO443416  16.685  19.072   5.855
 8882POPC   GL143417  16.722  19.074   6.155
 8882POPC   GL243418  16.671  18.944   6.155
 8882POPC   C1A43419  16.749  19.072   6.455
 8882POPC   D2A43420  16.735  19.106   6.755
 8882POPC   C3A43421  16.733  19.064   7.055
 8882POPC   C4A43422  16.751  19.048   7.355
 8882POPC   C1B43423  16.630  18.827   6.455
 8882POPC   C2B43424  16.668  18.816   6.755
 8882POPC   C3B43425  16.599  18.830   7.055
 8882POPC   C4B43426  16.600  18.851   7.355
 8883POPC   NC343427  10.494  39.253   5.555
 8883POPC   PO443428  10.512  39.210   5.855
 8883POPC   GL143429  10.532  39.276   6.155
 8883POPC   GL243430  10.532  39.120   6.155
 8883POPC   C1A43431  10.504  39.241   6.455
 8883POPC   D2A43432  10.476  39.199   6.755
 8883POPC   C3A43433  10.483  39.209   7.055
 8883POPC   C4A43434  10.565  39.205   7.355
 8883POPC   C1B43435  10.539  38.965   6.455
 8883POPC   C2B43436  10.481  38.966   6.755
 8883POPC   C3B43437  10.532  38.935   7.055
 8883POPC   C4B43438  10.449  38.960   7.355
 8884POPC   NC343439  22.951  15.945   5.555
 8884POPC   PO443440  22.987  15.910   5.855
 8884POPC   GL143441  22.987  15.949   6.155
 8884POPC   GL243442  23.059  15.880   6.155
 8884POPC   C1A43443  22.963  15.925   6.455
 8884POPC   D2A43444  22.985  15.950   6.755
 8884POPC   C3A43445  22.979  15.912   7.055
 8884POPC   C4A43446  22.986  15.987   7.355
 8884POPC   C1B43447  23.131  15.786   6.455
 8884POPC   C2B43448  23.110  15.765   6.755
 8884POPC   C3B43449  23.145  15.811   7.055
 8884POPC   C4B43450  23.101  15.802   7.355
 8885POPC   NC343451  10.489   8.982   5.555
 8885POPC   PO443452  10.492   8.937   5.855
 8885POPC   GL143453  10.530   8.983   6.155
 8885POPC   GL243454  10.459   9.069   6.155
 8885POPC   C1A43455  10.478   8.981   6.455
 8885POPC   D2A43456  10.495   9.018   6.755
 8885POPC   C3A43457  10.523   8.937   7.055
 8885POPC   C4A43458  10.486   9.008   7.355
 8885POPC   C1B43459  10.484   9.201   6.455
 8885POPC   C2B43460  10.490   9.213   6.755
 8885POPC   C3B43461  10.424   9.206   7.055
 8885POPC   C4B43462  10.425   9.243   7.355
 8886POPC   NC343463  23.680  40.037   5.555
 8886POPC   PO443464  23.664  39.971   5.855
 8886POPC   GL143465  23.738  40.012   6.155
 8886POPC   GL243466  23.695  39.882   6.155
 8886POPC   C1A43467  23.738  40.040   6.455
 8886POPC   D2A43468  23.705  39.967   6.755
 8886POPC   C3A43469  23.725  40.047   7.055
 8886POPC   C4A43470  23.729  40.018   7.355
 8886POPC   C1B43471  23.700  39.780   6.455
 8886POPC   C2B43472  23.680  39.765   6.755
 8886POPC   C3B43473  23.695  39.803   7.055
 8886POPC   C4B43474  23.680  39.743   7.355
 8887POPC   NC343475  22.178  16.745   5.555
 8887POPC   PO443476  22.125  16.714   5.855
 8887POPC   GL143477  22.166  16.757   6.155
 8887POPC   GL243478  22.210  16.869   6.155
 8887POPC   C1A43479  22.130  16.696   6.455
 8887POPC   D2A43480  22.180  16.706   6.755
 8887POPC   C3A43481  22.120  16.692   7.055
 8887POPC   C4A43482  22.192  16.777   7.355
 8887POPC   C1B43483  22.271  16.983   6.455
 8887POPC   C2B43484  22.227  16.988   6.755
 8887POPC   C3B43485  22.244  16.961   7.055
 8887POPC   C4B43486  22.263  16.963   7.355
 8888POPC   NC343487   1.253  35.378   5.555
 8888POPC   PO443488   1.258  35.387   5.855
 8888POPC   GL143489   1.249  35.347   6.155
 8888POPC   GL243490   1.249  35.514   6.155
 8888POPC   C1A43491   1.209  35.322   6.455
 8888POPC   D2A43492   1.203  35.377   6.755
 8888POPC   C3A43493   1.185  35.318   7.055
 8888POPC   C4A43494   1.234  35.369   7.355
 8888POPC   C1B43495   1.199  35.628   6.455
 8888POPC   C2B43496   1.150  35.595   6.755
 8888POPC   C3B43497   1.194  35.594   7.055
 8888POPC   C4B43498   1.149  35.608   7.355
 8889POPC   NC343499  29.965  21.376   5.555
 8889POPC   PO443500  29.922  21.436   5.855
 8889POPC   GL143501  29.900  21.396   6.155
 8889POPC   GL243502  29.985  21.275   6.155
 8889POPC   C1A43503  29.912  21.380   6.455
 8889POPC   D2A43504  29.931  21.355   6.755
 8889POPC   C3A43505  29.898  21.349   7.055
 8889POPC   C4A43506  29.950  21.369   7.355
 8889POPC   C1B43507  29.969  21.177   6.455
 8889POPC   C2B43508  29.970  21.186   6.755
 8889POPC   C3B43509  30.066  21.142   7.055
 8889POPC   C4B43510  30.048  21.173   7.355
 8890POPC   NC343511  19.069  25.273   5.555
 8890POPC   PO443512  19.049  25.220   5.855
 8890POPC   GL143513  19.035  25.297   6.155
 8890POPC   GL243514  18.927  25.224   6.155
 8890POPC   C1A43515  19.012  25.270   6.455
 8890POPC   D2A43516  19.068  25.218   6.755
 8890POPC   C3A43517  19.033  25.275   7.055
 8890POPC   C4A43518  19.053  25.247   7.355
 8890POPC   C1B43519  18.869  25.136   6.455
 8890POPC   C2B43520  18.808  25.196   6.755
 8890POPC   C3B43521  18.818  25.156   7.055
 8890POPC   C4B43522  18.874  25.130   7.355
 8891POPC   NC343523  15.952  27.568   5.555
 8891POPC   PO443524  15.961  27.568   5.855
 8891POPC   GL143525  15.963  27.602   6.155
 8891POPC   GL243526  16.041  27.506   6.155
 8891POPC   C1A43527  15.926  27.612   6.455
 8891POPC   D2A43528  15.906  27.545   6.755
 8891POPC   C3A43529  15.975  27.628   7.055
 8891POPC   C4A43530  15.938  27.594   7.355
 8891POPC   C1B43531  16.106  27.325   6.455
 8891POPC   C2B43532  16.044  27.398   6.755
 8891POPC   C3B43533  16.093  27.347   7.055
 8891POPC   C4B43534  16.034  27.394   7.355
 8892POPC   NC343535  18.246  27.557   5.555
 8892POPC   PO443536  18.306  27.626   5.855
 8892POPC   GL143537  18.275  27.617   6.155
 8892POPC   GL243538  18.408  27.649   6.155
 8892POPC   C1A43539  18.311  27.544   6.455
 8892POPC   D2A43540  18.247  27.601   6.755
 8892POPC   C3A43541  18.330  27.581   7.055
 8892POPC   C4A43542  18.299  27.605   7.355
 8892POPC   C1B43543  18.514  27.630   6.455
 8892POPC   C2B43544  18.533  27.612   6.755
 8892POPC   C3B43545  18.550  27.609   7.055
 8892POPC   C4B43546  18.502  27.667   7.355
 8893POPC   NC343547   1.994  36.886   5.555
 8893POPC   PO443548   1.951  36.888   5.855
 8893POPC   GL143549   1.945  36.857   6.155
 8893POPC   GL243550   2.024  36.737   6.155
 8893POPC   C1A43551   1.974  36.938   6.455
 8893POPC   D2A43552   1.982  36.940   6.755
 8893POPC   C3A43553   1.941  36.860   7.055
 8893POPC   C4A43554   1.994  36.948   7.355
 8893POPC   C1B43555   1.999  36.681   6.455
 8893POPC   C2B43556   2.043  36.654   6.755
 8893POPC   C3B43557   2.040  36.612   7.055
 8893POPC   C4B43558   1.977  36.682   7.355
 8894POPC   NC343559  22.924  16.716   5.555
 8894POPC   PO443560  22.897  16.728   5.855
 8894POPC   GL143561  22.921  16.764   6.155
 8894POPC   GL243562  23.063  16.689   6.155
 8894POPC   C1A43563  22.908  16.730   6.455
 8894POPC   D2A43564  22.967  16.741   6.755
 8894POPC   C3A43565  22.908  16.695   7.055
 8894POPC   C4A43566  22.931  16.759   7.355
 8894POPC   C1B43567  23.145  16.671   6.455
 8894POPC   C2B43568  23.188  16.736   6.755
 8894POPC   C3B43569  23.143  16.713   7.055
 8894POPC   C4B43570  23.231  16.714   7.355
 8895POPC   NC343571  31.432   3.527   5.555
 8895POPC   PO443572  31.467   3.553   5.855
 8895POPC   GL143573  31.441   3.516   6.155
 8895POPC   GL243574  31.337   3.601   6.155
 8895POPC   C1A43575  31.503   3.519   6.455
 8895POPC   D2A43576  31.438   3.577   6.755
 8895POPC   C3A43577  31.521   3.526   7.055
 8895POPC   C4A43578  31.507   3.584   7.355
 8895POPC   C1B43579  31.289   3.706   6.455
 8895POPC   C2B43580  31.296   3.740   6.755
 8895POPC   C3B43581  31.256   3.695   7.055
 8895POPC   C4B43582  31.257   3.747   7.355
 8896POPC   NC343583  18.239  19.094   5.555
 8896POPC   PO443584  18.308  19.092   5.855
 8896POPC   GL143585  18.299  19.087   6.155
 8896POPC   GL243586  18.420  18.957   6.155
 8896POPC   C1A43587  18.315  19.027   6.455
 8896POPC   D2A43588  18.303  19.061   6.755
 8896POPC   C3A43589  18.309  19.073   7.055
 8896POPC   C4A43590  18.303  19.038   7.355
 8896POPC   C1B43591  18.495  18.857   6.455
 8896POPC   C2B43592  18.428  18.941   6.755
 8896POPC   C3B43593  18.440  18.935   7.055
 8896POPC   C4B43594  18.468  18.945   7.355
 8897POPC   NC343595  32.244  27.595   5.555
 8897POPC   PO443596  32.247  27.557   5.855
 8897POPC   GL143597  32.291  27.621   6.155
 8897POPC   GL243598  32.330  27.613   6.155
 8897POPC   C1A43599  32.248  27.574   6.455
 8897POPC   D2A43600  32.234  27.591   6.755
 8897POPC   C3A43601  32.247  27.544   7.055
 8897POPC   C4A43602  32.273  27.593   7.355
 8897POPC   C1B43603  32.488  27.599   6.455
 8897POPC   C2B43604  32.459  27.640   6.755
 8897POPC   C3B43605  32.472  27.628   7.055
 8897POPC   C4B43606  32.508  27.606   7.355
 8898POPC   NC343607   6.650  31.443   5.555
 8898POPC   PO443608   6.596  31.487   5.855
 8898POPC   GL143609   6.692  31.504   6.155
 8898POPC   GL243610   6.714  31.551   6.155
 8898POPC   C1A43611   6.623  31.476   6.455
 8898POPC   D2A43612   6.664  31.423   6.755
 8898POPC   C3A43613   6.635  31.496   7.055
 8898POPC   C4A43614   6.685  31.513   7.355
 8898POPC   C1B43615   6.822  31.665   6.455
 8898POPC   C2B43616   6.853  31.622   6.755
 8898POPC   C3B43617   6.874  31.598   7.055
 8898POPC   C4B43618   6.836  31.604   7.355
 8899POPC   NC343619   5.099  36.105   5.555
 8899POPC   PO443620   5.065  36.115   5.855
 8899POPC   GL143621   5.115  36.083   6.155
 8899POPC   GL243622   5.249  36.154   6.155
 8899POPC   C1A43623   5.065  36.119   6.455
 8899POPC   D2A43624   5.078  36.150   6.755
 8899POPC   C3A43625   5.046  36.122   7.055
 8899POPC   C4A43626   5.065  36.119   7.355
 8899POPC   C1B43627   5.322  36.127   6.455
 8899POPC   C2B43628   5.315  36.162   6.755
 8899POPC   C3B43629   5.383  36.137   7.055
 8899POPC   C4B43630   5.300  36.139   7.355
 8900POPC   NC343631  22.123  41.533   5.555
 8900POPC   PO443632  22.126  41.605   5.855
 8900POPC   GL143633  22.137  41.567   6.155
 8900POPC   GL243634  22.055  41.510   6.155
 8900POPC   C1A43635  22.114  41.593   6.455
 8900POPC   D2A43636  22.192  41.513   6.755
 8900POPC   C3A43637  22.158  41.565   7.055
 8900POPC   C4A43638  22.199  41.594   7.355
 8900POPC   C1B43639  21.950  41.543   6.455
 8900POPC   C2B43640  21.936  41.503   6.755
 8900POPC   C3B43641  21.913  41.483   7.055
 8900POPC   C4B43642  21.937  41.559   7.355
 8901POPC   NC343643  15.995   9.723   5.555
 8901POPC   PO443644  15.962   9.750   5.855
 8901POPC   GL143645  16.004   9.753   6.155
 8901POPC   GL243646  16.106   9.778   6.155
 8901POPC   C1A43647  15.909   9.779   6.455
 8901POPC   D2A43648  15.973   9.758   6.755
 8901POPC   C3A43649  15.939   9.732   7.055
 8901POPC   C4A43650  15.991   9.718   7.355
 8901POPC   C1B43651  16.197   9.897   6.455
 8901POPC   C2B43652  16.190   9.871   6.755
 8901POPC   C3B43653  16.113   9.913   7.055
 8901POPC   C4B43654  16.161   9.902   7.355
 8902POPC   NC343655  32.215   4.345   5.555
 8902POPC   PO443656  32.277   4.357   5.855
 8902POPC   GL143657  32.212   4.350   6.155
 8902POPC   GL243658  32.110   4.238   6.155
 8902POPC   C1A43659  32.250   4.337   6.455
 8902POPC   D2A43660  32.209   4.341   6.755
 8902POPC   C3A43661  32.200   4.339   7.055
 8902POPC   C4A43662  32.282   4.281   7.355
 8902POPC   C1B43663  32.002   4.248   6.455
 8902POPC   C2B43664  31.976   4.222   6.755
 8902POPC   C3B43665  31.999   4.186   7.055
 8902POPC   C4B43666  32.037   4.249   7.355
 8903POPC   NC343667  37.716  29.957   5.555
 8903POPC   PO443668  37.638  29.899   5.855
 8903POPC   GL143669  37.635  29.886   6.155
 8903POPC   GL243670  37.622  29.946   6.155
 8903POPC   C1A43671  37.682  29.958   6.455
 8903POPC   D2A43672  37.681  29.945   6.755
 8903POPC   C3A43673  37.650  29.928   7.055
 8903POPC   C4A43674  37.682  29.947   7.355
 8903POPC   C1B43675  37.505  30.037   6.455
 8903POPC   C2B43676  37.441  30.068   6.755
 8903POPC   C3B43677  37.509  30.068   7.055
 8903POPC   C4B43678  37.495  30.072   7.355
 8904POPC   NC343679  15.993  41.600   5.555
 8904POPC   PO443680  15.944  41.556   5.855
 8904POPC   GL143681  15.977  41.541   6.155
 8904POPC   GL243682  15.938  41.467   6.155
 8904POPC   C1A43683  15.935  41.580   6.455
 8904POPC   D2A43684  15.991  41.541   6.755
 8904POPC   C3A43685  15.942  41.595   7.055
 8904POPC   C4A43686  15.906  41.518   7.355
 8904POPC   C1B43687  15.906  41.355   6.455
 8904POPC   C2B43688  15.969  41.299   6.755
 8904POPC   C3B43689  15.987  41.268   7.055
 8904POPC   C4B43690  15.978  41.316   7.355
 8905POPC   NC343691  15.960  24.485   5.555
 8905POPC   PO443692  15.909  24.514   5.855
 8905POPC   GL143693  15.982  24.492   6.155
 8905POPC   GL243694  16.074  24.626   6.155
 8905POPC   C1A43695  15.945  24.524   6.455
 8905POPC   D2A43696  15.987  24.538   6.755
 8905POPC   C3A43697  15.950  24.482   7.055
 8905POPC   C4A43698  15.943  24.505   7.355
 8905POPC   C1B43699  16.125  24.686   6.455
 8905POPC   C2B43700  16.149  24.719   6.755
 8905POPC   C3B43701  16.075  24.716   7.055
 8905POPC   C4B43702  16.095  24.715   7.355
 8906POPC   NC343703  26.798   1.998   5.555
 8906POPC   PO443704  26.824   2.029   5.855
 8906POPC   GL143705  26.782   1.946   6.155
 8906POPC   GL243706  26.735   1.946   6.155
 8906POPC   C1A43707  26.834   1.990   6.455
 8906POPC   D2A43708  26.826   1.951   6.755
 8906POPC   C3A43709  26.849   1.987   7.055
 8906POPC   C4A43710  26.812   2.024   7.355
 8906POPC   C1B43711  26.613   1.940   6.455
 8906POPC   C2B43712  26.520   1.922   6.755
 8906POPC   C3B43713  26.599   2.007   7.055
 8906POPC   C4B43714  26.528   1.929   7.355
 8907POPC   NC343715  30.716  29.145   5.555
 8907POPC   PO443716  30.695  29.110   5.855
 8907POPC   GL143717  30.650  29.195   6.155
 8907POPC   GL243718  30.596  29.237   6.155
 8907POPC   C1A43719  30.720  29.122   6.455
 8907POPC   D2A43720  30.662  29.182   6.755
 8907POPC   C3A43721  30.652  29.153   7.055
 8907POPC   C4A43722  30.721  29.193   7.355
 8907POPC   C1B43723  30.592  29.341   6.455
 8907POPC   C2B43724  30.512  29.307   6.755
 8907POPC   C3B43725  30.538  29.388   7.055
 8907POPC   C4B43726  30.505  29.370   7.355
 8908POPC   NC343727  38.448  16.733   5.555
 8908POPC   PO443728  38.441  16.719   5.855
 8908POPC   GL143729  38.495  16.746   6.155
 8908POPC   GL243730  38.415  16.581   6.155
 8908POPC   C1A43731  38.484  16.750   6.455
 8908POPC   D2A43732  38.490  16.731   6.755
 8908POPC   C3A43733  38.406  16.696   7.055
 8908POPC   C4A43734  38.473  16.721   7.355
 8908POPC   C1B43735  38.282  16.485   6.455
 8908POPC   C2B43736  38.329  16.489   6.755
 8908POPC   C3B43737  38.284  16.555   7.055
 8908POPC   C4B43738  38.279  16.554   7.355
 8909POPC   NC343739  43.092  26.032   5.555
 8909POPC   PO443740  43.065  26.082   5.855
 8909POPC   GL143741  43.151  26.015   6.155
 8909POPC   GL243742  43.198  26.186   6.155
 8909POPC   C1A43743  43.065  26.026   6.455
 8909POPC   D2A43744  43.159  26.039   6.755
 8909POPC   C3A43745  43.085  25.998   7.055
 8909POPC   C4A43746  43.088  26.062   7.355
 8909POPC   C1B43747  43.229  26.285   6.455
 8909POPC   C2B43748  43.220  26.270   6.755
 8909POPC   C3B43749  43.183  26.318   7.055
 8909POPC   C4B43750  43.191  26.253   7.355
 8910POPC   NC343751  41.586  19.073   5.555
 8910POPC   PO443752  41.593  19.010   5.855
 8910POPC   GL143753  41.527  19.096   6.155
 8910POPC   GL243754  41.679  19.093   6.155
 8910POPC   C1A43755  41.547  19.071   6.455
 8910POPC   D2A43756  41.571  19.032   6.755
 8910POPC   C3A43757  41.537  19.010   7.055
 8910POPC   C4A43758  41.530  19.017   7.355
 8910POPC   C1B43759  41.722  19.185   6.455
 8910POPC   C2B43760  41.805  19.236   6.755
 8910POPC   C3B43761  41.737  19.247   7.055
 8910POPC   C4B43762  41.766  19.171   7.355
 8911POPC   NC343763   7.467   6.629   5.555
 8911POPC   PO443764   7.439   6.645   5.855
 8911POPC   GL143765   7.468   6.615   6.155
 8911POPC   GL243766   7.321   6.529   6.155
 8911POPC   C1A43767   7.371   6.610   6.455
 8911POPC   D2A43768   7.404   6.641   6.755
 8911POPC   C3A43769   7.451   6.693   7.055
 8911POPC   C4A43770   7.429   6.608   7.355
 8911POPC   C1B43771   7.279   6.397   6.455
 8911POPC   C2B43772   7.266   6.438   6.755
 8911POPC   C3B43773   7.300   6.422   7.055
 8911POPC   C4B43774   7.291   6.454   7.355
 8912POPC   NC343775  41.609   6.608   5.555
 8912POPC   PO443776  41.549   6.623   5.855
 8912POPC   GL143777  41.529   6.634   6.155
 8912POPC   GL243778  41.705   6.622   6.155
 8912POPC   C1A43779  41.602   6.688   6.455
 8912POPC   D2A43780  41.542   6.646   6.755
 8912POPC   C3A43781  41.534   6.639   7.055
 8912POPC   C4A43782  41.564   6.663   7.355
 8912POPC   C1B43783  41.823   6.522   6.455
 8912POPC   C2B43784  41.773   6.510   6.755
 8912POPC   C3B43785  41.762   6.584   7.055
 8912POPC   C4B43786  41.808   6.585   7.355
 8913POPC   NC343787  38.438  43.855   5.555
 8913POPC   PO443788  38.450  43.923   5.855
 8913POPC   GL143789  38.445  43.926   6.155
 8913POPC   GL243790  38.568  43.880   6.155
 8913POPC   C1A43791  38.425  43.897   6.455
 8913POPC   D2A43792  38.447  43.855   6.755
 8913POPC   C3A43793  38.480  43.933   7.055
 8913POPC   C4A43794  38.427  43.884   7.355
 8913POPC   C1B43795  38.662  43.745   6.455
 8913POPC   C2B43796  38.665  43.832   6.755
 8913POPC   C3B43797  38.644  43.743   7.055
 8913POPC   C4B43798  38.706  43.751   7.355
 8914POPC   NC343799   1.947   4.332   5.555
 8914POPC   PO443800   2.023   4.362   5.855
 8914POPC   GL143801   1.948   4.268   6.155
 8914POPC   GL243802   2.086   4.288   6.155
 8914POPC   C1A43803   1.942   4.271   6.455
 8914POPC   D2A43804   1.952   4.298   6.755
 8914POPC   C3A43805   2.007   4.305   7.055
 8914POPC   C4A43806   1.977   4.283   7.355
 8914POPC   C1B43807   2.249   4.331   6.455
 8914POPC   C2B43808   2.226   4.289   6.755
 8914POPC   C3B43809   2.219   4.247   7.055
 8914POPC   C4B43810   2.224   4.267   7.355
 8915POPC   NC343811  40.739  26.847   5.555
 8915POPC   PO443812  40.767  26.769   5.855
 8915POPC   GL143813  40.775  26.838   6.155
 8915POPC   GL243814  40.769  26.716   6.155
 8915POPC   C1A43815  40.749  26.783   6.455
 8915POPC   D2A43816  40.802  26.847   6.755
 8915POPC   C3A43817  40.830  26.862   7.055
 8915POPC   C4A43818  40.776  26.848   7.355
 8915POPC   C1B43819  40.775  26.577   6.455
 8915POPC   C2B43820  40.751  26.600   6.755
 8915POPC   C3B43821  40.783  26.594   7.055
 8915POPC   C4B43822  40.816  26.537   7.355
 8916POPC   NC343823   3.589  33.048   5.555
 8916POPC   PO443824   3.581  33.016   5.855
 8916POPC   GL143825   3.565  33.048   6.155
 8916POPC   GL243826   3.460  32.871   6.155
 8916POPC   C1A43827   3.571  33.033   6.455
 8916POPC   D2A43828   3.524  33.063   6.755
 8916POPC   C3A43829   3.563  32.993   7.055
 8916POPC   C4A43830   3.512  33.005   7.355
 8916POPC   C1B43831   3.395  32.794   6.455
 8916POPC   C2B43832   3.397  32.771   6.755
 8916POPC   C3B43833   3.387  32.835   7.055
 8916POPC   C4B43834   3.424  32.809   7.355
 8917POPC   NC343835   0.411  42.303   5.555
 8917POPC   PO443836   0.473  42.289   5.855
 8917POPC   GL143837   0.454  42.345   6.155
 8917POPC   GL243838   0.426  42.234   6.155
 8917POPC   C1A43839   0.462  42.336   6.455
 8917POPC   D2A43840   0.409  42.381   6.755
 8917POPC   C3A43841   0.481  42.365   7.055
 8917POPC   C4A43842   0.466  42.317   7.355
 8917POPC   C1B43843   0.438  42.064   6.455
 8917POPC   C2B43844   0.436  42.100   6.755
 8917POPC   C3B43845   0.423  42.099   7.055
 8917POPC   C4B43846   0.423  42.092   7.355
 8918POPC   NC343847  29.891  22.189   5.555
 8918POPC   PO443848  29.929  22.141   5.855
 8918POPC   GL143849  29.914  22.138   6.155
 8918POPC   GL243850  29.924  22.247   6.155
 8918POPC   C1A43851  29.911  22.150   6.455
 8918POPC   D2A43852  29.886  22.158   6.755
 8918POPC   C3A43853  29.930  22.175   7.055
 8918POPC   C4A43854  29.873  22.187   7.355
 8918POPC   C1B43855  29.934  22.404   6.455
 8918POPC   C2B43856  29.955  22.408   6.755
 8918POPC   C3B43857  30.002  22.413   7.055
 8918POPC   C4B43858  30.013  22.392   7.355
 8919POPC   NC343859  38.459  31.486   5.555
 8919POPC   PO443860  38.485  31.521   5.855
 8919POPC   GL143861  38.426  31.487   6.155
 8919POPC   GL243862  38.491  31.336   6.155
 8919POPC   C1A43863  38.476  31.499   6.455
 8919POPC   D2A43864  38.421  31.492   6.755
 8919POPC   C3A43865  38.432  31.449   7.055
 8919POPC   C4A43866  38.454  31.429   7.355
 8919POPC   C1B43867  38.568  31.249   6.455
 8919POPC   C2B43868  38.569  31.218   6.755
 8919POPC   C3B43869  38.502  31.265   7.055
 8919POPC   C4B43870  38.555  31.232   7.355
 8920POPC   NC343871   5.852  15.998   5.555
 8920POPC   PO443872   5.857  15.999   5.855
 8920POPC   GL143873   5.854  15.983   6.155
 8920POPC   GL243874   5.908  16.035   6.155
 8920POPC   C1A43875   5.876  15.911   6.455
 8920POPC   D2A43876   5.900  15.981   6.755
 8920POPC   C3A43877   5.918  15.971   7.055
 8920POPC   C4A43878   5.897  15.912   7.355
 8920POPC   C1B43879   6.036  16.163   6.455
 8920POPC   C2B43880   6.007  16.216   6.755
 8920POPC   C3B43881   5.981  16.155   7.055
 8920POPC   C4B43882   6.030  16.126   7.355
 8921POPC   NC343883  20.638  14.419   5.555
 8921POPC   PO443884  20.629  14.410   5.855
 8921POPC   GL143885  20.637  14.417   6.155
 8921POPC   GL243886  20.663  14.518   6.155
 8921POPC   C1A43887  20.572  14.385   6.455
 8921POPC   D2A43888  20.645  14.374   6.755
 8921POPC   C3A43889  20.565  14.387   7.055
 8921POPC   C4A43890  20.570  14.371   7.355
 8921POPC   C1B43891  20.709  14.664   6.455
 8921POPC   C2B43892  20.671  14.587   6.755
 8921POPC   C3B43893  20.680  14.642   7.055
 8921POPC   C4B43894  20.747  14.605   7.355
 8922POPC   NC343895  22.196  22.155   5.555
 8922POPC   PO443896  22.152  22.121   5.855
 8922POPC   GL143897  22.209  22.118   6.155
 8922POPC   GL243898  22.323  22.165   6.155
 8922POPC   C1A43899  22.206  22.168   6.455
 8922POPC   D2A43900  22.204  22.177   6.755
 8922POPC   C3A43901  22.173  22.210   7.055
 8922POPC   C4A43902  22.153  22.193   7.355
 8922POPC   C1B43903  22.365  22.214   6.455
 8922POPC   C2B43904  22.368  22.288   6.755
 8922POPC   C3B43905  22.384  22.297   7.055
 8922POPC   C4B43906  22.382  22.260   7.355
 8923POPC   NC343907   9.727  39.215   5.555
 8923POPC   PO443908   9.780  39.267   5.855
 8923POPC   GL143909   9.786  39.232   6.155
 8923POPC   GL243910   9.702  39.334   6.155
 8923POPC   C1A43911   9.743  39.229   6.455
 8923POPC   D2A43912   9.781  39.241   6.755
 8923POPC   C3A43913   9.771  39.183   7.055
 8923POPC   C4A43914   9.764  39.229   7.355
 8923POPC   C1B43915   9.723  39.525   6.455
 8923POPC   C2B43916   9.757  39.512   6.755
 8923POPC   C3B43917   9.683  39.450   7.055
 8923POPC   C4B43918   9.748  39.486   7.355
 8924POPC   NC343919  30.731  12.100   5.555
 8924POPC   PO443920  30.658  12.071   5.855
 8924POPC   GL143921  30.699  12.043   6.155
 8924POPC   GL243922  30.598  12.005   6.155
 8924POPC   C1A43923  30.741  12.062   6.455
 8924POPC   D2A43924  30.682  12.039   6.755
 8924POPC   C3A43925  30.664  12.071   7.055
 8924POPC   C4A43926  30.726  12.066   7.355
 8924POPC   C1B43927  30.484  11.914   6.455
 8924POPC   C2B43928  30.487  11.843   6.755
 8924POPC   C3B43929  30.543  11.919   7.055
 8924POPC   C4B43930  30.572  11.848   7.355
 8925POPC   NC343931  43.081  23.724   5.555
 8925POPC   PO443932  43.151  23.728   5.855
 8925POPC   GL143933  43.076  23.684   6.155
 8925POPC   GL243934  42.984  23.627   6.155
 8925POPC   C1A43935  43.072  23.723   6.455
 8925POPC   D2A43936  43.129  23.688   6.755
 8925POPC   C3A43937  43.136  23.741   7.055
 8925POPC   C4A43938  43.134  23.748   7.355
 8925POPC   C1B43939  42.832  23.620   6.455
 8925POPC   C2B43940  42.892  23.653   6.755
 8925POPC   C3B43941  42.870  23.584   7.055
 8925POPC   C4B43942  42.841  23.669   7.355
 8926POPC   NC343943   3.581   5.127   5.555
 8926POPC   PO443944   3.520   5.139   5.855
 8926POPC   GL143945   3.587   5.079   6.155
 8926POPC   GL243946   3.706   5.036   6.155
 8926POPC   C1A43947   3.514   5.118   6.455
 8926POPC   D2A43948   3.572   5.081   6.755
 8926POPC   C3A43949   3.545   5.105   7.055
 8926POPC   C4A43950   3.508   5.140   7.355
 8926POPC   C1B43951   3.758   5.041   6.455
 8926POPC   C2B43952   3.753   5.002   6.755
 8926POPC   C3B43953   3.808   5.003   7.055
 8926POPC   C4B43954   3.767   5.013   7.355
 8927POPC   NC343955  34.599  41.569   5.555
 8927POPC   PO443956  34.544  41.525   5.855
 8927POPC   GL143957  34.593  41.544   6.155
 8927POPC   GL243958  34.724  41.632   6.155
 8927POPC   C1A43959  34.528  41.586   6.455
 8927POPC   D2A43960  34.531  41.546   6.755
 8927POPC   C3A43961  34.625  41.536   7.055
 8927POPC   C4A43962  34.607  41.574   7.355
 8927POPC   C1B43963  34.830  41.661   6.455
 8927POPC   C2B43964  34.854  41.604   6.755
 8927POPC   C3B43965  34.815  41.692   7.055
 8927POPC   C4B43966  34.824  41.652   7.355
 8928POPC   NC343967  15.197  18.325   5.555
 8928POPC   PO443968  15.152  18.272   5.855
 8928POPC   GL143969  15.163  18.237   6.155
 8928POPC   GL243970  15.208  18.404   6.155
 8928POPC   C1A43971  15.201  18.257   6.455
 8928POPC   D2A43972  15.153  18.256   6.755
 8928POPC   C3A43973  15.228  18.255   7.055
 8928POPC   C4A43974  15.163  18.249   7.355
 8928POPC   C1B43975  15.371  18.493   6.455
 8928POPC   C2B43976  15.377  18.470   6.755
 8928POPC   C3B43977  15.337  18.449   7.055
 8928POPC   C4B43978  15.375  18.508   7.355
 8929POPC   NC343979  22.917  26.769   5.555
 8929POPC   PO443980  22.889  26.777   5.855
 8929POPC   GL143981  22.942  26.788   6.155
 8929POPC   GL243982  22.832  26.756   6.155
 8929POPC   C1A43983  22.961  26.859   6.455
 8929POPC   D2A43984  22.982  26.790   6.755
 8929POPC   C3A43985  22.921  26.821   7.055
 8929POPC   C4A43986  22.932  26.852   7.355
 8929POPC   C1B43987  22.742  26.733   6.455
 8929POPC   C2B43988  22.741  26.786   6.755
 8929POPC   C3B43989  22.716  26.775   7.055
 8929POPC   C4B43990  22.684  26.777   7.355
 8930POPC   NC343991   5.130   1.964   5.555
 8930POPC   PO443992   5.141   1.954   5.855
 8930POPC   GL143993   5.138   1.946   6.155
 8930POPC   GL243994   4.992   1.919   6.155
 8930POPC   C1A43995   5.061   1.991   6.455
 8930POPC   D2A43996   5.142   2.038   6.755
 8930POPC   C3A43997   5.113   1.944   7.055
 8930POPC   C4A43998   5.106   1.983   7.355
 8930POPC   C1B43999   4.907   1.811   6.455
 8930POPC   C2B44000   4.947   1.836   6.755
 8930POPC   C3B44001   4.900   1.784   7.055
 8930POPC   C4B44002   4.893   1.777   7.355
 8931POPC   NC344003   7.381  14.402   5.555
 8931POPC   PO444004   7.405  14.362   5.855
 8931POPC   GL144005   7.468  14.435   6.155
 8931POPC   GL244006   7.471  14.570   6.155
 8931POPC   C1A44007   7.406  14.384   6.455
 8931POPC   D2A44008   7.448  14.382   6.755
 8931POPC   C3A44009   7.456  14.399   7.055
 8931POPC   C4A44010   7.385  14.374   7.355
 8931POPC   C1B44011   7.450  14.652   6.455
 8931POPC   C2B44012   7.448  14.670   6.755
 8931POPC   C3B44013   7.434  14.698   7.055
 8931POPC   C4B44014   7.490  14.606   7.355
 8932POPC   NC344015  43.889  40.786   5.555
 8932POPC   PO444016  43.878  40.798   5.855
 8932POPC   GL144017  43.932  40.777   6.155
 8932POPC   GL244018  44.007  40.789   6.155
 8932POPC   C1A44019  43.926  40.827   6.455
 8932POPC   D2A44020  43.933  40.805   6.755
 8932POPC   C3A44021  43.880  40.750   7.055
 8932POPC   C4A44022  43.932  40.751   7.355
 8932POPC   C1B44023  44.183  40.740   6.455
 8932POPC   C2B44024  44.113  40.737   6.755
 8932POPC   C3B44025  44.154  40.762   7.055
 8932POPC   C4B44026  44.183  40.800   7.355
 8933POPC   NC344027   6.654   6.689   5.555
 8933POPC   PO444028   6.609   6.618   5.855
 8933POPC   GL144029   6.600   6.625   6.155
 8933POPC   GL244030   6.756   6.628   6.155
 8933POPC   C1A44031   6.614   6.652   6.455
 8933POPC   D2A44032   6.669   6.630   6.755
 8933POPC   C3A44033   6.687   6.672   7.055
 8933POPC   C4A44034   6.673   6.660   7.355
 8933POPC   C1B44035   6.897   6.565   6.455
 8933POPC   C2B44036   6.930   6.563   6.755
 8933POPC   C3B44037   6.855   6.586   7.055
 8933POPC   C4B44038   6.888   6.608   7.355
 8934POPC   NC344039  42.374  12.847   5.555
 8934POPC   PO444040  42.350  12.821   5.855
 8934POPC   GL144041  42.369  12.810   6.155
 8934POPC   GL244042  42.497  12.850   6.155
 8934POPC   C1A44043  42.336  12.835   6.455
 8934POPC   D2A44044  42.302  12.885   6.755
 8934POPC   C3A44045  42.360  12.869   7.055
 8934POPC   C4A44046  42.293  12.816   7.355
 8934POPC   C1B44047  42.612  12.793   6.455
 8934POPC   C2B44048  42.573  12.807   6.755
 8934POPC   C3B44049  42.576  12.751   7.055
 8934POPC   C4B44050  42.530  12.819   7.355
 8935POPC   NC344051  29.095  12.061   5.555
 8935POPC   PO444052  29.156  12.059   5.855
 8935POPC   GL144053  29.161  12.051   6.155
 8935POPC   GL244054  29.068  12.133   6.155
 8935POPC   C1A44055  29.120  12.110   6.455
 8935POPC   D2A44056  29.162  12.094   6.755
 8935POPC   C3A44057  29.140  12.082   7.055
 8935POPC   C4A44058  29.107  12.086   7.355
 8935POPC   C1B44059  28.976  12.254   6.455
 8935POPC   C2B44060  28.976  12.221   6.755
 8935POPC   C3B44061  28.933  12.198   7.055
 8935POPC   C4B44062  28.933  12.271   7.355
 8936POPC   NC344063  15.164  15.933   5.555
 8936POPC   PO444064  15.204  15.980   5.855
 8936POPC   GL144065  15.185  15.955   6.155
 8936POPC   GL244066  15.094  15.815   6.155
 8936POPC   C1A44067  15.211  15.927   6.455
 8936POPC   D2A44068  15.161  15.988   6.755
 8936POPC   C3A44069  15.163  15.973   7.055
 8936POPC   C4A44070  15.144  15.939   7.355
 8936POPC   C1B44071  15.096  15.769   6.455
 8936POPC   C2B44072  15.036  15.761   6.755
 8936POPC   C3B44073  15.092  15.724   7.055
 8936POPC   C4B44074  15.032  15.740   7.355
 8937POPC   NC344075   1.173  16.699   5.555
 8937POPC   PO444076   1.230  16.721   5.855
 8937POPC   GL144077   1.236  16.697   6.155
 8937POPC   GL244078   1.338  16.776   6.155
 8937POPC   C1A44079   1.175  16.773   6.455
 8937POPC   D2A44080   1.169  16.773   6.755
 8937POPC   C3A44081   1.209  16.749   7.055
 8937POPC   C4A44082   1.170  16.728   7.355
 8937POPC   C1B44083   1.440  16.776   6.455
 8937POPC   C2B44084   1.425  16.804   6.755
 8937POPC   C3B44085   1.425  16.805   7.055
 8937POPC   C4B44086   1.432  16.829   7.355
 8938POPC   NC344087  41.591  26.008   5.555
 8938POPC   PO444088  41.569  26.010   5.855
 8938POPC   GL144089  41.523  26.088   6.155
 8938POPC   GL244090  41.472  26.014   6.155
 8938POPC   C1A44091  41.528  26.039   6.455
 8938POPC   D2A44092  41.595  26.090   6.755
 8938POPC   C3A44093  41.585  26.061   7.055
 8938POPC   C4A44094  41.553  26.049   7.355
 8938POPC   C1B44095  41.348  26.073   6.455
 8938POPC   C2B44096  41.279  26.003   6.755
 8938POPC   C3B44097  41.262  26.003   7.055
 8938POPC   C4B44098  41.268  26.024   7.355
 8939POPC   NC344099   9.764  12.068   5.555
 8939POPC   PO444100   9.713  12.038   5.855
 8939POPC   GL144101   9.740  12.110   6.155
 8939POPC   GL244102   9.846  12.094   6.155
 8939POPC   C1A44103   9.721  12.062   6.455
 8939POPC   D2A44104   9.709  12.073   6.755
 8939POPC   C3A44105   9.793  12.118   7.055
 8939POPC   C4A44106   9.761  12.119   7.355
 8939POPC   C1B44107  10.042  12.047   6.455
 8939POPC   C2B44108  10.022  12.037   6.755
 8939POPC   C3B44109   9.977  12.125   7.055
 8939POPC   C4B44110   9.979  12.078   7.355
 8940POPC   NC344111  32.203  10.513   5.555
 8940POPC   PO444112  32.251  10.554   5.855
 8940POPC   GL144113  32.282  10.567   6.155
 8940POPC   GL244114  32.377  10.554   6.155
 8940POPC   C1A44115  32.229  10.541   6.455
 8940POPC   D2A44116  32.204  10.553   6.755
 8940POPC   C3A44117  32.245  10.492   7.055
 8940POPC   C4A44118  32.205  10.518   7.355
 8940POPC   C1B44119  32.541  10.543   6.455
 8940POPC   C2B44120  32.510  10.535   6.755
 8940POPC   C3B44121  32.526  10.515   7.055
 8940POPC   C4B44122  32.454  10.512   7.355
 8941POPC   NC344123  39.195  26.001   5.555
 8941POPC   PO444124  39.242  26.008   5.855
 8941POPC   GL144125  39.269  26.023   6.155
 8941POPC   GL244126  39.261  25.936   6.155
 8941POPC   C1A44127  39.188  26.014   6.455
 8941POPC   D2A44128  39.252  25.991   6.755
 8941POPC   C3A44129  39.230  26.074   7.055
 8941POPC   C4A44130  39.188  26.030   7.355
 8941POPC   C1B44131  39.404  25.882   6.455
 8941POPC   C2B44132  39.340  25.878   6.755
 8941POPC   C3B44133  39.381  25.860   7.055
 8941POPC   C4B44134  39.415  25.851   7.355
 8942POPC   NC344135   0.438  26.028   5.555
 8942POPC   PO444136   0.424  26.039   5.855
 8942POPC   GL144137   0.484  26.039   6.155
 8942POPC   GL244138   0.342  26.115   6.155
 8942POPC   C1A44139   0.459  26.039   6.455
 8942POPC   D2A44140   0.461  26.070   6.755
 8942POPC   C3A44141   0.415  26.000   7.055
 8942POPC   C4A44142   0.456  26.041   7.355
 8942POPC   C1B44143   0.250  26.086   6.455
 8942POPC   C2B44144   0.231  26.109   6.755
 8942POPC   C3B44145   0.171  26.145   7.055
 8942POPC   C4B44146   0.235  26.101   7.355
 8943POPC   NC344147   9.715   0.442   5.555
 8943POPC   PO444148   9.795   0.423   5.855
 8943POPC   GL144149   9.777   0.400   6.155
 8943POPC   GL244150   9.654   0.383   6.155
 8943POPC   C1A44151   9.748   0.474   6.455
 8943POPC   D2A44152   9.735   0.391   6.755
 8943POPC   C3A44153   9.781   0.474   7.055
 8943POPC   C4A44154   9.758   0.435   7.355
 8943POPC   C1B44155   9.583   0.329   6.455
 8943POPC   C2B44156   9.553   0.277   6.755
 8943POPC   C3B44157   9.500   0.274   7.055
 8943POPC   C4B44158   9.502   0.297   7.355
 8944POPC   NC344159  36.154   0.484   5.555
 8944POPC   PO444160  36.171   0.463   5.855
 8944POPC   GL144161  36.147   0.449   6.155
 8944POPC   GL244162  36.065   0.351   6.155
 8944POPC   C1A44163  36.093   0.422   6.455
 8944POPC   D2A44164  36.147   0.457   6.755
 8944POPC   C3A44165  36.115   0.456   7.055
 8944POPC   C4A44166  36.097   0.460   7.355
 8944POPC   C1B44167  36.061   0.184   6.455
 8944POPC   C2B44168  36.033   0.246   6.755
 8944POPC   C3B44169  36.062   0.199   7.055
 8944POPC   C4B44170  36.090   0.229   7.355
 8945POPC   NC344171  22.202   1.208   5.555
 8945POPC   PO444172  22.186   1.174   5.855
 8945POPC   GL144173  22.115   1.242   6.155
 8945POPC   GL244174  22.219   1.179   6.155
 8945POPC   C1A44175  22.139   1.186   6.455
 8945POPC   D2A44176  22.155   1.216   6.755
 8945POPC   C3A44177  22.149   1.165   7.055
 8945POPC   C4A44178  22.142   1.183   7.355
 8945POPC   C1B44179  22.329   1.036   6.455
 8945POPC   C2B44180  22.350   1.041   6.755
 8945POPC   C3B44181  22.316   1.070   7.055
 8945POPC   C4B44182  22.402   1.050   7.355
 8946POPC   NC344183  42.336  39.985   5.555
 8946POPC   PO444184  42.290  40.019   5.855
 8946POPC   GL144185  42.372  39.979   6.155
 8946POPC   GL244186  42.249  40.076   6.155
 8946POPC   C1A44187  42.375  40.036   6.455
 8946POPC   D2A44188  42.343  39.999   6.755
 8946POPC   C3A44189  42.312  40.025   7.055
 8946POPC   C4A44190  42.335  40.040   7.355
 8946POPC   C1B44191  42.272  40.238   6.455
 8946POPC   C2B44192  42.223  40.194   6.755
 8946POPC   C3B44193  42.218  40.241   7.055
 8946POPC   C4B44194  42.286  40.209   7.355
 8947POPC   NC344195  22.985   2.751   5.555
 8947POPC   PO444196  22.893   2.813   5.855
 8947POPC   GL144197  22.924   2.776   6.155
 8947POPC   GL244198  22.970   2.872   6.155
 8947POPC   C1A44199  22.912   2.749   6.455
 8947POPC   D2A44200  22.979   2.747   6.755
 8947POPC   C3A44201  22.952   2.745   7.055
 8947POPC   C4A44202  22.915   2.721   7.355
 8947POPC   C1B44203  23.100   3.016   6.455
 8947POPC   C2B44204  23.059   3.004   6.755
 8947POPC   C3B44205  23.077   3.009   7.055
 8947POPC   C4B44206  23.030   2.933   7.355
 8948POPC   NC344207  35.368  32.263   5.555
 8948POPC   PO444208  35.311  32.205   5.855
 8948POPC   GL144209  35.334  32.268   6.155
 8948POPC   GL244210  35.412  32.147   6.155
 8948POPC   C1A44211  35.316  32.201   6.455
 8948POPC   D2A44212  35.362  32.252   6.755
 8948POPC   C3A44213  35.336  32.254   7.055
 8948POPC   C4A44214  35.309  32.250   7.355
 8948POPC   C1B44215  35.518  32.108   6.455
 8948POPC   C2B44216  35.585  32.073   6.755
 8948POPC   C3B44217  35.523  32.090   7.055
 8948POPC   C4B44218  35.560  32.139   7.355
 8949POPC   NC344219  25.226  39.966   5.555
 8949POPC   PO444220  25.263  40.035   5.855
 8949POPC   GL144221  25.231  40.023   6.155
 8949POPC   GL244222  25.100  40.001   6.155
 8949POPC   C1A44223  25.240  39.961   6.455
 8949POPC   D2A44224  25.216  40.013   6.755
 8949POPC   C3A44225  25.236  39.987   7.055
 8949POPC   C4A44226  25.292  40.042   7.355
 8949POPC   C1B44227  24.995  39.954   6.455
 8949POPC   C2B44228  24.973  39.999   6.755
 8949POPC   C3B44229  25.018  39.987   7.055
 8949POPC   C4B44230  25.003  39.967   7.355
 8950POPC   NC344231   3.545  40.773   5.555
 8950POPC   PO444232   3.544  40.746   5.855
 8950POPC   GL144233   3.577  40.747   6.155
 8950POPC   GL244234   3.625  40.741   6.155
 8950POPC   C1A44235   3.497  40.764   6.455
 8950POPC   D2A44236   3.538  40.752   6.755
 8950POPC   C3A44237   3.585  40.793   7.055
 8950POPC   C4A44238   3.549  40.776   7.355
 8950POPC   C1B44239   3.760  40.839   6.455
 8950POPC   C2B44240   3.770  40.768   6.755
 8950POPC   C3B44241   3.796  40.759   7.055
 8950POPC   C4B44242   3.839  40.825   7.355
 8951POPC   NC344243  23.668  26.805   5.555
 8951POPC   PO444244  23.732  26.823   5.855
 8951POPC   GL144245  23.669  26.774   6.155
 8951POPC   GL244246  23.624  26.894   6.155
 8951POPC   C1A44247  23.762  26.779   6.455
 8951POPC   D2A44248  23.732  26.787   6.755
 8951POPC   C3A44249  23.680  26.856   7.055
 8951POPC   C4A44250  23.735  26.800   7.355
 8951POPC   C1B44251  23.579  27.093   6.455
 8951POPC   C2B44252  23.654  27.047   6.755
 8951POPC   C3B44253  23.664  27.037   7.055
 8951POPC   C4B44254  23.609  27.064   7.355
 8952POPC   NC344255   2.752  35.390   5.555
 8952POPC   PO444256   2.789  35.344   5.855
 8952POPC   GL144257   2.735  35.362   6.155
 8952POPC   GL244258   2.702  35.436   6.155
 8952POPC   C1A44259   2.780  35.337   6.455
 8952POPC   D2A44260   2.766  35.326   6.755
 8952POPC   C3A44261   2.762  35.355   7.055
 8952POPC   C4A44262   2.809  35.326   7.355
 8952POPC   C1B44263   2.608  35.588   6.455
 8952POPC   C2B44264   2.670  35.554   6.755
 8952POPC   C3B44265   2.653  35.611   7.055
 8952POPC   C4B44266   2.621  35.588   7.355
 8953POPC   NC344267  39.217  43.841   5.555
 8953POPC   PO444268  39.242  43.894   5.855
 8953POPC   GL144269  39.189  43.852   6.155
 8953POPC   GL244270  39.351  43.819   6.155
 8953POPC   C1A44271  39.250  43.889   6.455
 8953POPC   D2A44272  39.257  43.877   6.755
 8953POPC   C3A44273  39.252  43.872   7.055
 8953POPC   C4A44274  39.265  43.879   7.355
 8953POPC   C1B44275  39.443  43.797   6.455
 8953POPC   C2B44276  39.429  43.843   6.755
 8953POPC   C3B44277  39.494  43.813   7.055
 8953POPC   C4B44278  39.469  43.807   7.355
 8954POPC   NC344279  24.456  36.161   5.555
 8954POPC   PO444280  24.448  36.086   5.855
 8954POPC   GL144281  24.484  36.162   6.155
 8954POPC   GL244282  24.504  36.037   6.155
 8954POPC   C1A44283  24.472  36.086   6.455
 8954POPC   D2A44284  24.510  36.103   6.755
 8954POPC   C3A44285  24.539  36.140   7.055
 8954POPC   C4A44286  24.534  36.177   7.355
 8954POPC   C1B44287  24.455  35.840   6.455
 8954POPC   C2B44288  24.438  35.909   6.755
 8954POPC   C3B44289  24.457  35.884   7.055
 8954POPC   C4B44290  24.495  35.853   7.355
 8955POPC   NC344291  40.747  43.858   5.555
 8955POPC   PO444292  40.772  43.930   5.855
 8955POPC   GL144293  40.792  43.848   6.155
 8955POPC   GL244294  40.830  43.730   6.155
 8955POPC   C1A44295  40.792  43.862   6.455
 8955POPC   D2A44296  40.756  43.872   6.755
 8955POPC   C3A44297  40.774  43.917   7.055
 8955POPC   C4A44298  40.779  43.883   7.355
 8955POPC   C1B44299  40.926  43.673   6.455
 8955POPC   C2B44300  40.849  43.652   6.755
 8955POPC   C3B44301  40.863  43.626   7.055
 8955POPC   C4B44302  40.915  43.710   7.355
 8956POPC   NC344303   5.820   1.256   5.555
 8956POPC   PO444304   5.856   1.166   5.855
 8956POPC   GL144305   5.890   1.263   6.155
 8956POPC   GL244306   5.940   1.157   6.155
 8956POPC   C1A44307   5.870   1.192   6.455
 8956POPC   D2A44308   5.846   1.180   6.755
 8956POPC   C3A44309   5.889   1.262   7.055
 8956POPC   C4A44310   5.867   1.221   7.355
 8956POPC   C1B44311   5.998   1.039   6.455
 8956POPC   C2B44312   5.970   1.048   6.755
 8956POPC   C3B44313   6.043   0.985   7.055
 8956POPC   C4B44314   6.016   1.033   7.355
 8957POPC   NC344315   1.955  26.798   5.555
 8957POPC   PO444316   1.957  26.866   5.855
 8957POPC   GL144317   2.023  26.772   6.155
 8957POPC   GL244318   2.106  26.805   6.155
 8957POPC   C1A44319   1.993  26.816   6.455
 8957POPC   D2A44320   2.022  26.815   6.755
 8957POPC   C3A44321   1.967  26.850   7.055
 8957POPC   C4A44322   2.024  26.812   7.355
 8957POPC   C1B44323   2.259  26.726   6.455
 8957POPC   C2B44324   2.215  26.725   6.755
 8957POPC   C3B44325   2.223  26.741   7.055
 8957POPC   C4B44326   2.187  26.702   7.355
 8958POPC   NC344327  16.724   1.210   5.555
 8958POPC   PO444328  16.770   1.220   5.855
 8958POPC   GL144329  16.737   1.220   6.155
 8958POPC   GL244330  16.800   1.228   6.155
 8958POPC   C1A44331  16.698   1.182   6.455
 8958POPC   D2A44332  16.766   1.198   6.755
 8958POPC   C3A44333  16.761   1.237   7.055
 8958POPC   C4A44334  16.694   1.222   7.355
 8958POPC   C1B44335  17.005   1.329   6.455
 8958POPC   C2B44336  16.972   1.280   6.755
 8958POPC   C3B44337  16.974   1.289   7.055
 8958POPC   C4B44338  16.947   1.285   7.355
 8959POPC   NC344339  27.596  40.748   5.555
 8959POPC   PO444340  27.587  40.801   5.855
 8959POPC   GL144341  27.546  40.734   6.155
 8959POPC   GL244342  27.503  40.833   6.155
 8959POPC   C1A44343  27.612  40.804   6.455
 8959POPC   D2A44344  27.607  40.810   6.755
 8959POPC   C3A44345  27.568  40.761   7.055
 8959POPC   C4A44346  27.617  40.784   7.355
 8959POPC   C1B44347  27.370  40.832   6.455
 8959POPC   C2B44348  27.358  40.859   6.755
 8959POPC   C3B44349  27.381  40.844   7.055
 8959POPC   C4B44350  27.331  40.893   7.355
 8960POPC   NC344351  33.030  40.013   5.555
 8960POPC   PO444352  33.017  40.036   5.855
 8960POPC   GL144353  33.057  40.011   6.155
 8960POPC   GL244354  32.965  39.899   6.155
 8960POPC   C1A44355  33.053  40.049   6.455
 8960POPC   D2A44356  33.037  40.021   6.755
 8960POPC   C3A44357  33.055  40.057   7.055
 8960POPC   C4A44358  33.023  39.965   7.355
 8960POPC   C1B44359  32.859  39.786   6.455
 8960POPC   C2B44360  32.840  39.808   6.755
 8960POPC   C3B44361  32.878  39.836   7.055
 8960POPC   C4B44362  32.876  39.790   7.355
 8961POPC   NC344363   5.903  43.087   5.555
 8961POPC   PO444364   5.852  43.100   5.855
 8961POPC   GL144365   5.857  43.154   6.155
 8961POPC   GL244366   6.009  43.135   6.155
 8961POPC   C1A44367   5.829  43.153   6.455
 8961POPC   D2A44368   5.850  43.102   6.755
 8961POPC   C3A44369   5.819  43.061   7.055
 8961POPC   C4A44370   5.910  43.131   7.355
 8961POPC   C1B44371   6.079  43.174   6.455
 8961POPC   C2B44372   6.119  43.223   6.755
 8961POPC   C3B44373   6.095  43.215   7.055
 8961POPC   C4B44374   6.117  43.248   7.355
 8962POPC   NC344375  38.450  21.382   5.555
 8962POPC   PO444376  38.446  21.416   5.855
 8962POPC   GL144377  38.422  21.407   6.155
 8962POPC   GL244378  38.379  21.340   6.155
 8962POPC   C1A44379  38.440  21.403   6.455
 8962POPC   D2A44380  38.435  21.414   6.755
 8962POPC   C3A44381  38.477  21.352   7.055
 8962POPC   C4A44382  38.422  21.377   7.355
 8962POPC   C1B44383  38.237  21.249   6.455
 8962POPC   C2B44384  38.253  21.258   6.755
 8962POPC   C3B44385  38.311  21.233   7.055
 8962POPC   C4B44386  38.292  21.217   7.355
 8963POPC   NC344387  34.591   8.201   5.555
 8963POPC   PO444388  34.596   8.209   5.855
 8963POPC   GL144389  34.590   8.180   6.155
 8963POPC   GL244390  34.540   8.283   6.155
 8963POPC   C1A44391  34.556   8.154   6.455
 8963POPC   D2A44392  34.626   8.152   6.755
 8963POPC   C3A44393  34.613   8.162   7.055
 8963POPC   C4A44394  34.563   8.230   7.355
 8963POPC   C1B44395  34.486   8.427   6.455
 8963POPC   C2B44396  34.445   8.431   6.755
 8963POPC   C3B44397  34.522   8.413   7.055
 8963POPC   C4B44398  34.428   8.423   7.355
 8964POPC   NC344399   1.171  20.621   5.555
 8964POPC   PO444400   1.229  20.570   5.855
 8964POPC   GL144401   1.194  20.601   6.155
 8964POPC   GL244402   1.345  20.608   6.155
 8964POPC   C1A44403   1.250  20.593   6.455
 8964POPC   D2A44404   1.181  20.622   6.755
 8964POPC   C3A44405   1.191  20.591   7.055
 8964POPC   C4A44406   1.178  20.634   7.355
 8964POPC   C1B44407   1.442  20.629   6.455
 8964POPC   C2B44408   1.491  20.591   6.755
 8964POPC   C3B44409   1.431  20.671   7.055
 8964POPC   C4B44410   1.496  20.639   7.355
 8965POPC   NC344411  15.190  43.854   5.555
 8965POPC   PO444412  15.133  43.932   5.855
 8965POPC   GL144413  15.206  43.886   6.155
 8965POPC   GL244414  15.116  43.994   6.155
 8965POPC   C1A44415  15.163  43.895   6.455
 8965POPC   D2A44416  15.222  43.866   6.755
 8965POPC   C3A44417  15.157  43.893   7.055
 8965POPC   C4A44418  15.207  43.895   7.355
 8965POPC   C1B44419  15.003  44.106   6.455
 8965POPC   C2B44420  15.068  44.057   6.755
 8965POPC   C3B44421  15.020  44.086   7.055
 8965POPC   C4B44422  14.992  44.055   7.355
 8966POPC   NC344423  19.108   0.400   5.555
 8966POPC   PO444424  19.034   0.411   5.855
 8966POPC   GL144425  19.068   0.454   6.155
 8966POPC   GL244426  19.211   0.537   6.155
 8966POPC   C1A44427  19.071   0.453   6.455
 8966POPC   D2A44428  19.066   0.391   6.755
 8966POPC   C3A44429  19.039   0.468   7.055
 8966POPC   C4A44430  19.024   0.486   7.355
 8966POPC   C1B44431  19.224   0.582   6.455
 8966POPC   C2B44432  19.279   0.546   6.755
 8966POPC   C3B44433  19.301   0.532   7.055
 8966POPC   C4B44434  19.288   0.618   7.355
 8967POPC   NC344435   3.510   1.205   5.555
 8967POPC   PO444436   3.512   1.261   5.855
 8967POPC   GL144437   3.563   1.179   6.155
 8967POPC   GL244438   3.648   1.310   6.155
 8967POPC   C1A44439   3.587   1.192   6.455
 8967POPC   D2A44440   3.570   1.191   6.755
 8967POPC   C3A44441   3.523   1.242   7.055
 8967POPC   C4A44442   3.530   1.173   7.355
 8967POPC   C1B44443   3.791   1.268   6.455
 8967POPC   C2B44444   3.811   1.354   6.755
 8967POPC   C3B44445   3.766   1.275   7.055
 8967POPC   C4B44446   3.761   1.328   7.355
 8968POPC   NC344447  23.665  31.464   5.555
 8968POPC   PO444448  23.725  31.475   5.855
 8968POPC   GL144449  23.736  31.434   6.155
 8968POPC   GL244450  23.879  31.476   6.155
 8968POPC   C1A44451  23.718  31.495   6.455
 8968POPC   D2A44452  23.763  31.481   6.755
 8968POPC   C3A44453  23.672  31.491   7.055
 8968POPC   C4A44454  23.675  31.449   7.355
 8968POPC   C1B44455  23.951  31.446   6.455
 8968POPC   C2B44456  23.906  31.431   6.755
 8968POPC   C3B44457  23.910  31.449   7.055
 8968POPC   C4B44458  23.927  31.387   7.355
 8969POPC   NC344459  38.488  41.539   5.555
 8969POPC   PO444460  38.488  41.590   5.855
 8969POPC   GL144461  38.465  41.520   6.155
 8969POPC   GL244462  38.508  41.410   6.155
 8969POPC   C1A44463  38.470  41.549   6.455
 8969POPC   D2A44464  38.493  41.583   6.755
 8969POPC   C3A44465  38.457  41.519   7.055
 8969POPC   C4A44466  38.437  41.546   7.355
 8969POPC   C1B44467  38.554  41.316   6.455
 8969POPC   C2B44468  38.579  41.379   6.755
 8969POPC   C3B44469  38.537  41.348   7.055
 8969POPC   C4B44470  38.554  41.352   7.355
 8970POPC   NC344471  22.197  14.429   5.555
 8970POPC   PO444472  22.196  14.370   5.855
 8970POPC   GL144473  22.141  14.411   6.155
 8970POPC   GL244474  22.329  14.434   6.155
 8970POPC   C1A44475  22.147  14.415   6.455
 8970POPC   D2A44476  22.164  14.384   6.755
 8970POPC   C3A44477  22.181  14.449   7.055
 8970POPC   C4A44478  22.152  14.407   7.355
 8970POPC   C1B44479  22.377  14.352   6.455
 8970POPC   C2B44480  22.411  14.371   6.755
 8970POPC   C3B44481  22.401  14.406   7.055
 8970POPC   C4B44482  22.380  14.405   7.355
 8971POPC   NC344483  43.077  25.293   5.555
 8971POPC   PO444484  43.113  25.224   5.855
 8971POPC   GL144485  43.066  25.243   6.155
 8971POPC   GL244486  43.088  25.163   6.155
 8971POPC   C1A44487  43.148  25.216   6.455
 8971POPC   D2A44488  43.111  25.291   6.755
 8971POPC   C3A44489  43.149  25.308   7.055
 8971POPC   C4A44490  43.106  25.291   7.355
 8971POPC   C1B44491  43.031  25.081   6.455
 8971POPC   C2B44492  43.053  25.045   6.755
 8971POPC   C3B44493  42.972  25.012   7.055
 8971POPC   C4B44494  43.049  25.066   7.355
 8972POPC   NC344495  19.077  19.875   5.555
 8972POPC   PO444496  19.080  19.847   5.855
 8972POPC   GL144497  19.097  19.792   6.155
 8972POPC   GL244498  19.105  19.953   6.155
 8972POPC   C1A44499  19.039  19.831   6.455
 8972POPC   D2A44500  19.037  19.792   6.755
 8972POPC   C3A44501  19.095  19.787   7.055
 8972POPC   C4A44502  19.025  19.797   7.355
 8972POPC   C1B44503  19.202  20.044   6.455
 8972POPC   C2B44504  19.276  20.035   6.755
 8972POPC   C3B44505  19.281  20.033   7.055
 8972POPC   C4B44506  19.241  19.981   7.355
 8973POPC   NC344507  28.377  42.310   5.555
 8973POPC   PO444508  28.360  42.305   5.855
 8973POPC   GL144509  28.385  42.383   6.155
 8973POPC   GL244510  28.248  42.397   6.155
 8973POPC   C1A44511  28.331  42.340   6.455
 8973POPC   D2A44512  28.327  42.331   6.755
 8973POPC   C3A44513  28.341  42.325   7.055
 8973POPC   C4A44514  28.413  42.296   7.355
 8973POPC   C1B44515  28.132  42.481   6.455
 8973POPC   C2B44516  28.124  42.429   6.755
 8973POPC   C3B44517  28.192  42.471   7.055
 8973POPC   C4B44518  28.168  42.444   7.355
 8974POPC   NC344519   9.022  21.381   5.555
 8974POPC   PO444520   9.007  21.413   5.855
 8974POPC   GL144521   8.959  21.343   6.155
 8974POPC   GL244522   8.990  21.503   6.155
 8974POPC   C1A44523   8.976  21.346   6.455
 8974POPC   D2A44524   8.997  21.344   6.755
 8974POPC   C3A44525   8.987  21.425   7.055
 8974POPC   C4A44526   8.936  21.379   7.355
 8974POPC   C1B44527   8.965  21.654   6.455
 8974POPC   C2B44528   9.003  21.657   6.755
 8974POPC   C3B44529   8.967  21.664   7.055
 8974POPC   C4B44530   8.938  21.663   7.355
 8975POPC   NC344531   0.409   7.437   5.555
 8975POPC   PO444532   0.479   7.402   5.855
 8975POPC   GL144533   0.429   7.396   6.155
 8975POPC   GL244534   0.414   7.328   6.155
 8975POPC   C1A44535   0.449   7.443   6.455
 8975POPC   D2A44536   0.443   7.470   6.755
 8975POPC   C3A44537   0.407   7.426   7.055
 8975POPC   C4A44538   0.475   7.450   7.355
 8975POPC   C1B44539   0.504   7.212   6.455
 8975POPC   C2B44540   0.484   7.184   6.755
 8975POPC   C3B44541   0.484   7.144   7.055
 8975POPC   C4B44542   0.477   7.144   7.355
 8976POPC   NC344543   0.433  10.573   5.555
 8976POPC   PO444544   0.482  10.524   5.855
 8976POPC   GL144545   0.440  10.558   6.155
 8976POPC   GL244546   0.505  10.537   6.155
 8976POPC   C1A44547   0.473  10.547   6.455
 8976POPC   D2A44548   0.478  10.555   6.755
 8976POPC   C3A44549   0.438  10.543   7.055
 8976POPC   C4A44550   0.410  10.504   7.355
 8976POPC   C1B44551   0.644  10.685   6.455
 8976POPC   C2B44552   0.650  10.669   6.755
 8976POPC   C3B44553   0.673  10.611   7.055
 8976POPC   C4B44554   0.660  10.595   7.355
 8977POPC   NC344555  18.290  29.939   5.555
 8977POPC   PO444556  18.249  29.897   5.855
 8977POPC   GL144557  18.245  29.898   6.155
 8977POPC   GL244558  18.175  29.878   6.155
 8977POPC   C1A44559  18.296  29.953   6.455
 8977POPC   D2A44560  18.288  29.968   6.755
 8977POPC   C3A44561  18.297  29.902   7.055
 8977POPC   C4A44562  18.278  29.921   7.355
 8977POPC   C1B44563  18.107  29.737   6.455
 8977POPC   C2B44564  18.106  29.756   6.755
 8977POPC   C3B44565  18.097  29.778   7.055
 8977POPC   C4B44566  18.070  29.739   7.355
 8978POPC   NC344567  21.435  38.498   5.555
 8978POPC   PO444568  21.363  38.503   5.855
 8978POPC   GL144569  21.339  38.502   6.155
 8978POPC   GL244570  21.444  38.540   6.155
 8978POPC   C1A44571  21.365  38.456   6.455
 8978POPC   D2A44572  21.404  38.497   6.755
 8978POPC   C3A44573  21.360  38.441   7.055
 8978POPC   C4A44574  21.397  38.421   7.355
 8978POPC   C1B44575  21.493  38.647   6.455
 8978POPC   C2B44576  21.585  38.617   6.755
 8978POPC   C3B44577  21.524  38.611   7.055
 8978POPC   C4B44578  21.559  38.643   7.355
 8979POPC   NC344579   2.037  16.001   5.555
 8979POPC   PO444580   1.954  15.923   5.855
 8979POPC   GL144581   1.977  15.969   6.155
 8979POPC   GL244582   1.908  15.989   6.155
 8979POPC   C1A44583   2.022  15.993   6.455
 8979POPC   D2A44584   1.979  15.923   6.755
 8979POPC   C3A44585   1.990  15.908   7.055
 8979POPC   C4A44586   2.005  15.991   7.355
 8979POPC   C1B44587   1.776  16.113   6.455
 8979POPC   C2B44588   1.813  16.079   6.755
 8979POPC   C3B44589   1.806  16.054   7.055
 8979POPC   C4B44590   1.759  16.121   7.355
 8980POPC   NC344591  12.862   5.058   5.555
 8980POPC   PO444592  12.833   5.087   5.855
 8980POPC   GL144593  12.837   5.142   6.155
 8980POPC   GL244594  12.922   5.043   6.155
 8980POPC   C1A44595  12.892   5.110   6.455
 8980POPC   D2A44596  12.858   5.107   6.755
 8980POPC   C3A44597  12.815   5.054   7.055
 8980POPC   C4A44598  12.843   5.112   7.355
 8980POPC   C1B44599  13.003   4.953   6.455
 8980POPC   C2B44600  13.030   4.914   6.755
 8980POPC   C3B44601  13.089   4.895   7.055
 8980POPC   C4B44602  13.070   4.928   7.355
 8981POPC   NC344603  37.673  35.371   5.555
 8981POPC   PO444604  37.684  35.401   5.855
 8981POPC   GL144605  37.704  35.386   6.155
 8981POPC   GL244606  37.746  35.485   6.155
 8981POPC   C1A44607  37.676  35.393   6.455
 8981POPC   D2A44608  37.672  35.347   6.755
 8981POPC   C3A44609  37.686  35.393   7.055
 8981POPC   C4A44610  37.727  35.303   7.355
 8981POPC   C1B44611  37.764  35.541   6.455
 8981POPC   C2B44612  37.784  35.549   6.755
 8981POPC   C3B44613  37.717  35.584   7.055
 8981POPC   C4B44614  37.724  35.609   7.355
 8982POPC   NC344615  27.640  15.192   5.555
 8982POPC   PO444616  27.602  15.142   5.855
 8982POPC   GL144617  27.561  15.224   6.155
 8982POPC   GL244618  27.593  15.340   6.155
 8982POPC   C1A44619  27.612  15.141   6.455
 8982POPC   D2A44620  27.607  15.138   6.755
 8982POPC   C3A44621  27.562  15.165   7.055
 8982POPC   C4A44622  27.596  15.138   7.355
 8982POPC   C1B44623  27.561  15.410   6.455
 8982POPC   C2B44624  27.486  15.416   6.755
 8982POPC   C3B44625  27.575  15.378   7.055
 8982POPC   C4B44626  27.539  15.453   7.355
 8983POPC   NC344627   4.340  39.187   5.555
 8983POPC   PO444628   4.356  39.248   5.855
 8983POPC   GL144629   4.363  39.212   6.155
 8983POPC   GL244630   4.350  39.317   6.155
 8983POPC   C1A44631   4.269  39.276   6.455
 8983POPC   D2A44632   4.295  39.191   6.755
 8983POPC   C3A44633   4.322  39.255   7.055
 8983POPC   C4A44634   4.323  39.184   7.355
 8983POPC   C1B44635   4.399  39.442   6.455
 8983POPC   C2B44636   4.355  39.520   6.755
 8983POPC   C3B44637   4.396  39.508   7.055
 8983POPC   C4B44638   4.373  39.492   7.355
 8984POPC   NC344639   4.306  29.111   5.555
 8984POPC   PO444640   4.301  29.138   5.855
 8984POPC   GL144641   4.297  29.125   6.155
 8984POPC   GL244642   4.294  29.012   6.155
 8984POPC   C1A44643   4.317  29.117   6.455
 8984POPC   D2A44644   4.285  29.096   6.755
 8984POPC   C3A44645   4.355  29.122   7.055
 8984POPC   C4A44646   4.305  29.123   7.355
 8984POPC   C1B44647   4.322  28.938   6.455
 8984POPC   C2B44648   4.327  28.877   6.755
 8984POPC   C3B44649   4.304  28.859   7.055
 8984POPC   C4B44650   4.311  28.918   7.355
 8985POPC   NC344651  17.500  18.268   5.555
 8985POPC   PO444652  17.479  18.304   5.855
 8985POPC   GL144653  17.460  18.314   6.155
 8985POPC   GL244654  17.597  18.199   6.155
 8985POPC   C1A44655  17.536  18.275   6.455
 8985POPC   D2A44656  17.495  18.291   6.755
 8985POPC   C3A44657  17.482  18.302   7.055
 8985POPC   C4A44658  17.458  18.261   7.355
 8985POPC   C1B44659  17.724  18.250   6.455
 8985POPC   C2B44660  17.760  18.212   6.755
 8985POPC   C3B44661  17.783  18.230   7.055
 8985POPC   C4B44662  17.782  18.224   7.355
 8986POPC   NC344663  40.755   3.512   5.555
 8986POPC   PO444664  40.802   3.540   5.855
 8986POPC   GL144665  40.828   3.542   6.155
 8986POPC   GL244666  40.865   3.407   6.155
 8986POPC   C1A44667  40.767   3.561   6.455
 8986POPC   D2A44668  40.778   3.505   6.755
 8986POPC   C3A44669  40.804   3.520   7.055
 8986POPC   C4A44670  40.832   3.561   7.355
 8986POPC   C1B44671  40.853   3.303   6.455
 8986POPC   C2B44672  40.869   3.268   6.755
 8986POPC   C3B44673  40.919   3.318   7.055
 8986POPC   C4B44674  40.863   3.273   7.355
 8987POPC   NC344675   2.788  16.732   5.555
 8987POPC   PO444676   2.750  16.751   5.855
 8987POPC   GL144677   2.782  16.764   6.155
 8987POPC   GL244678   2.804  16.576   6.155
 8987POPC   C1A44679   2.785  16.741   6.455
 8987POPC   D2A44680   2.814  16.750   6.755
 8987POPC   C3A44681   2.760  16.763   7.055
 8987POPC   C4A44682   2.801  16.764   7.355
 8987POPC   C1B44683   2.725  16.476   6.455
 8987POPC   C2B44684   2.751  16.527   6.755
 8987POPC   C3B44685   2.733  16.531   7.055
 8987POPC   C4B44686   2.713  16.521   7.355
 8988POPC   NC344687  39.237   0.434   5.555
 8988POPC   PO444688  39.214   0.447   5.855
 8988POPC   GL144689  39.255   0.403   6.155
 8988POPC   GL244690  39.116   0.394   6.155
 8988POPC   C1A44691  39.196   0.470   6.455
 8988POPC   D2A44692  39.280   0.445   6.755
 8988POPC   C3A44693  39.253   0.482   7.055
 8988POPC   C4A44694  39.231   0.468   7.355
 8988POPC   C1B44695  39.013   0.394   6.455
 8988POPC   C2B44696  38.964   0.389   6.755
 8988POPC   C3B44697  39.007   0.355   7.055
 8988POPC   C4B44698  38.963   0.373   7.355
 8989POPC   NC344699  34.621  29.932   5.555
 8989POPC   PO444700  34.600  29.897   5.855
 8989POPC   GL144701  34.543  29.959   6.155
 8989POPC   GL244702  34.523  30.011   6.155
 8989POPC   C1A44703  34.538  29.878   6.455
 8989POPC   D2A44704  34.585  29.938   6.755
 8989POPC   C3A44705  34.564  29.949   7.055
 8989POPC   C4A44706  34.601  29.931   7.355
 8989POPC   C1B44707  34.480  30.152   6.455
 8989POPC   C2B44708  34.487  30.196   6.755
 8989POPC   C3B44709  34.477  30.175   7.055
 8989POPC   C4B44710  34.431  30.162   7.355
 8990POPC   NC344711  42.364   9.739   5.555
 8990POPC   PO444712  42.317   9.702   5.855
 8990POPC   GL144713  42.364   9.755   6.155
 8990POPC   GL244714  42.251   9.841   6.155
 8990POPC   C1A44715  42.312   9.721   6.455
 8990POPC   D2A44716  42.338   9.723   6.755
 8990POPC   C3A44717  42.325   9.727   7.055
 8990POPC   C4A44718  42.318   9.798   7.355
 8990POPC   C1B44719  42.100   9.875   6.455
 8990POPC   C2B44720  42.140   9.848   6.755
 8990POPC   C3B44721  42.103   9.882   7.055
 8990POPC   C4B44722  42.078   9.912   7.355
 8991POPC   NC344723   0.405  43.926   5.555
 8991POPC   PO444724   0.441  43.904   5.855
 8991POPC   GL144725   0.405  43.934   6.155
 8991POPC   GL244726   0.567  43.835   6.155
 8991POPC   C1A44727   0.482  43.886   6.455
 8991POPC   D2A44728   0.484  43.900   6.755
 8991POPC   C3A44729   0.455  43.865   7.055
 8991POPC   C4A44730   0.417  43.864   7.355
 8991POPC   C1B44731   0.684  43.789   6.455
 8991POPC   C2B44732   0.684  43.722   6.755
 8991POPC   C3B44733   0.652  43.706   7.055
 8991POPC   C4B44734   0.660  43.776   7.355
 8992POPC   NC344735  22.923  40.006   5.555
 8992POPC   PO444736  22.939  39.973   5.855
 8992POPC   GL144737  22.974  40.023   6.155
 8992POPC   GL244738  23.084  40.081   6.155
 8992POPC   C1A44739  22.927  39.980   6.455
 8992POPC   D2A44740  22.983  40.035   6.755
 8992POPC   C3A44741  22.937  40.021   7.055
 8992POPC   C4A44742  22.916  40.023   7.355
 8992POPC   C1B44743  23.168  40.120   6.455
 8992POPC   C2B44744  23.196  40.082   6.755
 8992POPC   C3B44745  23.184  40.083   7.055
 8992POPC   C4B44746  23.161  40.095   7.355
 8993POPC   NC344747   6.655  38.497   5.555
 8993POPC   PO444748   6.677  38.436   5.855
 8993POPC   GL144749   6.605  38.422   6.155
 8993POPC   GL244750   6.478  38.414   6.155
 8993POPC   C1A44751   6.648  38.410   6.455
 8993POPC   D2A44752   6.686  38.475   6.755
 8993POPC   C3A44753   6.614  38.417   7.055
 8993POPC   C4A44754   6.605  38.430   7.355
 8993POPC   C1B44755   6.426  38.381   6.455
 8993POPC   C2B44756   6.385  38.439   6.755
 8993POPC   C3B44757   6.442  38.428   7.055
 8993POPC   C4B44758   6.415  38.395   7.355
 8994POPC   NC344759  40.047  18.281   5.555
 8994POPC   PO444760  39.998  18.252   5.855
 8994POPC   GL144761  39.961  18.276   6.155
 8994POPC   GL244762  40.062  18.209   6.155
 8994POPC   C1A44763  39.985  18.257   6.455
 8994POPC   D2A44764  40.041  18.272   6.755
 8994POPC   C3A44765  39.995  18.277   7.055
 8994POPC   C4A44766  40.049  18.262   7.355
 8994POPC   C1B44767  40.197  18.163   6.455
 8994POPC   C2B44768  40.169  18.121   6.755
 8994POPC   C3B44769  40.159  18.117   7.055
 8994POPC   C4B44770  40.242  18.104   7.355
 8995POPC   NC344771  18.315  32.235   5.555
 8995POPC   PO444772  18.236  32.236   5.855
 8995POPC   GL144773  18.329  32.206   6.155
 8995POPC   GL244774  18.273  32.380   6.155
 8995POPC   C1A44775  18.254  32.208   6.455
 8995POPC   D2A44776  18.237  32.285   6.755
 8995POPC   C3A44777  18.241  32.259   7.055
 8995POPC   C4A44778  18.272  32.260   7.355
 8995POPC   C1B44779  18.324  32.509   6.455
 8995POPC   C2B44780  18.387  32.525   6.755
 8995POPC   C3B44781  18.350  32.472   7.055
 8995POPC   C4B44782  18.310  32.464   7.355
 8996POPC   NC344783  43.874   6.628   5.555
 8996POPC   PO444784  43.871   6.615   5.855
 8996POPC   GL144785  43.845   6.613   6.155
 8996POPC   GL244786  44.004   6.726   6.155
 8996POPC   C1A44787  43.849   6.621   6.455
 8996POPC   D2A44788  43.894   6.626   6.755
 8996POPC   C3A44789  43.852   6.644   7.055
 8996POPC   C4A44790  43.878   6.672   7.355
 8996POPC   C1B44791  44.074   6.843   6.455
 8996POPC   C2B44792  44.070   6.884   6.755
 8996POPC   C3B44793  44.075   6.824   7.055
 8996POPC   C4B44794  44.005   6.801   7.355
 8997POPC   NC344795  15.937   6.599   5.555
 8997POPC   PO444796  15.995   6.661   5.855
 8997POPC   GL144797  15.977   6.606   6.155
 8997POPC   GL244798  15.954   6.764   6.155
 8997POPC   C1A44799  15.996   6.660   6.455
 8997POPC   D2A44800  15.985   6.601   6.755
 8997POPC   C3A44801  16.001   6.683   7.055
 8997POPC   C4A44802  15.934   6.670   7.355
 8997POPC   C1B44803  15.980   6.884   6.455
 8997POPC   C2B44804  15.980   6.930   6.755
 8997POPC   C3B44805  15.996   6.876   7.055
 8997POPC   C4B44806  15.957   6.927   7.355
 8998POPC   NC344807  24.473  26.837   5.555
 8998POPC   PO444808  24.518  26.867   5.855
 8998POPC   GL144809  24.532  26.851   6.155
 8998POPC   GL244810  24.645  26.764   6.155
 8998POPC   C1A44811  24.473  26.825   6.455
 8998POPC   D2A44812  24.490  26.844   6.755
 8998POPC   C3A44813  24.523  26.783   7.055
 8998POPC   C4A44814  24.520  26.816   7.355
 8998POPC   C1B44815  24.742  26.844   6.455
 8998POPC   C2B44816  24.699  26.834   6.755
 8998POPC   C3B44817  24.783  26.768   7.055
 8998POPC   C4B44818  24.691  26.788   7.355
 8999POPC   NC344819  39.268  14.413   5.555
 8999POPC   PO444820  39.224  14.362   5.855
 8999POPC   GL144821  39.244  14.435   6.155
 8999POPC   GL244822  39.242  14.550   6.155
 8999POPC   C1A44823  39.241  14.422   6.455
 8999POPC   D2A44824  39.196  14.386   6.755
 8999POPC   C3A44825  39.271  14.353   7.055
 8999POPC   C4A44826  39.225  14.382   7.355
 8999POPC   C1B44827  39.263  14.683   6.455
 8999POPC   C2B44828  39.320  14.599   6.755
 8999POPC   C3B44829  39.294  14.649   7.055
 8999POPC   C4B44830  39.301  14.645   7.355
 9000POPC   NC344831  17.529   3.583   5.555
 9000POPC   PO444832  17.550   3.504   5.855
 9000POPC   GL144833  17.457   3.573   6.155
 9000POPC   GL244834  17.489   3.448   6.155
 9000POPC   C1A44835  17.474   3.523   6.455
 9000POPC   D2A44836  17.473   3.496   6.755
 9000POPC   C3A44837  17.471   3.525   7.055
 9000POPC   C4A44838  17.464   3.577   7.355
 9000POPC   C1B44839  17.539   3.312   6.455
 9000POPC   C2B44840  17.515   3.269   6.755
 9000POPC   C3B44841  17.571   3.253   7.055
 9000POPC   C4B44842  17.567   3.317   7.355
 9001POPC   NC344843  25.307  28.355   5.555
 9001POPC   PO444844  25.248  28.349   5.855
 9001POPC   GL144845  25.253  28.338   6.155
 9001POPC   GL244846  25.274  28.245   6.155
 9001POPC   C1A44847  25.267  28.381   6.455
 9001POPC   D2A44848  25.273  28.401   6.755
 9001POPC   C3A44849  25.221  28.349   7.055
 9001POPC   C4A44850  25.228  28.395   7.355
 9001POPC   C1B44851  25.273  28.172   6.455
 9001POPC   C2B44852  25.361  28.143   6.755
 9001POPC   C3B44853  25.277  28.166   7.055
 9001POPC   C4B44854  25.304  28.162   7.355
 9002POPC   NC344855  14.381  13.628   5.555
 9002POPC   PO444856  14.425  13.659   5.855
 9002POPC   GL144857  14.396  13.619   6.155
 9002POPC   GL244858  14.406  13.768   6.155
 9002POPC   C1A44859  14.453  13.631   6.455
 9002POPC   D2A44860  14.387  13.647   6.755
 9002POPC   C3A44861  14.382  13.661   7.055
 9002POPC   C4A44862  14.368  13.597   7.355
 9002POPC   C1B44863  14.426  13.843   6.455
 9002POPC   C2B44864  14.393  13.891   6.755
 9002POPC   C3B44865  14.400  13.828   7.055
 9002POPC   C4B44866  14.431  13.924   7.355
 9003POPC   NC344867  36.130   1.987   5.555
 9003POPC   PO444868  36.094   1.999   5.855
 9003POPC   GL144869  36.113   1.967   6.155
 9003POPC   GL244870  36.162   1.913   6.155
 9003POPC   C1A44871  36.115   1.971   6.455
 9003POPC   D2A44872  36.086   1.969   6.755
 9003POPC   C3A44873  36.121   2.030   7.055
 9003POPC   C4A44874  36.134   2.031   7.355
 9003POPC   C1B44875  36.292   1.809   6.455
 9003POPC   C2B44876  36.322   1.854   6.755
 9003POPC   C3B44877  36.308   1.804   7.055
 9003POPC   C4B44878  36.339   1.788   7.355
 9004POPC   NC344879  24.493   4.346   5.555
 9004POPC   PO444880  24.499   4.336   5.855
 9004POPC   GL144881  24.530   4.293   6.155
 9004POPC   GL244882  24.531   4.458   6.155
 9004POPC   C1A44883  24.515   4.294   6.455
 9004POPC   D2A44884  24.531   4.343   6.755
 9004POPC   C3A44885  24.445   4.316   7.055
 9004POPC   C4A44886  24.476   4.271   7.355
 9004POPC   C1B44887  24.554   4.591   6.455
 9004POPC   C2B44888  24.545   4.588   6.755
 9004POPC   C3B44889  24.540   4.578   7.055
 9004POPC   C4B44890  24.575   4.514   7.355
 9005POPC   NC344891   1.181  15.135   5.555
 9005POPC   PO444892   1.225  15.140   5.855
 9005POPC   GL144893   1.262  15.173   6.155
 9005POPC   GL244894   1.095  15.165   6.155
 9005POPC   C1A44895   1.245  15.168   6.455
 9005POPC   D2A44896   1.222  15.159   6.755
 9005POPC   C3A44897   1.176  15.139   7.055
 9005POPC   C4A44898   1.249  15.212   7.355
 9005POPC   C1B44899   0.936  15.095   6.455
 9005POPC   C2B44900   0.930  15.165   6.755
 9005POPC   C3B44901   0.988  15.111   7.055
 9005POPC   C4B44902   0.976  15.114   7.355
 9006POPC   NC344903  12.890  39.964   5.555
 9006POPC   PO444904  12.810  40.043   5.855
 9006POPC   GL144905  12.816  40.012   6.155
 9006POPC   GL244906  12.823  39.863   6.155
 9006POPC   C1A44907  12.868  39.978   6.455
 9006POPC   D2A44908  12.859  40.014   6.755
 9006POPC   C3A44909  12.865  40.047   7.055
 9006POPC   C4A44910  12.856  40.032   7.355
 9006POPC   C1B44911  12.760  39.777   6.455
 9006POPC   C2B44912  12.785  39.793   6.755
 9006POPC   C3B44913  12.717  39.745   7.055
 9006POPC   C4B44914  12.788  39.784   7.355
 9007POPC   NC344915  42.288   5.879   5.555
 9007POPC   PO444916  42.311   5.842   5.855
 9007POPC   GL144917  42.367   5.839   6.155
 9007POPC   GL244918  42.272   5.727   6.155
 9007POPC   C1A44919  42.379   5.875   6.455
 9007POPC   D2A44920  42.323   5.887   6.755
 9007POPC   C3A44921  42.334   5.892   7.055
 9007POPC   C4A44922  42.305   5.830   7.355
 9007POPC   C1B44923  42.253   5.675   6.455
 9007POPC   C2B44924  42.272   5.609   6.755
 9007POPC   C3B44925  42.295   5.639   7.055
 9007POPC   C4B44926  42.254   5.598   7.355
 9008POPC   NC344927  37.718  44.699   5.555
 9008POPC   PO444928  37.680  44.653   5.855
 9008POPC   GL144929  37.681  44.686   6.155
 9008POPC   GL244930  37.753  44.541   6.155
 9008POPC   C1A44931  37.639  44.687   6.455
 9008POPC   D2A44932  37.667  44.634   6.755
 9008POPC   C3A44933  37.694  44.679   7.055
 9008POPC   C4A44934  37.653  44.697   7.355
 9008POPC   C1B44935  37.707  44.385   6.455
 9008POPC   C2B44936  37.731  44.402   6.755
 9008POPC   C3B44937  37.763  44.409   7.055
 9008POPC   C4B44938  37.785  44.451   7.355
 9009POPC   NC344939  14.354  17.466   5.555
 9009POPC   PO444940  14.415  17.476   5.855
 9009POPC   GL144941  14.372  17.523   6.155
 9009POPC   GL244942  14.520  17.597   6.155
 9009POPC   C1A44943  14.402  17.460   6.455
 9009POPC   D2A44944  14.371  17.500   6.755
 9009POPC   C3A44945  14.356  17.462   7.055
 9009POPC   C4A44946  14.382  17.519   7.355
 9009POPC   C1B44947  14.555  17.691   6.455
 9009POPC   C2B44948  14.556  17.703   6.755
 9009POPC   C3B44949  14.574  17.642   7.055
 9009POPC   C4B44950  14.587  17.639   7.355
 9010POPC   NC344951   8.987  18.282   5.555
 9010POPC   PO444952   8.955  18.326   5.855
 9010POPC   GL144953   8.932  18.237   6.155
 9010POPC   GL244954   9.064  18.263   6.155
 9010POPC   C1A44955   9.022  18.310   6.455
 9010POPC   D2A44956   8.962  18.314   6.755
 9010POPC   C3A44957   8.952  18.303   7.055
 9010POPC   C4A44958   8.953  18.315   7.355
 9010POPC   C1B44959   9.244  18.310   6.455
 9010POPC   C2B44960   9.227  18.303   6.755
 9010POPC   C3B44961   9.268  18.281   7.055
 9010POPC   C4B44962   9.268  18.356   7.355
 9011POPC   NC344963  36.937  38.438   5.555
 9011POPC   PO444964  36.947  38.414   5.855
 9011POPC   GL144965  36.888  38.473   6.155
 9011POPC   GL244966  36.980  38.337   6.155
 9011POPC   C1A44967  36.867  38.422   6.455
 9011POPC   D2A44968  36.870  38.432   6.755
 9011POPC   C3A44969  36.854  38.431   7.055
 9011POPC   C4A44970  36.939  38.490   7.355
 9011POPC   C1B44971  36.979  38.225   6.455
 9011POPC   C2B44972  36.988  38.238   6.755
 9011POPC   C3B44973  36.990  38.207   7.055
 9011POPC   C4B44974  37.021  38.238   7.355
 9012POPC   NC344975   8.997   8.992   5.555
 9012POPC   PO444976   8.923   8.961   5.855
 9012POPC   GL144977   9.001   8.948   6.155
 9012POPC   GL244978   8.914   9.078   6.155
 9012POPC   C1A44979   8.926   9.008   6.455
 9012POPC   D2A44980   8.933   9.012   6.755
 9012POPC   C3A44981   8.952   8.936   7.055
 9012POPC   C4A44982   8.954   8.970   7.355
 9012POPC   C1B44983   8.733   9.111   6.455
 9012POPC   C2B44984   8.720   9.060   6.755
 9012POPC   C3B44985   8.782   9.063   7.055
 9012POPC   C4B44986   8.798   9.096   7.355
 9013POPC   NC344987  35.357  33.832   5.555
 9013POPC   PO444988  35.377  33.802   5.855
 9013POPC   GL144989  35.365  33.836   6.155
 9013POPC   GL244990  35.344  33.874   6.155
 9013POPC   C1A44991  35.396  33.800   6.455
 9013POPC   D2A44992  35.395  33.836   6.755
 9013POPC   C3A44993  35.348  33.768   7.055
 9013POPC   C4A44994  35.362  33.811   7.355
 9013POPC   C1B44995  35.411  34.039   6.455
 9013POPC   C2B44996  35.375  34.022   6.755
 9013POPC   C3B44997  35.369  34.034   7.055
 9013POPC   C4B44998  35.444  34.053   7.355
 9014POPC   NC344999  32.265  30.730   5.555
 9014POPC   PO445000  32.295  30.699   5.855
 9014POPC   GL145001  32.226  30.709   6.155
 9014POPC   GL245002  32.346  30.707   6.155
 9014POPC   C1A45003  32.253  30.731   6.455
 9014POPC   D2A45004  32.201  30.658   6.755
 9014POPC   C3A45005  32.211  30.666   7.055
 9014POPC   C4A45006  32.220  30.668   7.355
 9014POPC   C1B45007  32.493  30.773   6.455
 9014POPC   C2B45008  32.474  30.807   6.755
 9014POPC   C3B45009  32.449  30.845   7.055
 9014POPC   C4B45010  32.431  30.839   7.355
 9015POPC   NC345011  12.859  36.938   5.555
 9015POPC   PO445012  12.836  36.871   5.855
 9015POPC   GL145013  12.869  36.902   6.155
 9015POPC   GL245014  13.010  36.909   6.155
 9015POPC   C1A45015  12.802  36.927   6.455
 9015POPC   D2A45016  12.840  36.935   6.755
 9015POPC   C3A45017  12.898  36.881   7.055
 9015POPC   C4A45018  12.889  36.934   7.355
 9015POPC   C1B45019  13.118  36.904   6.455
 9015POPC   C2B45020  13.077  36.951   6.755
 9015POPC   C3B45021  13.113  36.925   7.055
 9015POPC   C4B45022  13.076  36.980   7.355
 9016POPC   NC345023  23.728   6.672   5.555
 9016POPC   PO445024  23.698   6.650   5.855
 9016POPC   GL145025  23.734   6.609   6.155
 9016POPC   GL245026  23.827   6.509   6.155
 9016POPC   C1A45027  23.750   6.679   6.455
 9016POPC   D2A45028  23.695   6.668   6.755
 9016POPC   C3A45029  23.665   6.637   7.055
 9016POPC   C4A45030  23.674   6.643   7.355
 9016POPC   C1B45031  23.834   6.415   6.455
 9016POPC   C2B45032  23.902   6.408   6.755
 9016POPC   C3B45033  23.857   6.499   7.055
 9016POPC   C4B45034  23.912   6.420   7.355
 9017POPC   NC345035   2.775  36.133   5.555
 9017POPC   PO445036   2.738  36.081   5.855
 9017POPC   GL145037   2.804  36.112   6.155
 9017POPC   GL245038   2.922  36.074   6.155
 9017POPC   C1A45039   2.767  36.078   6.455
 9017POPC   D2A45040   2.721  36.116   6.755
 9017POPC   C3A45041   2.754  36.078   7.055
 9017POPC   C4A45042   2.721  36.134   7.355
 9017POPC   C1B45043   2.968  36.123   6.455
 9017POPC   C2B45044   3.008  36.168   6.755
 9017POPC   C3B45045   2.979  36.112   7.055
 9017POPC   C4B45046   3.064  36.148   7.355
 9018POPC   NC345047  43.877  16.719   5.555
 9018POPC   PO445048  43.885  16.734   5.855
 9018POPC   GL145049  43.841  16.687   6.155
 9018POPC   GL245050  43.961  16.620   6.155
 9018POPC   C1A45051  43.861  16.752   6.455
 9018POPC   D2A45052  43.856  16.759   6.755
 9018POPC   C3A45053  43.919  16.777   7.055
 9018POPC   C4A45054  43.864  16.775   7.355
 9018POPC   C1B45055  44.050  16.569   6.455
 9018POPC   C2B45056  44.098  16.587   6.755
 9018POPC   C3B45057  44.086  16.562   7.055
 9018POPC   C4B45058  44.006  16.551   7.355
 9019POPC   NC345059  26.040  30.683   5.555
 9019POPC   PO445060  26.054  30.734   5.855
 9019POPC   GL145061  26.004  30.727   6.155
 9019POPC   GL245062  25.897  30.730   6.155
 9019POPC   C1A45063  26.071  30.670   6.455
 9019POPC   D2A45064  26.083  30.660   6.755
 9019POPC   C3A45065  26.028  30.730   7.055
 9019POPC   C4A45066  26.085  30.650   7.355
 9019POPC   C1B45067  25.819  30.802   6.455
 9019POPC   C2B45068  25.854  30.796   6.755
 9019POPC   C3B45069  25.808  30.857   7.055
 9019POPC   C4B45070  25.836  30.864   7.355
 9020POPC   NC345071   8.953   2.756   5.555
 9020POPC   PO445072   8.980   2.801   5.855
 9020POPC   GL145073   8.957   2.796   6.155
 9020POPC   GL245074   9.091   2.791   6.155
 9020POPC   C1A45075   8.990   2.753   6.455
 9020POPC   D2A45076   8.948   2.735   6.755
 9020POPC   C3A45077   8.944   2.771   7.055
 9020POPC   C4A45078   8.985   2.782   7.355
 9020POPC   C1B45079   9.164   2.912   6.455
 9020POPC   C2B45080   9.200   2.896   6.755
 9020POPC   C3B45081   9.132   2.958   7.055
 9020POPC   C4B45082   9.191   2.922   7.355
 9021POPC   NC345083  22.917  24.452   5.555
 9021POPC   PO445084  22.891  24.454   5.855
 9021POPC   GL145085  22.913  24.462   6.155
 9021POPC   GL245086  22.982  24.661   6.155
 9021POPC   C1A45087  22.919  24.530   6.455
 9021POPC   D2A45088  22.895  24.476   6.755
 9021POPC   C3A45089  22.982  24.494   7.055
 9021POPC   C4A45090  22.959  24.447   7.355
 9021POPC   C1B45091  23.000  24.703   6.455
 9021POPC   C2B45092  22.946  24.730   6.755
 9021POPC   C3B45093  23.004  24.702   7.055
 9021POPC   C4B45094  22.975  24.733   7.355
 9022POPC   NC345095  28.359  39.278   5.555
 9022POPC   PO445096  28.381  39.181   5.855
 9022POPC   GL145097  28.322  39.279   6.155
 9022POPC   GL245098  28.239  39.304   6.155
 9022POPC   C1A45099  28.364  39.222   6.455
 9022POPC   D2A45100  28.364  39.259   6.755
 9022POPC   C3A45101  28.372  39.258   7.055
 9022POPC   C4A45102  28.343  39.182   7.355
 9022POPC   C1B45103  28.168  39.397   6.455
 9022POPC   C2B45104  28.170  39.433   6.755
 9022POPC   C3B45105  28.153  39.378   7.055
 9022POPC   C4B45106  28.133  39.407   7.355
 9023POPC   NC345107  19.019  11.337   5.555
 9023POPC   PO445108  19.082  11.314   5.855
 9023POPC   GL145109  19.089  11.307   6.155
 9023POPC   GL245110  19.130  11.392   6.155
 9023POPC   C1A45111  19.101  11.348   6.455
 9023POPC   D2A45112  19.028  11.332   6.755
 9023POPC   C3A45113  19.050  11.299   7.055
 9023POPC   C4A45114  19.028  11.316   7.355
 9023POPC   C1B45115  19.151  11.539   6.455
 9023POPC   C2B45116  19.239  11.466   6.755
 9023POPC   C3B45117  19.198  11.545   7.055
 9023POPC   C4B45118  19.155  11.476   7.355
 9024POPC   NC345119   5.111   8.974   5.555
 9024POPC   PO445120   5.131   9.000   5.855
 9024POPC   GL145121   5.104   8.971   6.155
 9024POPC   GL245122   5.189   8.904   6.155
 9024POPC   C1A45123   5.101   8.934   6.455
 9024POPC   D2A45124   5.087   8.939   6.755
 9024POPC   C3A45125   5.091   8.996   7.055
 9024POPC   C4A45126   5.085   8.959   7.355
 9024POPC   C1B45127   5.314   8.770   6.455
 9024POPC   C2B45128   5.312   8.831   6.755
 9024POPC   C3B45129   5.311   8.781   7.055
 9024POPC   C4B45130   5.264   8.861   7.355
 9025POPC   NC345131   4.340   5.100   5.555
 9025POPC   PO445132   4.299   5.119   5.855
 9025POPC   GL145133   4.288   5.079   6.155
 9025POPC   GL245134   4.420   5.202   6.155
 9025POPC   C1A45135   4.307   5.053   6.455
 9025POPC   D2A45136   4.273   5.142   6.755
 9025POPC   C3A45137   4.346   5.106   7.055
 9025POPC   C4A45138   4.367   5.080   7.355
 9025POPC   C1B45139   4.561   5.202   6.455
 9025POPC   C2B45140   4.559   5.205   6.755
 9025POPC   C3B45141   4.500   5.245   7.055
 9025POPC   C4B45142   4.557   5.199   7.355
 9026POPC   NC345143   5.838  43.912   5.555
 9026POPC   PO445144   5.899  43.935   5.855
 9026POPC   GL145145   5.867  43.856   6.155
 9026POPC   GL245146   6.014  43.876   6.155
 9026POPC   C1A45147   5.847  43.847   6.455
 9026POPC   D2A45148   5.882  43.874   6.755
 9026POPC   C3A45149   5.855  43.892   7.055
 9026POPC   C4A45150   5.900  43.869   7.355
 9026POPC   C1B45151   6.142  43.934   6.455
 9026POPC   C2B45152   6.164  43.883   6.755
 9026POPC   C3B45153   6.117  43.856   7.055
 9026POPC   C4B45154   6.136  43.910   7.355
 9027POPC   NC345155  44.698  16.698   5.555
 9027POPC   PO445156  44.684  16.715   5.855
 9027POPC   GL145157  44.624  16.741   6.155
 9027POPC   GL245158  44.583  16.805   6.155
 9027POPC   C1A45159  44.665  16.713   6.455
 9027POPC   D2A45160  44.660  16.694   6.755
 9027POPC   C3A45161  44.615  16.700   7.055
 9027POPC   C4A45162  44.709  16.690   7.355
 9027POPC   C1B45163  44.499  16.883   6.455
 9027POPC   C2B45164  44.525  16.952   6.755
 9027POPC   C3B45165  44.470  16.946   7.055
 9027POPC   C4B45166  44.534  16.956   7.355
 9028POPC   NC345167  38.439  36.902   5.555
 9028POPC   PO445168  38.503  36.913   5.855
 9028POPC   GL145169  38.433  36.926   6.155
 9028POPC   GL245170  38.570  36.946   6.155
 9028POPC   C1A45171  38.407  36.870   6.455
 9028POPC   D2A45172  38.488  36.948   6.755
 9028POPC   C3A45173  38.444  36.942   7.055
 9028POPC   C4A45174  38.476  36.900   7.355
 9028POPC   C1B45175  38.675  37.016   6.455
 9028POPC   C2B45176  38.691  37.071   6.755
 9028POPC   C3B45177  38.631  37.089   7.055
 9028POPC   C4B45178  38.648  37.004   7.355
 9029POPC   NC345179  17.512  27.549   5.555
 9029POPC   PO445180  17.534  27.582   5.855
 9029POPC   GL145181  17.554  27.632   6.155
 9029POPC   GL245182  17.574  27.694   6.155
 9029POPC   C1A45183  17.474  27.641   6.455
 9029POPC   D2A45184  17.552  27.557   6.755
 9029POPC   C3A45185  17.512  27.597   7.055
 9029POPC   C4A45186  17.539  27.568   7.355
 9029POPC   C1B45187  17.558  27.779   6.455
 9029POPC   C2B45188  17.616  27.793   6.755
 9029POPC   C3B45189  17.564  27.796   7.055
 9029POPC   C4B45190  17.542  27.855   7.355
 9030POPC   NC345191  13.626   5.887   5.555
 9030POPC   PO445192  13.589   5.880   5.855
 9030POPC   GL145193  13.612   5.828   6.155
 9030POPC   GL245194  13.713   5.855   6.155
 9030POPC   C1A45195  13.661   5.914   6.455
 9030POPC   D2A45196  13.620   5.863   6.755
 9030POPC   C3A45197  13.644   5.869   7.055
 9030POPC   C4A45198  13.660   5.851   7.355
 9030POPC   C1B45199  13.810   5.733   6.455
 9030POPC   C2B45200  13.891   5.791   6.755
 9030POPC   C3B45201  13.836   5.761   7.055
 9030POPC   C4B45202  13.825   5.796   7.355
 9031POPC   NC345203   6.676  43.842   5.555
 9031POPC   PO445204   6.632  43.888   5.855
 9031POPC   GL145205   6.685  43.872   6.155
 9031POPC   GL245206   6.685  43.733   6.155
 9031POPC   C1A45207   6.685  43.844   6.455
 9031POPC   D2A45208   6.648  43.936   6.755
 9031POPC   C3A45209   6.597  43.890   7.055
 9031POPC   C4A45210   6.673  43.849   7.355
 9031POPC   C1B45211   6.766  43.702   6.455
 9031POPC   C2B45212   6.810  43.684   6.755
 9031POPC   C3B45213   6.726  43.653   7.055
 9031POPC   C4B45214   6.804  43.718   7.355
 9032POPC   NC345215  20.654  39.967   5.555
 9032POPC   PO445216  20.581  40.054   5.855
 9032POPC   GL145217  20.586  39.989   6.155
 9032POPC   GL245218  20.698  39.964   6.155
 9032POPC   C1A45219  20.618  40.045   6.455
 9032POPC   D2A45220  20.584  39.959   6.755
 9032POPC   C3A45221  20.623  39.960   7.055
 9032POPC   C4A45222  20.608  40.044   7.355
 9032POPC   C1B45223  20.862  39.900   6.455
 9032POPC   C2B45224  20.899  39.908   6.755
 9032POPC   C3B45225  20.867  39.922   7.055
 9032POPC   C4B45226  20.895  39.932   7.355
 9033POPC   NC345227  33.757  12.840   5.555
 9033POPC   PO445228  33.774  12.869   5.855
 9033POPC   GL145229  33.762  12.840   6.155
 9033POPC   GL245230  33.723  12.932   6.155
 9033POPC   C1A45231  33.801  12.900   6.455
 9033POPC   D2A45232  33.779  12.872   6.755
 9033POPC   C3A45233  33.831  12.808   7.055
 9033POPC   C4A45234  33.818  12.822   7.355
 9033POPC   C1B45235  33.713  13.044   6.455
 9033POPC   C2B45236  33.783  13.133   6.755
 9033POPC   C3B45237  33.732  13.047   7.055
 9033POPC   C4B45238  33.776  13.094   7.355
 9034POPC   NC345239   9.705   4.364   5.555
 9034POPC   PO445240   9.748   4.294   5.855
 9034POPC   GL145241   9.769   4.272   6.155
 9034POPC   GL245242   9.620   4.223   6.155
 9034POPC   C1A45243   9.782   4.324   6.455
 9034POPC   D2A45244   9.775   4.308   6.755
 9034POPC   C3A45245   9.794   4.354   7.055
 9034POPC   C4A45246   9.770   4.287   7.355
 9034POPC   C1B45247   9.585   4.124   6.455
 9034POPC   C2B45248   9.589   4.170   6.755
 9034POPC   C3B45249   9.516   4.191   7.055
 9034POPC   C4B45250   9.601   4.125   7.355
 9035POPC   NC345251  38.454  17.464   5.555
 9035POPC   PO445252  38.423  17.466   5.855
 9035POPC   GL145253  38.472  17.466   6.155
 9035POPC   GL245254  38.517  17.580   6.155
 9035POPC   C1A45255  38.478  17.485   6.455
 9035POPC   D2A45256  38.409  17.501   6.755
 9035POPC   C3A45257  38.487  17.540   7.055
 9035POPC   C4A45258  38.494  17.503   7.355
 9035POPC   C1B45259  38.629  17.657   6.455
 9035POPC   C2B45260  38.678  17.673   6.755
 9035POPC   C3B45261  38.665  17.640   7.055
 9035POPC   C4B45262  38.624  17.622   7.355
 9036POPC   NC345263  24.446   9.784   5.555
 9036POPC   PO445264  24.498   9.758   5.855
 9036POPC   GL145265  24.479   9.791   6.155
 9036POPC   GL245266  24.603   9.662   6.155
 9036POPC   C1A45267  24.531   9.711   6.455
 9036POPC   D2A45268  24.506   9.776   6.755
 9036POPC   C3A45269  24.523   9.749   7.055
 9036POPC   C4A45270  24.536   9.766   7.355
 9036POPC   C1B45271  24.684   9.643   6.455
 9036POPC   C2B45272  24.701   9.572   6.755
 9036POPC   C3B45273  24.737   9.659   7.055
 9036POPC   C4B45274  24.664   9.588   7.355
 9037POPC   NC345275   1.247  13.601   5.555
 9037POPC   PO445276   1.189  13.673   5.855
 9037POPC   GL145277   1.232  13.614   6.155
 9037POPC   GL245278   1.322  13.613   6.155
 9037POPC   C1A45279   1.197  13.638   6.455
 9037POPC   D2A45280   1.222  13.621   6.755
 9037POPC   C3A45281   1.173  13.631   7.055
 9037POPC   C4A45282   1.212  13.662   7.355
 9037POPC   C1B45283   1.439  13.515   6.455
 9037POPC   C2B45284   1.396  13.545   6.755
 9037POPC   C3B45285   1.457  13.533   7.055
 9037POPC   C4B45286   1.459  13.516   7.355
 9038POPC   NC345287  17.471  20.627   5.555
 9038POPC   PO445288  17.482  20.601   5.855
 9038POPC   GL145289  17.551  20.579   6.155
 9038POPC   GL245290  17.475  20.778   6.155
 9038POPC   C1A45291  17.476  20.650   6.455
 9038POPC   D2A45292  17.553  20.577   6.755
 9038POPC   C3A45293  17.459  20.578   7.055
 9038POPC   C4A45294  17.457  20.600   7.355
 9038POPC   C1B45295  17.426  20.807   6.455
 9038POPC   C2B45296  17.477  20.889   6.755
 9038POPC   C3B45297  17.441  20.893   7.055
 9038POPC   C4B45298  17.383  20.802   7.355
 9039POPC   NC345299  25.257   7.411   5.555
 9039POPC   PO445300  25.301   7.426   5.855
 9039POPC   GL145301  25.216   7.422   6.155
 9039POPC   GL245302  25.198   7.374   6.155
 9039POPC   C1A45303  25.288   7.468   6.455
 9039POPC   D2A45304  25.218   7.435   6.755
 9039POPC   C3A45305  25.303   7.376   7.055
 9039POPC   C4A45306  25.251   7.413   7.355
 9039POPC   C1B45307  25.006   7.373   6.455
 9039POPC   C2B45308  25.047   7.336   6.755
 9039POPC   C3B45309  25.018   7.313   7.055
 9039POPC   C4B45310  25.043   7.276   7.355
 9040POPC   NC345311  19.091  29.177   5.555
 9040POPC   PO445312  19.103  29.178   5.855
 9040POPC   GL145313  19.045  29.189   6.155
 9040POPC   GL245314  18.956  29.183   6.155
 9040POPC   C1A45315  19.064  29.193   6.455
 9040POPC   D2A45316  19.064  29.142   6.755
 9040POPC   C3A45317  19.059  29.159   7.055
 9040POPC   C4A45318  19.018  29.097   7.355
 9040POPC   C1B45319  18.834  29.237   6.455
 9040POPC   C2B45320  18.822  29.254   6.755
 9040POPC   C3B45321  18.800  29.246   7.055
 9040POPC   C4B45322  18.867  29.238   7.355
 9041POPC   NC345323  21.403  27.562   5.555
 9041POPC   PO445324  21.436  27.569   5.855
 9041POPC   GL145325  21.344  27.578   6.155
 9041POPC   GL245326  21.341  27.422   6.155
 9041POPC   C1A45327  21.353  27.569   6.455
 9041POPC   D2A45328  21.339  27.586   6.755
 9041POPC   C3A45329  21.370  27.560   7.055
 9041POPC   C4A45330  21.413  27.591   7.355
 9041POPC   C1B45331  21.374  27.326   6.455
 9041POPC   C2B45332  21.400  27.366   6.755
 9041POPC   C3B45333  21.358  27.360   7.055
 9041POPC   C4B45334  21.354  27.360   7.355
 9042POPC   NC345335  44.613  25.222   5.555
 9042POPC   PO445336  44.630  25.275   5.855
 9042POPC   GL145337  44.614  25.269   6.155
 9042POPC   GL245338  44.649  25.416   6.155
 9042POPC   C1A45339  44.660  25.260   6.455
 9042POPC   D2A45340  44.649  25.284   6.755
 9042POPC   C3A45341  44.702  25.243   7.055
 9042POPC   C4A45342  44.666  25.273   7.355
 9042POPC   C1B45343  44.714  25.541   6.455
 9042POPC   C2B45344  44.744  25.470   6.755
 9042POPC   C3B45345  44.696  25.510   7.055
 9042POPC   C4B45346  44.671  25.541   7.355
 9043POPC   NC345347  29.149  11.269   5.555
 9043POPC   PO445348  29.155  11.275   5.855
 9043POPC   GL145349  29.102  11.264   6.155
 9043POPC   GL245350  29.255  11.161   6.155
 9043POPC   C1A45351  29.099  11.266   6.455
 9043POPC   D2A45352  29.152  11.333   6.755
 9043POPC   C3A45353  29.107  11.324   7.055
 9043POPC   C4A45354  29.108  11.279   7.355
 9043POPC   C1B45355  29.292  11.069   6.455
 9043POPC   C2B45356  29.352  11.151   6.755
 9043POPC   C3B45357  29.318  11.151   7.055
 9043POPC   C4B45358  29.339  11.146   7.355
 9044POPC   NC345359  27.559   3.493   5.555
 9044POPC   PO445360  27.637   3.514   5.855
 9044POPC   GL145361  27.595   3.550   6.155
 9044POPC   GL245362  27.683   3.477   6.155
 9044POPC   C1A45363  27.627   3.540   6.455
 9044POPC   D2A45364  27.568   3.576   6.755
 9044POPC   C3A45365  27.554   3.570   7.055
 9044POPC   C4A45366  27.548   3.569   7.355
 9044POPC   C1B45367  27.729   3.323   6.455
 9044POPC   C2B45368  27.777   3.318   6.755
 9044POPC   C3B45369  27.789   3.346   7.055
 9044POPC   C4B45370  27.806   3.364   7.355
 9045POPC   NC345371  40.004  19.847   5.555
 9045POPC   PO445372  39.978  19.825   5.855
 9045POPC   GL145373  39.993  19.878   6.155
 9045POPC   GL245374  39.997  19.692   6.155
 9045POPC   C1A45375  39.983  19.789   6.455
 9045POPC   D2A45376  40.044  19.827   6.755
 9045POPC   C3A45377  40.005  19.794   7.055
 9045POPC   C4A45378  40.019  19.805   7.355
 9045POPC   C1B45379  39.905  19.625   6.455
 9045POPC   C2B45380  39.940  19.653   6.755
 9045POPC   C3B45381  39.853  19.587   7.055
 9045POPC   C4B45382  39.904  19.604   7.355
 9046POPC   NC345383  36.940  24.520   5.555
 9046POPC   PO445384  36.914  24.506   5.855
 9046POPC   GL145385  36.894  24.483   6.155
 9046POPC   GL245386  36.996  24.392   6.155
 9046POPC   C1A45387  36.871  24.489   6.455
 9046POPC   D2A45388  36.950  24.479   6.755
 9046POPC   C3A45389  36.858  24.523   7.055
 9046POPC   C4A45390  36.858  24.504   7.355
 9046POPC   C1B45391  37.091  24.329   6.455
 9046POPC   C2B45392  37.111  24.321   6.755
 9046POPC   C3B45393  37.110  24.347   7.055
 9046POPC   C4B45394  37.137  24.396   7.355
 9047POPC   NC345395  13.602  39.221   5.555
 9047POPC   PO445396  13.582  39.266   5.855
 9047POPC   GL145397  13.642  39.256   6.155
 9047POPC   GL245398  13.487  39.275   6.155
 9047POPC   C1A45399  13.587  39.265   6.455
 9047POPC   D2A45400  13.591  39.231   6.755
 9047POPC   C3A45401  13.637  39.208   7.055
 9047POPC   C4A45402  13.589  39.239   7.355
 9047POPC   C1B45403  13.345  39.268   6.455
 9047POPC   C2B45404  13.389  39.297   6.755
 9047POPC   C3B45405  13.434  39.286   7.055
 9047POPC   C4B45406  13.346  39.297   7.355
 9048POPC   NC345407  36.080  19.842   5.555
 9048POPC   PO445408  36.140  19.871   5.855
 9048POPC   GL145409  36.140  19.860   6.155
 9048POPC   GL245410  36.239  19.841   6.155
 9048POPC   C1A45411  36.174  19.844   6.455
 9048POPC   D2A45412  36.086  19.838   6.755
 9048POPC   C3A45413  36.129  19.800   7.055
 9048POPC   C4A45414  36.125  19.817   7.355
 9048POPC   C1B45415  36.375  19.734   6.455
 9048POPC   C2B45416  36.393  19.788   6.755
 9048POPC   C3B45417  36.361  19.723   7.055
 9048POPC   C4B45418  36.358  19.803   7.355
 9049POPC   NC345419   2.731  29.108   5.555
 9049POPC   PO445420   2.794  29.097   5.855
 9049POPC   GL145421   2.740  29.149   6.155
 9049POPC   GL245422   2.823  29.027   6.155
 9049POPC   C1A45423   2.806  29.123   6.455
 9049POPC   D2A45424   2.770  29.168   6.755
 9049POPC   C3A45425   2.723  29.125   7.055
 9049POPC   C4A45426   2.772  29.162   7.355
 9049POPC   C1B45427   2.928  29.004   6.455
 9049POPC   C2B45428   2.962  28.978   6.755
 9049POPC   C3B45429   2.940  29.015   7.055
 9049POPC   C4B45430   2.968  29.009   7.355
 9050POPC   NC345431   5.089  11.286   5.555
 9050POPC   PO445432   5.134  11.326   5.855
 9050POPC   GL145433   5.080  11.345   6.155
 9050POPC   GL245434   5.010  11.212   6.155
 9050POPC   C1A45435   5.097  11.280   6.455
 9050POPC   D2A45436   5.073  11.292   6.755
 9050POPC   C3A45437   5.078  11.317   7.055
 9050POPC   C4A45438   5.046  11.256   7.355
 9050POPC   C1B45439   4.869  11.200   6.455
 9050POPC   C2B45440   4.844  11.145   6.755
 9050POPC   C3B45441   4.915  11.180   7.055
 9050POPC   C4B45442   4.862  11.178   7.355
 9051POPC   NC345443  22.201   4.309   5.555
 9051POPC   PO445444  22.140   4.286   5.855
 9051POPC   GL145445  22.142   4.332   6.155
 9051POPC   GL245446  22.170   4.402   6.155
 9051POPC   C1A45447  22.212   4.293   6.455
 9051POPC   D2A45448  22.168   4.359   6.755
 9051POPC   C3A45449  22.139   4.332   7.055
 9051POPC   C4A45450  22.204   4.331   7.355
 9051POPC   C1B45451  22.191   4.552   6.455
 9051POPC   C2B45452  22.163   4.601   6.755
 9051POPC   C3B45453  22.175   4.556   7.055
 9051POPC   C4B45454  22.180   4.582   7.355
 9052POPC   NC345455  33.031  19.025   5.555
 9052POPC   PO445456  33.017  19.019   5.855
 9052POPC   GL145457  33.052  19.083   6.155
 9052POPC   GL245458  32.991  18.896   6.155
 9052POPC   C1A45459  33.042  19.107   6.455
 9052POPC   D2A45460  33.033  19.062   6.755
 9052POPC   C3A45461  33.057  19.029   7.055
 9052POPC   C4A45462  33.027  19.041   7.355
 9052POPC   C1B45463  33.052  18.795   6.455
 9052POPC   C2B45464  33.037  18.809   6.755
 9052POPC   C3B45465  33.019  18.771   7.055
 9052POPC   C4B45466  33.047  18.842   7.355
 9053POPC   NC345467  29.903   1.942   5.555
 9053POPC   PO445468  29.933   2.009   5.855
 9053POPC   GL145469  29.888   2.031   6.155
 9053POPC   GL245470  29.989   1.944   6.155
 9053POPC   C1A45471  29.919   1.990   6.455
 9053POPC   D2A45472  29.901   1.961   6.755
 9053POPC   C3A45473  29.948   1.954   7.055
 9053POPC   C4A45474  29.894   1.970   7.355
 9053POPC   C1B45475  30.162   1.888   6.455
 9053POPC   C2B45476  30.095   1.881   6.755
 9053POPC   C3B45477  30.094   1.873   7.055
 9053POPC   C4B45478  30.092   1.899   7.355
 9054POPC   NC345479  23.696  40.774   5.555
 9054POPC   PO445480  23.737  40.798   5.855
 9054POPC   GL145481  23.761  40.785   6.155
 9054POPC   GL245482  23.812  40.801   6.155
 9054POPC   C1A45483  23.683  40.825   6.455
 9054POPC   D2A45484  23.755  40.814   6.755
 9054POPC   C3A45485  23.745  40.798   7.055
 9054POPC   C4A45486  23.740  40.748   7.355
 9054POPC   C1B45487  23.999  40.776   6.455
 9054POPC   C2B45488  23.970  40.782   6.755
 9054POPC   C3B45489  23.961  40.847   7.055
 9054POPC   C4B45490  23.915  40.811   7.355
 9055POPC   NC345491  37.682  33.071   5.555
 9055POPC   PO445492  37.702  33.038   5.855
 9055POPC   GL145493  37.664  32.988   6.155
 9055POPC   GL245494  37.546  33.156   6.155
 9055POPC   C1A45495  37.666  33.063   6.455
 9055POPC   D2A45496  37.721  33.015   6.755
 9055POPC   C3A45497  37.678  32.986   7.055
 9055POPC   C4A45498  37.705  33.072   7.355
 9055POPC   C1B45499  37.474  33.151   6.455
 9055POPC   C2B45500  37.448  33.193   6.755
 9055POPC   C3B45501  37.508  33.208   7.055
 9055POPC   C4B45502  37.445  33.152   7.355
 9056POPC   NC345503  12.084  40.036   5.555
 9056POPC   PO445504  12.031  40.005   5.855
 9056POPC   GL145505  12.051  39.980   6.155
 9056POPC   GL245506  12.021  40.104   6.155
 9056POPC   C1A45507  12.027  40.046   6.455
 9056POPC   D2A45508  12.058  40.019   6.755
 9056POPC   C3A45509  12.079  40.041   7.055
 9056POPC   C4A45510  12.113  40.009   7.355
 9056POPC   C1B45511  12.080  40.214   6.455
 9056POPC   C2B45512  12.069  40.242   6.755
 9056POPC   C3B45513  12.022  40.206   7.055
 9056POPC   C4B45514  12.085  40.245   7.355
 9057POPC   NC345515  19.066  28.327   5.555
 9057POPC   PO445516  19.067  28.333   5.855
 9057POPC   GL145517  19.106  28.414   6.155
 9057POPC   GL245518  19.163  28.381   6.155
 9057POPC   C1A45519  19.103  28.370   6.455
 9057POPC   D2A45520  19.028  28.415   6.755
 9057POPC   C3A45521  19.012  28.390   7.055
 9057POPC   C4A45522  19.071  28.325   7.355
 9057POPC   C1B45523  19.343  28.269   6.455
 9057POPC   C2B45524  19.337  28.350   6.755
 9057POPC   C3B45525  19.290  28.298   7.055
 9057POPC   C4B45526  19.259  28.297   7.355
 9058POPC   NC345527  35.392  12.810   5.555
 9058POPC   PO445528  35.341  12.892   5.855
 9058POPC   GL145529  35.389  12.863   6.155
 9058POPC   GL245530  35.279  12.709   6.155
 9058POPC   C1A45531  35.396  12.815   6.455
 9058POPC   D2A45532  35.311  12.861   6.755
 9058POPC   C3A45533  35.320  12.869   7.055
 9058POPC   C4A45534  35.312  12.826   7.355
 9058POPC   C1B45535  35.251  12.605   6.455
 9058POPC   C2B45536  35.185  12.655   6.755
 9058POPC   C3B45537  35.185  12.678   7.055
 9058POPC   C4B45538  35.201  12.665   7.355
 9059POPC   NC345539  23.665  26.062   5.555
 9059POPC   PO445540  23.697  26.051   5.855
 9059POPC   GL145541  23.667  26.058   6.155
 9059POPC   GL245542  23.869  25.995   6.155
 9059POPC   C1A45543  23.714  26.018   6.455
 9059POPC   D2A45544  23.710  25.996   6.755
 9059POPC   C3A45545  23.762  26.006   7.055
 9059POPC   C4A45546  23.696  26.076   7.355
 9059POPC   C1B45547  23.943  25.924   6.455
 9059POPC   C2B45548  23.969  25.953   6.755
 9059POPC   C3B45549  23.980  25.921   7.055
 9059POPC   C4B45550  23.910  25.965   7.355
 9060POPC   NC345551  37.712  19.852   5.555
 9060POPC   PO445552  37.665  19.796   5.855
 9060POPC   GL145553  37.639  19.855   6.155
 9060POPC   GL245554  37.804  19.886   6.155
 9060POPC   C1A45555  37.667  19.808   6.455
 9060POPC   D2A45556  37.682  19.830   6.755
 9060POPC   C3A45557  37.664  19.822   7.055
 9060POPC   C4A45558  37.708  19.796   7.355
 9060POPC   C1B45559  37.928  19.900   6.455
 9060POPC   C2B45560  37.915  19.916   6.755
 9060POPC   C3B45561  37.927  19.916   7.055
 9060POPC   C4B45562  37.923  19.960   7.355
 9061POPC   NC345563  33.770   6.597   5.555
 9061POPC   PO445564  33.794   6.686   5.855
 9061POPC   GL145565  33.763   6.690   6.155
 9061POPC   GL245566  33.902   6.580   6.155
 9061POPC   C1A45567  33.761   6.606   6.455
 9061POPC   D2A45568  33.838   6.617   6.755
 9061POPC   C3A45569  33.847   6.617   7.055
 9061POPC   C4A45570  33.807   6.680   7.355
 9061POPC   C1B45571  33.991   6.565   6.455
 9061POPC   C2B45572  34.016   6.533   6.755
 9061POPC   C3B45573  34.017   6.534   7.055
 9061POPC   C4B45574  34.003   6.556   7.355
 9062POPC   NC345575  37.680  38.460   5.555
 9062POPC   PO445576  37.636  38.448   5.855
 9062POPC   GL145577  37.687  38.459   6.155
 9062POPC   GL245578  37.713  38.379   6.155
 9062POPC   C1A45579  37.644  38.447   6.455
 9062POPC   D2A45580  37.683  38.455   6.755
 9062POPC   C3A45581  37.701  38.434   7.055
 9062POPC   C4A45582  37.638  38.407   7.355
 9062POPC   C1B45583  37.830  38.304   6.455
 9062POPC   C2B45584  37.845  38.279   6.755
 9062POPC   C3B45585  37.882  38.222   7.055
 9062POPC   C4B45586  37.797  38.220   7.355
 9063POPC   NC345587  28.361  14.397   5.555
 9063POPC   PO445588  28.396  14.407   5.855
 9063POPC   GL145589  28.320  14.376   6.155
 9063POPC   GL245590  28.230  14.464   6.155
 9063POPC   C1A45591  28.329  14.437   6.455
 9063POPC   D2A45592  28.399  14.399   6.755
 9063POPC   C3A45593  28.403  14.396   7.055
 9063POPC   C4A45594  28.376  14.369   7.355
 9063POPC   C1B45595  28.207  14.564   6.455
 9063POPC   C2B45596  28.191  14.572   6.755
 9063POPC   C3B45597  28.198  14.576   7.055
 9063POPC   C4B45598  28.209  14.576   7.355
 9064POPC   NC345599  18.261   5.863   5.555
 9064POPC   PO445600  18.298   5.881   5.855
 9064POPC   GL145601  18.247   5.836   6.155
 9064POPC   GL245602  18.410   5.921   6.155
 9064POPC   C1A45603  18.295   5.869   6.455
 9064POPC   D2A45604  18.310   5.827   6.755
 9064POPC   C3A45605  18.293   5.916   7.055
 9064POPC   C4A45606  18.251   5.883   7.355
 9064POPC   C1B45607  18.455   5.958   6.455
 9064POPC   C2B45608  18.473   5.982   6.755
 9064POPC   C3B45609  18.468   5.956   7.055
 9064POPC   C4B45610  18.535   5.993   7.355
 9065POPC   NC345611  22.986  35.384   5.555
 9065POPC   PO445612  22.901  35.364   5.855
 9065POPC   GL145613  22.932  35.305   6.155
 9065POPC   GL245614  23.044  35.327   6.155
 9065POPC   C1A45615  22.931  35.363   6.455
 9065POPC   D2A45616  22.936  35.368   6.755
 9065POPC   C3A45617  22.969  35.395   7.055
 9065POPC   C4A45618  22.965  35.311   7.355
 9065POPC   C1B45619  23.209  35.327   6.455
 9065POPC   C2B45620  23.184  35.315   6.755
 9065POPC   C3B45621  23.170  35.270   7.055
 9065POPC   C4B45622  23.224  35.253   7.355
 9066POPC   NC345623  36.887   1.196   5.555
 9066POPC   PO445624  36.900   1.183   5.855
 9066POPC   GL145625  36.925   1.242   6.155
 9066POPC   GL245626  37.014   1.169   6.155
 9066POPC   C1A45627  36.853   1.190   6.455
 9066POPC   D2A45628  36.934   1.215   6.755
 9066POPC   C3A45629  36.870   1.179   7.055
 9066POPC   C4A45630  36.888   1.240   7.355
 9066POPC   C1B45631  37.117   1.112   6.455
 9066POPC   C2B45632  37.138   1.147   6.755
 9066POPC   C3B45633  37.120   1.105   7.055
 9066POPC   C4B45634  37.164   1.129   7.355
 9067POPC   NC345635   5.879  11.338   5.555
 9067POPC   PO445636   5.866  11.268   5.855
 9067POPC   GL145637   5.874  11.340   6.155
 9067POPC   GL245638   5.723  11.388   6.155
 9067POPC   C1A45639   5.880  11.253   6.455
 9067POPC   D2A45640   5.848  11.296   6.755
 9067POPC   C3A45641   5.885  11.280   7.055
 9067POPC   C4A45642   5.916  11.288   7.355
 9067POPC   C1B45643   5.682  11.386   6.455
 9067POPC   C2B45644   5.673  11.435   6.755
 9067POPC   C3B45645   5.680  11.368   7.055
 9067POPC   C4B45646   5.621  11.365   7.355
 9068POPC   NC345647   4.268  32.255   5.555
 9068POPC   PO445648   4.342  32.206   5.855
 9068POPC   GL145649   4.320  32.290   6.155
 9068POPC   GL245650   4.465  32.265   6.155
 9068POPC   C1A45651   4.301  32.228   6.455
 9068POPC   D2A45652   4.283  32.278   6.755
 9068POPC   C3A45653   4.356  32.201   7.055
 9068POPC   C4A45654   4.326  32.295   7.355
 9068POPC   C1B45655   4.546  32.311   6.455
 9068POPC   C2B45656   4.589  32.346   6.755
 9068POPC   C3B45657   4.544  32.305   7.055
 9068POPC   C4B45658   4.593  32.305   7.355
 9069POPC   NC345659  39.962   1.173   5.555
 9069POPC   PO445660  40.050   1.238   5.855
 9069POPC   GL145661  39.968   1.247   6.155
 9069POPC   GL245662  40.142   1.123   6.155
 9069POPC   C1A45663  40.041   1.254   6.455
 9069POPC   D2A45664  40.055   1.233   6.755
 9069POPC   C3A45665  40.004   1.212   7.055
 9069POPC   C4A45666  40.004   1.236   7.355
 9069POPC   C1B45667  40.192   1.078   6.455
 9069POPC   C2B45668  40.192   1.030   6.755
 9069POPC   C3B45669  40.216   1.064   7.055
 9069POPC   C4B45670  40.191   1.043   7.355
 9070POPC   NC345671  30.698  14.436   5.555
 9070POPC   PO445672  30.678  14.369   5.855
 9070POPC   GL145673  30.651  14.390   6.155
 9070POPC   GL245674  30.823  14.472   6.155
 9070POPC   C1A45675  30.663  14.374   6.455
 9070POPC   D2A45676  30.723  14.444   6.755
 9070POPC   C3A45677  30.650  14.416   7.055
 9070POPC   C4A45678  30.715  14.440   7.355
 9070POPC   C1B45679  30.968  14.399   6.455
 9070POPC   C2B45680  30.898  14.450   6.755
 9070POPC   C3B45681  30.981  14.471   7.055
 9070POPC   C4B45682  30.914  14.471   7.355
 9071POPC   NC345683  12.058  25.261   5.555
 9071POPC   PO445684  12.055  25.220   5.855
 9071POPC   GL145685  12.084  25.261   6.155
 9071POPC   GL245686  12.227  25.279   6.155
 9071POPC   C1A45687  12.047  25.231   6.455
 9071POPC   D2A45688  12.034  25.301   6.755
 9071POPC   C3A45689  12.113  25.224   7.055
 9071POPC   C4A45690  12.078  25.229   7.355
 9071POPC   C1B45691  12.318  25.239   6.455
 9071POPC   C2B45692  12.303  25.281   6.755
 9071POPC   C3B45693  12.294  25.275   7.055
 9071POPC   C4B45694  12.338  25.255   7.355
 9072POPC   NC345695  20.600  29.873   5.555
 9072POPC   PO445696  20.582  29.929   5.855
 9072POPC   GL145697  20.624  29.962   6.155
 9072POPC   GL245698  20.734  29.949   6.155
 9072POPC   C1A45699  20.579  29.936   6.455
 9072POPC   D2A45700  20.603  29.915   6.755
 9072POPC   C3A45701  20.620  29.884   7.055
 9072POPC   C4A45702  20.640  29.941   7.355
 9072POPC   C1B45703  20.861  30.007   6.455
 9072POPC   C2B45704  20.852  29.990   6.755
 9072POPC   C3B45705  20.829  30.068   7.055
 9072POPC   C4B45706  20.794  30.017   7.355
 9073POPC   NC345707  22.204  15.925   5.555
 9073POPC   PO445708  22.132  15.930   5.855
 9073POPC   GL145709  22.161  15.919   6.155
 9073POPC   GL245710  22.327  15.982   6.155
 9073POPC   C1A45711  22.137  16.001   6.455
 9073POPC   D2A45712  22.201  15.925   6.755
 9073POPC   C3A45713  22.112  15.950   7.055
 9073POPC   C4A45714  22.145  15.991   7.355
 9073POPC   C1B45715  22.442  16.083   6.455
 9073POPC   C2B45716  22.433  16.019   6.755
 9073POPC   C3B45717  22.363  16.013   7.055
 9073POPC   C4B45718  22.410  16.056   7.355
 9074POPC   NC345719  20.598  13.654   5.555
 9074POPC   PO445720  20.656  13.676   5.855
 9074POPC   GL145721  20.631  13.668   6.155
 9074POPC   GL245722  20.755  13.670   6.155
 9074POPC   C1A45723  20.617  13.676   6.455
 9074POPC   D2A45724  20.580  13.650   6.755
 9074POPC   C3A45725  20.588  13.644   7.055
 9074POPC   C4A45726  20.645  13.643   7.355
 9074POPC   C1B45727  20.767  13.760   6.455
 9074POPC   C2B45728  20.801  13.814   6.755
 9074POPC   C3B45729  20.814  13.743   7.055
 9074POPC   C4B45730  20.804  13.814   7.355
 9075POPC   NC345731  14.357   1.957   5.555
 9075POPC   PO445732  14.362   1.970   5.855
 9075POPC   GL145733  14.387   1.945   6.155
 9075POPC   GL245734  14.525   1.973   6.155
 9075POPC   C1A45735  14.445   2.038   6.455
 9075POPC   D2A45736  14.413   1.962   6.755
 9075POPC   C3A45737  14.373   1.978   7.055
 9075POPC   C4A45738  14.398   1.996   7.355
 9075POPC   C1B45739  14.646   1.948   6.455
 9075POPC   C2B45740  14.679   1.890   6.755
 9075POPC   C3B45741  14.645   1.926   7.055
 9075POPC   C4B45742  14.655   1.888   7.355
 9076POPC   NC345743  42.366   0.418   5.555
 9076POPC   PO445744  42.383   0.394   5.855
 9076POPC   GL145745  42.380   0.434   6.155
 9076POPC   GL245746  42.196   0.451   6.155
 9076POPC   C1A45747  42.355   0.417   6.455
 9076POPC   D2A45748  42.297   0.400   6.755
 9076POPC   C3A45749  42.336   0.476   7.055
 9076POPC   C4A45750  42.307   0.431   7.355
 9076POPC   C1B45751  42.124   0.472   6.455
 9076POPC   C2B45752  42.042   0.460   6.755
 9076POPC   C3B45753  42.063   0.463   7.055
 9076POPC   C4B45754  42.112   0.422   7.355
 9077POPC   NC345755  22.186  25.275   5.555
 9077POPC   PO445756  22.153  25.306   5.855
 9077POPC   GL145757  22.123  25.234   6.155
 9077POPC   GL245758  22.089  25.149   6.155
 9077POPC   C1A45759  22.121  25.255   6.455
 9077POPC   D2A45760  22.198  25.291   6.755
 9077POPC   C3A45761  22.168  25.313   7.055
 9077POPC   C4A45762  22.131  25.267   7.355
 9077POPC   C1B45763  22.095  25.011   6.455
 9077POPC   C2B45764  22.049  25.028   6.755
 9077POPC   C3B45765  22.027  24.984   7.055
 9077POPC   C4B45766  22.024  25.068   7.355
 9078POPC   NC345767   4.353  19.029   5.555
 9078POPC   PO445768   4.291  19.015   5.855
 9078POPC   GL145769   4.354  19.084   6.155
 9078POPC   GL245770   4.259  19.154   6.155
 9078POPC   C1A45771   4.270  19.057   6.455
 9078POPC   D2A45772   4.329  19.044   6.755
 9078POPC   C3A45773   4.358  19.097   7.055
 9078POPC   C4A45774   4.292  19.027   7.355
 9078POPC   C1B45775   4.259  19.292   6.455
 9078POPC   C2B45776   4.252  19.338   6.755
 9078POPC   C3B45777   4.331  19.296   7.055
 9078POPC   C4B45778   4.276  19.318   7.355
 9079POPC   NC345779  27.611  13.652   5.555
 9079POPC   PO445780  27.566  13.587   5.855
 9079POPC   GL145781  27.573  13.674   6.155
 9079POPC   GL245782  27.441  13.580   6.155
 9079POPC   C1A45783  27.587  13.622   6.455
 9079POPC   D2A45784  27.574  13.616   6.755
 9079POPC   C3A45785  27.573  13.648   7.055
 9079POPC   C4A45786  27.628  13.578   7.355
 9079POPC   C1B45787  27.366  13.485   6.455
 9079POPC   C2B45788  27.377  13.528   6.755
 9079POPC   C3B45789  27.322  13.495   7.055
 9079POPC   C4B45790  27.386  13.514   7.355
 9080POPC   NC345791  20.656  19.861   5.555
 9080POPC   PO445792  20.657  19.826   5.855
 9080POPC   GL145793  20.614  19.814   6.155
 9080POPC   GL245794  20.617  19.983   6.155
 9080POPC   C1A45795  20.603  19.851   6.455
 9080POPC   D2A45796  20.604  19.846   6.755
 9080POPC   C3A45797  20.577  19.800   7.055
 9080POPC   C4A45798  20.581  19.790   7.355
 9080POPC   C1B45799  20.601  20.048   6.455
 9080POPC   C2B45800  20.626  20.125   6.755
 9080POPC   C3B45801  20.628  20.066   7.055
 9080POPC   C4B45802  20.563  20.107   7.355
 9081POPC   NC345803  31.516  12.829   5.555
 9081POPC   PO445804  31.470  12.898   5.855
 9081POPC   GL145805  31.424  12.805   6.155
 9081POPC   GL245806  31.567  12.832   6.155
 9081POPC   C1A45807  31.514  12.803   6.455
 9081POPC   D2A45808  31.443  12.802   6.755
 9081POPC   C3A45809  31.431  12.845   7.055
 9081POPC   C4A45810  31.502  12.843   7.355
 9081POPC   C1B45811  31.696  12.816   6.455
 9081POPC   C2B45812  31.759  12.770   6.755
 9081POPC   C3B45813  31.685  12.759   7.055
 9081POPC   C4B45814  31.757  12.831   7.355
 9082POPC   NC345815  21.422  43.127   5.555
 9082POPC   PO445816  21.387  43.089   5.855
 9082POPC   GL145817  21.417  43.135   6.155
 9082POPC   GL245818  21.532  43.118   6.155
 9082POPC   C1A45819  21.403  43.083   6.455
 9082POPC   D2A45820  21.399  43.069   6.755
 9082POPC   C3A45821  21.340  43.080   7.055
 9082POPC   C4A45822  21.433  43.079   7.355
 9082POPC   C1B45823  21.592  43.060   6.455
 9082POPC   C2B45824  21.662  43.123   6.755
 9082POPC   C3B45825  21.610  43.068   7.055
 9082POPC   C4B45826  21.640  43.144   7.355
 9083POPC   NC345827  43.114  28.367   5.555
 9083POPC   PO445828  43.153  28.332   5.855
 9083POPC   GL145829  43.141  28.399   6.155
 9083POPC   GL245830  42.984  28.283   6.155
 9083POPC   C1A45831  43.152  28.373   6.455
 9083POPC   D2A45832  43.137  28.370   6.755
 9083POPC   C3A45833  43.069  28.330   7.055
 9083POPC   C4A45834  43.075  28.337   7.355
 9083POPC   C1B45835  42.843  28.287   6.455
 9083POPC   C2B45836  42.882  28.277   6.755
 9083POPC   C3B45837  42.925  28.248   7.055
 9083POPC   C4B45838  42.850  28.310   7.355
 9084POPC   NC345839   1.954   6.651   5.555
 9084POPC   PO445840   1.953   6.597   5.855
 9084POPC   GL145841   2.004   6.652   6.155
 9084POPC   GL245842   1.923   6.700   6.155
 9084POPC   C1A45843   2.017   6.662   6.455
 9084POPC   D2A45844   2.035   6.626   6.755
 9084POPC   C3A45845   1.993   6.627   7.055
 9084POPC   C4A45846   1.948   6.674   7.355
 9084POPC   C1B45847   1.815   6.817   6.455
 9084POPC   C2B45848   1.806   6.833   6.755
 9084POPC   C3B45849   1.802   6.851   7.055
 9084POPC   C4B45850   1.846   6.762   7.355
 9085POPC   NC345851   8.987  39.999   5.555
 9085POPC   PO445852   8.981  40.042   5.855
 9085POPC   GL145853   8.984  39.997   6.155
 9085POPC   GL245854   9.072  39.849   6.155
 9085POPC   C1A45855   8.970  39.961   6.455
 9085POPC   D2A45856   8.945  40.020   6.755
 9085POPC   C3A45857   8.926  40.054   7.055
 9085POPC   C4A45858   8.985  40.014   7.355
 9085POPC   C1B45859   9.067  39.779   6.455
 9085POPC   C2B45860   9.120  39.802   6.755
 9085POPC   C3B45861   9.039  39.819   7.055
 9085POPC   C4B45862   9.078  39.742   7.355
 9086POPC   NC345863  27.564   5.852   5.555
 9086POPC   PO445864  27.588   5.840   5.855
 9086POPC   GL145865  27.605   5.835   6.155
 9086POPC   GL245866  27.731   5.997   6.155
 9086POPC   C1A45867  27.588   5.917   6.455
 9086POPC   D2A45868  27.604   5.903   6.755
 9086POPC   C3A45869  27.623   5.913   7.055
 9086POPC   C4A45870  27.551   5.912   7.355
 9086POPC   C1B45871  27.812   6.050   6.455
 9086POPC   C2B45872  27.761   6.005   6.755
 9086POPC   C3B45873  27.787   6.047   7.055
 9086POPC   C4B45874  27.782   6.032   7.355
 9087POPC   NC345875  40.040   2.005   5.555
 9087POPC   PO445876  40.045   2.015   5.855
 9087POPC   GL145877  40.007   2.021   6.155
 9087POPC   GL245878  40.096   1.902   6.155
 9087POPC   C1A45879  39.981   1.956   6.455
 9087POPC   D2A45880  39.969   2.001   6.755
 9087POPC   C3A45881  40.002   1.999   7.055
 9087POPC   C4A45882  40.023   2.007   7.355
 9087POPC   C1B45883  40.124   1.783   6.455
 9087POPC   C2B45884  40.100   1.721   6.755
 9087POPC   C3B45885  40.133   1.743   7.055
 9087POPC   C4B45886  40.123   1.742   7.355
 9088POPC   NC345887  40.750  36.873   5.555
 9088POPC   PO445888  40.756  36.878   5.855
 9088POPC   GL145889  40.758  36.880   6.155
 9088POPC   GL245890  40.858  36.787   6.155
 9088POPC   C1A45891  40.780  36.928   6.455
 9088POPC   D2A45892  40.766  36.904   6.755
 9088POPC   C3A45893  40.795  36.898   7.055
 9088POPC   C4A45894  40.813  36.945   7.355
 9088POPC   C1B45895  40.975  36.761   6.455
 9088POPC   C2B45896  40.993  36.750   6.755
 9088POPC   C3B45897  41.033  36.777   7.055
 9088POPC   C4B45898  40.967  36.759   7.355
 9089POPC   NC345899   7.423  39.226   5.555
 9089POPC   PO445900   7.435  39.219   5.855
 9089POPC   GL145901   7.389  39.270   6.155
 9089POPC   GL245902   7.420  39.312   6.155
 9089POPC   C1A45903   7.413  39.274   6.455
 9089POPC   D2A45904   7.385  39.281   6.755
 9089POPC   C3A45905   7.412  39.273   7.055
 9089POPC   C4A45906   7.372  39.272   7.355
 9089POPC   C1B45907   7.398  39.441   6.455
 9089POPC   C2B45908   7.417  39.484   6.755
 9089POPC   C3B45909   7.447  39.520   7.055
 9089POPC   C4B45910   7.417  39.501   7.355
 9090POPC   NC345911  29.105   8.204   5.555
 9090POPC   PO445912  29.130   8.234   5.855
 9090POPC   GL145913  29.123   8.147   6.155
 9090POPC   GL245914  29.085   8.103   6.155
 9090POPC   C1A45915  29.170   8.174   6.455
 9090POPC   D2A45916  29.136   8.210   6.755
 9090POPC   C3A45917  29.193   8.149   7.055
 9090POPC   C4A45918  29.096   8.175   7.355
 9090POPC   C1B45919  28.949   8.027   6.455
 9090POPC   C2B45920  28.966   8.023   6.755
 9090POPC   C3B45921  28.902   8.007   7.055
 9090POPC   C4B45922  28.903   8.001   7.355
 9091POPC   NC345923   4.323  21.402   5.555
 9091POPC   PO445924   4.300  21.339   5.855
 9091POPC   GL145925   4.328  21.348   6.155
 9091POPC   GL245926   4.398  21.499   6.155
 9091POPC   C1A45927   4.361  21.340   6.455
 9091POPC   D2A45928   4.324  21.385   6.755
 9091POPC   C3A45929   4.343  21.349   7.055
 9091POPC   C4A45930   4.358  21.416   7.355
 9091POPC   C1B45931   4.501  21.557   6.455
 9091POPC   C2B45932   4.433  21.609   6.755
 9091POPC   C3B45933   4.414  21.634   7.055
 9091POPC   C4B45934   4.440  21.603   7.355
 9092POPC   NC345935  16.774   7.429   5.555
 9092POPC   PO445936  16.724   7.384   5.855
 9092POPC   GL145937  16.738   7.435   6.155
 9092POPC   GL245938  16.885   7.363   6.155
 9092POPC   C1A45939  16.705   7.449   6.455
 9092POPC   D2A45940  16.710   7.458   6.755
 9092POPC   C3A45941  16.710   7.450   7.055
 9092POPC   C4A45942  16.729   7.431   7.355
 9092POPC   C1B45943  16.935   7.288   6.455
 9092POPC   C2B45944  16.953   7.372   6.755
 9092POPC   C3B45945  16.959   7.328   7.055
 9092POPC   C4B45946  16.934   7.343   7.355
 9093POPC   NC345947  24.534  14.402   5.555
 9093POPC   PO445948  24.447  14.409   5.855
 9093POPC   GL145949  24.539  14.452   6.155
 9093POPC   GL245950  24.524  14.327   6.155
 9093POPC   C1A45951  24.523  14.430   6.455
 9093POPC   D2A45952  24.536  14.419   6.755
 9093POPC   C3A45953  24.529  14.418   7.055
 9093POPC   C4A45954  24.506  14.379   7.355
 9093POPC   C1B45955  24.539  14.136   6.455
 9093POPC   C2B45956  24.522  14.137   6.755
 9093POPC   C3B45957  24.526  14.158   7.055
 9093POPC   C4B45958  24.546  14.180   7.355
 9094POPC   NC345959  28.375   7.445   5.555
 9094POPC   PO445960  28.373   7.462   5.855
 9094POPC   GL145961  28.368   7.455   6.155
 9094POPC   GL245962  28.299   7.378   6.155
 9094POPC   C1A45963  28.329   7.429   6.455
 9094POPC   D2A45964  28.379   7.371   6.755
 9094POPC   C3A45965  28.348   7.381   7.055
 9094POPC   C4A45966  28.398   7.378   7.355
 9094POPC   C1B45967  28.159   7.260   6.455
 9094POPC   C2B45968  28.210   7.190   6.755
 9094POPC   C3B45969  28.191   7.255   7.055
 9094POPC   C4B45970  28.220   7.245   7.355
 9095POPC   NC345971  43.857  12.814   5.555
 9095POPC   PO445972  43.881  12.804   5.855
 9095POPC   GL145973  43.852  12.803   6.155
 9095POPC   GL245974  43.985  12.866   6.155
 9095POPC   C1A45975  43.849  12.858   6.455
 9095POPC   D2A45976  43.898  12.872   6.755
 9095POPC   C3A45977  43.856  12.885   7.055
 9095POPC   C4A45978  43.849  12.847   7.355
 9095POPC   C1B45979  44.101  12.808   6.455
 9095POPC   C2B45980  44.159  12.768   6.755
 9095POPC   C3B45981  44.142  12.764   7.055
 9095POPC   C4B45982  44.172  12.791   7.355
 9096POPC   NC345983  13.598  22.172   5.555
 9096POPC   PO445984  13.640  22.134   5.855
 9096POPC   GL145985  13.669  22.135   6.155
 9096POPC   GL245986  13.652  22.029   6.155
 9096POPC   C1A45987  13.656  22.182   6.455
 9096POPC   D2A45988  13.677  22.161   6.755
 9096POPC   C3A45989  13.662  22.164   7.055
 9096POPC   C4A45990  13.654  22.203   7.355
 9096POPC   C1B45991  13.557  21.910   6.455
 9096POPC   C2B45992  13.554  21.864   6.755
 9096POPC   C3B45993  13.581  21.946   7.055
 9096POPC   C4B45994  13.586  21.903   7.355
 9097POPC   NC345995   8.994   5.851   5.555
 9097POPC   PO445996   8.956   5.891   5.855
 9097POPC   GL145997   8.930   5.912   6.155
 9097POPC   GL245998   9.092   5.777   6.155
 9097POPC   C1A45999   8.989   5.912   6.455
 9097POPC   D2A46000   8.997   5.880   6.755
 9097POPC   C3A46001   8.948   5.886   7.055
 9097POPC   C4A46002   9.015   5.856   7.355
 9097POPC   C1B46003   9.133   5.668   6.455
 9097POPC   C2B46004   9.075   5.636   6.755
 9097POPC   C3B46005   9.168   5.708   7.055
 9097POPC   C4B46006   9.159   5.623   7.355
 9098POPC   NC346007  32.231  39.257   5.555
 9098POPC   PO446008  32.286  39.280   5.855
 9098POPC   GL146009  32.269  39.182   6.155
 9098POPC   GL246010  32.165  39.231   6.155
 9098POPC   C1A46011  32.276  39.199   6.455
 9098POPC   D2A46012  32.216  39.220   6.755
 9098POPC   C3A46013  32.276  39.209   7.055
 9098POPC   C4A46014  32.220  39.196   7.355
 9098POPC   C1B46015  32.000  39.353   6.455
 9098POPC   C2B46016  32.043  39.323   6.755
 9098POPC   C3B46017  31.969  39.314   7.055
 9098POPC   C4B46018  31.995  39.290   7.355
 9099POPC   NC346019  39.275  33.030   5.555
 9099POPC   PO446020  39.218  33.051   5.855
 9099POPC   GL146021  39.260  32.989   6.155
 9099POPC   GL246022  39.151  32.956   6.155
 9099POPC   C1A46023  39.224  32.980   6.455
 9099POPC   D2A46024  39.214  33.058   6.755
 9099POPC   C3A46025  39.216  33.034   7.055
 9099POPC   C4A46026  39.184  32.984   7.355
 9099POPC   C1B46027  39.011  32.936   6.455
 9099POPC   C2B46028  39.029  32.847   6.755
 9099POPC   C3B46029  39.024  32.939   7.055
 9099POPC   C4B46030  38.972  32.920   7.355
 9100POPC   NC346031  23.674  15.155   5.555
 9100POPC   PO446032  23.670  15.215   5.855
 9100POPC   GL146033  23.736  15.207   6.155
 9100POPC   GL246034  23.589  15.120   6.155
 9100POPC   C1A46035  23.750  15.228   6.455
 9100POPC   D2A46036  23.685  15.152   6.755
 9100POPC   C3A46037  23.673  15.162   7.055
 9100POPC   C4A46038  23.735  15.151   7.355
 9100POPC   C1B46039  23.524  15.026   6.455
 9100POPC   C2B46040  23.555  14.967   6.755
 9100POPC   C3B46041  23.563  14.988   7.055
 9100POPC   C4B46042  23.491  15.050   7.355
 9101POPC   NC346043  36.152  37.720   5.555
 9101POPC   PO446044  36.103  37.663   5.855
 9101POPC   GL146045  36.122  37.702   6.155
 9101POPC   GL246046  36.192  37.745   6.155
 9101POPC   C1A46047  36.117  37.643   6.455
 9101POPC   D2A46048  36.176  37.706   6.755
 9101POPC   C3A46049  36.159  37.687   7.055
 9101POPC   C4A46050  36.112  37.698   7.355
 9101POPC   C1B46051  36.328  37.778   6.455
 9101POPC   C2B46052  36.360  37.752   6.755
 9101POPC   C3B46053  36.324  37.781   7.055
 9101POPC   C4B46054  36.366  37.801   7.355
 9102POPC   NC346055  17.496  43.924   5.555
 9102POPC   PO446056  17.490  43.876   5.855
 9102POPC   GL146057  17.536  43.870   6.155
 9102POPC   GL246058  17.451  44.018   6.155
 9102POPC   C1A46059  17.511  43.868   6.455
 9102POPC   D2A46060  17.530  43.906   6.755
 9102POPC   C3A46061  17.473  43.924   7.055
 9102POPC   C4A46062  17.535  43.870   7.355
 9102POPC   C1B46063  17.425  44.173   6.455
 9102POPC   C2B46064  17.479  44.150   6.755
 9102POPC   C3B46065  17.417  44.083   7.055
 9102POPC   C4B46066  17.460  44.142   7.355
 9103POPC   NC346067  24.537  15.949   5.555
 9103POPC   PO446068  24.524  15.928   5.855
 9103POPC   GL146069  24.515  15.921   6.155
 9103POPC   GL246070  24.482  16.032   6.155
 9103POPC   C1A46071  24.444  15.970   6.455
 9103POPC   D2A46072  24.469  15.996   6.755
 9103POPC   C3A46073  24.512  15.989   7.055
 9103POPC   C4A46074  24.490  15.930   7.355
 9103POPC   C1B46075  24.362  16.200   6.455
 9103POPC   C2B46076  24.393  16.206   6.755
 9103POPC   C3B46077  24.371  16.145   7.055
 9103POPC   C4B46078  24.416  16.161   7.355
 9104POPC   NC346079  15.220  11.332   5.555
 9104POPC   PO446080  15.208  11.318   5.855
 9104POPC   GL146081  15.192  11.296   6.155
 9104POPC   GL246082  15.015  11.262   6.155
 9104POPC   C1A46083  15.166  11.345   6.455
 9104POPC   D2A46084  15.146  11.259   6.755
 9104POPC   C3A46085  15.206  11.263   7.055
 9104POPC   C4A46086  15.150  11.332   7.355
 9104POPC   C1B46087  14.957  11.360   6.455
 9104POPC   C2B46088  14.890  11.279   6.755
 9104POPC   C3B46089  14.957  11.281   7.055
 9104POPC   C4B46090  14.890  11.304   7.355
 9105POPC   NC346091  18.315   2.779   5.555
 9105POPC   PO446092  18.313   2.777   5.855
 9105POPC   GL146093  18.297   2.810   6.155
 9105POPC   GL246094  18.192   2.758   6.155
 9105POPC   C1A46095  18.244   2.767   6.455
 9105POPC   D2A46096  18.265   2.723   6.755
 9105POPC   C3A46097  18.280   2.729   7.055
 9105POPC   C4A46098  18.287   2.767   7.355
 9105POPC   C1B46099  18.007   2.699   6.455
 9105POPC   C2B46100  18.094   2.623   6.755
 9105POPC   C3B46101  18.088   2.671   7.055
 9105POPC   C4B46102  18.040   2.680   7.355
 9106POPC   NC346103   7.405   5.118   5.555
 9106POPC   PO446104   7.391   5.052   5.855
 9106POPC   GL146105   7.467   5.133   6.155
 9106POPC   GL246106   7.458   5.001   6.155
 9106POPC   C1A46107   7.452   5.069   6.455
 9106POPC   D2A46108   7.434   5.085   6.755
 9106POPC   C3A46109   7.446   5.122   7.055
 9106POPC   C4A46110   7.468   5.106   7.355
 9106POPC   C1B46111   7.556   4.940   6.455
 9106POPC   C2B46112   7.607   4.859   6.755
 9106POPC   C3B46113   7.593   4.950   7.055
 9106POPC   C4B46114   7.552   4.923   7.355
 9107POPC   NC346115  43.882  43.085   5.555
 9107POPC   PO446116  43.922  43.132   5.855
 9107POPC   GL146117  43.925  43.122   6.155
 9107POPC   GL246118  43.787  43.054   6.155
 9107POPC   C1A46119  43.841  43.157   6.455
 9107POPC   D2A46120  43.869  43.145   6.755
 9107POPC   C3A46121  43.856  43.096   7.055
 9107POPC   C4A46122  43.887  43.148   7.355
 9107POPC   C1B46123  43.599  43.075   6.455
 9107POPC   C2B46124  43.595  43.084   6.755
 9107POPC   C3B46125  43.625  43.042   7.055
 9107POPC   C4B46126  43.612  43.061   7.355
 9108POPC   NC346127  17.490  43.138   5.555
 9108POPC   PO446128  17.510  43.150   5.855
 9108POPC   GL146129  17.511  43.131   6.155
 9108POPC   GL246130  17.604  43.120   6.155
 9108POPC   C1A46131  17.475  43.066   6.455
 9108POPC   D2A46132  17.507  43.093   6.755
 9108POPC   C3A46133  17.530  43.141   7.055
 9108POPC   C4A46134  17.487  43.155   7.355
 9108POPC   C1B46135  17.785  43.163   6.455
 9108POPC   C2B46136  17.729  43.261   6.755
 9108POPC   C3B46137  17.751  43.189   7.055
 9108POPC   C4B46138  17.785  43.190   7.355
 9109POPC   NC346139  15.982  16.735   5.555
 9109POPC   PO446140  15.949  16.741   5.855
 9109POPC   GL146141  15.916  16.756   6.155
 9109POPC   GL246142  16.069  16.672   6.155
 9109POPC   C1A46143  15.921  16.745   6.455
 9109POPC   D2A46144  15.989  16.781   6.755
 9109POPC   C3A46145  15.996  16.779   7.055
 9109POPC   C4A46146  15.972  16.686   7.355
 9109POPC   C1B46147  16.153  16.654   6.455
 9109POPC   C2B46148  16.157  16.720   6.755
 9109POPC   C3B46149  16.197  16.700   7.055
 9109POPC   C4B46150  16.214  16.654   7.355
 9110POPC   NC346151   9.798  33.794   5.555
 9110POPC   PO446152   9.797  33.764   5.855
 9110POPC   GL146153   9.740  33.841   6.155
 9110POPC   GL246154   9.643  33.837   6.155
 9110POPC   C1A46155   9.741  33.825   6.455
 9110POPC   D2A46156   9.704  33.814   6.755
 9110POPC   C3A46157   9.779  33.751   7.055
 9110POPC   C4A46158   9.715  33.800   7.355
 9110POPC   C1B46159   9.520  33.854   6.455
 9110POPC   C2B46160   9.554  33.848   6.755
 9110POPC   C3B46161   9.477  33.819   7.055
 9110POPC   C4B46162   9.504  33.825   7.355
 9111POPC   NC346163  12.107  24.485   5.555
 9111POPC   PO446164  12.063  24.489   5.855
 9111POPC   GL146165  12.036  24.481   6.155
 9111POPC   GL246166  12.133  24.400   6.155
 9111POPC   C1A46167  12.068  24.472   6.455
 9111POPC   D2A46168  12.049  24.517   6.755
 9111POPC   C3A46169  12.042  24.503   7.055
 9111POPC   C4A46170  12.083  24.503   7.355
 9111POPC   C1B46171  12.224  24.305   6.455
 9111POPC   C2B46172  12.150  24.307   6.755
 9111POPC   C3B46173  12.174  24.249   7.055
 9111POPC   C4B46174  12.192  24.291   7.355
 9112POPC   NC346175  23.695  15.949   5.555
 9112POPC   PO446176  23.709  15.935   5.855
 9112POPC   GL146177  23.707  15.923   6.155
 9112POPC   GL246178  23.757  15.915   6.155
 9112POPC   C1A46179  23.697  15.914   6.455
 9112POPC   D2A46180  23.733  15.912   6.755
 9112POPC   C3A46181  23.702  15.970   7.055
 9112POPC   C4A46182  23.697  15.916   7.355
 9112POPC   C1B46183  23.884  15.741   6.455
 9112POPC   C2B46184  23.861  15.732   6.755
 9112POPC   C3B46185  23.925  15.801   7.055
 9112POPC   C4B46186  23.936  15.755   7.355
 9113POPC   NC346187  29.904   7.439   5.555
 9113POPC   PO446188  29.913   7.375   5.855
 9113POPC   GL146189  29.929   7.431   6.155
 9113POPC   GL246190  30.050   7.334   6.155
 9113POPC   C1A46191  29.947   7.462   6.455
 9113POPC   D2A46192  29.893   7.461   6.755
 9113POPC   C3A46193  29.876   7.374   7.055
 9113POPC   C4A46194  29.913   7.404   7.355
 9113POPC   C1B46195  30.139   7.232   6.455
 9113POPC   C2B46196  30.067   7.210   6.755
 9113POPC   C3B46197  30.141   7.267   7.055
 9113POPC   C4B46198  30.118   7.250   7.355
 9114POPC   NC346199  30.735   5.840   5.555
 9114POPC   PO446200  30.690   5.833   5.855
 9114POPC   GL146201  30.647   5.906   6.155
 9114POPC   GL246202  30.605   5.853   6.155
 9114POPC   C1A46203  30.687   5.901   6.455
 9114POPC   D2A46204  30.736   5.866   6.755
 9114POPC   C3A46205  30.685   5.872   7.055
 9114POPC   C4A46206  30.726   5.915   7.355
 9114POPC   C1B46207  30.409   5.888   6.455
 9114POPC   C2B46208  30.420   5.871   6.755
 9114POPC   C3B46209  30.416   5.884   7.055
 9114POPC   C4B46210  30.438   5.909   7.355
 9115POPC   NC346211  36.125   7.465   5.555
 9115POPC   PO446212  36.115   7.433   5.855
 9115POPC   GL146213  36.154   7.431   6.155
 9115POPC   GL246214  36.255   7.433   6.155
 9115POPC   C1A46215  36.113   7.434   6.455
 9115POPC   D2A46216  36.110   7.385   6.755
 9115POPC   C3A46217  36.122   7.431   7.055
 9115POPC   C4A46218  36.121   7.414   7.355
 9115POPC   C1B46219  36.329   7.471   6.455
 9115POPC   C2B46220  36.314   7.524   6.755
 9115POPC   C3B46221  36.399   7.560   7.055
 9115POPC   C4B46222  36.324   7.538   7.355
 9116POPC   NC346223  36.169   5.053   5.555
 9116POPC   PO446224  36.136   5.127   5.855
 9116POPC   GL146225  36.092   5.135   6.155
 9116POPC   GL246226  36.020   5.054   6.155
 9116POPC   C1A46227  36.093   5.122   6.455
 9116POPC   D2A46228  36.093   5.053   6.755
 9116POPC   C3A46229  36.098   5.139   7.055
 9116POPC   C4A46230  36.160   5.071   7.355
 9116POPC   C1B46231  35.904   5.092   6.455
 9116POPC   C2B46232  35.897   5.007   6.755
 9116POPC   C3B46233  35.918   5.039   7.055
 9116POPC   C4B46234  35.896   5.035   7.355
 9117POPC   NC346235  15.192  23.730   5.555
 9117POPC   PO446236  15.150  23.713   5.855
 9117POPC   GL146237  15.227  23.690   6.155
 9117POPC   GL246238  15.013  23.745   6.155
 9117POPC   C1A46239  15.182  23.677   6.455
 9117POPC   D2A46240  15.163  23.707   6.755
 9117POPC   C3A46241  15.198  23.691   7.055
 9117POPC   C4A46242  15.165  23.739   7.355
 9117POPC   C1B46243  14.910  23.665   6.455
 9117POPC   C2B46244  14.932  23.687   6.755
 9117POPC   C3B46245  14.897  23.655   7.055
 9117POPC   C4B46246  14.969  23.669   7.355
 9118POPC   NC346247   5.823  12.034   5.555
 9118POPC   PO446248   5.841  12.054   5.855
 9118POPC   GL146249   5.901  12.107   6.155
 9118POPC   GL246250   6.013  12.151   6.155
 9118POPC   C1A46251   5.914  12.090   6.455
 9118POPC   D2A46252   5.833  12.091   6.755
 9118POPC   C3A46253   5.885  12.039   7.055
 9118POPC   C4A46254   5.861  12.036   7.355
 9118POPC   C1B46255   6.099  12.181   6.455
 9118POPC   C2B46256   6.129  12.179   6.755
 9118POPC   C3B46257   6.138  12.131   7.055
 9118POPC   C4B46258   6.138  12.170   7.355
 9119POPC   NC346259  37.672   5.110   5.555
 9119POPC   PO446260  37.716   5.128   5.855
 9119POPC   GL146261  37.640   5.092   6.155
 9119POPC   GL246262  37.738   5.046   6.155
 9119POPC   C1A46263  37.711   5.106   6.455
 9119POPC   D2A46264  37.642   5.075   6.755
 9119POPC   C3A46265  37.649   5.091   7.055
 9119POPC   C4A46266  37.676   5.118   7.355
 9119POPC   C1B46267  37.859   4.919   6.455
 9119POPC   C2B46268  37.888   4.938   6.755
 9119POPC   C3B46269  37.903   4.932   7.055
 9119POPC   C4B46270  37.897   4.931   7.355
 9120POPC   NC346271   8.163   7.434   5.555
 9120POPC   PO446272   8.232   7.434   5.855
 9120POPC   GL146273   8.235   7.418   6.155
 9120POPC   GL246274   8.172   7.279   6.155
 9120POPC   C1A46275   8.222   7.378   6.455
 9120POPC   D2A46276   8.205   7.459   6.755
 9120POPC   C3A46277   8.180   7.437   7.055
 9120POPC   C4A46278   8.217   7.396   7.355
 9120POPC   C1B46279   8.145   7.218   6.455
 9120POPC   C2B46280   8.149   7.139   6.755
 9120POPC   C3B46281   8.149   7.129   7.055
 9120POPC   C4B46282   8.129   7.189   7.355
 9121POPC   NC346283  30.708  13.618   5.555
 9121POPC   PO446284  30.685  13.624   5.855
 9121POPC   GL146285  30.663  13.604   6.155
 9121POPC   GL246286  30.668  13.536   6.155
 9121POPC   C1A46287  30.649  13.597   6.455
 9121POPC   D2A46288  30.687  13.675   6.755
 9121POPC   C3A46289  30.745  13.634   7.055
 9121POPC   C4A46290  30.707  13.630   7.355
 9121POPC   C1B46291  30.589  13.392   6.455
 9121POPC   C2B46292  30.551  13.449   6.755
 9121POPC   C3B46293  30.563  13.427   7.055
 9121POPC   C4B46294  30.606  13.400   7.355
 9122POPC   NC346295   8.215  40.782   5.555
 9122POPC   PO446296   8.239  40.816   5.855
 9122POPC   GL146297   8.205  40.789   6.155
 9122POPC   GL246298   8.310  40.807   6.155
 9122POPC   C1A46299   8.235  40.749   6.455
 9122POPC   D2A46300   8.179  40.762   6.755
 9122POPC   C3A46301   8.162  40.739   7.055
 9122POPC   C4A46302   8.197  40.812   7.355
 9122POPC   C1B46303   8.379  40.911   6.455
 9122POPC   C2B46304   8.447  40.936   6.755
 9122POPC   C3B46305   8.367  40.867   7.055
 9122POPC   C4B46306   8.449  40.932   7.355
 9123POPC   NC346307  38.456  23.687   5.555
 9123POPC   PO446308  38.423  23.732   5.855
 9123POPC   GL146309  38.502  23.702   6.155
 9123POPC   GL246310  38.501  23.614   6.155
 9123POPC   C1A46311  38.471  23.755   6.455
 9123POPC   D2A46312  38.487  23.714   6.755
 9123POPC   C3A46313  38.476  23.755   7.055
 9123POPC   C4A46314  38.466  23.754   7.355
 9123POPC   C1B46315  38.642  23.511   6.455
 9123POPC   C2B46316  38.652  23.586   6.755
 9123POPC   C3B46317  38.630  23.544   7.055
 9123POPC   C4B46318  38.681  23.566   7.355
 9124POPC   NC346319  30.700   7.374   5.555
 9124POPC   PO446320  30.705   7.378   5.855
 9124POPC   GL146321  30.657   7.414   6.155
 9124POPC   GL246322  30.682   7.351   6.155
 9124POPC   C1A46323  30.722   7.395   6.455
 9124POPC   D2A46324  30.655   7.408   6.755
 9124POPC   C3A46325  30.717   7.386   7.055
 9124POPC   C4A46326  30.726   7.444   7.355
 9124POPC   C1B46327  30.591   7.201   6.455
 9124POPC   C2B46328  30.539   7.183   6.755
 9124POPC   C3B46329  30.596   7.205   7.055
 9124POPC   C4B46330  30.542   7.188   7.355
 9125POPC   NC346331   0.443  44.627   5.555
 9125POPC   PO446332   0.471  44.679   5.855
 9125POPC   GL146333   0.478  44.671   6.155
 9125POPC   GL246334   0.467  44.788   6.155
 9125POPC   C1A46335   0.463  44.678   6.455
 9125POPC   D2A46336   0.413  44.668   6.755
 9125POPC   C3A46337   0.458  44.613   7.055
 9125POPC   C4A46338   0.454  44.654   7.355
 9125POPC   C1B46339   0.578  44.930   6.455
 9125POPC   C2B46340   0.526  44.840   6.755
 9125POPC   C3B46341   0.553  44.853   7.055
 9125POPC   C4B46342   0.522  44.875   7.355
 9126POPC   NC346343  22.946   5.822   5.555
 9126POPC   PO446344  22.912   5.900   5.855
 9126POPC   GL146345  22.926   5.827   6.155
 9126POPC   GL246346  22.988   5.801   6.155
 9126POPC   C1A46347  22.948   5.875   6.455
 9126POPC   D2A46348  22.976   5.907   6.755
 9126POPC   C3A46349  22.914   5.891   7.055
 9126POPC   C4A46350  22.928   5.846   7.355
 9126POPC   C1B46351  23.038   5.636   6.455
 9126POPC   C2B46352  23.119   5.649   6.755
 9126POPC   C3B46353  23.076   5.659   7.055
 9126POPC   C4B46354  23.058   5.621   7.355
 9127POPC   NC346355  36.104  30.745   5.555
 9127POPC   PO446356  36.168  30.695   5.855
 9127POPC   GL146357  36.141  30.663   6.155
 9127POPC   GL246358  36.015  30.798   6.155
 9127POPC   C1A46359  36.140  30.719   6.455
 9127POPC   D2A46360  36.158  30.716   6.755
 9127POPC   C3A46361  36.102  30.691   7.055
 9127POPC   C4A46362  36.145  30.727   7.355
 9127POPC   C1B46363  35.911  30.782   6.455
 9127POPC   C2B46364  35.878  30.772   6.755
 9127POPC   C3B46365  35.928  30.781   7.055
 9127POPC   C4B46366  35.952  30.840   7.355
 9128POPC   NC346367  12.114  39.224   5.555
 9128POPC   PO446368  12.099  39.210   5.855
 9128POPC   GL146369  12.064  39.276   6.155
 9128POPC   GL246370  12.187  39.277   6.155
 9128POPC   C1A46371  12.088  39.243   6.455
 9128POPC   D2A46372  12.047  39.251   6.755
 9128POPC   C3A46373  12.112  39.231   7.055
 9128POPC   C4A46374  12.061  39.223   7.355
 9128POPC   C1B46375  12.357  39.273   6.455
 9128POPC   C2B46376  12.306  39.250   6.755
 9128POPC   C3B46377  12.364  39.216   7.055
 9128POPC   C4B46378  12.316  39.239   7.355
 9129POPC   NC346379  22.115  34.617   5.555
 9129POPC   PO446380  22.173  34.618   5.855
 9129POPC   GL146381  22.187  34.575   6.155
 9129POPC   GL246382  22.012  34.595   6.155
 9129POPC   C1A46383  22.133  34.617   6.455
 9129POPC   D2A46384  22.194  34.616   6.755
 9129POPC   C3A46385  22.172  34.576   7.055
 9129POPC   C4A46386  22.148  34.618   7.355
 9129POPC   C1B46387  21.951  34.754   6.455
 9129POPC   C2B46388  21.975  34.752   6.755
 9129POPC   C3B46389  21.949  34.669   7.055
 9129POPC   C4B46390  21.910  34.669   7.355
 9130POPC   NC346391   5.845  17.481   5.555
 9130POPC   PO446392   5.854  17.524   5.855
 9130POPC   GL146393   5.845  17.465   6.155
 9130POPC   GL246394   6.020  17.559   6.155
 9130POPC   C1A46395   5.907  17.467   6.455
 9130POPC   D2A46396   5.871  17.507   6.755
 9130POPC   C3A46397   5.845  17.555   7.055
 9130POPC   C4A46398   5.830  17.536   7.355
 9130POPC   C1B46399   6.142  17.615   6.455
 9130POPC   C2B46400   6.158  17.519   6.755
 9130POPC   C3B46401   6.144  17.595   7.055
 9130POPC   C4B46402   6.138  17.558   7.355
 9131POPC   NC346403  41.580  16.704   5.555
 9131POPC   PO446404  41.587  16.694   5.855
 9131POPC   GL146405  41.564  16.746   6.155
 9131POPC   GL246406  41.580  16.636   6.155
 9131POPC   C1A46407  41.561  16.767   6.455
 9131POPC   D2A46408  41.597  16.712   6.755
 9131POPC   C3A46409  41.587  16.767   7.055
 9131POPC   C4A46410  41.593  16.744   7.355
 9131POPC   C1B46411  41.636  16.547   6.455
 9131POPC   C2B46412  41.667  16.528   6.755
 9131POPC   C3B46413  41.712  16.536   7.055
 9131POPC   C4B46414  41.701  16.476   7.355
 9132POPC   NC346415  22.983   8.954   5.555
 9132POPC   PO446416  22.900   8.983   5.855
 9132POPC   GL146417  22.985   8.993   6.155
 9132POPC   GL246418  23.028   8.871   6.155
 9132POPC   C1A46419  22.915   8.932   6.455
 9132POPC   D2A46420  22.913   8.995   6.755
 9132POPC   C3A46421  22.927   9.016   7.055
 9132POPC   C4A46422  22.910   9.013   7.355
 9132POPC   C1B46423  23.124   8.818   6.455
 9132POPC   C2B46424  23.051   8.744   6.755
 9132POPC   C3B46425  23.122   8.821   7.055
 9132POPC   C4B46426  23.134   8.816   7.355
 9133POPC   NC346427  40.030  43.094   5.555
 9133POPC   PO446428  39.969  43.130   5.855
 9133POPC   GL146429  39.999  43.095   6.155
 9133POPC   GL246430  40.053  43.234   6.155
 9133POPC   C1A46431  39.982  43.091   6.455
 9133POPC   D2A46432  39.986  43.105   6.755
 9133POPC   C3A46433  40.051  43.106   7.055
 9133POPC   C4A46434  39.974  43.102   7.355
 9133POPC   C1B46435  40.202  43.295   6.455
 9133POPC   C2B46436  40.151  43.358   6.755
 9133POPC   C3B46437  40.173  43.329   7.055
 9133POPC   C4B46438  40.203  43.267   7.355
 9134POPC   NC346439  41.608   2.027   5.555
 9134POPC   PO446440  41.551   1.949   5.855
 9134POPC   GL146441  41.513   1.965   6.155
 9134POPC   GL246442  41.437   2.022   6.155
 9134POPC   C1A46443  41.544   1.984   6.455
 9134POPC   D2A46444  41.544   1.982   6.755
 9134POPC   C3A46445  41.575   1.956   7.055
 9134POPC   C4A46446  41.557   2.005   7.355
 9134POPC   C1B46447  41.344   2.041   6.455
 9134POPC   C2B46448  41.361   2.097   6.755
 9134POPC   C3B46449  41.269   2.080   7.055
 9134POPC   C4B46450  41.298   2.057   7.355
 9135POPC   NC346451   5.834   4.286   5.555
 9135POPC   PO446452   5.839   4.326   5.855
 9135POPC   GL146453   5.882   4.332   6.155
 9135POPC   GL246454   5.744   4.344   6.155
 9135POPC   C1A46455   5.874   4.367   6.455
 9135POPC   D2A46456   5.878   4.364   6.755
 9135POPC   C3A46457   5.893   4.269   7.055
 9135POPC   C4A46458   5.904   4.275   7.355
 9135POPC   C1B46459   5.648   4.391   6.455
 9135POPC   C2B46460   5.604   4.376   6.755
 9135POPC   C3B46461   5.652   4.410   7.055
 9135POPC   C4B46462   5.676   4.418   7.355
 9136POPC   NC346463  33.803   0.456   5.555
 9136POPC   PO446464  33.789   0.486   5.855
 9136POPC   GL146465  33.781   0.424   6.155
 9136POPC   GL246466  33.726   0.301   6.155
 9136POPC   C1A46467  33.767   0.450   6.455
 9136POPC   D2A46468  33.775   0.477   6.755
 9136POPC   C3A46469  33.764   0.393   7.055
 9136POPC   C4A46470  33.784   0.475   7.355
 9136POPC   C1B46471  33.677   0.232   6.455
 9136POPC   C2B46472  33.679   0.298   6.755
 9136POPC   C3B46473  33.649   0.286   7.055
 9136POPC   C4B46474  33.586   0.246   7.355
 9137POPC   NC346475  10.505   2.753   5.555
 9137POPC   PO446476  10.487   2.764   5.855
 9137POPC   GL146477  10.518   2.718   6.155
 9137POPC   GL246478  10.572   2.862   6.155
 9137POPC   C1A46479  10.529   2.802   6.455
 9137POPC   D2A46480  10.562   2.730   6.755
 9137POPC   C3A46481  10.567   2.740   7.055
 9137POPC   C4A46482  10.481   2.716   7.355
 9137POPC   C1B46483  10.588   3.020   6.455
 9137POPC   C2B46484  10.608   2.970   6.755
 9137POPC   C3B46485  10.576   3.041   7.055
 9137POPC   C4B46486  10.658   3.010   7.355
 9138POPC   NC346487  31.517  30.651   5.555
 9138POPC   PO446488  31.451  30.731   5.855
 9138POPC   GL146489  31.429  30.665   6.155
 9138POPC   GL246490  31.529  30.794   6.155
 9138POPC   C1A46491  31.443  30.690   6.455
 9138POPC   D2A46492  31.519  30.715   6.755
 9138POPC   C3A46493  31.431  30.721   7.055
 9138POPC   C4A46494  31.437  30.733   7.355
 9138POPC   C1B46495  31.490  30.967   6.455
 9138POPC   C2B46496  31.528  30.915   6.755
 9138POPC   C3B46497  31.498  30.985   7.055
 9138POPC   C4B46498  31.533  30.988   7.355
 9139POPC   NC346499  36.151  33.029   5.555
 9139POPC   PO446500  36.104  33.030   5.855
 9139POPC   GL146501  36.093  33.068   6.155
 9139POPC   GL246502  35.991  33.060   6.155
 9139POPC   C1A46503  36.137  32.996   6.455
 9139POPC   D2A46504  36.104  32.985   6.755
 9139POPC   C3A46505  36.127  33.057   7.055
 9139POPC   C4A46506  36.083  33.000   7.355
 9139POPC   C1B46507  35.900  33.106   6.455
 9139POPC   C2B46508  35.841  33.103   6.755
 9139POPC   C3B46509  35.895  33.092   7.055
 9139POPC   C4B46510  35.906  33.054   7.355
 9140POPC   NC346511  23.668  29.970   5.555
 9140POPC   PO446512  23.745  29.904   5.855
 9140POPC   GL146513  23.666  29.944   6.155
 9140POPC   GL246514  23.624  29.756   6.155
 9140POPC   C1A46515  23.678  29.924   6.455
 9140POPC   D2A46516  23.695  29.918   6.755
 9140POPC   C3A46517  23.678  29.970   7.055
 9140POPC   C4A46518  23.719  29.942   7.355
 9140POPC   C1B46519  23.588  29.719   6.455
 9140POPC   C2B46520  23.571  29.683   6.755
 9140POPC   C3B46521  23.663  29.679   7.055
 9140POPC   C4B46522  23.578  29.643   7.355
 9141POPC   NC346523   1.232  33.775   5.555
 9141POPC   PO446524   1.226  33.776   5.855
 9141POPC   GL146525   1.187  33.815   6.155
 9141POPC   GL246526   1.163  33.886   6.155
 9141POPC   C1A46527   1.192  33.824   6.455
 9141POPC   D2A46528   1.224  33.773   6.755
 9141POPC   C3A46529   1.257  33.815   7.055
 9141POPC   C4A46530   1.175  33.832   7.355
 9141POPC   C1B46531   1.034  33.981   6.455
 9141POPC   C2B46532   1.011  34.010   6.755
 9141POPC   C3B46533   0.996  34.030   7.055
 9141POPC   C4B46534   1.069  34.000   7.355
 9142POPC   NC346535  12.082   9.716   5.555
 9142POPC   PO446536  12.037   9.728   5.855
 9142POPC   GL146537  12.101   9.776   6.155
 9142POPC   GL246538  12.160   9.653   6.155
 9142POPC   C1A46539  12.109   9.742   6.455
 9142POPC   D2A46540  12.059   9.757   6.755
 9142POPC   C3A46541  12.072   9.790   7.055
 9142POPC   C4A46542  12.088   9.746   7.355
 9142POPC   C1B46543  12.231   9.570   6.455
 9142POPC   C2B46544  12.227   9.584   6.755
 9142POPC   C3B46545  12.276   9.535   7.055
 9142POPC   C4B46546  12.250   9.565   7.355
 9143POPC   NC346547  44.626  44.684   5.555
 9143POPC   PO446548  44.660  44.648   5.855
 9143POPC   GL146549  44.686  44.677   6.155
 9143POPC   GL246550  44.685  44.578   6.155
 9143POPC   C1A46551  44.639  44.698   6.455
 9143POPC   D2A46552  44.676  44.672   6.755
 9143POPC   C3A46553  44.662  44.706   7.055
 9143POPC   C4A46554  44.701  44.661   7.355
 9143POPC   C1B46555  44.650  44.396   6.455
 9143POPC   C2B46556  44.624  44.394   6.755
 9143POPC   C3B46557  44.590  44.447   7.055
 9143POPC   C4B46558  44.607  44.455   7.355
 9144POPC   NC346559  22.929   4.316   5.555
 9144POPC   PO446560  22.903   4.297   5.855
 9144POPC   GL146561  22.900   4.363   6.155
 9144POPC   GL246562  22.886   4.270   6.155
 9144POPC   C1A46563  22.895   4.293   6.455
 9144POPC   D2A46564  22.987   4.339   6.755
 9144POPC   C3A46565  22.940   4.328   7.055
 9144POPC   C4A46566  22.897   4.363   7.355
 9144POPC   C1B46567  22.751   4.164   6.455
 9144POPC   C2B46568  22.737   4.136   6.755
 9144POPC   C3B46569  22.743   4.154   7.055
 9144POPC   C4B46570  22.815   4.111   7.355
 9145POPC   NC346571  22.201  20.596   5.555
 9145POPC   PO446572  22.208  20.629   5.855
 9145POPC   GL146573  22.154  20.578   6.155
 9145POPC   GL246574  22.255  20.627   6.155
 9145POPC   C1A46575  22.145  20.631   6.455
 9145POPC   D2A46576  22.161  20.573   6.755
 9145POPC   C3A46577  22.126  20.624   7.055
 9145POPC   C4A46578  22.171  20.611   7.355
 9145POPC   C1B46579  22.420  20.625   6.455
 9145POPC   C2B46580  22.363  20.661   6.755
 9145POPC   C3B46581  22.368  20.624   7.055
 9145POPC   C4B46582  22.419  20.603   7.355
 9146POPC   NC346583  12.842  42.350   5.555
 9146POPC   PO446584  12.885  42.334   5.855
 9146POPC   GL146585  12.827  42.294   6.155
 9146POPC   GL246586  12.867  42.446   6.155
 9146POPC   C1A46587  12.838  42.310   6.455
 9146POPC   D2A46588  12.802  42.383   6.755
 9146POPC   C3A46589  12.899  42.301   7.055
 9146POPC   C4A46590  12.834  42.377   7.355
 9146POPC   C1B46591  12.907  42.620   6.455
 9146POPC   C2B46592  12.936  42.562   6.755
 9146POPC   C3B46593  12.897  42.617   7.055
 9146POPC   C4B46594  12.954  42.526   7.355
 9147POPC   NC346595  34.544   3.538   5.555
 9147POPC   PO446596  34.600   3.536   5.855
 9147POPC   GL146597  34.575   3.540   6.155
 9147POPC   GL246598  34.683   3.637   6.155
 9147POPC   C1A46599  34.611   3.545   6.455
 9147POPC   D2A46600  34.536   3.568   6.755
 9147POPC   C3A46601  34.553   3.554   7.055
 9147POPC   C4A46602  34.591   3.500   7.355
 9147POPC   C1B46603  34.743   3.732   6.455
 9147POPC   C2B46604  34.688   3.712   6.755
 9147POPC   C3B46605  34.651   3.803   7.055
 9147POPC   C4B46606  34.651   3.773   7.355
 9148POPC   NC346607   6.610  37.684   5.555
 9148POPC   PO446608   6.691  37.689   5.855
 9148POPC   GL146609   6.595  37.648   6.155
 9148POPC   GL246610   6.725  37.574   6.155
 9148POPC   C1A46611   6.620  37.667   6.455
 9148POPC   D2A46612   6.651  37.638   6.755
 9148POPC   C3A46613   6.683  37.687   7.055
 9148POPC   C4A46614   6.693  37.650   7.355
 9148POPC   C1B46615   6.836  37.520   6.455
 9148POPC   C2B46616   6.787  37.521   6.755
 9148POPC   C3B46617   6.837  37.513   7.055
 9148POPC   C4B46618   6.846  37.537   7.355
 9149POPC   NC346619   5.053   5.881   5.555
 9149POPC   PO446620   5.108   5.884   5.855
 9149POPC   GL146621   5.066   5.849   6.155
 9149POPC   GL246622   5.252   5.934   6.155
 9149POPC   C1A46623   5.115   5.851   6.455
 9149POPC   D2A46624   5.065   5.910   6.755
 9149POPC   C3A46625   5.131   5.908   7.055
 9149POPC   C4A46626   5.078   5.828   7.355
 9149POPC   C1B46627   5.310   5.989   6.455
 9149POPC   C2B46628   5.277   5.983   6.755
 9149POPC   C3B46629   5.277   6.016   7.055
 9149POPC   C4B46630   5.340   6.019   7.355
 9150POPC   NC346631  20.605  25.996   5.555
 9150POPC   PO446632  20.577  26.089   5.855
 9150POPC   GL146633  20.582  26.047   6.155
 9150POPC   GL246634  20.519  25.911   6.155
 9150POPC   C1A46635  20.618  26.082   6.455
 9150POPC   D2A46636  20.603  26.060   6.755
 9150POPC   C3A46637  20.644  26.086   7.055
 9150POPC   C4A46638  20.620  26.005   7.355
 9150POPC   C1B46639  20.416  25.924   6.455
 9150POPC   C2B46640  20.435  25.919   6.755
 9150POPC   C3B46641  20.409  25.884   7.055
 9150POPC   C4B46642  20.414  25.843   7.355
 9151POPC   NC346643  22.206  43.099   5.555
 9151POPC   PO446644  22.156  43.066   5.855
 9151POPC   GL146645  22.191  43.148   6.155
 9151POPC   GL246646  22.281  43.190   6.155
 9151POPC   C1A46647  22.200  43.084   6.455
 9151POPC   D2A46648  22.139  43.133   6.755
 9151POPC   C3A46649  22.167  43.129   7.055
 9151POPC   C4A46650  22.141  43.101   7.355
 9151POPC   C1B46651  22.300  43.249   6.455
 9151POPC   C2B46652  22.344  43.245   6.755
 9151POPC   C3B46653  22.325  43.283   7.055
 9151POPC   C4B46654  22.365  43.250   7.355
 9152POPC   NC346655  24.538  29.930   5.555
 9152POPC   PO446656  24.508  29.881   5.855
 9152POPC   GL146657  24.511  29.960   6.155
 9152POPC   GL246658  24.619  30.026   6.155
 9152POPC   C1A46659  24.474  29.965   6.455
 9152POPC   D2A46660  24.452  29.927   6.755
 9152POPC   C3A46661  24.495  29.959   7.055
 9152POPC   C4A46662  24.511  29.958   7.355
 9152POPC   C1B46663  24.681  30.087   6.455
 9152POPC   C2B46664  24.625  30.128   6.755
 9152POPC   C3B46665  24.611  30.090   7.055
 9152POPC   C4B46666  24.638  30.126   7.355
 9153POPC   NC346667  19.071  26.855   5.555
 9153POPC   PO446668  19.092  26.841   5.855
 9153POPC   GL146669  19.021  26.854   6.155
 9153POPC   GL246670  19.006  26.740   6.155
 9153POPC   C1A46671  19.035  26.814   6.455
 9153POPC   D2A46672  19.054  26.782   6.755
 9153POPC   C3A46673  19.085  26.791   7.055
 9153POPC   C4A46674  19.015  26.862   7.355
 9153POPC   C1B46675  18.824  26.642   6.455
 9153POPC   C2B46676  18.900  26.602   6.755
 9153POPC   C3B46677  18.872  26.629   7.055
 9153POPC   C4B46678  18.835  26.685   7.355
 9154POPC   NC346679  15.907  14.450   5.555
 9154POPC   PO446680  15.915  14.430   5.855
 9154POPC   GL146681  15.916  14.412   6.155
 9154POPC   GL246682  16.105  14.379   6.155
 9154POPC   C1A46683  15.959  14.391   6.455
 9154POPC   D2A46684  15.930  14.359   6.755
 9154POPC   C3A46685  15.996  14.442   7.055
 9154POPC   C4A46686  15.954  14.393   7.355
 9154POPC   C1B46687  16.206  14.424   6.455
 9154POPC   C2B46688  16.155  14.427   6.755
 9154POPC   C3B46689  16.215  14.451   7.055
 9154POPC   C4B46690  16.151  14.439   7.355
 9155POPC   NC346691   6.676  19.010   5.555
 9155POPC   PO446692   6.651  19.078   5.855
 9155POPC   GL146693   6.640  19.044   6.155
 9155POPC   GL246694   6.502  19.079   6.155
 9155POPC   C1A46695   6.673  19.010   6.455
 9155POPC   D2A46696   6.618  19.104   6.755
 9155POPC   C3A46697   6.653  19.077   7.055
 9155POPC   C4A46698   6.641  19.034   7.355
 9155POPC   C1B46699   6.442  19.159   6.455
 9155POPC   C2B46700   6.469  19.221   6.755
 9155POPC   C3B46701   6.461  19.162   7.055
 9155POPC   C4B46702   6.396  19.172   7.355
 9156POPC   NC346703  42.375   2.020   5.555
 9156POPC   PO446704  42.318   2.035   5.855
 9156POPC   GL146705  42.359   1.950   6.155
 9156POPC   GL246706  42.443   1.980   6.155
 9156POPC   C1A46707  42.310   1.966   6.455
 9156POPC   D2A46708  42.365   1.948   6.755
 9156POPC   C3A46709  42.296   1.995   7.055
 9156POPC   C4A46710  42.327   1.962   7.355
 9156POPC   C1B46711  42.567   2.014   6.455
 9156POPC   C2B46712  42.619   2.089   6.755
 9156POPC   C3B46713  42.617   2.034   7.055
 9156POPC   C4B46714  42.563   2.033   7.355
 9157POPC   NC346715  36.150  27.592   5.555
 9157POPC   PO446716  36.099  27.575   5.855
 9157POPC   GL146717  36.154  27.595   6.155
 9157POPC   GL246718  36.020  27.528   6.155
 9157POPC   C1A46719  36.112  27.559   6.455
 9157POPC   D2A46720  36.094  27.640   6.755
 9157POPC   C3A46721  36.121  27.581   7.055
 9157POPC   C4A46722  36.172  27.580   7.355
 9157POPC   C1B46723  35.959  27.409   6.455
 9157POPC   C2B46724  35.917  27.472   6.755
 9157POPC   C3B46725  35.903  27.481   7.055
 9157POPC   C4B46726  35.974  27.479   7.355
 9158POPC   NC346727   2.034  30.693   5.555
 9158POPC   PO446728   1.982  30.649   5.855
 9158POPC   GL146729   2.023  30.672   6.155
 9158POPC   GL246730   1.914  30.624   6.155
 9158POPC   C1A46731   1.996  30.722   6.455
 9158POPC   D2A46732   1.942  30.673   6.755
 9158POPC   C3A46733   1.969  30.649   7.055
 9158POPC   C4A46734   1.975  30.688   7.355
 9158POPC   C1B46735   1.921  30.411   6.455
 9158POPC   C2B46736   1.963  30.504   6.755
 9158POPC   C3B46737   1.874  30.504   7.055
 9158POPC   C4B46738   1.930  30.410   7.355
 9159POPC   NC346739  20.637  32.248   5.555
 9159POPC   PO446740  20.626  32.245   5.855
 9159POPC   GL146741  20.578  32.298   6.155
 9159POPC   GL246742  20.710  32.322   6.155
 9159POPC   C1A46743  20.569  32.271   6.455
 9159POPC   D2A46744  20.614  32.280   6.755
 9159POPC   C3A46745  20.643  32.258   7.055
 9159POPC   C4A46746  20.614  32.260   7.355
 9159POPC   C1B46747  20.771  32.441   6.455
 9159POPC   C2B46748  20.810  32.483   6.755
 9159POPC   C3B46749  20.811  32.481   7.055
 9159POPC   C4B46750  20.816  32.438   7.355
 9160POPC   NC346751  10.524   1.194   5.555
 9160POPC   PO446752  10.535   1.236   5.855
 9160POPC   GL146753  10.532   1.192   6.155
 9160POPC   GL246754  10.625   1.277   6.155
 9160POPC   C1A46755  10.496   1.239   6.455
 9160POPC   D2A46756  10.563   1.190   6.755
 9160POPC   C3A46757  10.476   1.249   7.055
 9160POPC   C4A46758  10.489   1.259   7.355
 9160POPC   C1B46759  10.675   1.429   6.455
 9160POPC   C2B46760  10.723   1.403   6.755
 9160POPC   C3B46761  10.702   1.429   7.055
 9160POPC   C4B46762  10.733   1.404   7.355
 9161POPC   NC346763  18.252  17.507   5.555
 9161POPC   PO446764  18.281  17.531   5.855
 9161POPC   GL146765  18.322  17.463   6.155
 9161POPC   GL246766  18.364  17.443   6.155
 9161POPC   C1A46767  18.290  17.546   6.455
 9161POPC   D2A46768  18.301  17.492   6.755
 9161POPC   C3A46769  18.315  17.547   7.055
 9161POPC   C4A46770  18.284  17.518   7.355
 9161POPC   C1B46771  18.492  17.368   6.455
 9161POPC   C2B46772  18.535  17.435   6.755
 9161POPC   C3B46773  18.526  17.394   7.055
 9161POPC   C4B46774  18.456  17.426   7.355
 9162POPC   NC346775  14.371   2.779   5.555
 9162POPC   PO446776  14.392   2.812   5.855
 9162POPC   GL146777  14.420   2.736   6.155
 9162POPC   GL246778  14.407   2.841   6.155
 9162POPC   C1A46779  14.420   2.776   6.455
 9162POPC   D2A46780  14.431   2.810   6.755
 9162POPC   C3A46781  14.439   2.798   7.055
 9162POPC   C4A46782  14.416   2.800   7.355
 9162POPC   C1B46783  14.335   3.017   6.455
 9162POPC   C2B46784  14.300   3.026   6.755
 9162POPC   C3B46785  14.349   2.949   7.055
 9162POPC   C4B46786  14.344   2.989   7.355
 9163POPC   NC346787   9.784  44.692   5.555
 9163POPC   PO446788   9.710  44.634   5.855
 9163POPC   GL146789   9.737  44.620   6.155
 9163POPC   GL246790   9.749  44.501   6.155
 9163POPC   C1A46791   9.731  44.661   6.455
 9163POPC   D2A46792   9.773  44.628   6.755
 9163POPC   C3A46793   9.780  44.657   7.055
 9163POPC   C4A46794   9.776  44.656   7.355
 9163POPC   C1B46795   9.769  44.463   6.455
 9163POPC   C2B46796   9.746  44.429   6.755
 9163POPC   C3B46797   9.794  44.386   7.055
 9163POPC   C4B46798   9.796  44.368   7.355
 9164POPC   NC346799  38.440   1.208   5.555
 9164POPC   PO446800  38.474   1.214   5.855
 9164POPC   GL146801  38.419   1.249   6.155
 9164POPC   GL246802  38.478   1.289   6.155
 9164POPC   C1A46803  38.467   1.183   6.455
 9164POPC   D2A46804  38.478   1.207   6.755
 9164POPC   C3A46805  38.435   1.208   7.055
 9164POPC   C4A46806  38.439   1.177   7.355
 9164POPC   C1B46807  38.527   1.482   6.455
 9164POPC   C2B46808  38.595   1.402   6.755
 9164POPC   C3B46809  38.588   1.487   7.055
 9164POPC   C4B46810  38.603   1.433   7.355
 9165POPC   NC346811  25.286   1.964   5.555
 9165POPC   PO446812  25.272   2.037   5.855
 9165POPC   GL146813  25.280   2.011   6.155
 9165POPC   GL246814  25.357   1.960   6.155
 9165POPC   C1A46815  25.311   1.988   6.455
 9165POPC   D2A46816  25.224   1.956   6.755
 9165POPC   C3A46817  25.236   1.962   7.055
 9165POPC   C4A46818  25.293   1.954   7.355
 9165POPC   C1B46819  25.497   2.013   6.455
 9165POPC   C2B46820  25.518   1.932   6.755
 9165POPC   C3B46821  25.548   1.953   7.055
 9165POPC   C4B46822  25.536   2.005   7.355
 9166POPC   NC346823  18.260  22.896   5.555
 9166POPC   PO446824  18.233  22.981   5.855
 9166POPC   GL146825  18.268  22.968   6.155
 9166POPC   GL246826  18.410  22.927   6.155
 9166POPC   C1A46827  18.329  22.941   6.455
 9166POPC   D2A46828  18.235  22.888   6.755
 9166POPC   C3A46829  18.271  22.984   7.055
 9166POPC   C4A46830  18.301  22.949   7.355
 9166POPC   C1B46831  18.563  23.004   6.455
 9166POPC   C2B46832  18.508  22.945   6.755
 9166POPC   C3B46833  18.534  23.032   7.055
 9166POPC   C4B46834  18.575  22.972   7.355
 9167POPC   NC346835  31.458   1.969   5.555
 9167POPC   PO446836  31.493   2.026   5.855
 9167POPC   GL146837  31.451   1.951   6.155
 9167POPC   GL246838  31.420   1.909   6.155
 9167POPC   C1A46839  31.439   2.018   6.455
 9167POPC   D2A46840  31.427   1.970   6.755
 9167POPC   C3A46841  31.495   2.038   7.055
 9167POPC   C4A46842  31.425   1.989   7.355
 9167POPC   C1B46843  31.263   1.838   6.455
 9167POPC   C2B46844  31.257   1.802   6.755
 9167POPC   C3B46845  31.295   1.753   7.055
 9167POPC   C4B46846  31.273   1.771   7.355
 9168POPC   NC346847  36.912  35.335   5.555
 9168POPC   PO446848  36.871  35.363   5.855
 9168POPC   GL146849  36.908  35.310   6.155
 9168POPC   GL246850  36.845  35.417   6.155
 9168POPC   C1A46851  36.861  35.343   6.455
 9168POPC   D2A46852  36.867  35.335   6.755
 9168POPC   C3A46853  36.933  35.319   7.055
 9168POPC   C4A46854  36.945  35.312   7.355
 9168POPC   C1B46855  36.803  35.538   6.455
 9168POPC   C2B46856  36.798  35.588   6.755
 9168POPC   C3B46857  36.767  35.549   7.055
 9168POPC   C4B46858  36.796  35.588   7.355
 9169POPC   NC346859  12.057  20.562   5.555
 9169POPC   PO446860  12.026  20.579   5.855
 9169POPC   GL146861  12.074  20.565   6.155
 9169POPC   GL246862  12.143  20.722   6.155
 9169POPC   C1A46863  12.030  20.655   6.455
 9169POPC   D2A46864  12.056  20.652   6.755
 9169POPC   C3A46865  12.027  20.625   7.055
 9169POPC   C4A46866  12.027  20.591   7.355
 9169POPC   C1B46867  12.171  20.853   6.455
 9169POPC   C2B46868  12.221  20.845   6.755
 9169POPC   C3B46869  12.209  20.816   7.055
 9169POPC   C4B46870  12.252  20.810   7.355
 9170POPC   NC346871  15.963   3.504   5.555
 9170POPC   PO446872  15.925   3.532   5.855
 9170POPC   GL146873  15.962   3.570   6.155
 9170POPC   GL246874  15.985   3.642   6.155
 9170POPC   C1A46875  15.961   3.572   6.455
 9170POPC   D2A46876  15.930   3.499   6.755
 9170POPC   C3A46877  15.923   3.492   7.055
 9170POPC   C4A46878  15.979   3.554   7.355
 9170POPC   C1B46879  16.007   3.823   6.455
 9170POPC   C2B46880  16.070   3.779   6.755
 9170POPC   C3B46881  16.048   3.783   7.055
 9170POPC   C4B46882  16.057   3.761   7.355
 9171POPC   NC346883  30.682  10.474   5.555
 9171POPC   PO446884  30.702  10.495   5.855
 9171POPC   GL146885  30.673  10.517   6.155
 9171POPC   GL246886  30.786  10.630   6.155
 9171POPC   C1A46887  30.659  10.539   6.455
 9171POPC   D2A46888  30.734  10.546   6.755
 9171POPC   C3A46889  30.661  10.489   7.055
 9171POPC   C4A46890  30.695  10.531   7.355
 9171POPC   C1B46891  30.833  10.734   6.455
 9171POPC   C2B46892  30.773  10.784   6.755
 9171POPC   C3B46893  30.791  10.799   7.055
 9171POPC   C4B46894  30.774  10.786   7.355
 9172POPC   NC346895  29.128  28.389   5.555
 9172POPC   PO446896  29.164  28.368   5.855
 9172POPC   GL146897  29.191  28.370   6.155
 9172POPC   GL246898  29.154  28.225   6.155
 9172POPC   C1A46899  29.110  28.346   6.455
 9172POPC   D2A46900  29.163  28.364   6.755
 9172POPC   C3A46901  29.137  28.403   7.055
 9172POPC   C4A46902  29.124  28.407   7.355
 9172POPC   C1B46903  29.121  28.132   6.455
 9172POPC   C2B46904  29.135  28.144   6.755
 9172POPC   C3B46905  29.141  28.094   7.055
 9172POPC   C4B46906  29.139  28.115   7.355
 9173POPC   NC346907  22.135  12.113   5.555
 9173POPC   PO446908  22.127  12.086   5.855
 9173POPC   GL146909  22.185  12.038   6.155
 9173POPC   GL246910  22.309  12.124   6.155
 9173POPC   C1A46911  22.147  12.107   6.455
 9173POPC   D2A46912  22.154  12.075   6.755
 9173POPC   C3A46913  22.202  12.116   7.055
 9173POPC   C4A46914  22.115  12.073   7.355
 9173POPC   C1B46915  22.382  12.168   6.455
 9173POPC   C2B46916  22.412  12.172   6.755
 9173POPC   C3B46917  22.403  12.117   7.055
 9173POPC   C4B46918  22.388  12.124   7.355
 9174POPC   NC346919  43.871  34.571   5.555
 9174POPC   PO446920  43.845  34.533   5.855
 9174POPC   GL146921  43.924  34.600   6.155
 9174POPC   GL246922  43.907  34.727   6.155
 9174POPC   C1A46923  43.924  34.620   6.455
 9174POPC   D2A46924  43.929  34.616   6.755
 9174POPC   C3A46925  43.867  34.531   7.055
 9174POPC   C4A46926  43.892  34.545   7.355
 9174POPC   C1B46927  44.022  34.798   6.455
 9174POPC   C2B46928  44.020  34.757   6.755
 9174POPC   C3B46929  44.054  34.825   7.055
 9174POPC   C4B46930  44.063  34.824   7.355
 9175POPC   NC346931  33.817  41.581   5.555
 9175POPC   PO446932  33.824  41.574   5.855
 9175POPC   GL146933  33.823  41.531   6.155
 9175POPC   GL246934  33.930  41.522   6.155
 9175POPC   C1A46935  33.797  41.554   6.455
 9175POPC   D2A46936  33.794  41.577   6.755
 9175POPC   C3A46937  33.753  41.586   7.055
 9175POPC   C4A46938  33.788  41.573   7.355
 9175POPC   C1B46939  34.066  41.525   6.455
 9175POPC   C2B46940  34.068  41.540   6.755
 9175POPC   C3B46941  33.999  41.550   7.055
 9175POPC   C4B46942  34.021  41.491   7.355
 9176POPC   NC346943  24.491  37.644   5.555
 9176POPC   PO446944  24.464  37.722   5.855
 9176POPC   GL146945  24.530  37.678   6.155
 9176POPC   GL246946  24.606  37.692   6.155
 9176POPC   C1A46947  24.511  37.643   6.455
 9176POPC   D2A46948  24.502  37.724   6.755
 9176POPC   C3A46949  24.490  37.716   7.055
 9176POPC   C4A46950  24.533  37.660   7.355
 9176POPC   C1B46951  24.698  37.672   6.455
 9176POPC   C2B46952  24.735  37.710   6.755
 9176POPC   C3B46953  24.740  37.731   7.055
 9176POPC   C4B46954  24.727  37.752   7.355
 9177POPC   NC346955  30.650  20.580   5.555
 9177POPC   PO446956  30.723  20.614   5.855
 9177POPC   GL146957  30.689  20.592   6.155
 9177POPC   GL246958  30.565  20.498   6.155
 9177POPC   C1A46959  30.668  20.639   6.455
 9177POPC   D2A46960  30.681  20.597   6.755
 9177POPC   C3A46961  30.744  20.566   7.055
 9177POPC   C4A46962  30.660  20.601   7.355
 9177POPC   C1B46963  30.501  20.439   6.455
 9177POPC   C2B46964  30.466  20.478   6.755
 9177POPC   C3B46965  30.473  20.522   7.055
 9177POPC   C4B46966  30.463  20.466   7.355
 9178POPC   NC346967  36.153  43.149   5.555
 9178POPC   PO446968  36.172  43.082   5.855
 9178POPC   GL146969  36.139  43.061   6.155
 9178POPC   GL246970  35.983  43.152   6.155
 9178POPC   C1A46971  36.081  43.064   6.455
 9178POPC   D2A46972  36.088  43.079   6.755
 9178POPC   C3A46973  36.126  43.083   7.055
 9178POPC   C4A46974  36.174  43.082   7.355
 9178POPC   C1B46975  35.921  43.247   6.455
 9178POPC   C2B46976  35.907  43.222   6.755
 9178POPC   C3B46977  35.964  43.239   7.055
 9178POPC   C4B46978  35.925  43.283   7.355
 9179POPC   NC346979  32.218  35.321   5.555
 9179POPC   PO446980  32.287  35.399   5.855
 9179POPC   GL146981  32.240  35.335   6.155
 9179POPC   GL246982  32.206  35.218   6.155
 9179POPC   C1A46983  32.215  35.336   6.455
 9179POPC   D2A46984  32.277  35.316   6.755
 9179POPC   C3A46985  32.291  35.389   7.055
 9179POPC   C4A46986  32.271  35.312   7.355
 9179POPC   C1B46987  32.168  35.144   6.455
 9179POPC   C2B46988  32.200  35.095   6.755
 9179POPC   C3B46989  32.218  35.103   7.055
 9179POPC   C4B46990  32.172  35.086   7.355
 9180POPC   NC346991  19.088  39.223   5.555
 9180POPC   PO446992  19.022  39.275   5.855
 9180POPC   GL146993  19.051  39.269   6.155
 9180POPC   GL246994  19.065  39.063   6.155
 9180POPC   C1A46995  19.073  39.242   6.455
 9180POPC   D2A46996  19.076  39.225   6.755
 9180POPC   C3A46997  19.081  39.257   7.055
 9180POPC   C4A46998  19.096  39.198   7.355
 9180POPC   C1B46999  19.035  38.953   6.455
 9180POPC   C2B47000  19.044  38.983   6.755
 9180POPC   C3B47001  19.076  38.948   7.055
 9180POPC   C4B47002  19.051  38.941   7.355
 9181POPC   NC347003  28.337  15.219   5.555
 9181POPC   PO447004  28.345  15.202   5.855
 9181POPC   GL147005  28.409  15.187   6.155
 9181POPC   GL247006  28.507  15.135   6.155
 9181POPC   C1A47007  28.332  15.151   6.455
 9181POPC   D2A47008  28.399  15.159   6.755
 9181POPC   C3A47009  28.403  15.173   7.055
 9181POPC   C4A47010  28.381  15.182   7.355
 9181POPC   C1B47011  28.565  14.983   6.455
 9181POPC   C2B47012  28.606  15.051   6.755
 9181POPC   C3B47013  28.591  14.976   7.055
 9181POPC   C4B47014  28.533  14.998   7.355
 9182POPC   NC347015  10.494  26.848   5.555
 9182POPC   PO447016  10.495  26.847   5.855
 9182POPC   GL147017  10.476  26.824   6.155
 9182POPC   GL247018  10.552  26.989   6.155
 9182POPC   C1A47019  10.560  26.803   6.455
 9182POPC   D2A47020  10.509  26.831   6.755
 9182POPC   C3A47021  10.511  26.864   7.055
 9182POPC   C4A47022  10.541  26.795   7.355
 9182POPC   C1B47023  10.536  27.084   6.455
 9182POPC   C2B47024  10.592  27.023   6.755
 9182POPC   C3B47025  10.621  27.095   7.055
 9182POPC   C4B47026  10.564  27.094   7.355
 9183POPC   NC347027  25.260  11.308   5.555
 9183POPC   PO447028  25.269  11.250   5.855
 9183POPC   GL147029  25.253  11.305   6.155
 9183POPC   GL247030  25.178  11.272   6.155
 9183POPC   C1A47031  25.293  11.281   6.455
 9183POPC   D2A47032  25.288  11.305   6.755
 9183POPC   C3A47033  25.245  11.313   7.055
 9183POPC   C4A47034  25.223  11.259   7.355
 9183POPC   C1B47035  25.031  11.157   6.455
 9183POPC   C2B47036  25.028  11.223   6.755
 9183POPC   C3B47037  25.033  11.153   7.055
 9183POPC   C4B47038  25.005  11.234   7.355
 9184POPC   NC347039   9.745  41.521   5.555
 9184POPC   PO447040   9.781  41.523   5.855
 9184POPC   GL147041   9.757  41.595   6.155
 9184POPC   GL247042   9.763  41.634   6.155
 9184POPC   C1A47043   9.707  41.570   6.455
 9184POPC   D2A47044   9.711  41.573   6.755
 9184POPC   C3A47045   9.730  41.512   7.055
 9184POPC   C4A47046   9.707  41.552   7.355
 9184POPC   C1B47047   9.690  41.814   6.455
 9184POPC   C2B47048   9.653  41.793   6.755
 9184POPC   C3B47049   9.644  41.795   7.055
 9184POPC   C4B47050   9.715  41.808   7.355
 9185POPC   NC347051  15.991  22.195   5.555
 9185POPC   PO447052  15.926  22.194   5.855
 9185POPC   GL147053  15.967  22.155   6.155
 9185POPC   GL247054  16.033  22.203   6.155
 9185POPC   C1A47055  15.923  22.210   6.455
 9185POPC   D2A47056  15.996  22.162   6.755
 9185POPC   C3A47057  15.929  22.121   7.055
 9185POPC   C4A47058  15.920  22.186   7.355
 9185POPC   C1B47059  16.245  22.245   6.455
 9185POPC   C2B47060  16.164  22.212   6.755
 9185POPC   C3B47061  16.233  22.236   7.055
 9185POPC   C4B47062  16.235  22.222   7.355
 9186POPC   NC347063   1.167  22.972   5.555
 9186POPC   PO447064   1.226  22.966   5.855
 9186POPC   GL147065   1.211  22.911   6.155
 9186POPC   GL247066   1.278  22.847   6.155
 9186POPC   C1A47067   1.179  22.916   6.455
 9186POPC   D2A47068   1.216  22.900   6.755
 9186POPC   C3A47069   1.193  22.935   7.055
 9186POPC   C4A47070   1.220  22.972   7.355
 9186POPC   C1B47071   1.393  22.729   6.455
 9186POPC   C2B47072   1.419  22.778   6.755
 9186POPC   C3B47073   1.366  22.754   7.055
 9186POPC   C4B47074   1.428  22.751   7.355
 9187POPC   NC347075  15.929  33.025   5.555
 9187POPC   PO447076  16.003  33.006   5.855
 9187POPC   GL147077  15.961  32.978   6.155
 9187POPC   GL247078  16.036  33.086   6.155
 9187POPC   C1A47079  15.964  33.070   6.455
 9187POPC   D2A47080  15.980  33.014   6.755
 9187POPC   C3A47081  15.967  32.999   7.055
 9187POPC   C4A47082  15.932  33.041   7.355
 9187POPC   C1B47083  16.084  33.208   6.455
 9187POPC   C2B47084  16.067  33.241   6.755
 9187POPC   C3B47085  16.076  33.233   7.055
 9187POPC   C4B47086  16.073  33.250   7.355
 9188POPC   NC347087  39.962  19.091   5.555
 9188POPC   PO447088  40.003  19.049   5.855
 9188POPC   GL147089  39.975  19.079   6.155
 9188POPC   GL247090  39.877  19.131   6.155
 9188POPC   C1A47091  39.992  19.097   6.455
 9188POPC   D2A47092  40.009  19.046   6.755
 9188POPC   C3A47093  39.982  19.038   7.055
 9188POPC   C4A47094  39.974  19.091   7.355
 9188POPC   C1B47095  39.798  19.127   6.455
 9188POPC   C2B47096  39.802  19.123   6.755
 9188POPC   C3B47097  39.747  19.076   7.055
 9188POPC   C4B47098  39.735  19.153   7.355
 9189POPC   NC347099  29.876  29.133   5.555
 9189POPC   PO447100  29.953  29.127   5.855
 9189POPC   GL147101  29.947  29.138   6.155
 9189POPC   GL247102  29.749  29.126   6.155
 9189POPC   C1A47103  29.943  29.132   6.455
 9189POPC   D2A47104  29.904  29.154   6.755
 9189POPC   C3A47105  29.903  29.164   7.055
 9189POPC   C4A47106  29.936  29.158   7.355
 9189POPC   C1B47107  29.624  29.137   6.455
 9189POPC   C2B47108  29.684  29.176   6.755
 9189POPC   C3B47109  29.628  29.171   7.055
 9189POPC   C4B47110  29.663  29.116   7.355
 9190POPC   NC347111  38.430  32.274   5.555
 9190POPC   PO447112  38.505  32.290   5.855
 9190POPC   GL147113  38.470  32.286   6.155
 9190POPC   GL247114  38.612  32.206   6.155
 9190POPC   C1A47115  38.487  32.297   6.455
 9190POPC   D2A47116  38.485  32.206   6.755
 9190POPC   C3A47117  38.488  32.292   7.055
 9190POPC   C4A47118  38.443  32.214   7.355
 9190POPC   C1B47119  38.714  32.137   6.455
 9190POPC   C2B47120  38.649  32.101   6.755
 9190POPC   C3B47121  38.683  32.184   7.055
 9190POPC   C4B47122  38.727  32.136   7.355
 9191POPC   NC347123   8.979  43.863   5.555
 9191POPC   PO447124   8.934  43.856   5.855
 9191POPC   GL147125   8.953  43.862   6.155
 9191POPC   GL247126   9.132  43.971   6.155
 9191POPC   C1A47127   9.000  43.837   6.455
 9191POPC   D2A47128   8.937  43.910   6.755
 9191POPC   C3A47129   9.010  43.922   7.055
 9191POPC   C4A47130   8.967  43.895   7.355
 9191POPC   C1B47131   9.239  44.027   6.455
 9191POPC   C2B47132   9.221  44.037   6.755
 9191POPC   C3B47133   9.206  44.055   7.055
 9191POPC   C4B47134   9.217  43.991   7.355
 9192POPC   NC347135  31.500  29.872   5.555
 9192POPC   PO447136  31.425  29.892   5.855
 9192POPC   GL147137  31.458  29.920   6.155
 9192POPC   GL247138  31.301  29.865   6.155
 9192POPC   C1A47139  31.473  29.958   6.455
 9192POPC   D2A47140  31.513  29.961   6.755
 9192POPC   C3A47141  31.430  29.936   7.055
 9192POPC   C4A47142  31.501  29.965   7.355
 9192POPC   C1B47143  31.231  29.875   6.455
 9192POPC   C2B47144  31.198  29.869   6.755
 9192POPC   C3B47145  31.245  29.898   7.055
 9192POPC   C4B47146  31.273  29.862   7.355
 9193POPC   NC347147  39.197  21.415   5.555
 9193POPC   PO447148  39.183  21.394   5.855
 9193POPC   GL147149  39.237  21.375   6.155
 9193POPC   GL247150  39.187  21.523   6.155
 9193POPC   C1A47151  39.256  21.391   6.455
 9193POPC   D2A47152  39.254  21.435   6.755
 9193POPC   C3A47153  39.236  21.375   7.055
 9193POPC   C4A47154  39.217  21.419   7.355
 9193POPC   C1B47155  39.141  21.629   6.455
 9193POPC   C2B47156  39.170  21.646   6.755
 9193POPC   C3B47157  39.112  21.597   7.055
 9193POPC   C4B47158  39.171  21.607   7.355
 9194POPC   NC347159  41.522  35.318   5.555
 9194POPC   PO447160  41.554  35.375   5.855
 9194POPC   GL147161  41.591  35.399   6.155
 9194POPC   GL247162  41.724  35.300   6.155
 9194POPC   C1A47163  41.566  35.353   6.455
 9194POPC   D2A47164  41.531  35.302   6.755
 9194POPC   C3A47165  41.529  35.304   7.055
 9194POPC   C4A47166  41.515  35.325   7.355
 9194POPC   C1B47167  41.824  35.274   6.455
 9194POPC   C2B47168  41.770  35.286   6.755
 9194POPC   C3B47169  41.821  35.292   7.055
 9194POPC   C4B47170  41.779  35.337   7.355
 9195POPC   NC347171  33.763  10.519   5.555
 9195POPC   PO447172  33.758  10.521   5.855
 9195POPC   GL147173  33.828  10.570   6.155
 9195POPC   GL247174  33.930  10.469   6.155
 9195POPC   C1A47175  33.783  10.571   6.455
 9195POPC   D2A47176  33.808  10.524   6.755
 9195POPC   C3A47177  33.810  10.493   7.055
 9195POPC   C4A47178  33.782  10.556   7.355
 9195POPC   C1B47179  34.011  10.485   6.455
 9195POPC   C2B47180  34.085  10.446   6.755
 9195POPC   C3B47181  34.017  10.433   7.055
 9195POPC   C4B47182  34.085  10.409   7.355
 9196POPC   NC347183  27.605  24.533   5.555
 9196POPC   PO447184  27.622  24.449   5.855
 9196POPC   GL147185  27.615  24.536   6.155
 9196POPC   GL247186  27.473  24.446   6.155
 9196POPC   C1A47187  27.580  24.526   6.455
 9196POPC   D2A47188  27.621  24.449   6.755
 9196POPC   C3A47189  27.545  24.488   7.055
 9196POPC   C4A47190  27.543  24.534   7.355
 9196POPC   C1B47191  27.379  24.506   6.455
 9196POPC   C2B47192  27.322  24.494   6.755
 9196POPC   C3B47193  27.346  24.485   7.055
 9196POPC   C4B47194  27.355  24.421   7.355
 9197POPC   NC347195  19.880  15.228   5.555
 9197POPC   PO447196  19.830  15.170   5.855
 9197POPC   GL147197  19.806  15.137   6.155
 9197POPC   GL247198  19.675  15.090   6.155
 9197POPC   C1A47199  19.794  15.145   6.455
 9197POPC   D2A47200  19.800  15.130   6.755
 9197POPC   C3A47201  19.862  15.157   7.055
 9197POPC   C4A47202  19.864  15.166   7.355
 9197POPC   C1B47203  19.631  15.129   6.455
 9197POPC   C2B47204  19.595  15.068   6.755
 9197POPC   C3B47205  19.632  15.098   7.055
 9197POPC   C4B47206  19.590  15.134   7.355
 9198POPC   NC347207  40.733  25.997   5.555
 9198POPC   PO447208  40.803  26.046   5.855
 9198POPC   GL147209  40.792  25.992   6.155
 9198POPC   GL247210  40.811  25.905   6.155
 9198POPC   C1A47211  40.752  26.032   6.455
 9198POPC   D2A47212  40.762  26.016   6.755
 9198POPC   C3A47213  40.798  26.074   7.055
 9198POPC   C4A47214  40.748  26.083   7.355
 9198POPC   C1B47215  40.912  25.810   6.455
 9198POPC   C2B47216  40.861  25.786   6.755
 9198POPC   C3B47217  40.895  25.817   7.055
 9198POPC   C4B47218  40.863  25.787   7.355
 9199POPC   NC347219  13.651   9.708   5.555
 9199POPC   PO447220  13.659   9.716   5.855
 9199POPC   GL147221  13.581   9.791   6.155
 9199POPC   GL247222  13.560   9.623   6.155
 9199POPC   C1A47223  13.663   9.779   6.455
 9199POPC   D2A47224  13.619   9.742   6.755
 9199POPC   C3A47225  13.609   9.725   7.055
 9199POPC   C4A47226  13.595   9.740   7.355
 9199POPC   C1B47227  13.498   9.500   6.455
 9199POPC   C2B47228  13.461   9.495   6.755
 9199POPC   C3B47229  13.438   9.520   7.055
 9199POPC   C4B47230  13.441   9.557   7.355
 9200POPC   NC347231  10.570   1.973   5.555
 9200POPC   PO447232  10.510   1.963   5.855
 9200POPC   GL147233  10.478   1.984   6.155
 9200POPC   GL247234  10.660   2.089   6.155
 9200POPC   C1A47235  10.527   2.006   6.455
 9200POPC   D2A47236  10.560   2.001   6.755
 9200POPC   C3A47237  10.496   1.958   7.055
 9200POPC   C4A47238  10.502   1.989   7.355
 9200POPC   C1B47239  10.744   2.072   6.455
 9200POPC   C2B47240  10.782   2.099   6.755
 9200POPC   C3B47241  10.747   2.157   7.055
 9200POPC   C4B47242  10.758   2.102   7.355
 9201POPC   NC347243  25.302  10.538   5.555
 9201POPC   PO447244  25.273  10.568   5.855
 9201POPC   GL147245  25.235  10.513   6.155
 9201POPC   GL247246  25.360  10.470   6.155
 9201POPC   C1A47247  25.310  10.515   6.455
 9201POPC   D2A47248  25.236  10.530   6.755
 9201POPC   C3A47249  25.291  10.567   7.055
 9201POPC   C4A47250  25.293  10.568   7.355
 9201POPC   C1B47251  25.541  10.476   6.455
 9201POPC   C2B47252  25.506  10.513   6.755
 9201POPC   C3B47253  25.492  10.458   7.055
 9201POPC   C4B47254  25.525  10.495   7.355
 9202POPC   NC347255  14.421   4.274   5.555
 9202POPC   PO447256  14.403   4.311   5.855
 9202POPC   GL147257  14.404   4.346   6.155
 9202POPC   GL247258  14.465   4.375   6.155
 9202POPC   C1A47259  14.375   4.319   6.455
 9202POPC   D2A47260  14.432   4.296   6.755
 9202POPC   C3A47261  14.433   4.280   7.055
 9202POPC   C4A47262  14.406   4.289   7.355
 9202POPC   C1B47263  14.575   4.519   6.455
 9202POPC   C2B47264  14.597   4.478   6.755
 9202POPC   C3B47265  14.567   4.482   7.055
 9202POPC   C4B47266  14.599   4.488   7.355
 9203POPC   NC347267  22.136  26.014   5.555
 9203POPC   PO447268  22.151  26.073   5.855
 9203POPC   GL147269  22.171  26.083   6.155
 9203POPC   GL247270  22.194  26.151   6.155
 9203POPC   C1A47271  22.202  26.017   6.455
 9203POPC   D2A47272  22.177  26.022   6.755
 9203POPC   C3A47273  22.141  26.016   7.055
 9203POPC   C4A47274  22.142  26.091   7.355
 9203POPC   C1B47275  22.176  26.310   6.455
 9203POPC   C2B47276  22.193  26.340   6.755
 9203POPC   C3B47277  22.161  26.323   7.055
 9203POPC   C4B47278  22.153  26.271   7.355
 9204POPC   NC347279   8.938  37.673   5.555
 9204POPC   PO447280   8.954  37.708   5.855
 9204POPC   GL147281   8.999  37.707   6.155
 9204POPC   GL247282   8.878  37.699   6.155
 9204POPC   C1A47283   8.982  37.646   6.455
 9204POPC   D2A47284   8.979  37.666   6.755
 9204POPC   C3A47285   8.930  37.658   7.055
 9204POPC   C4A47286   8.976  37.670   7.355
 9204POPC   C1B47287   8.744  37.728   6.455
 9204POPC   C2B47288   8.709  37.739   6.755
 9204POPC   C3B47289   8.681  37.745   7.055
 9204POPC   C4B47290   8.689  37.712   7.355
 9205POPC   NC347291  11.347   1.236   5.555
 9205POPC   PO447292  11.279   1.167   5.855
 9205POPC   GL147293  11.339   1.230   6.155
 9205POPC   GL247294  11.364   1.294   6.155
 9205POPC   C1A47295  11.296   1.191   6.455
 9205POPC   D2A47296  11.336   1.165   6.755
 9205POPC   C3A47297  11.288   1.259   7.055
 9205POPC   C4A47298  11.330   1.257   7.355
 9205POPC   C1B47299  11.417   1.432   6.455
 9205POPC   C2B47300  11.417   1.482   6.755
 9205POPC   C3B47301  11.443   1.437   7.055
 9205POPC   C4B47302  11.432   1.417   7.355
 9206POPC   NC347303  19.013  14.377   5.555
 9206POPC   PO447304  19.057  14.415   5.855
 9206POPC   GL147305  19.036  14.391   6.155
 9206POPC   GL247306  19.125  14.360   6.155
 9206POPC   C1A47307  19.063  14.369   6.455
 9206POPC   D2A47308  19.094  14.420   6.755
 9206POPC   C3A47309  19.083  14.424   7.055
 9206POPC   C4A47310  19.028  14.372   7.355
 9206POPC   C1B47311  19.230  14.271   6.455
 9206POPC   C2B47312  19.257  14.237   6.755
 9206POPC   C3B47313  19.261  14.242   7.055
 9206POPC   C4B47314  19.247  14.263   7.355
 9207POPC   NC347315  22.913  37.672   5.555
 9207POPC   PO447316  22.980  37.682   5.855
 9207POPC   GL147317  22.918  37.662   6.155
 9207POPC   GL247318  22.845  37.637   6.155
 9207POPC   C1A47319  22.915  37.686   6.455
 9207POPC   D2A47320  22.898  37.687   6.755
 9207POPC   C3A47321  22.954  37.651   7.055
 9207POPC   C4A47322  22.985  37.699   7.355
 9207POPC   C1B47323  22.682  37.512   6.455
 9207POPC   C2B47324  22.687  37.571   6.755
 9207POPC   C3B47325  22.759  37.588   7.055
 9207POPC   C4B47326  22.717  37.564   7.355
 9208POPC   NC347327  12.899   8.997   5.555
 9208POPC   PO447328  12.826   8.981   5.855
 9208POPC   GL147329  12.820   8.951   6.155
 9208POPC   GL247330  12.843   8.897   6.155
 9208POPC   C1A47331  12.838   8.995   6.455
 9208POPC   D2A47332  12.864   8.972   6.755
 9208POPC   C3A47333  12.815   8.958   7.055
 9208POPC   C4A47334  12.827   8.996   7.355
 9208POPC   C1B47335  12.721   8.699   6.455
 9208POPC   C2B47336  12.770   8.760   6.755
 9208POPC   C3B47337  12.742   8.752   7.055
 9208POPC   C4B47338  12.752   8.729   7.355
 9209POPC   NC347339   8.204  38.478   5.555
 9209POPC   PO447340   8.147  38.480   5.855
 9209POPC   GL147341   8.190  38.470   6.155
 9209POPC   GL247342   8.340  38.376   6.155
 9209POPC   C1A47343   8.154  38.418   6.455
 9209POPC   D2A47344   8.167  38.425   6.755
 9209POPC   C3A47345   8.216  38.489   7.055
 9209POPC   C4A47346   8.198  38.484   7.355
 9209POPC   C1B47347   8.402  38.295   6.455
 9209POPC   C2B47348   8.440  38.269   6.755
 9209POPC   C3B47349   8.357  38.273   7.055
 9209POPC   C4B47350   8.418  38.321   7.355
 9210POPC   NC347351  40.039  15.915   5.555
 9210POPC   PO447352  39.984  15.980   5.855
 9210POPC   GL147353  40.048  15.954   6.155
 9210POPC   GL247354  40.133  16.059   6.155
 9210POPC   C1A47355  39.996  15.974   6.455
 9210POPC   D2A47356  40.022  15.951   6.755
 9210POPC   C3A47357  40.006  15.925   7.055
 9210POPC   C4A47358  39.966  15.917   7.355
 9210POPC   C1B47359  40.207  16.118   6.455
 9210POPC   C2B47360  40.205  16.175   6.755
 9210POPC   C3B47361  40.145  16.167   7.055
 9210POPC   C4B47362  40.186  16.163   7.355
 9211POPC   NC347363  16.742   5.141   5.555
 9211POPC   PO447364  16.714   5.049   5.855
 9211POPC   GL147365  16.777   5.130   6.155
 9211POPC   GL247366  16.668   4.985   6.155
 9211POPC   C1A47367  16.718   5.067   6.455
 9211POPC   D2A47368  16.701   5.068   6.755
 9211POPC   C3A47369  16.758   5.142   7.055
 9211POPC   C4A47370  16.709   5.133   7.355
 9211POPC   C1B47371  16.719   4.883   6.455
 9211POPC   C2B47372  16.662   4.894   6.755
 9211POPC   C3B47373  16.660   4.821   7.055
 9211POPC   C4B47374  16.622   4.877   7.355
 9212POPC   NC347375   1.263  38.425   5.555
 9212POPC   PO447376   1.256  38.435   5.855
 9212POPC   GL147377   1.170  38.491   6.155
 9212POPC   GL247378   1.160  38.540   6.155
 9212POPC   C1A47379   1.175  38.421   6.455
 9212POPC   D2A47380   1.183  38.414   6.755
 9212POPC   C3A47381   1.189  38.490   7.055
 9212POPC   C4A47382   1.188  38.407   7.355
 9212POPC   C1B47383   1.015  38.635   6.455
 9212POPC   C2B47384   0.970  38.587   6.755
 9212POPC   C3B47385   0.979  38.589   7.055
 9212POPC   C4B47386   1.025  38.620   7.355
 9213POPC   NC347387   3.502  43.879   5.555
 9213POPC   PO447388   3.538  43.920   5.855
 9213POPC   GL147389   3.518  43.916   6.155
 9213POPC   GL247390   3.427  43.897   6.155
 9213POPC   C1A47391   3.574  43.842   6.455
 9213POPC   D2A47392   3.498  43.901   6.755
 9213POPC   C3A47393   3.570  43.837   7.055
 9213POPC   C4A47394   3.545  43.852   7.355
 9213POPC   C1B47395   3.341  44.001   6.455
 9213POPC   C2B47396   3.317  43.978   6.755
 9213POPC   C3B47397   3.338  44.007   7.055
 9213POPC   C4B47398   3.295  44.005   7.355
 9214POPC   NC347399   9.782  11.275   5.555
 9214POPC   PO447400   9.733  11.264   5.855
 9214POPC   GL147401   9.737  11.315   6.155
 9214POPC   GL247402   9.828  11.436   6.155
 9214POPC   C1A47403   9.711  11.297   6.455
 9214POPC   D2A47404   9.741  11.271   6.755
 9214POPC   C3A47405   9.706  11.259   7.055
 9214POPC   C4A47406   9.717  11.333   7.355
 9214POPC   C1B47407   9.785  11.553   6.455
 9214POPC   C2B47408   9.806  11.572   6.755
 9214POPC   C3B47409   9.787  11.507   7.055
 9214POPC   C4B47410   9.849  11.580   7.355
 9215POPC   NC347411  12.861  43.142   5.555
 9215POPC   PO447412  12.810  43.068   5.855
 9215POPC   GL147413  12.886  43.074   6.155
 9215POPC   GL247414  12.837  43.183   6.155
 9215POPC   C1A47415  12.843  43.149   6.455
 9215POPC   D2A47416  12.811  43.135   6.755
 9215POPC   C3A47417  12.885  43.077   7.055
 9215POPC   C4A47418  12.822  43.124   7.355
 9215POPC   C1B47419  12.724  43.333   6.455
 9215POPC   C2B47420  12.721  43.322   6.755
 9215POPC   C3B47421  12.771  43.318   7.055
 9215POPC   C4B47422  12.730  43.387   7.355
 9216POPC   NC347423  37.663  22.920   5.555
 9216POPC   PO447424  37.666  22.957   5.855
 9216POPC   GL147425  37.651  22.904   6.155
 9216POPC   GL247426  37.772  22.816   6.155
 9216POPC   C1A47427  37.663  22.922   6.455
 9216POPC   D2A47428  37.664  22.961   6.755
 9216POPC   C3A47429  37.671  22.910   7.055
 9216POPC   C4A47430  37.691  22.892   7.355
 9216POPC   C1B47431  37.804  22.689   6.455
 9216POPC   C2B47432  37.776  22.665   6.755
 9216POPC   C3B47433  37.731  22.667   7.055
 9216POPC   C4B47434  37.740  22.720   7.355
 9217POPC   NC347435  33.799  44.707   5.555
 9217POPC   PO447436  33.812  44.623   5.855
 9217POPC   GL147437  33.819  44.634   6.155
 9217POPC   GL247438  33.903  44.597   6.155
 9217POPC   C1A47439  33.752  44.710   6.455
 9217POPC   D2A47440  33.796  44.672   6.755
 9217POPC   C3A47441  33.756  44.700   7.055
 9217POPC   C4A47442  33.808  44.669   7.355
 9217POPC   C1B47443  33.925  44.456   6.455
 9217POPC   C2B47444  33.996  44.474   6.755
 9217POPC   C3B47445  34.014  44.432   7.055
 9217POPC   C4B47446  33.951  44.490   7.355
 9218POPC   NC347447   0.469   9.708   5.555
 9218POPC   PO447448   0.443   9.720   5.855
 9218POPC   GL147449   0.466   9.725   6.155
 9218POPC   GL247450   0.363   9.901   6.155
 9218POPC   C1A47451   0.469   9.759   6.455
 9218POPC   D2A47452   0.427   9.753   6.755
 9218POPC   C3A47453   0.430   9.773   7.055
 9218POPC   C4A47454   0.455   9.769   7.355
 9218POPC   C1B47455   0.376  10.009   6.455
 9218POPC   C2B47456   0.335  10.005   6.755
 9218POPC   C3B47457   0.333   9.987   7.055
 9218POPC   C4B47458   0.382   9.935   7.355
 9219POPC   NC347459  33.017  36.143   5.555
 9219POPC   PO447460  33.031  36.114   5.855
 9219POPC   GL147461  32.992  36.169   6.155
 9219POPC   GL247462  32.949  36.203   6.155
 9219POPC   C1A47463  32.993  36.123   6.455
 9219POPC   D2A47464  33.022  36.132   6.755
 9219POPC   C3A47465  33.057  36.163   7.055
 9219POPC   C4A47466  32.996  36.095   7.355
 9219POPC   C1B47467  32.822  36.231   6.455
 9219POPC   C2B47468  32.808  36.273   6.755
 9219POPC   C3B47469  32.796  36.205   7.055
 9219POPC   C4B47470  32.806  36.216   7.355
 9220POPC   NC347471  40.041  31.450   5.555
 9220POPC   PO447472  40.029  31.462   5.855
 9220POPC   GL147473  40.053  31.447   6.155
 9220POPC   GL247474  39.955  31.387   6.155
 9220POPC   C1A47475  39.977  31.458   6.455
 9220POPC   D2A47476  40.015  31.512   6.755
 9220POPC   C3A47477  40.012  31.474   7.055
 9220POPC   C4A47478  39.994  31.430   7.355
 9220POPC   C1B47479  39.902  31.287   6.455
 9220POPC   C2B47480  39.894  31.253   6.755
 9220POPC   C3B47481  39.894  31.226   7.055
 9220POPC   C4B47482  39.858  31.244   7.355
 9221POPC   NC347483   4.330  14.441   5.555
 9221POPC   PO447484   4.294  14.373   5.855
 9221POPC   GL147485   4.286  14.387   6.155
 9221POPC   GL247486   4.234  14.305   6.155
 9221POPC   C1A47487   4.337  14.379   6.455
 9221POPC   D2A47488   4.316  14.383   6.755
 9221POPC   C3A47489   4.338  14.365   7.055
 9221POPC   C4A47490   4.317  14.388   7.355
 9221POPC   C1B47491   4.221  14.212   6.455
 9221POPC   C2B47492   4.205  14.192   6.755
 9221POPC   C3B47493   4.220  14.200   7.055
 9221POPC   C4B47494   4.225  14.215   7.355
 9222POPC   NC347495   5.102  37.724   5.555
 9222POPC   PO447496   5.141  37.725   5.855
 9222POPC   GL147497   5.067  37.728   6.155
 9222POPC   GL247498   5.053  37.777   6.155
 9222POPC   C1A47499   5.111  37.683   6.455
 9222POPC   D2A47500   5.116  37.726   6.755
 9222POPC   C3A47501   5.076  37.663   7.055
 9222POPC   C4A47502   5.045  37.718   7.355
 9222POPC   C1B47503   5.052  37.893   6.455
 9222POPC   C2B47504   5.030  37.917   6.755
 9222POPC   C3B47505   5.018  37.881   7.055
 9222POPC   C4B47506   4.984  37.954   7.355
 9223POPC   NC347507  15.186  26.079   5.555
 9223POPC   PO447508  15.150  26.077   5.855
 9223POPC   GL147509  15.162  26.022   6.155
 9223POPC   GL247510  15.342  26.117   6.155
 9223POPC   C1A47511  15.164  26.012   6.455
 9223POPC   D2A47512  15.219  26.071   6.755
 9223POPC   C3A47513  15.193  26.056   7.055
 9223POPC   C4A47514  15.165  26.089   7.355
 9223POPC   C1B47515  15.423  26.098   6.455
 9223POPC   C2B47516  15.404  26.064   6.755
 9223POPC   C3B47517  15.408  26.130   7.055
 9223POPC   C4B47518  15.454  26.074   7.355
 9224POPC   NC347519  25.284  33.072   5.555
 9224POPC   PO447520  25.238  33.063   5.855
 9224POPC   GL147521  25.244  32.996   6.155
 9224POPC   GL247522  25.211  32.934   6.155
 9224POPC   C1A47523  25.252  33.021   6.455
 9224POPC   D2A47524  25.233  32.982   6.755
 9224POPC   C3A47525  25.229  33.064   7.055
 9224POPC   C4A47526  25.298  33.053   7.355
 9224POPC   C1B47527  25.114  32.795   6.455
 9224POPC   C2B47528  25.142  32.818   6.755
 9224POPC   C3B47529  25.165  32.761   7.055
 9224POPC   C4B47530  25.142  32.801   7.355
 9225POPC   NC347531   5.840   7.429   5.555
 9225POPC   PO447532   5.899   7.429   5.855
 9225POPC   GL147533   5.893   7.437   6.155
 9225POPC   GL247534   5.772   7.335   6.155
 9225POPC   C1A47535   5.841   7.428   6.455
 9225POPC   D2A47536   5.825   7.406   6.755
 9225POPC   C3A47537   5.819   7.395   7.055
 9225POPC   C4A47538   5.869   7.371   7.355
 9225POPC   C1B47539   5.770   7.197   6.455
 9225POPC   C2B47540   5.715   7.218   6.755
 9225POPC   C3B47541   5.795   7.238   7.055
 9225POPC   C4B47542   5.740   7.222   7.355
 9226POPC   NC347543   6.674  34.536   5.555
 9226POPC   PO447544   6.638  34.579   5.855
 9226POPC   GL147545   6.693  34.625   6.155
 9226POPC   GL247546   6.615  34.719   6.155
 9226POPC   C1A47547   6.660  34.561   6.455
 9226POPC   D2A47548   6.665  34.536   6.755
 9226POPC   C3A47549   6.612  34.608   7.055
 9226POPC   C4A47550   6.595  34.570   7.355
 9226POPC   C1B47551   6.500  34.808   6.455
 9226POPC   C2B47552   6.477  34.784   6.755
 9226POPC   C3B47553   6.563  34.767   7.055
 9226POPC   C4B47554   6.548  34.785   7.355
 9227POPC   NC347555  21.390  32.291   5.555
 9227POPC   PO447556  21.400  32.227   5.855
 9227POPC   GL147557  21.428  32.275   6.155
 9227POPC   GL247558  21.357  32.370   6.155
 9227POPC   C1A47559  21.352  32.250   6.455
 9227POPC   D2A47560  21.343  32.283   6.755
 9227POPC   C3A47561  21.410  32.264   7.055
 9227POPC   C4A47562  21.374  32.229   7.355
 9227POPC   C1B47563  21.297  32.486   6.455
 9227POPC   C2B47564  21.260  32.431   6.755
 9227POPC   C3B47565  21.242  32.487   7.055
 9227POPC   C4B47566  21.250  32.499   7.355
 9228POPC   NC347567   1.180  32.292   5.555
 9228POPC   PO447568   1.230  32.255   5.855
 9228POPC   GL147569   1.201  32.288   6.155
 9228POPC   GL247570   1.086  32.305   6.155
 9228POPC   C1A47571   1.168  32.270   6.455
 9228POPC   D2A47572   1.245  32.276   6.755
 9228POPC   C3A47573   1.186  32.286   7.055
 9228POPC   C4A47574   1.262  32.204   7.355
 9228POPC   C1B47575   1.074  32.487   6.455
 9228POPC   C2B47576   1.103  32.431   6.755
 9228POPC   C3B47577   1.052  32.398   7.055
 9228POPC   C4B47578   1.055  32.456   7.355
 9229POPC   NC347579  19.041   1.246   5.555
 9229POPC   PO447580  19.098   1.247   5.855
 9229POPC   GL147581  19.028   1.201   6.155
 9229POPC   GL247582  18.995   1.110   6.155
 9229POPC   C1A47583  19.039   1.186   6.455
 9229POPC   D2A47584  19.055   1.249   6.755
 9229POPC   C3A47585  19.046   1.238   7.055
 9229POPC   C4A47586  19.098   1.167   7.355
 9229POPC   C1B47587  18.886   1.078   6.455
 9229POPC   C2B47588  18.851   1.062   6.755
 9229POPC   C3B47589  18.862   1.123   7.055
 9229POPC   C4B47590  18.869   1.128   7.355
 9230POPC   NC347591  15.139  33.789   5.555
 9230POPC   PO447592  15.179  33.841   5.855
 9230POPC   GL147593  15.223  33.815   6.155
 9230POPC   GL247594  15.118  33.738   6.155
 9230POPC   C1A47595  15.152  33.755   6.455
 9230POPC   D2A47596  15.195  33.787   6.755
 9230POPC   C3A47597  15.135  33.770   7.055
 9230POPC   C4A47598  15.197  33.776   7.355
 9230POPC   C1B47599  14.985  33.617   6.455
 9230POPC   C2B47600  14.970  33.617   6.755
 9230POPC   C3B47601  15.006  33.616   7.055
 9230POPC   C4B47602  15.011  33.573   7.355
 9231POPC   NC347603  40.807  37.668   5.555
 9231POPC   PO447604  40.788  37.677   5.855
 9231POPC   GL147605  40.750  37.644   6.155
 9231POPC   GL247606  40.612  37.644   6.155
 9231POPC   C1A47607  40.787  37.670   6.455
 9231POPC   D2A47608  40.763  37.635   6.755
 9231POPC   C3A47609  40.796  37.686   7.055
 9231POPC   C4A47610  40.765  37.690   7.355
 9231POPC   C1B47611  40.541  37.738   6.455
 9231POPC   C2B47612  40.576  37.721   6.755
 9231POPC   C3B47613  40.538  37.672   7.055
 9231POPC   C4B47614  40.535  37.665   7.355
 9232POPC   NC347615   2.029   3.566   5.555
 9232POPC   PO447616   1.963   3.518   5.855
 9232POPC   GL147617   2.026   3.580   6.155
 9232POPC   GL247618   1.860   3.488   6.155
 9232POPC   C1A47619   2.015   3.554   6.455
 9232POPC   D2A47620   1.994   3.520   6.755
 9232POPC   C3A47621   1.983   3.535   7.055
 9232POPC   C4A47622   2.008   3.544   7.355
 9232POPC   C1B47623   1.791   3.412   6.455
 9232POPC   C2B47624   1.798   3.467   6.755
 9232POPC   C3B47625   1.796   3.477   7.055
 9232POPC   C4B47626   1.750   3.501   7.355
 9233POPC   NC347627  11.322  39.964   5.555
 9233POPC   PO447628  11.299  40.017   5.855
 9233POPC   GL147629  11.346  39.978   6.155
 9233POPC   GL247630  11.439  39.965   6.155
 9233POPC   C1A47631  11.293  40.009   6.455
 9233POPC   D2A47632  11.336  39.958   6.755
 9233POPC   C3A47633  11.338  39.995   7.055
 9233POPC   C4A47634  11.329  40.044   7.355
 9233POPC   C1B47635  11.505  39.842   6.455
 9233POPC   C2B47636  11.453  39.794   6.755
 9233POPC   C3B47637  11.475  39.877   7.055
 9233POPC   C4B47638  11.462  39.891   7.355
 9234POPC   NC347639  23.757  16.752   5.555
 9234POPC   PO447640  23.692  16.758   5.855
 9234POPC   GL147641  23.753  16.712   6.155
 9234POPC   GL247642  23.878  16.718   6.155
 9234POPC   C1A47643  23.745  16.772   6.455
 9234POPC   D2A47644  23.665  16.720   6.755
 9234POPC   C3A47645  23.685  16.719   7.055
 9234POPC   C4A47646  23.699  16.698   7.355
 9234POPC   C1B47647  23.917  16.787   6.455
 9234POPC   C2B47648  23.987  16.766   6.755
 9234POPC   C3B47649  23.920  16.794   7.055
 9234POPC   C4B47650  23.977  16.813   7.355
 9235POPC   NC347651  12.847  41.540   5.555
 9235POPC   PO447652  12.838  41.582   5.855
 9235POPC   GL147653  12.871  41.583   6.155
 9235POPC   GL247654  12.945  41.698   6.155
 9235POPC   C1A47655  12.885  41.534   6.455
 9235POPC   D2A47656  12.855  41.581   6.755
 9235POPC   C3A47657  12.885  41.599   7.055
 9235POPC   C4A47658  12.860  41.593   7.355
 9235POPC   C1B47659  12.979  41.810   6.455
 9235POPC   C2B47660  12.950  41.765   6.755
 9235POPC   C3B47661  12.922  41.801   7.055
 9235POPC   C4B47662  12.970  41.810   7.355
 9236POPC   NC347663   3.492  27.632   5.555
 9236POPC   PO447664   3.589  27.625   5.855
 9236POPC   GL147665   3.552  27.550   6.155
 9236POPC   GL247666   3.503  27.519   6.155
 9236POPC   C1A47667   3.533  27.567   6.455
 9236POPC   D2A47668   3.512  27.545   6.755
 9236POPC   C3A47669   3.517  27.597   7.055
 9236POPC   C4A47670   3.580  27.586   7.355
 9236POPC   C1B47671   3.424  27.327   6.455
 9236POPC   C2B47672   3.461  27.401   6.755
 9236POPC   C3B47673   3.434  27.339   7.055
 9236POPC   C4B47674   3.423  27.399   7.355
 9237POPC   NC347675   2.775  14.444   5.555
 9237POPC   PO447676   2.780  14.363   5.855
 9237POPC   GL147677   2.761  14.448   6.155
 9237POPC   GL247678   2.686  14.448   6.155
 9237POPC   C1A47679   2.774  14.362   6.455
 9237POPC   D2A47680   2.729  14.388   6.755
 9237POPC   C3A47681   2.756  14.393   7.055
 9237POPC   C4A47682   2.726  14.359   7.355
 9237POPC   C1B47683   2.621  14.638   6.455
 9237POPC   C2B47684   2.620  14.577   6.755
 9237POPC   C3B47685   2.620  14.557   7.055
 9237POPC   C4B47686   2.559  14.548   7.355
 9238POPC   NC347687   5.873  27.614   5.555
 9238POPC   PO447688   5.886  27.633   5.855
 9238POPC   GL147689   5.842  27.617   6.155
 9238POPC   GL247690   5.751  27.558   6.155
 9238POPC   C1A47691   5.866  27.569   6.455
 9238POPC   D2A47692   5.863  27.621   6.755
 9238POPC   C3A47693   5.864  27.637   7.055
 9238POPC   C4A47694   5.877  27.596   7.355
 9238POPC   C1B47695   5.658  27.524   6.455
 9238POPC   C2B47696   5.657  27.503   6.755
 9238POPC   C3B47697   5.662  27.478   7.055
 9238POPC   C4B47698   5.666  27.550   7.355
 9239POPC   NC347699  21.340  30.716   5.555
 9239POPC   PO447700  21.341  30.650   5.855
 9239POPC   GL147701  21.346  30.657   6.155
 9239POPC   GL247702  21.264  30.693   6.155
 9239POPC   C1A47703  21.420  30.724   6.455
 9239POPC   D2A47704  21.426  30.719   6.755
 9239POPC   C3A47705  21.379  30.679   7.055
 9239POPC   C4A47706  21.409  30.693   7.355
 9239POPC   C1B47707  21.112  30.728   6.455
 9239POPC   C2B47708  21.154  30.678   6.755
 9239POPC   C3B47709  21.183  30.676   7.055
 9239POPC   C4B47710  21.143  30.667   7.355
 9240POPC   NC347711   5.827  32.210   5.555
 9240POPC   PO447712   5.836  32.240   5.855
 9240POPC   GL147713   5.854  32.254   6.155
 9240POPC   GL247714   5.768  32.278   6.155
 9240POPC   C1A47715   5.879  32.261   6.455
 9240POPC   D2A47716   5.884  32.210   6.755
 9240POPC   C3A47717   5.855  32.284   7.055
 9240POPC   C4A47718   5.881  32.208   7.355
 9240POPC   C1B47719   5.641  32.220   6.455
 9240POPC   C2B47720   5.606  32.240   6.755
 9240POPC   C3B47721   5.645  32.208   7.055
 9240POPC   C4B47722   5.578  32.198   7.355
 9241POPC   NC347723  39.973   8.158   5.555
 9241POPC   PO447724  40.009   8.197   5.855
 9241POPC   GL147725  40.026   8.176   6.155
 9241POPC   GL247726  40.167   8.217   6.155
 9241POPC   C1A47727  40.034   8.202   6.455
 9241POPC   D2A47728  40.032   8.165   6.755
 9241POPC   C3A47729  40.047   8.175   7.055
 9241POPC   C4A47730  40.006   8.214   7.355
 9241POPC   C1B47731  40.265   8.215   6.455
 9241POPC   C2B47732  40.231   8.246   6.755
 9241POPC   C3B47733  40.279   8.275   7.055
 9241POPC   C4B47734  40.270   8.254   7.355
 9242POPC   NC347735  25.992  12.056   5.555
 9242POPC   PO447736  26.052  12.101   5.855
 9242POPC   GL147737  26.016  12.028   6.155
 9242POPC   GL247738  25.909  12.033   6.155
 9242POPC   C1A47739  26.040  12.031   6.455
 9242POPC   D2A47740  26.060  12.101   6.755
 9242POPC   C3A47741  26.032  12.084   7.055
 9242POPC   C4A47742  26.081  12.103   7.355
 9242POPC   C1B47743  25.834  12.016   6.455
 9242POPC   C2B47744  25.815  12.047   6.755
 9242POPC   C3B47745  25.845  12.006   7.055
 9242POPC   C4B47746  25.838  12.024   7.355
 9243POPC   NC347747  37.713  21.392   5.555
 9243POPC   PO447748  37.721  21.433   5.855
 9243POPC   GL147749  37.696  21.399   6.155
 9243POPC   GL247750  37.592  21.324   6.155
 9243POPC   C1A47751  37.700  21.359   6.455
 9243POPC   D2A47752  37.718  21.423   6.755
 9243POPC   C3A47753  37.722  21.407   7.055
 9243POPC   C4A47754  37.717  21.373   7.355
 9243POPC   C1B47755  37.426  21.274   6.455
 9243POPC   C2B47756  37.469  21.318   6.755
 9243POPC   C3B47757  37.433  21.235   7.055
 9243POPC   C4B47758  37.477  21.332   7.355
 9244POPC   NC347759  25.310   5.143   5.555
 9244POPC   PO447760  25.271   5.132   5.855
 9244POPC   GL147761  25.281   5.111   6.155
 9244POPC   GL247762  25.148   5.188   6.155
 9244POPC   C1A47763  25.247   5.060   6.455
 9244POPC   D2A47764  25.308   5.084   6.755
 9244POPC   C3A47765  25.253   5.104   7.055
 9244POPC   C4A47766  25.258   5.117   7.355
 9244POPC   C1B47767  25.079   5.233   6.455
 9244POPC   C2B47768  25.019   5.189   6.755
 9244POPC   C3B47769  25.049   5.180   7.055
 9244POPC   C4B47770  25.016   5.196   7.355
 9245POPC   NC347771   6.664  12.033   5.555
 9245POPC   PO447772   6.630  12.044   5.855
 9245POPC   GL147773   6.612  12.087   6.155
 9245POPC   GL247774   6.646  11.976   6.155
 9245POPC   C1A47775   6.622  12.044   6.455
 9245POPC   D2A47776   6.636  12.071   6.755
 9245POPC   C3A47777   6.647  12.114   7.055
 9245POPC   C4A47778   6.659  12.064   7.355
 9245POPC   C1B47779   6.581  11.876   6.455
 9245POPC   C2B47780   6.603  11.847   6.755
 9245POPC   C3B47781   6.550  11.814   7.055
 9245POPC   C4B47782   6.615  11.835   7.355
 9246POPC   NC347783   2.805  33.073   5.555
 9246POPC   PO447784   2.797  33.072   5.855
 9246POPC   GL147785   2.747  33.070   6.155
 9246POPC   GL247786   2.803  33.069   6.155
 9246POPC   C1A47787   2.717  33.002   6.455
 9246POPC   D2A47788   2.717  33.025   6.755
 9246POPC   C3A47789   2.811  33.066   7.055
 9246POPC   C4A47790   2.805  33.016   7.355
 9246POPC   C1B47791   2.969  33.242   6.455
 9246POPC   C2B47792   2.940  33.191   6.755
 9246POPC   C3B47793   2.910  33.214   7.055
 9246POPC   C4B47794   2.958  33.207   7.355
 9247POPC   NC347795  36.890  15.977   5.555
 9247POPC   PO447796  36.901  15.936   5.855
 9247POPC   GL147797  36.908  15.997   6.155
 9247POPC   GL247798  36.814  15.993   6.155
 9247POPC   C1A47799  36.948  15.947   6.455
 9247POPC   D2A47800  36.905  15.972   6.755
 9247POPC   C3A47801  36.861  15.936   7.055
 9247POPC   C4A47802  36.949  15.947   7.355
 9247POPC   C1B47803  36.730  16.110   6.455
 9247POPC   C2B47804  36.681  16.156   6.755
 9247POPC   C3B47805  36.695  16.108   7.055
 9247POPC   C4B47806  36.726  16.127   7.355
 9248POPC   NC347807   5.070  30.731   5.555
 9248POPC   PO447808   5.103  30.727   5.855
 9248POPC   GL147809   5.120  30.719   6.155
 9248POPC   GL247810   5.132  30.538   6.155
 9248POPC   C1A47811   5.054  30.705   6.455
 9248POPC   D2A47812   5.052  30.658   6.755
 9248POPC   C3A47813   5.134  30.687   7.055
 9248POPC   C4A47814   5.128  30.717   7.355
 9248POPC   C1B47815   5.116  30.401   6.455
 9248POPC   C2B47816   5.071  30.465   6.755
 9248POPC   C3B47817   5.086  30.444   7.055
 9248POPC   C4B47818   5.069  30.425   7.355
 9249POPC   NC347819   1.195  18.259   5.555
 9249POPC   PO447820   1.218  18.248   5.855
 9249POPC   GL147821   1.204  18.267   6.155
 9249POPC   GL247822   1.070  18.309   6.155
 9249POPC   C1A47823   1.238  18.317   6.455
 9249POPC   D2A47824   1.211  18.318   6.755
 9249POPC   C3A47825   1.183  18.260   7.055
 9249POPC   C4A47826   1.187  18.307   7.355
 9249POPC   C1B47827   0.928  18.361   6.455
 9249POPC   C2B47828   0.976  18.361   6.755
 9249POPC   C3B47829   0.923  18.316   7.055
 9249POPC   C4B47830   0.948  18.289   7.355
 9250POPC   NC347831  13.604  42.313   5.555
 9250POPC   PO447832  13.624  42.329   5.855
 9250POPC   GL147833  13.655  42.342   6.155
 9250POPC   GL247834  13.709  42.202   6.155
 9250POPC   C1A47835  13.664  42.291   6.455
 9250POPC   D2A47836  13.665  42.307   6.755
 9250POPC   C3A47837  13.579  42.332   7.055
 9250POPC   C4A47838  13.624  42.294   7.355
 9250POPC   C1B47839  13.774  42.153   6.455
 9250POPC   C2B47840  13.727  42.133   6.755
 9250POPC   C3B47841  13.794  42.161   7.055
 9250POPC   C4B47842  13.766  42.141   7.355
 9251POPC   NC347843  11.326   0.458   5.555
 9251POPC   PO447844  11.264   0.480   5.855
 9251POPC   GL147845  11.330   0.422   6.155
 9251POPC   GL247846  11.130   0.417   6.155
 9251POPC   C1A47847  11.287   0.402   6.455
 9251POPC   D2A47848  11.252   0.472   6.755
 9251POPC   C3A47849  11.288   0.432   7.055
 9251POPC   C4A47850  11.261   0.439   7.355
 9251POPC   C1B47851  11.068   0.466   6.455
 9251POPC   C2B47852  11.095   0.448   6.755
 9251POPC   C3B47853  11.045   0.470   7.055
 9251POPC   C4B47854  11.097   0.484   7.355
 9252POPC   NC347855   3.585   7.393   5.555
 9252POPC   PO447856   3.524   7.435   5.855
 9252POPC   GL147857   3.582   7.470   6.155
 9252POPC   GL247858   3.589   7.570   6.155
 9252POPC   C1A47859   3.570   7.419   6.455
 9252POPC   D2A47860   3.559   7.409   6.755
 9252POPC   C3A47861   3.548   7.386   7.055
 9252POPC   C4A47862   3.578   7.408   7.355
 9252POPC   C1B47863   3.685   7.613   6.455
 9252POPC   C2B47864   3.609   7.656   6.755
 9252POPC   C3B47865   3.650   7.660   7.055
 9252POPC   C4B47866   3.655   7.676   7.355
 9253POPC   NC347867  33.762  42.362   5.555
 9253POPC   PO447868  33.804  42.322   5.855
 9253POPC   GL147869  33.818  42.334   6.155
 9253POPC   GL247870  33.690  42.355   6.155
 9253POPC   C1A47871  33.820  42.381   6.455
 9253POPC   D2A47872  33.824  42.285   6.755
 9253POPC   C3A47873  33.832  42.324   7.055
 9253POPC   C4A47874  33.782  42.321   7.355
 9253POPC   C1B47875  33.521  42.305   6.455
 9253POPC   C2B47876  33.551  42.313   6.755
 9253POPC   C3B47877  33.594  42.294   7.055
 9253POPC   C4B47878  33.517  42.321   7.355
 9254POPC   NC347879  26.083   3.567   5.555
 9254POPC   PO447880  26.079   3.577   5.855
 9254POPC   GL147881  26.071   3.550   6.155
 9254POPC   GL247882  26.180   3.598   6.155
 9254POPC   C1A47883  26.080   3.508   6.455
 9254POPC   D2A47884  26.024   3.577   6.755
 9254POPC   C3A47885  26.013   3.590   7.055
 9254POPC   C4A47886  26.065   3.539   7.355
 9254POPC   C1B47887  26.235   3.669   6.455
 9254POPC   C2B47888  26.188   3.672   6.755
 9254POPC   C3B47889  26.232   3.706   7.055
 9254POPC   C4B47890  26.210   3.666   7.355
 9255POPC   NC347891  29.153  15.138   5.555
 9255POPC   PO447892  29.135  15.151   5.855
 9255POPC   GL147893  29.156  15.182   6.155
 9255POPC   GL247894  28.975  15.226   6.155
 9255POPC   C1A47895  29.188  15.151   6.455
 9255POPC   D2A47896  29.166  15.137   6.755
 9255POPC   C3A47897  29.100  15.180   7.055
 9255POPC   C4A47898  29.163  15.132   7.355
 9255POPC   C1B47899  28.853  15.193   6.455
 9255POPC   C2B47900  28.947  15.273   6.755
 9255POPC   C3B47901  28.887  15.193   7.055
 9255POPC   C4B47902  28.947  15.277   7.355
 9256POPC   NC347903  31.429  43.850   5.555
 9256POPC   PO447904  31.474  43.860   5.855
 9256POPC   GL147905  31.457  43.837   6.155
 9256POPC   GL247906  31.414  43.960   6.155
 9256POPC   C1A47907  31.490  43.912   6.455
 9256POPC   D2A47908  31.455  43.922   6.755
 9256POPC   C3A47909  31.442  43.910   7.055
 9256POPC   C4A47910  31.496  43.934   7.355
 9256POPC   C1B47911  31.272  44.010   6.455
 9256POPC   C2B47912  31.226  44.046   6.755
 9256POPC   C3B47913  31.264  44.076   7.055
 9256POPC   C4B47914  31.294  44.049   7.355
 9257POPC   NC347915   5.872  18.313   5.555
 9257POPC   PO447916   5.871  18.243   5.855
 9257POPC   GL147917   5.880  18.309   6.155
 9257POPC   GL247918   5.856  18.382   6.155
 9257POPC   C1A47919   5.870  18.316   6.455
 9257POPC   D2A47920   5.835  18.251   6.755
 9257POPC   C3A47921   5.844  18.290   7.055
 9257POPC   C4A47922   5.869  18.330   7.355
 9257POPC   C1B47923   5.882  18.569   6.455
 9257POPC   C2B47924   5.784  18.493   6.755
 9257POPC   C3B47925   5.835  18.489   7.055
 9257POPC   C4B47926   5.823  18.486   7.355
 9258POPC   NC347927   5.870  42.376   5.555
 9258POPC   PO447928   5.882  42.364   5.855
 9258POPC   GL147929   5.895  42.318   6.155
 9258POPC   GL247930   5.940  42.303   6.155
 9258POPC   C1A47931   5.910  42.310   6.455
 9258POPC   D2A47932   5.894  42.327   6.755
 9258POPC   C3A47933   5.894  42.340   7.055
 9258POPC   C4A47934   5.851  42.332   7.355
 9258POPC   C1B47935   6.124  42.153   6.455
 9258POPC   C2B47936   6.108  42.222   6.755
 9258POPC   C3B47937   6.030  42.165   7.055
 9258POPC   C4B47938   6.029  42.168   7.355
 9259POPC   NC347939  19.099  22.163   5.555
 9259POPC   PO447940  19.053  22.163   5.855
 9259POPC   GL147941  19.018  22.177   6.155
 9259POPC   GL247942  19.155  22.260   6.155
 9259POPC   C1A47943  19.026  22.165   6.455
 9259POPC   D2A47944  19.020  22.125   6.755
 9259POPC   C3A47945  19.063  22.193   7.055
 9259POPC   C4A47946  19.060  22.116   7.355
 9259POPC   C1B47947  19.309  22.248   6.455
 9259POPC   C2B47948  19.331  22.299   6.755
 9259POPC   C3B47949  19.311  22.228   7.055
 9259POPC   C4B47950  19.280  22.305   7.355
 9260POPC   NC347951  33.765  20.593   5.555
 9260POPC   PO447952  33.805  20.585   5.855
 9260POPC   GL147953  33.779  20.641   6.155
 9260POPC   GL247954  33.869  20.551   6.155
 9260POPC   C1A47955  33.796  20.657   6.455
 9260POPC   D2A47956  33.805  20.567   6.755
 9260POPC   C3A47957  33.814  20.627   7.055
 9260POPC   C4A47958  33.797  20.607   7.355
 9260POPC   C1B47959  34.029  20.444   6.455
 9260POPC   C2B47960  33.949  20.433   6.755
 9260POPC   C3B47961  33.962  20.413   7.055
 9260POPC   C4B47962  34.000  20.451   7.355
 9261POPC   NC347963  11.343   7.379   5.555
 9261POPC   PO447964  11.304   7.426   5.855
 9261POPC   GL147965  11.297   7.389   6.155
 9261POPC   GL247966  11.448   7.376   6.155
 9261POPC   C1A47967  11.346   7.457   6.455
 9261POPC   D2A47968  11.321   7.420   6.755
 9261POPC   C3A47969  11.289   7.397   7.055
 9261POPC   C4A47970  11.321   7.408   7.355
 9261POPC   C1B47971  11.548   7.423   6.455
 9261POPC   C2B47972  11.522   7.466   6.755
 9261POPC   C3B47973  11.593   7.405   7.055
 9261POPC   C4B47974  11.545   7.443   7.355
 9262POPC   NC347975   2.798  20.565   5.555
 9262POPC   PO447976   2.718  20.656   5.855
 9262POPC   GL147977   2.758  20.618   6.155
 9262POPC   GL247978   2.683  20.597   6.155
 9262POPC   C1A47979   2.727  20.583   6.455
 9262POPC   D2A47980   2.768  20.583   6.755
 9262POPC   C3A47981   2.799  20.572   7.055
 9262POPC   C4A47982   2.718  20.622   7.355
 9262POPC   C1B47983   2.494  20.668   6.455
 9262POPC   C2B47984   2.479  20.612   6.755
 9262POPC   C3B47985   2.567  20.632   7.055
 9262POPC   C4B47986   2.522  20.680   7.355
 9263POPC   NC347987  18.332  29.136   5.555
 9263POPC   PO447988  18.299  29.099   5.855
 9263POPC   GL147989  18.240  29.156   6.155
 9263POPC   GL247990  18.272  28.985   6.155
 9263POPC   C1A47991  18.297  29.125   6.455
 9263POPC   D2A47992  18.278  29.120   6.755
 9263POPC   C3A47993  18.295  29.144   7.055
 9263POPC   C4A47994  18.290  29.104   7.355
 9263POPC   C1B47995  18.366  28.890   6.455
 9263POPC   C2B47996  18.330  28.896   6.755
 9263POPC   C3B47997  18.358  28.859   7.055
 9263POPC   C4B47998  18.320  28.945   7.355
 9264POPC   NC347999  19.036  17.481   5.555
 9264POPC   PO448000  19.028  17.510   5.855
 9264POPC   GL148001  19.060  17.468   6.155
 9264POPC   GL248002  19.140  17.546   6.155
 9264POPC   C1A48003  19.026  17.490   6.455
 9264POPC   D2A48004  19.070  17.504   6.755
 9264POPC   C3A48005  19.079  17.475   7.055
 9264POPC   C4A48006  19.017  17.481   7.355
 9264POPC   C1B48007  19.303  17.579   6.455
 9264POPC   C2B48008  19.309  17.657   6.755
 9264POPC   C3B48009  19.248  17.588   7.055
 9264POPC   C4B48010  19.279  17.576   7.355
 9265POPC   NC348011   1.223  22.156   5.555
 9265POPC   PO448012   1.178  22.184   5.855
 9265POPC   GL148013   1.205  22.139   6.155
 9265POPC   GL248014   1.268  22.241   6.155
 9265POPC   C1A48015   1.201  22.146   6.455
 9265POPC   D2A48016   1.197  22.156   6.755
 9265POPC   C3A48017   1.223  22.121   7.055
 9265POPC   C4A48018   1.211  22.205   7.355
 9265POPC   C1B48019   1.276  22.395   6.455
 9265POPC   C2B48020   1.264  22.421   6.755
 9265POPC   C3B48021   1.297  22.437   7.055
 9265POPC   C4B48022   1.289  22.367   7.355
 9266POPC   NC348023  21.360  17.486   5.555
 9266POPC   PO448024  21.344  17.483   5.855
 9266POPC   GL148025  21.423  17.466   6.155
 9266POPC   GL248026  21.488  17.378   6.155
 9266POPC   C1A48027  21.385  17.524   6.455
 9266POPC   D2A48028  21.344  17.458   6.755
 9266POPC   C3A48029  21.435  17.494   7.055
 9266POPC   C4A48030  21.425  17.532   7.355
 9266POPC   C1B48031  21.548  17.384   6.455
 9266POPC   C2B48032  21.536  17.383   6.755
 9266POPC   C3B48033  21.566  17.334   7.055
 9266POPC   C4B48034  21.563  17.366   7.355
 9267POPC   NC348035  26.861  40.793   5.555
 9267POPC   PO448036  26.847  40.764   5.855
 9267POPC   GL148037  26.779  40.786   6.155
 9267POPC   GL248038  26.898  40.880   6.155
 9267POPC   C1A48039  26.805  40.752   6.455
 9267POPC   D2A48040  26.795  40.798   6.755
 9267POPC   C3A48041  26.778  40.822   7.055
 9267POPC   C4A48042  26.837  40.751   7.355
 9267POPC   C1B48043  27.048  40.932   6.455
 9267POPC   C2B48044  27.038  40.897   6.755
 9267POPC   C3B48045  27.001  40.952   7.055
 9267POPC   C4B48046  27.018  40.938   7.355
 9268POPC   NC348047   5.830   2.739   5.555
 9268POPC   PO448048   5.895   2.773   5.855
 9268POPC   GL148049   5.838   2.731   6.155
 9268POPC   GL248050   5.952   2.732   6.155
 9268POPC   C1A48051   5.868   2.731   6.455
 9268POPC   D2A48052   5.905   2.812   6.755
 9268POPC   C3A48053   5.839   2.807   7.055
 9268POPC   C4A48054   5.822   2.793   7.355
 9268POPC   C1B48055   6.090   2.605   6.455
 9268POPC   C2B48056   6.110   2.608   6.755
 9268POPC   C3B48057   6.095   2.651   7.055
 9268POPC   C4B48058   6.101   2.658   7.355
 9269POPC   NC348059  21.389  31.506   5.555
 9269POPC   PO448060  21.423  31.480   5.855
 9269POPC   GL148061  21.389  31.477   6.155
 9269POPC   GL248062  21.315  31.404   6.155
 9269POPC   C1A48063  21.415  31.475   6.455
 9269POPC   D2A48064  21.415  31.455   6.755
 9269POPC   C3A48065  21.397  31.507   7.055
 9269POPC   C4A48066  21.348  31.431   7.355
 9269POPC   C1B48067  21.263  31.216   6.455
 9269POPC   C2B48068  21.233  31.204   6.755
 9269POPC   C3B48069  21.288  31.221   7.055
 9269POPC   C4B48070  21.258  31.234   7.355
 9270POPC   NC348071  36.861  44.705   5.555
 9270POPC   PO448072  36.872  44.670   5.855
 9270POPC   GL148073  36.947  44.662   6.155
 9270POPC   GL248074  36.828  44.586   6.155
 9270POPC   C1A48075  36.884  44.629   6.455
 9270POPC   D2A48076  36.912  44.669   6.755
 9270POPC   C3A48077  36.949  44.661   7.055
 9270POPC   C4A48078  36.930  44.674   7.355
 9270POPC   C1B48079  36.652  44.567   6.455
 9270POPC   C2B48080  36.711  44.590   6.755
 9270POPC   C3B48081  36.689  44.553   7.055
 9270POPC   C4B48082  36.728  44.560   7.355
 9271POPC   NC348083  18.303  12.856   5.555
 9271POPC   PO448084  18.270  12.824   5.855
 9271POPC   GL148085  18.297  12.898   6.155
 9271POPC   GL248086  18.337  12.686   6.155
 9271POPC   C1A48087  18.238  12.871   6.455
 9271POPC   D2A48088  18.312  12.806   6.755
 9271POPC   C3A48089  18.296  12.865   7.055
 9271POPC   C4A48090  18.246  12.833   7.355
 9271POPC   C1B48091  18.367  12.558   6.455
 9271POPC   C2B48092  18.283  12.564   6.755
 9271POPC   C3B48093  18.359  12.617   7.055
 9271POPC   C4B48094  18.311  12.639   7.355
 9272POPC   NC348095  41.540  14.410   5.555
 9272POPC   PO448096  41.542  14.369   5.855
 9272POPC   GL148097  41.606  14.394   6.155
 9272POPC   GL248098  41.647  14.352   6.155
 9272POPC   C1A48099  41.607  14.402   6.455
 9272POPC   D2A48100  41.555  14.378   6.755
 9272POPC   C3A48101  41.543  14.418   7.055
 9272POPC   C4A48102  41.513  14.407   7.355
 9272POPC   C1B48103  41.831  14.278   6.455
 9272POPC   C2B48104  41.753  14.297   6.755
 9272POPC   C3B48105  41.771  14.323   7.055
 9272POPC   C4B48106  41.793  14.306   7.355
 9273POPC   NC348107  16.721   9.731   5.555
 9273POPC   PO448108  16.741   9.761   5.855
 9273POPC   GL148109  16.750   9.747   6.155
 9273POPC   GL248110  16.641   9.881   6.155
 9273POPC   C1A48111  16.707   9.726   6.455
 9273POPC   D2A48112  16.721   9.780   6.755
 9273POPC   C3A48113  16.707   9.711   7.055
 9273POPC   C4A48114  16.738   9.705   7.355
 9273POPC   C1B48115  16.610   9.964   6.455
 9273POPC   C2B48116  16.565   9.973   6.755
 9273POPC   C3B48117  16.607   9.913   7.055
 9273POPC   C4B48118  16.618   9.929   7.355
 9274POPC   NC348119  43.105  21.383   5.555
 9274POPC   PO448120  43.103  21.346   5.855
 9274POPC   GL148121  43.153  21.418   6.155
 9274POPC   GL248122  43.185  21.271   6.155
 9274POPC   C1A48123  43.115  21.362   6.455
 9274POPC   D2A48124  43.102  21.350   6.755
 9274POPC   C3A48125  43.139  21.364   7.055
 9274POPC   C4A48126  43.080  21.410   7.355
 9274POPC   C1B48127  43.188  21.189   6.455
 9274POPC   C2B48128  43.210  21.157   6.755
 9274POPC   C3B48129  43.195  21.132   7.055
 9274POPC   C4B48130  43.224  21.164   7.355
 9275POPC   NC348131   5.837  19.868   5.555
 9275POPC   PO448132   5.839  19.785   5.855
 9275POPC   GL148133   5.841  19.817   6.155
 9275POPC   GL248134   6.014  19.880   6.155
 9275POPC   C1A48135   5.872  19.865   6.455
 9275POPC   D2A48136   5.871  19.799   6.755
 9275POPC   C3A48137   5.919  19.838   7.055
 9275POPC   C4A48138   5.852  19.875   7.355
 9275POPC   C1B48139   6.163  19.844   6.455
 9275POPC   C2B48140   6.091  19.851   6.755
 9275POPC   C3B48141   6.160  19.810   7.055
 9275POPC   C4B48142   6.133  19.815   7.355
 9276POPC   NC348143  21.426  24.506   5.555
 9276POPC   PO448144  21.395  24.441   5.855
 9276POPC   GL148145  21.393  24.468   6.155
 9276POPC   GL248146  21.280  24.377   6.155
 9276POPC   C1A48147  21.432  24.513   6.455
 9276POPC   D2A48148  21.398  24.444   6.755
 9276POPC   C3A48149  21.342  24.506   7.055
 9276POPC   C4A48150  21.394  24.447   7.355
 9276POPC   C1B48151  21.203  24.314   6.455
 9276POPC   C2B48152  21.279  24.260   6.755
 9276POPC   C3B48153  21.252  24.237   7.055
 9276POPC   C4B48154  21.293  24.243   7.355
 9277POPC   NC348155   3.506   9.018   5.555
 9277POPC   PO448156   3.523   8.972   5.855
 9277POPC   GL148157   3.504   8.946   6.155
 9277POPC   GL248158   3.432   8.910   6.155
 9277POPC   C1A48159   3.543   8.982   6.455
 9277POPC   D2A48160   3.516   8.963   6.755
 9277POPC   C3A48161   3.538   8.953   7.055
 9277POPC   C4A48162   3.556   8.937   7.355
 9277POPC   C1B48163   3.442   8.754   6.455
 9277POPC   C2B48164   3.390   8.804   6.755
 9277POPC   C3B48165   3.432   8.722   7.055
 9277POPC   C4B48166   3.384   8.777   7.355
 9278POPC   NC348167  36.105   1.258   5.555
 9278POPC   PO448168  36.160   1.263   5.855
 9278POPC   GL148169  36.146   1.234   6.155
 9278POPC   GL248170  36.199   1.195   6.155
 9278POPC   C1A48171  36.174   1.205   6.455
 9278POPC   D2A48172  36.124   1.165   6.755
 9278POPC   C3A48173  36.090   1.200   7.055
 9278POPC   C4A48174  36.124   1.204   7.355
 9278POPC   C1B48175  36.321   1.130   6.455
 9278POPC   C2B48176  36.404   1.161   6.755
 9278POPC   C3B48177  36.373   1.178   7.055
 9278POPC   C4B48178  36.355   1.093   7.355
 9279POPC   NC348179  19.872  33.799   5.555
 9279POPC   PO448180  19.787  33.818   5.855
 9279POPC   GL148181  19.830  33.817   6.155
 9279POPC   GL248182  19.777  33.917   6.155
 9279POPC   C1A48183  19.790  33.802   6.455
 9279POPC   D2A48184  19.880  33.806   6.755
 9279POPC   C3A48185  19.810  33.768   7.055
 9279POPC   C4A48186  19.862  33.849   7.355
 9279POPC   C1B48187  19.769  33.993   6.455
 9279POPC   C2B48188  19.729  34.044   6.755
 9279POPC   C3B48189  19.765  33.975   7.055
 9279POPC   C4B48190  19.765  34.030   7.355
 9280POPC   NC348191  12.885  21.435   5.555
 9280POPC   PO448192  12.880  21.427   5.855
 9280POPC   GL148193  12.855  21.401   6.155
 9280POPC   GL248194  12.959  21.410   6.155
 9280POPC   C1A48195  12.810  21.348   6.455
 9280POPC   D2A48196  12.836  21.355   6.755
 9280POPC   C3A48197  12.805  21.428   7.055
 9280POPC   C4A48198  12.884  21.397   7.355
 9280POPC   C1B48199  13.030  21.516   6.455
 9280POPC   C2B48200  13.069  21.470   6.755
 9280POPC   C3B48201  13.046  21.459   7.055
 9280POPC   C4B48202  13.110  21.535   7.355
 9281POPC   NC348203  33.045  28.347   5.555
 9281POPC   PO448204  33.058  28.369   5.855
 9281POPC   GL148205  33.055  28.366   6.155
 9281POPC   GL248206  32.984  28.249   6.155
 9281POPC   C1A48207  33.024  28.417   6.455
 9281POPC   D2A48208  33.044  28.397   6.755
 9281POPC   C3A48209  33.016  28.370   7.055
 9281POPC   C4A48210  33.015  28.413   7.355
 9281POPC   C1B48211  32.993  28.105   6.455
 9281POPC   C2B48212  33.054  28.098   6.755
 9281POPC   C3B48213  33.050  28.131   7.055
 9281POPC   C4B48214  33.032  28.134   7.355
 9282POPC   NC348215   4.274  36.889   5.555
 9282POPC   PO448216   4.284  36.864   5.855
 9282POPC   GL148217   4.324  36.899   6.155
 9282POPC   GL248218   4.208  36.787   6.155
 9282POPC   C1A48219   4.349  36.878   6.455
 9282POPC   D2A48220   4.342  36.876   6.755
 9282POPC   C3A48221   4.286  36.874   7.055
 9282POPC   C4A48222   4.342  36.901   7.355
 9282POPC   C1B48223   4.170  36.739   6.455
 9282POPC   C2B48224   4.193  36.671   6.755
 9282POPC   C3B48225   4.126  36.654   7.055
 9282POPC   C4B48226   4.143  36.659   7.355
 9283POPC   NC348227  25.275  15.132   5.555
 9283POPC   PO448228  25.271  15.166   5.855
 9283POPC   GL148229  25.257  15.138   6.155
 9283POPC   GL248230  25.349  15.195   6.155
 9283POPC   C1A48231  25.304  15.144   6.455
 9283POPC   D2A48232  25.294  15.206   6.755
 9283POPC   C3A48233  25.307  15.133   7.055
 9283POPC   C4A48234  25.288  15.223   7.355
 9283POPC   C1B48235  25.487  15.240   6.455
 9283POPC   C2B48236  25.504  15.205   6.755
 9283POPC   C3B48237  25.555  15.228   7.055
 9283POPC   C4B48238  25.518  15.229   7.355
 9284POPC   NC348239  42.327  32.227   5.555
 9284POPC   PO448240  42.334  32.282   5.855
 9284POPC   GL148241  42.378  32.226   6.155
 9284POPC   GL248242  42.255  32.279   6.155
 9284POPC   C1A48243  42.365  32.244   6.455
 9284POPC   D2A48244  42.335  32.224   6.755
 9284POPC   C3A48245  42.313  32.256   7.055
 9284POPC   C4A48246  42.382  32.255   7.355
 9284POPC   C1B48247  42.128  32.411   6.455
 9284POPC   C2B48248  42.069  32.322   6.755
 9284POPC   C3B48249  42.107  32.389   7.055
 9284POPC   C4B48250  42.125  32.361   7.355
 9285POPC   NC348251   4.327  17.468   5.555
 9285POPC   PO448252   4.278  17.490   5.855
 9285POPC   GL148253   4.328  17.457   6.155
 9285POPC   GL248254   4.431  17.637   6.155
 9285POPC   C1A48255   4.286  17.526   6.455
 9285POPC   D2A48256   4.346  17.554   6.755
 9285POPC   C3A48257   4.318  17.544   7.055
 9285POPC   C4A48258   4.292  17.547   7.355
 9285POPC   C1B48259   4.459  17.666   6.455
 9285POPC   C2B48260   4.497  17.629   6.755
 9285POPC   C3B48261   4.501  17.682   7.055
 9285POPC   C4B48262   4.531  17.691   7.355
 9286POPC   NC348263  31.473  36.166   5.555
 9286POPC   PO448264  31.459  36.080   5.855
 9286POPC   GL148265  31.425  36.127   6.155
 9286POPC   GL248266  31.348  36.122   6.155
 9286POPC   C1A48267  31.454  36.140   6.455
 9286POPC   D2A48268  31.461  36.079   6.755
 9286POPC   C3A48269  31.487  36.107   7.055
 9286POPC   C4A48270  31.479  36.132   7.355
 9286POPC   C1B48271  31.199  36.109   6.455
 9286POPC   C2B48272  31.234  36.165   6.755
 9286POPC   C3B48273  31.195  36.144   7.055
 9286POPC   C4B48274  31.240  36.115   7.355
 9287POPC   NC348275   7.459  11.331   5.555
 9287POPC   PO448276   7.428  11.288   5.855
 9287POPC   GL148277   7.407  11.263   6.155
 9287POPC   GL248278   7.397  11.420   6.155
 9287POPC   C1A48279   7.388  11.342   6.455
 9287POPC   D2A48280   7.450  11.317   6.755
 9287POPC   C3A48281   7.429  11.338   7.055
 9287POPC   C4A48282   7.443  11.266   7.355
 9287POPC   C1B48283   7.342  11.526   6.455
 9287POPC   C2B48284   7.388  11.539   6.755
 9287POPC   C3B48285   7.341  11.557   7.055
 9287POPC   C4B48286   7.399  11.589   7.355
 9288POPC   NC348287   1.942  19.859   5.555
 9288POPC   PO448288   1.960  19.882   5.855
 9288POPC   GL148289   1.961  19.836   6.155
 9288POPC   GL248290   2.000  19.699   6.155
 9288POPC   C1A48291   1.971  19.877   6.455
 9288POPC   D2A48292   2.013  19.788   6.755
 9288POPC   C3A48293   1.974  19.801   7.055
 9288POPC   C4A48294   1.986  19.845   7.355
 9288POPC   C1B48295   2.032  19.570   6.455
 9288POPC   C2B48296   2.051  19.581   6.755
 9288POPC   C3B48297   2.094  19.636   7.055
 9288POPC   C4B48298   2.048  19.616   7.355
 9289POPC   NC348299  18.316  15.136   5.555
 9289POPC   PO448300  18.247  15.228   5.855
 9289POPC   GL148301  18.268  15.135   6.155
 9289POPC   GL248302  18.175  15.089   6.155
 9289POPC   C1A48303  18.234  15.147   6.455
 9289POPC   D2A48304  18.256  15.184   6.755
 9289POPC   C3A48305  18.276  15.139   7.055
 9289POPC   C4A48306  18.246  15.175   7.355
 9289POPC   C1B48307  18.144  14.953   6.455
 9289POPC   C2B48308  18.120  14.979   6.755
 9289POPC   C3B48309  18.065  15.015   7.055
 9289POPC   C4B48310  18.087  15.011   7.355
 9290POPC   NC348311  29.932  18.326   5.555
 9290POPC   PO448312  29.890  18.253   5.855
 9290POPC   GL148313  29.933  18.322   6.155
 9290POPC   GL248314  29.786  18.350   6.155
 9290POPC   C1A48315  29.938  18.285   6.455
 9290POPC   D2A48316  29.911  18.305   6.755
 9290POPC   C3A48317  29.963  18.300   7.055
 9290POPC   C4A48318  29.963  18.256   7.355
 9290POPC   C1B48319  29.693  18.380   6.455
 9290POPC   C2B48320  29.684  18.332   6.755
 9290POPC   C3B48321  29.725  18.365   7.055
 9290POPC   C4B48322  29.723  18.355   7.355
 9291POPC   NC348323  35.313   6.667   5.555
 9291POPC   PO448324  35.353   6.617   5.855
 9291POPC   GL148325  35.305   6.665   6.155
 9291POPC   GL248326  35.238   6.715   6.155
 9291POPC   C1A48327  35.382   6.694   6.455
 9291POPC   D2A48328  35.328   6.690   6.755
 9291POPC   C3A48329  35.360   6.651   7.055
 9291POPC   C4A48330  35.379   6.678   7.355
 9291POPC   C1B48331  35.159   6.833   6.455
 9291POPC   C2B48332  35.204   6.812   6.755
 9291POPC   C3B48333  35.200   6.847   7.055
 9291POPC   C4B48334  35.127   6.800   7.355
 9292POPC   NC348335  19.791   2.745   5.555
 9292POPC   PO448336  19.816   2.805   5.855
 9292POPC   GL148337  19.788   2.742   6.155
 9292POPC   GL248338  19.928   2.629   6.155
 9292POPC   C1A48339  19.824   2.802   6.455
 9292POPC   D2A48340  19.871   2.781   6.755
 9292POPC   C3A48341  19.857   2.811   7.055
 9292POPC   C4A48342  19.827   2.807   7.355
 9292POPC   C1B48343  19.926   2.528   6.455
 9292POPC   C2B48344  19.968   2.502   6.755
 9292POPC   C3B48345  19.961   2.569   7.055
 9292POPC   C4B48346  19.981   2.502   7.355
 9293POPC   NC348347   3.537  21.365   5.555
 9293POPC   PO448348   3.572  21.343   5.855
 9293POPC   GL148349   3.586  21.364   6.155
 9293POPC   GL248350   3.633  21.269   6.155
 9293POPC   C1A48351   3.581  21.346   6.455
 9293POPC   D2A48352   3.576  21.356   6.755
 9293POPC   C3A48353   3.496  21.360   7.055
 9293POPC   C4A48354   3.500  21.345   7.355
 9293POPC   C1B48355   3.696  21.206   6.455
 9293POPC   C2B48356   3.723  21.208   6.755
 9293POPC   C3B48357   3.720  21.202   7.055
 9293POPC   C4B48358   3.688  21.181   7.355
 9294POPC   NC348359  12.060  44.695   5.555
 9294POPC   PO448360  12.097  44.614   5.855
 9294POPC   GL148361  12.113  44.659   6.155
 9294POPC   GL248362  12.057  44.534   6.155
 9294POPC   C1A48363  12.052  44.705   6.455
 9294POPC   D2A48364  12.088  44.650   6.755
 9294POPC   C3A48365  12.114  44.666   7.055
 9294POPC   C4A48366  12.091  44.690   7.355
 9294POPC   C1B48367  12.070  44.399   6.455
 9294POPC   C2B48368  12.132  44.386   6.755
 9294POPC   C3B48369  12.096  44.376   7.055
 9294POPC   C4B48370  12.068  44.442   7.355
 9295POPC   NC348371   5.118  29.172   5.555
 9295POPC   PO448372   5.066  29.143   5.855
 9295POPC   GL148373   5.109  29.156   6.155
 9295POPC   GL248374   5.186  29.271   6.155
 9295POPC   C1A48375   5.126  29.108   6.455
 9295POPC   D2A48376   5.118  29.169   6.755
 9295POPC   C3A48377   5.063  29.183   7.055
 9295POPC   C4A48378   5.112  29.123   7.355
 9295POPC   C1B48379   5.287  29.340   6.455
 9295POPC   C2B48380   5.301  29.333   6.755
 9295POPC   C3B48381   5.213  29.338   7.055
 9295POPC   C4B48382   5.235  29.339   7.355
 9296POPC   NC348383  17.490   9.774   5.555
 9296POPC   PO448384  17.530   9.770   5.855
 9296POPC   GL148385  17.536   9.699   6.155
 9296POPC   GL248386  17.419   9.759   6.155
 9296POPC   C1A48387  17.481   9.772   6.455
 9296POPC   D2A48388  17.464   9.794   6.755
 9296POPC   C3A48389  17.535   9.764   7.055
 9296POPC   C4A48390  17.463   9.787   7.355
 9296POPC   C1B48391  17.316   9.813   6.455
 9296POPC   C2B48392  17.257   9.877   6.755
 9296POPC   C3B48393  17.323   9.813   7.055
 9296POPC   C4B48394  17.328   9.896   7.355
 9297POPC   NC348395  42.348  33.847   5.555
 9297POPC   PO448396  42.354  33.806   5.855
 9297POPC   GL148397  42.335  33.811   6.155
 9297POPC   GL248398  42.380  33.970   6.155
 9297POPC   C1A48399  42.346  33.830   6.455
 9297POPC   D2A48400  42.293  33.832   6.755
 9297POPC   C3A48401  42.383  33.841   7.055
 9297POPC   C4A48402  42.384  33.765   7.355
 9297POPC   C1B48403  42.361  34.035   6.455
 9297POPC   C2B48404  42.433  34.055   6.755
 9297POPC   C3B48405  42.392  34.010   7.055
 9297POPC   C4B48406  42.402  33.999   7.355
 9298POPC   NC348407  28.371   8.219   5.555
 9298POPC   PO448408  28.339   8.230   5.855
 9298POPC   GL148409  28.390   8.176   6.155
 9298POPC   GL248410  28.435   8.146   6.155
 9298POPC   C1A48411  28.320   8.184   6.455
 9298POPC   D2A48412  28.397   8.230   6.755
 9298POPC   C3A48413  28.375   8.164   7.055
 9298POPC   C4A48414  28.328   8.169   7.355
 9298POPC   C1B48415  28.619   8.071   6.455
 9298POPC   C2B48416  28.551   8.069   6.755
 9298POPC   C3B48417  28.545   8.045   7.055
 9298POPC   C4B48418  28.581   8.046   7.355
 9299POPC   NC348419   2.723  12.053   5.555
 9299POPC   PO448420   2.736  12.061   5.855
 9299POPC   GL148421   2.785  12.035   6.155
 9299POPC   GL248422   2.758  12.235   6.155
 9299POPC   C1A48423   2.786  12.121   6.455
 9299POPC   D2A48424   2.801  12.058   6.755
 9299POPC   C3A48425   2.781  12.107   7.055
 9299POPC   C4A48426   2.808  12.123   7.355
 9299POPC   C1B48427   2.775  12.305   6.455
 9299POPC   C2B48428   2.785  12.332   6.755
 9299POPC   C3B48429   2.834  12.296   7.055
 9299POPC   C4B48430   2.833  12.344   7.355
 9300POPC   NC348431  40.831  35.322   5.555
 9300POPC   PO448432  40.810  35.310   5.855
 9300POPC   GL148433  40.818  35.311   6.155
 9300POPC   GL248434  40.761  35.513   6.155
 9300POPC   C1A48435  40.812  35.319   6.455
 9300POPC   D2A48436  40.764  35.328   6.755
 9300POPC   C3A48437  40.747  35.399   7.055
 9300POPC   C4A48438  40.823  35.336   7.355
 9300POPC   C1B48439  40.785  35.559   6.455
 9300POPC   C2B48440  40.756  35.604   6.755
 9300POPC   C3B48441  40.762  35.628   7.055
 9300POPC   C4B48442  40.776  35.554   7.355
 9301POPC   NC348443  12.886  18.325   5.555
 9301POPC   PO448444  12.827  18.247   5.855
 9301POPC   GL148445  12.806  18.240   6.155
 9301POPC   GL248446  12.908  18.180   6.155
 9301POPC   C1A48447  12.829  18.238   6.455
 9301POPC   D2A48448  12.830  18.282   6.755
 9301POPC   C3A48449  12.881  18.317   7.055
 9301POPC   C4A48450  12.888  18.254   7.355
 9301POPC   C1B48451  12.937  18.059   6.455
 9301POPC   C2B48452  13.013  18.087   6.755
 9301POPC   C3B48453  13.012  18.087   7.055
 9301POPC   C4B48454  12.978  18.097   7.355
 9302POPC   NC348455   0.430  22.896   5.555
 9302POPC   PO448456   0.472  22.933   5.855
 9302POPC   GL148457   0.447  22.893   6.155
 9302POPC   GL248458   0.406  23.012   6.155
 9302POPC   C1A48459   0.443  22.925   6.455
 9302POPC   D2A48460   0.408  22.961   6.755
 9302POPC   C3A48461   0.405  22.918   7.055
 9302POPC   C4A48462   0.465  22.939   7.355
 9302POPC   C1B48463   0.325  23.098   6.455
 9302POPC   C2B48464   0.255  23.177   6.755
 9302POPC   C3B48465   0.307  23.127   7.055
 9302POPC   C4B48466   0.255  23.175   7.355
 9303POPC   NC348467  38.497   3.528   5.555
 9303POPC   PO448468  38.489   3.521   5.855
 9303POPC   GL148469  38.447   3.511   6.155
 9303POPC   GL248470  38.328   3.654   6.155
 9303POPC   C1A48471  38.475   3.575   6.455
 9303POPC   D2A48472  38.461   3.587   6.755
 9303POPC   C3A48473  38.490   3.502   7.055
 9303POPC   C4A48474  38.421   3.543   7.355
 9303POPC   C1B48475  38.216   3.675   6.455
 9303POPC   C2B48476  38.246   3.715   6.755
 9303POPC   C3B48477  38.238   3.719   7.055
 9303POPC   C4B48478  38.240   3.644   7.355
 9304POPC   NC348479  32.999  38.494   5.555
 9304POPC   PO448480  33.052  38.464   5.855
 9304POPC   GL148481  33.008  38.466   6.155
 9304POPC   GL248482  33.154  38.432   6.155
 9304POPC   C1A48483  33.045  38.500   6.455
 9304POPC   D2A48484  33.028  38.427   6.755
 9304POPC   C3A48485  33.042  38.407   7.055
 9304POPC   C4A48486  32.989  38.466   7.355
 9304POPC   C1B48487  33.283  38.348   6.455
 9304POPC   C2B48488  33.267  38.390   6.755
 9304POPC   C3B48489  33.285  38.368   7.055
 9304POPC   C4B48490  33.297  38.343   7.355
 9305POPC   NC348491  15.966   0.414   5.555
 9305POPC   PO448492  15.951   0.435   5.855
 9305POPC   GL148493  15.997   0.429   6.155
 9305POPC   GL248494  15.930   0.275   6.155
 9305POPC   C1A48495  15.924   0.487   6.455
 9305POPC   D2A48496  15.962   0.412   6.755
 9305POPC   C3A48497  15.919   0.483   7.055
 9305POPC   C4A48498  15.980   0.483   7.355
 9305POPC   C1B48499  15.909   0.244   6.455
 9305POPC   C2B48500  15.864   0.165   6.755
 9305POPC   C3B48501  15.912   0.152   7.055
 9305POPC   C4B48502  15.850   0.225   7.355
 9306POPC   NC348503  19.023  33.773   5.555
 9306POPC   PO448504  19.014  33.766   5.855
 9306POPC   GL148505  19.069  33.812   6.155
 9306POPC   GL248506  19.205  33.797   6.155
 9306POPC   C1A48507  19.047  33.846   6.455
 9306POPC   D2A48508  19.086  33.830   6.755
 9306POPC   C3A48509  19.083  33.830   7.055
 9306POPC   C4A48510  19.038  33.762   7.355
 9306POPC   C1B48511  19.345  33.765   6.455
 9306POPC   C2B48512  19.266  33.766   6.755
 9306POPC   C3B48513  19.262  33.795   7.055
 9306POPC   C4B48514  19.357  33.842   7.355
 9307POPC   NC348515  27.589  30.687   5.555
 9307POPC   PO448516  27.556  30.699   5.855
 9307POPC   GL148517  27.622  30.687   6.155
 9307POPC   GL248518  27.604  30.845   6.155
 9307POPC   C1A48519  27.630  30.746   6.455
 9307POPC   D2A48520  27.584  30.674   6.755
 9307POPC   C3A48521  27.577  30.735   7.055
 9307POPC   C4A48522  27.561  30.707   7.355
 9307POPC   C1B48523  27.697  30.933   6.455
 9307POPC   C2B48524  27.666  30.884   6.755
 9307POPC   C3B48525  27.699  30.943   7.055
 9307POPC   C4B48526  27.714  30.936   7.355
 9308POPC   NC348527  40.816  29.159   5.555
 9308POPC   PO448528  40.768  29.142   5.855
 9308POPC   GL148529  40.797  29.106   6.155
 9308POPC   GL248530  40.814  29.237   6.155
 9308POPC   C1A48531  40.796  29.103   6.455
 9308POPC   D2A48532  40.753  29.166   6.755
 9308POPC   C3A48533  40.787  29.140   7.055
 9308POPC   C4A48534  40.745  29.187   7.355
 9308POPC   C1B48535  40.899  29.354   6.455
 9308POPC   C2B48536  40.900  29.312   6.755
 9308POPC   C3B48537  40.907  29.395   7.055
 9308POPC   C4B48538  40.871  29.396   7.355
 9309POPC   NC348539  43.898  24.528   5.555
 9309POPC   PO448540  43.895  24.442   5.855
 9309POPC   GL148541  43.855  24.519   6.155
 9309POPC   GL248542  43.763  24.404   6.155
 9309POPC   C1A48543  43.896  24.525   6.455
 9309POPC   D2A48544  43.857  24.525   6.755
 9309POPC   C3A48545  43.863  24.506   7.055
 9309POPC   C4A48546  43.879  24.500   7.355
 9309POPC   C1B48547  43.747  24.337   6.455
 9309POPC   C2B48548  43.696  24.301   6.755
 9309POPC   C3B48549  43.759  24.255   7.055
 9309POPC   C4B48550  43.688  24.342   7.355
 9310POPC   NC348551  40.822  39.273   5.555
 9310POPC   PO448552  40.771  39.185   5.855
 9310POPC   GL148553  40.771  39.203   6.155
 9310POPC   GL248554  40.713  39.327   6.155
 9310POPC   C1A48555  40.810  39.208   6.455
 9310POPC   D2A48556  40.774  39.221   6.755
 9310POPC   C3A48557  40.802  39.205   7.055
 9310POPC   C4A48558  40.761  39.204   7.355
 9310POPC   C1B48559  40.714  39.432   6.455
 9310POPC   C2B48560  40.690  39.506   6.755
 9310POPC   C3B48561  40.686  39.455   7.055
 9310POPC   C4B48562  40.704  39.445   7.355
 9311POPC   NC348563  15.220   4.333   5.555
 9311POPC   PO448564  15.163   4.304   5.855
 9311POPC   GL148565  15.189   4.272   6.155
 9311POPC   GL248566  15.138   4.482   6.155
 9311POPC   C1A48567  15.155   4.312   6.455
 9311POPC   D2A48568  15.174   4.352   6.755
 9311POPC   C3A48569  15.166   4.351   7.055
 9311POPC   C4A48570  15.215   4.284   7.355
 9311POPC   C1B48571  15.169   4.591   6.455
 9311POPC   C2B48572  15.141   4.575   6.755
 9311POPC   C3B48573  15.197   4.548   7.055
 9311POPC   C4B48574  15.115   4.583   7.355
 9312POPC   NC348575  26.826   8.232   5.555
 9312POPC   PO448576  26.799   8.244   5.855
 9312POPC   GL148577  26.827   8.230   6.155
 9312POPC   GL248578  26.820   8.353   6.155
 9312POPC   C1A48579  26.785   8.178   6.455
 9312POPC   D2A48580  26.855   8.173   6.755
 9312POPC   C3A48581  26.777   8.227   7.055
 9312POPC   C4A48582  26.814   8.213   7.355
 9312POPC   C1B48583  26.879   8.404   6.455
 9312POPC   C2B48584  26.822   8.463   6.755
 9312POPC   C3B48585  26.838   8.486   7.055
 9312POPC   C4B48586  26.824   8.484   7.355
 9313POPC   NC348587  38.463  27.585   5.555
 9313POPC   PO448588  38.504  27.595   5.855
 9313POPC   GL148589  38.490  27.632   6.155
 9313POPC   GL248590  38.540  27.511   6.155
 9313POPC   C1A48591  38.490  27.568   6.455
 9313POPC   D2A48592  38.461  27.576   6.755
 9313POPC   C3A48593  38.447  27.613   7.055
 9313POPC   C4A48594  38.446  27.592   7.355
 9313POPC   C1B48595  38.683  27.479   6.455
 9313POPC   C2B48596  38.682  27.558   6.755
 9313POPC   C3B48597  38.715  27.549   7.055
 9313POPC   C4B48598  38.732  27.474   7.355
 9314POPC   NC348599  20.626  20.610   5.555
 9314POPC   PO448600  20.592  20.619   5.855
 9314POPC   GL148601  20.597  20.609   6.155
 9314POPC   GL248602  20.594  20.525   6.155
 9314POPC   C1A48603  20.632  20.604   6.455
 9314POPC   D2A48604  20.656  20.622   6.755
 9314POPC   C3A48605  20.651  20.644   7.055
 9314POPC   C4A48606  20.639  20.622   7.355
 9314POPC   C1B48607  20.650  20.325   6.455
 9314POPC   C2B48608  20.618  20.341   6.755
 9314POPC   C3B48609  20.609  20.319   7.055
 9314POPC   C4B48610  20.603  20.338   7.355
 9315POPC   NC348611  44.638  17.484   5.555
 9315POPC   PO448612  44.690  17.556   5.855
 9315POPC   GL148613  44.638  17.535   6.155
 9315POPC   GL248614  44.549  17.437   6.155
 9315POPC   C1A48615  44.633  17.520   6.455
 9315POPC   D2A48616  44.696  17.491   6.755
 9315POPC   C3A48617  44.702  17.505   7.055
 9315POPC   C4A48618  44.638  17.472   7.355
 9315POPC   C1B48619  44.564  17.302   6.455
 9315POPC   C2B48620  44.562  17.254   6.755
 9315POPC   C3B48621  44.509  17.315   7.055
 9315POPC   C4B48622  44.496  17.352   7.355
 9316POPC   NC348623  28.415  30.744   5.555
 9316POPC   PO448624  28.342  30.724   5.855
 9316POPC   GL148625  28.342  30.719   6.155
 9316POPC   GL248626  28.261  30.681   6.155
 9316POPC   C1A48627  28.402  30.702   6.455
 9316POPC   D2A48628  28.327  30.698   6.755
 9316POPC   C3A48629  28.379  30.742   7.055
 9316POPC   C4A48630  28.355  30.667   7.355
 9316POPC   C1B48631  28.127  30.605   6.455
 9316POPC   C2B48632  28.126  30.607   6.755
 9316POPC   C3B48633  28.195  30.554   7.055
 9316POPC   C4B48634  28.151  30.540   7.355
 9317POPC   NC348635   2.718   2.031   5.555
 9317POPC   PO448636   2.777   1.980   5.855
 9317POPC   GL148637   2.797   2.027   6.155
 9317POPC   GL248638   2.785   2.155   6.155
 9317POPC   C1A48639   2.738   2.037   6.455
 9317POPC   D2A48640   2.766   1.953   6.755
 9317POPC   C3A48641   2.739   1.948   7.055
 9317POPC   C4A48642   2.747   2.006   7.355
 9317POPC   C1B48643   2.709   2.249   6.455
 9317POPC   C2B48644   2.735   2.260   6.755
 9317POPC   C3B48645   2.800   2.193   7.055
 9317POPC   C4B48646   2.755   2.250   7.355
 9318POPC   NC348647   8.165  28.412   5.555
 9318POPC   PO448648   8.180  28.374   5.855
 9318POPC   GL148649   8.170  28.366   6.155
 9318POPC   GL248650   8.333  28.291   6.155
 9318POPC   C1A48651   8.157  28.357   6.455
 9318POPC   D2A48652   8.182  28.354   6.755
 9318POPC   C3A48653   8.180  28.322   7.055
 9318POPC   C4A48654   8.217  28.383   7.355
 9318POPC   C1B48655   8.395  28.306   6.455
 9318POPC   C2B48656   8.410  28.284   6.755
 9318POPC   C3B48657   8.383  28.246   7.055
 9318POPC   C4B48658   8.427  28.236   7.355
 9319POPC   NC348659   8.983  28.393   5.555
 9319POPC   PO448660   8.965  28.385   5.855
 9319POPC   GL148661   8.959  28.367   6.155
 9319POPC   GL248662   8.916  28.467   6.155
 9319POPC   C1A48663   8.927  28.334   6.455
 9319POPC   D2A48664   8.926  28.401   6.755
 9319POPC   C3A48665   8.948  28.414   7.055
 9319POPC   C4A48666   8.992  28.359   7.355
 9319POPC   C1B48667   8.843  28.645   6.455
 9319POPC   C2B48668   8.883  28.633   6.755
 9319POPC   C3B48669   8.901  28.589   7.055
 9319POPC   C4B48670   8.847  28.561   7.355
 9320POPC   NC348671  43.085  20.590   5.555
 9320POPC   PO448672  43.073  20.619   5.855
 9320POPC   GL148673  43.082  20.569   6.155
 9320POPC   GL248674  43.207  20.591   6.155
 9320POPC   C1A48675  43.071  20.581   6.455
 9320POPC   D2A48676  43.140  20.572   6.755
 9320POPC   C3A48677  43.099  20.614   7.055
 9320POPC   C4A48678  43.137  20.608   7.355
 9320POPC   C1B48679  43.360  20.575   6.455
 9320POPC   C2B48680  43.324  20.628   6.755
 9320POPC   C3B48681  43.324  20.629   7.055
 9320POPC   C4B48682  43.391  20.601   7.355
 9321POPC   NC348683  26.050  44.625   5.555
 9321POPC   PO448684  26.039  44.668   5.855
 9321POPC   GL148685  26.062  44.690   6.155
 9321POPC   GL248686  26.127  44.805   6.155
 9321POPC   C1A48687  26.041  44.673   6.455
 9321POPC   D2A48688  26.035  44.632   6.755
 9321POPC   C3A48689  26.025  44.707   7.055
 9321POPC   C4A48690  26.001  44.703   7.355
 9321POPC   C1B48691  26.191  44.863   6.455
 9321POPC   C2B48692  26.136  44.932   6.755
 9321POPC   C3B48693  26.195  44.873   7.055
 9321POPC   C4B48694  26.180  44.878   7.355
 9322POPC   NC348695   2.808  22.956   5.555
 9322POPC   PO448696   2.800  22.948   5.855
 9322POPC   GL148697   2.804  22.914   6.155
 9322POPC   GL248698   2.640  22.831   6.155
 9322POPC   C1A48699   2.738  22.960   6.455
 9322POPC   D2A48700   2.784  22.935   6.755
 9322POPC   C3A48701   2.763  22.920   7.055
 9322POPC   C4A48702   2.763  22.964   7.355
 9322POPC   C1B48703   2.553  22.844   6.455
 9322POPC   C2B48704   2.571  22.827   6.755
 9322POPC   C3B48705   2.559  22.806   7.055
 9322POPC   C4B48706   2.567  22.777   7.355
 9323POPC   NC348707  19.052  19.067   5.555
 9323POPC   PO448708  19.076  19.075   5.855
 9323POPC   GL148709  19.072  19.025   6.155
 9323POPC   GL248710  19.023  19.152   6.155
 9323POPC   C1A48711  19.025  19.101   6.455
 9323POPC   D2A48712  19.024  19.061   6.755
 9323POPC   C3A48713  19.092  19.065   7.055
 9323POPC   C4A48714  19.085  19.073   7.355
 9323POPC   C1B48715  19.030  19.307   6.455
 9323POPC   C2B48716  19.077  19.354   6.755
 9323POPC   C3B48717  19.066  19.334   7.055
 9323POPC   C4B48718  19.046  19.259   7.355
 9324POPC   NC348719  15.141  13.664   5.555
 9324POPC   PO448720  15.162  13.650   5.855
 9324POPC   GL148721  15.218  13.629   6.155
 9324POPC   GL248722  15.147  13.709   6.155
 9324POPC   C1A48723  15.214  13.621   6.455
 9324POPC   D2A48724  15.156  13.585   6.755
 9324POPC   C3A48725  15.161  13.578   7.055
 9324POPC   C4A48726  15.192  13.677   7.355
 9324POPC   C1B48727  15.162  13.898   6.455
 9324POPC   C2B48728  15.144  13.916   6.755
 9324POPC   C3B48729  15.187  13.858   7.055
 9324POPC   C4B48730  15.235  13.902   7.355
 9325POPC   NC348731  42.370   2.722   5.555
 9325POPC   PO448732  42.335   2.802   5.855
 9325POPC   GL148733  42.337   2.744   6.155
 9325POPC   GL248734  42.429   2.621   6.155
 9325POPC   C1A48735  42.312   2.735   6.455
 9325POPC   D2A48736  42.310   2.767   6.755
 9325POPC   C3A48737  42.328   2.793   7.055
 9325POPC   C4A48738  42.311   2.716   7.355
 9325POPC   C1B48739  42.458   2.584   6.455
 9325POPC   C2B48740  42.460   2.579   6.755
 9325POPC   C3B48741  42.525   2.603   7.055
 9325POPC   C4B48742  42.461   2.587   7.355
 9326POPC   NC348743  30.668  11.331   5.555
 9326POPC   PO448744  30.734  11.312   5.855
 9326POPC   GL148745  30.745  11.336   6.155
 9326POPC   GL248746  30.846  11.280   6.155
 9326POPC   C1A48747  30.717  11.330   6.455
 9326POPC   D2A48748  30.698  11.314   6.755
 9326POPC   C3A48749  30.678  11.271   7.055
 9326POPC   C4A48750  30.652  11.330   7.355
 9326POPC   C1B48751  30.902  11.344   6.455
 9326POPC   C2B48752  30.982  11.357   6.755
 9326POPC   C3B48753  30.906  11.355   7.055
 9326POPC   C4B48754  30.932  11.362   7.355
 9327POPC   NC348755  11.290   2.750   5.555
 9327POPC   PO448756  11.253   2.810   5.855
 9327POPC   GL148757  11.272   2.770   6.155
 9327POPC   GL248758  11.343   2.647   6.155
 9327POPC   C1A48759  11.278   2.765   6.455
 9327POPC   D2A48760  11.266   2.722   6.755
 9327POPC   C3A48761  11.316   2.724   7.055
 9327POPC   C4A48762  11.327   2.736   7.355
 9327POPC   C1B48763  11.342   2.548   6.455
 9327POPC   C2B48764  11.269   2.562   6.755
 9327POPC   C3B48765  11.311   2.476   7.055
 9327POPC   C4B48766  11.334   2.560   7.355
 9328POPC   NC348767  16.713  43.882   5.555
 9328POPC   PO448768  16.702  43.896   5.855
 9328POPC   GL148769  16.772  43.910   6.155
 9328POPC   GL248770  16.740  43.974   6.155
 9328POPC   C1A48771  16.710  43.855   6.455
 9328POPC   D2A48772  16.776  43.853   6.755
 9328POPC   C3A48773  16.694  43.912   7.055
 9328POPC   C4A48774  16.733  43.908   7.355
 9328POPC   C1B48775  16.834  44.077   6.455
 9328POPC   C2B48776  16.780  44.113   6.755
 9328POPC   C3B48777  16.832  44.158   7.055
 9328POPC   C4B48778  16.815  44.139   7.355
 9329POPC   NC348779   3.571  40.009   5.555
 9329POPC   PO448780   3.559  39.964   5.855
 9329POPC   GL148781   3.580  40.053   6.155
 9329POPC   GL248782   3.477  40.085   6.155
 9329POPC   C1A48783   3.491  40.050   6.455
 9329POPC   D2A48784   3.512  40.020   6.755
 9329POPC   C3A48785   3.559  40.010   7.055
 9329POPC   C4A48786   3.498  40.028   7.355
 9329POPC   C1B48787   3.348  40.183   6.455
 9329POPC   C2B48788   3.327  40.124   6.755
 9329POPC   C3B48789   3.386  40.134   7.055
 9329POPC   C4B48790   3.331  40.134   7.355
 9330POPC   NC348791   7.465   1.196   5.555
 9330POPC   PO448792   7.427   1.232   5.855
 9330POPC   GL148793   7.375   1.209   6.155
 9330POPC   GL248794   7.453   1.095   6.155
 9330POPC   C1A48795   7.400   1.202   6.455
 9330POPC   D2A48796   7.447   1.207   6.755
 9330POPC   C3A48797   7.454   1.176   7.055
 9330POPC   C4A48798   7.419   1.217   7.355
 9330POPC   C1B48799   7.502   1.023   6.455
 9330POPC   C2B48800   7.453   0.988   6.755
 9330POPC   C3B48801   7.471   0.981   7.055
 9330POPC   C4B48802   7.512   0.974   7.355
 9331POPC   NC348803  12.119  35.397   5.555
 9331POPC   PO448804  12.072  35.379   5.855
 9331POPC   GL148805  12.037  35.395   6.155
 9331POPC   GL248806  12.017  35.225   6.155
 9331POPC   C1A48807  12.103  35.302   6.455
 9331POPC   D2A48808  12.115  35.378   6.755
 9331POPC   C3A48809  12.071  35.322   7.055
 9331POPC   C4A48810  12.123  35.315   7.355
 9331POPC   C1B48811  11.894  35.149   6.455
 9331POPC   C2B48812  11.882  35.196   6.755
 9331POPC   C3B48813  11.888  35.170   7.055
 9331POPC   C4B48814  11.934  35.154   7.355
 9332POPC   NC348815  37.717  19.072   5.555
 9332POPC   PO448816  37.675  19.038   5.855
 9332POPC   GL148817  37.661  19.044   6.155
 9332POPC   GL248818  37.529  19.078   6.155
 9332POPC   C1A48819  37.659  19.051   6.455
 9332POPC   D2A48820  37.685  19.052   6.755
 9332POPC   C3A48821  37.666  19.058   7.055
 9332POPC   C4A48822  37.633  19.048   7.355
 9332POPC   C1B48823  37.388  19.151   6.455
 9332POPC   C2B48824  37.463  19.149   6.755
 9332POPC   C3B48825  37.433  19.135   7.055
 9332POPC   C4B48826  37.471  19.135   7.355
 9333POPC   NC348827  19.028  20.569   5.555
 9333POPC   PO448828  19.066  20.648   5.855
 9333POPC   GL148829  19.024  20.628   6.155
 9333POPC   GL248830  18.950  20.707   6.155
 9333POPC   C1A48831  19.073  20.591   6.455
 9333POPC   D2A48832  19.030  20.567   6.755
 9333POPC   C3A48833  19.026  20.582   7.055
 9333POPC   C4A48834  19.025  20.623   7.355
 9333POPC   C1B48835  18.859  20.769   6.455
 9333POPC   C2B48836  18.857  20.771   6.755
 9333POPC   C3B48837  18.926  20.788   7.055
 9333POPC   C4B48838  18.894  20.751   7.355
 9334POPC   NC348839   0.481  29.119   5.555
 9334POPC   PO448840   0.420  29.176   5.855
 9334POPC   GL148841   0.409  29.173   6.155
 9334POPC   GL248842   0.595  29.246   6.155
 9334POPC   C1A48843   0.472  29.115   6.455
 9334POPC   D2A48844   0.452  29.136   6.755
 9334POPC   C3A48845   0.416  29.188   7.055
 9334POPC   C4A48846   0.458  29.101   7.355
 9334POPC   C1B48847   0.613  29.236   6.455
 9334POPC   C2B48848   0.663  29.286   6.755
 9334POPC   C3B48849   0.679  29.221   7.055
 9334POPC   C4B48850   0.638  29.229   7.355
 9335POPC   NC348851   9.795  20.570   5.555
 9335POPC   PO448852   9.737  20.577   5.855
 9335POPC   GL148853   9.712  20.591   6.155
 9335POPC   GL248854   9.734  20.444   6.155
 9335POPC   C1A48855   9.705  20.637   6.455
 9335POPC   D2A48856   9.789  20.606   6.755
 9335POPC   C3A48857   9.771  20.598   7.055
 9335POPC   C4A48858   9.746  20.584   7.355
 9335POPC   C1B48859   9.613  20.386   6.455
 9335POPC   C2B48860   9.658  20.374   6.755
 9335POPC   C3B48861   9.657  20.353   7.055
 9335POPC   C4B48862   9.668  20.341   7.355
 9336POPC   NC348863   6.613  29.880   5.555
 9336POPC   PO448864   6.616  29.907   5.855
 9336POPC   GL148865   6.681  29.927   6.155
 9336POPC   GL248866   6.674  29.806   6.155
 9336POPC   C1A48867   6.620  29.876   6.455
 9336POPC   D2A48868   6.647  29.921   6.755
 9336POPC   C3A48869   6.639  29.916   7.055
 9336POPC   C4A48870   6.632  29.892   7.355
 9336POPC   C1B48871   6.825  29.745   6.455
 9336POPC   C2B48872   6.780  29.724   6.755
 9336POPC   C3B48873   6.792  29.758   7.055
 9336POPC   C4B48874   6.756  29.761   7.355
 9337POPC   NC348875  37.701  37.633   5.555
 9337POPC   PO448876  37.667  37.719   5.855
 9337POPC   GL148877  37.716  37.679   6.155
 9337POPC   GL248878  37.698  37.513   6.155
 9337POPC   C1A48879  37.696  37.685   6.455
 9337POPC   D2A48880  37.632  37.640   6.755
 9337POPC   C3A48881  37.634  37.676   7.055
 9337POPC   C4A48882  37.729  37.705   7.355
 9337POPC   C1B48883  37.687  37.448   6.455
 9337POPC   C2B48884  37.663  37.402   6.755
 9337POPC   C3B48885  37.699  37.390   7.055
 9337POPC   C4B48886  37.631  37.429   7.355
 9338POPC   NC348887   7.373  16.727   5.555
 9338POPC   PO448888   7.425  16.704   5.855
 9338POPC   GL148889   7.377  16.754   6.155
 9338POPC   GL248890   7.514  16.728   6.155
 9338POPC   C1A48891   7.462  16.768   6.455
 9338POPC   D2A48892   7.469  16.761   6.755
 9338POPC   C3A48893   7.383  16.773   7.055
 9338POPC   C4A48894   7.428  16.769   7.355
 9338POPC   C1B48895   7.691  16.696   6.455
 9338POPC   C2B48896   7.667  16.701   6.755
 9338POPC   C3B48897   7.668  16.654   7.055
 9338POPC   C4B48898   7.689  16.661   7.355
 9339POPC   NC348899  19.100  44.669   5.555
 9339POPC   PO448900  19.023  44.664   5.855
 9339POPC   GL148901  19.018  44.675   6.155
 9339POPC   GL248902  19.123  44.639   6.155
 9339POPC   C1A48903  19.098  44.635   6.455
 9339POPC   D2A48904  19.056  44.692   6.755
 9339POPC   C3A48905  19.041  44.625   7.055
 9339POPC   C4A48906  19.031  44.699   7.355
 9339POPC   C1B48907  19.323  44.554   6.455
 9339POPC   C2B48908  19.310  44.514   6.755
 9339POPC   C3B48909  19.281  44.565   7.055
 9339POPC   C4B48910  19.323  44.580   7.355
 9340POPC   NC348911  33.761  38.474   5.555
 9340POPC   PO448912  33.819  38.486   5.855
 9340POPC   GL148913  33.843  38.448   6.155
 9340POPC   GL248914  33.832  38.384   6.155
 9340POPC   C1A48915  33.829  38.488   6.455
 9340POPC   D2A48916  33.843  38.492   6.755
 9340POPC   C3A48917  33.815  38.469   7.055
 9340POPC   C4A48918  33.759  38.428   7.355
 9340POPC   C1B48919  33.970  38.276   6.455
 9340POPC   C2B48920  33.920  38.246   6.755
 9340POPC   C3B48921  33.911  38.229   7.055
 9340POPC   C4B48922  33.892  38.205   7.355
 9341POPC   NC348923  22.978   0.393   5.555
 9341POPC   PO448924  22.923   0.430   5.855
 9341POPC   GL148925  22.928   0.415   6.155
 9341POPC   GL248926  22.892   0.570   6.155
 9341POPC   C1A48927  22.951   0.427   6.455
 9341POPC   D2A48928  22.959   0.464   6.755
 9341POPC   C3A48929  22.930   0.445   7.055
 9341POPC   C4A48930  22.950   0.417   7.355
 9341POPC   C1B48931  22.863   0.657   6.455
 9341POPC   C2B48932  22.847   0.675   6.755
 9341POPC   C3B48933  22.900   0.650   7.055
 9341POPC   C4B48934  22.879   0.710   7.355
 9342POPC   NC348935   7.448  43.859   5.555
 9342POPC   PO448936   7.432  43.895   5.855
 9342POPC   GL148937   7.448  43.872   6.155
 9342POPC   GL248938   7.473  43.830   6.155
 9342POPC   C1A48939   7.462  43.877   6.455
 9342POPC   D2A48940   7.462  43.869   6.755
 9342POPC   C3A48941   7.403  43.897   7.055
 9342POPC   C4A48942   7.466  43.867   7.355
 9342POPC   C1B48943   7.610  43.767   6.455
 9342POPC   C2B48944   7.618  43.787   6.755
 9342POPC   C3B48945   7.649  43.717   7.055
 9342POPC   C4B48946   7.670  43.730   7.355
 9343POPC   NC348947  15.176  40.828   5.555
 9343POPC   PO448948  15.133  40.797   5.855
 9343POPC   GL148949  15.210  40.742   6.155
 9343POPC   GL248950  15.332  40.777   6.155
 9343POPC   C1A48951  15.138  40.798   6.455
 9343POPC   D2A48952  15.206  40.768   6.755
 9343POPC   C3A48953  15.190  40.737   7.055
 9343POPC   C4A48954  15.159  40.809   7.355
 9343POPC   C1B48955  15.401  40.799   6.455
 9343POPC   C2B48956  15.445  40.824   6.755
 9343POPC   C3B48957  15.394  40.820   7.055
 9343POPC   C4B48958  15.462  40.861   7.355
 9344POPC   NC348959   5.899   9.019   5.555
 9344POPC   PO448960   5.831   8.971   5.855
 9344POPC   GL148961   5.889   8.953   6.155
 9344POPC   GL248962   5.854   8.852   6.155
 9344POPC   C1A48963   5.822   8.923   6.455
 9344POPC   D2A48964   5.862   8.936   6.755
 9344POPC   C3A48965   5.897   9.012   7.055
 9344POPC   C4A48966   5.854   8.945   7.355
 9344POPC   C1B48967   5.816   8.769   6.455
 9344POPC   C2B48968   5.809   8.720   6.755
 9344POPC   C3B48969   5.818   8.681   7.055
 9344POPC   C4B48970   5.819   8.696   7.355
 9345POPC   NC348971  17.510  42.357   5.555
 9345POPC   PO448972  17.484  42.347   5.855
 9345POPC   GL148973  17.459  42.318   6.155
 9345POPC   GL248974  17.570  42.501   6.155
 9345POPC   C1A48975  17.509  42.287   6.455
 9345POPC   D2A48976  17.496  42.355   6.755
 9345POPC   C3A48977  17.548  42.340   7.055
 9345POPC   C4A48978  17.507  42.371   7.355
 9345POPC   C1B48979  17.598  42.552   6.455
 9345POPC   C2B48980  17.619  42.563   6.755
 9345POPC   C3B48981  17.603  42.560   7.055
 9345POPC   C4B48982  17.575  42.617   7.355
 9346POPC   NC348983  43.931  33.033   5.555
 9346POPC   PO448984  43.916  32.982   5.855
 9346POPC   GL148985  43.840  32.989   6.155
 9346POPC   GL248986  43.901  33.182   6.155
 9346POPC   C1A48987  43.901  32.987   6.455
 9346POPC   D2A48988  43.883  33.059   6.755
 9346POPC   C3A48989  43.903  33.023   7.055
 9346POPC   C4A48990  43.853  32.994   7.355
 9346POPC   C1B48991  43.860  33.313   6.455
 9346POPC   C2B48992  43.848  33.294   6.755
 9346POPC   C3B48993  43.889  33.269   7.055
 9346POPC   C4B48994  43.833  33.307   7.355
 9347POPC   NC348995  11.264   8.235   5.555
 9347POPC   PO448996  11.332   8.186   5.855
 9347POPC   GL148997  11.287   8.227   6.155
 9347POPC   GL248998  11.220   8.270   6.155
 9347POPC   C1A48999  11.293   8.176   6.455
 9347POPC   D2A49000  11.292   8.213   6.755
 9347POPC   C3A49001  11.270   8.186   7.055
 9347POPC   C4A49002  11.318   8.244   7.355
 9347POPC   C1B49003  11.150   8.333   6.455
 9347POPC   C2B49004  11.067   8.300   6.755
 9347POPC   C3B49005  11.106   8.317   7.055
 9347POPC   C4B49006  11.104   8.394   7.355
 9348POPC   NC349007  40.022  36.856   5.555
 9348POPC   PO449008  39.968  36.932   5.855
 9348POPC   GL149009  40.055  36.890   6.155
 9348POPC   GL249010  39.875  36.974   6.155
 9348POPC   C1A49011  40.043  36.864   6.455
 9348POPC   D2A49012  40.039  36.894   6.755
 9348POPC   C3A49013  40.014  36.857   7.055
 9348POPC   C4A49014  39.996  36.900   7.355
 9348POPC   C1B49015  39.728  37.040   6.455
 9348POPC   C2B49016  39.797  36.985   6.755
 9348POPC   C3B49017  39.760  37.028   7.055
 9348POPC   C4B49018  39.821  37.016   7.355
 9349POPC   NC349019  27.560  12.098   5.555
 9349POPC   PO449020  27.556  12.061   5.855
 9349POPC   GL149021  27.597  12.048   6.155
 9349POPC   GL249022  27.748  12.095   6.155
 9349POPC   C1A49023  27.643  12.106   6.455
 9349POPC   D2A49024  27.550  12.056   6.755
 9349POPC   C3A49025  27.543  12.056   7.055
 9349POPC   C4A49026  27.608  12.060   7.355
 9349POPC   C1B49027  27.819  12.149   6.455
 9349POPC   C2B49028  27.858  12.226   6.755
 9349POPC   C3B49029  27.806  12.247   7.055
 9349POPC   C4B49030  27.825  12.184   7.355
 9350POPC   NC349031  26.061   2.767   5.555
 9350POPC   PO449032  26.060   2.789   5.855
 9350POPC   GL149033  26.040   2.780   6.155
 9350POPC   GL249034  25.880   2.842   6.155
 9350POPC   C1A49035  26.042   2.773   6.455
 9350POPC   D2A49036  26.050   2.729   6.755
 9350POPC   C3A49037  26.026   2.726   7.055
 9350POPC   C4A49038  26.010   2.793   7.355
 9350POPC   C1B49039  25.773   2.882   6.455
 9350POPC   C2B49040  25.835   2.877   6.755
 9350POPC   C3B49041  25.795   2.913   7.055
 9350POPC   C4B49042  25.816   2.859   7.355
 9351POPC   NC349043  26.788   5.120   5.555
 9351POPC   PO449044  26.769   5.134   5.855
 9351POPC   GL149045  26.844   5.111   6.155
 9351POPC   GL249046  26.705   5.035   6.155
 9351POPC   C1A49047  26.782   5.105   6.455
 9351POPC   D2A49048  26.818   5.070   6.755
 9351POPC   C3A49049  26.777   5.142   7.055
 9351POPC   C4A49050  26.804   5.121   7.355
 9351POPC   C1B49051  26.594   5.006   6.455
 9351POPC   C2B49052  26.572   4.980   6.755
 9351POPC   C3B49053  26.602   4.921   7.055
 9351POPC   C4B49054  26.642   4.909   7.355
 9352POPC   NC349055   4.284  40.778   5.555
 9352POPC   PO449056   4.358  40.777   5.855
 9352POPC   GL149057   4.342  40.741   6.155
 9352POPC   GL249058   4.198  40.785   6.155
 9352POPC   C1A49059   4.279  40.799   6.455
 9352POPC   D2A49060   4.317  40.777   6.755
 9352POPC   C3A49061   4.332  40.807   7.055
 9352POPC   C4A49062   4.333  40.790   7.355
 9352POPC   C1B49063   4.115  40.729   6.455
 9352POPC   C2B49064   4.074  40.788   6.755
 9352POPC   C3B49065   4.075  40.770   7.055
 9352POPC   C4B49066   4.037  40.735   7.355
 9353POPC   NC349067   9.736  22.920   5.555
 9353POPC   PO449068   9.751  22.893   5.855
 9353POPC   GL149069   9.776  22.943   6.155
 9353POPC   GL249070   9.855  23.053   6.155
 9353POPC   C1A49071   9.709  22.985   6.455
 9353POPC   D2A49072   9.722  22.948   6.755
 9353POPC   C3A49073   9.748  22.929   7.055
 9353POPC   C4A49074   9.797  22.986   7.355
 9353POPC   C1B49075   9.848  23.124   6.455
 9353POPC   C2B49076   9.888  23.190   6.755
 9353POPC   C3B49077   9.841  23.111   7.055
 9353POPC   C4B49078   9.898  23.135   7.355
 9354POPC   NC349079  40.021  44.696   5.555
 9354POPC   PO449080  39.972  44.629   5.855
 9354POPC   GL149081  40.005  44.639   6.155
 9354POPC   GL249082  39.922  44.546   6.155
 9354POPC   C1A49083  39.971  44.652   6.455
 9354POPC   D2A49084  40.025  44.644   6.755
 9354POPC   C3A49085  39.963  44.649   7.055
 9354POPC   C4A49086  39.983  44.685   7.355
 9354POPC   C1B49087  39.889  44.430   6.455
 9354POPC   C2B49088  39.825  44.464   6.755
 9354POPC   C3B49089  39.863  44.427   7.055
 9354POPC   C4B49090  39.830  44.441   7.355
 9355POPC   NC349091   0.431   8.230   5.555
 9355POPC   PO449092   0.461   8.181   5.855
 9355POPC   GL149093   0.463   8.226   6.155
 9355POPC   GL249094   0.435   8.104   6.155
 9355POPC   C1A49095   0.449   8.191   6.455
 9355POPC   D2A49096   0.486   8.154   6.755
 9355POPC   C3A49097   0.457   8.200   7.055
 9355POPC   C4A49098   0.476   8.170   7.355
 9355POPC   C1B49099   0.484   7.901   6.455
 9355POPC   C2B49100   0.471   7.932   6.755
 9355POPC   C3B49101   0.479   7.926   7.055
 9355POPC   C4B49102   0.464   7.965   7.355
 9356POPC   NC349103   5.070  38.457   5.555
 9356POPC   PO449104   5.056  38.435   5.855
 9356POPC   GL149105   5.125  38.455   6.155
 9356POPC   GL249106   5.193  38.299   6.155
 9356POPC   C1A49107   5.082  38.410   6.455
 9356POPC   D2A49108   5.054  38.425   6.755
 9356POPC   C3A49109   5.065  38.423   7.055
 9356POPC   C4A49110   5.049  38.496   7.355
 9356POPC   C1B49111   5.212  38.223   6.455
 9356POPC   C2B49112   5.174  38.212   6.755
 9356POPC   C3B49113   5.211  38.258   7.055
 9356POPC   C4B49114   5.188  38.194   7.355
 9357POPC   NC349115  16.764  42.321   5.555
 9357POPC   PO449116  16.753  42.379   5.855
 9357POPC   GL149117  16.754  42.383   6.155
 9357POPC   GL249118  16.859  42.291   6.155
 9357POPC   C1A49119  16.770  42.327   6.455
 9357POPC   D2A49120  16.736  42.355   6.755
 9357POPC   C3A49121  16.744  42.333   7.055
 9357POPC   C4A49122  16.733  42.300   7.355
 9357POPC   C1B49123  17.000  42.323   6.455
 9357POPC   C2B49124  16.939  42.338   6.755
 9357POPC   C3B49125  17.019  42.330   7.055
 9357POPC   C4B49126  16.955  42.312   7.355
 9358POPC   NC349127  36.934  19.811   5.555
 9358POPC   PO449128  36.897  19.839   5.855
 9358POPC   GL149129  36.909  19.873   6.155
 9358POPC   GL249130  37.014  19.700   6.155
 9358POPC   C1A49131  36.931  19.810   6.455
 9358POPC   D2A49132  36.872  19.791   6.755
 9358POPC   C3A49133  36.860  19.841   7.055
 9358POPC   C4A49134  36.899  19.798   7.355
 9358POPC   C1B49135  37.024  19.649   6.455
 9358POPC   C2B49136  37.028  19.620   6.755
 9358POPC   C3B49137  37.070  19.683   7.055
 9358POPC   C4B49138  37.067  19.621   7.355
 9359POPC   NC349139  34.526  33.830   5.555
 9359POPC   PO449140  34.544  33.776   5.855
 9359POPC   GL149141  34.577  33.789   6.155
 9359POPC   GL249142  34.473  33.869   6.155
 9359POPC   C1A49143  34.552  33.802   6.455
 9359POPC   D2A49144  34.549  33.826   6.755
 9359POPC   C3A49145  34.567  33.790   7.055
 9359POPC   C4A49146  34.585  33.848   7.355
 9359POPC   C1B49147  34.316  33.832   6.455
 9359POPC   C2B49148  34.353  33.872   6.755
 9359POPC   C3B49149  34.383  33.840   7.055
 9359POPC   C4B49150  34.361  33.854   7.355
 9360POPC   NC349151  35.321   2.753   5.555
 9360POPC   PO449152  35.357   2.751   5.855
 9360POPC   GL149153  35.385   2.720   6.155
 9360POPC   GL249154  35.217   2.869   6.155
 9360POPC   C1A49155  35.381   2.776   6.455
 9360POPC   D2A49156  35.325   2.769   6.755
 9360POPC   C3A49157  35.369   2.772   7.055
 9360POPC   C4A49158  35.368   2.783   7.355
 9360POPC   C1B49159  35.165   2.909   6.455
 9360POPC   C2B49160  35.151   2.919   6.755
 9360POPC   C3B49161  35.106   2.939   7.055
 9360POPC   C4B49162  35.098   2.871   7.355
 9361POPC   NC349163   5.878  14.377   5.555
 9361POPC   PO449164   5.862  14.371   5.855
 9361POPC   GL149165   5.913  14.412   6.155
 9361POPC   GL249166   5.875  14.486   6.155
 9361POPC   C1A49167   5.840  14.443   6.455
 9361POPC   D2A49168   5.913  14.355   6.755
 9361POPC   C3A49169   5.896  14.425   7.055
 9361POPC   C4A49170   5.879  14.370   7.355
 9361POPC   C1B49171   5.840  14.673   6.455
 9361POPC   C2B49172   5.843  14.649   6.755
 9361POPC   C3B49173   5.803  14.619   7.055
 9361POPC   C4B49174   5.803  14.696   7.355
 9362POPC   NC349175   6.690  19.870   5.555
 9362POPC   PO449176   6.641  19.871   5.855
 9362POPC   GL149177   6.623  19.845   6.155
 9362POPC   GL249178   6.552  19.995   6.155
 9362POPC   C1A49179   6.682  19.864   6.455
 9362POPC   D2A49180   6.622  19.872   6.755
 9362POPC   C3A49181   6.620  19.881   7.055
 9362POPC   C4A49182   6.675  19.870   7.355
 9362POPC   C1B49183   6.547  20.089   6.455
 9362POPC   C2B49184   6.551  20.095   6.755
 9362POPC   C3B49185   6.525  20.059   7.055
 9362POPC   C4B49186   6.524  20.091   7.355
 9363POPC   NC349187   1.973   5.093   5.555
 9363POPC   PO449188   1.966   5.045   5.855
 9363POPC   GL149189   2.031   5.101   6.155
 9363POPC   GL249190   1.882   5.161   6.155
 9363POPC   C1A49191   1.986   5.125   6.455
 9363POPC   D2A49192   1.955   5.135   6.755
 9363POPC   C3A49193   2.010   5.076   7.055
 9363POPC   C4A49194   2.014   5.091   7.355
 9363POPC   C1B49195   1.786   5.256   6.455
 9363POPC   C2B49196   1.811   5.298   6.755
 9363POPC   C3B49197   1.846   5.288   7.055
 9363POPC   C4B49198   1.869   5.241   7.355
 9364POPC   NC349199   8.191  14.382   5.555
 9364POPC   PO449200   8.200  14.357   5.855
 9364POPC   GL149201   8.170  14.392   6.155
 9364POPC   GL249202   8.239  14.516   6.155
 9364POPC   C1A49203   8.187  14.411   6.455
 9364POPC   D2A49204   8.156  14.405   6.755
 9364POPC   C3A49205   8.207  14.440   7.055
 9364POPC   C4A49206   8.148  14.400   7.355
 9364POPC   C1B49207   8.236  14.688   6.455
 9364POPC   C2B49208   8.277  14.618   6.755
 9364POPC   C3B49209   8.255  14.611   7.055
 9364POPC   C4B49210   8.241  14.628   7.355
 9365POPC   NC349211  31.510   6.613   5.555
 9365POPC   PO449212  31.514   6.608   5.855
 9365POPC   GL149213  31.457   6.681   6.155
 9365POPC   GL249214  31.401   6.625   6.155
 9365POPC   C1A49215  31.451   6.656   6.455
 9365POPC   D2A49216  31.520   6.681   6.755
 9365POPC   C3A49217  31.443   6.688   7.055
 9365POPC   C4A49218  31.468   6.643   7.355
 9365POPC   C1B49219  31.220   6.551   6.455
 9365POPC   C2B49220  31.286   6.555   6.755
 9365POPC   C3B49221  31.258   6.543   7.055
 9365POPC   C4B49222  31.288   6.484   7.355
 9366POPC   NC349223  26.000  14.369   5.555
 9366POPC   PO449224  25.992  14.412   5.855
 9366POPC   GL149225  26.073  14.404   6.155
 9366POPC   GL249226  25.929  14.365   6.155
 9366POPC   C1A49227  26.035  14.390   6.455
 9366POPC   D2A49228  26.081  14.397   6.755
 9366POPC   C3A49229  26.000  14.401   7.055
 9366POPC   C4A49230  26.007  14.371   7.355
 9366POPC   C1B49231  25.808  14.231   6.455
 9366POPC   C2B49232  25.824  14.263   6.755
 9366POPC   C3B49233  25.813  14.300   7.055
 9366POPC   C4B49234  25.846  14.245   7.355
 9367POPC   NC349235  43.876   3.504   5.555
 9367POPC   PO449236  43.839   3.527   5.855
 9367POPC   GL149237  43.918   3.560   6.155
 9367POPC   GL249238  43.950   3.510   6.155
 9367POPC   C1A49239  43.900   3.510   6.455
 9367POPC   D2A49240  43.912   3.568   6.755
 9367POPC   C3A49241  43.930   3.523   7.055
 9367POPC   C4A49242  43.917   3.551   7.355
 9367POPC   C1B49243  44.130   3.426   6.455
 9367POPC   C2B49244  44.100   3.378   6.755
 9367POPC   C3B49245  44.086   3.361   7.055
 9367POPC   C4B49246  44.068   3.418   7.355
 9368POPC   NC349247  32.267   0.460   5.555
 9368POPC   PO449248  32.279   0.464   5.855
 9368POPC   GL149249  32.255   0.467   6.155
 9368POPC   GL249250  32.128   0.454   6.155
 9368POPC   C1A49251  32.249   0.402   6.455
 9368POPC   D2A49252  32.250   0.451   6.755
 9368POPC   C3A49253  32.293   0.396   7.055
 9368POPC   C4A49254  32.241   0.431   7.355
 9368POPC   C1B49255  32.035   0.521   6.455
 9368POPC   C2B49256  32.044   0.510   6.755
 9368POPC   C3B49257  32.053   0.560   7.055
 9368POPC   C4B49258  32.035   0.558   7.355
 9369POPC   NC349259  23.754   5.134   5.555
 9369POPC   PO449260  23.723   5.078   5.855
 9369POPC   GL149261  23.748   5.137   6.155
 9369POPC   GL249262  23.885   5.126   6.155
 9369POPC   C1A49263  23.760   5.067   6.455
 9369POPC   D2A49264  23.672   5.140   6.755
 9369POPC   C3A49265  23.687   5.065   7.055
 9369POPC   C4A49266  23.670   5.121   7.355
 9369POPC   C1B49267  23.964   5.076   6.455
 9369POPC   C2B49268  23.930   5.094   6.755
 9369POPC   C3B49269  23.958   5.045   7.055
 9369POPC   C4B49270  23.974   5.121   7.355
 9370POPC   NC349271  39.961   6.641   5.555
 9370POPC   PO449272  40.029   6.615   5.855
 9370POPC   GL149273  40.052   6.666   6.155
 9370POPC   GL249274  40.091   6.697   6.155
 9370POPC   C1A49275  39.991   6.618   6.455
 9370POPC   D2A49276  39.988   6.677   6.755
 9370POPC   C3A49277  40.034   6.613   7.055
 9370POPC   C4A49278  40.048   6.666   7.355
 9370POPC   C1B49279  40.234   6.689   6.455
 9370POPC   C2B49280  40.275   6.783   6.755
 9370POPC   C3B49281  40.261   6.721   7.055
 9370POPC   C4B49282  40.266   6.755   7.355
 9371POPC   NC349283   8.212  19.030   5.555
 9371POPC   PO449284   8.244  19.095   5.855
 9371POPC   GL149285   8.244  19.024   6.155
 9371POPC   GL249286   8.114  18.967   6.155
 9371POPC   C1A49287   8.204  19.033   6.455
 9371POPC   D2A49288   8.161  19.050   6.755
 9371POPC   C3A49289   8.243  19.012   7.055
 9371POPC   C4A49290   8.226  19.073   7.355
 9371POPC   C1B49291   7.997  18.984   6.455
 9371POPC   C2B49292   7.948  18.959   6.755
 9371POPC   C3B49293   7.941  18.905   7.055
 9371POPC   C4B49294   7.969  18.978   7.355
 9372POPC   NC349295  16.686  21.432   5.555
 9372POPC   PO449296  16.750  21.401   5.855
 9372POPC   GL149297  16.720  21.347   6.155
 9372POPC   GL249298  16.718  21.232   6.155
 9372POPC   C1A49299  16.708  21.428   6.455
 9372POPC   D2A49300  16.781  21.393   6.755
 9372POPC   C3A49301  16.749  21.398   7.055
 9372POPC   C4A49302  16.700  21.369   7.355
 9372POPC   C1B49303  16.604  21.170   6.455
 9372POPC   C2B49304  16.631  21.159   6.755
 9372POPC   C3B49305  16.602  21.181   7.055
 9372POPC   C4B49306  16.680  21.175   7.355
 9373POPC   NC349307   2.764  37.724   5.555
 9373POPC   PO449308   2.779  37.662   5.855
 9373POPC   GL149309   2.748  37.632   6.155
 9373POPC   GL249310   2.722  37.796   6.155
 9373POPC   C1A49311   2.731  37.690   6.455
 9373POPC   D2A49312   2.745  37.678   6.755
 9373POPC   C3A49313   2.789  37.658   7.055
 9373POPC   C4A49314   2.717  37.639   7.355
 9373POPC   C1B49315   2.687  37.885   6.455
 9373POPC   C2B49316   2.766  37.878   6.755
 9373POPC   C3B49317   2.695  37.923   7.055
 9373POPC   C4B49318   2.781  37.977   7.355
 9374POPC   NC349319  21.371   5.074   5.555
 9374POPC   PO449320  21.402   5.062   5.855
 9374POPC   GL149321  21.428   5.106   6.155
 9374POPC   GL249322  21.315   4.950   6.155
 9374POPC   C1A49323  21.391   5.079   6.455
 9374POPC   D2A49324  21.405   5.133   6.755
 9374POPC   C3A49325  21.380   5.079   7.055
 9374POPC   C4A49326  21.388   5.118   7.355
 9374POPC   C1B49327  21.303   4.900   6.455
 9374POPC   C2B49328  21.248   4.917   6.755
 9374POPC   C3B49329  21.308   4.858   7.055
 9374POPC   C4B49330  21.221   4.853   7.355
 9375POPC   NC349331  26.860  22.127   5.555
 9375POPC   PO449332  26.865  22.173   5.855
 9375POPC   GL149333  26.844  22.167   6.155
 9375POPC   GL249334  26.971  22.088   6.155
 9375POPC   C1A49335  26.788  22.186   6.455
 9375POPC   D2A49336  26.862  22.202   6.755
 9375POPC   C3A49337  26.854  22.212   7.055
 9375POPC   C4A49338  26.822  22.171   7.355
 9375POPC   C1B49339  27.050  22.138   6.455
 9375POPC   C2B49340  27.011  22.066   6.755
 9375POPC   C3B49341  27.100  22.044   7.055
 9375POPC   C4B49342  27.101  22.075   7.355
 9376POPC   NC349343  22.892  22.190   5.555
 9376POPC   PO449344  22.891  22.175   5.855
 9376POPC   GL149345  22.914  22.203   6.155
 9376POPC   GL249346  22.943  22.043   6.155
 9376POPC   C1A49347  22.918  22.198   6.455
 9376POPC   D2A49348  22.954  22.193   6.755
 9376POPC   C3A49349  22.951  22.140   7.055
 9376POPC   C4A49350  22.902  22.198   7.355
 9376POPC   C1B49351  23.009  21.945   6.455
 9376POPC   C2B49352  23.091  21.974   6.755
 9376POPC   C3B49353  23.035  21.940   7.055
 9376POPC   C4B49354  23.072  21.914   7.355
 9377POPC   NC349355  29.950  28.388   5.555
 9377POPC   PO449356  29.879  28.363   5.855
 9377POPC   GL149357  29.883  28.406   6.155
 9377POPC   GL249358  30.061  28.333   6.155
 9377POPC   C1A49359  29.921  28.395   6.455
 9377POPC   D2A49360  29.933  28.418   6.755
 9377POPC   C3A49361  29.938  28.337   7.055
 9377POPC   C4A49362  29.918  28.415   7.355
 9377POPC   C1B49363  30.188  28.334   6.455
 9377POPC   C2B49364  30.182  28.325   6.755
 9377POPC   C3B49365  30.183  28.350   7.055
 9377POPC   C4B49366  30.182  28.284   7.355
 9378POPC   NC349367  36.927  21.377   5.555
 9378POPC   PO449368  36.924  21.357   5.855
 9378POPC   GL149369  36.862  21.376   6.155
 9378POPC   GL249370  36.992  21.302   6.155
 9378POPC   C1A49371  36.939  21.417   6.455
 9378POPC   D2A49372  36.870  21.338   6.755
 9378POPC   C3A49373  36.929  21.432   7.055
 9378POPC   C4A49374  36.900  21.378   7.355
 9378POPC   C1B49375  37.015  21.114   6.455
 9378POPC   C2B49376  37.051  21.158   6.755
 9378POPC   C3B49377  36.966  21.210   7.055
 9378POPC   C4B49378  37.031  21.141   7.355
 9379POPC   NC349379  40.000  38.479   5.555
 9379POPC   PO449380  40.038  38.464   5.855
 9379POPC   GL149381  40.025  38.411   6.155
 9379POPC   GL249382  40.154  38.470   6.155
 9379POPC   C1A49383  40.007  38.439   6.455
 9379POPC   D2A49384  40.005  38.433   6.755
 9379POPC   C3A49385  40.021  38.448   7.055
 9379POPC   C4A49386  40.046  38.491   7.355
 9379POPC   C1B49387  40.246  38.541   6.455
 9379POPC   C2B49388  40.221  38.493   6.755
 9379POPC   C3B49389  40.276  38.512   7.055
 9379POPC   C4B49390  40.265  38.531   7.355
 9380POPC   NC349391  39.197  16.778   5.555
 9380POPC   PO449392  39.223  16.684   5.855
 9380POPC   GL149393  39.198  16.739   6.155
 9380POPC   GL249394  39.124  16.809   6.155
 9380POPC   C1A49395  39.213  16.763   6.455
 9380POPC   D2A49396  39.278  16.683   6.755
 9380POPC   C3A49397  39.204  16.704   7.055
 9380POPC   C4A49398  39.275  16.776   7.355
 9380POPC   C1B49399  39.078  16.898   6.455
 9380POPC   C2B49400  39.119  16.910   6.755
 9380POPC   C3B49401  39.078  16.964   7.055
 9380POPC   C4B49402  39.095  16.969   7.355
 9381POPC   NC349403  33.011   5.905   5.555
 9381POPC   PO449404  33.005   5.901   5.855
 9381POPC   GL149405  33.028   5.880   6.155
 9381POPC   GL249406  33.007   6.028   6.155
 9381POPC   C1A49407  33.006   5.829   6.455
 9381POPC   D2A49408  33.056   5.864   6.755
 9381POPC   C3A49409  32.974   5.906   7.055
 9381POPC   C4A49410  33.008   5.822   7.355
 9381POPC   C1B49411  33.008   6.079   6.455
 9381POPC   C2B49412  33.003   6.109   6.755
 9381POPC   C3B49413  32.985   6.083   7.055
 9381POPC   C4B49414  33.005   6.075   7.355
 9382POPC   NC349415  42.319  43.065   5.555
 9382POPC   PO449416  42.351  43.135   5.855
 9382POPC   GL149417  42.296  43.100   6.155
 9382POPC   GL249418  42.195  43.108   6.155
 9382POPC   C1A49419  42.349  43.125   6.455
 9382POPC   D2A49420  42.306  43.132   6.755
 9382POPC   C3A49421  42.337  43.148   7.055
 9382POPC   C4A49422  42.295  43.089   7.355
 9382POPC   C1B49423  42.118  43.134   6.455
 9382POPC   C2B49424  42.111  43.195   6.755
 9382POPC   C3B49425  42.057  43.150   7.055
 9382POPC   C4B49426  42.098  43.143   7.355
 9383POPC   NC349427  44.638  41.548   5.555
 9383POPC   PO449428  44.669  41.593   5.855
 9383POPC   GL149429  44.623  41.568   6.155
 9383POPC   GL249430  44.574  41.459   6.155
 9383POPC   C1A49431  44.666  41.526   6.455
 9383POPC   D2A49432  44.650  41.561   6.755
 9383POPC   C3A49433  44.676  41.549   7.055
 9383POPC   C4A49434  44.649  41.553   7.355
 9383POPC   C1B49435  44.493  41.336   6.455
 9383POPC   C2B49436  44.484  41.403   6.755
 9383POPC   C3B49437  44.514  41.356   7.055
 9383POPC   C4B49438  44.501  41.411   7.355
 9384POPC   NC349439   8.198  32.204   5.555
 9384POPC   PO449440   8.206  32.245   5.855
 9384POPC   GL149441   8.173  32.296   6.155
 9384POPC   GL249442   8.234  32.158   6.155
 9384POPC   C1A49443   8.204  32.288   6.455
 9384POPC   D2A49444   8.174  32.272   6.755
 9384POPC   C3A49445   8.185  32.262   7.055
 9384POPC   C4A49446   8.188  32.287   7.355
 9384POPC   C1B49447   8.243  32.026   6.455
 9384POPC   C2B49448   8.278  32.030   6.755
 9384POPC   C3B49449   8.234  32.000   7.055
 9384POPC   C4B49450   8.280  31.990   7.355
 9385POPC   NC349451  37.724  32.276   5.555
 9385POPC   PO449452  37.639  32.210   5.855
 9385POPC   GL149453  37.657  32.233   6.155
 9385POPC   GL249454  37.652  32.138   6.155
 9385POPC   C1A49455  37.671  32.270   6.455
 9385POPC   D2A49456  37.702  32.237   6.755
 9385POPC   C3A49457  37.718  32.297   7.055
 9385POPC   C4A49458  37.728  32.232   7.355
 9385POPC   C1B49459  37.679  32.025   6.455
 9385POPC   C2B49460  37.722  31.985   6.755
 9385POPC   C3B49461  37.720  31.983   7.055
 9385POPC   C4B49462  37.740  32.044   7.355
 9386POPC   NC349463  39.271  18.307   5.555
 9386POPC   PO449464  39.265  18.308   5.855
 9386POPC   GL149465  39.228  18.251   6.155
 9386POPC   GL249466  39.097  18.264   6.155
 9386POPC   C1A49467  39.235  18.302   6.455
 9386POPC   D2A49468  39.216  18.276   6.755
 9386POPC   C3A49469  39.252  18.253   7.055
 9386POPC   C4A49470  39.275  18.301   7.355
 9386POPC   C1B49471  38.989  18.201   6.455
 9386POPC   C2B49472  38.992  18.169   6.755
 9386POPC   C3B49473  38.949  18.187   7.055
 9386POPC   C4B49474  38.980  18.200   7.355
 9387POPC   NC349475  43.086  43.154   5.555
 9387POPC   PO449476  43.151  43.148   5.855
 9387POPC   GL149477  43.138  43.086   6.155
 9387POPC   GL249478  43.214  42.994   6.155
 9387POPC   C1A49479  43.111  43.102   6.455
 9387POPC   D2A49480  43.100  43.125   6.755
 9387POPC   C3A49481  43.135  43.143   7.055
 9387POPC   C4A49482  43.124  43.065   7.355
 9387POPC   C1B49483  43.225  42.916   6.455
 9387POPC   C2B49484  43.265  42.916   6.755
 9387POPC   C3B49485  43.194  42.878   7.055
 9387POPC   C4B49486  43.213  42.886   7.355
 9388POPC   NC349487  37.634  29.177   5.555
 9388POPC   PO449488  37.671  29.130   5.855
 9388POPC   GL149489  37.678  29.170   6.155
 9388POPC   GL249490  37.638  29.282   6.155
 9388POPC   C1A49491  37.708  29.187   6.455
 9388POPC   D2A49492  37.726  29.116   6.755
 9388POPC   C3A49493  37.656  29.142   7.055
 9388POPC   C4A49494  37.629  29.103   7.355
 9388POPC   C1B49495  37.594  29.436   6.455
 9388POPC   C2B49496  37.588  29.400   6.755
 9388POPC   C3B49497  37.661  29.429   7.055
 9388POPC   C4B49498  37.583  29.349   7.355
 9389POPC   NC349499  29.177   1.252   5.555
 9389POPC   PO449500  29.162   1.166   5.855
 9389POPC   GL149501  29.145   1.182   6.155
 9389POPC   GL249502  29.281   1.199   6.155
 9389POPC   C1A49503  29.136   1.225   6.455
 9389POPC   D2A49504  29.137   1.263   6.755
 9389POPC   C3A49505  29.133   1.207   7.055
 9389POPC   C4A49506  29.096   1.197   7.355
 9389POPC   C1B49507  29.374   1.142   6.455
 9389POPC   C2B49508  29.356   1.111   6.755
 9389POPC   C3B49509  29.364   1.191   7.055
 9389POPC   C4B49510  29.376   1.160   7.355
 9390POPC   NC349511  25.305  12.046   5.555
 9390POPC   PO449512  25.229  12.074   5.855
 9390POPC   GL149513  25.237  12.104   6.155
 9390POPC   GL249514  25.311  12.195   6.155
 9390POPC   C1A49515  25.300  12.078   6.455
 9390POPC   D2A49516  25.239  12.037   6.755
 9390POPC   C3A49517  25.311  12.032   7.055
 9390POPC   C4A49518  25.280  12.032   7.355
 9390POPC   C1B49519  25.348  12.293   6.455
 9390POPC   C2B49520  25.324  12.324   6.755
 9390POPC   C3B49521  25.339  12.298   7.055
 9390POPC   C4B49522  25.301  12.348   7.355
 9391POPC   NC349523   7.455  34.609   5.555
 9391POPC   PO449524   7.457  34.620   5.855
 9391POPC   GL149525   7.399  34.616   6.155
 9391POPC   GL249526   7.551  34.656   6.155
 9391POPC   C1A49527   7.434  34.562   6.455
 9391POPC   D2A49528   7.461  34.552   6.755
 9391POPC   C3A49529   7.438  34.615   7.055
 9391POPC   C4A49530   7.423  34.580   7.355
 9391POPC   C1B49531   7.664  34.727   6.455
 9391POPC   C2B49532   7.571  34.723   6.755
 9391POPC   C3B49533   7.642  34.757   7.055
 9391POPC   C4B49534   7.621  34.689   7.355
 9392POPC   NC349535  18.284  44.642   5.555
 9392POPC   PO449536  18.298  44.683   5.855
 9392POPC   GL149537  18.295  44.709   6.155
 9392POPC   GL249538  18.281  44.783   6.155
 9392POPC   C1A49539  18.299  44.711   6.455
 9392POPC   D2A49540  18.291  44.689   6.755
 9392POPC   C3A49541  18.236  44.683   7.055
 9392POPC   C4A49542  18.304  44.689   7.355
 9392POPC   C1B49543  18.412  44.890   6.455
 9392POPC   C2B49544  18.327  44.917   6.755
 9392POPC   C3B49545  18.402  44.873   7.055
 9392POPC   C4B49546  18.387  44.908   7.355
 9393POPC   NC349547  37.678  30.745   5.555
 9393POPC   PO449548  37.693  30.674   5.855
 9393POPC   GL149549  37.695  30.725   6.155
 9393POPC   GL249550  37.656  30.831   6.155
 9393POPC   C1A49551  37.725  30.673   6.455
 9393POPC   D2A49552  37.714  30.651   6.755
 9393POPC   C3A49553  37.728  30.731   7.055
 9393POPC   C4A49554  37.640  30.692   7.355
 9393POPC   C1B49555  37.529  30.878   6.455
 9393POPC   C2B49556  37.556  30.901   6.755
 9393POPC   C3B49557  37.597  30.883   7.055
 9393POPC   C4B49558  37.595  30.895   7.355
 9394POPC   NC349559  23.739  23.719   5.555
 9394POPC   PO449560  23.714  23.703   5.855
 9394POPC   GL149561  23.737  23.697   6.155
 9394POPC   GL249562  23.794  23.811   6.155
 9394POPC   C1A49563  23.675  23.669   6.455
 9394POPC   D2A49564  23.707  23.682   6.755
 9394POPC   C3A49565  23.667  23.666   7.055
 9394POPC   C4A49566  23.732  23.678   7.355
 9394POPC   C1B49567  23.837  23.953   6.455
 9394POPC   C2B49568  23.843  23.902   6.755
 9394POPC   C3B49569  23.809  23.952   7.055
 9394POPC   C4B49570  23.871  23.890   7.355
 9395POPC   NC349571  11.260  26.072   5.555
 9395POPC   PO449572  11.337  26.070   5.855
 9395POPC   GL149573  11.282  26.032   6.155
 9395POPC   GL249574  11.370  25.941   6.155
 9395POPC   C1A49575  11.253  26.013   6.455
 9395POPC   D2A49576  11.324  26.003   6.755
 9395POPC   C3A49577  11.291  26.029   7.055
 9395POPC   C4A49578  11.292  26.076   7.355
 9395POPC   C1B49579  11.404  25.805   6.455
 9395POPC   C2B49580  11.336  25.789   6.755
 9395POPC   C3B49581  11.356  25.767   7.055
 9395POPC   C4B49582  11.357  25.821   7.355
 9396POPC   NC349583  40.818   4.316   5.555
 9396POPC   PO449584  40.796   4.324   5.855
 9396POPC   GL149585  40.742   4.289   6.155
 9396POPC   GL249586  40.879   4.172   6.155
 9396POPC   C1A49587  40.757   4.345   6.455
 9396POPC   D2A49588  40.776   4.318   6.755
 9396POPC   C3A49589  40.824   4.350   7.055
 9396POPC   C4A49590  40.774   4.277   7.355
 9396POPC   C1B49591  40.932   4.125   6.455
 9396POPC   C2B49592  40.914   4.105   6.755
 9396POPC   C3B49593  40.873   4.111   7.055
 9396POPC   C4B49594  40.930   4.082   7.355
 9397POPC   NC349595  26.086  15.205   5.555
 9397POPC   PO449596  26.035  15.183   5.855
 9397POPC   GL149597  26.041  15.211   6.155
 9397POPC   GL249598  25.928  15.150   6.155
 9397POPC   C1A49599  26.062  15.133   6.455
 9397POPC   D2A49600  25.994  15.192   6.755
 9397POPC   C3A49601  26.065  15.168   7.055
 9397POPC   C4A49602  25.992  15.201   7.355
 9397POPC   C1B49603  25.787  15.170   6.455
 9397POPC   C2B49604  25.819  15.090   6.755
 9397POPC   C3B49605  25.837  15.103   7.055
 9397POPC   C4B49606  25.775  15.137   7.355
 9398POPC   NC349607  43.124  29.194   5.555
 9398POPC   PO449608  43.131  29.129   5.855
 9398POPC   GL149609  43.142  29.103   6.155
 9398POPC   GL249610  43.186  29.079   6.155
 9398POPC   C1A49611  43.060  29.095   6.455
 9398POPC   D2A49612  43.108  29.154   6.755
 9398POPC   C3A49613  43.160  29.151   7.055
 9398POPC   C4A49614  43.131  29.178   7.355
 9398POPC   C1B49615  43.377  29.048   6.455
 9398POPC   C2B49616  43.291  29.026   6.755
 9398POPC   C3B49617  43.377  29.089   7.055
 9398POPC   C4B49618  43.360  29.086   7.355
 9399POPC   NC349619  19.828  28.415   5.555
 9399POPC   PO449620  19.830  28.419   5.855
 9399POPC   GL149621  19.860  28.321   6.155
 9399POPC   GL249622  19.843  28.223   6.155
 9399POPC   C1A49623  19.791  28.319   6.455
 9399POPC   D2A49624  19.801  28.357   6.755
 9399POPC   C3A49625  19.792  28.387   7.055
 9399POPC   C4A49626  19.798  28.324   7.355
 9399POPC   C1B49627  19.733  28.170   6.455
 9399POPC   C2B49628  19.795  28.094   6.755
 9399POPC   C3B49629  19.797  28.088   7.055
 9399POPC   C4B49630  19.746  28.129   7.355
 9400POPC   NC349631   7.438  42.291   5.555
 9400POPC   PO449632   7.446  42.288   5.855
 9400POPC   GL149633   7.469  42.367   6.155
 9400POPC   GL249634   7.330  42.403   6.155
 9400POPC   C1A49635   7.407  42.325   6.455
 9400POPC   D2A49636   7.397  42.305   6.755
 9400POPC   C3A49637   7.414  42.315   7.055
 9400POPC   C4A49638   7.419  42.334   7.355
 9400POPC   C1B49639   7.166  42.424   6.455
 9400POPC   C2B49640   7.176  42.405   6.755
 9400POPC   C3B49641   7.166  42.457   7.055
 9400POPC   C4B49642   7.148  42.399   7.355
 9401POPC   NC349643  10.525  12.081   5.555
 9401POPC   PO449644  10.545  12.064   5.855
 9401POPC   GL149645  10.553  12.095   6.155
 9401POPC   GL249646  10.677  12.056   6.155
 9401POPC   C1A49647  10.519  12.081   6.455
 9401POPC   D2A49648  10.520  12.051   6.755
 9401POPC   C3A49649  10.479  12.109   7.055
 9401POPC   C4A49650  10.546  12.100   7.355
 9401POPC   C1B49651  10.805  12.015   6.455
 9401POPC   C2B49652  10.740  12.045   6.755
 9401POPC   C3B49653  10.788  12.001   7.055
 9401POPC   C4B49654  10.790  12.034   7.355
 9402POPC   NC349655  26.088  29.186   5.555
 9402POPC   PO449656  25.993  29.189   5.855
 9402POPC   GL149657  26.087  29.175   6.155
 9402POPC   GL249658  25.952  29.160   6.155
 9402POPC   C1A49659  26.070  29.165   6.455
 9402POPC   D2A49660  26.015  29.109   6.755
 9402POPC   C3A49661  26.062  29.116   7.055
 9402POPC   C4A49662  26.014  29.125   7.355
 9402POPC   C1B49663  25.841  29.051   6.455
 9402POPC   C2B49664  25.814  29.091   6.755
 9402POPC   C3B49665  25.774  29.041   7.055
 9402POPC   C4B49666  25.787  29.046   7.355
 9403POPC   NC349667  20.645  43.061   5.555
 9403POPC   PO449668  20.643  43.157   5.855
 9403POPC   GL149669  20.624  43.088   6.155
 9403POPC   GL249670  20.732  43.116   6.155
 9403POPC   C1A49671  20.632  43.118   6.455
 9403POPC   D2A49672  20.563  43.080   6.755
 9403POPC   C3A49673  20.652  43.103   7.055
 9403POPC   C4A49674  20.571  43.126   7.355
 9403POPC   C1B49675  20.861  43.075   6.455
 9403POPC   C2B49676  20.867  43.090   6.755
 9403POPC   C3B49677  20.896  43.068   7.055
 9403POPC   C4B49678  20.905  43.086   7.355
 9404POPC   NC349679  35.323  38.496   5.555
 9404POPC   PO449680  35.354  38.439   5.855
 9404POPC   GL149681  35.368  38.426   6.155
 9404POPC   GL249682  35.249  38.327   6.155
 9404POPC   C1A49683  35.308  38.491   6.455
 9404POPC   D2A49684  35.378  38.439   6.755
 9404POPC   C3A49685  35.341  38.459   7.055
 9404POPC   C4A49686  35.307  38.412   7.355
 9404POPC   C1B49687  35.134  38.250   6.455
 9404POPC   C2B49688  35.158  38.300   6.755
 9404POPC   C3B49689  35.180  38.259   7.055
 9404POPC   C4B49690  35.204  38.306   7.355
 9405POPC   NC349691  20.587  23.761   5.555
 9405POPC   PO449692  20.609  23.713   5.855
 9405POPC   GL149693  20.560  23.728   6.155
 9405POPC   GL249694  20.706  23.688   6.155
 9405POPC   C1A49695  20.564  23.731   6.455
 9405POPC   D2A49696  20.652  23.730   6.755
 9405POPC   C3A49697  20.585  23.692   7.055
 9405POPC   C4A49698  20.579  23.692   7.355
 9405POPC   C1B49699  20.827  23.678   6.455
 9405POPC   C2B49700  20.899  23.652   6.755
 9405POPC   C3B49701  20.828  23.598   7.055
 9405POPC   C4B49702  20.878  23.608   7.355
 9406POPC   NC349703  30.676  18.279   5.555
 9406POPC   PO449704  30.656  18.240   5.855
 9406POPC   GL149705  30.726  18.320   6.155
 9406POPC   GL249706  30.805  18.161   6.155
 9406POPC   C1A49707  30.727  18.296   6.455
 9406POPC   D2A49708  30.674  18.235   6.755
 9406POPC   C3A49709  30.725  18.296   7.055
 9406POPC   C4A49710  30.651  18.312   7.355
 9406POPC   C1B49711  30.862  18.070   6.455
 9406POPC   C2B49712  30.851  18.084   6.755
 9406POPC   C3B49713  30.849  18.157   7.055
 9406POPC   C4B49714  30.922  18.139   7.355
 9407POPC   NC349715  14.397  25.271   5.555
 9407POPC   PO449716  14.430  25.297   5.855
 9407POPC   GL149717  14.405  25.248   6.155
 9407POPC   GL249718  14.453  25.407   6.155
 9407POPC   C1A49719  14.451  25.266   6.455
 9407POPC   D2A49720  14.371  25.297   6.755
 9407POPC   C3A49721  14.423  25.301   7.055
 9407POPC   C4A49722  14.385  25.296   7.355
 9407POPC   C1B49723  14.387  25.517   6.455
 9407POPC   C2B49724  14.443  25.559   6.755
 9407POPC   C3B49725  14.383  25.496   7.055
 9407POPC   C4B49726  14.437  25.530   7.355
 9408POPC   NC349727  36.927  42.326   5.555
 9408POPC   PO449728  36.938  42.369   5.855
 9408POPC   GL149729  36.866  42.327   6.155
 9408POPC   GL249730  36.891  42.463   6.155
 9408POPC   C1A49731  36.935  42.302   6.455
 9408POPC   D2A49732  36.931  42.354   6.755
 9408POPC   C3A49733  36.946  42.371   7.055
 9408POPC   C4A49734  36.898  42.314   7.355
 9408POPC   C1B49735  36.948  42.593   6.455
 9408POPC   C2B49736  36.909  42.607   6.755
 9408POPC   C3B49737  36.908  42.549   7.055
 9408POPC   C4B49738  36.927  42.590   7.355
 9409POPC   NC349739   1.215  39.987   5.555
 9409POPC   PO449740   1.228  40.002   5.855
 9409POPC   GL149741   1.253  39.991   6.155
 9409POPC   GL249742   1.071  40.015   6.155
 9409POPC   C1A49743   1.253  40.023   6.455
 9409POPC   D2A49744   1.198  40.038   6.755
 9409POPC   C3A49745   1.251  39.989   7.055
 9409POPC   C4A49746   1.194  40.029   7.355
 9409POPC   C1B49747   1.002  40.054   6.455
 9409POPC   C2B49748   1.021  40.133   6.755
 9409POPC   C3B49749   1.007  40.079   7.055
 9409POPC   C4B49750   0.982  40.049   7.355
 9410POPC   NC349751   2.010  15.131   5.555
 9410POPC   PO449752   1.948  15.221   5.855
 9410POPC   GL149753   2.028  15.138   6.155
 9410POPC   GL249754   1.853  15.254   6.155
 9410POPC   C1A49755   2.024  15.203   6.455
 9410POPC   D2A49756   2.015  15.169   6.755
 9410POPC   C3A49757   2.030  15.164   7.055
 9410POPC   C4A49758   1.956  15.197   7.355
 9410POPC   C1B49759   1.722  15.285   6.455
 9410POPC   C2B49760   1.701  15.279   6.755
 9410POPC   C3B49761   1.788  15.261   7.055
 9410POPC   C4B49762   1.783  15.291   7.355
 9411POPC   NC349763  35.333  29.166   5.555
 9411POPC   PO449764  35.381  29.193   5.855
 9411POPC   GL149765  35.398  29.097   6.155
 9411POPC   GL249766  35.475  29.163   6.155
 9411POPC   C1A49767  35.305  29.161   6.455
 9411POPC   D2A49768  35.354  29.136   6.755
 9411POPC   C3A49769  35.344  29.180   7.055
 9411POPC   C4A49770  35.357  29.155   7.355
 9411POPC   C1B49771  35.563  29.315   6.455
 9411POPC   C2B49772  35.604  29.245   6.755
 9411POPC   C3B49773  35.575  29.276   7.055
 9411POPC   C4B49774  35.586  29.301   7.355
 9412POPC   NC349775  27.554  26.866   5.555
 9412POPC   PO449776  27.568  26.833   5.855
 9412POPC   GL149777  27.579  26.834   6.155
 9412POPC   GL249778  27.573  26.927   6.155
 9412POPC   C1A49779  27.551  26.830   6.455
 9412POPC   D2A49780  27.615  26.865   6.755
 9412POPC   C3A49781  27.592  26.834   7.055
 9412POPC   C4A49782  27.584  26.786   7.355
 9412POPC   C1B49783  27.597  27.031   6.455
 9412POPC   C2B49784  27.585  27.067   6.755
 9412POPC   C3B49785  27.635  27.036   7.055
 9412POPC   C4B49786  27.586  27.111   7.355
 9413POPC   NC349787  22.146  44.630   5.555
 9413POPC   PO449788  22.194  44.695   5.855
 9413POPC   GL149789  22.159  44.633   6.155
 9413POPC   GL249790  22.069  44.617   6.155
 9413POPC   C1A49791  22.149  44.697   6.455
 9413POPC   D2A49792  22.121  44.701   6.755
 9413POPC   C3A49793  22.154  44.637   7.055
 9413POPC   C4A49794  22.134  44.657   7.355
 9413POPC   C1B49795  21.963  44.553   6.455
 9413POPC   C2B49796  21.977  44.550   6.755
 9413POPC   C3B49797  21.955  44.522   7.055
 9413POPC   C4B49798  21.981  44.518   7.355
 9414POPC   NC349799  19.099  29.920   5.555
 9414POPC   PO449800  19.075  29.959   5.855
 9414POPC   GL149801  19.038  29.942   6.155
 9414POPC   GL249802  19.105  29.783   6.155
 9414POPC   C1A49803  19.093  29.934   6.455
 9414POPC   D2A49804  19.029  29.961   6.755
 9414POPC   C3A49805  19.024  29.964   7.055
 9414POPC   C4A49806  19.106  29.944   7.355
 9414POPC   C1B49807  19.214  29.724   6.455
 9414POPC   C2B49808  19.170  29.757   6.755
 9414POPC   C3B49809  19.221  29.753   7.055
 9414POPC   C4B49810  19.189  29.693   7.355
 9415POPC   NC349811  18.285  13.655   5.555
 9415POPC   PO449812  18.265  13.624   5.855
 9415POPC   GL149813  18.243  13.624   6.155
 9415POPC   GL249814  18.367  13.764   6.155
 9415POPC   C1A49815  18.292  13.654   6.455
 9415POPC   D2A49816  18.278  13.584   6.755
 9415POPC   C3A49817  18.331  13.639   7.055
 9415POPC   C4A49818  18.296  13.593   7.355
 9415POPC   C1B49819  18.404  13.783   6.455
 9415POPC   C2B49820  18.470  13.787   6.755
 9415POPC   C3B49821  18.462  13.778   7.055
 9415POPC   C4B49822  18.414  13.795   7.355
 9416POPC   NC349823  18.257  25.315   5.555
 9416POPC   PO449824  18.302  25.250   5.855
 9416POPC   GL149825  18.278  25.315   6.155
 9416POPC   GL249826  18.172  25.236   6.155
 9416POPC   C1A49827  18.275  25.237   6.455
 9416POPC   D2A49828  18.248  25.235   6.755
 9416POPC   C3A49829  18.237  25.244   7.055
 9416POPC   C4A49830  18.272  25.261   7.355
 9416POPC   C1B49831  18.030  25.166   6.455
 9416POPC   C2B49832  18.046  25.104   6.755
 9416POPC   C3B49833  18.105  25.088   7.055
 9416POPC   C4B49834  18.043  25.150   7.355
 9417POPC   NC349835  41.574  41.513   5.555
 9417POPC   PO449836  41.526  41.565   5.855
 9417POPC   GL149837  41.580  41.579   6.155
 9417POPC   GL249838  41.507  41.477   6.155
 9417POPC   C1A49839  41.515  41.548   6.455
 9417POPC   D2A49840  41.576  41.552   6.755
 9417POPC   C3A49841  41.601  41.591   7.055
 9417POPC   C4A49842  41.557  41.553   7.355
 9417POPC   C1B49843  41.510  41.301   6.455
 9417POPC   C2B49844  41.489  41.324   6.755
 9417POPC   C3B49845  41.448  41.331   7.055
 9417POPC   C4B49846  41.535  41.273   7.355
 9418POPC   NC349847   4.332   6.662   5.555
 9418POPC   PO449848   4.337   6.653   5.855
 9418POPC   GL149849   4.300   6.609   6.155
 9418POPC   GL249850   4.290   6.770   6.155
 9418POPC   C1A49851   4.291   6.606   6.455
 9418POPC   D2A49852   4.315   6.653   6.755
 9418POPC   C3A49853   4.353   6.684   7.055
 9418POPC   C4A49854   4.322   6.655   7.355
 9418POPC   C1B49855   4.313   6.870   6.455
 9418POPC   C2B49856   4.317   6.902   6.755
 9418POPC   C3B49857   4.356   6.873   7.055
 9418POPC   C4B49858   4.297   6.935   7.355
 9419POPC   NC349859   4.343  19.808   5.555
 9419POPC   PO449860   4.357  19.863   5.855
 9419POPC   GL149861   4.302  19.838   6.155
 9419POPC   GL249862   4.408  19.764   6.155
 9419POPC   C1A49863   4.357  19.804   6.455
 9419POPC   D2A49864   4.335  19.879   6.755
 9419POPC   C3A49865   4.360  19.829   7.055
 9419POPC   C4A49866   4.351  19.879   7.355
 9419POPC   C1B49867   4.547  19.702   6.455
 9419POPC   C2B49868   4.512  19.668   6.755
 9419POPC   C3B49869   4.527  19.701   7.055
 9419POPC   C4B49870   4.507  19.714   7.355
 9420POPC   NC349871   5.056  31.504   5.555
 9420POPC   PO449872   5.127  31.464   5.855
 9420POPC   GL149873   5.089  31.482   6.155
 9420POPC   GL249874   5.202  31.434   6.155
 9420POPC   C1A49875   5.086  31.515   6.455
 9420POPC   D2A49876   5.131  31.492   6.755
 9420POPC   C3A49877   5.065  31.454   7.055
 9420POPC   C4A49878   5.097  31.450   7.355
 9420POPC   C1B49879   5.286  31.449   6.455
 9420POPC   C2B49880   5.318  31.356   6.755
 9420POPC   C3B49881   5.341  31.376   7.055
 9420POPC   C4B49882   5.363  31.450   7.355
 9421POPC   NC349883  22.133  33.030   5.555
 9421POPC   PO449884  22.185  32.988   5.855
 9421POPC   GL149885  22.146  32.991   6.155
 9421POPC   GL249886  22.278  32.918   6.155
 9421POPC   C1A49887  22.179  33.018   6.455
 9421POPC   D2A49888  22.138  33.064   6.755
 9421POPC   C3A49889  22.144  33.020   7.055
 9421POPC   C4A49890  22.168  33.057   7.355
 9421POPC   C1B49891  22.412  32.842   6.455
 9421POPC   C2B49892  22.330  32.896   6.755
 9421POPC   C3B49893  22.383  32.882   7.055
 9421POPC   C4B49894  22.404  32.826   7.355
 9422POPC   NC349895  29.905  43.143   5.555
 9422POPC   PO449896  29.942  43.110   5.855
 9422POPC   GL149897  29.914  43.092   6.155
 9422POPC   GL249898  30.001  43.050   6.155
 9422POPC   C1A49899  29.916  43.065   6.455
 9422POPC   D2A49900  29.961  43.105   6.755
 9422POPC   C3A49901  29.955  43.073   7.055
 9422POPC   C4A49902  29.913  43.077   7.355
 9422POPC   C1B49903  30.187  43.053   6.455
 9422POPC   C2B49904  30.182  43.045   6.755
 9422POPC   C3B49905  30.193  43.113   7.055
 9422POPC   C4B49906  30.156  43.114   7.355
 9423POPC   NC349907  28.416  13.632   5.555
 9423POPC   PO449908  28.368  13.586   5.855
 9423POPC   GL149909  28.353  13.626   6.155
 9423POPC   GL249910  28.280  13.718   6.155
 9423POPC   C1A49911  28.377  13.606   6.455
 9423POPC   D2A49912  28.328  13.674   6.755
 9423POPC   C3A49913  28.324  13.646   7.055
 9423POPC   C4A49914  28.362  13.667   7.355
 9423POPC   C1B49915  28.237  13.824   6.455
 9423POPC   C2B49916  28.191  13.790   6.755
 9423POPC   C3B49917  28.154  13.769   7.055
 9423POPC   C4B49918  28.197  13.809   7.355
 9424POPC   NC349919  39.264   6.677   5.555
 9424POPC   PO449920  39.220   6.691   5.855
 9424POPC   GL149921  39.281   6.649   6.155
 9424POPC   GL249922  39.106   6.633   6.155
 9424POPC   C1A49923  39.231   6.691   6.455
 9424POPC   D2A49924  39.190   6.661   6.755
 9424POPC   C3A49925  39.194   6.601   7.055
 9424POPC   C4A49926  39.193   6.642   7.355
 9424POPC   C1B49927  39.028   6.589   6.455
 9424POPC   C2B49928  38.984   6.567   6.755
 9424POPC   C3B49929  39.026   6.520   7.055
 9424POPC   C4B49930  39.023   6.559   7.355
 9425POPC   NC349931  38.457  19.056   5.555
 9425POPC   PO449932  38.412  19.020   5.855
 9425POPC   GL149933  38.472  19.093   6.155
 9425POPC   GL249934  38.369  19.201   6.155
 9425POPC   C1A49935  38.422  19.016   6.455
 9425POPC   D2A49936  38.451  19.083   6.755
 9425POPC   C3A49937  38.450  19.104   7.055
 9425POPC   C4A49938  38.500  19.096   7.355
 9425POPC   C1B49939  38.349  19.256   6.455
 9425POPC   C2B49940  38.398  19.298   6.755
 9425POPC   C3B49941  38.405  19.325   7.055
 9425POPC   C4B49942  38.329  19.311   7.355
 9426POPC   NC349943  22.913  29.156   5.555
 9426POPC   PO449944  22.987  29.142   5.855
 9426POPC   GL149945  22.956  29.166   6.155
 9426POPC   GL249946  23.044  29.206   6.155
 9426POPC   C1A49947  22.930  29.126   6.455
 9426POPC   D2A49948  22.947  29.172   6.755
 9426POPC   C3A49949  22.907  29.166   7.055
 9426POPC   C4A49950  22.898  29.100   7.355
 9426POPC   C1B49951  23.210  29.279   6.455
 9426POPC   C2B49952  23.173  29.238   6.755
 9426POPC   C3B49953  23.192  29.265   7.055
 9426POPC   C4B49954  23.133  29.265   7.355
 9427POPC   NC349955  12.821  25.310   5.555
 9427POPC   PO449956  12.836  25.284   5.855
 9427POPC   GL149957  12.896  25.254   6.155
 9427POPC   GL249958  12.753  25.111   6.155
 9427POPC   C1A49959  12.853  25.254   6.455
 9427POPC   D2A49960  12.824  25.263   6.755
 9427POPC   C3A49961  12.867  25.298   7.055
 9427POPC   C4A49962  12.895  25.253   7.355
 9427POPC   C1B49963  12.730  25.055   6.455
 9427POPC   C2B49964  12.771  25.077   6.755
 9427POPC   C3B49965  12.708  25.028   7.055
 9427POPC   C4B49966  12.690  25.093   7.355
 9428POPC   NC349967   5.844   0.457   5.555
 9428POPC   PO449968   5.846   0.399   5.855
 9428POPC   GL149969   5.897   0.405   6.155
 9428POPC   GL249970   5.756   0.436   6.155
 9428POPC   C1A49971   5.918   0.423   6.455
 9428POPC   D2A49972   5.860   0.428   6.755
 9428POPC   C3A49973   5.853   0.481   7.055
 9428POPC   C4A49974   5.856   0.471   7.355
 9428POPC   C1B49975   5.664   0.386   6.455
 9428POPC   C2B49976   5.626   0.401   6.755
 9428POPC   C3B49977   5.629   0.459   7.055
 9428POPC   C4B49978   5.631   0.387   7.355
 9429POPC   NC349979  32.251  41.597   5.555
 9429POPC   PO449980  32.218  41.596   5.855
 9429POPC   GL149981  32.225  41.598   6.155
 9429POPC   GL249982  32.090  41.640   6.155
 9429POPC   C1A49983  32.239  41.522   6.455
 9429POPC   D2A49984  32.233  41.557   6.755
 9429POPC   C3A49985  32.235  41.536   7.055
 9429POPC   C4A49986  32.262  41.555   7.355
 9429POPC   C1B49987  32.045  41.680   6.455
 9429POPC   C2B49988  32.014  41.645   6.755
 9429POPC   C3B49989  32.007  41.663   7.055
 9429POPC   C4B49990  31.981  41.628   7.355
 9430POPC   NC349991  14.401  26.029   5.555
 9430POPC   PO449992  14.430  26.062   5.855
 9430POPC   GL149993  14.393  26.048   6.155
 9430POPC   GL249994  14.340  26.006   6.155
 9430POPC   C1A49995  14.453  26.012   6.455
 9430POPC   D2A49996  14.449  26.066   6.755
 9430POPC   C3A49997  14.414  26.003   7.055
 9430POPC   C4A49998  14.417  26.003   7.355
 9430POPC   C1B49999  14.163  25.877   6.455
 9430POPC   C2B50000  14.247  25.917   6.755
 9430POPC   C3B50001  14.203  25.911   7.055
 9430POPC   C4B50002  14.245  25.932   7.355
 9431POPC   NC350003  23.725  24.470   5.555
 9431POPC   PO450004  23.697  24.535   5.855
 9431POPC   GL150005  23.740  24.472   6.155
 9431POPC   GL250006  23.859  24.478   6.155
 9431POPC   C1A50007  23.759  24.492   6.455
 9431POPC   D2A50008  23.669  24.482   6.755
 9431POPC   C3A50009  23.746  24.536   7.055
 9431POPC   C4A50010  23.681  24.441   7.355
 9431POPC   C1B50011  23.976  24.460   6.455
 9431POPC   C2B50012  23.956  24.440   6.755
 9431POPC   C3B50013  23.991  24.398   7.055
 9431POPC   C4B50014  23.987  24.450   7.355
 9432POPC   NC350015  18.284   9.782   5.555
 9432POPC   PO450016  18.260   9.758   5.855
 9432POPC   GL150017  18.270   9.712   6.155
 9432POPC   GL250018  18.373   9.900   6.155
 9432POPC   C1A50019  18.327   9.781   6.455
 9432POPC   D2A50020  18.236   9.720   6.755
 9432POPC   C3A50021  18.256   9.755   7.055
 9432POPC   C4A50022  18.278   9.720   7.355
 9432POPC   C1B50023  18.369  10.002   6.455
 9432POPC   C2B50024  18.356   9.991   6.755
 9432POPC   C3B50025  18.402  10.014   7.055
 9432POPC   C4B50026  18.433   9.986   7.355
 9433POPC   NC350027  25.251   3.575   5.555
 9433POPC   PO450028  25.243   3.526   5.855
 9433POPC   GL150029  25.250   3.563   6.155
 9433POPC   GL250030  25.182   3.397   6.155
 9433POPC   C1A50031  25.289   3.554   6.455
 9433POPC   D2A50032  25.258   3.558   6.755
 9433POPC   C3A50033  25.236   3.569   7.055
 9433POPC   C4A50034  25.309   3.551   7.355
 9433POPC   C1B50035  25.097   3.330   6.455
 9433POPC   C2B50036  25.136   3.388   6.755
 9433POPC   C3B50037  25.083   3.343   7.055
 9433POPC   C4B50038  25.126   3.378   7.355
 9434POPC   NC350039   3.530  15.929   5.555
 9434POPC   PO450040   3.504  15.969   5.855
 9434POPC   GL150041   3.527  15.930   6.155
 9434POPC   GL250042   3.427  15.999   6.155
 9434POPC   C1A50043   3.493  15.987   6.455
 9434POPC   D2A50044   3.540  15.947   6.755
 9434POPC   C3A50045   3.508  15.944   7.055
 9434POPC   C4A50046   3.560  15.977   7.355
 9434POPC   C1B50047   3.320  16.096   6.455
 9434POPC   C2B50048   3.310  16.116   6.755
 9434POPC   C3B50049   3.373  16.139   7.055
 9434POPC   C4B50050   3.350  16.116   7.355
 9435POPC   NC350051  19.801  43.094   5.555
 9435POPC   PO450052  19.849  43.068   5.855
 9435POPC   GL150053  19.790  43.110   6.155
 9435POPC   GL250054  19.961  42.996   6.155
 9435POPC   C1A50055  19.797  43.156   6.455
 9435POPC   D2A50056  19.808  43.129   6.755
 9435POPC   C3A50057  19.872  43.152   7.055
 9435POPC   C4A50058  19.791  43.068   7.355
 9435POPC   C1B50059  20.033  42.970   6.455
 9435POPC   C2B50060  19.986  42.954   6.755
 9435POPC   C3B50061  19.959  42.968   7.055
 9435POPC   C4B50062  20.009  42.917   7.355
 9436POPC   NC350063  29.964   6.651   5.555
 9436POPC   PO450064  29.960   6.623   5.855
 9436POPC   GL150065  29.939   6.650   6.155
 9436POPC   GL250066  29.844   6.642   6.155
 9436POPC   C1A50067  29.918   6.683   6.455
 9436POPC   D2A50068  29.907   6.647   6.755
 9436POPC   C3A50069  29.875   6.604   7.055
 9436POPC   C4A50070  29.879   6.602   7.355
 9436POPC   C1B50071  29.638   6.635   6.455
 9436POPC   C2B50072  29.679   6.576   6.755
 9436POPC   C3B50073  29.656   6.609   7.055
 9436POPC   C4B50074  29.705   6.663   7.355
 9437POPC   NC350075  32.225  38.417   5.555
 9437POPC   PO450076  32.258  38.406   5.855
 9437POPC   GL150077  32.240  38.477   6.155
 9437POPC   GL250078  32.332  38.486   6.155
 9437POPC   C1A50079  32.229  38.447   6.455
 9437POPC   D2A50080  32.203  38.455   6.755
 9437POPC   C3A50081  32.260  38.449   7.055
 9437POPC   C4A50082  32.298  38.433   7.355
 9437POPC   C1B50083  32.476  38.548   6.455
 9437POPC   C2B50084  32.492  38.519   6.755
 9437POPC   C3B50085  32.530  38.479   7.055
 9437POPC   C4B50086  32.460  38.512   7.355
 9438POPC   NC350087   6.618  30.731   5.555
 9438POPC   PO450088   6.614  30.716   5.855
 9438POPC   GL150089   6.636  30.701   6.155
 9438POPC   GL250090   6.726  30.800   6.155
 9438POPC   C1A50091   6.649  30.713   6.455
 9438POPC   D2A50092   6.644  30.670   6.755
 9438POPC   C3A50093   6.633  30.709   7.055
 9438POPC   C4A50094   6.621  30.677   7.355
 9438POPC   C1B50095   6.779  30.926   6.455
 9438POPC   C2B50096   6.823  30.953   6.755
 9438POPC   C3B50097   6.761  30.883   7.055
 9438POPC   C4B50098   6.754  30.930   7.355
 9439POPC   NC350099  41.580  22.905   5.555
 9439POPC   PO450100  41.602  22.961   5.855
 9439POPC   GL150101  41.537  22.924   6.155
 9439POPC   GL250102  41.629  22.886   6.155
 9439POPC   C1A50103  41.575  22.940   6.455
 9439POPC   D2A50104  41.538  22.938   6.755
 9439POPC   C3A50105  41.558  22.915   7.055
 9439POPC   C4A50106  41.542  22.910   7.355
 9439POPC   C1B50107  41.842  22.848   6.455
 9439POPC   C2B50108  41.790  22.893   6.755
 9439POPC   C3B50109  41.768  22.861   7.055
 9439POPC   C4B50110  41.838  22.875   7.355
 9440POPC   NC350111   1.262  19.073   5.555
 9440POPC   PO450112   1.248  19.105   5.855
 9440POPC   GL150113   1.186  19.065   6.155
 9440POPC   GL250114   1.054  19.074   6.155
 9440POPC   C1A50115   1.260  19.044   6.455
 9440POPC   D2A50116   1.165  19.059   6.755
 9440POPC   C3A50117   1.231  19.034   7.055
 9440POPC   C4A50118   1.231  19.029   7.355
 9440POPC   C1B50119   0.948  19.160   6.455
 9440POPC   C2B50120   0.979  19.128   6.755
 9440POPC   C3B50121   0.967  19.177   7.055
 9440POPC   C4B50122   0.999  19.125   7.355
 9441POPC   NC350123  18.310  19.835   5.555
 9441POPC   PO450124  18.317  19.853   5.855
 9441POPC   GL150125  18.319  19.795   6.155
 9441POPC   GL250126  18.118  19.847   6.155
 9441POPC   C1A50127  18.331  19.853   6.455
 9441POPC   D2A50128  18.333  19.847   6.755
 9441POPC   C3A50129  18.261  19.786   7.055
 9441POPC   C4A50130  18.297  19.831   7.355
 9441POPC   C1B50131  18.002  19.781   6.455
 9441POPC   C2B50132  18.007  19.809   6.755
 9441POPC   C3B50133  17.997  19.741   7.055
 9441POPC   C4B50134  18.030  19.767   7.355
 9442POPC   NC350135   9.749  43.867   5.555
 9442POPC   PO450136   9.787  43.900   5.855
 9442POPC   GL150137   9.770  43.902   6.155
 9442POPC   GL250138   9.704  43.749   6.155
 9442POPC   C1A50139   9.707  43.886   6.455
 9442POPC   D2A50140   9.732  43.884   6.755
 9442POPC   C3A50141   9.737  43.839   7.055
 9442POPC   C4A50142   9.793  43.858   7.355
 9442POPC   C1B50143   9.610  43.610   6.455
 9442POPC   C2B50144   9.652  43.615   6.755
 9442POPC   C3B50145   9.685  43.675   7.055
 9442POPC   C4B50146   9.638  43.696   7.355
 9443POPC   NC350147   9.711  19.804   5.555
 9443POPC   PO450148   9.792  19.846   5.855
 9443POPC   GL150149   9.744  19.839   6.155
 9443POPC   GL250150   9.582  19.898   6.155
 9443POPC   C1A50151   9.715  19.800   6.455
 9443POPC   D2A50152   9.768  19.877   6.755
 9443POPC   C3A50153   9.715  19.839   7.055
 9443POPC   C4A50154   9.763  19.873   7.355
 9443POPC   C1B50155   9.536  19.930   6.455
 9443POPC   C2B50156   9.553  19.897   6.755
 9443POPC   C3B50157   9.499  19.890   7.055
 9443POPC   C4B50158   9.486  19.932   7.355
 9444POPC   NC350159  42.375  16.720   5.555
 9444POPC   PO450160  42.354  16.771   5.855
 9444POPC   GL150161  42.303  16.724   6.155
 9444POPC   GL250162  42.406  16.656   6.155
 9444POPC   C1A50163  42.379  16.693   6.455
 9444POPC   D2A50164  42.287  16.727   6.755
 9444POPC   C3A50165  42.291  16.760   7.055
 9444POPC   C4A50166  42.376  16.713   7.355
 9444POPC   C1B50167  42.539  16.513   6.455
 9444POPC   C2B50168  42.471  16.526   6.755
 9444POPC   C3B50169  42.533  16.538   7.055
 9444POPC   C4B50170  42.550  16.534   7.355
 9445POPC   NC350171   6.674   2.009   5.555
 9445POPC   PO450172   6.611   1.987   5.855
 9445POPC   GL150173   6.662   2.035   6.155
 9445POPC   GL250174   6.733   2.019   6.155
 9445POPC   C1A50175   6.660   1.990   6.455
 9445POPC   D2A50176   6.644   1.941   6.755
 9445POPC   C3A50177   6.680   2.030   7.055
 9445POPC   C4A50178   6.620   1.955   7.355
 9445POPC   C1B50179   6.888   1.959   6.455
 9445POPC   C2B50180   6.857   1.969   6.755
 9445POPC   C3B50181   6.939   1.928   7.055
 9445POPC   C4B50182   6.908   2.000   7.355
 9446POPC   NC350183   1.989  32.200   5.555
 9446POPC   PO450184   2.020  32.215   5.855
 9446POPC   GL150185   2.017  32.282   6.155
 9446POPC   GL250186   2.062  32.387   6.155
 9446POPC   C1A50187   1.992  32.297   6.455
 9446POPC   D2A50188   1.941  32.241   6.755
 9446POPC   C3A50189   1.953  32.282   7.055
 9446POPC   C4A50190   1.977  32.206   7.355
 9446POPC   C1B50191   2.082  32.519   6.455
 9446POPC   C2B50192   2.036  32.454   6.755
 9446POPC   C3B50193   2.092  32.487   7.055
 9446POPC   C4B50194   2.073  32.440   7.355
 9447POPC   NC350195   6.669  36.897   5.555
 9447POPC   PO450196   6.659  36.929   5.855
 9447POPC   GL150197   6.600  36.881   6.155
 9447POPC   GL250198   6.717  36.946   6.155
 9447POPC   C1A50199   6.663  36.883   6.455
 9447POPC   D2A50200   6.614  36.901   6.755
 9447POPC   C3A50201   6.683  36.930   7.055
 9447POPC   C4A50202   6.648  36.935   7.355
 9447POPC   C1B50203   6.860  36.947   6.455
 9447POPC   C2B50204   6.876  36.954   6.755
 9447POPC   C3B50205   6.936  36.921   7.055
 9447POPC   C4B50206   6.860  36.928   7.355
 9448POPC   NC350207  43.915  28.366   5.555
 9448POPC   PO450208  43.847  28.320   5.855
 9448POPC   GL150209  43.908  28.319   6.155
 9448POPC   GL250210  43.953  28.502   6.155
 9448POPC   C1A50211  43.900  28.390   6.455
 9448POPC   D2A50212  43.909  28.322   6.755
 9448POPC   C3A50213  43.936  28.419   7.055
 9448POPC   C4A50214  43.890  28.329   7.355
 9448POPC   C1B50215  43.993  28.619   6.455
 9448POPC   C2B50216  44.050  28.614   6.755
 9448POPC   C3B50217  43.986  28.566   7.055
 9448POPC   C4B50218  44.018  28.558   7.355
 9449POPC   NC350219   8.189  31.472   5.555
 9449POPC   PO450220   8.161  31.431   5.855
 9449POPC   GL150221   8.172  31.512   6.155
 9449POPC   GL250222   8.164  31.568   6.155
 9449POPC   C1A50223   8.205  31.485   6.455
 9449POPC   D2A50224   8.210  31.439   6.755
 9449POPC   C3A50225   8.197  31.479   7.055
 9449POPC   C4A50226   8.175  31.490   7.355
 9449POPC   C1B50227   8.066  31.689   6.455
 9449POPC   C2B50228   8.148  31.674   6.755
 9449POPC   C3B50229   8.119  31.736   7.055
 9449POPC   C4B50230   8.119  31.735   7.355
 9450POPC   NC350231  22.931  42.363   5.555
 9450POPC   PO450232  22.971  42.351   5.855
 9450POPC   GL150233  22.941  42.361   6.155
 9450POPC   GL250234  22.982  42.230   6.155
 9450POPC   C1A50235  22.903  42.293   6.455
 9450POPC   D2A50236  22.922  42.306   6.755
 9450POPC   C3A50237  22.897  42.296   7.055
 9450POPC   C4A50238  22.946  42.383   7.355
 9450POPC   C1B50239  23.088  42.199   6.455
 9450POPC   C2B50240  23.092  42.167   6.755
 9450POPC   C3B50241  23.119  42.167   7.055
 9450POPC   C4B50242  23.109  42.122   7.355
 9451POPC   NC350243  22.159  22.925   5.555
 9451POPC   PO450244  22.120  22.895   5.855
 9451POPC   GL150245  22.149  22.976   6.155
 9451POPC   GL250246  22.220  22.837   6.155
 9451POPC   C1A50247  22.146  22.966   6.455
 9451POPC   D2A50248  22.132  22.981   6.755
 9451POPC   C3A50249  22.140  22.941   7.055
 9451POPC   C4A50250  22.115  22.929   7.355
 9451POPC   C1B50251  22.395  22.824   6.455
 9451POPC   C2B50252  22.314  22.813   6.755
 9451POPC   C3B50253  22.348  22.751   7.055
 9451POPC   C4B50254  22.349  22.778   7.355
 9452POPC   NC350255  43.906   5.912   5.555
 9452POPC   PO450256  43.914   5.829   5.855
 9452POPC   GL150257  43.884   5.902   6.155
 9452POPC   GL250258  43.782   5.728   6.155
 9452POPC   C1A50259  43.929   5.861   6.455
 9452POPC   D2A50260  43.909   5.883   6.755
 9452POPC   C3A50261  43.911   5.874   7.055
 9452POPC   C4A50262  43.922   5.826   7.355
 9452POPC   C1B50263  43.759   5.676   6.455
 9452POPC   C2B50264  43.713   5.692   6.755
 9452POPC   C3B50265  43.777   5.667   7.055
 9452POPC   C4B50266  43.756   5.648   7.355
 9453POPC   NC350267  14.387  21.432   5.555
 9453POPC   PO450268  14.374  21.418   5.855
 9453POPC   GL150269  14.445  21.404   6.155
 9453POPC   GL250270  14.391  21.306   6.155
 9453POPC   C1A50271  14.374  21.384   6.455
 9453POPC   D2A50272  14.354  21.372   6.755
 9453POPC   C3A50273  14.393  21.397   7.055
 9453POPC   C4A50274  14.434  21.404   7.355
 9453POPC   C1B50275  14.441  21.141   6.455
 9453POPC   C2B50276  14.507  21.117   6.755
 9453POPC   C3B50277  14.497  21.186   7.055
 9453POPC   C4B50278  14.491  21.141   7.355
 9454POPC   NC350279  20.640  22.160   5.555
 9454POPC   PO450280  20.571  22.207   5.855
 9454POPC   GL150281  20.642  22.172   6.155
 9454POPC   GL250282  20.683  22.212   6.155
 9454POPC   C1A50283  20.652  22.129   6.455
 9454POPC   D2A50284  20.590  22.150   6.755
 9454POPC   C3A50285  20.656  22.143   7.055
 9454POPC   C4A50286  20.637  22.152   7.355
 9454POPC   C1B50287  20.795  22.306   6.455
 9454POPC   C2B50288  20.829  22.217   6.755
 9454POPC   C3B50289  20.808  22.247   7.055
 9454POPC   C4B50290  20.792  22.233   7.355
 9455POPC   NC350291  43.118  42.325   5.555
 9455POPC   PO450292  43.063  42.296   5.855
 9455POPC   GL150293  43.103  42.357   6.155
 9455POPC   GL250294  43.197  42.254   6.155
 9455POPC   C1A50295  43.072  42.368   6.455
 9455POPC   D2A50296  43.122  42.310   6.755
 9455POPC   C3A50297  43.157  42.321   7.055
 9455POPC   C4A50298  43.084  42.334   7.355
 9455POPC   C1B50299  43.272  42.176   6.455
 9455POPC   C2B50300  43.233  42.137   6.755
 9455POPC   C3B50301  43.296  42.139   7.055
 9455POPC   C4B50302  43.267  42.143   7.355
 9456POPC   NC350303  33.045   6.669   5.555
 9456POPC   PO450304  33.027   6.688   5.855
 9456POPC   GL150305  33.023   6.609   6.155
 9456POPC   GL250306  32.898   6.521   6.155
 9456POPC   C1A50307  33.001   6.694   6.455
 9456POPC   D2A50308  33.017   6.603   6.755
 9456POPC   C3A50309  33.004   6.600   7.055
 9456POPC   C4A50310  32.978   6.679   7.355
 9456POPC   C1B50311  32.809   6.423   6.455
 9456POPC   C2B50312  32.835   6.422   6.755
 9456POPC   C3B50313  32.846   6.454   7.055
 9456POPC   C4B50314  32.865   6.465   7.355
 9457POPC   NC350315  41.545  13.671   5.555
 9457POPC   PO450316  41.592  13.584   5.855
 9457POPC   GL150317  41.513  13.613   6.155
 9457POPC   GL250318  41.432  13.625   6.155
 9457POPC   C1A50319  41.595  13.583   6.455
 9457POPC   D2A50320  41.558  13.612   6.755
 9457POPC   C3A50321  41.601  13.606   7.055
 9457POPC   C4A50322  41.519  13.614   7.355
 9457POPC   C1B50323  41.288  13.546   6.455
 9457POPC   C2B50324  41.284  13.551   6.755
 9457POPC   C3B50325  41.303  13.596   7.055
 9457POPC   C4B50326  41.334  13.570   7.355
 9458POPC   NC350327  30.696   1.248   5.555
 9458POPC   PO450328  30.663   1.188   5.855
 9458POPC   GL150329  30.697   1.165   6.155
 9458POPC   GL250330  30.589   1.079   6.155
 9458POPC   C1A50331  30.685   1.248   6.455
 9458POPC   D2A50332  30.682   1.170   6.755
 9458POPC   C3A50333  30.739   1.176   7.055
 9458POPC   C4A50334  30.653   1.181   7.355
 9458POPC   C1B50335  30.571   1.001   6.455
 9458POPC   C2B50336  30.494   0.986   6.755
 9458POPC   C3B50337  30.506   1.042   7.055
 9458POPC   C4B50338  30.568   1.075   7.355
 9459POPC   NC350339  43.091   1.956   5.555
 9459POPC   PO450340  43.069   1.979   5.855
 9459POPC   GL150341  43.113   2.002   6.155
 9459POPC   GL250342  43.162   1.854   6.155
 9459POPC   C1A50343  43.075   2.027   6.455
 9459POPC   D2A50344  43.159   1.966   6.755
 9459POPC   C3A50345  43.144   2.000   7.055
 9459POPC   C4A50346  43.127   1.959   7.355
 9459POPC   C1B50347  43.247   1.785   6.455
 9459POPC   C2B50348  43.289   1.852   6.755
 9459POPC   C3B50349  43.320   1.856   7.055
 9459POPC   C4B50350  43.277   1.836   7.355
 9460POPC   NC350351   5.833  33.804   5.555
 9460POPC   PO450352   5.843  33.756   5.855
 9460POPC   GL150353   5.893  33.787   6.155
 9460POPC   GL250354   5.892  33.949   6.155
 9460POPC   C1A50355   5.826  33.810   6.455
 9460POPC   D2A50356   5.866  33.757   6.755
 9460POPC   C3A50357   5.889  33.778   7.055
 9460POPC   C4A50358   5.916  33.753   7.355
 9460POPC   C1B50359   5.836  34.055   6.455
 9460POPC   C2B50360   5.846  34.025   6.755
 9460POPC   C3B50361   5.813  34.041   7.055
 9460POPC   C4B50362   5.907  34.037   7.355
 9461POPC   NC350363   8.190  33.057   5.555
 9461POPC   PO450364   8.175  33.001   5.855
 9461POPC   GL150365   8.174  33.015   6.155
 9461POPC   GL250366   8.336  32.990   6.155
 9461POPC   C1A50367   8.185  33.016   6.455
 9461POPC   D2A50368   8.214  33.033   6.755
 9461POPC   C3A50369   8.161  32.993   7.055
 9461POPC   C4A50370   8.176  32.990   7.355
 9461POPC   C1B50371   8.415  32.882   6.455
 9461POPC   C2B50372   8.384  32.854   6.755
 9461POPC   C3B50373   8.353  32.907   7.055
 9461POPC   C4B50374   8.390  32.815   7.355
 9462POPC   NC350375   2.748  39.235   5.555
 9462POPC   PO450376   2.789  39.250   5.855
 9462POPC   GL150377   2.780  39.190   6.155
 9462POPC   GL250378   2.877  39.097   6.155
 9462POPC   C1A50379   2.720  39.280   6.455
 9462POPC   D2A50380   2.731  39.237   6.755
 9462POPC   C3A50381   2.805  39.258   7.055
 9462POPC   C4A50382   2.758  39.279   7.355
 9462POPC   C1B50383   2.926  39.042   6.455
 9462POPC   C2B50384   2.914  39.059   6.755
 9462POPC   C3B50385   2.935  39.055   7.055
 9462POPC   C4B50386   2.911  39.048   7.355
 9463POPC   NC350387  29.936  40.820   5.555
 9463POPC   PO450388  29.946  40.733   5.855
 9463POPC   GL150389  29.948  40.826   6.155
 9463POPC   GL250390  29.936  40.917   6.155
 9463POPC   C1A50391  29.873  40.752   6.455
 9463POPC   D2A50392  29.900  40.810   6.755
 9463POPC   C3A50393  29.932  40.737   7.055
 9463POPC   C4A50394  29.946  40.790   7.355
 9463POPC   C1B50395  29.989  41.009   6.455
 9463POPC   C2B50396  30.059  40.984   6.755
 9463POPC   C3B50397  30.042  41.016   7.055
 9463POPC   C4B50398  30.064  41.031   7.355
 9464POPC   NC350399  23.676  33.067   5.555
 9464POPC   PO450400  23.668  33.050   5.855
 9464POPC   GL150401  23.692  33.065   6.155
 9464POPC   GL250402  23.656  32.910   6.155
 9464POPC   C1A50403  23.725  32.985   6.455
 9464POPC   D2A50404  23.687  33.047   6.755
 9464POPC   C3A50405  23.715  33.016   7.055
 9464POPC   C4A50406  23.711  32.995   7.355
 9464POPC   C1B50407  23.570  32.848   6.455
 9464POPC   C2B50408  23.616  32.759   6.755
 9464POPC   C3B50409  23.638  32.806   7.055
 9464POPC   C4B50410  23.561  32.797   7.355
 9465POPC   NC350411   3.546  26.855   5.555
 9465POPC   PO450412   3.500  26.848   5.855
 9465POPC   GL150413   3.509  26.856   6.155
 9465POPC   GL250414   3.661  26.741   6.155
 9465POPC   C1A50415   3.517  26.817   6.455
 9465POPC   D2A50416   3.534  26.782   6.755
 9465POPC   C3A50417   3.516  26.857   7.055
 9465POPC   C4A50418   3.552  26.805   7.355
 9465POPC   C1B50419   3.697  26.592   6.455
 9465POPC   C2B50420   3.725  26.615   6.755
 9465POPC   C3B50421   3.696  26.657   7.055
 9465POPC   C4B50422   3.747  26.596   7.355
 9466POPC   NC350423  25.242  29.951   5.555
 9466POPC   PO450424  25.266  29.945   5.855
 9466POPC   GL150425  25.304  29.878   6.155
 9466POPC   GL250426  25.102  29.979   6.155
 9466POPC   C1A50427  25.239  29.875   6.455
 9466POPC   D2A50428  25.233  29.921   6.755
 9466POPC   C3A50429  25.278  29.958   7.055
 9466POPC   C4A50430  25.258  29.883   7.355
 9466POPC   C1B50431  25.023  29.931   6.455
 9466POPC   C2B50432  25.062  30.008   6.755
 9466POPC   C3B50433  25.019  29.988   7.055
 9466POPC   C4B50434  25.039  29.995   7.355
 9467POPC   NC350435   4.290  33.849   5.555
 9467POPC   PO450436   4.268  33.805   5.855
 9467POPC   GL150437   4.300  33.774   6.155
 9467POPC   GL250438   4.286  33.656   6.155
 9467POPC   C1A50439   4.333  33.768   6.455
 9467POPC   D2A50440   4.309  33.838   6.755
 9467POPC   C3A50441   4.274  33.828   7.055
 9467POPC   C4A50442   4.289  33.751   7.355
 9467POPC   C1B50443   4.314  33.524   6.455
 9467POPC   C2B50444   4.317  33.587   6.755
 9467POPC   C3B50445   4.309  33.524   7.055
 9467POPC   C4B50446   4.342  33.532   7.355
 9468POPC   NC350447  36.865  33.829   5.555
 9468POPC   PO450448  36.941  33.807   5.855
 9468POPC   GL150449  36.874  33.826   6.155
 9468POPC   GL250450  36.887  33.874   6.155
 9468POPC   C1A50451  36.858  33.799   6.455
 9468POPC   D2A50452  36.949  33.818   6.755
 9468POPC   C3A50453  36.910  33.756   7.055
 9468POPC   C4A50454  36.923  33.791   7.355
 9468POPC   C1B50455  36.862  34.021   6.455
 9468POPC   C2B50456  36.869  34.020   6.755
 9468POPC   C3B50457  36.858  34.082   7.055
 9468POPC   C4B50458  36.855  34.038   7.355
 9469POPC   NC350459  26.856  11.297   5.555
 9469POPC   PO450460  26.808  11.346   5.855
 9469POPC   GL150461  26.805  11.285   6.155
 9469POPC   GL250462  26.943  11.221   6.155
 9469POPC   C1A50463  26.798  11.269   6.455
 9469POPC   D2A50464  26.848  11.286   6.755
 9469POPC   C3A50465  26.771  11.287   7.055
 9469POPC   C4A50466  26.844  11.319   7.355
 9469POPC   C1B50467  27.096  11.233   6.455
 9469POPC   C2B50468  27.056  11.276   6.755
 9469POPC   C3B50469  27.106  11.258   7.055
 9469POPC   C4B50470  27.046  11.227   7.355
 9470POPC   NC350471  38.442  30.689   5.555
 9470POPC   PO450472  38.455  30.670   5.855
 9470POPC   GL150473  38.439  30.667   6.155
 9470POPC   GL250474  38.351  30.708   6.155
 9470POPC   C1A50475  38.473  30.742   6.455
 9470POPC   D2A50476  38.421  30.744   6.755
 9470POPC   C3A50477  38.441  30.726   7.055
 9470POPC   C4A50478  38.421  30.690   7.355
 9470POPC   C1B50479  38.204  30.701   6.455
 9470POPC   C2B50480  38.207  30.755   6.755
 9470POPC   C3B50481  38.179  30.772   7.055
 9470POPC   C4B50482  38.204  30.745   7.355
 9471POPC   NC350483  29.938  11.329   5.555
 9471POPC   PO450484  29.916  11.318   5.855
 9471POPC   GL150485  29.887  11.321   6.155
 9471POPC   GL250486  29.851  11.345   6.155
 9471POPC   C1A50487  29.926  11.315   6.455
 9471POPC   D2A50488  29.967  11.301   6.755
 9471POPC   C3A50489  29.932  11.345   7.055
 9471POPC   C4A50490  29.910  11.305   7.355
 9471POPC   C1B50491  29.718  11.406   6.455
 9471POPC   C2B50492  29.706  11.399   6.755
 9471POPC   C3B50493  29.667  11.447   7.055
 9471POPC   C4B50494  29.713  11.445   7.355
 9472POPC   NC350495  35.395  34.530   5.555
 9472POPC   PO450496  35.326  34.589   5.855
 9472POPC   GL150497  35.325  34.594   6.155
 9472POPC   GL250498  35.281  34.415   6.155
 9472POPC   C1A50499  35.379  34.603   6.455
 9472POPC   D2A50500  35.358  34.571   6.755
 9472POPC   C3A50501  35.357  34.553   7.055
 9472POPC   C4A50502  35.326  34.546   7.355
 9472POPC   C1B50503  35.286  34.302   6.455
 9472POPC   C2B50504  35.214  34.350   6.755
 9472POPC   C3B50505  35.220  34.315   7.055
 9472POPC   C4B50506  35.240  34.377   7.355
 9473POPC   NC350507  32.203   2.769   5.555
 9473POPC   PO450508  32.272   2.781   5.855
 9473POPC   GL150509  32.290   2.758   6.155
 9473POPC   GL250510  32.340   2.693   6.155
 9473POPC   C1A50511  32.230   2.800   6.455
 9473POPC   D2A50512  32.273   2.752   6.755
 9473POPC   C3A50513  32.256   2.772   7.055
 9473POPC   C4A50514  32.230   2.762   7.355
 9473POPC   C1B50515  32.532   2.655   6.455
 9473POPC   C2B50516  32.484   2.664   6.755
 9473POPC   C3B50517  32.517   2.650   7.055
 9473POPC   C4B50518  32.517   2.688   7.355
 9474POPC   NC350519   8.245  36.899   5.555
 9474POPC   PO450520   8.238  36.889   5.855
 9474POPC   GL150521   8.195  36.892   6.155
 9474POPC   GL250522   8.257  37.052   6.155
 9474POPC   C1A50523   8.179  36.883   6.455
 9474POPC   D2A50524   8.147  36.950   6.755
 9474POPC   C3A50525   8.222  36.929   7.055
 9474POPC   C4A50526   8.149  36.879   7.355
 9474POPC   C1B50527   8.294  37.160   6.455
 9474POPC   C2B50528   8.337  37.091   6.755
 9474POPC   C3B50529   8.336  37.079   7.055
 9474POPC   C4B50530   8.328  37.163   7.355
 9475POPC   NC350531   1.197  44.622   5.555
 9475POPC   PO450532   1.204  44.634   5.855
 9475POPC   GL150533   1.249  44.613   6.155
 9475POPC   GL250534   1.183  44.546   6.155
 9475POPC   C1A50535   1.184  44.628   6.455
 9475POPC   D2A50536   1.200  44.667   6.755
 9475POPC   C3A50537   1.212  44.696   7.055
 9475POPC   C4A50538   1.249  44.707   7.355
 9475POPC   C1B50539   1.137  44.418   6.455
 9475POPC   C2B50540   1.139  44.415   6.755
 9475POPC   C3B50541   1.142  44.465   7.055
 9475POPC   C4B50542   1.199  44.444   7.355
 9476POPC   NC350543   4.301  35.321   5.555
 9476POPC   PO450544   4.316  35.353   5.855
 9476POPC   GL150545   4.314  35.332   6.155
 9476POPC   GL250546   4.305  35.494   6.155
 9476POPC   C1A50547   4.312  35.341   6.455
 9476POPC   D2A50548   4.349  35.394   6.755
 9476POPC   C3A50549   4.313  35.395   7.055
 9476POPC   C4A50550   4.322  35.387   7.355
 9476POPC   C1B50551   4.275  35.610   6.455
 9476POPC   C2B50552   4.296  35.632   6.755
 9476POPC   C3B50553   4.246  35.586   7.055
 9476POPC   C4B50554   4.261  35.588   7.355
 9477POPC   NC350555  11.328  37.692   5.555
 9477POPC   PO450556  11.311  37.681   5.855
 9477POPC   GL150557  11.301  37.700   6.155
 9477POPC   GL250558  11.232  37.625   6.155
 9477POPC   C1A50559  11.264  37.703   6.455
 9477POPC   D2A50560  11.327  37.664   6.755
 9477POPC   C3A50561  11.280  37.637   7.055
 9477POPC   C4A50562  11.270  37.666   7.355
 9477POPC   C1B50563  11.103  37.518   6.455
 9477POPC   C2B50564  11.111  37.520   6.755
 9477POPC   C3B50565  11.125  37.443   7.055
 9477POPC   C4B50566  11.101  37.482   7.355
 9478POPC   NC350567  32.986  39.234   5.555
 9478POPC   PO450568  32.995  39.264   5.855
 9478POPC   GL150569  32.992  39.204   6.155
 9478POPC   GL250570  32.908  39.247   6.155
 9478POPC   C1A50571  33.040  39.239   6.455
 9478POPC   D2A50572  33.056  39.182   6.755
 9478POPC   C3A50573  32.987  39.227   7.055
 9478POPC   C4A50574  32.991  39.209   7.355
 9478POPC   C1B50575  32.817  39.224   6.455
 9478POPC   C2B50576  32.758  39.216   6.755
 9478POPC   C3B50577  32.822  39.220   7.055
 9478POPC   C4B50578  32.767  39.198   7.355
 9479POPC   NC350579  40.791   2.748   5.555
 9479POPC   PO450580  40.797   2.779   5.855
 9479POPC   GL150581  40.763   2.747   6.155
 9479POPC   GL250582  40.870   2.816   6.155
 9479POPC   C1A50583  40.735   2.811   6.455
 9479POPC   D2A50584  40.807   2.798   6.755
 9479POPC   C3A50585  40.786   2.801   7.055
 9479POPC   C4A50586  40.815   2.802   7.355
 9479POPC   C1B50587  40.936   2.975   6.455
 9479POPC   C2B50588  40.988   2.992   6.755
 9479POPC   C3B50589  40.915   2.991   7.055
 9479POPC   C4B50590  40.974   2.980   7.355
 9480POPC   NC350591  42.296  29.946   5.555
 9480POPC   PO450592  42.372  29.879   5.855
 9480POPC   GL150593  42.308  29.931   6.155
 9480POPC   GL250594  42.349  29.812   6.155
 9480POPC   C1A50595  42.337  29.967   6.455
 9480POPC   D2A50596  42.351  29.872   6.755
 9480POPC   C3A50597  42.363  29.931   7.055
 9480POPC   C4A50598  42.316  29.910   7.355
 9480POPC   C1B50599  42.229  29.634   6.455
 9480POPC   C2B50600  42.278  29.634   6.755
 9480POPC   C3B50601  42.266  29.646   7.055
 9480POPC   C4B50602  42.278  29.704   7.355
 9481POPC   NC350603  36.930  20.643   5.555
 9481POPC   PO450604  36.881  20.595   5.855
 9481POPC   GL150605  36.867  20.624   6.155
 9481POPC   GL250606  36.968  20.526   6.155
 9481POPC   C1A50607  36.924  20.561   6.455
 9481POPC   D2A50608  36.910  20.613   6.755
 9481POPC   C3A50609  36.912  20.601   7.055
 9481POPC   C4A50610  36.888  20.589   7.355
 9481POPC   C1B50611  37.024  20.458   6.455
 9481POPC   C2B50612  37.077  20.445   6.755
 9481POPC   C3B50613  37.078  20.381   7.055
 9481POPC   C4B50614  37.081  20.412   7.355
 9482POPC   NC350615  43.876  19.826   5.555
 9482POPC   PO450616  43.884  19.846   5.855
 9482POPC   GL150617  43.853  19.850   6.155
 9482POPC   GL250618  43.994  19.817   6.155
 9482POPC   C1A50619  43.884  19.883   6.455
 9482POPC   D2A50620  43.925  19.831   6.755
 9482POPC   C3A50621  43.935  19.861   7.055
 9482POPC   C4A50622  43.932  19.838   7.355
 9482POPC   C1B50623  44.170  19.904   6.455
 9482POPC   C2B50624  44.140  19.901   6.755
 9482POPC   C3B50625  44.096  19.867   7.055
 9482POPC   C4B50626  44.155  19.928   7.355
 9483POPC   NC350627  14.383  22.898   5.555
 9483POPC   PO450628  14.422  22.941   5.855
 9483POPC   GL150629  14.440  22.907   6.155
 9483POPC   GL250630  14.514  23.070   6.155
 9483POPC   C1A50631  14.379  22.930   6.455
 9483POPC   D2A50632  14.406  22.907   6.755
 9483POPC   C3A50633  14.378  22.928   7.055
 9483POPC   C4A50634  14.380  22.926   7.355
 9483POPC   C1B50635  14.589  23.129   6.455
 9483POPC   C2B50636  14.571  23.163   6.755
 9483POPC   C3B50637  14.555  23.164   7.055
 9483POPC   C4B50638  14.563  23.131   7.355
 9484POPC   NC350639  44.615   2.731   5.555
 9484POPC   PO450640  44.626   2.750   5.855
 9484POPC   GL150641  44.632   2.791   6.155
 9484POPC   GL250642  44.681   2.836   6.155
 9484POPC   C1A50643  44.656   2.778   6.455
 9484POPC   D2A50644  44.654   2.718   6.755
 9484POPC   C3A50645  44.624   2.777   7.055
 9484POPC   C4A50646  44.689   2.813   7.355
 9484POPC   C1B50647  44.782   2.978   6.455
 9484POPC   C2B50648  44.782   2.955   6.755
 9484POPC   C3B50649  44.796   2.982   7.055
 9484POPC   C4B50650  44.749   2.942   7.355
 9485POPC   NC350651  35.329   5.877   5.555
 9485POPC   PO450652  35.351   5.846   5.855
 9485POPC   GL150653  35.387   5.835   6.155
 9485POPC   GL250654  35.269   5.925   6.155
 9485POPC   C1A50655  35.330   5.916   6.455
 9485POPC   D2A50656  35.393   5.839   6.755
 9485POPC   C3A50657  35.318   5.854   7.055
 9485POPC   C4A50658  35.321   5.905   7.355
 9485POPC   C1B50659  35.152   5.928   6.455
 9485POPC   C2B50660  35.115   5.882   6.755
 9485POPC   C3B50661  35.080   5.868   7.055
 9485POPC   C4B50662  35.135   5.894   7.355
 9486POPC   NC350663   4.331   0.437   5.555
 9486POPC   PO450664   4.360   0.389   5.855
 9486POPC   GL150665   4.333   0.476   6.155
 9486POPC   GL250666   4.413   0.484   6.155
 9486POPC   C1A50667   4.343   0.485   6.455
 9486POPC   D2A50668   4.350   0.437   6.755
 9486POPC   C3A50669   4.332   0.453   7.055
 9486POPC   C4A50670   4.295   0.423   7.355
 9486POPC   C1B50671   4.552   0.472   6.455
 9486POPC   C2B50672   4.582   0.427   6.755
 9486POPC   C3B50673   4.521   0.445   7.055
 9486POPC   C4B50674   4.570   0.493   7.355
 9487POPC   NC350675  36.131  40.776   5.555
 9487POPC   PO450676  36.132  40.765   5.855
 9487POPC   GL150677  36.120  40.764   6.155
 9487POPC   GL250678  36.008  40.872   6.155
 9487POPC   C1A50679  36.093  40.740   6.455
 9487POPC   D2A50680  36.132  40.792   6.755
 9487POPC   C3A50681  36.115  40.804   7.055
 9487POPC   C4A50682  36.158  40.735   7.355
 9487POPC   C1B50683  35.971  40.944   6.455
 9487POPC   C2B50684  35.964  40.928   6.755
 9487POPC   C3B50685  35.897  40.972   7.055
 9487POPC   C4B50686  35.985  40.969   7.355
 9488POPC   NC350687  42.337  42.285   5.555
 9488POPC   PO450688  42.287  42.376   5.855
 9488POPC   GL150689  42.316  42.347   6.155
 9488POPC   GL250690  42.463  42.411   6.155
 9488POPC   C1A50691  42.311  42.380   6.455
 9488POPC   D2A50692  42.294  42.290   6.755
 9488POPC   C3A50693  42.384  42.299   7.055
 9488POPC   C4A50694  42.311  42.294   7.355
 9488POPC   C1B50695  42.553  42.518   6.455
 9488POPC   C2B50696  42.471  42.494   6.755
 9488POPC   C3B50697  42.483  42.533   7.055
 9488POPC   C4B50698  42.499  42.532   7.355
 9489POPC   NC350699  32.215  43.158   5.555
 9489POPC   PO450700  32.199  43.066   5.855
 9489POPC   GL150701  32.200  43.120   6.155
 9489POPC   GL250702  32.355  43.071   6.155
 9489POPC   C1A50703  32.291  43.084   6.455
 9489POPC   D2A50704  32.268  43.131   6.755
 9489POPC   C3A50705  32.234  43.116   7.055
 9489POPC   C4A50706  32.246  43.149   7.355
 9489POPC   C1B50707  32.511  43.093   6.455
 9489POPC   C2B50708  32.521  43.038   6.755
 9489POPC   C3B50709  32.476  43.067   7.055
 9489POPC   C4B50710  32.500  43.066   7.355
 9490POPC   NC350711   8.154  18.310   5.555
 9490POPC   PO450712   8.210  18.293   5.855
 9490POPC   GL150713   8.150  18.316   6.155
 9490POPC   GL250714   8.094  18.235   6.155
 9490POPC   C1A50715   8.177  18.313   6.455
 9490POPC   D2A50716   8.173  18.318   6.755
 9490POPC   C3A50717   8.168  18.257   7.055
 9490POPC   C4A50718   8.149  18.269   7.355
 9490POPC   C1B50719   7.907  18.215   6.455
 9490POPC   C2B50720   8.003  18.198   6.755
 9490POPC   C3B50721   7.949  18.237   7.055
 9490POPC   C4B50722   7.999  18.178   7.355
 9491POPC   NC350723  30.744  32.238   5.555
 9491POPC   PO450724  30.708  32.205   5.855
 9491POPC   GL150725  30.692  32.220   6.155
 9491POPC   GL250726  30.810  32.306   6.155
 9491POPC   C1A50727  30.741  32.276   6.455
 9491POPC   D2A50728  30.739  32.214   6.755
 9491POPC   C3A50729  30.676  32.233   7.055
 9491POPC   C4A50730  30.714  32.265   7.355
 9491POPC   C1B50731  30.840  32.470   6.455
 9491POPC   C2B50732  30.838  32.461   6.755
 9491POPC   C3B50733  30.846  32.407   7.055
 9491POPC   C4B50734  30.867  32.417   7.355
 9492POPC   NC350735  44.663  34.541   5.555
 9492POPC   PO450736  44.633  34.596   5.855
 9492POPC   GL150737  44.702  34.548   6.155
 9492POPC   GL250738  44.830  34.610   6.155
 9492POPC   C1A50739  44.705  34.554   6.455
 9492POPC   D2A50740  44.710  34.558   6.755
 9492POPC   C3A50741  44.646  34.623   7.055
 9492POPC   C4A50742  44.709  34.577   7.355
 9492POPC   C1B50743  44.937  34.617   6.455
 9492POPC   C2B50744  44.910  34.608   6.755
 9492POPC   C3B50745  44.915  34.579   7.055
 9492POPC   C4B50746  44.884  34.629   7.355
 9493POPC   NC350747  29.138  24.521   5.555
 9493POPC   PO450748  29.185  24.504   5.855
 9493POPC   GL150749  29.179  24.442   6.155
 9493POPC   GL250750  29.084  24.425   6.155
 9493POPC   C1A50751  29.144  24.443   6.455
 9493POPC   D2A50752  29.111  24.441   6.755
 9493POPC   C3A50753  29.102  24.476   7.055
 9493POPC   C4A50754  29.133  24.462   7.355
 9493POPC   C1B50755  29.068  24.262   6.455
 9493POPC   C2B50756  29.043  24.292   6.755
 9493POPC   C3B50757  28.989  24.285   7.055
 9493POPC   C4B50758  29.050  24.244   7.355
 9494POPC   NC350759   7.410   0.419   5.555
 9494POPC   PO450760   7.388   0.469   5.855
 9494POPC   GL150761   7.407   0.484   6.155
 9494POPC   GL250762   7.361   0.557   6.155
 9494POPC   C1A50763   7.470   0.405   6.455
 9494POPC   D2A50764   7.394   0.480   6.755
 9494POPC   C3A50765   7.448   0.403   7.055
 9494POPC   C4A50766   7.376   0.397   7.355
 9494POPC   C1B50767   7.356   0.653   6.455
 9494POPC   C2B50768   7.400   0.692   6.755
 9494POPC   C3B50769   7.377   0.658   7.055
 9494POPC   C4B50770   7.404   0.700   7.355
 9495POPC   NC350771  13.627  44.661   5.555
 9495POPC   PO450772  13.598  44.695   5.855
 9495POPC   GL150773  13.663  44.677   6.155
 9495POPC   GL250774  13.670  44.581   6.155
 9495POPC   C1A50775  13.585  44.645   6.455
 9495POPC   D2A50776  13.619  44.667   6.755
 9495POPC   C3A50777  13.652  44.646   7.055
 9495POPC   C4A50778  13.672  44.670   7.355
 9495POPC   C1B50779  13.826  44.464   6.455
 9495POPC   C2B50780  13.770  44.457   6.755
 9495POPC   C3B50781  13.806  44.523   7.055
 9495POPC   C4B50782  13.835  44.429   7.355
 9496POPC   NC350783  16.751   0.396   5.555
 9496POPC   PO450784  16.759   0.454   5.855
 9496POPC   GL150785  16.745   0.461   6.155
 9496POPC   GL250786  16.756   0.519   6.155
 9496POPC   C1A50787  16.769   0.389   6.455
 9496POPC   D2A50788  16.720   0.464   6.755
 9496POPC   C3A50789  16.700   0.452   7.055
 9496POPC   C4A50790  16.754   0.417   7.355
 9496POPC   C1B50791  16.806   0.650   6.455
 9496POPC   C2B50792  16.778   0.644   6.755
 9496POPC   C3B50793  16.767   0.704   7.055
 9496POPC   C4B50794  16.741   0.658   7.355
 9497POPC   NC350795  26.791  15.183   5.555
 9497POPC   PO450796  26.835  15.159   5.855
 9497POPC   GL150797  26.815  15.187   6.155
 9497POPC   GL250798  26.756  15.232   6.155
 9497POPC   C1A50799  26.778  15.132   6.455
 9497POPC   D2A50800  26.796  15.202   6.755
 9497POPC   C3A50801  26.840  15.163   7.055
 9497POPC   C4A50802  26.771  15.182   7.355
 9497POPC   C1B50803  26.603  15.390   6.455
 9497POPC   C2B50804  26.688  15.398   6.755
 9497POPC   C3B50805  26.638  15.330   7.055
 9497POPC   C4B50806  26.622  15.330   7.355
 9498POPC   NC350807   5.139   0.418   5.555
 9498POPC   PO450808   5.076   0.420   5.855
 9498POPC   GL150809   5.053   0.410   6.155
 9498POPC   GL250810   5.137   0.515   6.155
 9498POPC   C1A50811   5.069   0.395   6.455
 9498POPC   D2A50812   5.105   0.462   6.755
 9498POPC   C3A50813   5.062   0.393   7.055
 9498POPC   C4A50814   5.120   0.451   7.355
 9498POPC   C1B50815   5.224   0.647   6.455
 9498POPC   C2B50816   5.241   0.634   6.755
 9498POPC   C3B50817   5.192   0.645   7.055
 9498POPC   C4B50818   5.269   0.631   7.355
 9499POPC   NC350819  28.341  29.174   5.555
 9499POPC   PO450820  28.385  29.172   5.855
 9499POPC   GL150821  28.351  29.181   6.155
 9499POPC   GL250822  28.502  29.148   6.155
 9499POPC   C1A50823  28.335  29.171   6.455
 9499POPC   D2A50824  28.399  29.129   6.755
 9499POPC   C3A50825  28.399  29.158   7.055
 9499POPC   C4A50826  28.363  29.179   7.355
 9499POPC   C1B50827  28.642  29.184   6.455
 9499POPC   C2B50828  28.618  29.214   6.755
 9499POPC   C3B50829  28.606  29.180   7.055
 9499POPC   C4B50830  28.634  29.232   7.355
 9500POPC   NC350831   4.311  37.710   5.555
 9500POPC   PO450832   4.317  37.717   5.855
 9500POPC   GL150833   4.333  37.648   6.155
 9500POPC   GL250834   4.411  37.730   6.155
 9500POPC   C1A50835   4.327  37.697   6.455
 9500POPC   D2A50836   4.299  37.671   6.755
 9500POPC   C3A50837   4.352  37.683   7.055
 9500POPC   C4A50838   4.310  37.714   7.355
 9500POPC   C1B50839   4.439  37.853   6.455
 9500POPC   C2B50840   4.455  37.879   6.755
 9500POPC   C3B50841   4.500  37.865   7.055
 9500POPC   C4B50842   4.468  37.864   7.355
 9501POPC   NC350843  15.930  11.291   5.555
 9501POPC   PO450844  15.952  11.288   5.855
 9501POPC   GL150845  16.002  11.313   6.155
 9501POPC   GL250846  15.957  11.167   6.155
 9501POPC   C1A50847  15.986  11.293   6.455
 9501POPC   D2A50848  15.970  11.257   6.755
 9501POPC   C3A50849  15.931  11.272   7.055
 9501POPC   C4A50850  15.958  11.270   7.355
 9501POPC   C1B50851  16.049  11.035   6.455
 9501POPC   C2B50852  16.054  11.099   6.755
 9501POPC   C3B50853  16.000  11.044   7.055
 9501POPC   C4B50854  16.024  11.076   7.355
 9502POPC   NC350855  10.504  38.406   5.555
 9502POPC   PO450856  10.571  38.502   5.855
 9502POPC   GL150857  10.552  38.431   6.155
 9502POPC   GL250858  10.546  38.329   6.155
 9502POPC   C1A50859  10.491  38.487   6.455
 9502POPC   D2A50860  10.482  38.476   6.755
 9502POPC   C3A50861  10.506  38.500   7.055
 9502POPC   C4A50862  10.532  38.470   7.355
 9502POPC   C1B50863  10.551  38.181   6.455
 9502POPC   C2B50864  10.517  38.256   6.755
 9502POPC   C3B50865  10.539  38.255   7.055
 9502POPC   C4B50866  10.539  38.181   7.355
 9503POPC   NC350867  15.953  23.751   5.555
 9503POPC   PO450868  15.958  23.713   5.855
 9503POPC   GL150869  15.933  23.761   6.155
 9503POPC   GL250870  15.923  23.575   6.155
 9503POPC   C1A50871  15.906  23.759   6.455
 9503POPC   D2A50872  15.969  23.761   6.755
 9503POPC   C3A50873  15.971  23.680   7.055
 9503POPC   C4A50874  15.927  23.673   7.355
 9503POPC   C1B50875  15.853  23.490   6.455
 9503POPC   C2B50876  15.869  23.461   6.755
 9503POPC   C3B50877  15.890  23.514   7.055
 9503POPC   C4B50878  15.898  23.430   7.355
 9504POPC   NC350879  30.715  28.401   5.555
 9504POPC   PO450880  30.727  28.326   5.855
 9504POPC   GL150881  30.684  28.335   6.155
 9504POPC   GL250882  30.709  28.480   6.155
 9504POPC   C1A50883  30.663  28.367   6.455
 9504POPC   D2A50884  30.701  28.335   6.755
 9504POPC   C3A50885  30.691  28.417   7.055
 9504POPC   C4A50886  30.738  28.416   7.355
 9504POPC   C1B50887  30.770  28.629   6.455
 9504POPC   C2B50888  30.704  28.590   6.755
 9504POPC   C3B50889  30.688  28.586   7.055
 9504POPC   C4B50890  30.680  28.591   7.355
 9505POPC   NC350891  32.201  32.221   5.555
 9505POPC   PO450892  32.202  32.227   5.855
 9505POPC   GL150893  32.238  32.276   6.155
 9505POPC   GL250894  32.139  32.287   6.155
 9505POPC   C1A50895  32.213  32.209   6.455
 9505POPC   D2A50896  32.285  32.241   6.755
 9505POPC   C3A50897  32.246  32.202   7.055
 9505POPC   C4A50898  32.243  32.244   7.355
 9505POPC   C1B50899  31.952  32.275   6.455
 9505POPC   C2B50900  31.967  32.235   6.755
 9505POPC   C3B50901  32.034  32.314   7.055
 9505POPC   C4B50902  32.003  32.310   7.355
 9506POPC   NC350903  29.919  10.501   5.555
 9506POPC   PO450904  29.890  10.506   5.855
 9506POPC   GL150905  29.937  10.529   6.155
 9506POPC   GL250906  29.777  10.471   6.155
 9506POPC   C1A50907  29.887  10.521   6.455
 9506POPC   D2A50908  29.941  10.546   6.755
 9506POPC   C3A50909  29.948  10.515   7.055
 9506POPC   C4A50910  29.922  10.559   7.355
 9506POPC   C1B50911  29.695  10.433   6.455
 9506POPC   C2B50912  29.657  10.375   6.755
 9506POPC   C3B50913  29.653  10.400   7.055
 9506POPC   C4B50914  29.731  10.449   7.355
 9507POPC   NC350915  16.779  43.124   5.555
 9507POPC   PO450916  16.714  43.157   5.855
 9507POPC   GL150917  16.735  43.074   6.155
 9507POPC   GL250918  16.840  43.221   6.155
 9507POPC   C1A50919  16.684  43.140   6.455
 9507POPC   D2A50920  16.711  43.108   6.755
 9507POPC   C3A50921  16.696  43.068   7.055
 9507POPC   C4A50922  16.746  43.124   7.355
 9507POPC   C1B50923  16.880  43.332   6.455
 9507POPC   C2B50924  16.898  43.323   6.755
 9507POPC   C3B50925  16.824  43.305   7.055
 9507POPC   C4B50926  16.887  43.292   7.355
 9508POPC   NC350927   7.388   4.362   5.555
 9508POPC   PO450928   7.382   4.322   5.855
 9508POPC   GL150929   7.449   4.349   6.155
 9508POPC   GL250930   7.305   4.280   6.155
 9508POPC   C1A50931   7.387   4.364   6.455
 9508POPC   D2A50932   7.383   4.320   6.755
 9508POPC   C3A50933   7.373   4.310   7.055
 9508POPC   C4A50934   7.416   4.347   7.355
 9508POPC   C1B50935   7.218   4.324   6.455
 9508POPC   C2B50936   7.149   4.352   6.755
 9508POPC   C3B50937   7.160   4.344   7.055
 9508POPC   C4B50938   7.124   4.304   7.355
 9509POPC   NC350939  31.468  44.626   5.555
 9509POPC   PO450940  31.444  44.618   5.855
 9509POPC   GL150941  31.517  44.642   6.155
 9509POPC   GL250942  31.579  44.678   6.155
 9509POPC   C1A50943  31.500  44.705   6.455
 9509POPC   D2A50944  31.500  44.660   6.755
 9509POPC   C3A50945  31.428  44.618   7.055
 9509POPC   C4A50946  31.478  44.649   7.355
 9509POPC   C1B50947  31.735  44.746   6.455
 9509POPC   C2B50948  31.719  44.793   6.755
 9509POPC   C3B50949  31.680  44.766   7.055
 9509POPC   C4B50950  31.735  44.805   7.355
 9510POPC   NC350951  29.925  39.196   5.555
 9510POPC   PO450952  29.960  39.274   5.855
 9510POPC   GL150953  29.914  39.255   6.155
 9510POPC   GL250954  29.870  39.312   6.155
 9510POPC   C1A50955  29.899  39.183   6.455
 9510POPC   D2A50956  29.961  39.262   6.755
 9510POPC   C3A50957  29.944  39.200   7.055
 9510POPC   C4A50958  29.902  39.255   7.355
 9510POPC   C1B50959  29.901  39.458   6.455
 9510POPC   C2B50960  29.948  39.477   6.755
 9510POPC   C3B50961  29.896  39.455   7.055
 9510POPC   C4B50962  29.894  39.436   7.355
 9511POPC   NC350963  25.280  41.571   5.555
 9511POPC   PO450964  25.308  41.587   5.855
 9511POPC   GL150965  25.270  41.542   6.155
 9511POPC   GL250966  25.372  41.538   6.155
 9511POPC   C1A50967  25.267  41.517   6.455
 9511POPC   D2A50968  25.239  41.583   6.755
 9511POPC   C3A50969  25.288  41.550   7.055
 9511POPC   C4A50970  25.243  41.570   7.355
 9511POPC   C1B50971  25.506  41.591   6.455
 9511POPC   C2B50972  25.536  41.614   6.755
 9511POPC   C3B50973  25.472  41.609   7.055
 9511POPC   C4B50974  25.552  41.624   7.355
 9512POPC   NC350975  43.133  33.028   5.555
 9512POPC   PO450976  43.067  32.992   5.855
 9512POPC   GL150977  43.158  33.046   6.155
 9512POPC   GL250978  42.953  33.106   6.155
 9512POPC   C1A50979  43.092  33.039   6.455
 9512POPC   D2A50980  43.106  33.008   6.755
 9512POPC   C3A50981  43.063  33.015   7.055
 9512POPC   C4A50982  43.158  33.068   7.355
 9512POPC   C1B50983  42.893  33.071   6.455
 9512POPC   C2B50984  42.923  33.145   6.755
 9512POPC   C3B50985  42.842  33.073   7.055
 9512POPC   C4B50986  42.922  33.139   7.355
 9513POPC   NC350987  36.146  21.410   5.555
 9513POPC   PO450988  36.168  21.410   5.855
 9513POPC   GL150989  36.153  21.415   6.155
 9513POPC   GL250990  36.103  21.300   6.155
 9513POPC   C1A50991  36.091  21.381   6.455
 9513POPC   D2A50992  36.164  21.424   6.755
 9513POPC   C3A50993  36.089  21.429   7.055
 9513POPC   C4A50994  36.091  21.337   7.355
 9513POPC   C1B50995  35.984  21.130   6.455
 9513POPC   C2B50996  36.015  21.141   6.755
 9513POPC   C3B50997  35.981  21.130   7.055
 9513POPC   C4B50998  35.999  21.142   7.355
 9514POPC   NC350999  15.201   3.514   5.555
 9514POPC   PO451000  15.132   3.503   5.855
 9514POPC   GL151001  15.215   3.561   6.155
 9514POPC   GL251002  15.051   3.416   6.155
 9514POPC   C1A51003  15.218   3.565   6.455
 9514POPC   D2A51004  15.206   3.584   6.755
 9514POPC   C3A51005  15.182   3.568   7.055
 9514POPC   C4A51006  15.177   3.540   7.355
 9514POPC   C1B51007  14.999   3.338   6.455
 9514POPC   C2B51008  15.042   3.366   6.755
 9514POPC   C3B51009  15.018   3.333   7.055
 9514POPC   C4B51010  15.015   3.324   7.355
 9515POPC   NC351011  20.638  44.686   5.555
 9515POPC   PO451012  20.571  44.617   5.855
 9515POPC   GL151013  20.595  44.677   6.155
 9515POPC   GL251014  20.527  44.583   6.155
 9515POPC   C1A51015  20.591  44.686   6.455
 9515POPC   D2A51016  20.561  44.643   6.755
 9515POPC   C3A51017  20.644  44.634   7.055
 9515POPC   C4A51018  20.628  44.694   7.355
 9515POPC   C1B51019  20.413  44.531   6.455
 9515POPC   C2B51020  20.394  44.550   6.755
 9515POPC   C3B51021  20.364  44.535   7.055
 9515POPC   C4B51022  20.370  44.526   7.355
 9516POPC   NC351023  43.913  17.488   5.555
 9516POPC   PO451024  43.858  17.544   5.855
 9516POPC   GL151025  43.886  17.463   6.155
 9516POPC   GL251026  43.946  17.372   6.155
 9516POPC   C1A51027  43.862  17.511   6.455
 9516POPC   D2A51028  43.929  17.551   6.755
 9516POPC   C3A51029  43.880  17.525   7.055
 9516POPC   C4A51030  43.841  17.471   7.355
 9516POPC   C1B51031  43.894  17.286   6.455
 9516POPC   C2B51032  43.928  17.228   6.755
 9516POPC   C3B51033  43.898  17.219   7.055
 9516POPC   C4B51034  43.941  17.262   7.355
 9517POPC   NC351035  38.472  22.898   5.555
 9517POPC   PO451036  38.411  22.913   5.855
 9517POPC   GL151037  38.485  22.926   6.155
 9517POPC   GL251038  38.566  22.975   6.155
 9517POPC   C1A51039  38.450  22.950   6.455
 9517POPC   D2A51040  38.464  22.904   6.755
 9517POPC   C3A51041  38.493  22.928   7.055
 9517POPC   C4A51042  38.499  22.966   7.355
 9517POPC   C1B51043  38.713  22.971   6.455
 9517POPC   C2B51044  38.665  22.973   6.755
 9517POPC   C3B51045  38.684  22.926   7.055
 9517POPC   C4B51046  38.680  23.023   7.355
 9518POPC   NC351047  17.550  28.370   5.555
 9518POPC   PO451048  17.523  28.411   5.855
 9518POPC   GL151049  17.527  28.321   6.155
 9518POPC   GL251050  17.623  28.259   6.155
 9518POPC   C1A51051  17.472  28.367   6.455
 9518POPC   D2A51052  17.509  28.403   6.755
 9518POPC   C3A51053  17.463  28.329   7.055
 9518POPC   C4A51054  17.549  28.396   7.355
 9518POPC   C1B51055  17.691  28.145   6.455
 9518POPC   C2B51056  17.697  28.221   6.755
 9518POPC   C3B51057  17.647  28.196   7.055
 9518POPC   C4B51058  17.652  28.154   7.355
 9519POPC   NC351059  31.521   8.180   5.555
 9519POPC   PO451060  31.482   8.177   5.855
 9519POPC   GL151061  31.506   8.173   6.155
 9519POPC   GL251062  31.370   8.206   6.155
 9519POPC   C1A51063  31.450   8.223   6.455
 9519POPC   D2A51064  31.427   8.177   6.755
 9519POPC   C3A51065  31.490   8.181   7.055
 9519POPC   C4A51066  31.510   8.193   7.355
 9519POPC   C1B51067  31.257   8.267   6.455
 9519POPC   C2B51068  31.260   8.268   6.755
 9519POPC   C3B51069  31.234   8.225   7.055
 9519POPC   C4B51070  31.206   8.222   7.355
 9520POPC   NC351071  28.326   8.977   5.555
 9520POPC   PO451072  28.410   8.969   5.855
 9520POPC   GL151073  28.377   8.936   6.155
 9520POPC   GL251074  28.234   9.037   6.155
 9520POPC   C1A51075  28.365   8.933   6.455
 9520POPC   D2A51076  28.395   8.938   6.755
 9520POPC   C3A51077  28.353   8.964   7.055
 9520POPC   C4A51078  28.349   8.998   7.355
 9520POPC   C1B51079  28.166   9.110   6.455
 9520POPC   C2B51080  28.186   9.066   6.755
 9520POPC   C3B51081  28.182   9.030   7.055
 9520POPC   C4B51082  28.187   9.108   7.355
 9521POPC   NC351083  12.853  10.522   5.555
 9521POPC   PO451084  12.902  10.561   5.855
 9521POPC   GL151085  12.901  10.569   6.155
 9521POPC   GL251086  12.927  10.451   6.155
 9521POPC   C1A51087  12.846  10.479   6.455
 9521POPC   D2A51088  12.842  10.507   6.755
 9521POPC   C3A51089  12.866  10.529   7.055
 9521POPC   C4A51090  12.830  10.536   7.355
 9521POPC   C1B51091  13.051  10.392   6.455
 9521POPC   C2B51092  13.063  10.419   6.755
 9521POPC   C3B51093  13.082  10.486   7.055
 9521POPC   C4B51094  13.122  10.424   7.355
 9522POPC   NC351095  41.593   5.082   5.555
 9522POPC   PO451096  41.588   5.113   5.855
 9522POPC   GL151097  41.587   5.106   6.155
 9522POPC   GL251098  41.684   5.100   6.155
 9522POPC   C1A51099  41.608   5.080   6.455
 9522POPC   D2A51100  41.600   5.050   6.755
 9522POPC   C3A51101  41.608   5.076   7.055
 9522POPC   C4A51102  41.581   5.122   7.355
 9522POPC   C1B51103  41.755   5.172   6.455
 9522POPC   C2B51104  41.815   5.162   6.755
 9522POPC   C3B51105  41.810   5.145   7.055
 9522POPC   C4B51106  41.754   5.170   7.355
 9523POPC   NC351107  28.406  25.254   5.555
 9523POPC   PO451108  28.359  25.305   5.855
 9523POPC   GL151109  28.381  25.255   6.155
 9523POPC   GL251110  28.241  25.273   6.155
 9523POPC   C1A51111  28.418  25.280   6.455
 9523POPC   D2A51112  28.328  25.280   6.755
 9523POPC   C3A51113  28.337  25.219   7.055
 9523POPC   C4A51114  28.407  25.288   7.355
 9523POPC   C1B51115  28.164  25.332   6.455
 9523POPC   C2B51116  28.097  25.397   6.755
 9523POPC   C3B51117  28.100  25.348   7.055
 9523POPC   C4B51118  28.099  25.372   7.355
 9524POPC   NC351119   8.999   4.279   5.555
 9524POPC   PO451120   9.000   4.284   5.855
 9524POPC   GL151121   8.960   4.329   6.155
 9524POPC   GL251122   9.101   4.247   6.155
 9524POPC   C1A51123   9.010   4.332   6.455
 9524POPC   D2A51124   8.971   4.307   6.755
 9524POPC   C3A51125   9.020   4.286   7.055
 9524POPC   C4A51126   8.932   4.314   7.355
 9524POPC   C1B51127   9.171   4.191   6.455
 9524POPC   C2B51128   9.162   4.151   6.755
 9524POPC   C3B51129   9.119   4.140   7.055
 9524POPC   C4B51130   9.143   4.135   7.355
 9525POPC   NC351131  34.605  30.743   5.555
 9525POPC   PO451132  34.574  30.746   5.855
 9525POPC   GL151133  34.612  30.718   6.155
 9525POPC   GL251134  34.583  30.573   6.155
 9525POPC   C1A51135  34.622  30.662   6.455
 9525POPC   D2A51136  34.599  30.671   6.755
 9525POPC   C3A51137  34.527  30.647   7.055
 9525POPC   C4A51138  34.610  30.724   7.355
 9525POPC   C1B51139  34.653  30.498   6.455
 9525POPC   C2B51140  34.618  30.500   6.755
 9525POPC   C3B51141  34.637  30.490   7.055
 9525POPC   C4B51142  34.615  30.415   7.355
 9526POPC   NC351143   8.958   8.219   5.555
 9526POPC   PO451144   8.982   8.201   5.855
 9526POPC   GL151145   9.004   8.229   6.155
 9526POPC   GL251146   8.964   8.316   6.155
 9526POPC   C1A51147   9.013   8.236   6.455
 9526POPC   D2A51148   9.022   8.236   6.755
 9526POPC   C3A51149   9.007   8.218   7.055
 9526POPC   C4A51150   8.997   8.172   7.355
 9526POPC   C1B51151   9.001   8.444   6.455
 9526POPC   C2B51152   8.996   8.445   6.755
 9526POPC   C3B51153   8.958   8.460   7.055
 9526POPC   C4B51154   8.941   8.490   7.355
 9527POPC   NC351155  43.838  15.201   5.555
 9527POPC   PO451156  43.837  15.200   5.855
 9527POPC   GL151157  43.888  15.162   6.155
 9527POPC   GL251158  43.962  15.226   6.155
 9527POPC   C1A51159  43.882  15.170   6.455
 9527POPC   D2A51160  43.873  15.179   6.755
 9527POPC   C3A51161  43.894  15.222   7.055
 9527POPC   C4A51162  43.895  15.173   7.355
 9527POPC   C1B51163  44.113  15.279   6.455
 9527POPC   C2B51164  44.096  15.334   6.755
 9527POPC   C3B51165  44.070  15.288   7.055
 9527POPC   C4B51166  44.121  15.253   7.355
 9528POPC   NC351167  29.919  26.840   5.555
 9528POPC   PO451168  29.916  26.817   5.855
 9528POPC   GL151169  29.953  26.848   6.155
 9528POPC   GL251170  29.796  26.870   6.155
 9528POPC   C1A51171  29.914  26.857   6.455
 9528POPC   D2A51172  29.963  26.781   6.755
 9528POPC   C3A51173  29.880  26.791   7.055
 9528POPC   C4A51174  29.929  26.834   7.355
 9528POPC   C1B51175  29.638  26.855   6.455
 9528POPC   C2B51176  29.624  26.858   6.755
 9528POPC   C3B51177  29.646  26.851   7.055
 9528POPC   C4B51178  29.717  26.839   7.355
 9529POPC   NC351179  13.617  10.555   5.555
 9529POPC   PO451180  13.665  10.495   5.855
 9529POPC   GL151181  13.637  10.546   6.155
 9529POPC   GL251182  13.673  10.384   6.155
 9529POPC   C1A51183  13.595  10.511   6.455
 9529POPC   D2A51184  13.590  10.534   6.755
 9529POPC   C3A51185  13.647  10.478   7.055
 9529POPC   C4A51186  13.605  10.508   7.355
 9529POPC   C1B51187  13.640  10.236   6.455
 9529POPC   C2B51188  13.719  10.280   6.755
 9529POPC   C3B51189  13.660  10.297   7.055
 9529POPC   C4B51190  13.669  10.235   7.355
 9530POPC   NC351191  19.016  23.670   5.555
 9530POPC   PO451192  19.078  23.713   5.855
 9530POPC   GL151193  19.020  23.762   6.155
 9530POPC   GL251194  18.975  23.774   6.155
 9530POPC   C1A51195  19.060  23.749   6.455
 9530POPC   D2A51196  19.073  23.703   6.755
 9530POPC   C3A51197  19.108  23.735   7.055
 9530POPC   C4A51198  19.034  23.756   7.355
 9530POPC   C1B51199  18.865  23.823   6.455
 9530POPC   C2B51200  18.813  23.781   6.755
 9530POPC   C3B51201  18.829  23.815   7.055
 9530POPC   C4B51202  18.825  23.782   7.355
 9531POPC   NC351203  27.586  42.285   5.555
 9531POPC   PO451204  27.557  42.333   5.855
 9531POPC   GL151205  27.642  42.361   6.155
 9531POPC   GL251206  27.553  42.209   6.155
 9531POPC   C1A51207  27.629  42.323   6.455
 9531POPC   D2A51208  27.586  42.354   6.755
 9531POPC   C3A51209  27.625  42.314   7.055
 9531POPC   C4A51210  27.614  42.302   7.355
 9531POPC   C1B51211  27.619  42.096   6.455
 9531POPC   C2B51212  27.570  42.120   6.755
 9531POPC   C3B51213  27.571  42.066   7.055
 9531POPC   C4B51214  27.551  42.131   7.355
 9532POPC   NC351215  19.079   3.506   5.555
 9532POPC   PO451216  19.013   3.519   5.855
 9532POPC   GL151217  19.095   3.501   6.155
 9532POPC   GL251218  19.116   3.414   6.155
 9532POPC   C1A51219  19.054   3.569   6.455
 9532POPC   D2A51220  19.018   3.584   6.755
 9532POPC   C3A51221  19.041   3.531   7.055
 9532POPC   C4A51222  19.063   3.555   7.355
 9532POPC   C1B51223  19.196   3.332   6.455
 9532POPC   C2B51224  19.145   3.286   6.755
 9532POPC   C3B51225  19.168   3.293   7.055
 9532POPC   C4B51226  19.142   3.336   7.355
 9533POPC   NC351227  41.582   2.780   5.555
 9533POPC   PO451228  41.607   2.733   5.855
 9533POPC   GL151229  41.514   2.727   6.155
 9533POPC   GL251230  41.457   2.688   6.155
 9533POPC   C1A51231  41.598   2.791   6.455
 9533POPC   D2A51232  41.568   2.797   6.755
 9533POPC   C3A51233  41.537   2.771   7.055
 9533POPC   C4A51234  41.549   2.735   7.355
 9533POPC   C1B51235  41.317   2.673   6.455
 9533POPC   C2B51236  41.355   2.723   6.755
 9533POPC   C3B51237  41.302   2.712   7.055
 9533POPC   C4B51238  41.336   2.719   7.355
 9534POPC   NC351239  26.011  40.779   5.555
 9534POPC   PO451240  25.999  40.747   5.855
 9534POPC   GL151241  26.016  40.760   6.155
 9534POPC   GL251242  26.072  40.860   6.155
 9534POPC   C1A51243  26.064  40.737   6.455
 9534POPC   D2A51244  26.050  40.778   6.755
 9534POPC   C3A51245  26.019  40.797   7.055
 9534POPC   C4A51246  26.024  40.803   7.355
 9534POPC   C1B51247  26.148  41.046   6.455
 9534POPC   C2B51248  26.071  40.978   6.755
 9534POPC   C3B51249  26.130  40.991   7.055
 9534POPC   C4B51250  26.165  41.067   7.355
 9535POPC   NC351251   7.385  35.306   5.555
 9535POPC   PO451252   7.399  35.322   5.855
 9535POPC   GL151253   7.431  35.386   6.155
 9535POPC   GL251254   7.297  35.390   6.155
 9535POPC   C1A51255   7.419  35.368   6.455
 9535POPC   D2A51256   7.435  35.361   6.755
 9535POPC   C3A51257   7.455  35.358   7.055
 9535POPC   C4A51258   7.469  35.320   7.355
 9535POPC   C1B51259   7.152  35.387   6.455
 9535POPC   C2B51260   7.199  35.466   6.755
 9535POPC   C3B51261   7.196  35.433   7.055
 9535POPC   C4B51262   7.170  35.410   7.355
 9536POPC   NC351263   2.787  43.092   5.555
 9536POPC   PO451264   2.805  43.131   5.855
 9536POPC   GL151265   2.758  43.073   6.155
 9536POPC   GL251266   2.709  43.171   6.155
 9536POPC   C1A51267   2.791  43.128   6.455
 9536POPC   D2A51268   2.752  43.133   6.755
 9536POPC   C3A51269   2.753  43.061   7.055
 9536POPC   C4A51270   2.734  43.095   7.355
 9536POPC   C1B51271   2.589  43.306   6.455
 9536POPC   C2B51272   2.608  43.298   6.755
 9536POPC   C3B51273   2.576  43.291   7.055
 9536POPC   C4B51274   2.620  43.290   7.355
 9537POPC   NC351275  26.074   4.270   5.555
 9537POPC   PO451276  26.038   4.324   5.855
 9537POPC   GL151277  26.039   4.356   6.155
 9537POPC   GL251278  26.160   4.358   6.155
 9537POPC   C1A51279  26.052   4.345   6.455
 9537POPC   D2A51280  26.047   4.272   6.755
 9537POPC   C3A51281  26.016   4.311   7.055
 9537POPC   C4A51282  25.998   4.364   7.355
 9537POPC   C1B51283  26.291   4.354   6.455
 9537POPC   C2B51284  26.236   4.366   6.755
 9537POPC   C3B51285  26.255   4.435   7.055
 9537POPC   C4B51286  26.281   4.397   7.355
 9538POPC   NC351287  29.910  14.397   5.555
 9538POPC   PO451288  29.955  14.389   5.855
 9538POPC   GL151289  29.891  14.412   6.155
 9538POPC   GL251290  30.011  14.298   6.155
 9538POPC   C1A51291  29.887  14.436   6.455
 9538POPC   D2A51292  29.939  14.374   6.755
 9538POPC   C3A51293  29.960  14.453   7.055
 9538POPC   C4A51294  29.899  14.447   7.355
 9538POPC   C1B51295  30.121  14.206   6.455
 9538POPC   C2B51296  30.074  14.178   6.755
 9538POPC   C3B51297  30.121  14.239   7.055
 9538POPC   C4B51298  30.066  14.192   7.355
 9539POPC   NC351299  12.064   2.804   5.555
 9539POPC   PO451300  12.041   2.795   5.855
 9539POPC   GL151301  12.062   2.776   6.155
 9539POPC   GL251302  12.041   2.597   6.155
 9539POPC   C1A51303  12.038   2.810   6.455
 9539POPC   D2A51304  12.076   2.786   6.755
 9539POPC   C3A51305  12.090   2.758   7.055
 9539POPC   C4A51306  12.041   2.721   7.355
 9539POPC   C1B51307  12.038   2.558   6.455
 9539POPC   C2B51308  12.057   2.539   6.755
 9539POPC   C3B51309  12.090   2.524   7.055
 9539POPC   C4B51310  12.025   2.529   7.355
 9540POPC   NC351311  33.002  34.538   5.555
 9540POPC   PO451312  32.995  34.607   5.855
 9540POPC   GL151313  33.004  34.527   6.155
 9540POPC   GL251314  32.961  34.466   6.155
 9540POPC   C1A51315  32.987  34.621   6.455
 9540POPC   D2A51316  32.978  34.593   6.755
 9540POPC   C3A51317  33.053  34.625   7.055
 9540POPC   C4A51318  32.979  34.539   7.355
 9540POPC   C1B51319  32.989  34.294   6.455
 9540POPC   C2B51320  32.906  34.313   6.755
 9540POPC   C3B51321  33.000  34.287   7.055
 9540POPC   C4B51322  32.912  34.301   7.355
 9541POPC   NC351323   0.398   5.074   5.555
 9541POPC   PO451324   0.466   5.105   5.855
 9541POPC   GL151325   0.457   5.071   6.155
 9541POPC   GL251326   0.525   5.033   6.155
 9541POPC   C1A51327   0.415   5.082   6.455
 9541POPC   D2A51328   0.444   5.065   6.755
 9541POPC   C3A51329   0.472   5.118   7.055
 9541POPC   C4A51330   0.447   5.054   7.355
 9541POPC   C1B51331   0.594   4.864   6.455
 9541POPC   C2B51332   0.587   4.899   6.755
 9541POPC   C3B51333   0.617   4.930   7.055
 9541POPC   C4B51334   0.595   4.912   7.355
 9542POPC   NC351335   1.964  10.497   5.555
 9542POPC   PO451336   2.026  10.570   5.855
 9542POPC   GL151337   1.949  10.475   6.155
 9542POPC   GL251338   2.045  10.667   6.155
 9542POPC   C1A51339   1.993  10.501   6.455
 9542POPC   D2A51340   1.993  10.480   6.755
 9542POPC   C3A51341   1.957  10.534   7.055
 9542POPC   C4A51342   2.007  10.491   7.355
 9542POPC   C1B51343   2.131  10.786   6.455
 9542POPC   C2B51344   2.041  10.798   6.755
 9542POPC   C3B51345   2.079  10.713   7.055
 9542POPC   C4B51346   2.085  10.718   7.355
 9543POPC   NC351347  31.424  21.350   5.555
 9543POPC   PO451348  31.434  21.415   5.855
 9543POPC   GL151349  31.465  21.401   6.155
 9543POPC   GL251350  31.393  21.411   6.155
 9543POPC   C1A51351  31.507  21.405   6.455
 9543POPC   D2A51352  31.488  21.424   6.755
 9543POPC   C3A51353  31.504  21.404   7.055
 9543POPC   C4A51354  31.448  21.353   7.355
 9543POPC   C1B51355  31.320  21.500   6.455
 9543POPC   C2B51356  31.233  21.517   6.755
 9543POPC   C3B51357  31.299  21.526   7.055
 9543POPC   C4B51358  31.243  21.485   7.355
 9544POPC   NC351359  44.672  22.922   5.555
 9544POPC   PO451360  44.645  22.956   5.855
 9544POPC   GL151361  44.626  22.928   6.155
 9544POPC   GL251362  44.642  22.852   6.155
 9544POPC   C1A51363  44.680  22.938   6.455
 9544POPC   D2A51364  44.693  22.957   6.755
 9544POPC   C3A51365  44.665  22.976   7.055
 9544POPC   C4A51366  44.652  22.965   7.355
 9544POPC   C1B51367  44.599  22.683   6.455
 9544POPC   C2B51368  44.551  22.680   6.755
 9544POPC   C3B51369  44.612  22.704   7.055
 9544POPC   C4B51370  44.616  22.668   7.355
 9545POPC   NC351371   2.037  18.249   5.555
 9545POPC   PO451372   1.992  18.283   5.855
 9545POPC   GL151373   2.024  18.308   6.155
 9545POPC   GL251374   1.972  18.133   6.155
 9545POPC   C1A51375   1.945  18.312   6.455
 9545POPC   D2A51376   1.975  18.246   6.755
 9545POPC   C3A51377   1.952  18.322   7.055
 9545POPC   C4A51378   1.993  18.238   7.355
 9545POPC   C1B51379   1.954  18.041   6.455
 9545POPC   C2B51380   1.952  17.995   6.755
 9545POPC   C3B51381   1.941  18.006   7.055
 9545POPC   C4B51382   1.972  18.000   7.355
 9546POPC   NC351383  29.127  10.535   5.555
 9546POPC   PO451384  29.179  10.541   5.855
 9546POPC   GL151385  29.189  10.568   6.155
 9546POPC   GL251386  29.198  10.427   6.155
 9546POPC   C1A51387  29.153  10.520   6.455
 9546POPC   D2A51388  29.130  10.493   6.755
 9546POPC   C3A51389  29.161  10.574   7.055
 9546POPC   C4A51390  29.190  10.535   7.355
 9546POPC   C1B51391  29.255  10.334   6.455
 9546POPC   C2B51392  29.206  10.274   6.755
 9546POPC   C3B51393  29.253  10.304   7.055
 9546POPC   C4B51394  29.187  10.260   7.355
 9547POPC   NC351395  40.746  19.097   5.555
 9547POPC   PO451396  40.753  19.041   5.855
 9547POPC   GL151397  40.822  19.039   6.155
 9547POPC   GL251398  40.865  19.090   6.155
 9547POPC   C1A51399  40.774  19.096   6.455
 9547POPC   D2A51400  40.747  19.091   6.755
 9547POPC   C3A51401  40.828  19.056   7.055
 9547POPC   C4A51402  40.822  19.015   7.355
 9547POPC   C1B51403  40.991  19.183   6.455
 9547POPC   C2B51404  41.040  19.136   6.755
 9547POPC   C3B51405  41.038  19.205   7.055
 9547POPC   C4B51406  41.017  19.153   7.355
 9548POPC   NC351407   5.108  43.085   5.555
 9548POPC   PO451408   5.091  43.067   5.855
 9548POPC   GL151409   5.127  43.108   6.155
 9548POPC   GL251410   5.184  43.207   6.155
 9548POPC   C1A51411   5.136  43.133   6.455
 9548POPC   D2A51412   5.102  43.134   6.755
 9548POPC   C3A51413   5.055  43.111   7.055
 9548POPC   C4A51414   5.116  43.068   7.355
 9548POPC   C1B51415   5.206  43.343   6.455
 9548POPC   C2B51416   5.153  43.315   6.755
 9548POPC   C3B51417   5.230  43.346   7.055
 9548POPC   C4B51418   5.163  43.366   7.355
 9549POPC   NC351419  26.841   6.669   5.555
 9549POPC   PO451420  26.863   6.680   5.855
 9549POPC   GL151421  26.806   6.596   6.155
 9549POPC   GL251422  26.675   6.680   6.155
 9549POPC   C1A51423  26.810   6.682   6.455
 9549POPC   D2A51424  26.855   6.615   6.755
 9549POPC   C3A51425  26.787   6.653   7.055
 9549POPC   C4A51426  26.822   6.613   7.355
 9549POPC   C1B51427  26.618   6.814   6.455
 9549POPC   C2B51428  26.650   6.825   6.755
 9549POPC   C3B51429  26.656   6.807   7.055
 9549POPC   C4B51430  26.649   6.815   7.355
 9550POPC   NC351431  29.892  42.368   5.555
 9550POPC   PO451432  29.878  42.296   5.855
 9550POPC   GL151433  29.922  42.322   6.155
 9550POPC   GL251434  30.064  42.328   6.155
 9550POPC   C1A51435  29.969  42.312   6.455
 9550POPC   D2A51436  29.877  42.294   6.755
 9550POPC   C3A51437  29.966  42.320   7.055
 9550POPC   C4A51438  29.948  42.371   7.355
 9550POPC   C1B51439  30.213  42.404   6.455
 9550POPC   C2B51440  30.127  42.374   6.755
 9550POPC   C3B51441  30.143  42.376   7.055
 9550POPC   C4B51442  30.160  42.356   7.355
 9551POPC   NC351443  29.170  14.422   5.555
 9551POPC   PO451444  29.192  14.400   5.855
 9551POPC   GL151445  29.192  14.379   6.155
 9551POPC   GL251446  29.220  14.491   6.155
 9551POPC   C1A51447  29.117  14.374   6.455
 9551POPC   D2A51448  29.100  14.427   6.755
 9551POPC   C3A51449  29.119  14.358   7.055
 9551POPC   C4A51450  29.139  14.400   7.355
 9551POPC   C1B51451  29.364  14.490   6.455
 9551POPC   C2B51452  29.327  14.536   6.755
 9551POPC   C3B51453  29.393  14.493   7.055
 9551POPC   C4B51454  29.368  14.480   7.355
 9552POPC   NC351455  26.785  14.403   5.555
 9552POPC   PO451456  26.813  14.439   5.855
 9552POPC   GL151457  26.823  14.445   6.155
 9552POPC   GL251458  26.842  14.556   6.155
 9552POPC   C1A51459  26.857  14.420   6.455
 9552POPC   D2A51460  26.807  14.367   6.755
 9552POPC   C3A51461  26.825  14.361   7.055
 9552POPC   C4A51462  26.806  14.370   7.355
 9552POPC   C1B51463  26.919  14.610   6.455
 9552POPC   C2B51464  26.921  14.601   6.755
 9552POPC   C3B51465  26.915  14.648   7.055
 9552POPC   C4B51466  26.921  14.629   7.355
 9553POPC   NC351467  14.406  39.267   5.555
 9553POPC   PO451468  14.442  39.188   5.855
 9553POPC   GL151469  14.437  39.277   6.155
 9553POPC   GL251470  14.500  39.144   6.155
 9553POPC   C1A51471  14.370  39.184   6.455
 9553POPC   D2A51472  14.361  39.230   6.755
 9553POPC   C3A51473  14.364  39.262   7.055
 9553POPC   C4A51474  14.409  39.270   7.355
 9553POPC   C1B51475  14.650  39.100   6.455
 9553POPC   C2B51476  14.661  39.109   6.755
 9553POPC   C3B51477  14.582  39.061   7.055
 9553POPC   C4B51478  14.595  39.087   7.355
 9554POPC   NC351479   7.421  38.502   5.555
 9554POPC   PO451480   7.379  38.479   5.855
 9554POPC   GL151481   7.429  38.407   6.155
 9554POPC   GL251482   7.305  38.533   6.155
 9554POPC   C1A51483   7.459  38.488   6.455
 9554POPC   D2A51484   7.415  38.492   6.755
 9554POPC   C3A51485   7.430  38.419   7.055
 9554POPC   C4A51486   7.460  38.484   7.355
 9554POPC   C1B51487   7.290  38.707   6.455
 9554POPC   C2B51488   7.229  38.631   6.755
 9554POPC   C3B51489   7.234  38.668   7.055
 9554POPC   C4B51490   7.300  38.706   7.355
 9555POPC   NC351491   5.881  10.532   5.555
 9555POPC   PO451492   5.829  10.566   5.855
 9555POPC   GL151493   5.872  10.480   6.155
 9555POPC   GL251494   5.955  10.408   6.155
 9555POPC   C1A51495   5.856  10.495   6.455
 9555POPC   D2A51496   5.900  10.551   6.755
 9555POPC   C3A51497   5.848  10.485   7.055
 9555POPC   C4A51498   5.887  10.512   7.355
 9555POPC   C1B51499   5.912  10.272   6.455
 9555POPC   C2B51500   5.912  10.276   6.755
 9555POPC   C3B51501   5.974  10.311   7.055
 9555POPC   C4B51502   5.949  10.286   7.355
 9556POPC   NC351503  23.686  42.354   5.555
 9556POPC   PO451504  23.728  42.347   5.855
 9556POPC   GL151505  23.696  42.350   6.155
 9556POPC   GL251506  23.596  42.335   6.155
 9556POPC   C1A51507  23.753  42.356   6.455
 9556POPC   D2A51508  23.675  42.312   6.755
 9556POPC   C3A51509  23.726  42.374   7.055
 9556POPC   C4A51510  23.673  42.370   7.355
 9556POPC   C1B51511  23.436  42.236   6.455
 9556POPC   C2B51512  23.462  42.298   6.755
 9556POPC   C3B51513  23.469  42.310   7.055
 9556POPC   C4B51514  23.493  42.298   7.355
 9557POPC   NC351515  39.258  35.381   5.555
 9557POPC   PO451516  39.263  35.323   5.855
 9557POPC   GL151517  39.251  35.380   6.155
 9557POPC   GL251518  39.339  35.336   6.155
 9557POPC   C1A51519  39.195  35.372   6.455
 9557POPC   D2A51520  39.195  35.356   6.755
 9557POPC   C3A51521  39.271  35.399   7.055
 9557POPC   C4A51522  39.212  35.361   7.355
 9557POPC   C1B51523  39.447  35.294   6.455
 9557POPC   C2B51524  39.495  35.365   6.755
 9557POPC   C3B51525  39.457  35.320   7.055
 9557POPC   C4B51526  39.515  35.350   7.355
 9558POPC   NC351527  30.680   4.271   5.555
 9558POPC   PO451528  30.726   4.283   5.855
 9558POPC   GL151529  30.721   4.363   6.155
 9558POPC   GL251530  30.637   4.257   6.155
 9558POPC   C1A51531  30.651   4.273   6.455
 9558POPC   D2A51532  30.704   4.277   6.755
 9558POPC   C3A51533  30.690   4.286   7.055
 9558POPC   C4A51534  30.682   4.362   7.355
 9558POPC   C1B51535  30.510   4.166   6.455
 9558POPC   C2B51536  30.528   4.134   6.755
 9558POPC   C3B51537  30.511   4.155   7.055
 9558POPC   C4B51538  30.500   4.165   7.355
 9559POPC   NC351539   1.177  27.557   5.555
 9559POPC   PO451540   1.234  27.555   5.855
 9559POPC   GL151541   1.185  27.564   6.155
 9559POPC   GL251542   1.125  27.426   6.155
 9559POPC   C1A51543   1.243  27.599   6.455
 9559POPC   D2A51544   1.203  27.639   6.755
 9559POPC   C3A51545   1.219  27.578   7.055
 9559POPC   C4A51546   1.244  27.574   7.355
 9559POPC   C1B51547   1.130  27.387   6.455
 9559POPC   C2B51548   1.094  27.358   6.755
 9559POPC   C3B51549   1.089  27.396   7.055
 9559POPC   C4B51550   1.115  27.316   7.355
 9560POPC   NC351551   5.080  12.816   5.555
 9560POPC   PO451552   5.071  12.823   5.855
 9560POPC   GL151553   5.064  12.820   6.155
 9560POPC   GL251554   4.971  12.774   6.155
 9560POPC   C1A51555   5.118  12.857   6.455
 9560POPC   D2A51556   5.048  12.877   6.755
 9560POPC   C3A51557   5.055  12.820   7.055
 9560POPC   C4A51558   5.048  12.809   7.355
 9560POPC   C1B51559   4.951  12.653   6.455
 9560POPC   C2B51560   4.888  12.645   6.755
 9560POPC   C3B51561   4.938  12.628   7.055
 9560POPC   C4B51562   4.937  12.655   7.355
 9561POPC   NC351563  24.512  22.954   5.555
 9561POPC   PO451564  24.441  22.912   5.855
 9561POPC   GL151565  24.463  22.946   6.155
 9561POPC   GL251566  24.327  22.998   6.155
 9561POPC   C1A51567  24.457  22.950   6.455
 9561POPC   D2A51568  24.462  22.948   6.755
 9561POPC   C3A51569  24.534  22.958   7.055
 9561POPC   C4A51570  24.445  22.983   7.355
 9561POPC   C1B51571  24.235  22.980   6.455
 9561POPC   C2B51572  24.259  23.053   6.755
 9561POPC   C3B51573  24.245  23.002   7.055
 9561POPC   C4B51574  24.249  22.996   7.355
 9562POPC   NC351575  44.644  13.590   5.555
 9562POPC   PO451576  44.619  13.607   5.855
 9562POPC   GL151577  44.630  13.619   6.155
 9562POPC   GL251578  44.579  13.633   6.155
 9562POPC   C1A51579  44.650  13.670   6.455
 9562POPC   D2A51580  44.656  13.669   6.755
 9562POPC   C3A51581  44.655  13.600   7.055
 9562POPC   C4A51582  44.633  13.649   7.355
 9562POPC   C1B51583  44.453  13.644   6.455
 9562POPC   C2B51584  44.404  13.616   6.755
 9562POPC   C3B51585  44.424  13.557   7.055
 9562POPC   C4B51586  44.396  13.567   7.355
 9563POPC   NC351587  44.668  19.040   5.555
 9563POPC   PO451588  44.667  19.093   5.855
 9563POPC   GL151589  44.643  19.088   6.155
 9563POPC   GL251590  44.651  19.162   6.155
 9563POPC   C1A51591  44.634  19.072   6.455
 9563POPC   D2A51592  44.698  19.035   6.755
 9563POPC   C3A51593  44.631  19.073   7.055
 9563POPC   C4A51594  44.622  19.073   7.355
 9563POPC   C1B51595  44.574  19.347   6.455
 9563POPC   C2B51596  44.597  19.339   6.755
 9563POPC   C3B51597  44.577  19.267   7.055
 9563POPC   C4B51598  44.625  19.333   7.355
 9564POPC   NC351599  43.095  12.065   5.555
 9564POPC   PO451600  43.063  12.067   5.855
 9564POPC   GL151601  43.102  12.116   6.155
 9564POPC   GL251602  43.099  12.182   6.155
 9564POPC   C1A51603  43.066  12.037   6.455
 9564POPC   D2A51604  43.101  12.109   6.755
 9564POPC   C3A51605  43.150  12.093   7.055
 9564POPC   C4A51606  43.099  12.101   7.355
 9564POPC   C1B51607  43.006  12.312   6.455
 9564POPC   C2B51608  43.035  12.292   6.755
 9564POPC   C3B51609  42.984  12.295   7.055
 9564POPC   C4B51610  42.950  12.296   7.355
 9565POPC   NC351611  26.863   0.410   5.555
 9565POPC   PO451612  26.778   0.482   5.855
 9565POPC   GL151613  26.816   0.481   6.155
 9565POPC   GL251614  26.893   0.456   6.155
 9565POPC   C1A51615  26.781   0.416   6.455
 9565POPC   D2A51616  26.824   0.480   6.755
 9565POPC   C3A51617  26.839   0.470   7.055
 9565POPC   C4A51618  26.817   0.477   7.355
 9565POPC   C1B51619  27.050   0.362   6.455
 9565POPC   C2B51620  27.110   0.346   6.755
 9565POPC   C3B51621  27.034   0.334   7.055
 9565POPC   C4B51622  27.047   0.376   7.355
 9566POPC   NC351623  41.567   9.018   5.555
 9566POPC   PO451624  41.590   8.964   5.855
 9566POPC   GL151625  41.538   8.983   6.155
 9566POPC   GL251626  41.655   9.089   6.155
 9566POPC   C1A51627  41.588   9.001   6.455
 9566POPC   D2A51628  41.572   8.931   6.755
 9566POPC   C3A51629  41.568   8.950   7.055
 9566POPC   C4A51630  41.529   8.923   7.355
 9566POPC   C1B51631  41.673   9.167   6.455
 9566POPC   C2B51632  41.699   9.192   6.755
 9566POPC   C3B51633  41.680   9.199   7.055
 9566POPC   C4B51634  41.734   9.177   7.355
 9567POPC   NC351635  36.904  36.923   5.555
 9567POPC   PO451636  36.916  36.895   5.855
 9567POPC   GL151637  36.932  36.872   6.155
 9567POPC   GL251638  37.014  36.775   6.155
 9567POPC   C1A51639  36.895  36.866   6.455
 9567POPC   D2A51640  36.887  36.952   6.755
 9567POPC   C3A51641  36.858  36.865   7.055
 9567POPC   C4A51642  36.931  36.896   7.355
 9567POPC   C1B51643  37.130  36.702   6.455
 9567POPC   C2B51644  37.083  36.679   6.755
 9567POPC   C3B51645  37.046  36.774   7.055
 9567POPC   C4B51646  37.076  36.740   7.355
 9568POPC   NC351647  12.807  23.704   5.555
 9568POPC   PO451648  12.853  23.705   5.855
 9568POPC   GL151649  12.862  23.744   6.155
 9568POPC   GL251650  12.856  23.636   6.155
 9568POPC   C1A51651  12.887  23.757   6.455
 9568POPC   D2A51652  12.858  23.742   6.755
 9568POPC   C3A51653  12.837  23.706   7.055
 9568POPC   C4A51654  12.841  23.736   7.355
 9568POPC   C1B51655  12.932  23.444   6.455
 9568POPC   C2B51656  12.920  23.436   6.755
 9568POPC   C3B51657  12.929  23.484   7.055
 9568POPC   C4B51658  12.908  23.507   7.355
 9569POPC   NC351659   5.856  35.322   5.555
 9569POPC   PO451660   5.890  35.375   5.855
 9569POPC   GL151661   5.856  35.336   6.155
 9569POPC   GL251662   5.921  35.489   6.155
 9569POPC   C1A51663   5.913  35.344   6.455
 9569POPC   D2A51664   5.918  35.334   6.755
 9569POPC   C3A51665   5.832  35.315   7.055
 9569POPC   C4A51666   5.860  35.312   7.355
 9569POPC   C1B51667   5.926  35.632   6.455
 9569POPC   C2B51668   5.896  35.604   6.755
 9569POPC   C3B51669   5.907  35.554   7.055
 9569POPC   C4B51670   5.883  35.601   7.355
 9570POPC   NC351671  42.380   7.461   5.555
 9570POPC   PO451672  42.304   7.449   5.855
 9570POPC   GL151673  42.367   7.460   6.155
 9570POPC   GL251674  42.457   7.551   6.155
 9570POPC   C1A51675  42.298   7.438   6.455
 9570POPC   D2A51676  42.320   7.448   6.755
 9570POPC   C3A51677  42.375   7.456   7.055
 9570POPC   C4A51678  42.368   7.391   7.355
 9570POPC   C1B51679  42.515   7.569   6.455
 9570POPC   C2B51680  42.524   7.594   6.755
 9570POPC   C3B51681  42.544   7.556   7.055
 9570POPC   C4B51682  42.554   7.611   7.355
 9571POPC   NC351683  43.107  32.255   5.555
 9571POPC   PO451684  43.128  32.242   5.855
 9571POPC   GL151685  43.144  32.281   6.155
 9571POPC   GL251686  43.015  32.298   6.155
 9571POPC   C1A51687  43.103  32.209   6.455
 9571POPC   D2A51688  43.156  32.236   6.755
 9571POPC   C3A51689  43.090  32.219   7.055
 9571POPC   C4A51690  43.144  32.283   7.355
 9571POPC   C1B51691  42.917  32.466   6.455
 9571POPC   C2B51692  42.968  32.399   6.755
 9571POPC   C3B51693  42.973  32.422   7.055
 9571POPC   C4B51694  42.953  32.395   7.355
 9572POPC   NC351695  19.100  33.035   5.555
 9572POPC   PO451696  19.044  33.003   5.855
 9572POPC   GL151697  19.093  32.975   6.155
 9572POPC   GL251698  18.973  33.157   6.155
 9572POPC   C1A51699  19.055  33.019   6.455
 9572POPC   D2A51700  19.062  32.991   6.755
 9572POPC   C3A51701  19.061  32.984   7.055
 9572POPC   C4A51702  19.102  33.072   7.355
 9572POPC   C1B51703  18.952  33.282   6.455
 9572POPC   C2B51704  18.953  33.251   6.755
 9572POPC   C3B51705  18.944  33.300   7.055
 9572POPC   C4B51706  18.989  33.229   7.355
 9573POPC   NC351707  44.663  24.469   5.555
 9573POPC   PO451708  44.615  24.487   5.855
 9573POPC   GL151709  44.643  24.447   6.155
 9573POPC   GL251710  44.723  24.560   6.155
 9573POPC   C1A51711  44.707  24.512   6.455
 9573POPC   D2A51712  44.699  24.516   6.755
 9573POPC   C3A51713  44.706  24.516   7.055
 9573POPC   C4A51714  44.667  24.455   7.355
 9573POPC   C1B51715  44.760  24.660   6.455
 9573POPC   C2B51716  44.823  24.737   6.755
 9573POPC   C3B51717  44.752  24.743   7.055
 9573POPC   C4B51718  44.790  24.694   7.355
 9574POPC   NC351719   6.607  33.029   5.555
 9574POPC   PO451720   6.617  32.999   5.855
 9574POPC   GL151721   6.694  33.058   6.155
 9574POPC   GL251722   6.656  32.858   6.155
 9574POPC   C1A51723   6.658  32.982   6.455
 9574POPC   D2A51724   6.675  33.054   6.755
 9574POPC   C3A51725   6.654  33.046   7.055
 9574POPC   C4A51726   6.682  33.040   7.355
 9574POPC   C1B51727   6.632  32.824   6.455
 9574POPC   C2B51728   6.635  32.798   6.755
 9574POPC   C3B51729   6.620  32.740   7.055
 9574POPC   C4B51730   6.590  32.768   7.355
 9575POPC   NC351731   2.764  33.825   5.555
 9575POPC   PO451732   2.755  33.778   5.855
 9575POPC   GL151733   2.718  33.814   6.155
 9575POPC   GL251734   2.686  33.736   6.155
 9575POPC   C1A51735   2.777  33.848   6.455
 9575POPC   D2A51736   2.772  33.779   6.755
 9575POPC   C3A51737   2.719  33.811   7.055
 9575POPC   C4A51738   2.723  33.776   7.355
 9575POPC   C1B51739   2.627  33.566   6.455
 9575POPC   C2B51740   2.605  33.610   6.755
 9575POPC   C3B51741   2.591  33.623   7.055
 9575POPC   C4B51742   2.638  33.659   7.355
 9576POPC   NC351743   8.186   9.753   5.555
 9576POPC   PO451744   8.211   9.719   5.855
 9576POPC   GL151745   8.239   9.731   6.155
 9576POPC   GL251746   8.338   9.782   6.155
 9576POPC   C1A51747   8.217   9.722   6.455
 9576POPC   D2A51748   8.194   9.795   6.755
 9576POPC   C3A51749   8.214   9.768   7.055
 9576POPC   C4A51750   8.197   9.707   7.355
 9576POPC   C1B51751   8.461   9.821   6.455
 9576POPC   C2B51752   8.440   9.848   6.755
 9576POPC   C3B51753   8.474   9.851   7.055
 9576POPC   C4B51754   8.435   9.776   7.355
 9577POPC   NC351755  37.674  24.463   5.555
 9577POPC   PO451756  37.644  24.506   5.855
 9577POPC   GL151757  37.706  24.534   6.155
 9577POPC   GL251758  37.590  24.624   6.155
 9577POPC   C1A51759  37.710  24.455   6.455
 9577POPC   D2A51760  37.719  24.463   6.755
 9577POPC   C3A51761  37.717  24.528   7.055
 9577POPC   C4A51762  37.674  24.517   7.355
 9577POPC   C1B51763  37.514  24.714   6.455
 9577POPC   C2B51764  37.484  24.641   6.755
 9577POPC   C3B51765  37.533  24.631   7.055
 9577POPC   C4B51766  37.492  24.667   7.355
 9578POPC   NC351767  15.136   8.189   5.555
 9578POPC   PO451768  15.195   8.187   5.855
 9578POPC   GL151769  15.139   8.180   6.155
 9578POPC   GL251770  15.027   8.224   6.155
 9578POPC   C1A51771  15.162   8.175   6.455
 9578POPC   D2A51772  15.200   8.219   6.755
 9578POPC   C3A51773  15.189   8.234   7.055
 9578POPC   C4A51774  15.198   8.184   7.355
 9578POPC   C1B51775  14.909   8.328   6.455
 9578POPC   C2B51776  14.960   8.249   6.755
 9578POPC   C3B51777  14.941   8.309   7.055
 9578POPC   C4B51778  14.979   8.307   7.355
 9579POPC   NC351779   1.257  21.421   5.555
 9579POPC   PO451780   1.237  21.348   5.855
 9579POPC   GL151781   1.212  21.418   6.155
 9579POPC   GL251782   1.122  21.484   6.155
 9579POPC   C1A51783   1.169  21.384   6.455
 9579POPC   D2A51784   1.262  21.399   6.755
 9579POPC   C3A51785   1.187  21.424   7.055
 9579POPC   C4A51786   1.226  21.391   7.355
 9579POPC   C1B51787   0.959  21.463   6.455
 9579POPC   C2B51788   1.044  21.546   6.755
 9579POPC   C3B51789   0.962  21.503   7.055
 9579POPC   C4B51790   0.955  21.493   7.355
 9580POPC   NC351791  15.194  12.901   5.555
 9580POPC   PO451792  15.227  12.854   5.855
 9580POPC   GL151793  15.206  12.817   6.155
 9580POPC   GL251794  15.064  12.754   6.155
 9580POPC   C1A51795  15.137  12.855   6.455
 9580POPC   D2A51796  15.176  12.804   6.755
 9580POPC   C3A51797  15.134  12.854   7.055
 9580POPC   C4A51798  15.207  12.804   7.355
 9580POPC   C1B51799  15.045  12.670   6.455
 9580POPC   C2B51800  15.041  12.648   6.755
 9580POPC   C3B51801  15.003  12.622   7.055
 9580POPC   C4B51802  15.052  12.598   7.355
 9581POPC   NC351803  29.904  31.464   5.555
 9581POPC   PO451804  29.952  31.515   5.855
 9581POPC   GL151805  29.933  31.491   6.155
 9581POPC   GL251806  29.803  31.428   6.155
 9581POPC   C1A51807  29.929  31.440   6.455
 9581POPC   D2A51808  29.965  31.485   6.755
 9581POPC   C3A51809  29.931  31.490   7.055
 9581POPC   C4A51810  29.902  31.430   7.355
 9581POPC   C1B51811  29.768  31.260   6.455
 9581POPC   C2B51812  29.737  31.280   6.755
 9581POPC   C3B51813  29.748  31.242   7.055
 9581POPC   C4B51814  29.758  31.285   7.355
 9582POPC   NC351815   2.720  21.348   5.555
 9582POPC   PO451816   2.755  21.372   5.855
 9582POPC   GL151817   2.811  21.405   6.155
 9582POPC   GL251818   2.877  21.456   6.155
 9582POPC   C1A51819   2.764  21.372   6.455
 9582POPC   D2A51820   2.754  21.339   6.755
 9582POPC   C3A51821   2.736  21.386   7.055
 9582POPC   C4A51822   2.784  21.343   7.355
 9582POPC   C1B51823   3.051  21.397   6.455
 9582POPC   C2B51824   3.045  21.432   6.755
 9582POPC   C3B51825   3.001  21.435   7.055
 9582POPC   C4B51826   3.011  21.406   7.355
 9583POPC   NC351827  20.630  15.927   5.555
 9583POPC   PO451828  20.611  15.926   5.855
 9583POPC   GL151829  20.635  15.946   6.155
 9583POPC   GL251830  20.728  16.007   6.155
 9583POPC   C1A51831  20.625  15.994   6.455
 9583POPC   D2A51832  20.635  15.932   6.755
 9583POPC   C3A51833  20.635  15.963   7.055
 9583POPC   C4A51834  20.566  15.951   7.355
 9583POPC   C1B51835  20.836  16.136   6.455
 9583POPC   C2B51836  20.819  16.098   6.755
 9583POPC   C3B51837  20.801  16.135   7.055
 9583POPC   C4B51838  20.818  16.131   7.355
 9584POPC   NC351839  12.811   1.971   5.555
 9584POPC   PO451840  12.808   1.955   5.855
 9584POPC   GL151841  12.884   2.024   6.155
 9584POPC   GL251842  12.861   1.876   6.155
 9584POPC   C1A51843  12.850   1.952   6.455
 9584POPC   D2A51844  12.882   1.940   6.755
 9584POPC   C3A51845  12.854   1.993   7.055
 9584POPC   C4A51846  12.856   1.969   7.355
 9584POPC   C1B51847  12.874   1.700   6.455
 9584POPC   C2B51848  12.801   1.778   6.755
 9584POPC   C3B51849  12.856   1.750   7.055
 9584POPC   C4B51850  12.854   1.697   7.355
 9585POPC   NC351851  26.801  27.616   5.555
 9585POPC   PO451852  26.803  27.636   5.855
 9585POPC   GL151853  26.844  27.548   6.155
 9585POPC   GL251854  26.848  27.693   6.155
 9585POPC   C1A51855  26.795  27.588   6.455
 9585POPC   D2A51856  26.866  27.630   6.755
 9585POPC   C3A51857  26.822  27.575   7.055
 9585POPC   C4A51858  26.831  27.581   7.355
 9585POPC   C1B51859  26.774  27.892   6.455
 9585POPC   C2B51860  26.797  27.872   6.755
 9585POPC   C3B51861  26.775  27.889   7.055
 9585POPC   C4B51862  26.811  27.832   7.355
 9586POPC   NC351863  30.715  30.698   5.555
 9586POPC   PO451864  30.685  30.681   5.855
 9586POPC   GL151865  30.740  30.690   6.155
 9586POPC   GL251866  30.786  30.648   6.155
 9586POPC   C1A51867  30.730  30.723   6.455
 9586POPC   D2A51868  30.731  30.648   6.755
 9586POPC   C3A51869  30.650  30.674   7.055
 9586POPC   C4A51870  30.722  30.702   7.355
 9586POPC   C1B51871  30.983  30.685   6.455
 9586POPC   C2B51872  30.991  30.727   6.755
 9586POPC   C3B51873  30.967  30.702   7.055
 9586POPC   C4B51874  30.975  30.664   7.355
 9587POPC   NC351875  11.262  41.550   5.555
 9587POPC   PO451876  11.347  41.520   5.855
 9587POPC   GL151877  11.285  41.543   6.155
 9587POPC   GL251878  11.388  41.455   6.155
 9587POPC   C1A51879  11.335  41.534   6.455
 9587POPC   D2A51880  11.327  41.604   6.755
 9587POPC   C3A51881  11.297  41.524   7.055
 9587POPC   C4A51882  11.345  41.595   7.355
 9587POPC   C1B51883  11.441  41.305   6.455
 9587POPC   C2B51884  11.440  41.316   6.755
 9587POPC   C3B51885  11.416  41.386   7.055
 9587POPC   C4B51886  11.482  41.361   7.355
 9588POPC   NC351887  20.584  18.265   5.555
 9588POPC   PO451888  20.593  18.252   5.855
 9588POPC   GL151889  20.624  18.288   6.155
 9588POPC   GL251890  20.603  18.379   6.155
 9588POPC   C1A51891  20.621  18.286   6.455
 9588POPC   D2A51892  20.631  18.263   6.755
 9588POPC   C3A51893  20.611  18.328   7.055
 9588POPC   C4A51894  20.593  18.299   7.355
 9588POPC   C1B51895  20.602  18.477   6.455
 9588POPC   C2B51896  20.571  18.556   6.755
 9588POPC   C3B51897  20.575  18.480   7.055
 9588POPC   C4B51898  20.578  18.549   7.355
 9589POPC   NC351899  44.708  23.757   5.555
 9589POPC   PO451900  44.688  23.724   5.855
 9589POPC   GL151901  44.706  23.738   6.155
 9589POPC   GL251902  44.672  23.825   6.155
 9589POPC   C1A51903  44.657  23.699   6.455
 9589POPC   D2A51904  44.640  23.718   6.755
 9589POPC   C3A51905  44.695  23.666   7.055
 9589POPC   C4A51906  44.704  23.737   7.355
 9589POPC   C1B51907  44.767  23.955   6.455
 9589POPC   C2B51908  44.695  23.911   6.755
 9589POPC   C3B51909  44.741  23.920   7.055
 9589POPC   C4B51910  44.771  23.973   7.355
 9590POPC   NC351911   6.647  10.491   5.555
 9590POPC   PO451912   6.633  10.535   5.855
 9590POPC   GL151913   6.606  10.530   6.155
 9590POPC   GL251914   6.578  10.595   6.155
 9590POPC   C1A51915   6.680  10.567   6.455
 9590POPC   D2A51916   6.627  10.516   6.755
 9590POPC   C3A51917   6.621  10.501   7.055
 9590POPC   C4A51918   6.663  10.512   7.355
 9590POPC   C1B51919   6.533  10.769   6.455
 9590POPC   C2B51920   6.482  10.722   6.755
 9590POPC   C3B51921   6.540  10.728   7.055
 9590POPC   C4B51922   6.542  10.745   7.355
 9591POPC   NC351923  33.064   5.079   5.555
 9591POPC   PO451924  32.994   5.077   5.855
 9591POPC   GL151925  33.071   5.093   6.155
 9591POPC   GL251926  33.180   5.063   6.155
 9591POPC   C1A51927  32.987   5.073   6.455
 9591POPC   D2A51928  33.042   5.140   6.755
 9591POPC   C3A51929  33.020   5.143   7.055
 9591POPC   C4A51930  33.059   5.143   7.355
 9591POPC   C1B51931  33.255   5.065   6.455
 9591POPC   C2B51932  33.267   4.982   6.755
 9591POPC   C3B51933  33.281   4.981   7.055
 9591POPC   C4B51934  33.247   5.010   7.355
 9592POPC   NC351935   6.679  39.268   5.555
 9592POPC   PO451936   6.633  39.225   5.855
 9592POPC   GL151937   6.694  39.239   6.155
 9592POPC   GL251938   6.783  39.301   6.155
 9592POPC   C1A51939   6.689  39.270   6.455
 9592POPC   D2A51940   6.683  39.192   6.755
 9592POPC   C3A51941   6.627  39.198   7.055
 9592POPC   C4A51942   6.598  39.242   7.355
 9592POPC   C1B51943   6.899  39.330   6.455
 9592POPC   C2B51944   6.847  39.414   6.755
 9592POPC   C3B51945   6.851  39.391   7.055
 9592POPC   C4B51946   6.816  39.374   7.355
 9593POPC   NC351947   9.013  35.364   5.555
 9593POPC   PO451948   9.012  35.374   5.855
 9593POPC   GL151949   8.926  35.390   6.155
 9593POPC   GL251950   8.876  35.278   6.155
 9593POPC   C1A51951   8.925  35.316   6.455
 9593POPC   D2A51952   8.952  35.372   6.755
 9593POPC   C3A51953   8.947  35.323   7.055
 9593POPC   C4A51954   8.960  35.340   7.355
 9593POPC   C1B51955   8.758  35.231   6.455
 9593POPC   C2B51956   8.695  35.237   6.755
 9593POPC   C3B51957   8.759  35.273   7.055
 9593POPC   C4B51958   8.739  35.229   7.355
 9594POPC   NC351959  15.177  22.929   5.555
 9594POPC   PO451960  15.192  22.950   5.855
 9594POPC   GL151961  15.198  22.932   6.155
 9594POPC   GL251962  15.265  23.002   6.155
 9594POPC   C1A51963  15.140  22.906   6.455
 9594POPC   D2A51964  15.185  22.981   6.755
 9594POPC   C3A51965  15.146  22.917   7.055
 9594POPC   C4A51966  15.151  22.903   7.355
 9594POPC   C1B51967  15.348  23.040   6.455
 9594POPC   C2B51968  15.414  23.090   6.755
 9594POPC   C3B51969  15.430  23.043   7.055
 9594POPC   C4B51970  15.447  23.051   7.355
 9595POPC   NC351971  15.973  43.062   5.555
 9595POPC   PO451972  15.962  43.100   5.855
 9595POPC   GL151973  15.906  43.065   6.155
 9595POPC   GL251974  15.878  43.076   6.155
 9595POPC   C1A51975  15.914  43.111   6.455
 9595POPC   D2A51976  15.987  43.065   6.755
 9595POPC   C3A51977  15.978  43.085   7.055
 9595POPC   C4A51978  15.965  43.097   7.355
 9595POPC   C1B51979  15.659  43.061   6.455
 9595POPC   C2B51980  15.690  43.074   6.755
 9595POPC   C3B51981  15.688  43.126   7.055
 9595POPC   C4B51982  15.672  43.044   7.355
 9596POPC   NC351983  12.876  39.202   5.555
 9596POPC   PO451984  12.849  39.241   5.855
 9596POPC   GL151985  12.824  39.222   6.155
 9596POPC   GL251986  12.762  39.331   6.155
 9596POPC   C1A51987  12.888  39.183   6.455
 9596POPC   D2A51988  12.821  39.259   6.755
 9596POPC   C3A51989  12.864  39.270   7.055
 9596POPC   C4A51990  12.815  39.250   7.355
 9596POPC   C1B51991  12.615  39.417   6.455
 9596POPC   C2B51992  12.649  39.361   6.755
 9596POPC   C3B51993  12.626  39.354   7.055
 9596POPC   C4B51994  12.700  39.422   7.355
 9597POPC   NC351995   7.442   9.790   5.555
 9597POPC   PO451996   7.383   9.713   5.855
 9597POPC   GL151997   7.372   9.741   6.155
 9597POPC   GL251998   7.322   9.777   6.155
 9597POPC   C1A51999   7.458   9.704   6.455
 9597POPC   D2A52000   7.460   9.703   6.755
 9597POPC   C3A52001   7.419   9.773   7.055
 9597POPC   C4A52002   7.440   9.737   7.355
 9597POPC   C1B52003   7.160   9.694   6.455
 9597POPC   C2B52004   7.150   9.733   6.755
 9597POPC   C3B52005   7.208   9.704   7.055
 9597POPC   C4B52006   7.160   9.724   7.355
 9598POPC   NC352007  43.117  16.736   5.555
 9598POPC   PO452008  43.098  16.745   5.855
 9598POPC   GL152009  43.094  16.740   6.155
 9598POPC   GL252010  43.082  16.819   6.155
 9598POPC   C1A52011  43.109  16.761   6.455
 9598POPC   D2A52012  43.087  16.701   6.755
 9598POPC   C3A52013  43.124  16.768   7.055
 9598POPC   C4A52014  43.155  16.696   7.355
 9598POPC   C1B52015  42.932  16.898   6.455
 9598POPC   C2B52016  43.005  16.912   6.755
 9598POPC   C3B52017  42.949  16.968   7.055
 9598POPC   C4B52018  43.005  16.942   7.355
 9599POPC   NC352019  38.464  40.765   5.555
 9599POPC   PO452020  38.446  40.777   5.855
 9599POPC   GL152021  38.489  40.807   6.155
 9599POPC   GL252022  38.529  40.844   6.155
 9599POPC   C1A52023  38.409  40.748   6.455
 9599POPC   D2A52024  38.411  40.779   6.755
 9599POPC   C3A52025  38.463  40.796   7.055
 9599POPC   C4A52026  38.428  40.792   7.355
 9599POPC   C1B52027  38.548  40.955   6.455
 9599POPC   C2B52028  38.583  40.966   6.755
 9599POPC   C3B52029  38.559  40.957   7.055
 9599POPC   C4B52030  38.620  40.995   7.355
 9600POPC   NC352031   8.149  44.666   5.555
 9600POPC   PO452032   8.168  44.703   5.855
 9600POPC   GL152033   8.242  44.667   6.155
 9600POPC   GL252034   8.234  44.711   6.155
 9600POPC   C1A52035   8.209  44.633   6.455
 9600POPC   D2A52036   8.228  44.701   6.755
 9600POPC   C3A52037   8.242  44.698   7.055
 9600POPC   C4A52038   8.214  44.652   7.355
 9600POPC   C1B52039   8.366  44.810   6.455
 9600POPC   C2B52040   8.373  44.904   6.755
 9600POPC   C3B52041   8.348  44.812   7.055
 9600POPC   C4B52042   8.393  44.899   7.355
 9601POPC   NC352043  36.862  19.016   5.555
 9601POPC   PO452044  36.920  19.056   5.855
 9601POPC   GL152045  36.895  19.068   6.155
 9601POPC   GL252046  36.989  19.101   6.155
 9601POPC   C1A52047  36.903  19.058   6.455
 9601POPC   D2A52048  36.863  19.084   6.755
 9601POPC   C3A52049  36.924  19.017   7.055
 9601POPC   C4A52050  36.857  19.011   7.355
 9601POPC   C1B52051  37.147  19.201   6.455
 9601POPC   C2B52052  37.116  19.215   6.755
 9601POPC   C3B52053  37.122  19.146   7.055
 9601POPC   C4B52054  37.153  19.135   7.355
 9602POPC   NC352055   5.880  36.108   5.555
 9602POPC   PO452056   5.872  36.100   5.855
 9602POPC   GL152057   5.897  36.079   6.155
 9602POPC   GL252058   5.988  36.200   6.155
 9602POPC   C1A52059   5.887  36.094   6.455
 9602POPC   D2A52060   5.889  36.169   6.755
 9602POPC   C3A52061   5.872  36.085   7.055
 9602POPC   C4A52062   5.888  36.102   7.355
 9602POPC   C1B52063   6.132  36.190   6.455
 9602POPC   C2B52064   6.072  36.232   6.755
 9602POPC   C3B52065   6.152  36.247   7.055
 9602POPC   C4B52066   6.069  36.196   7.355
 9603POPC   NC352067   2.800  28.401   5.555
 9603POPC   PO452068   2.773  28.324   5.855
 9603POPC   GL152069   2.733  28.379   6.155
 9603POPC   GL252070   2.687  28.464   6.155
 9603POPC   C1A52071   2.771  28.356   6.455
 9603POPC   D2A52072   2.812  28.372   6.755
 9603POPC   C3A52073   2.779  28.351   7.055
 9603POPC   C4A52074   2.741  28.384   7.355
 9603POPC   C1B52075   2.626  28.566   6.455
 9603POPC   C2B52076   2.669  28.613   6.755
 9603POPC   C3B52077   2.572  28.544   7.055
 9603POPC   C4B52078   2.569  28.539   7.355
 9604POPC   NC352079  12.102  22.138   5.555
 9604POPC   PO452080  12.059  22.183   5.855
 9604POPC   GL152081  12.049  22.113   6.155
 9604POPC   GL252082  12.007  22.128   6.155
 9604POPC   C1A52083  12.123  22.184   6.455
 9604POPC   D2A52084  12.110  22.168   6.755
 9604POPC   C3A52085  12.090  22.200   7.055
 9604POPC   C4A52086  12.093  22.177   7.355
 9604POPC   C1B52087  11.889  22.092   6.455
 9604POPC   C2B52088  11.833  22.074   6.755
 9604POPC   C3B52089  11.808  22.033   7.055
 9604POPC   C4B52090  11.880  22.113   7.355
 9605POPC   NC352091   0.426   0.449   5.555
 9605POPC   PO452092   0.408   0.434   5.855
 9605POPC   GL152093   0.475   0.416   6.155
 9605POPC   GL252094   0.307   0.435   6.155
 9605POPC   C1A52095   0.444   0.441   6.455
 9605POPC   D2A52096   0.454   0.454   6.755
 9605POPC   C3A52097   0.409   0.401   7.055
 9605POPC   C4A52098   0.409   0.468   7.355
 9605POPC   C1B52099   0.209   0.472   6.455
 9605POPC   C2B52100   0.215   0.480   6.755
 9605POPC   C3B52101   0.185   0.487   7.055
 9605POPC   C4B52102   0.157   0.477   7.355
 9606POPC   NC352103  33.752  43.082   5.555
 9606POPC   PO452104  33.763  43.076   5.855
 9606POPC   GL152105  33.798  43.074   6.155
 9606POPC   GL252106  33.725  43.164   6.155
 9606POPC   C1A52107  33.782  43.141   6.455
 9606POPC   D2A52108  33.791  43.146   6.755
 9606POPC   C3A52109  33.782  43.128   7.055
 9606POPC   C4A52110  33.843  43.061   7.355
 9606POPC   C1B52111  33.585  43.249   6.455
 9606POPC   C2B52112  33.578  43.261   6.755
 9606POPC   C3B52113  33.612  43.220   7.055
 9606POPC   C4B52114  33.607  43.265   7.355
 9607POPC   NC352115   3.549  41.596   5.555
 9607POPC   PO452116   3.588  41.557   5.855
 9607POPC   GL152117   3.504  41.577   6.155
 9607POPC   GL252118   3.397  41.633   6.155
 9607POPC   C1A52119   3.506  41.568   6.455
 9607POPC   D2A52120   3.581  41.573   6.755
 9607POPC   C3A52121   3.503  41.598   7.055
 9607POPC   C4A52122   3.500  41.546   7.355
 9607POPC   C1B52123   3.254  41.584   6.455
 9607POPC   C2B52124   3.256  41.645   6.755
 9607POPC   C3B52125   3.262  41.629   7.055
 9607POPC   C4B52126   3.322  41.578   7.355
 9608POPC   NC352127  29.155   5.831   5.555
 9608POPC   PO452128  29.126   5.835   5.855
 9608POPC   GL152129  29.148   5.838   6.155
 9608POPC   GL252130  29.058   5.740   6.155
 9608POPC   C1A52131  29.170   5.905   6.455
 9608POPC   D2A52132  29.095   5.915   6.755
 9608POPC   C3A52133  29.169   5.830   7.055
 9608POPC   C4A52134  29.193   5.912   7.355
 9608POPC   C1B52135  29.018   5.666   6.455
 9608POPC   C2B52136  28.958   5.715   6.755
 9608POPC   C3B52137  28.969   5.659   7.055
 9608POPC   C4B52138  28.950   5.666   7.355
 9609POPC   NC352139  12.078  10.527   5.555
 9609POPC   PO452140  12.111  10.554   5.855
 9609POPC   GL152141  12.113  10.547   6.155
 9609POPC   GL252142  11.997  10.371   6.155
 9609POPC   C1A52143  12.072  10.556   6.455
 9609POPC   D2A52144  12.085  10.532   6.755
 9609POPC   C3A52145  12.094  10.478   7.055
 9609POPC   C4A52146  12.106  10.568   7.355
 9609POPC   C1B52147  11.964  10.281   6.455
 9609POPC   C2B52148  11.985  10.332   6.755
 9609POPC   C3B52149  12.031  10.250   7.055
 9609POPC   C4B52150  12.056  10.280   7.355
 9610POPC   NC352151  36.882  32.283   5.555
 9610POPC   PO452152  36.862  32.244   5.855
 9610POPC   GL152153  36.934  32.203   6.155
 9610POPC   GL252154  37.057  32.318   6.155
 9610POPC   C1A52155  36.925  32.209   6.455
 9610POPC   D2A52156  36.948  32.281   6.755
 9610POPC   C3A52157  36.935  32.229   7.055
 9610POPC   C4A52158  36.939  32.251   7.355
 9610POPC   C1B52159  37.156  32.374   6.455
 9610POPC   C2B52160  37.093  32.400   6.755
 9610POPC   C3B52161  37.111  32.313   7.055
 9610POPC   C4B52162  37.163  32.312   7.355
 9611POPC   NC352163  15.921  26.783   5.555
 9611POPC   PO452164  15.978  26.788   5.855
 9611POPC   GL152165  15.930  26.811   6.155
 9611POPC   GL252166  16.071  26.808   6.155
 9611POPC   C1A52167  15.970  26.779   6.455
 9611POPC   D2A52168  15.958  26.866   6.755
 9611POPC   C3A52169  15.917  26.805   7.055
 9611POPC   C4A52170  15.984  26.772   7.355
 9611POPC   C1B52171  16.232  26.729   6.455
 9611POPC   C2B52172  16.172  26.803   6.755
 9611POPC   C3B52173  16.170  26.726   7.055
 9611POPC   C4B52174  16.249  26.727   7.355
 9612POPC   NC352175   0.445  41.517   5.555
 9612POPC   PO452176   0.457  41.585   5.855
 9612POPC   GL152177   0.461  41.534   6.155
 9612POPC   GL252178   0.424  41.438   6.155
 9612POPC   C1A52179   0.437  41.554   6.455
 9612POPC   D2A52180   0.431  41.579   6.755
 9612POPC   C3A52181   0.434  41.604   7.055
 9612POPC   C4A52182   0.483  41.587   7.355
 9612POPC   C1B52183   0.457  41.353   6.455
 9612POPC   C2B52184   0.469  41.344   6.755
 9612POPC   C3B52185   0.542  41.354   7.055
 9612POPC   C4B52186   0.484  41.323   7.355
 9613POPC   NC352187  35.319  36.859   5.555
 9613POPC   PO452188  35.384  36.942   5.855
 9613POPC   GL152189  35.391  36.887   6.155
 9613POPC   GL252190  35.374  37.051   6.155
 9613POPC   C1A52191  35.315  36.919   6.455
 9613POPC   D2A52192  35.314  36.883   6.755
 9613POPC   C3A52193  35.382  36.901   7.055
 9613POPC   C4A52194  35.350  36.932   7.355
 9613POPC   C1B52195  35.510  37.162   6.455
 9613POPC   C2B52196  35.488  37.155   6.755
 9613POPC   C3B52197  35.483  37.172   7.055
 9613POPC   C4B52198  35.488  37.118   7.355
 9614POPC   NC352199  43.858  25.242   5.555
 9614POPC   PO452200  43.931  25.285   5.855
 9614POPC   GL152201  43.865  25.247   6.155
 9614POPC   GL252202  43.957  25.277   6.155
 9614POPC   C1A52203  43.915  25.237   6.455
 9614POPC   D2A52204  43.906  25.290   6.755
 9614POPC   C3A52205  43.839  25.285   7.055
 9614POPC   C4A52206  43.844  25.226   7.355
 9614POPC   C1B52207  44.086  25.152   6.455
 9614POPC   C2B52208  44.115  25.162   6.755
 9614POPC   C3B52209  44.117  25.236   7.055
 9614POPC   C4B52210  44.131  25.167   7.355
 9615POPC   NC352211  42.305  44.632   5.555
 9615POPC   PO452212  42.294  44.646   5.855
 9615POPC   GL152213  42.325  44.665   6.155
 9615POPC   GL252214  42.441  44.733   6.155
 9615POPC   C1A52215  42.339  44.644   6.455
 9615POPC   D2A52216  42.297  44.631   6.755
 9615POPC   C3A52217  42.308  44.667   7.055
 9615POPC   C4A52218  42.347  44.689   7.355
 9615POPC   C1B52219  42.567  44.739   6.455
 9615POPC   C2B52220  42.607  44.739   6.755
 9615POPC   C3B52221  42.576  44.808   7.055
 9615POPC   C4B52222  42.585  44.796   7.355
 9616POPC   NC352223   2.020  40.033   5.555
 9616POPC   PO452224   1.983  39.999   5.855
 9616POPC   GL152225   1.960  39.972   6.155
 9616POPC   GL252226   1.894  39.915   6.155
 9616POPC   C1A52227   1.991  39.979   6.455
 9616POPC   D2A52228   2.002  39.977   6.755
 9616POPC   C3A52229   1.962  40.033   7.055
 9616POPC   C4A52230   2.038  39.981   7.355
 9616POPC   C1B52231   1.811  39.825   6.455
 9616POPC   C2B52232   1.833  39.807   6.755
 9616POPC   C3B52233   1.838  39.826   7.055
 9616POPC   C4B52234   1.789  39.797   7.355
 9617POPC   NC352235  16.702  24.496   5.555
 9617POPC   PO452236  16.758  24.451   5.855
 9617POPC   GL152237  16.721  24.485   6.155
 9617POPC   GL252238  16.629  24.582   6.155
 9617POPC   C1A52239  16.700  24.461   6.455
 9617POPC   D2A52240  16.763  24.486   6.755
 9617POPC   C3A52241  16.774  24.512   7.055
 9617POPC   C4A52242  16.714  24.532   7.355
 9617POPC   C1B52243  16.600  24.665   6.455
 9617POPC   C2B52244  16.602  24.702   6.755
 9617POPC   C3B52245  16.572  24.712   7.055
 9617POPC   C4B52246  16.546  24.673   7.355
 9618POPC   NC352247  13.601  25.271   5.555
 9618POPC   PO452248  13.630  25.238   5.855
 9618POPC   GL152249  13.595  25.259   6.155
 9618POPC   GL252250  13.606  25.382   6.155
 9618POPC   C1A52251  13.611  25.236   6.455
 9618POPC   D2A52252  13.604  25.274   6.755
 9618POPC   C3A52253  13.593  25.308   7.055
 9618POPC   C4A52254  13.580  25.308   7.355
 9618POPC   C1B52255  13.610  25.493   6.455
 9618POPC   C2B52256  13.634  25.493   6.755
 9618POPC   C3B52257  13.675  25.480   7.055
 9618POPC   C4B52258  13.609  25.547   7.355
 9619POPC   NC352259   4.350   2.814   5.555
 9619POPC   PO452260   4.336   2.790   5.855
 9619POPC   GL152261   4.327   2.742   6.155
 9619POPC   GL252262   4.454   2.739   6.155
 9619POPC   C1A52263   4.343   2.799   6.455
 9619POPC   D2A52264   4.297   2.722   6.755
 9619POPC   C3A52265   4.286   2.792   7.055
 9619POPC   C4A52266   4.341   2.778   7.355
 9619POPC   C1B52267   4.608   2.766   6.455
 9619POPC   C2B52268   4.557   2.694   6.755
 9619POPC   C3B52269   4.615   2.718   7.055
 9619POPC   C4B52270   4.582   2.755   7.355
 9620POPC   NC352271  39.257  38.473   5.555
 9620POPC   PO452272  39.244  38.445   5.855
 9620POPC   GL152273  39.219  38.499   6.155
 9620POPC   GL252274  39.273  38.547   6.155
 9620POPC   C1A52275  39.234  38.433   6.455
 9620POPC   D2A52276  39.257  38.485   6.755
 9620POPC   C3A52277  39.236  38.411   7.055
 9620POPC   C4A52278  39.198  38.437   7.355
 9620POPC   C1B52279  39.431  38.592   6.455
 9620POPC   C2B52280  39.426  38.650   6.755
 9620POPC   C3B52281  39.396  38.678   7.055
 9620POPC   C4B52282  39.435  38.597   7.355
 9621POPC   NC352283   1.977  26.065   5.555
 9621POPC   PO452284   1.969  26.010   5.855
 9621POPC   GL152285   2.006  26.061   6.155
 9621POPC   GL252286   1.839  26.010   6.155
 9621POPC   C1A52287   2.024  26.057   6.455
 9621POPC   D2A52288   1.944  25.998   6.755
 9621POPC   C3A52289   2.017  26.074   7.055
 9621POPC   C4A52290   2.014  26.049   7.355
 9621POPC   C1B52291   1.813  25.905   6.455
 9621POPC   C2B52292   1.815  25.895   6.755
 9621POPC   C3B52293   1.785  25.936   7.055
 9621POPC   C4B52294   1.804  25.915   7.355
 9622POPC   NC352295   0.434  33.750   5.555
 9622POPC   PO452296   0.390  33.836   5.855
 9622POPC   GL152297   0.466  33.843   6.155
 9622POPC   GL252298   0.443  33.720   6.155
 9622POPC   C1A52299   0.452  33.834   6.455
 9622POPC   D2A52300   0.416  33.843   6.755
 9622POPC   C3A52301   0.454  33.770   7.055
 9622POPC   C4A52302   0.482  33.795   7.355
 9622POPC   C1B52303   0.445  33.548   6.455
 9622POPC   C2B52304   0.434  33.577   6.755
 9622POPC   C3B52305   0.419  33.537   7.055
 9622POPC   C4B52306   0.489  33.508   7.355
 9623POPC   NC352307  33.042   8.201   5.555
 9623POPC   PO452308  33.001   8.213   5.855
 9623POPC   GL152309  33.054   8.199   6.155
 9623POPC   GL252310  33.117   8.277   6.155
 9623POPC   C1A52311  33.058   8.196   6.455
 9623POPC   D2A52312  33.031   8.224   6.755
 9623POPC   C3A52313  33.051   8.234   7.055
 9623POPC   C4A52314  33.054   8.185   7.355
 9623POPC   C1B52315  33.298   8.297   6.455
 9623POPC   C2B52316  33.205   8.269   6.755
 9623POPC   C3B52317  33.261   8.278   7.055
 9623POPC   C4B52318  33.275   8.274   7.355
 9624POPC   NC352319   6.598   8.160   5.555
 9624POPC   PO452320   6.644   8.164   5.855
 9624POPC   GL152321   6.655   8.157   6.155
 9624POPC   GL252322   6.571   8.202   6.155
 9624POPC   C1A52323   6.679   8.229   6.455
 9624POPC   D2A52324   6.675   8.208   6.755
 9624POPC   C3A52325   6.628   8.183   7.055
 9624POPC   C4A52326   6.660   8.231   7.355
 9624POPC   C1B52327   6.411   8.304   6.455
 9624POPC   C2B52328   6.446   8.308   6.755
 9624POPC   C3B52329   6.437   8.337   7.055
 9624POPC   C4B52330   6.372   8.316   7.355
 9625POPC   NC352331  27.574  14.369   5.555
 9625POPC   PO452332  27.566  14.420   5.855
 9625POPC   GL152333  27.620  14.368   6.155
 9625POPC   GL252334  27.564  14.279   6.155
 9625POPC   C1A52335  27.544  14.437   6.455
 9625POPC   D2A52336  27.616  14.438   6.755
 9625POPC   C3A52337  27.556  14.409   7.055
 9625POPC   C4A52338  27.590  14.398   7.355
 9625POPC   C1B52339  27.523  14.134   6.455
 9625POPC   C2B52340  27.507  14.184   6.755
 9625POPC   C3B52341  27.457  14.223   7.055
 9625POPC   C4B52342  27.444  14.191   7.355
 9626POPC   NC352343  32.271   5.057   5.555
 9626POPC   PO452344  32.295   5.093   5.855
 9626POPC   GL152345  32.250   5.044   6.155
 9626POPC   GL252346  32.350   5.146   6.155
 9626POPC   C1A52347  32.294   5.127   6.455
 9626POPC   D2A52348  32.230   5.065   6.755
 9626POPC   C3A52349  32.271   5.121   7.055
 9626POPC   C4A52350  32.201   5.121   7.355
 9626POPC   C1B52351  32.464   5.131   6.455
 9626POPC   C2B52352  32.541   5.168   6.755
 9626POPC   C3B52353  32.536   5.091   7.055
 9626POPC   C4B52354  32.496   5.117   7.355
 9627POPC   NC352355  39.231  29.898   5.555
 9627POPC   PO452356  39.236  29.942   5.855
 9627POPC   GL152357  39.240  29.905   6.155
 9627POPC   GL252358  39.395  29.980   6.155
 9627POPC   C1A52359  39.247  29.907   6.455
 9627POPC   D2A52360  39.252  29.930   6.755
 9627POPC   C3A52361  39.223  29.905   7.055
 9627POPC   C4A52362  39.210  29.954   7.355
 9627POPC   C1B52363  39.483  29.963   6.455
 9627POPC   C2B52364  39.487  30.033   6.755
 9627POPC   C3B52365  39.444  29.943   7.055
 9627POPC   C4B52366  39.444  30.021   7.355
 9628POPC   NC352367   6.661  13.640   5.555
 9628POPC   PO452368   6.604  13.619   5.855
 9628POPC   GL152369   6.637  13.601   6.155
 9628POPC   GL252370   6.567  13.611   6.155
 9628POPC   C1A52371   6.654  13.604   6.455
 9628POPC   D2A52372   6.630  13.664   6.755
 9628POPC   C3A52373   6.649  13.635   7.055
 9628POPC   C4A52374   6.605  13.609   7.355
 9628POPC   C1B52375   6.446  13.586   6.455
 9628POPC   C2B52376   6.356  13.557   6.755
 9628POPC   C3B52377   6.390  13.565   7.055
 9628POPC   C4B52378   6.442  13.558   7.355
 9629POPC   NC352379  19.044   2.745   5.555
 9629POPC   PO452380  19.041   2.797   5.855
 9629POPC   GL152381  19.092   2.779   6.155
 9629POPC   GL252382  19.091   2.683   6.155
 9629POPC   C1A52383  19.088   2.802   6.455
 9629POPC   D2A52384  19.043   2.735   6.755
 9629POPC   C3A52385  19.013   2.737   7.055
 9629POPC   C4A52386  19.030   2.736   7.355
 9629POPC   C1B52387  19.061   2.481   6.455
 9629POPC   C2B52388  19.048   2.548   6.755
 9629POPC   C3B52389  19.007   2.535   7.055
 9629POPC   C4B52390  19.092   2.529   7.355
 9630POPC   NC352391  14.431  19.034   5.555
 9630POPC   PO452392  14.381  19.094   5.855
 9630POPC   GL152393  14.401  19.020   6.155
 9630POPC   GL252394  14.498  18.992   6.155
 9630POPC   C1A52395  14.441  19.100   6.455
 9630POPC   D2A52396  14.405  19.046   6.755
 9630POPC   C3A52397  14.441  19.102   7.055
 9630POPC   C4A52398  14.440  19.071   7.355
 9630POPC   C1B52399  14.657  18.891   6.455
 9630POPC   C2B52400  14.624  18.936   6.755
 9630POPC   C3B52401  14.658  18.933   7.055
 9630POPC   C4B52402  14.565  18.924   7.355
 9631POPC   NC352403  10.546  39.991   5.555
 9631POPC   PO452404  10.525  40.034   5.855
 9631POPC   GL152405  10.551  39.980   6.155
 9631POPC   GL252406  10.587  40.159   6.155
 9631POPC   C1A52407  10.533  39.970   6.455
 9631POPC   D2A52408  10.536  39.959   6.755
 9631POPC   C3A52409  10.488  40.004   7.055
 9631POPC   C4A52410  10.494  40.021   7.355
 9631POPC   C1B52411  10.657  40.214   6.455
 9631POPC   C2B52412  10.567  40.213   6.755
 9631POPC   C3B52413  10.569  40.243   7.055
 9631POPC   C4B52414  10.567  40.270   7.355
 9632POPC   NC352415  37.659  27.606   5.555
 9632POPC   PO452416  37.692  27.621   5.855
 9632POPC   GL152417  37.721  27.642   6.155
 9632POPC   GL252418  37.815  27.581   6.155
 9632POPC   C1A52419  37.683  27.604   6.455
 9632POPC   D2A52420  37.696  27.622   6.755
 9632POPC   C3A52421  37.632  27.631   7.055
 9632POPC   C4A52422  37.653  27.628   7.355
 9632POPC   C1B52423  37.967  27.613   6.455
 9632POPC   C2B52424  37.885  27.625   6.755
 9632POPC   C3B52425  37.889  27.663   7.055
 9632POPC   C4B52426  37.913  27.633   7.355
 9633POPC   NC352427  44.707   3.535   5.555
 9633POPC   PO452428  44.705   3.539   5.855
 9633POPC   GL152429  44.641   3.520   6.155
 9633POPC   GL252430  44.643   3.447   6.155
 9633POPC   C1A52431  44.698   3.526   6.455
 9633POPC   D2A52432  44.653   3.504   6.755
 9633POPC   C3A52433  44.655   3.542   7.055
 9633POPC   C4A52434  44.679   3.519   7.355
 9633POPC   C1B52435  44.744   3.297   6.455
 9633POPC   C2B52436  44.746   3.262   6.755
 9633POPC   C3B52437  44.740   3.258   7.055
 9633POPC   C4B52438  44.694   3.253   7.355
 9634POPC   NC352439   8.228   2.738   5.555
 9634POPC   PO452440   8.156   2.753   5.855
 9634POPC   GL152441   8.196   2.799   6.155
 9634POPC   GL252442   8.195   2.667   6.155
 9634POPC   C1A52443   8.187   2.747   6.455
 9634POPC   D2A52444   8.189   2.777   6.755
 9634POPC   C3A52445   8.235   2.751   7.055
 9634POPC   C4A52446   8.195   2.769   7.355
 9634POPC   C1B52447   8.201   2.547   6.455
 9634POPC   C2B52448   8.123   2.492   6.755
 9634POPC   C3B52449   8.155   2.502   7.055
 9634POPC   C4B52450   8.168   2.487   7.355
 9635POPC   NC352451   9.711  13.617   5.555
 9635POPC   PO452452   9.742  13.609   5.855
 9635POPC   GL152453   9.710  13.594   6.155
 9635POPC   GL252454   9.820  13.463   6.155
 9635POPC   C1A52455   9.789  13.652   6.455
 9635POPC   D2A52456   9.750  13.583   6.755
 9635POPC   C3A52457   9.763  13.589   7.055
 9635POPC   C4A52458   9.737  13.658   7.355
 9635POPC   C1B52459   9.806  13.416   6.455
 9635POPC   C2B52460   9.791  13.403   6.755
 9635POPC   C3B52461   9.814  13.363   7.055
 9635POPC   C4B52462   9.832  13.420   7.355
 9636POPC   NC352463  17.539  14.394   5.555
 9636POPC   PO452464  17.471  14.438   5.855
 9636POPC   GL152465  17.535  14.432   6.155
 9636POPC   GL252466  17.416  14.425   6.155
 9636POPC   C1A52467  17.547  14.393   6.455
 9636POPC   D2A52468  17.507  14.355   6.755
 9636POPC   C3A52469  17.516  14.445   7.055
 9636POPC   C4A52470  17.501  14.437   7.355
 9636POPC   C1B52471  17.229  14.444   6.455
 9636POPC   C2B52472  17.289  14.372   6.755
 9636POPC   C3B52473  17.253  14.444   7.055
 9636POPC   C4B52474  17.256  14.371   7.355
 9637POPC   NC352475  25.261  25.227   5.555
 9637POPC   PO452476  25.220  25.232   5.855
 9637POPC   GL152477  25.234  25.225   6.155
 9637POPC   GL252478  25.434  25.328   6.155
 9637POPC   C1A52479  25.239  25.293   6.455
 9637POPC   D2A52480  25.286  25.218   6.755
 9637POPC   C3A52481  25.258  25.263   7.055
 9637POPC   C4A52482  25.226  25.233   7.355
 9637POPC   C1B52483  25.523  25.305   6.455
 9637POPC   C2B52484  25.551  25.335   6.755
 9637POPC   C3B52485  25.559  25.350   7.055
 9637POPC   C4B52486  25.470  25.270   7.355
 9638POPC   NC352487   2.742  10.511   5.555
 9638POPC   PO452488   2.790  10.509   5.855
 9638POPC   GL152489   2.774  10.484   6.155
 9638POPC   GL252490   2.886  10.590   6.155
 9638POPC   C1A52491   2.779  10.531   6.455
 9638POPC   D2A52492   2.783  10.476   6.755
 9638POPC   C3A52493   2.771  10.564   7.055
 9638POPC   C4A52494   2.726  10.533   7.355
 9638POPC   C1B52495   3.020  10.646   6.455
 9638POPC   C2B52496   3.033  10.632   6.755
 9638POPC   C3B52497   2.987  10.624   7.055
 9638POPC   C4B52498   2.946  10.588   7.355
 9639POPC   NC352499  19.066  31.489   5.555
 9639POPC   PO452500  19.025  31.515   5.855
 9639POPC   GL152501  19.076  31.499   6.155
 9639POPC   GL252502  19.125  31.401   6.155
 9639POPC   C1A52503  19.040  31.473   6.455
 9639POPC   D2A52504  19.082  31.477   6.755
 9639POPC   C3A52505  19.011  31.449   7.055
 9639POPC   C4A52506  19.088  31.509   7.355
 9639POPC   C1B52507  19.197  31.190   6.455
 9639POPC   C2B52508  19.191  31.280   6.755
 9639POPC   C3B52509  19.162  31.198   7.055
 9639POPC   C4B52510  19.191  31.232   7.355
 9640POPC   NC352511  29.909  37.701   5.555
 9640POPC   PO452512  29.930  37.680   5.855
 9640POPC   GL152513  29.961  37.670   6.155
 9640POPC   GL252514  29.867  37.833   6.155
 9640POPC   C1A52515  29.920  37.635   6.455
 9640POPC   D2A52516  29.902  37.649   6.755
 9640POPC   C3A52517  29.896  37.675   7.055
 9640POPC   C4A52518  29.909  37.656   7.355
 9640POPC   C1B52519  29.795  37.916   6.455
 9640POPC   C2B52520  29.851  37.922   6.755
 9640POPC   C3B52521  29.816  37.896   7.055
 9640POPC   C4B52522  29.886  37.878   7.355
 9641POPC   NC352523  39.225  32.199   5.555
 9641POPC   PO452524  39.259  32.216   5.855
 9641POPC   GL152525  39.189  32.248   6.155
 9641POPC   GL252526  39.092  32.189   6.155
 9641POPC   C1A52527  39.201  32.285   6.455
 9641POPC   D2A52528  39.227  32.208   6.755
 9641POPC   C3A52529  39.253  32.294   7.055
 9641POPC   C4A52530  39.250  32.216   7.355
 9641POPC   C1B52531  39.009  32.062   6.455
 9641POPC   C2B52532  38.976  32.100   6.755
 9641POPC   C3B52533  39.036  32.081   7.055
 9641POPC   C4B52534  39.042  32.130   7.355
 9642POPC   NC352535  31.477  40.781   5.555
 9642POPC   PO452536  31.480  40.771   5.855
 9642POPC   GL152537  31.505  40.823   6.155
 9642POPC   GL252538  31.550  40.769   6.155
 9642POPC   C1A52539  31.468  40.750   6.455
 9642POPC   D2A52540  31.493  40.807   6.755
 9642POPC   C3A52541  31.424  40.762   7.055
 9642POPC   C4A52542  31.521  40.811   7.355
 9642POPC   C1B52543  31.694  40.741   6.455
 9642POPC   C2B52544  31.736  40.695   6.755
 9642POPC   C3B52545  31.720  40.727   7.055
 9642POPC   C4B52546  31.696  40.722   7.355
 9643POPC   NC352547  41.605  40.016   5.555
 9643POPC   PO452548  41.605  39.975   5.855
 9643POPC   GL152549  41.520  40.009   6.155
 9643POPC   GL252550  41.522  39.920   6.155
 9643POPC   C1A52551  41.510  39.981   6.455
 9643POPC   D2A52552  41.538  40.020   6.755
 9643POPC   C3A52553  41.541  40.057   7.055
 9643POPC   C4A52554  41.569  40.027   7.355
 9643POPC   C1B52555  41.388  39.789   6.455
 9643POPC   C2B52556  41.388  39.808   6.755
 9643POPC   C3B52557  41.435  39.864   7.055
 9643POPC   C4B52558  41.402  39.841   7.355
 9644POPC   NC352559  14.430   6.665   5.555
 9644POPC   PO452560  14.420   6.678   5.855
 9644POPC   GL152561  14.411   6.670   6.155
 9644POPC   GL252562  14.326   6.555   6.155
 9644POPC   C1A52563  14.389   6.678   6.455
 9644POPC   D2A52564  14.414   6.622   6.755
 9644POPC   C3A52565  14.387   6.648   7.055
 9644POPC   C4A52566  14.451   6.691   7.355
 9644POPC   C1B52567  14.178   6.533   6.455
 9644POPC   C2B52568  14.197   6.520   6.755
 9644POPC   C3B52569  14.151   6.551   7.055
 9644POPC   C4B52570  14.194   6.580   7.355
 9645POPC   NC352571  36.133  32.247   5.555
 9645POPC   PO452572  36.170  32.242   5.855
 9645POPC   GL152573  36.151  32.275   6.155
 9645POPC   GL252574  36.244  32.304   6.155
 9645POPC   C1A52575  36.092  32.282   6.455
 9645POPC   D2A52576  36.098  32.259   6.755
 9645POPC   C3A52577  36.088  32.237   7.055
 9645POPC   C4A52578  36.140  32.236   7.355
 9645POPC   C1B52579  36.329  32.299   6.455
 9645POPC   C2B52580  36.368  32.240   6.755
 9645POPC   C3B52581  36.342  32.313   7.055
 9645POPC   C4B52582  36.401  32.315   7.355
 9646POPC   NC352583  32.279  11.333   5.555
 9646POPC   PO452584  32.292  11.251   5.855
 9646POPC   GL152585  32.230  11.317   6.155
 9646POPC   GL252586  32.335  11.404   6.155
 9646POPC   C1A52587  32.202  11.322   6.455
 9646POPC   D2A52588  32.252  11.330   6.755
 9646POPC   C3A52589  32.288  11.267   7.055
 9646POPC   C4A52590  32.240  11.315   7.355
 9646POPC   C1B52591  32.451  11.505   6.455
 9646POPC   C2B52592  32.409  11.471   6.755
 9646POPC   C3B52593  32.486  11.438   7.055
 9646POPC   C4B52594  32.430  11.473   7.355
 9647POPC   NC352595   0.479  12.090   5.555
 9647POPC   PO452596   0.435  12.048   5.855
 9647POPC   GL152597   0.481  12.031   6.155
 9647POPC   GL252598   0.346  12.213   6.155
 9647POPC   C1A52599   0.418  12.051   6.455
 9647POPC   D2A52600   0.465  12.039   6.755
 9647POPC   C3A52601   0.416  12.067   7.055
 9647POPC   C4A52602   0.485  12.055   7.355
 9647POPC   C1B52603   0.318  12.335   6.455
 9647POPC   C2B52604   0.333  12.340   6.755
 9647POPC   C3B52605   0.349  12.253   7.055
 9647POPC   C4B52606   0.303  12.259   7.355
 9648POPC   NC352607  19.848  12.835   5.555
 9648POPC   PO452608  19.834  12.874   5.855
 9648POPC   GL152609  19.870  12.847   6.155
 9648POPC   GL252610  19.988  12.916   6.155
 9648POPC   C1A52611  19.826  12.836   6.455
 9648POPC   D2A52612  19.863  12.862   6.755
 9648POPC   C3A52613  19.797  12.826   7.055
 9648POPC   C4A52614  19.856  12.803   7.355
 9648POPC   C1B52615  20.072  12.929   6.455
 9648POPC   C2B52616  20.016  12.984   6.755
 9648POPC   C3B52617  20.049  12.960   7.055
 9648POPC   C4B52618  20.077  12.925   7.355
 9649POPC   NC352619   8.931  22.930   5.555
 9649POPC   PO452620   8.925  22.890   5.855
 9649POPC   GL152621   9.017  22.926   6.155
 9649POPC   GL252622   8.924  22.845   6.155
 9649POPC   C1A52623   8.946  22.896   6.455
 9649POPC   D2A52624   8.970  22.970   6.755
 9649POPC   C3A52625   8.929  22.891   7.055
 9649POPC   C4A52626   8.925  22.888   7.355
 9649POPC   C1B52627   8.949  22.652   6.455
 9649POPC   C2B52628   8.855  22.710   6.755
 9649POPC   C3B52629   8.940  22.740   7.055
 9649POPC   C4B52630   8.876  22.686   7.355
 9650POPC   NC352631   9.751  40.823   5.555
 9650POPC   PO452632   9.719  40.787   5.855
 9650POPC   GL152633   9.779  40.772   6.155
 9650POPC   GL252634   9.672  40.781   6.155
 9650POPC   C1A52635   9.746  40.826   6.455
 9650POPC   D2A52636   9.699  40.814   6.755
 9650POPC   C3A52637   9.757  40.784   7.055
 9650POPC   C4A52638   9.699  40.770   7.355
 9650POPC   C1B52639   9.534  40.824   6.455
 9650POPC   C2B52640   9.508  40.830   6.755
 9650POPC   C3B52641   9.452  40.783   7.055
 9650POPC   C4B52642   9.465  40.798   7.355
 9651POPC   NC352643  21.348  14.392   5.555
 9651POPC   PO452644  21.424  14.359   5.855
 9651POPC   GL152645  21.420  14.415   6.155
 9651POPC   GL252646  21.527  14.474   6.155
 9651POPC   C1A52647  21.379  14.364   6.455
 9651POPC   D2A52648  21.393  14.444   6.755
 9651POPC   C3A52649  21.355  14.446   7.055
 9651POPC   C4A52650  21.409  14.426   7.355
 9651POPC   C1B52651  21.652  14.446   6.455
 9651POPC   C2B52652  21.632  14.475   6.755
 9651POPC   C3B52653  21.581  14.435   7.055
 9651POPC   C4B52654  21.664  14.500   7.355
 9652POPC   NC352655  18.252   4.333   5.555
 9652POPC   PO452656  18.254   4.357   5.855
 9652POPC   GL152657  18.258   4.314   6.155
 9652POPC   GL252658  18.222   4.253   6.155
 9652POPC   C1A52659  18.304   4.344   6.455
 9652POPC   D2A52660  18.304   4.315   6.755
 9652POPC   C3A52661  18.264   4.342   7.055
 9652POPC   C4A52662  18.317   4.304   7.355
 9652POPC   C1B52663  18.137   4.065   6.455
 9652POPC   C2B52664  18.155   4.139   6.755
 9652POPC   C3B52665  18.147   4.142   7.055
 9652POPC   C4B52666  18.149   4.128   7.355
 9653POPC   NC352667  30.731  43.131   5.555
 9653POPC   PO452668  30.708  43.082   5.855
 9653POPC   GL152669  30.724  43.081   6.155
 9653POPC   GL252670  30.732  43.172   6.155
 9653POPC   C1A52671  30.745  43.065   6.455
 9653POPC   D2A52672  30.657  43.149   6.755
 9653POPC   C3A52673  30.716  43.135   7.055
 9653POPC   C4A52674  30.683  43.141   7.355
 9653POPC   C1B52675  30.854  43.315   6.455
 9653POPC   C2B52676  30.844  43.276   6.755
 9653POPC   C3B52677  30.787  43.288   7.055
 9653POPC   C4B52678  30.848  43.375   7.355
 9654POPC   NC352679  21.374  26.790   5.555
 9654POPC   PO452680  21.426  26.767   5.855
 9654POPC   GL152681  21.358  26.815   6.155
 9654POPC   GL252682  21.532  26.937   6.155
 9654POPC   C1A52683  21.352  26.799   6.455
 9654POPC   D2A52684  21.411  26.853   6.755
 9654POPC   C3A52685  21.436  26.806   7.055
 9654POPC   C4A52686  21.366  26.803   7.355
 9654POPC   C1B52687  21.635  26.955   6.455
 9654POPC   C2B52688  21.548  26.976   6.755
 9654POPC   C3B52689  21.617  26.991   7.055
 9654POPC   C4B52690  21.582  27.010   7.355
 9655POPC   NC352691  22.145  24.529   5.555
 9655POPC   PO452692  22.112  24.463   5.855
 9655POPC   GL152693  22.135  24.538   6.155
 9655POPC   GL252694  22.230  24.404   6.155
 9655POPC   C1A52695  22.172  24.478   6.455
 9655POPC   D2A52696  22.155  24.446   6.755
 9655POPC   C3A52697  22.195  24.480   7.055
 9655POPC   C4A52698  22.181  24.481   7.355
 9655POPC   C1B52699  22.221  24.226   6.455
 9655POPC   C2B52700  22.266  24.267   6.755
 9655POPC   C3B52701  22.292  24.273   7.055
 9655POPC   C4B52702  22.223  24.270   7.355
 9656POPC   NC352703  40.824  40.768   5.555
 9656POPC   PO452704  40.738  40.739   5.855
 9656POPC   GL152705  40.743  40.795   6.155
 9656POPC   GL252706  40.611  40.796   6.155
 9656POPC   C1A52707  40.809  40.778   6.455
 9656POPC   D2A52708  40.776  40.792   6.755
 9656POPC   C3A52709  40.784  40.793   7.055
 9656POPC   C4A52710  40.772  40.789   7.355
 9656POPC   C1B52711  40.554  40.686   6.455
 9656POPC   C2B52712  40.529  40.682   6.755
 9656POPC   C3B52713  40.505  40.722   7.055
 9656POPC   C4B52714  40.524  40.741   7.355
 9657POPC   NC352715  44.711  42.341   5.555
 9657POPC   PO452716  44.613  42.378   5.855
 9657POPC   GL152717  44.626  42.374   6.155
 9657POPC   GL252718  44.685  42.403   6.155
 9657POPC   C1A52719  44.707  42.352   6.455
 9657POPC   D2A52720  44.640  42.335   6.755
 9657POPC   C3A52721  44.710  42.311   7.055
 9657POPC   C4A52722  44.620  42.327   7.355
 9657POPC   C1B52723  44.738  42.548   6.455
 9657POPC   C2B52724  44.773  42.569   6.755
 9657POPC   C3B52725  44.738  42.567   7.055
 9657POPC   C4B52726  44.726  42.603   7.355
 9658POPC   NC352727  29.902  13.594   5.555
 9658POPC   PO452728  29.885  13.583   5.855
 9658POPC   GL152729  29.951  13.587   6.155
 9658POPC   GL252730  30.064  13.731   6.155
 9658POPC   C1A52731  29.934  13.637   6.455
 9658POPC   D2A52732  29.946  13.644   6.755
 9658POPC   C3A52733  29.943  13.634   7.055
 9658POPC   C4A52734  29.872  13.650   7.355
 9658POPC   C1B52735  30.127  13.773   6.455
 9658POPC   C2B52736  30.152  13.733   6.755
 9658POPC   C3B52737  30.157  13.805   7.055
 9658POPC   C4B52738  30.088  13.729   7.355
 9659POPC   NC352739  22.149  30.721   5.555
 9659POPC   PO452740  22.141  30.746   5.855
 9659POPC   GL152741  22.129  30.703   6.155
 9659POPC   GL252742  22.188  30.579   6.155
 9659POPC   C1A52743  22.131  30.662   6.455
 9659POPC   D2A52744  22.176  30.732   6.755
 9659POPC   C3A52745  22.196  30.707   7.055
 9659POPC   C4A52746  22.119  30.699   7.355
 9659POPC   C1B52747  22.220  30.450   6.455
 9659POPC   C2B52748  22.208  30.448   6.755
 9659POPC   C3B52749  22.257  30.471   7.055
 9659POPC   C4B52750  22.210  30.419   7.355
 9660POPC   NC352751   2.786   5.090   5.555
 9660POPC   PO452752   2.802   5.097   5.855
 9660POPC   GL152753   2.748   5.103   6.155
 9660POPC   GL252754   2.911   5.143   6.155
 9660POPC   C1A52755   2.721   5.049   6.455
 9660POPC   D2A52756   2.775   5.099   6.755
 9660POPC   C3A52757   2.760   5.051   7.055
 9660POPC   C4A52758   2.752   5.094   7.355
 9660POPC   C1B52759   3.016   5.156   6.455
 9660POPC   C2B52760   3.013   5.174   6.755
 9660POPC   C3B52761   2.984   5.148   7.055
 9660POPC   C4B52762   3.014   5.110   7.355
 9661POPC   NC352763   4.334  22.156   5.555
 9661POPC   PO452764   4.351  22.129   5.855
 9661POPC   GL152765   4.350  22.128   6.155
 9661POPC   GL252766   4.337  22.282   6.155
 9661POPC   C1A52767   4.280  22.118   6.455
 9661POPC   D2A52768   4.292  22.173   6.755
 9661POPC   C3A52769   4.319  22.176   7.055
 9661POPC   C4A52770   4.291  22.149   7.355
 9661POPC   C1B52771   4.426  22.424   6.455
 9661POPC   C2B52772   4.381  22.359   6.755
 9661POPC   C3B52773   4.375  22.434   7.055
 9661POPC   C4B52774   4.420  22.380   7.355
 9662POPC   NC352775  40.748  22.124   5.555
 9662POPC   PO452776  40.759  22.170   5.855
 9662POPC   GL152777  40.768  22.195   6.155
 9662POPC   GL252778  40.803  22.243   6.155
 9662POPC   C1A52779  40.768  22.113   6.455
 9662POPC   D2A52780  40.813  22.191   6.755
 9662POPC   C3A52781  40.805  22.179   7.055
 9662POPC   C4A52782  40.802  22.212   7.355
 9662POPC   C1B52783  40.715  22.445   6.455
 9662POPC   C2B52784  40.775  22.361   6.755
 9662POPC   C3B52785  40.769  22.391   7.055
 9662POPC   C4B52786  40.731  22.427   7.355
 9663POPC   NC352787   7.419  19.083   5.555
 9663POPC   PO452788   7.456  19.069   5.855
 9663POPC   GL152789   7.446  19.047   6.155
 9663POPC   GL252790   7.318  19.119   6.155
 9663POPC   C1A52791   7.379  19.019   6.455
 9663POPC   D2A52792   7.441  19.014   6.755
 9663POPC   C3A52793   7.400  19.096   7.055
 9663POPC   C4A52794   7.392  19.070   7.355
 9663POPC   C1B52795   7.249  19.271   6.455
 9663POPC   C2B52796   7.282  19.217   6.755
 9663POPC   C3B52797   7.268  19.277   7.055
 9663POPC   C4B52798   7.249  19.308   7.355
 9664POPC   NC352799   8.171  10.497   5.555
 9664POPC   PO452800   8.191  10.475   5.855
 9664POPC   GL152801   8.172  10.540   6.155
 9664POPC   GL252802   8.085  10.574   6.155
 9664POPC   C1A52803   8.178  10.567   6.455
 9664POPC   D2A52804   8.218  10.530   6.755
 9664POPC   C3A52805   8.208  10.475   7.055
 9664POPC   C4A52806   8.177  10.521   7.355
 9664POPC   C1B52807   7.929  10.625   6.455
 9664POPC   C2B52808   7.941  10.640   6.755
 9664POPC   C3B52809   7.976  10.621   7.055
 9664POPC   C4B52810   7.989  10.586   7.355
 9665POPC   NC352811  22.983  30.745   5.555
 9665POPC   PO452812  22.968  30.728   5.855
 9665POPC   GL152813  22.984  30.705   6.155
 9665POPC   GL252814  22.995  30.636   6.155
 9665POPC   C1A52815  22.920  30.727   6.455
 9665POPC   D2A52816  22.954  30.727   6.755
 9665POPC   C3A52817  22.957  30.674   7.055
 9665POPC   C4A52818  22.988  30.739   7.355
 9665POPC   C1B52819  23.056  30.511   6.455
 9665POPC   C2B52820  23.142  30.515   6.755
 9665POPC   C3B52821  23.119  30.548   7.055
 9665POPC   C4B52822  23.131  30.527   7.355
 9666POPC   NC352823  37.683  42.346   5.555
 9666POPC   PO452824  37.656  42.326   5.855
 9666POPC   GL152825  37.706  42.352   6.155
 9666POPC   GL252826  37.763  42.345   6.155
 9666POPC   C1A52827  37.684  42.351   6.455
 9666POPC   D2A52828  37.689  42.341   6.755
 9666POPC   C3A52829  37.678  42.324   7.055
 9666POPC   C4A52830  37.656  42.345   7.355
 9666POPC   C1B52831  37.942  42.336   6.455
 9666POPC   C2B52832  37.915  42.305   6.755
 9666POPC   C3B52833  37.926  42.371   7.055
 9666POPC   C4B52834  37.888  42.373   7.355
 9667POPC   NC352835   1.970  39.202   5.555
 9667POPC   PO452836   1.957  39.206   5.855
 9667POPC   GL152837   1.945  39.215   6.155
 9667POPC   GL252838   1.940  39.086   6.155
 9667POPC   C1A52839   1.990  39.196   6.455
 9667POPC   D2A52840   1.999  39.228   6.755
 9667POPC   C3A52841   2.004  39.204   7.055
 9667POPC   C4A52842   2.022  39.240   7.355
 9667POPC   C1B52843   1.923  38.956   6.455
 9667POPC   C2B52844   1.883  38.968   6.755
 9667POPC   C3B52845   1.881  38.966   7.055
 9667POPC   C4B52846   1.910  38.958   7.355
 9668POPC   NC352847  32.989   2.019   5.555
 9668POPC   PO452848  33.038   1.998   5.855
 9668POPC   GL152849  33.023   2.019   6.155
 9668POPC   GL252850  33.041   2.103   6.155
 9668POPC   C1A52851  32.993   1.982   6.455
 9668POPC   D2A52852  33.021   2.023   6.755
 9668POPC   C3A52853  32.989   1.965   7.055
 9668POPC   C4A52854  33.049   2.005   7.355
 9668POPC   C1B52855  33.069   2.243   6.455
 9668POPC   C2B52856  33.048   2.206   6.755
 9668POPC   C3B52857  33.040   2.208   7.055
 9668POPC   C4B52858  32.983   2.243   7.355
 9669POPC   NC352859  34.544  44.649   5.555
 9669POPC   PO452860  34.559  44.657   5.855
 9669POPC   GL152861  34.561  44.654   6.155
 9669POPC   GL252862  34.671  44.603   6.155
 9669POPC   C1A52863  34.610  44.661   6.455
 9669POPC   D2A52864  34.567  44.613   6.755
 9669POPC   C3A52865  34.544  44.652   7.055
 9669POPC   C4A52866  34.597  44.621   7.355
 9669POPC   C1B52867  34.748  44.490   6.455
 9669POPC   C2B52868  34.795  44.482   6.755
 9669POPC   C3B52869  34.779  44.457   7.055
 9669POPC   C4B52870  34.743  44.531   7.355
 9670POPC   NC352871   0.464  29.903   5.555
 9670POPC   PO452872   0.440  29.906   5.855
 9670POPC   GL152873   0.435  29.955   6.155
 9670POPC   GL252874   0.433  29.834   6.155
 9670POPC   C1A52875   0.452  29.874   6.455
 9670POPC   D2A52876   0.481  29.889   6.755
 9670POPC   C3A52877   0.435  29.926   7.055
 9670POPC   C4A52878   0.412  29.915   7.355
 9670POPC   C1B52879   0.355  29.718   6.455
 9670POPC   C2B52880   0.392  29.650   6.755
 9670POPC   C3B52881   0.406  29.673   7.055
 9670POPC   C4B52882   0.364  29.668   7.355
 9671POPC   NC352883   8.228  39.197   5.555
 9671POPC   PO452884   8.243  39.209   5.855
 9671POPC   GL152885   8.238  39.197   6.155
 9671POPC   GL252886   8.241  39.388   6.155
 9671POPC   C1A52887   8.222  39.235   6.455
 9671POPC   D2A52888   8.208  39.213   6.755
 9671POPC   C3A52889   8.234  39.278   7.055
 9671POPC   C4A52890   8.245  39.185   7.355
 9671POPC   C1B52891   8.266  39.425   6.455
 9671POPC   C2B52892   8.241  39.468   6.755
 9671POPC   C3B52893   8.241  39.496   7.055
 9671POPC   C4B52894   8.310  39.521   7.355
 9672POPC   NC352895  25.218  14.359   5.555
 9672POPC   PO452896  25.287  14.427   5.855
 9672POPC   GL152897  25.282  14.355   6.155
 9672POPC   GL252898  25.183  14.529   6.155
 9672POPC   C1A52899  25.260  14.440   6.455
 9672POPC   D2A52900  25.315  14.388   6.755
 9672POPC   C3A52901  25.276  14.397   7.055
 9672POPC   C4A52902  25.286  14.398   7.355
 9672POPC   C1B52903  25.176  14.617   6.455
 9672POPC   C2B52904  25.141  14.665   6.755
 9672POPC   C3B52905  25.128  14.624   7.055
 9672POPC   C4B52906  25.112  14.616   7.355
 9673POPC   NC352907   6.658  15.185   5.555
 9673POPC   PO452908   6.694  15.224   5.855
 9673POPC   GL152909   6.618  15.188   6.155
 9673POPC   GL252910   6.638  15.328   6.155
 9673POPC   C1A52911   6.640  15.229   6.455
 9673POPC   D2A52912   6.596  15.201   6.755
 9673POPC   C3A52913   6.645  15.142   7.055
 9673POPC   C4A52914   6.666  15.129   7.355
 9673POPC   C1B52915   6.703  15.409   6.455
 9673POPC   C2B52916   6.700  15.435   6.755
 9673POPC   C3B52917   6.653  15.405   7.055
 9673POPC   C4B52918   6.692  15.433   7.355
 9674POPC   NC352919  36.854  36.157   5.555
 9674POPC   PO452920  36.927  36.156   5.855
 9674POPC   GL152921  36.883  36.170   6.155
 9674POPC   GL252922  36.954  35.972   6.155
 9674POPC   C1A52923  36.937  36.082   6.455
 9674POPC   D2A52924  36.858  36.127   6.755
 9674POPC   C3A52925  36.899  36.098   7.055
 9674POPC   C4A52926  36.947  36.155   7.355
 9674POPC   C1B52927  36.978  35.908   6.455
 9674POPC   C2B52928  37.019  35.855   6.755
 9674POPC   C3B52929  36.972  35.859   7.055
 9674POPC   C4B52930  36.954  35.885   7.355
 9675POPC   NC352931  30.671   3.543   5.555
 9675POPC   PO452932  30.679   3.518   5.855
 9675POPC   GL152933  30.657   3.546   6.155
 9675POPC   GL252934  30.848   3.634   6.155
 9675POPC   C1A52935  30.700   3.549   6.455
 9675POPC   D2A52936  30.730   3.509   6.755
 9675POPC   C3A52937  30.718   3.502   7.055
 9675POPC   C4A52938  30.734   3.567   7.355
 9675POPC   C1B52939  30.867   3.713   6.455
 9675POPC   C2B52940  30.908   3.686   6.755
 9675POPC   C3B52941  30.914   3.698   7.055
 9675POPC   C4B52942  30.931   3.713   7.355
 9676POPC   NC352943  29.938  41.593   5.555
 9676POPC   PO452944  29.913  41.595   5.855
 9676POPC   GL152945  29.946  41.536   6.155
 9676POPC   GL252946  29.809  41.668   6.155
 9676POPC   C1A52947  29.902  41.546   6.455
 9676POPC   D2A52948  29.957  41.553   6.755
 9676POPC   C3A52949  29.952  41.564   7.055
 9676POPC   C4A52950  29.947  41.533   7.355
 9676POPC   C1B52951  29.815  41.782   6.455
 9676POPC   C2B52952  29.773  41.796   6.755
 9676POPC   C3B52953  29.832  41.727   7.055
 9676POPC   C4B52954  29.780  41.766   7.355
 9677POPC   NC352955   6.615   3.518   5.555
 9677POPC   PO452956   6.646   3.525   5.855
 9677POPC   GL152957   6.605   3.563   6.155
 9677POPC   GL252958   6.791   3.510   6.155
 9677POPC   C1A52959   6.667   3.539   6.455
 9677POPC   D2A52960   6.603   3.545   6.755
 9677POPC   C3A52961   6.655   3.581   7.055
 9677POPC   C4A52962   6.652   3.498   7.355
 9677POPC   C1B52963   6.920   3.443   6.455
 9677POPC   C2B52964   6.885   3.447   6.755
 9677POPC   C3B52965   6.914   3.474   7.055
 9677POPC   C4B52966   6.893   3.458   7.355
 9678POPC   NC352967  14.359  14.437   5.555
 9678POPC   PO452968  14.436  14.447   5.855
 9678POPC   GL152969  14.361  14.450   6.155
 9678POPC   GL252970  14.367  14.327   6.155
 9678POPC   C1A52971  14.423  14.400   6.455
 9678POPC   D2A52972  14.377  14.407   6.755
 9678POPC   C3A52973  14.452  14.416   7.055
 9678POPC   C4A52974  14.451  14.384   7.355
 9678POPC   C1B52975  14.367  14.202   6.455
 9678POPC   C2B52976  14.358  14.128   6.755
 9678POPC   C3B52977  14.354  14.193   7.055
 9678POPC   C4B52978  14.355  14.154   7.355
 9679POPC   NC352979  16.684  32.206   5.555
 9679POPC   PO452980  16.775  32.229   5.855
 9679POPC   GL152981  16.698  32.256   6.155
 9679POPC   GL252982  16.798  32.203   6.155
 9679POPC   C1A52983  16.707  32.273   6.455
 9679POPC   D2A52984  16.689  32.220   6.755
 9679POPC   C3A52985  16.774  32.260   7.055
 9679POPC   C4A52986  16.709  32.214   7.355
 9679POPC   C1B52987  16.952  32.130   6.455
 9679POPC   C2B52988  16.885  32.057   6.755
 9679POPC   C3B52989  16.904  32.081   7.055
 9679POPC   C4B52990  16.894  32.044   7.355
 9680POPC   NC352991  39.233  25.270   5.555
 9680POPC   PO452992  39.227  25.227   5.855
 9680POPC   GL152993  39.277  25.307   6.155
 9680POPC   GL252994  39.392  25.230   6.155
 9680POPC   C1A52995  39.264  25.298   6.455
 9680POPC   D2A52996  39.242  25.247   6.755
 9680POPC   C3A52997  39.224  25.303   7.055
 9680POPC   C4A52998  39.226  25.220   7.355
 9680POPC   C1B52999  39.433  25.255   6.455
 9680POPC   C2B53000  39.525  25.253   6.755
 9680POPC   C3B53001  39.458  25.234   7.055
 9680POPC   C4B53002  39.482  25.266   7.355
 9681POPC   NC353003  19.078   5.827   5.555
 9681POPC   PO453004  19.010   5.859   5.855
 9681POPC   GL153005  19.030   5.882   6.155
 9681POPC   GL253006  19.027   5.764   6.155
 9681POPC   C1A53007  19.042   5.858   6.455
 9681POPC   D2A53008  19.096   5.872   6.755
 9681POPC   C3A53009  19.092   5.890   7.055
 9681POPC   C4A53010  19.062   5.852   7.355
 9681POPC   C1B53011  19.024   5.595   6.455
 9681POPC   C2B53012  19.062   5.582   6.755
 9681POPC   C3B53013  19.071   5.644   7.055
 9681POPC   C4B53014  19.063   5.650   7.355
 9682POPC   NC353015  23.689  14.409   5.555
 9682POPC   PO453016  23.670  14.435   5.855
 9682POPC   GL153017  23.756  14.375   6.155
 9682POPC   GL253018  23.750  14.267   6.155
 9682POPC   C1A53019  23.685  14.449   6.455
 9682POPC   D2A53020  23.741  14.437   6.755
 9682POPC   C3A53021  23.749  14.402   7.055
 9682POPC   C4A53022  23.674  14.396   7.355
 9682POPC   C1B53023  23.808  14.142   6.455
 9682POPC   C2B53024  23.759  14.159   6.755
 9682POPC   C3B53025  23.804  14.151   7.055
 9682POPC   C4B53026  23.797  14.148   7.355
 9683POPC   NC353027   7.458  10.523   5.555
 9683POPC   PO453028   7.420  10.527   5.855
 9683POPC   GL153029   7.378  10.523   6.155
 9683POPC   GL253030   7.570  10.527   6.155
 9683POPC   C1A53031   7.386  10.530   6.455
 9683POPC   D2A53032   7.419  10.547   6.755
 9683POPC   C3A53033   7.378  10.560   7.055
 9683POPC   C4A53034   7.384  10.565   7.355
 9683POPC   C1B53035   7.639  10.534   6.455
 9683POPC   C2B53036   7.657  10.499   6.755
 9683POPC   C3B53037   7.665  10.589   7.055
 9683POPC   C4B53038   7.630  10.534   7.355
 9684POPC   NC353039  29.115  26.837   5.555
 9684POPC   PO453040  29.120  26.864   5.855
 9684POPC   GL153041  29.145  26.785   6.155
 9684POPC   GL253042  29.203  26.752   6.155
 9684POPC   C1A53043  29.111  26.816   6.455
 9684POPC   D2A53044  29.134  26.860   6.755
 9684POPC   C3A53045  29.129  26.825   7.055
 9684POPC   C4A53046  29.158  26.820   7.355
 9684POPC   C1B53047  29.266  26.575   6.455
 9684POPC   C2B53048  29.271  26.586   6.755
 9684POPC   C3B53049  29.265  26.585   7.055
 9684POPC   C4B53050  29.195  26.556   7.355
 9685POPC   NC353051  27.604   6.649   5.555
 9685POPC   PO453052  27.638   6.675   5.855
 9685POPC   GL153053  27.562   6.624   6.155
 9685POPC   GL253054  27.514   6.664   6.155
 9685POPC   C1A53055  27.575   6.655   6.455
 9685POPC   D2A53056  27.583   6.608   6.755
 9685POPC   C3A53057  27.612   6.631   7.055
 9685POPC   C4A53058  27.571   6.637   7.355
 9685POPC   C1B53059  27.345   6.781   6.455
 9685POPC   C2B53060  27.330   6.800   6.755
 9685POPC   C3B53061  27.385   6.759   7.055
 9685POPC   C4B53062  27.350   6.704   7.355
 9686POPC   NC353063   1.973  20.607   5.555
 9686POPC   PO453064   1.976  20.621   5.855
 9686POPC   GL153065   1.969  20.644   6.155
 9686POPC   GL253066   2.064  20.657   6.155
 9686POPC   C1A53067   1.993  20.607   6.455
 9686POPC   D2A53068   1.973  20.619   6.755
 9686POPC   C3A53069   1.990  20.603   7.055
 9686POPC   C4A53070   2.020  20.608   7.355
 9686POPC   C1B53071   2.115  20.764   6.455
 9686POPC   C2B53072   2.169  20.827   6.755
 9686POPC   C3B53073   2.117  20.837   7.055
 9686POPC   C4B53074   2.131  20.808   7.355
 9687POPC   NC353075  43.093  37.638   5.555
 9687POPC   PO453076  43.094  37.636   5.855
 9687POPC   GL153077  43.134  37.695   6.155
 9687POPC   GL253078  42.999  37.753   6.155
 9687POPC   C1A53079  43.089  37.661   6.455
 9687POPC   D2A53080  43.128  37.722   6.755
 9687POPC   C3A53081  43.079  37.691   7.055
 9687POPC   C4A53082  43.078  37.640   7.355
 9687POPC   C1B53083  42.850  37.786   6.455
 9687POPC   C2B53084  42.935  37.841   6.755
 9687POPC   C3B53085  42.891  37.844   7.055
 9687POPC   C4B53086  42.942  37.783   7.355
 9688POPC   NC353087  24.480   1.174   5.555
 9688POPC   PO453088  24.498   1.213   5.855
 9688POPC   GL153089  24.452   1.229   6.155
 9688POPC   GL253090  24.593   1.170   6.155
 9688POPC   C1A53091  24.461   1.170   6.455
 9688POPC   D2A53092  24.523   1.236   6.755
 9688POPC   C3A53093  24.485   1.179   7.055
 9688POPC   C4A53094  24.519   1.219   7.355
 9688POPC   C1B53095  24.704   1.156   6.455
 9688POPC   C2B53096  24.743   1.162   6.755
 9688POPC   C3B53097  24.726   1.187   7.055
 9688POPC   C4B53098  24.697   1.141   7.355
 9689POPC   NC353099   7.467  32.288   5.555
 9689POPC   PO453100   7.414  32.233   5.855
 9689POPC   GL153101   7.464  32.206   6.155
 9689POPC   GL253102   7.422  32.322   6.155
 9689POPC   C1A53103   7.443  32.279   6.455
 9689POPC   D2A53104   7.428  32.205   6.755
 9689POPC   C3A53105   7.409  32.205   7.055
 9689POPC   C4A53106   7.425  32.243   7.355
 9689POPC   C1B53107   7.509  32.515   6.455
 9689POPC   C2B53108   7.472  32.525   6.755
 9689POPC   C3B53109   7.467  32.497   7.055
 9689POPC   C4B53110   7.420  32.499   7.355
 9690POPC   NC353111  24.504  25.287   5.555
 9690POPC   PO453112  24.507  25.271   5.855
 9690POPC   GL153113  24.492  25.219   6.155
 9690POPC   GL253114  24.364  25.377   6.155
 9690POPC   C1A53115  24.498  25.268   6.455
 9690POPC   D2A53116  24.506  25.270   6.755
 9690POPC   C3A53117  24.480  25.268   7.055
 9690POPC   C4A53118  24.442  25.226   7.355
 9690POPC   C1B53119  24.315  25.399   6.455
 9690POPC   C2B53120  24.323  25.369   6.755
 9690POPC   C3B53121  24.241  25.423   7.055
 9690POPC   C4B53122  24.274  25.346   7.355
 9691POPC   NC353123  22.903  12.840   5.555
 9691POPC   PO453124  22.970  12.866   5.855
 9691POPC   GL153125  22.943  12.884   6.155
 9691POPC   GL253126  23.010  12.906   6.155
 9691POPC   C1A53127  22.969  12.803   6.455
 9691POPC   D2A53128  22.891  12.849   6.755
 9691POPC   C3A53129  22.974  12.875   7.055
 9691POPC   C4A53130  22.980  12.860   7.355
 9691POPC   C1B53131  23.094  13.038   6.455
 9691POPC   C2B53132  23.137  13.033   6.755
 9691POPC   C3B53133  23.049  13.028   7.055
 9691POPC   C4B53134  23.098  13.005   7.355
 9692POPC   NC353135   8.190   8.990   5.555
 9692POPC   PO453136   8.204   8.957   5.855
 9692POPC   GL153137   8.190   8.953   6.155
 9692POPC   GL253138   8.122   8.846   6.155
 9692POPC   C1A53139   8.166   9.021   6.455
 9692POPC   D2A53140   8.215   8.934   6.755
 9692POPC   C3A53141   8.171   8.943   7.055
 9692POPC   C4A53142   8.198   8.987   7.355
 9692POPC   C1B53143   8.005   8.801   6.455
 9692POPC   C2B53144   8.006   8.742   6.755
 9692POPC   C3B53145   8.041   8.781   7.055
 9692POPC   C4B53146   8.012   8.806   7.355
 9693POPC   NC353147  24.489  12.045   5.555
 9693POPC   PO453148  24.472  12.043   5.855
 9693POPC   GL153149  24.449  12.101   6.155
 9693POPC   GL253150  24.628  12.098   6.155
 9693POPC   C1A53151  24.537  12.089   6.455
 9693POPC   D2A53152  24.470  12.039   6.755
 9693POPC   C3A53153  24.454  12.097   7.055
 9693POPC   C4A53154  24.502  12.026   7.355
 9693POPC   C1B53155  24.755  12.006   6.455
 9693POPC   C2B53156  24.708  12.041   6.755
 9693POPC   C3B53157  24.692  12.077   7.055
 9693POPC   C4B53158  24.688  12.009   7.355
 9694POPC   NC353159  19.855  15.984   5.555
 9694POPC   PO453160  19.862  15.979   5.855
 9694POPC   GL153161  19.793  15.926   6.155
 9694POPC   GL253162  19.677  15.947   6.155
 9694POPC   C1A53163  19.795  15.994   6.455
 9694POPC   D2A53164  19.873  15.915   6.755
 9694POPC   C3A53165  19.790  15.908   7.055
 9694POPC   C4A53166  19.843  15.948   7.355
 9694POPC   C1B53167  19.643  15.993   6.455
 9694POPC   C2B53168  19.623  16.021   6.755
 9694POPC   C3B53169  19.552  15.981   7.055
 9694POPC   C4B53170  19.610  16.046   7.355
 9695POPC   NC353171  18.324   3.565   5.555
 9695POPC   PO453172  18.234   3.562   5.855
 9695POPC   GL153173  18.254   3.534   6.155
 9695POPC   GL253174  18.298   3.710   6.155
 9695POPC   C1A53175  18.240   3.572   6.455
 9695POPC   D2A53176  18.268   3.504   6.755
 9695POPC   C3A53177  18.249   3.543   7.055
 9695POPC   C4A53178  18.274   3.525   7.355
 9695POPC   C1B53179  18.292   3.800   6.455
 9695POPC   C2B53180  18.287   3.752   6.755
 9695POPC   C3B53181  18.288   3.739   7.055
 9695POPC   C4B53182  18.266   3.742   7.355
 9696POPC   NC353183  44.663  33.805   5.555
 9696POPC   PO453184  44.639  33.810   5.855
 9696POPC   GL153185  44.629  33.847   6.155
 9696POPC   GL253186  44.591  33.696   6.155
 9696POPC   C1A53187  44.648  33.787   6.455
 9696POPC   D2A53188  44.681  33.757   6.755
 9696POPC   C3A53189  44.631  33.837   7.055
 9696POPC   C4A53190  44.704  33.836   7.355
 9696POPC   C1B53191  44.527  33.611   6.455
 9696POPC   C2B53192  44.531  33.546   6.755
 9696POPC   C3B53193  44.584  33.536   7.055
 9696POPC   C4B53194  44.550  33.612   7.355
 9697POPC   NC353195  42.378  26.048   5.555
 9697POPC   PO453196  42.319  26.053   5.855
 9697POPC   GL153197  42.377  26.058   6.155
 9697POPC   GL253198  42.291  26.119   6.155
 9697POPC   C1A53199  42.307  26.037   6.455
 9697POPC   D2A53200  42.326  25.998   6.755
 9697POPC   C3A53201  42.328  25.993   7.055
 9697POPC   C4A53202  42.302  26.057   7.355
 9697POPC   C1B53203  42.392  26.330   6.455
 9697POPC   C2B53204  42.352  26.335   6.755
 9697POPC   C3B53205  42.311  26.294   7.055
 9697POPC   C4B53206  42.332  26.279   7.355
 9698POPC   NC353207  12.032   3.502   5.555
 9698POPC   PO453208  12.101   3.497   5.855
 9698POPC   GL153209  12.073   3.530   6.155
 9698POPC   GL253210  12.152   3.571   6.155
 9698POPC   C1A53211  12.117   3.554   6.455
 9698POPC   D2A53212  12.060   3.580   6.755
 9698POPC   C3A53213  12.115   3.506   7.055
 9698POPC   C4A53214  12.067   3.523   7.355
 9698POPC   C1B53215  12.310   3.569   6.455
 9698POPC   C2B53216  12.333   3.606   6.755
 9698POPC   C3B53217  12.342   3.639   7.055
 9698POPC   C4B53218  12.340   3.588   7.355
 9699POPC   NC353219  14.403   7.387   5.555
 9699POPC   PO453220  14.370   7.406   5.855
 9699POPC   GL153221  14.432   7.388   6.155
 9699POPC   GL253222  14.518   7.427   6.155
 9699POPC   C1A53223  14.433   7.388   6.455
 9699POPC   D2A53224  14.451   7.404   6.755
 9699POPC   C3A53225  14.425   7.427   7.055
 9699POPC   C4A53226  14.409   7.399   7.355
 9699POPC   C1B53227  14.645   7.454   6.455
 9699POPC   C2B53228  14.670   7.396   6.755
 9699POPC   C3B53229  14.668   7.456   7.055
 9699POPC   C4B53230  14.654   7.380   7.355
 9700POPC   NC353231  31.506  31.505   5.555
 9700POPC   PO453232  31.507  31.478   5.855
 9700POPC   GL153233  31.429  31.458   6.155
 9700POPC   GL253234  31.486  31.384   6.155
 9700POPC   C1A53235  31.424  31.487   6.455
 9700POPC   D2A53236  31.462  31.457   6.755
 9700POPC   C3A53237  31.522  31.442   7.055
 9700POPC   C4A53238  31.472  31.468   7.355
 9700POPC   C1B53239  31.626  31.214   6.455
 9700POPC   C2B53240  31.622  31.295   6.755
 9700POPC   C3B53241  31.557  31.276   7.055
 9700POPC   C4B53242  31.565  31.251   7.355
 9701POPC   NC353243  40.045  24.443   5.555
 9701POPC   PO453244  40.009  24.498   5.855
 9701POPC   GL153245  40.033  24.535   6.155
 9701POPC   GL253246  40.030  24.345   6.155
 9701POPC   C1A53247  39.972  24.514   6.455
 9701POPC   D2A53248  39.992  24.442   6.755
 9701POPC   C3A53249  40.023  24.503   7.055
 9701POPC   C4A53250  39.996  24.516   7.355
 9701POPC   C1B53251  40.066  24.273   6.455
 9701POPC   C2B53252  40.119  24.286   6.755
 9701POPC   C3B53253  40.096  24.264   7.055
 9701POPC   C4B53254  40.107  24.208   7.355
 9702POPC   NC353255  22.924  41.544   5.555
 9702POPC   PO453256  22.958  41.599   5.855
 9702POPC   GL153257  22.897  41.536   6.155
 9702POPC   GL253258  22.877  41.661   6.155
 9702POPC   C1A53259  22.945  41.577   6.455
 9702POPC   D2A53260  22.908  41.515   6.755
 9702POPC   C3A53261  22.931  41.513   7.055
 9702POPC   C4A53262  22.984  41.522   7.355
 9702POPC   C1B53263  22.894  41.778   6.455
 9702POPC   C2B53264  22.857  41.797   6.755
 9702POPC   C3B53265  22.896  41.790   7.055
 9702POPC   C4B53266  22.914  41.789   7.355
 9703POPC   NC353267  29.115  40.746   5.555
 9703POPC   PO453268  29.171  40.798   5.855
 9703POPC   GL153269  29.100  40.760   6.155
 9703POPC   GL253270  29.055  40.814   6.155
 9703POPC   C1A53271  29.155  40.775   6.455
 9703POPC   D2A53272  29.127  40.815   6.755
 9703POPC   C3A53273  29.135  40.742   7.055
 9703POPC   C4A53274  29.184  40.736   7.355
 9703POPC   C1B53275  28.869  40.728   6.455
 9703POPC   C2B53276  28.918  40.742   6.755
 9703POPC   C3B53277  28.858  40.710   7.055
 9703POPC   C4B53278  28.866  40.770   7.355
 9704POPC   NC353279   5.140   9.723   5.555
 9704POPC   PO453280   5.083   9.713   5.855
 9704POPC   GL153281   5.127   9.779   6.155
 9704POPC   GL253282   5.171   9.850   6.155
 9704POPC   C1A53283   5.070   9.769   6.455
 9704POPC   D2A53284   5.129   9.732   6.755
 9704POPC   C3A53285   5.080   9.731   7.055
 9704POPC   C4A53286   5.112   9.724   7.355
 9704POPC   C1B53287   5.169   9.943   6.455
 9704POPC   C2B53288   5.213   9.941   6.755
 9704POPC   C3B53289   5.236   9.935   7.055
 9704POPC   C4B53290   5.213   9.928   7.355
 9705POPC   NC353291  10.521  36.158   5.555
 9705POPC   PO453292  10.485  36.087   5.855
 9705POPC   GL153293  10.569  36.136   6.155
 9705POPC   GL253294  10.420  36.111   6.155
 9705POPC   C1A53295  10.563  36.132   6.455
 9705POPC   D2A53296  10.571  36.098   6.755
 9705POPC   C3A53297  10.555  36.142   7.055
 9705POPC   C4A53298  10.539  36.145   7.355
 9705POPC   C1B53299  10.318  36.126   6.455
 9705POPC   C2B53300  10.248  36.079   6.755
 9705POPC   C3B53301  10.250  36.128   7.055
 9705POPC   C4B53302  10.278  36.077   7.355
 9706POPC   NC353303  21.385  44.706   5.555
 9706POPC   PO453304  21.368  44.710   5.855
 9706POPC   GL153305  21.408  44.614   6.155
 9706POPC   GL253306  21.383  44.520   6.155
 9706POPC   C1A53307  21.389  44.684   6.455
 9706POPC   D2A53308  21.386  44.659   6.755
 9706POPC   C3A53309  21.371  44.666   7.055
 9706POPC   C4A53310  21.401  44.705   7.355
 9706POPC   C1B53311  21.464  44.425   6.455
 9706POPC   C2B53312  21.442  44.475   6.755
 9706POPC   C3B53313  21.503  44.391   7.055
 9706POPC   C4B53314  21.460  44.432   7.355
 9707POPC   NC353315  41.582  21.377   5.555
 9707POPC   PO453316  41.538  21.395   5.855
 9707POPC   GL153317  41.517  21.349   6.155
 9707POPC   GL253318  41.482  21.277   6.155
 9707POPC   C1A53319  41.537  21.343   6.455
 9707POPC   D2A53320  41.516  21.353   6.755
 9707POPC   C3A53321  41.564  21.433   7.055
 9707POPC   C4A53322  41.534  21.417   7.355
 9707POPC   C1B53323  41.430  21.217   6.455
 9707POPC   C2B53324  41.414  21.152   6.755
 9707POPC   C3B53325  41.430  21.218   7.055
 9707POPC   C4B53326  41.392  21.145   7.355
 9708POPC   NC353327   1.964   1.942   5.555
 9708POPC   PO453328   1.955   1.955   5.855
 9708POPC   GL153329   1.952   1.942   6.155
 9708POPC   GL253330   2.003   2.087   6.155
 9708POPC   C1A53331   1.994   2.011   6.455
 9708POPC   D2A53332   2.003   2.004   6.755
 9708POPC   C3A53333   1.961   1.975   7.055
 9708POPC   C4A53334   1.945   1.942   7.355
 9708POPC   C1B53335   2.033   2.222   6.455
 9708POPC   C2B53336   1.964   2.205   6.755
 9708POPC   C3B53337   1.974   2.245   7.055
 9708POPC   C4B53338   2.040   2.230   7.355
 9709POPC   NC353339   5.111  20.625   5.555
 9709POPC   PO453340   5.059  20.633   5.855
 9709POPC   GL153341   5.069  20.651   6.155
 9709POPC   GL253342   5.024  20.543   6.155
 9709POPC   C1A53343   5.131  20.614   6.455
 9709POPC   D2A53344   5.112  20.653   6.755
 9709POPC   C3A53345   5.134  20.566   7.055
 9709POPC   C4A53346   5.082  20.562   7.355
 9709POPC   C1B53347   4.980  20.435   6.455
 9709POPC   C2B53348   4.943  20.426   6.755
 9709POPC   C3B53349   4.954  20.378   7.055
 9709POPC   C4B53350   4.932  20.346   7.355
 9710POPC   NC353351  25.278  32.218   5.555
 9710POPC   PO453352  25.278  32.204   5.855
 9710POPC   GL153353  25.303  32.242   6.155
 9710POPC   GL253354  25.353  32.153   6.155
 9710POPC   C1A53355  25.253  32.278   6.455
 9710POPC   D2A53356  25.296  32.219   6.755
 9710POPC   C3A53357  25.276  32.260   7.055
 9710POPC   C4A53358  25.298  32.242   7.355
 9710POPC   C1B53359  25.485  32.182   6.455
 9710POPC   C2B53360  25.530  32.179   6.755
 9710POPC   C3B53361  25.472  32.102   7.055
 9710POPC   C4B53362  25.512  32.113   7.355
 9711POPC   NC353363  42.351   4.357   5.555
 9711POPC   PO453364  42.360   4.305   5.855
 9711POPC   GL153365  42.351   4.348   6.155
 9711POPC   GL253366  42.206   4.273   6.155
 9711POPC   C1A53367  42.347   4.317   6.455
 9711POPC   D2A53368  42.288   4.323   6.755
 9711POPC   C3A53369  42.325   4.326   7.055
 9711POPC   C4A53370  42.358   4.337   7.355
 9711POPC   C1B53371  42.076   4.343   6.455
 9711POPC   C2B53372  42.037   4.281   6.755
 9711POPC   C3B53373  42.036   4.293   7.055
 9711POPC   C4B53374  42.102   4.280   7.355
 9712POPC   NC353375   4.361   3.527   5.555
 9712POPC   PO453376   4.297   3.493   5.855
 9712POPC   GL153377   4.267   3.550   6.155
 9712POPC   GL253378   4.247   3.608   6.155
 9712POPC   C1A53379   4.327   3.518   6.455
 9712POPC   D2A53380   4.284   3.497   6.755
 9712POPC   C3A53381   4.354   3.564   7.055
 9712POPC   C4A53382   4.323   3.522   7.355
 9712POPC   C1B53383   4.146   3.794   6.455
 9712POPC   C2B53384   4.210   3.713   6.755
 9712POPC   C3B53385   4.241   3.735   7.055
 9712POPC   C4B53386   4.238   3.718   7.355
 9713POPC   NC353387  15.167  10.538   5.555
 9713POPC   PO453388  15.229  10.475   5.855
 9713POPC   GL153389  15.144  10.530   6.155
 9713POPC   GL253390  15.142  10.389   6.155
 9713POPC   C1A53391  15.212  10.559   6.455
 9713POPC   D2A53392  15.202  10.545   6.755
 9713POPC   C3A53393  15.132  10.562   7.055
 9713POPC   C4A53394  15.192  10.531   7.355
 9713POPC   C1B53395  15.063  10.321   6.455
 9713POPC   C2B53396  15.056  10.253   6.755
 9713POPC   C3B53397  15.100  10.275   7.055
 9713POPC   C4B53398  15.119  10.333   7.355
 9714POPC   NC353399   8.166  19.880   5.555
 9714POPC   PO453400   8.151  19.869   5.855
 9714POPC   GL153401   8.235  19.815   6.155
 9714POPC   GL253402   8.067  19.825   6.155
 9714POPC   C1A53403   8.207  19.815   6.455
 9714POPC   D2A53404   8.246  19.859   6.755
 9714POPC   C3A53405   8.231  19.814   7.055
 9714POPC   C4A53406   8.193  19.842   7.355
 9714POPC   C1B53407   7.949  19.907   6.455
 9714POPC   C2B53408   7.929  19.945   6.755
 9714POPC   C3B53409   7.919  19.882   7.055
 9714POPC   C4B53410   7.932  19.920   7.355
 9715POPC   NC353411  44.663  40.035   5.555
 9715POPC   PO453412  44.643  39.999   5.855
 9715POPC   GL153413  44.687  39.963   6.155
 9715POPC   GL253414  44.781  40.011   6.155
 9715POPC   C1A53415  44.687  39.958   6.455
 9715POPC   D2A53416  44.636  39.981   6.755
 9715POPC   C3A53417  44.695  39.973   7.055
 9715POPC   C4A53418  44.710  40.039   7.355
 9715POPC   C1B53419  44.926  40.006   6.455
 9715POPC   C2B53420  44.890  39.994   6.755
 9715POPC   C3B53421  44.923  40.089   7.055
 9715POPC   C4B53422  44.929  40.089   7.355
 9716POPC   NC353423  22.206  26.839   5.555
 9716POPC   PO453424  22.180  26.864   5.855
 9716POPC   GL153425  22.202  26.861   6.155
 9716POPC   GL253426  22.063  26.919   6.155
 9716POPC   C1A53427  22.154  26.780   6.455
 9716POPC   D2A53428  22.210  26.783   6.755
 9716POPC   C3A53429  22.154  26.788   7.055
 9716POPC   C4A53430  22.123  26.784   7.355
 9716POPC   C1B53431  22.029  27.002   6.455
 9716POPC   C2B53432  21.978  26.977   6.755
 9716POPC   C3B53433  21.993  27.012   7.055
 9716POPC   C4B53434  21.986  27.015   7.355
 9717POPC   NC353435   8.932  20.607   5.555
 9717POPC   PO453436   9.018  20.638   5.855
 9717POPC   GL153437   9.017  20.656   6.155
 9717POPC   GL253438   9.103  20.583   6.155
 9717POPC   C1A53439   8.989  20.576   6.455
 9717POPC   D2A53440   9.002  20.567   6.755
 9717POPC   C3A53441   8.970  20.598   7.055
 9717POPC   C4A53442   8.993  20.625   7.355
 9717POPC   C1B53443   9.175  20.437   6.455
 9717POPC   C2B53444   9.211  20.494   6.755
 9717POPC   C3B53445   9.220  20.500   7.055
 9717POPC   C4B53446   9.185  20.520   7.355
 9718POPC   NC353447  26.068   8.183   5.555
 9718POPC   PO453448  26.082   8.175   5.855
 9718POPC   GL153449  26.049   8.193   6.155
 9718POPC   GL253450  25.935   8.251   6.155
 9718POPC   C1A53451  26.068   8.160   6.455
 9718POPC   D2A53452  26.007   8.156   6.755
 9718POPC   C3A53453  26.077   8.169   7.055
 9718POPC   C4A53454  26.021   8.170   7.355
 9718POPC   C1B53455  25.750   8.270   6.455
 9718POPC   C2B53456  25.758   8.251   6.755
 9718POPC   C3B53457  25.751   8.196   7.055
 9718POPC   C4B53458  25.843   8.260   7.355
 9719POPC   NC353459  19.100  16.700   5.555
 9719POPC   PO453460  19.051  16.694   5.855
 9719POPC   GL153461  19.057  16.691   6.155
 9719POPC   GL253462  19.012  16.606   6.155
 9719POPC   C1A53463  19.074  16.684   6.455
 9719POPC   D2A53464  19.016  16.743   6.755
 9719POPC   C3A53465  19.064  16.743   7.055
 9719POPC   C4A53466  19.016  16.696   7.355
 9719POPC   C1B53467  19.070  16.530   6.455
 9719POPC   C2B53468  19.047  16.497   6.755
 9719POPC   C3B53469  19.045  16.520   7.055
 9719POPC   C4B53470  19.109  16.479   7.355
 9720POPC   NC353471  27.615   9.721   5.555
 9720POPC   PO453472  27.584   9.710   5.855
 9720POPC   GL153473  27.570   9.710   6.155
 9720POPC   GL253474  27.613   9.599   6.155
 9720POPC   C1A53475  27.604   9.710   6.455
 9720POPC   D2A53476  27.556   9.776   6.755
 9720POPC   C3A53477  27.593   9.783   7.055
 9720POPC   C4A53478  27.555   9.711   7.355
 9720POPC   C1B53479  27.588   9.535   6.455
 9720POPC   C2B53480  27.672   9.541   6.755
 9720POPC   C3B53481  27.620   9.533   7.055
 9720POPC   C4B53482  27.658   9.519   7.355
 9721POPC   NC353483  43.116   8.190   5.555
 9721POPC   PO453484  43.123   8.196   5.855
 9721POPC   GL153485  43.158   8.179   6.155
 9721POPC   GL253486  43.014   8.107   6.155
 9721POPC   C1A53487  43.108   8.228   6.455
 9721POPC   D2A53488  43.083   8.178   6.755
 9721POPC   C3A53489  43.126   8.177   7.055
 9721POPC   C4A53490  43.141   8.150   7.355
 9721POPC   C1B53491  42.881   8.157   6.455
 9721POPC   C2B53492  42.850   8.121   6.755
 9721POPC   C3B53493  42.910   8.109   7.055
 9721POPC   C4B53494  42.910   8.074   7.355
 9722POPC   NC353495  31.497  29.179   5.555
 9722POPC   PO453496  31.470  29.105   5.855
 9722POPC   GL153497  31.441  29.186   6.155
 9722POPC   GL253498  31.570  29.264   6.155
 9722POPC   C1A53499  31.469  29.137   6.455
 9722POPC   D2A53500  31.435  29.160   6.755
 9722POPC   C3A53501  31.473  29.153   7.055
 9722POPC   C4A53502  31.441  29.179   7.355
 9722POPC   C1B53503  31.660  29.382   6.455
 9722POPC   C2B53504  31.659  29.382   6.755
 9722POPC   C3B53505  31.632  29.366   7.055
 9722POPC   C4B53506  31.677  29.349   7.355
 9723POPC   NC353507  36.873   5.827   5.555
 9723POPC   PO453508  36.859   5.884   5.855
 9723POPC   GL153509  36.859   5.888   6.155
 9723POPC   GL253510  36.984   5.900   6.155
 9723POPC   C1A53511  36.861   5.846   6.455
 9723POPC   D2A53512  36.933   5.913   6.755
 9723POPC   C3A53513  36.871   5.870   7.055
 9723POPC   C4A53514  36.945   5.898   7.355
 9723POPC   C1B53515  37.111   5.895   6.455
 9723POPC   C2B53516  37.182   5.899   6.755
 9723POPC   C3B53517  37.148   5.891   7.055
 9723POPC   C4B53518  37.104   5.872   7.355
 9724POPC   NC353519  43.146  35.383   5.555
 9724POPC   PO453520  43.134  35.399   5.855
 9724POPC   GL153521  43.062  35.385   6.155
 9724POPC   GL253522  43.059  35.465   6.155
 9724POPC   C1A53523  43.087  35.347   6.455
 9724POPC   D2A53524  43.114  35.394   6.755
 9724POPC   C3A53525  43.085  35.311   7.055
 9724POPC   C4A53526  43.120  35.339   7.355
 9724POPC   C1B53527  43.018  35.622   6.455
 9724POPC   C2B53528  42.948  35.532   6.755
 9724POPC   C3B53529  43.034  35.555   7.055
 9724POPC   C4B53530  42.976  35.578   7.355
 9725POPC   NC353531   2.803   9.734   5.555
 9725POPC   PO453532   2.744   9.791   5.855
 9725POPC   GL153533   2.748   9.787   6.155
 9725POPC   GL253534   2.650   9.793   6.155
 9725POPC   C1A53535   2.793   9.742   6.455
 9725POPC   D2A53536   2.812   9.790   6.755
 9725POPC   C3A53537   2.736   9.746   7.055
 9725POPC   C4A53538   2.751   9.768   7.355
 9725POPC   C1B53539   2.567   9.918   6.455
 9725POPC   C2B53540   2.558   9.894   6.755
 9725POPC   C3B53541   2.573   9.908   7.055
 9725POPC   C4B53542   2.555   9.881   7.355
 9726POPC   NC353543  24.459  27.588   5.555
 9726POPC   PO453544  24.454  27.598   5.855
 9726POPC   GL153545  24.507  27.636   6.155
 9726POPC   GL253546  24.550  27.513   6.155
 9726POPC   C1A53547  24.488  27.550   6.455
 9726POPC   D2A53548  24.462  27.549   6.755
 9726POPC   C3A53549  24.522  27.590   7.055
 9726POPC   C4A53550  24.481  27.601   7.355
 9726POPC   C1B53551  24.568  27.366   6.455
 9726POPC   C2B53552  24.631  27.363   6.755
 9726POPC   C3B53553  24.578  27.403   7.055
 9726POPC   C4B53554  24.621  27.331   7.355
 9727POPC   NC353555  40.769  22.936   5.555
 9727POPC   PO453556  40.779  22.894   5.855
 9727POPC   GL153557  40.759  22.965   6.155
 9727POPC   GL253558  40.714  22.866   6.155
 9727POPC   C1A53559  40.771  22.915   6.455
 9727POPC   D2A53560  40.760  22.936   6.755
 9727POPC   C3A53561  40.817  22.888   7.055
 9727POPC   C4A53562  40.768  22.966   7.355
 9727POPC   C1B53563  40.553  22.821   6.455
 9727POPC   C2B53564  40.567  22.764   6.755
 9727POPC   C3B53565  40.586  22.739   7.055
 9727POPC   C4B53566  40.585  22.817   7.355
 9728POPC   NC353567  37.673  14.445   5.555
 9728POPC   PO453568  37.727  14.389   5.855
 9728POPC   GL153569  37.638  14.387   6.155
 9728POPC   GL253570  37.729  14.296   6.155
 9728POPC   C1A53571  37.657  14.388   6.455
 9728POPC   D2A53572  37.646  14.423   6.755
 9728POPC   C3A53573  37.644  14.382   7.055
 9728POPC   C4A53574  37.725  14.414   7.355
 9728POPC   C1B53575  37.718  14.187   6.455
 9728POPC   C2B53576  37.709  14.120   6.755
 9728POPC   C3B53577  37.723  14.192   7.055
 9728POPC   C4B53578  37.705  14.117   7.355
 9729POPC   NC353579  44.649  28.357   5.555
 9729POPC   PO453580  44.670  28.407   5.855
 9729POPC   GL153581  44.670  28.365   6.155
 9729POPC   GL253582  44.517  28.264   6.155
 9729POPC   C1A53583  44.669  28.415   6.455
 9729POPC   D2A53584  44.662  28.388   6.755
 9729POPC   C3A53585  44.667  28.331   7.055
 9729POPC   C4A53586  44.687  28.413   7.355
 9729POPC   C1B53587  44.415  28.289   6.455
 9729POPC   C2B53588  44.401  28.263   6.755
 9729POPC   C3B53589  44.434  28.283   7.055
 9729POPC   C4B53590  44.425  28.256   7.355
 9730POPC   NC353591   5.834  44.703   5.555
 9730POPC   PO453592   5.841  44.712   5.855
 9730POPC   GL153593   5.903  44.676   6.155
 9730POPC   GL253594   5.798  44.809   6.155
 9730POPC   C1A53595   5.851  44.687   6.455
 9730POPC   D2A53596   5.915  44.629   6.755
 9730POPC   C3A53597   5.847  44.650   7.055
 9730POPC   C4A53598   5.880  44.665   7.355
 9730POPC   C1B53599   5.732  44.882   6.455
 9730POPC   C2B53600   5.770  44.863   6.755
 9730POPC   C3B53601   5.690  44.909   7.055
 9730POPC   C4B53602   5.732  44.915   7.355
 9731POPC   NC353603  33.843   1.205   5.555
 9731POPC   PO453604  33.808   1.221   5.855
 9731POPC   GL153605  33.756   1.227   6.155
 9731POPC   GL253606  33.686   1.097   6.155
 9731POPC   C1A53607  33.761   1.239   6.455
 9731POPC   D2A53608  33.811   1.166   6.755
 9731POPC   C3A53609  33.769   1.254   7.055
 9731POPC   C4A53610  33.790   1.165   7.355
 9731POPC   C1B53611  33.697   0.970   6.455
 9731POPC   C2B53612  33.617   1.025   6.755
 9731POPC   C3B53613  33.621   1.040   7.055
 9731POPC   C4B53614  33.614   1.037   7.355
 9732POPC   NC353615  42.377  10.538   5.555
 9732POPC   PO453616  42.306  10.501   5.855
 9732POPC   GL153617  42.374  10.508   6.155
 9732POPC   GL253618  42.453  10.423   6.155
 9732POPC   C1A53619  42.323  10.540   6.455
 9732POPC   D2A53620  42.353  10.565   6.755
 9732POPC   C3A53621  42.335  10.535   7.055
 9732POPC   C4A53622  42.352  10.547   7.355
 9732POPC   C1B53623  42.509  10.311   6.455
 9732POPC   C2B53624  42.525  10.385   6.755
 9732POPC   C3B53625  42.568  10.323   7.055
 9732POPC   C4B53626  42.551  10.402   7.355
 9733POPC   NC353627  36.157  29.121   5.555
 9733POPC   PO453628  36.112  29.145   5.855
 9733POPC   GL153629  36.159  29.158   6.155
 9733POPC   GL253630  36.146  29.310   6.155
 9733POPC   C1A53631  36.114  29.165   6.455
 9733POPC   D2A53632  36.107  29.107   6.755
 9733POPC   C3A53633  36.104  29.112   7.055
 9733POPC   C4A53634  36.132  29.131   7.355
 9733POPC   C1B53635  36.174  29.437   6.455
 9733POPC   C2B53636  36.167  29.430   6.755
 9733POPC   C3B53637  36.149  29.423   7.055
 9733POPC   C4B53638  36.167  29.412   7.355
 9734POPC   NC353639  28.393   6.620   5.555
 9734POPC   PO453640  28.387   6.622   5.855
 9734POPC   GL153641  28.375   6.602   6.155
 9734POPC   GL253642  28.479   6.606   6.155
 9734POPC   C1A53643  28.391   6.655   6.455
 9734POPC   D2A53644  28.328   6.687   6.755
 9734POPC   C3A53645  28.347   6.636   7.055
 9734POPC   C4A53646  28.335   6.672   7.355
 9734POPC   C1B53647  28.595   6.575   6.455
 9734POPC   C2B53648  28.659   6.589   6.755
 9734POPC   C3B53649  28.644   6.615   7.055
 9734POPC   C4B53650  28.604   6.605   7.355
 9735POPC   NC353651   5.910  38.486   5.555
 9735POPC   PO453652   5.871  38.432   5.855
 9735POPC   GL153653   5.880  38.502   6.155
 9735POPC   GL253654   5.770  38.565   6.155
 9735POPC   C1A53655   5.911  38.474   6.455
 9735POPC   D2A53656   5.866  38.460   6.755
 9735POPC   C3A53657   5.870  38.465   7.055
 9735POPC   C4A53658   5.907  38.437   7.355
 9735POPC   C1B53659   5.702  38.692   6.455
 9735POPC   C2B53660   5.739  38.623   6.755
 9735POPC   C3B53661   5.711  38.598   7.055
 9735POPC   C4B53662   5.705  38.634   7.355
 9736POPC   NC353663  16.778   6.637   5.555
 9736POPC   PO453664  16.714   6.644   5.855
 9736POPC   GL153665  16.740   6.651   6.155
 9736POPC   GL253666  16.773   6.564   6.155
 9736POPC   C1A53667  16.763   6.676   6.455
 9736POPC   D2A53668  16.715   6.624   6.755
 9736POPC   C3A53669  16.717   6.599   7.055
 9736POPC   C4A53670  16.769   6.596   7.355
 9736POPC   C1B53671  16.817   6.442   6.455
 9736POPC   C2B53672  16.836   6.416   6.755
 9736POPC   C3B53673  16.837   6.416   7.055
 9736POPC   C4B53674  16.883   6.392   7.355
 9737POPC   NC353675  44.655  31.481   5.555
 9737POPC   PO453676  44.638  31.440   5.855
 9737POPC   GL153677  44.709  31.479   6.155
 9737POPC   GL253678  44.809  31.381   6.155
 9737POPC   C1A53679  44.677  31.508   6.455
 9737POPC   D2A53680  44.665  31.458   6.755
 9737POPC   C3A53681  44.706  31.438   7.055
 9737POPC   C4A53682  44.641  31.426   7.355
 9737POPC   C1B53683  44.844  31.344   6.455
 9737POPC   C2B53684  44.908  31.381   6.755
 9737POPC   C3B53685  44.909  31.354   7.055
 9737POPC   C4B53686  44.915  31.302   7.355
 9738POPC   NC353687   5.077  39.193   5.555
 9738POPC   PO453688   5.053  39.200   5.855
 9738POPC   GL153689   5.134  39.250   6.155
 9738POPC   GL253690   5.247  39.184   6.155
 9738POPC   C1A53691   5.110  39.236   6.455
 9738POPC   D2A53692   5.055  39.225   6.755
 9738POPC   C3A53693   5.114  39.200   7.055
 9738POPC   C4A53694   5.049  39.265   7.355
 9738POPC   C1B53695   5.347  39.161   6.455
 9738POPC   C2B53696   5.321  39.154   6.755
 9738POPC   C3B53697   5.343  39.113   7.055
 9738POPC   C4B53698   5.343  39.120   7.355
 9739POPC   NC353699  26.768   7.382   5.555
 9739POPC   PO453700  26.836   7.471   5.855
 9739POPC   GL153701  26.771   7.380   6.155
 9739POPC   GL253702  26.652   7.420   6.155
 9739POPC   C1A53703  26.821   7.444   6.455
 9739POPC   D2A53704  26.806   7.391   6.755
 9739POPC   C3A53705  26.823   7.412   7.055
 9739POPC   C4A53706  26.855   7.385   7.355
 9739POPC   C1B53707  26.542   7.432   6.455
 9739POPC   C2B53708  26.594   7.395   6.755
 9739POPC   C3B53709  26.554   7.383   7.055
 9739POPC   C4B53710  26.580   7.461   7.355
 9740POPC   NC353711  40.758  16.755   5.555
 9740POPC   PO453712  40.818  16.698   5.855
 9740POPC   GL153713  40.817  16.682   6.155
 9740POPC   GL253714  40.871  16.573   6.155
 9740POPC   C1A53715  40.801  16.698   6.455
 9740POPC   D2A53716  40.773  16.700   6.755
 9740POPC   C3A53717  40.739  16.730   7.055
 9740POPC   C4A53718  40.780  16.749   7.355
 9740POPC   C1B53719  40.868  16.507   6.455
 9740POPC   C2B53720  40.908  16.501   6.755
 9740POPC   C3B53721  40.885  16.528   7.055
 9740POPC   C4B53722  40.897  16.497   7.355
 9741POPC   NC353723   1.170   5.128   5.555
 9741POPC   PO453724   1.215   5.142   5.855
 9741POPC   GL153725   1.166   5.057   6.155
 9741POPC   GL253726   1.215   4.983   6.155
 9741POPC   C1A53727   1.183   5.141   6.455
 9741POPC   D2A53728   1.184   5.096   6.755
 9741POPC   C3A53729   1.189   5.139   7.055
 9741POPC   C4A53730   1.226   5.102   7.355
 9741POPC   C1B53731   1.092   4.827   6.455
 9741POPC   C2B53732   1.116   4.827   6.755
 9741POPC   C3B53733   1.090   4.877   7.055
 9741POPC   C4B53734   1.108   4.812   7.355
 9742POPC   NC353735  11.348  40.822   5.555
 9742POPC   PO453736  11.268  40.792   5.855
 9742POPC   GL153737  11.302  40.812   6.155
 9742POPC   GL253738  11.398  40.755   6.155
 9742POPC   C1A53739  11.279  40.758   6.455
 9742POPC   D2A53740  11.321  40.775   6.755
 9742POPC   C3A53741  11.293  40.753   7.055
 9742POPC   C4A53742  11.256  40.803   7.355
 9742POPC   C1B53743  11.565  40.611   6.455
 9742POPC   C2B53744  11.540  40.617   6.755
 9742POPC   C3B53745  11.488  40.646   7.055
 9742POPC   C4B53746  11.522  40.688   7.355
 9743POPC   NC353747  33.805  36.092   5.555
 9743POPC   PO453748  33.842  36.177   5.855
 9743POPC   GL153749  33.752  36.150   6.155
 9743POPC   GL253750  33.943  36.075   6.155
 9743POPC   C1A53751  33.772  36.163   6.455
 9743POPC   D2A53752  33.766  36.103   6.755
 9743POPC   C3A53753  33.821  36.102   7.055
 9743POPC   C4A53754  33.769  36.166   7.355
 9743POPC   C1B53755  33.980  35.988   6.455
 9743POPC   C2B53756  33.978  35.978   6.755
 9743POPC   C3B53757  34.053  36.039   7.055
 9743POPC   C4B53758  34.050  36.030   7.355
 9744POPC   NC353759  16.695  40.772   5.555
 9744POPC   PO453760  16.705  40.820   5.855
 9744POPC   GL153761  16.776  40.766   6.155
 9744POPC   GL253762  16.656  40.686   6.155
 9744POPC   C1A53763  16.722  40.808   6.455
 9744POPC   D2A53764  16.765  40.810   6.755
 9744POPC   C3A53765  16.736  40.735   7.055
 9744POPC   C4A53766  16.766  40.759   7.355
 9744POPC   C1B53767  16.528  40.575   6.455
 9744POPC   C2B53768  16.516  40.595   6.755
 9744POPC   C3B53769  16.560  40.640   7.055
 9744POPC   C4B53770  16.554  40.582   7.355
 9745POPC   NC353771  27.627   5.082   5.555
 9745POPC   PO453772  27.597   5.136   5.855
 9745POPC   GL153773  27.626   5.114   6.155
 9745POPC   GL253774  27.601   5.194   6.155
 9745POPC   C1A53775  27.559   5.111   6.455
 9745POPC   D2A53776  27.590   5.075   6.755
 9745POPC   C3A53777  27.548   5.118   7.055
 9745POPC   C4A53778  27.640   5.111   7.355
 9745POPC   C1B53779  27.640   5.316   6.455
 9745POPC   C2B53780  27.689   5.295   6.755
 9745POPC   C3B53781  27.687   5.362   7.055
 9745POPC   C4B53782  27.710   5.307   7.355
 9746POPC   NC353783   1.237  12.114   5.555
 9746POPC   PO453784   1.171  12.101   5.855
 9746POPC   GL153785   1.213  12.052   6.155
 9746POPC   GL253786   1.221  11.916   6.155
 9746POPC   C1A53787   1.183  12.060   6.455
 9746POPC   D2A53788   1.213  12.058   6.755
 9746POPC   C3A53789   1.233  12.116   7.055
 9746POPC   C4A53790   1.251  12.030   7.355
 9746POPC   C1B53791   1.205  11.866   6.455
 9746POPC   C2B53792   1.268  11.856   6.755
 9746POPC   C3B53793   1.237  11.807   7.055
 9746POPC   C4B53794   1.275  11.862   7.355
 9747POPC   NC353795  43.120  33.762   5.555
 9747POPC   PO453796  43.096  33.823   5.855
 9747POPC   GL153797  43.093  33.781   6.155
 9747POPC   GL253798  43.275  33.774   6.155
 9747POPC   C1A53799  43.099  33.772   6.455
 9747POPC   D2A53800  43.101  33.834   6.755
 9747POPC   C3A53801  43.157  33.840   7.055
 9747POPC   C4A53802  43.113  33.783   7.355
 9747POPC   C1B53803  43.354  33.696   6.455
 9747POPC   C2B53804  43.343  33.716   6.755
 9747POPC   C3B53805  43.310  33.705   7.055
 9747POPC   C4B53806  43.339  33.716   7.355
 9748POPC   NC353807   7.380  12.113   5.555
 9748POPC   PO453808   7.387  12.100   5.855
 9748POPC   GL153809   7.398  12.116   6.155
 9748POPC   GL253810   7.465  12.154   6.155
 9748POPC   C1A53811   7.407  12.103   6.455
 9748POPC   D2A53812   7.393  12.055   6.755
 9748POPC   C3A53813   7.390  12.074   7.055
 9748POPC   C4A53814   7.396  12.036   7.355
 9748POPC   C1B53815   7.476  12.277   6.455
 9748POPC   C2B53816   7.494  12.307   6.755
 9748POPC   C3B53817   7.408  12.314   7.055
 9748POPC   C4B53818   7.491  12.299   7.355
 9749POPC   NC353819  38.418   7.396   5.555
 9749POPC   PO453820  38.473   7.395   5.855
 9749POPC   GL153821  38.452   7.443   6.155
 9749POPC   GL253822  38.293   7.502   6.155
 9749POPC   C1A53823  38.466   7.410   6.455
 9749POPC   D2A53824  38.463   7.415   6.755
 9749POPC   C3A53825  38.455   7.374   7.055
 9749POPC   C4A53826  38.430   7.383   7.355
 9749POPC   C1B53827  38.190   7.572   6.455
 9749POPC   C2B53828  38.236   7.494   6.755
 9749POPC   C3B53829  38.237   7.498   7.055
 9749POPC   C4B53830  38.249   7.484   7.355
 9750POPC   NC353831  19.812  26.075   5.555
 9750POPC   PO453832  19.863  26.011   5.855
 9750POPC   GL153833  19.812  26.065   6.155
 9750POPC   GL253834  19.736  25.956   6.155
 9750POPC   C1A53835  19.863  26.001   6.455
 9750POPC   D2A53836  19.875  26.082   6.755
 9750POPC   C3A53837  19.822  26.043   7.055
 9750POPC   C4A53838  19.860  26.087   7.355
 9750POPC   C1B53839  19.603  25.967   6.455
 9750POPC   C2B53840  19.659  25.898   6.755
 9750POPC   C3B53841  19.569  25.884   7.055
 9750POPC   C4B53842  19.574  25.959   7.355
 9751POPC   NC353843  12.808  20.587   5.555
 9751POPC   PO453844  12.884  20.582   5.855
 9751POPC   GL153845  12.802  20.577   6.155
 9751POPC   GL253846  12.789  20.745   6.155
 9751POPC   C1A53847  12.806  20.582   6.455
 9751POPC   D2A53848  12.891  20.593   6.755
 9751POPC   C3A53849  12.844  20.608   7.055
 9751POPC   C4A53850  12.859  20.610   7.355
 9751POPC   C1B53851  12.659  20.850   6.455
 9751POPC   C2B53852  12.735  20.773   6.755
 9751POPC   C3B53853  12.715  20.774   7.055
 9751POPC   C4B53854  12.704  20.849   7.355
 9752POPC   NC353855  28.380  26.768   5.555
 9752POPC   PO453856  28.365  26.847   5.855
 9752POPC   GL153857  28.367  26.811   6.155
 9752POPC   GL253858  28.489  26.772   6.155
 9752POPC   C1A53859  28.416  26.838   6.455
 9752POPC   D2A53860  28.408  26.804   6.755
 9752POPC   C3A53861  28.356  26.824   7.055
 9752POPC   C4A53862  28.344  26.807   7.355
 9752POPC   C1B53863  28.516  26.667   6.455
 9752POPC   C2B53864  28.571  26.624   6.755
 9752POPC   C3B53865  28.547  26.674   7.055
 9752POPC   C4B53866  28.506  26.653   7.355
 9753POPC   NC353867  21.416  25.241   5.555
 9753POPC   PO453868  21.422  25.285   5.855
 9753POPC   GL153869  21.371  25.270   6.155
 9753POPC   GL253870  21.447  25.344   6.155
 9753POPC   C1A53871  21.399  25.288   6.455
 9753POPC   D2A53872  21.340  25.259   6.755
 9753POPC   C3A53873  21.369  25.256   7.055
 9753POPC   C4A53874  21.400  25.260   7.355
 9753POPC   C1B53875  21.484  25.462   6.455
 9753POPC   C2B53876  21.543  25.515   6.755
 9753POPC   C3B53877  21.538  25.465   7.055
 9753POPC   C4B53878  21.501  25.492   7.355
 9754POPC   NC353879   1.940   0.474   5.555
 9754POPC   PO453880   1.996   0.402   5.855
 9754POPC   GL153881   1.948   0.406   6.155
 9754POPC   GL253882   1.975   0.302   6.155
 9754POPC   C1A53883   1.976   0.476   6.455
 9754POPC   D2A53884   1.943   0.438   6.755
 9754POPC   C3A53885   1.961   0.436   7.055
 9754POPC   C4A53886   1.980   0.440   7.355
 9754POPC   C1B53887   1.890   0.236   6.455
 9754POPC   C2B53888   1.893   0.246   6.755
 9754POPC   C3B53889   1.895   0.201   7.055
 9754POPC   C4B53890   1.825   0.254   7.355
 9755POPC   NC353891  23.705   2.813   5.555
 9755POPC   PO453892  23.741   2.778   5.855
 9755POPC   GL153893  23.694   2.752   6.155
 9755POPC   GL253894  23.615   2.678   6.155
 9755POPC   C1A53895  23.710   2.735   6.455
 9755POPC   D2A53896  23.710   2.724   6.755
 9755POPC   C3A53897  23.690   2.776   7.055
 9755POPC   C4A53898  23.692   2.768   7.355
 9755POPC   C1B53899  23.513   2.633   6.455
 9755POPC   C2B53900  23.473   2.650   6.755
 9755POPC   C3B53901  23.450   2.644   7.055
 9755POPC   C4B53902  23.519   2.681   7.355
 9756POPC   NC353903  39.999   3.550   5.555
 9756POPC   PO453904  39.975   3.562   5.855
 9756POPC   GL153905  40.000   3.536   6.155
 9756POPC   GL253906  40.026   3.644   6.155
 9756POPC   C1A53907  40.006   3.571   6.455
 9756POPC   D2A53908  40.048   3.511   6.755
 9756POPC   C3A53909  39.959   3.519   7.055
 9756POPC   C4A53910  39.998   3.547   7.355
 9756POPC   C1B53911  40.091   3.742   6.455
 9756POPC   C2B53912  40.063   3.778   6.755
 9756POPC   C3B53913  40.063   3.745   7.055
 9756POPC   C4B53914  40.062   3.737   7.355
 9757POPC   NC353915  24.537  13.594   5.555
 9757POPC   PO453916  24.532  13.579   5.855
 9757POPC   GL153917  24.512  13.645   6.155
 9757POPC   GL253918  24.375  13.532   6.155
 9757POPC   C1A53919  24.466  13.636   6.455
 9757POPC   D2A53920  24.512  13.639   6.755
 9757POPC   C3A53921  24.442  13.628   7.055
 9757POPC   C4A53922  24.489  13.658   7.355
 9757POPC   C1B53923  24.314  13.478   6.455
 9757POPC   C2B53924  24.329  13.410   6.755
 9757POPC   C3B53925  24.368  13.388   7.055
 9757POPC   C4B53926  24.320  13.400   7.355
 9758POPC   NC353927  39.995  16.690   5.555
 9758POPC   PO453928  40.044  16.682   5.855
 9758POPC   GL153929  39.986  16.778   6.155
 9758POPC   GL253930  39.966  16.848   6.155
 9758POPC   C1A53931  40.040  16.740   6.455
 9758POPC   D2A53932  40.003  16.684   6.755
 9758POPC   C3A53933  39.970  16.735   7.055
 9758POPC   C4A53934  39.985  16.742   7.355
 9758POPC   C1B53935  39.940  16.988   6.455
 9758POPC   C2B53936  39.922  16.969   6.755
 9758POPC   C3B53937  39.876  17.002   7.055
 9758POPC   C4B53938  39.872  16.968   7.355
 9759POPC   NC353939  39.960  21.419   5.555
 9759POPC   PO453940  40.036  21.349   5.855
 9759POPC   GL153941  40.055  21.342   6.155
 9759POPC   GL253942  40.015  21.461   6.155
 9759POPC   C1A53943  40.040  21.405   6.455
 9759POPC   D2A53944  40.049  21.434   6.755
 9759POPC   C3A53945  39.969  21.386   7.055
 9759POPC   C4A53946  39.996  21.429   7.355
 9759POPC   C1B53947  39.949  21.616   6.455
 9759POPC   C2B53948  39.958  21.663   6.755
 9759POPC   C3B53949  39.902  21.666   7.055
 9759POPC   C4B53950  39.905  21.663   7.355
 9760POPC   NC353951  33.023  12.072   5.555
 9760POPC   PO453952  32.976  12.115   5.855
 9760POPC   GL153953  33.055  12.053   6.155
 9760POPC   GL253954  33.058  11.930   6.155
 9760POPC   C1A53955  33.017  12.088   6.455
 9760POPC   D2A53956  33.020  12.078   6.755
 9760POPC   C3A53957  33.062  12.070   7.055
 9760POPC   C4A53958  32.993  12.053   7.355
 9760POPC   C1B53959  33.190  11.919   6.455
 9760POPC   C2B53960  33.201  11.880   6.755
 9760POPC   C3B53961  33.195  11.916   7.055
 9760POPC   C4B53962  33.206  11.880   7.355
 9761POPC   NC353963  43.917  27.628   5.555
 9761POPC   PO453964  43.844  27.628   5.855
 9761POPC   GL153965  43.844  27.557   6.155
 9761POPC   GL253966  44.041  27.665   6.155
 9761POPC   C1A53967  43.858  27.547   6.455
 9761POPC   D2A53968  43.910  27.564   6.755
 9761POPC   C3A53969  43.837  27.575   7.055
 9761POPC   C4A53970  43.881  27.639   7.355
 9761POPC   C1B53971  44.065  27.746   6.455
 9761POPC   C2B53972  44.093  27.726   6.755
 9761POPC   C3B53973  44.048  27.737   7.055
 9761POPC   C4B53974  44.106  27.771   7.355
 9762POPC   NC353975  28.412  40.045   5.555
 9762POPC   PO453976  28.390  40.043   5.855
 9762POPC   GL153977  28.408  40.019   6.155
 9762POPC   GL253978  28.273  40.116   6.155
 9762POPC   C1A53979  28.328  39.963   6.455
 9762POPC   D2A53980  28.329  39.957   6.755
 9762POPC   C3A53981  28.382  39.998   7.055
 9762POPC   C4A53982  28.343  40.001   7.355
 9762POPC   C1B53983  28.233  40.153   6.455
 9762POPC   C2B53984  28.189  40.150   6.755
 9762POPC   C3B53985  28.206  40.210   7.055
 9762POPC   C4B53986  28.196  40.196   7.355
 9763POPC   NC353987   0.462  38.428   5.555
 9763POPC   PO453988   0.446  38.456   5.855
 9763POPC   GL153989   0.391  38.437   6.155
 9763POPC   GL253990   0.468  38.569   6.155
 9763POPC   C1A53991   0.429  38.447   6.455
 9763POPC   D2A53992   0.484  38.462   6.755
 9763POPC   C3A53993   0.436  38.409   7.055
 9763POPC   C4A53994   0.439  38.472   7.355
 9763POPC   C1B53995   0.511  38.665   6.455
 9763POPC   C2B53996   0.559  38.663   6.755
 9763POPC   C3B53997   0.568  38.723   7.055
 9763POPC   C4B53998   0.567  38.673   7.355
 9764POPC   NC353999  36.114  34.561   5.555
 9764POPC   PO454000  36.172  34.531   5.855
 9764POPC   GL154001  36.168  34.597   6.155
 9764POPC   GL254002  36.222  34.708   6.155
 9764POPC   C1A54003  36.151  34.560   6.455
 9764POPC   D2A54004  36.142  34.594   6.755
 9764POPC   C3A54005  36.091  34.623   7.055
 9764POPC   C4A54006  36.088  34.576   7.355
 9764POPC   C1B54007  36.287  34.849   6.455
 9764POPC   C2B54008  36.268  34.793   6.755
 9764POPC   C3B54009  36.241  34.844   7.055
 9764POPC   C4B54010  36.209  34.808   7.355
 9765POPC   NC354011   1.984  29.114   5.555
 9765POPC   PO454012   2.003  29.161   5.855
 9765POPC   GL154013   1.960  29.170   6.155
 9765POPC   GL254014   1.904  29.108   6.155
 9765POPC   C1A54015   1.993  29.178   6.455
 9765POPC   D2A54016   2.015  29.142   6.755
 9765POPC   C3A54017   1.981  29.110   7.055
 9765POPC   C4A54018   1.982  29.116   7.355
 9765POPC   C1B54019   1.742  29.194   6.455
 9765POPC   C2B54020   1.702  29.129   6.755
 9765POPC   C3B54021   1.790  29.190   7.055
 9765POPC   C4B54022   1.703  29.163   7.355
 9766POPC   NC354023  38.468  35.311   5.555
 9766POPC   PO454024  38.410  35.332   5.855
 9766POPC   GL154025  38.466  35.381   6.155
 9766POPC   GL254026  38.483  35.197   6.155
 9766POPC   C1A54027  38.422  35.303   6.455
 9766POPC   D2A54028  38.406  35.353   6.755
 9766POPC   C3A54029  38.472  35.305   7.055
 9766POPC   C4A54030  38.470  35.337   7.355
 9766POPC   C1B54031  38.569  35.063   6.455
 9766POPC   C2B54032  38.516  35.067   6.755
 9766POPC   C3B54033  38.550  35.101   7.055
 9766POPC   C4B54034  38.541  35.114   7.355
 9767POPC   NC354035  43.117  15.140   5.555
 9767POPC   PO454036  43.082  15.143   5.855
 9767POPC   GL154037  43.068  15.131   6.155
 9767POPC   GL254038  43.032  15.081   6.155
 9767POPC   C1A54039  43.105  15.137   6.455
 9767POPC   D2A54040  43.061  15.221   6.755
 9767POPC   C3A54041  43.139  15.173   7.055
 9767POPC   C4A54042  43.121  15.189   7.355
 9767POPC   C1B54043  43.010  14.913   6.455
 9767POPC   C2B54044  43.022  14.973   6.755
 9767POPC   C3B54045  43.004  14.938   7.055
 9767POPC   C4B54046  43.024  14.902   7.355
 9768POPC   NC354047  37.644   1.946   5.555
 9768POPC   PO454048  37.663   1.954   5.855
 9768POPC   GL154049  37.704   1.990   6.155
 9768POPC   GL254050  37.721   2.063   6.155
 9768POPC   C1A54051  37.667   2.039   6.455
 9768POPC   D2A54052  37.675   1.971   6.755
 9768POPC   C3A54053  37.691   2.036   7.055
 9768POPC   C4A54054  37.655   1.955   7.355
 9768POPC   C1B54055  37.812   2.200   6.455
 9768POPC   C2B54056  37.891   2.169   6.755
 9768POPC   C3B54057  37.858   2.161   7.055
 9768POPC   C4B54058  37.879   2.130   7.355
 9769POPC   NC354059   7.388  40.754   5.555
 9769POPC   PO454060   7.438  40.747   5.855
 9769POPC   GL154061   7.437  40.822   6.155
 9769POPC   GL254062   7.488  40.634   6.155
 9769POPC   C1A54063   7.468  40.739   6.455
 9769POPC   D2A54064   7.424  40.754   6.755
 9769POPC   C3A54065   7.448  40.785   7.055
 9769POPC   C4A54066   7.450  40.759   7.355
 9769POPC   C1B54067   7.539  40.539   6.455
 9769POPC   C2B54068   7.511  40.564   6.755
 9769POPC   C3B54069   7.513  40.571   7.055
 9769POPC   C4B54070   7.524  40.548   7.355
 9770POPC   NC354071  43.902  43.840   5.555
 9770POPC   PO454072  43.841  43.907   5.855
 9770POPC   GL154073  43.910  43.927   6.155
 9770POPC   GL254074  43.971  43.962   6.155
 9770POPC   C1A54075  43.910  43.886   6.455
 9770POPC   D2A54076  43.882  43.917   6.755
 9770POPC   C3A54077  43.907  43.881   7.055
 9770POPC   C4A54078  43.934  43.935   7.355
 9770POPC   C1B54079  44.096  44.065   6.455
 9770POPC   C2B54080  44.076  44.054   6.755
 9770POPC   C3B54081  44.031  44.021   7.055
 9770POPC   C4B54082  44.050  44.033   7.355
 9771POPC   NC354083  34.550  42.378   5.555
 9771POPC   PO454084  34.577  42.378   5.855
 9771POPC   GL154085  34.590  42.329   6.155
 9771POPC   GL254086  34.437  42.289   6.155
 9771POPC   C1A54087  34.558  42.307   6.455
 9771POPC   D2A54088  34.537  42.325   6.755
 9771POPC   C3A54089  34.568  42.302   7.055
 9771POPC   C4A54090  34.599  42.285   7.355
 9771POPC   C1B54091  34.362  42.168   6.455
 9771POPC   C2B54092  34.420  42.188   6.755
 9771POPC   C3B54093  34.411  42.203   7.055
 9771POPC   C4B54094  34.376  42.190   7.355
 9772POPC   NC354095  39.275  31.427   5.555
 9772POPC   PO454096  39.213  31.472   5.855
 9772POPC   GL154097  39.213  31.512   6.155
 9772POPC   GL254098  39.226  31.608   6.155
 9772POPC   C1A54099  39.198  31.436   6.455
 9772POPC   D2A54100  39.220  31.522   6.755
 9772POPC   C3A54101  39.200  31.507   7.055
 9772POPC   C4A54102  39.246  31.476   7.355
 9772POPC   C1B54103  39.270  31.737   6.455
 9772POPC   C2B54104  39.253  31.753   6.755
 9772POPC   C3B54105  39.217  31.729   7.055
 9772POPC   C4B54106  39.231  31.754   7.355
 9773POPC   NC354107  38.474  40.032   5.555
 9773POPC   PO454108  38.414  40.042   5.855
 9773POPC   GL154109  38.440  40.018   6.155
 9773POPC   GL254110  38.468  40.097   6.155
 9773POPC   C1A54111  38.497  39.981   6.455
 9773POPC   D2A54112  38.444  40.008   6.755
 9773POPC   C3A54113  38.480  40.051   7.055
 9773POPC   C4A54114  38.419  39.995   7.355
 9773POPC   C1B54115  38.472  40.212   6.455
 9773POPC   C2B54116  38.453  40.288   6.755
 9773POPC   C3B54117  38.501  40.242   7.055
 9773POPC   C4B54118  38.509  40.299   7.355
 9774POPC   NC354119  26.830  24.517   5.555
 9774POPC   PO454120  26.772  24.489   5.855
 9774POPC   GL154121  26.825  24.466   6.155
 9774POPC   GL254122  26.871  24.377   6.155
 9774POPC   C1A54123  26.796  24.533   6.455
 9774POPC   D2A54124  26.854  24.449   6.755
 9774POPC   C3A54125  26.797  24.527   7.055
 9774POPC   C4A54126  26.800  24.527   7.355
 9774POPC   C1B54127  26.910  24.240   6.455
 9774POPC   C2B54128  26.887  24.264   6.755
 9774POPC   C3B54129  26.817  24.219   7.055
 9774POPC   C4B54130  26.850  24.248   7.355
 9775POPC   NC354131  33.035  40.787   5.555
 9775POPC   PO454132  33.026  40.781   5.855
 9775POPC   GL154133  33.070  40.772   6.155
 9775POPC   GL254134  32.917  40.649   6.155
 9775POPC   C1A54135  33.043  40.807   6.455
 9775POPC   D2A54136  33.000  40.770   6.755
 9775POPC   C3A54137  32.983  40.760   7.055
 9775POPC   C4A54138  33.057  40.765   7.355
 9775POPC   C1B54139  32.908  40.552   6.455
 9775POPC   C2B54140  32.870  40.616   6.755
 9775POPC   C3B54141  32.811  40.554   7.055
 9775POPC   C4B54142  32.887  40.620   7.355
 9776POPC   NC354143  29.103  27.593   5.555
 9776POPC   PO454144  29.181  27.573   5.855
 9776POPC   GL154145  29.151  27.627   6.155
 9776POPC   GL254146  29.158  27.428   6.155
 9776POPC   C1A54147  29.147  27.620   6.455
 9776POPC   D2A54148  29.151  27.605   6.755
 9776POPC   C3A54149  29.189  27.600   7.055
 9776POPC   C4A54150  29.128  27.639   7.355
 9776POPC   C1B54151  29.133  27.311   6.455
 9776POPC   C2B54152  29.143  27.327   6.755
 9776POPC   C3B54153  29.185  27.320   7.055
 9776POPC   C4B54154  29.150  27.321   7.355
 9777POPC   NC354155   3.579  18.251   5.555
 9777POPC   PO454156   3.550  18.234   5.855
 9777POPC   GL154157   3.494  18.237   6.155
 9777POPC   GL254158   3.524  18.119   6.155
 9777POPC   C1A54159   3.579  18.261   6.455
 9777POPC   D2A54160   3.523  18.247   6.755
 9777POPC   C3A54161   3.493  18.274   7.055
 9777POPC   C4A54162   3.496  18.239   7.355
 9777POPC   C1B54163   3.468  18.082   6.455
 9777POPC   C2B54164   3.497  18.008   6.755
 9777POPC   C3B54165   3.490  18.050   7.055
 9777POPC   C4B54166   3.504  18.065   7.355
 9778POPC   NC354167  11.342  11.259   5.555
 9778POPC   PO454168  11.251  11.323   5.855
 9778POPC   GL154169  11.292  11.290   6.155
 9778POPC   GL254170  11.389  11.297   6.155
 9778POPC   C1A54171  11.320  11.327   6.455
 9778POPC   D2A54172  11.314  11.312   6.755
 9778POPC   C3A54173  11.292  11.261   7.055
 9778POPC   C4A54174  11.298  11.340   7.355
 9778POPC   C1B54175  11.493  11.234   6.455
 9778POPC   C2B54176  11.508  11.224   6.755
 9778POPC   C3B54177  11.576  11.188   7.055
 9778POPC   C4B54178  11.496  11.181   7.355
 9779POPC   NC354179  11.348  25.270   5.555
 9779POPC   PO454180  11.318  25.223   5.855
 9779POPC   GL154181  11.267  25.288   6.155
 9779POPC   GL254182  11.449  25.205   6.155
 9779POPC   C1A54183  11.281  25.216   6.455
 9779POPC   D2A54184  11.257  25.283   6.755
 9779POPC   C3A54185  11.295  25.313   7.055
 9779POPC   C4A54186  11.304  25.265   7.355
 9779POPC   C1B54187  11.594  25.235   6.455
 9779POPC   C2B54188  11.545  25.199   6.755
 9779POPC   C3B54189  11.552  25.178   7.055
 9779POPC   C4B54190  11.589  25.189   7.355
 9780POPC   NC354191  10.519  19.834   5.555
 9780POPC   PO454192  10.503  19.854   5.855
 9780POPC   GL154193  10.479  19.796   6.155
 9780POPC   GL254194  10.456  19.932   6.155
 9780POPC   C1A54195  10.493  19.786   6.455
 9780POPC   D2A54196  10.486  19.880   6.755
 9780POPC   C3A54197  10.506  19.880   7.055
 9780POPC   C4A54198  10.497  19.878   7.355
 9780POPC   C1B54199  10.339  20.052   6.455
 9780POPC   C2B54200  10.356  20.017   6.755
 9780POPC   C3B54201  10.378  19.996   7.055
 9780POPC   C4B54202  10.398  20.053   7.355
 9781POPC   NC354203  29.897   9.786   5.555
 9781POPC   PO454204  29.952   9.719   5.855
 9781POPC   GL154205  29.898   9.704   6.155
 9781POPC   GL254206  30.050   9.694   6.155
 9781POPC   C1A54207  29.940   9.788   6.455
 9781POPC   D2A54208  29.956   9.734   6.755
 9781POPC   C3A54209  29.945   9.709   7.055
 9781POPC   C4A54210  29.926   9.712   7.355
 9781POPC   C1B54211  30.172   9.671   6.455
 9781POPC   C2B54212  30.134   9.726   6.755
 9781POPC   C3B54213  30.169   9.712   7.055
 9781POPC   C4B54214  30.205   9.739   7.355
 9782POPC   NC354215  29.117   7.398   5.555
 9782POPC   PO454216  29.179   7.380   5.855
 9782POPC   GL154217  29.177   7.403   6.155
 9782POPC   GL254218  29.155   7.307   6.155
 9782POPC   C1A54219  29.182   7.389   6.455
 9782POPC   D2A54220  29.185   7.420   6.755
 9782POPC   C3A54221  29.119   7.464   7.055
 9782POPC   C4A54222  29.191   7.399   7.355
 9782POPC   C1B54223  29.126   7.124   6.455
 9782POPC   C2B54224  29.183   7.219   6.755
 9782POPC   C3B54225  29.112   7.207   7.055
 9782POPC   C4B54226  29.123   7.199   7.355
 9783POPC   NC354227  38.485   2.785   5.555
 9783POPC   PO454228  38.463   2.801   5.855
 9783POPC   GL154229  38.433   2.723   6.155
 9783POPC   GL254230  38.620   2.769   6.155
 9783POPC   C1A54231  38.496   2.792   6.455
 9783POPC   D2A54232  38.495   2.740   6.755
 9783POPC   C3A54233  38.419   2.773   7.055
 9783POPC   C4A54234  38.487   2.734   7.355
 9783POPC   C1B54235  38.732   2.839   6.455
 9783POPC   C2B54236  38.746   2.784   6.755
 9783POPC   C3B54237  38.706   2.818   7.055
 9783POPC   C4B54238  38.693   2.804   7.355
 9784POPC   NC354239  12.886  22.179   5.555
 9784POPC   PO454240  12.852  22.173   5.855
 9784POPC   GL154241  12.813  22.115   6.155
 9784POPC   GL254242  12.744  22.269   6.155
 9784POPC   C1A54243  12.803  22.198   6.455
 9784POPC   D2A54244  12.857  22.138   6.755
 9784POPC   C3A54245  12.838  22.183   7.055
 9784POPC   C4A54246  12.845  22.140   7.355
 9784POPC   C1B54247  12.669  22.381   6.455
 9784POPC   C2B54248  12.753  22.344   6.755
 9784POPC   C3B54249  12.690  22.324   7.055
 9784POPC   C4B54250  12.746  22.359   7.355
 9785POPC   NC354251  33.012   1.186   5.555
 9785POPC   PO454252  32.974   1.222   5.855
 9785POPC   GL154253  33.015   1.188   6.155
 9785POPC   GL254254  32.937   1.216   6.155
 9785POPC   C1A54255  33.014   1.169   6.455
 9785POPC   D2A54256  32.994   1.171   6.755
 9785POPC   C3A54257  32.981   1.222   7.055
 9785POPC   C4A54258  33.026   1.200   7.355
 9785POPC   C1B54259  32.795   1.146   6.455
 9785POPC   C2B54260  32.840   1.140   6.755
 9785POPC   C3B54261  32.810   1.122   7.055
 9785POPC   C4B54262  32.826   1.159   7.355
 9786POPC   NC354263  28.371   5.131   5.555
 9786POPC   PO454264  28.405   5.122   5.855
 9786POPC   GL154265  28.324   5.056   6.155
 9786POPC   GL254266  28.261   5.097   6.155
 9786POPC   C1A54267  28.402   5.121   6.455
 9786POPC   D2A54268  28.368   5.106   6.755
 9786POPC   C3A54269  28.417   5.060   7.055
 9786POPC   C4A54270  28.404   5.133   7.355
 9786POPC   C1B54271  28.086   5.079   6.455
 9786POPC   C2B54272  28.133   5.118   6.755
 9786POPC   C3B54273  28.154   5.081   7.055
 9786POPC   C4B54274  28.116   5.125   7.355
 9787POPC   NC354275  18.317   5.132   5.555
 9787POPC   PO454276  18.250   5.087   5.855
 9787POPC   GL154277  18.325   5.065   6.155
 9787POPC   GL254278  18.132   5.023   6.155
 9787POPC   C1A54279  18.243   5.134   6.455
 9787POPC   D2A54280  18.280   5.075   6.755
 9787POPC   C3A54281  18.310   5.094   7.055
 9787POPC   C4A54282  18.247   5.059   7.355
 9787POPC   C1B54283  18.056   5.014   6.455
 9787POPC   C2B54284  18.053   5.067   6.755
 9787POPC   C3B54285  17.997   5.076   7.055
 9787POPC   C4B54286  18.077   5.078   7.355
 9788POPC   NC354287  27.611  26.013   5.555
 9788POPC   PO454288  27.546  26.081   5.855
 9788POPC   GL154289  27.591  26.001   6.155
 9788POPC   GL254290  27.568  25.869   6.155
 9788POPC   C1A54291  27.621  26.037   6.455
 9788POPC   D2A54292  27.608  26.064   6.755
 9788POPC   C3A54293  27.616  26.026   7.055
 9788POPC   C4A54294  27.550  26.047   7.355
 9788POPC   C1B54295  27.633  25.822   6.455
 9788POPC   C2B54296  27.561  25.764   6.755
 9788POPC   C3B54297  27.618  25.771   7.055
 9788POPC   C4B54298  27.650  25.822   7.355
 9789POPC   NC354299   8.165  15.176   5.555
 9789POPC   PO454300   8.241  15.145   5.855
 9789POPC   GL154301   8.175  15.168   6.155
 9789POPC   GL254302   8.274  15.115   6.155
 9789POPC   C1A54303   8.169  15.151   6.455
 9789POPC   D2A54304   8.243  15.189   6.755
 9789POPC   C3A54305   8.209  15.209   7.055
 9789POPC   C4A54306   8.226  15.183   7.355
 9789POPC   C1B54307   8.337  14.922   6.455
 9789POPC   C2B54308   8.285  14.976   6.755
 9789POPC   C3B54309   8.347  14.959   7.055
 9789POPC   C4B54310   8.334  14.998   7.355
 9790POPC   NC354311  40.039  43.867   5.555
 9790POPC   PO454312  40.032  43.852   5.855
 9790POPC   GL154313  40.040  43.843   6.155
 9790POPC   GL254314  39.991  43.807   6.155
 9790POPC   C1A54315  40.056  43.886   6.455
 9790POPC   D2A54316  39.966  43.935   6.755
 9790POPC   C3A54317  40.052  43.925   7.055
 9790POPC   C4A54318  40.052  43.884   7.355
 9790POPC   C1B54319  39.907  43.689   6.455
 9790POPC   C2B54320  39.956  43.607   6.755
 9790POPC   C3B54321  39.910  43.652   7.055
 9790POPC   C4B54322  39.909  43.621   7.355
 9791POPC   NC354323  22.184  36.944   5.555
 9791POPC   PO454324  22.195  36.896   5.855
 9791POPC   GL154325  22.182  36.932   6.155
 9791POPC   GL254326  22.054  36.773   6.155
 9791POPC   C1A54327  22.136  36.917   6.455
 9791POPC   D2A54328  22.156  36.868   6.755
 9791POPC   C3A54329  22.129  36.901   7.055
 9791POPC   C4A54330  22.122  36.924   7.355
 9791POPC   C1B54331  21.958  36.697   6.455
 9791POPC   C2B54332  22.010  36.734   6.755
 9791POPC   C3B54333  22.005  36.698   7.055
 9791POPC   C4B54334  21.996  36.674   7.355
 9792POPC   NC354335  31.521   5.141   5.555
 9792POPC   PO454336  31.515   5.135   5.855
 9792POPC   GL154337  31.433   5.091   6.155
 9792POPC   GL254338  31.359   5.081   6.155
 9792POPC   C1A54339  31.433   5.125   6.455
 9792POPC   D2A54340  31.502   5.117   6.755
 9792POPC   C3A54341  31.495   5.045   7.055
 9792POPC   C4A54342  31.454   5.121   7.355
 9792POPC   C1B54343  31.239   4.988   6.455
 9792POPC   C2B54344  31.208   4.951   6.755
 9792POPC   C3B54345  31.203   4.946   7.055
 9792POPC   C4B54346  31.206   5.012   7.355
 9793POPC   NC354347  11.259  39.189   5.555
 9793POPC   PO454348  11.332  39.186   5.855
 9793POPC   GL154349  11.330  39.183   6.155
 9793POPC   GL254350  11.199  39.352   6.155
 9793POPC   C1A54351  11.290  39.190   6.455
 9793POPC   D2A54352  11.339  39.197   6.755
 9793POPC   C3A54353  11.252  39.236   7.055
 9793POPC   C4A54354  11.329  39.265   7.355
 9793POPC   C1B54355  11.226  39.417   6.455
 9793POPC   C2B54356  11.149  39.409   6.755
 9793POPC   C3B54357  11.178  39.456   7.055
 9793POPC   C4B54358  11.234  39.493   7.355
 9794POPC   NC354359  35.388  21.388   5.555
 9794POPC   PO454360  35.331  21.391   5.855
 9794POPC   GL154361  35.315  21.375   6.155
 9794POPC   GL254362  35.459  21.324   6.155
 9794POPC   C1A54363  35.366  21.342   6.455
 9794POPC   D2A54364  35.317  21.355   6.755
 9794POPC   C3A54365  35.356  21.370   7.055
 9794POPC   C4A54366  35.386  21.416   7.355
 9794POPC   C1B54367  35.542  21.246   6.455
 9794POPC   C2B54368  35.588  21.223   6.755
 9794POPC   C3B54369  35.527  21.298   7.055
 9794POPC   C4B54370  35.562  21.284   7.355
 9795POPC   NC354371  15.226  22.191   5.555
 9795POPC   PO454372  15.143  22.204   5.855
 9795POPC   GL154373  15.195  22.174   6.155
 9795POPC   GL254374  15.248  22.117   6.155
 9795POPC   C1A54375  15.190  22.201   6.455
 9795POPC   D2A54376  15.162  22.193   6.755
 9795POPC   C3A54377  15.170  22.164   7.055
 9795POPC   C4A54378  15.163  22.173   7.355
 9795POPC   C1B54379  15.387  22.018   6.455
 9795POPC   C2B54380  15.319  22.010   6.755
 9795POPC   C3B54381  15.367  22.023   7.055
 9795POPC   C4B54382  15.301  21.972   7.355
 9796POPC   NC354383  12.833  34.541   5.555
 9796POPC   PO454384  12.842  34.619   5.855
 9796POPC   GL154385  12.820  34.599   6.155
 9796POPC   GL254386  12.890  34.411   6.155
 9796POPC   C1A54387  12.881  34.590   6.455
 9796POPC   D2A54388  12.846  34.607   6.755
 9796POPC   C3A54389  12.870  34.553   7.055
 9796POPC   C4A54390  12.868  34.583   7.355
 9796POPC   C1B54391  12.858  34.301   6.455
 9796POPC   C2B54392  12.816  34.375   6.755
 9796POPC   C3B54393  12.813  34.323   7.055
 9796POPC   C4B54394  12.853  34.293   7.355
 9797POPC   NC354395  40.812  20.640   5.555
 9797POPC   PO454396  40.735  20.605   5.855
 9797POPC   GL154397  40.767  20.592   6.155
 9797POPC   GL254398  40.773  20.501   6.155
 9797POPC   C1A54399  40.831  20.598   6.455
 9797POPC   D2A54400  40.806  20.622   6.755
 9797POPC   C3A54401  40.798  20.648   7.055
 9797POPC   C4A54402  40.827  20.645   7.355
 9797POPC   C1B54403  40.779  20.342   6.455
 9797POPC   C2B54404  40.769  20.352   6.755
 9797POPC   C3B54405  40.764  20.318   7.055
 9797POPC   C4B54406  40.771  20.367   7.355
 9798POPC   NC354407  29.117   9.007   5.555
 9798POPC   PO454408  29.141   8.988   5.855
 9798POPC   GL154409  29.129   9.010   6.155
 9798POPC   GL254410  29.028   9.108   6.155
 9798POPC   C1A54411  29.164   8.979   6.455
 9798POPC   D2A54412  29.137   8.929   6.755
 9798POPC   C3A54413  29.128   8.928   7.055
 9798POPC   C4A54414  29.172   8.950   7.355
 9798POPC   C1B54415  29.022   9.188   6.455
 9798POPC   C2B54416  28.991   9.211   6.755
 9798POPC   C3B54417  28.985   9.186   7.055
 9798POPC   C4B54418  29.029   9.168   7.355
 9799POPC   NC354419  43.114   5.873   5.555
 9799POPC   PO454420  43.062   5.822   5.855
 9799POPC   GL154421  43.098   5.853   6.155
 9799POPC   GL254422  43.144   6.014   6.155
 9799POPC   C1A54423  43.112   5.909   6.455
 9799POPC   D2A54424  43.100   5.868   6.755
 9799POPC   C3A54425  43.082   5.838   7.055
 9799POPC   C4A54426  43.108   5.856   7.355
 9799POPC   C1B54427  43.247   6.075   6.455
 9799POPC   C2B54428  43.285   6.086   6.755
 9799POPC   C3B54429  43.291   6.061   7.055
 9799POPC   C4B54430  43.263   6.066   7.355
 9800POPC   NC354431  14.403  23.761   5.555
 9800POPC   PO454432  14.381  23.736   5.855
 9800POPC   GL154433  14.378  23.731   6.155
 9800POPC   GL254434  14.288  23.713   6.155
 9800POPC   C1A54435  14.406  23.729   6.455
 9800POPC   D2A54436  14.402  23.677   6.755
 9800POPC   C3A54437  14.429  23.707   7.055
 9800POPC   C4A54438  14.360  23.685   7.355
 9800POPC   C1B54439  14.175  23.668   6.455
 9800POPC   C2B54440  14.176  23.657   6.755
 9800POPC   C3B54441  14.150  23.652   7.055
 9800POPC   C4B54442  14.190  23.662   7.355
 9801POPC   NC354443  19.059  22.985   5.555
 9801POPC   PO454444  19.040  22.964   5.855
 9801POPC   GL154445  19.011  22.934   6.155
 9801POPC   GL254446  19.129  23.013   6.155
 9801POPC   C1A54447  19.105  22.924   6.455
 9801POPC   D2A54448  19.015  22.912   6.755
 9801POPC   C3A54449  19.087  22.913   7.055
 9801POPC   C4A54450  19.099  22.941   7.355
 9801POPC   C1B54451  19.306  23.104   6.455
 9801POPC   C2B54452  19.235  23.063   6.755
 9801POPC   C3B54453  19.267  23.128   7.055
 9801POPC   C4B54454  19.213  23.125   7.355
 9802POPC   NC354455   1.949  43.865   5.555
 9802POPC   PO454456   1.995  43.871   5.855
 9802POPC   GL154457   1.943  43.891   6.155
 9802POPC   GL254458   1.878  43.817   6.155
 9802POPC   C1A54459   2.021  43.889   6.455
 9802POPC   D2A54460   1.954  43.866   6.755
 9802POPC   C3A54461   1.989  43.933   7.055
 9802POPC   C4A54462   1.973  43.930   7.355
 9802POPC   C1B54463   1.808  43.759   6.455
 9802POPC   C2B54464   1.726  43.730   6.755
 9802POPC   C3B54465   1.780  43.768   7.055
 9802POPC   C4B54466   1.777  43.731   7.355
 9803POPC   NC354467  19.834   1.236   5.555
 9803POPC   PO454468  19.819   1.203   5.855
 9803POPC   GL154469  19.830   1.206   6.155
 9803POPC   GL254470  19.683   1.182   6.155
 9803POPC   C1A54471  19.873   1.262   6.455
 9803POPC   D2A54472  19.847   1.249   6.755
 9803POPC   C3A54473  19.789   1.230   7.055
 9803POPC   C4A54474  19.830   1.224   7.355
 9803POPC   C1B54475  19.601   1.195   6.455
 9803POPC   C2B54476  19.570   1.270   6.755
 9803POPC   C3B54477  19.563   1.194   7.055
 9803POPC   C4B54478  19.630   1.228   7.355
 9804POPC   NC354479  43.903  36.150   5.555
 9804POPC   PO454480  43.897  36.163   5.855
 9804POPC   GL154481  43.903  36.112   6.155
 9804POPC   GL254482  43.787  36.197   6.155
 9804POPC   C1A54483  43.921  36.135   6.455
 9804POPC   D2A54484  43.878  36.143   6.755
 9804POPC   C3A54485  43.917  36.147   7.055
 9804POPC   C4A54486  43.924  36.078   7.355
 9804POPC   C1B54487  43.767  36.332   6.455
 9804POPC   C2B54488  43.752  36.392   6.755
 9804POPC   C3B54489  43.773  36.333   7.055
 9804POPC   C4B54490  43.729  36.366   7.355
 9805POPC   NC354491   5.902  20.591   5.555
 9805POPC   PO454492   5.893  20.572   5.855
 9805POPC   GL154493   5.860  20.646   6.155
 9805POPC   GL254494   5.781  20.612   6.155
 9805POPC   C1A54495   5.916  20.659   6.455
 9805POPC   D2A54496   5.888  20.645   6.755
 9805POPC   C3A54497   5.840  20.579   7.055
 9805POPC   C4A54498   5.820  20.604   7.355
 9805POPC   C1B54499   5.664  20.638   6.455
 9805POPC   C2B54500   5.669  20.598   6.755
 9805POPC   C3B54501   5.657  20.590   7.055
 9805POPC   C4B54502   5.629  20.572   7.355
 9806POPC   NC354503  38.431  32.999   5.555
 9806POPC   PO454504  38.498  33.035   5.855
 9806POPC   GL154505  38.423  32.985   6.155
 9806POPC   GL254506  38.446  33.092   6.155
 9806POPC   C1A54507  38.433  33.009   6.455
 9806POPC   D2A54508  38.474  33.043   6.755
 9806POPC   C3A54509  38.430  33.026   7.055
 9806POPC   C4A54510  38.467  33.010   7.355
 9806POPC   C1B54511  38.301  33.235   6.455
 9806POPC   C2B54512  38.344  33.246   6.755
 9806POPC   C3B54513  38.358  33.240   7.055
 9806POPC   C4B54514  38.378  33.235   7.355
 9807POPC   NC354515   0.450  37.680   5.555
 9807POPC   PO454516   0.480  37.688   5.855
 9807POPC   GL154517   0.421  37.712   6.155
 9807POPC   GL254518   0.582  37.559   6.155
 9807POPC   C1A54519   0.449  37.713   6.455
 9807POPC   D2A54520   0.414  37.643   6.755
 9807POPC   C3A54521   0.446  37.640   7.055
 9807POPC   C4A54522   0.432  37.656   7.355
 9807POPC   C1B54523   0.608  37.499   6.455
 9807POPC   C2B54524   0.676  37.561   6.755
 9807POPC   C3B54525   0.590  37.563   7.055
 9807POPC   C4B54526   0.614  37.518   7.355
 9808POPC   NC354527  32.213   5.893   5.555
 9808POPC   PO454528  32.275   5.915   5.855
 9808POPC   GL154529  32.272   5.819   6.155
 9808POPC   GL254530  32.304   5.991   6.155
 9808POPC   C1A54531  32.241   5.884   6.455
 9808POPC   D2A54532  32.286   5.891   6.755
 9808POPC   C3A54533  32.267   5.844   7.055
 9808POPC   C4A54534  32.213   5.883   7.355
 9808POPC   C1B54535  32.374   6.009   6.455
 9808POPC   C2B54536  32.463   6.053   6.755
 9808POPC   C3B54537  32.383   6.025   7.055
 9808POPC   C4B54538  32.425   6.039   7.355
 9809POPC   NC354539  32.988   7.410   5.555
 9809POPC   PO454540  33.050   7.408   5.855
 9809POPC   GL154541  32.976   7.442   6.155
 9809POPC   GL254542  33.081   7.351   6.155
 9809POPC   C1A54543  33.018   7.464   6.455
 9809POPC   D2A54544  33.052   7.407   6.755
 9809POPC   C3A54545  33.004   7.456   7.055
 9809POPC   C4A54546  33.012   7.446   7.355
 9809POPC   C1B54547  33.281   7.270   6.455
 9809POPC   C2B54548  33.239   7.251   6.755
 9809POPC   C3B54549  33.207   7.314   7.055
 9809POPC   C4B54550  33.259   7.258   7.355
 9810POPC   NC354551  30.720  35.356   5.555
 9810POPC   PO454552  30.741  35.396   5.855
 9810POPC   GL154553  30.729  35.397   6.155
 9810POPC   GL254554  30.622  35.248   6.155
 9810POPC   C1A54555  30.718  35.306   6.455
 9810POPC   D2A54556  30.673  35.384   6.755
 9810POPC   C3A54557  30.718  35.328   7.055
 9810POPC   C4A54558  30.684  35.373   7.355
 9810POPC   C1B54559  30.490  35.152   6.455
 9810POPC   C2B54560  30.523  35.163   6.755
 9810POPC   C3B54561  30.548  35.165   7.055
 9810POPC   C4B54562  30.533  35.182   7.355
 9811POPC   NC354563   1.246   1.166   5.555
 9811POPC   PO454564   1.246   1.178   5.855
 9811POPC   GL154565   1.179   1.175   6.155
 9811POPC   GL254566   1.053   1.228   6.155
 9811POPC   C1A54567   1.195   1.197   6.455
 9811POPC   D2A54568   1.168   1.213   6.755
 9811POPC   C3A54569   1.252   1.196   7.055
 9811POPC   C4A54570   1.184   1.229   7.355
 9811POPC   C1B54571   0.948   1.261   6.455
 9811POPC   C2B54572   0.951   1.282   6.755
 9811POPC   C3B54573   0.966   1.335   7.055
 9811POPC   C4B54574   0.945   1.284   7.355
 9812POPC   NC354575  19.788  29.903   5.555
 9812POPC   PO454576  19.826  29.930   5.855
 9812POPC   GL154577  19.826  29.904   6.155
 9812POPC   GL254578  19.807  29.772   6.155
 9812POPC   C1A54579  19.832  29.944   6.455
 9812POPC   D2A54580  19.793  29.871   6.755
 9812POPC   C3A54581  19.868  29.916   7.055
 9812POPC   C4A54582  19.850  29.913   7.355
 9812POPC   C1B54583  19.881  29.722   6.455
 9812POPC   C2B54584  19.910  29.709   6.755
 9812POPC   C3B54585  19.917  29.661   7.055
 9812POPC   C4B54586  19.820  29.679   7.355
 9813POPC   NC354587  30.673  15.159   5.555
 9813POPC   PO454588  30.680  15.146   5.855
 9813POPC   GL154589  30.675  15.141   6.155
 9813POPC   GL254590  30.783  15.033   6.155
 9813POPC   C1A54591  30.743  15.138   6.455
 9813POPC   D2A54592  30.654  15.193   6.755
 9813POPC   C3A54593  30.676  15.229   7.055
 9813POPC   C4A54594  30.720  15.184   7.355
 9813POPC   C1B54595  30.876  14.954   6.455
 9813POPC   C2B54596  30.859  14.979   6.755
 9813POPC   C3B54597  30.844  14.953   7.055
 9813POPC   C4B54598  30.858  15.001   7.355
 9814POPC   NC354599  38.426  15.944   5.555
 9814POPC   PO454600  38.498  15.947   5.855
 9814POPC   GL154601  38.490  15.934   6.155
 9814POPC   GL254602  38.314  16.004   6.155
 9814POPC   C1A54603  38.488  15.976   6.455
 9814POPC   D2A54604  38.451  15.932   6.755
 9814POPC   C3A54605  38.407  15.937   7.055
 9814POPC   C4A54606  38.469  15.995   7.355
 9814POPC   C1B54607  38.248  15.981   6.455
 9814POPC   C2B54608  38.212  16.029   6.755
 9814POPC   C3B54609  38.230  16.017   7.055
 9814POPC   C4B54610  38.165  15.967   7.355
 9815POPC   NC354611  36.918  26.026   5.555
 9815POPC   PO454612  36.865  26.027   5.855
 9815POPC   GL154613  36.894  26.034   6.155
 9815POPC   GL254614  36.875  25.906   6.155
 9815POPC   C1A54615  36.920  26.032   6.455
 9815POPC   D2A54616  36.907  26.024   6.755
 9815POPC   C3A54617  36.877  26.055   7.055
 9815POPC   C4A54618  36.908  26.019   7.355
 9815POPC   C1B54619  36.912  25.830   6.455
 9815POPC   C2B54620  36.926  25.793   6.755
 9815POPC   C3B54621  36.932  25.772   7.055
 9815POPC   C4B54622  36.874  25.748   7.355
 9816POPC   NC354623   0.482  27.585   5.555
 9816POPC   PO454624   0.456  27.637   5.855
 9816POPC   GL154625   0.438  27.581   6.155
 9816POPC   GL254626   0.415  27.508   6.155
 9816POPC   C1A54627   0.402  27.562   6.455
 9816POPC   D2A54628   0.400  27.616   6.755
 9816POPC   C3A54629   0.462  27.629   7.055
 9816POPC   C4A54630   0.414  27.587   7.355
 9816POPC   C1B54631   0.355  27.347   6.455
 9816POPC   C2B54632   0.294  27.324   6.755
 9816POPC   C3B54633   0.364  27.316   7.055
 9816POPC   C4B54634   0.361  27.355   7.355
 9817POPC   NC354635   5.838  41.528   5.555
 9817POPC   PO454636   5.908  41.581   5.855
 9817POPC   GL154637   5.827  41.597   6.155
 9817POPC   GL254638   5.827  41.653   6.155
 9817POPC   C1A54639   5.822  41.582   6.455
 9817POPC   D2A54640   5.836  41.519   6.755
 9817POPC   C3A54641   5.846  41.593   7.055
 9817POPC   C4A54642   5.822  41.570   7.355
 9817POPC   C1B54643   5.730  41.780   6.455
 9817POPC   C2B54644   5.756  41.766   6.755
 9817POPC   C3B54645   5.733  41.743   7.055
 9817POPC   C4B54646   5.693  41.734   7.355
 9818POPC   NC354647  22.195  33.842   5.555
 9818POPC   PO454648  22.164  33.766   5.855
 9818POPC   GL154649  22.131  33.769   6.155
 9818POPC   GL254650  22.273  33.942   6.155
 9818POPC   C1A54651  22.177  33.789   6.455
 9818POPC   D2A54652  22.155  33.789   6.755
 9818POPC   C3A54653  22.129  33.785   7.055
 9818POPC   C4A54654  22.161  33.838   7.355
 9818POPC   C1B54655  22.316  34.049   6.455
 9818POPC   C2B54656  22.300  34.052   6.755
 9818POPC   C3B54657  22.255  34.047   7.055
 9818POPC   C4B54658  22.246  34.044   7.355
 9819POPC   NC354659  15.191  19.047   5.555
 9819POPC   PO454660  15.146  19.077   5.855
 9819POPC   GL154661  15.169  19.063   6.155
 9819POPC   GL254662  15.134  19.167   6.155
 9819POPC   C1A54663  15.194  19.072   6.455
 9819POPC   D2A54664  15.132  19.036   6.755
 9819POPC   C3A54665  15.135  19.028   7.055
 9819POPC   C4A54666  15.212  19.071   7.355
 9819POPC   C1B54667  15.106  19.251   6.455
 9819POPC   C2B54668  15.079  19.246   6.755
 9819POPC   C3B54669  15.073  19.343   7.055
 9819POPC   C4B54670  15.138  19.287   7.355
 9820POPC   NC354671  36.084  12.052   5.555
 9820POPC   PO454672  36.141  12.080   5.855
 9820POPC   GL154673  36.092  12.120   6.155
 9820POPC   GL254674  36.164  11.970   6.155
 9820POPC   C1A54675  36.125  12.032   6.455
 9820POPC   D2A54676  36.124  12.076   6.755
 9820POPC   C3A54677  36.130  12.063   7.055
 9820POPC   C4A54678  36.083  12.051   7.355
 9820POPC   C1B54679  36.270  11.840   6.455
 9820POPC   C2B54680  36.202  11.859   6.755
 9820POPC   C3B54681  36.278  11.852   7.055
 9820POPC   C4B54682  36.291  11.871   7.355
 9821POPC   NC354683   9.773  33.021   5.555
 9821POPC   PO454684   9.730  33.012   5.855
 9821POPC   GL154685   9.785  33.034   6.155
 9821POPC   GL254686   9.906  32.999   6.155
 9821POPC   C1A54687   9.788  33.073   6.455
 9821POPC   D2A54688   9.701  33.033   6.755
 9821POPC   C3A54689   9.736  33.013   7.055
 9821POPC   C4A54690   9.766  33.001   7.355
 9821POPC   C1B54691   9.960  33.030   6.455
 9821POPC   C2B54692  10.033  33.023   6.755
 9821POPC   C3B54693  10.018  33.031   7.055
 9821POPC   C4B54694   9.998  33.108   7.355
 9822POPC   NC354695   7.439  39.992   5.555
 9822POPC   PO454696   7.380  40.048   5.855
 9822POPC   GL154697   7.403  39.964   6.155
 9822POPC   GL254698   7.458  40.137   6.155
 9822POPC   C1A54699   7.451  40.050   6.455
 9822POPC   D2A54700   7.395  39.965   6.755
 9822POPC   C3A54701   7.403  40.057   7.055
 9822POPC   C4A54702   7.416  40.056   7.355
 9822POPC   C1B54703   7.529  40.192   6.455
 9822POPC   C2B54704   7.559  40.179   6.755
 9822POPC   C3B54705   7.547  40.244   7.055
 9822POPC   C4B54706   7.548  40.235   7.355
 9823POPC   NC354707  12.863  22.976   5.555
 9823POPC   PO454708  12.834  22.914   5.855
 9823POPC   GL154709  12.889  22.941   6.155
 9823POPC   GL254710  12.894  23.088   6.155
 9823POPC   C1A54711  12.876  22.924   6.455
 9823POPC   D2A54712  12.891  22.968   6.755
 9823POPC   C3A54713  12.813  22.938   7.055
 9823POPC   C4A54714  12.853  22.922   7.355
 9823POPC   C1B54715  12.937  23.127   6.455
 9823POPC   C2B54716  12.996  23.197   6.755
 9823POPC   C3B54717  12.952  23.160   7.055
 9823POPC   C4B54718  12.933  23.184   7.355
 9824POPC   NC354719  36.929   5.060   5.555
 9824POPC   PO454720  36.860   5.104   5.855
 9824POPC   GL154721  36.915   5.135   6.155
 9824POPC   GL254722  36.999   5.121   6.155
 9824POPC   C1A54723  36.885   5.062   6.455
 9824POPC   D2A54724  36.869   5.081   6.755
 9824POPC   C3A54725  36.933   5.115   7.055
 9824POPC   C4A54726  36.923   5.113   7.355
 9824POPC   C1B54727  37.067   5.210   6.455
 9824POPC   C2B54728  37.095   5.255   6.755
 9824POPC   C3B54729  37.091   5.239   7.055
 9824POPC   C4B54730  37.121   5.207   7.355
 9825POPC   NC354731  42.383  30.695   5.555
 9825POPC   PO454732  42.310  30.660   5.855
 9825POPC   GL154733  42.292  30.694   6.155
 9825POPC   GL254734  42.202  30.769   6.155
 9825POPC   C1A54735  42.363  30.686   6.455
 9825POPC   D2A54736  42.288  30.732   6.755
 9825POPC   C3A54737  42.374  30.648   7.055
 9825POPC   C4A54738  42.335  30.736   7.355
 9825POPC   C1B54739  42.202  30.846   6.455
 9825POPC   C2B54740  42.172  30.883   6.755
 9825POPC   C3B54741  42.210  30.878   7.055
 9825POPC   C4B54742  42.136  30.887   7.355
 9826POPC   NC354743  14.447   8.977   5.555
 9826POPC   PO454744  14.389   9.002   5.855
 9826POPC   GL154745  14.445   8.994   6.155
 9826POPC   GL254746  14.422   8.851   6.155
 9826POPC   C1A54747  14.371   8.992   6.455
 9826POPC   D2A54748  14.388   8.987   6.755
 9826POPC   C3A54749  14.418   8.925   7.055
 9826POPC   C4A54750  14.422   8.967   7.355
 9826POPC   C1B54751  14.322   8.689   6.455
 9826POPC   C2B54752  14.341   8.762   6.755
 9826POPC   C3B54753  14.318   8.737   7.055
 9826POPC   C4B54754  14.364   8.694   7.355
 9827POPC   NC354755   1.978   8.165   5.555
 9827POPC   PO454756   2.004   8.191   5.855
 9827POPC   GL154757   1.990   8.168   6.155
 9827POPC   GL254758   1.939   8.056   6.155
 9827POPC   C1A54759   1.956   8.217   6.455
 9827POPC   D2A54760   1.952   8.236   6.755
 9827POPC   C3A54761   2.026   8.192   7.055
 9827POPC   C4A54762   1.957   8.222   7.355
 9827POPC   C1B54763   1.820   7.994   6.455
 9827POPC   C2B54764   1.822   8.000   6.755
 9827POPC   C3B54765   1.810   8.054   7.055
 9827POPC   C4B54766   1.866   8.012   7.355
 9828POPC   NC354767   8.199   4.299   5.555
 9828POPC   PO454768   8.222   4.324   5.855
 9828POPC   GL154769   8.247   4.277   6.155
 9828POPC   GL254770   8.283   4.186   6.155
 9828POPC   C1A54771   8.148   4.349   6.455
 9828POPC   D2A54772   8.162   4.326   6.755
 9828POPC   C3A54773   8.202   4.351   7.055
 9828POPC   C4A54774   8.186   4.293   7.355
 9828POPC   C1B54775   8.372   4.176   6.455
 9828POPC   C2B54776   8.370   4.147   6.755
 9828POPC   C3B54777   8.414   4.108   7.055
 9828POPC   C4B54778   8.412   4.188   7.355
 9829POPC   NC354779  44.645  43.845   5.555
 9829POPC   PO454780  44.651  43.890   5.855
 9829POPC   GL154781  44.647  43.868   6.155
 9829POPC   GL254782  44.513  43.910   6.155
 9829POPC   C1A54783  44.670  43.897   6.455
 9829POPC   D2A54784  44.653  43.920   6.755
 9829POPC   C3A54785  44.694  43.878   7.055
 9829POPC   C4A54786  44.677  43.883   7.355
 9829POPC   C1B54787  44.424  43.941   6.455
 9829POPC   C2B54788  44.401  43.959   6.755
 9829POPC   C3B54789  44.438  43.942   7.055
 9829POPC   C4B54790  44.421  44.028   7.355
 9830POPC   NC354791  28.401  15.972   5.555
 9830POPC   PO454792  28.335  15.927   5.855
 9830POPC   GL154793  28.364  15.963   6.155
 9830POPC   GL254794  28.431  15.905   6.155
 9830POPC   C1A54795  28.345  15.910   6.455
 9830POPC   D2A54796  28.356  15.952   6.755
 9830POPC   C3A54797  28.401  15.922   7.055
 9830POPC   C4A54798  28.400  15.966   7.355
 9830POPC   C1B54799  28.616  15.768   6.455
 9830POPC   C2B54800  28.532  15.771   6.755
 9830POPC   C3B54801  28.566  15.790   7.055
 9830POPC   C4B54802  28.574  15.802   7.355
 9831POPC   NC354803  35.333  39.240   5.555
 9831POPC   PO454804  35.372  39.208   5.855
 9831POPC   GL154805  35.367  39.190   6.155
 9831POPC   GL254806  35.329  39.114   6.155
 9831POPC   C1A54807  35.402  39.276   6.455
 9831POPC   D2A54808  35.319  39.189   6.755
 9831POPC   C3A54809  35.352  39.248   7.055
 9831POPC   C4A54810  35.329  39.226   7.355
 9831POPC   C1B54811  35.261  39.013   6.455
 9831POPC   C2B54812  35.284  38.994   6.755
 9831POPC   C3B54813  35.322  39.005   7.055
 9831POPC   C4B54814  35.298  39.005   7.355
 9832POPC   NC354815  27.605   1.244   5.555
 9832POPC   PO454816  27.562   1.227   5.855
 9832POPC   GL154817  27.578   1.167   6.155
 9832POPC   GL254818  27.753   1.188   6.155
 9832POPC   C1A54819  27.553   1.255   6.455
 9832POPC   D2A54820  27.608   1.239   6.755
 9832POPC   C3A54821  27.572   1.178   7.055
 9832POPC   C4A54822  27.587   1.197   7.355
 9832POPC   C1B54823  27.853   1.155   6.455
 9832POPC   C2B54824  27.834   1.213   6.755
 9832POPC   C3B54825  27.878   1.122   7.055
 9832POPC   C4B54826  27.884   1.137   7.355
 9833POPC   NC354827  43.851   8.227   5.555
 9833POPC   PO454828  43.923   8.151   5.855
 9833POPC   GL154829  43.858   8.181   6.155
 9833POPC   GL254830  43.809   8.085   6.155
 9833POPC   C1A54831  43.931   8.209   6.455
 9833POPC   D2A54832  43.929   8.154   6.755
 9833POPC   C3A54833  43.915   8.205   7.055
 9833POPC   C4A54834  43.871   8.202   7.355
 9833POPC   C1B54835  43.848   7.919   6.455
 9833POPC   C2B54836  43.796   7.939   6.755
 9833POPC   C3B54837  43.802   7.960   7.055
 9833POPC   C4B54838  43.797   7.926   7.355
 9834POPC   NC354839  32.241  31.512   5.555
 9834POPC   PO454840  32.286  31.439   5.855
 9834POPC   GL154841  32.290  31.504   6.155
 9834POPC   GL254842  32.074  31.464   6.155
 9834POPC   C1A54843  32.204  31.517   6.455
 9834POPC   D2A54844  32.283  31.423   6.755
 9834POPC   C3A54845  32.293  31.424   7.055
 9834POPC   C4A54846  32.204  31.431   7.355
 9834POPC   C1B54847  32.018  31.492   6.455
 9834POPC   C2B54848  32.043  31.500   6.755
 9834POPC   C3B54849  32.006  31.472   7.055
 9834POPC   C4B54850  31.963  31.447   7.355
 9835POPC   NC354851  35.368  19.837   5.555
 9835POPC   PO454852  35.385  19.787   5.855
 9835POPC   GL154853  35.316  19.828   6.155
 9835POPC   GL254854  35.264  19.772   6.155
 9835POPC   C1A54855  35.397  19.841   6.455
 9835POPC   D2A54856  35.303  19.839   6.755
 9835POPC   C3A54857  35.340  19.786   7.055
 9835POPC   C4A54858  35.369  19.882   7.355
 9835POPC   C1B54859  35.138  19.697   6.455
 9835POPC   C2B54860  35.084  19.680   6.755
 9835POPC   C3B54861  35.082  19.690   7.055
 9835POPC   C4B54862  35.092  19.715   7.355
 9836POPC   NC354863  18.328  43.137   5.555
 9836POPC   PO454864  18.328  43.147   5.855
 9836POPC   GL154865  18.233  43.138   6.155
 9836POPC   GL254866  18.198  43.049   6.155
 9836POPC   C1A54867  18.286  43.067   6.455
 9836POPC   D2A54868  18.243  43.107   6.755
 9836POPC   C3A54869  18.252  43.149   7.055
 9836POPC   C4A54870  18.287  43.104   7.355
 9836POPC   C1B54871  18.042  43.084   6.455
 9836POPC   C2B54872  18.047  43.017   6.755
 9836POPC   C3B54873  18.066  43.077   7.055
 9836POPC   C4B54874  18.043  43.032   7.355
 9837POPC   NC354875  36.124  43.869   5.555
 9837POPC   PO454876  36.088  43.866   5.855
 9837POPC   GL154877  36.159  43.901   6.155
 9837POPC   GL254878  36.072  43.724   6.155
 9837POPC   C1A54879  36.103  43.898   6.455
 9837POPC   D2A54880  36.167  43.863   6.755
 9837POPC   C3A54881  36.109  43.852   7.055
 9837POPC   C4A54882  36.169  43.903   7.355
 9837POPC   C1B54883  36.132  43.590   6.455
 9837POPC   C2B54884  36.127  43.672   6.755
 9837POPC   C3B54885  36.074  43.600   7.055
 9837POPC   C4B54886  36.102  43.661   7.355
 9838POPC   NC354887   3.498  29.948   5.555
 9838POPC   PO454888   3.533  29.882   5.855
 9838POPC   GL154889   3.512  29.966   6.155
 9838POPC   GL254890   3.622  29.868   6.155
 9838POPC   C1A54891   3.558  29.896   6.455
 9838POPC   D2A54892   3.537  29.901   6.755
 9838POPC   C3A54893   3.511  29.872   7.055
 9838POPC   C4A54894   3.529  29.882   7.355
 9838POPC   C1B54895   3.757  29.881   6.455
 9838POPC   C2B54896   3.840  29.861   6.755
 9838POPC   C3B54897   3.785  29.883   7.055
 9838POPC   C4B54898   3.799  29.930   7.355
 9839POPC   NC354899  26.077  13.645   5.555
 9839POPC   PO454900  26.030  13.632   5.855
 9839POPC   GL154901  26.057  13.622   6.155
 9839POPC   GL254902  25.975  13.483   6.155
 9839POPC   C1A54903  25.995  13.636   6.455
 9839POPC   D2A54904  26.082  13.628   6.755
 9839POPC   C3A54905  26.020  13.619   7.055
 9839POPC   C4A54906  26.027  13.664   7.355
 9839POPC   C1B54907  26.002  13.411   6.455
 9839POPC   C2B54908  25.978  13.425   6.755
 9839POPC   C3B54909  26.005  13.386   7.055
 9839POPC   C4B54910  25.937  13.389   7.355
 9840POPC   NC354911  26.036  25.257   5.555
 9840POPC   PO454912  26.050  25.234   5.855
 9840POPC   GL154913  26.045  25.294   6.155
 9840POPC   GL254914  26.109  25.313   6.155
 9840POPC   C1A54915  26.061  25.269   6.455
 9840POPC   D2A54916  26.065  25.254   6.755
 9840POPC   C3A54917  26.045  25.276   7.055
 9840POPC   C4A54918  26.050  25.253   7.355
 9840POPC   C1B54919  26.235  25.425   6.455
 9840POPC   C2B54920  26.250  25.422   6.755
 9840POPC   C3B54921  26.186  25.485   7.055
 9840POPC   C4B54922  26.184  25.504   7.355
 9841POPC   NC354923  41.552  43.927   5.555
 9841POPC   PO454924  41.510  43.882   5.855
 9841POPC   GL154925  41.529  43.847   6.155
 9841POPC   GL254926  41.429  43.857   6.155
 9841POPC   C1A54927  41.555  43.837   6.455
 9841POPC   D2A54928  41.608  43.850   6.755
 9841POPC   C3A54929  41.589  43.933   7.055
 9841POPC   C4A54930  41.553  43.894   7.355
 9841POPC   C1B54931  41.296  43.899   6.455
 9841POPC   C2B54932  41.292  43.879   6.755
 9841POPC   C3B54933  41.317  43.842   7.055
 9841POPC   C4B54934  41.284  43.883   7.355
 9842POPC   NC354935  34.601  38.447   5.555
 9842POPC   PO454936  34.531  38.461   5.855
 9842POPC   GL154937  34.616  38.504   6.155
 9842POPC   GL254938  34.436  38.387   6.155
 9842POPC   C1A54939  34.601  38.484   6.455
 9842POPC   D2A54940  34.539  38.492   6.755
 9842POPC   C3A54941  34.545  38.468   7.055
 9842POPC   C4A54942  34.565  38.459   7.355
 9842POPC   C1B54943  34.328  38.368   6.455
 9842POPC   C2B54944  34.335  38.390   6.755
 9842POPC   C3B54945  34.335  38.319   7.055
 9842POPC   C4B54946  34.345  38.342   7.355
 9843POPC   NC354947  40.010  13.607   5.555
 9843POPC   PO454948  40.049  13.651   5.855
 9843POPC   GL154949  39.959  13.583   6.155
 9843POPC   GL254950  39.995  13.510   6.155
 9843POPC   C1A54951  40.043  13.625   6.455
 9843POPC   D2A54952  40.050  13.677   6.755
 9843POPC   C3A54953  40.013  13.620   7.055
 9843POPC   C4A54954  40.025  13.583   7.355
 9843POPC   C1B54955  39.964  13.404   6.455
 9843POPC   C2B54956  39.989  13.420   6.755
 9843POPC   C3B54957  40.006  13.364   7.055
 9843POPC   C4B54958  40.003  13.382   7.355
 9844POPC   NC354959  19.846  26.803   5.555
 9844POPC   PO454960  19.811  26.828   5.855
 9844POPC   GL154961  19.868  26.790   6.155
 9844POPC   GL254962  19.953  26.921   6.155
 9844POPC   C1A54963  19.802  26.862   6.455
 9844POPC   D2A54964  19.786  26.843   6.755
 9844POPC   C3A54965  19.872  26.822   7.055
 9844POPC   C4A54966  19.850  26.790   7.355
 9844POPC   C1B54967  19.999  26.954   6.455
 9844POPC   C2B54968  19.998  26.968   6.755
 9844POPC   C3B54969  20.053  26.983   7.055
 9844POPC   C4B54970  20.076  26.993   7.355
 9845POPC   NC354971   6.607  36.130   5.555
 9845POPC   PO454972   6.608  36.108   5.855
 9845POPC   GL154973   6.626  36.103   6.155
 9845POPC   GL254974   6.578  36.064   6.155
 9845POPC   C1A54975   6.598  36.142   6.455
 9845POPC   D2A54976   6.692  36.123   6.755
 9845POPC   C3A54977   6.620  36.155   7.055
 9845POPC   C4A54978   6.614  36.102   7.355
 9845POPC   C1B54979   6.489  35.954   6.455
 9845POPC   C2B54980   6.479  35.900   6.755
 9845POPC   C3B54981   6.537  35.864   7.055
 9845POPC   C4B54982   6.514  35.953   7.355
 9846POPC   NC354983   1.253  17.545   5.555
 9846POPC   PO454984   1.251  17.460   5.855
 9846POPC   GL154985   1.187  17.519   6.155
 9846POPC   GL254986   1.145  17.594   6.155
 9846POPC   C1A54987   1.224  17.535   6.455
 9846POPC   D2A54988   1.215  17.506   6.755
 9846POPC   C3A54989   1.189  17.497   7.055
 9846POPC   C4A54990   1.202  17.467   7.355
 9846POPC   C1B54991   1.021  17.629   6.455
 9846POPC   C2B54992   1.021  17.588   6.755
 9846POPC   C3B54993   0.960  17.637   7.055
 9846POPC   C4B54994   0.933  17.566   7.355
 9847POPC   NC354995  11.277  33.801   5.555
 9847POPC   PO454996  11.346  33.775   5.855
 9847POPC   GL154997  11.287  33.806   6.155
 9847POPC   GL254998  11.377  33.814   6.155
 9847POPC   C1A54999  11.271  33.779   6.455
 9847POPC   D2A55000  11.295  33.755   6.755
 9847POPC   C3A55001  11.318  33.780   7.055
 9847POPC   C4A55002  11.301  33.789   7.355
 9847POPC   C1B55003  11.526  33.826   6.455
 9847POPC   C2B55004  11.537  33.890   6.755
 9847POPC   C3B55005  11.507  33.810   7.055
 9847POPC   C4B55006  11.542  33.874   7.355
 9848POPC   NC355007   2.761  23.682   5.555
 9848POPC   PO455008   2.807  23.728   5.855
 9848POPC   GL155009   2.756  23.669   6.155
 9848POPC   GL255010   2.790  23.575   6.155
 9848POPC   C1A55011   2.754  23.689   6.455
 9848POPC   D2A55012   2.792  23.710   6.755
 9848POPC   C3A55013   2.717  23.708   7.055
 9848POPC   C4A55014   2.720  23.730   7.355
 9848POPC   C1B55015   2.790  23.442   6.455
 9848POPC   C2B55016   2.802  23.421   6.755
 9848POPC   C3B55017   2.811  23.443   7.055
 9848POPC   C4B55018   2.850  23.462   7.355
 9849POPC   NC355019  28.407  22.140   5.555
 9849POPC   PO455020  28.401  22.207   5.855
 9849POPC   GL155021  28.337  22.202   6.155
 9849POPC   GL255022  28.371  22.043   6.155
 9849POPC   C1A55023  28.410  22.138   6.455
 9849POPC   D2A55024  28.412  22.157   6.755
 9849POPC   C3A55025  28.383  22.128   7.055
 9849POPC   C4A55026  28.408  22.152   7.355
 9849POPC   C1B55027  28.449  21.907   6.455
 9849POPC   C2B55028  28.462  21.883   6.755
 9849POPC   C3B55029  28.406  21.872   7.055
 9849POPC   C4B55030  28.428  21.953   7.355
 9850POPC   NC355031  36.948  31.471   5.555
 9850POPC   PO455032  36.937  31.425   5.855
 9850POPC   GL155033  36.875  31.493   6.155
 9850POPC   GL255034  36.732  31.484   6.155
 9850POPC   C1A55035  36.900  31.497   6.455
 9850POPC   D2A55036  36.916  31.504   6.755
 9850POPC   C3A55037  36.860  31.429   7.055
 9850POPC   C4A55038  36.918  31.425   7.355
 9850POPC   C1B55039  36.692  31.517   6.455
 9850POPC   C2B55040  36.695  31.526   6.755
 9850POPC   C3B55041  36.640  31.495   7.055
 9850POPC   C4B55042  36.690  31.469   7.355
 9851POPC   NC355043  29.165  19.788   5.555
 9851POPC   PO455044  29.124  19.868   5.855
 9851POPC   GL155045  29.185  19.862   6.155
 9851POPC   GL255046  29.085  19.875   6.155
 9851POPC   C1A55047  29.134  19.872   6.455
 9851POPC   D2A55048  29.107  19.801   6.755
 9851POPC   C3A55049  29.125  19.859   7.055
 9851POPC   C4A55050  29.189  19.827   7.355
 9851POPC   C1B55051  28.965  20.045   6.455
 9851POPC   C2B55052  28.910  20.031   6.755
 9851POPC   C3B55053  28.904  20.017   7.055
 9851POPC   C4B55054  28.994  19.998   7.355
 9852POPC   NC355055  10.488   4.303   5.555
 9852POPC   PO455056  10.494   4.271   5.855
 9852POPC   GL155057  10.545   4.306   6.155
 9852POPC   GL255058  10.478   4.485   6.155
 9852POPC   C1A55059  10.561   4.278   6.455
 9852POPC   D2A55060  10.556   4.299   6.755
 9852POPC   C3A55061  10.569   4.324   7.055
 9852POPC   C4A55062  10.521   4.316   7.355
 9852POPC   C1B55063  10.462   4.607   6.455
 9852POPC   C2B55064  10.504   4.547   6.755
 9852POPC   C3B55065  10.498   4.528   7.055
 9852POPC   C4B55066  10.451   4.565   7.355
 9853POPC   NC355067   2.761  40.826   5.555
 9853POPC   PO455068   2.764  40.806   5.855
 9853POPC   GL155069   2.788  40.766   6.155
 9853POPC   GL255070   2.600  40.724   6.155
 9853POPC   C1A55071   2.758  40.754   6.455
 9853POPC   D2A55072   2.781  40.802   6.755
 9853POPC   C3A55073   2.717  40.760   7.055
 9853POPC   C4A55074   2.716  40.810   7.355
 9853POPC   C1B55075   2.513  40.743   6.455
 9853POPC   C2B55076   2.540  40.712   6.755
 9853POPC   C3B55077   2.481  40.805   7.055
 9853POPC   C4B55078   2.513  40.709   7.355
 9854POPC   NC355079  24.479   3.589   5.555
 9854POPC   PO455080  24.467   3.506   5.855
 9854POPC   GL155081  24.459   3.510   6.155
 9854POPC   GL255082  24.634   3.609   6.155
 9854POPC   C1A55083  24.519   3.532   6.455
 9854POPC   D2A55084  24.482   3.525   6.755
 9854POPC   C3A55085  24.539   3.566   7.055
 9854POPC   C4A55086  24.509   3.530   7.355
 9854POPC   C1B55087  24.677   3.638   6.455
 9854POPC   C2B55088  24.673   3.672   6.755
 9854POPC   C3B55089  24.714   3.670   7.055
 9854POPC   C4B55090  24.693   3.721   7.355
 9855POPC   NC355091   2.731  31.453   5.555
 9855POPC   PO455092   2.757  31.501   5.855
 9855POPC   GL155093   2.755  31.443   6.155
 9855POPC   GL255094   2.765  31.363   6.155
 9855POPC   C1A55095   2.734  31.507   6.455
 9855POPC   D2A55096   2.789  31.465   6.755
 9855POPC   C3A55097   2.738  31.500   7.055
 9855POPC   C4A55098   2.810  31.457   7.355
 9855POPC   C1B55099   2.787  31.191   6.455
 9855POPC   C2B55100   2.845  31.259   6.755
 9855POPC   C3B55101   2.798  31.251   7.055
 9855POPC   C4B55102   2.845  31.197   7.355
 9856POPC   NC355103  21.366  40.814   5.555
 9856POPC   PO455104  21.400  40.776   5.855
 9856POPC   GL155105  21.366  40.792   6.155
 9856POPC   GL255106  21.400  40.868   6.155
 9856POPC   C1A55107  21.339  40.753   6.455
 9856POPC   D2A55108  21.404  40.765   6.755
 9856POPC   C3A55109  21.344  40.809   7.055
 9856POPC   C4A55110  21.360  40.766   7.355
 9856POPC   C1B55111  21.389  41.008   6.455
 9856POPC   C2B55112  21.311  40.983   6.755
 9856POPC   C3B55113  21.332  40.995   7.055
 9856POPC   C4B55114  21.314  41.031   7.355
 9857POPC   NC355115   3.549  16.706   5.555
 9857POPC   PO455116   3.498  16.700   5.855
 9857POPC   GL155117   3.584  16.715   6.155
 9857POPC   GL255118   3.505  16.842   6.155
 9857POPC   C1A55119   3.536  16.739   6.455
 9857POPC   D2A55120   3.534  16.762   6.755
 9857POPC   C3A55121   3.576  16.682   7.055
 9857POPC   C4A55122   3.545  16.748   7.355
 9857POPC   C1B55123   3.519  16.978   6.455
 9857POPC   C2B55124   3.485  16.993   6.755
 9857POPC   C3B55125   3.542  17.010   7.055
 9857POPC   C4B55126   3.542  16.977   7.355
 9858POPC   NC355127   4.339   1.203   5.555
 9858POPC   PO455128   4.282   1.194   5.855
 9858POPC   GL155129   4.320   1.182   6.155
 9858POPC   GL255130   4.381   1.133   6.155
 9858POPC   C1A55131   4.367   1.207   6.455
 9858POPC   D2A55132   4.269   1.178   6.755
 9858POPC   C3A55133   4.347   1.207   7.055
 9858POPC   C4A55134   4.268   1.256   7.355
 9858POPC   C1B55135   4.507   1.045   6.455
 9858POPC   C2B55136   4.518   1.084   6.755
 9858POPC   C3B55137   4.522   1.056   7.055
 9858POPC   C4B55138   4.513   1.083   7.355
 9859POPC   NC355139  12.049   7.442   5.555
 9859POPC   PO455140  12.080   7.449   5.855
 9859POPC   GL155141  12.103   7.419   6.155
 9859POPC   GL255142  12.201   7.401   6.155
 9859POPC   C1A55143  12.103   7.465   6.455
 9859POPC   D2A55144  12.056   7.386   6.755
 9859POPC   C3A55145  12.079   7.438   7.055
 9859POPC   C4A55146  12.089   7.410   7.355
 9859POPC   C1B55147  12.328   7.442   6.455
 9859POPC   C2B55148  12.325   7.427   6.755
 9859POPC   C3B55149  12.286   7.436   7.055
 9859POPC   C4B55150  12.286   7.461   7.355
 9860POPC   NC355151  12.882  19.011   5.555
 9860POPC   PO455152  12.856  19.044   5.855
 9860POPC   GL155153  12.874  19.042   6.155
 9860POPC   GL255154  12.888  18.911   6.155
 9860POPC   C1A55155  12.844  19.104   6.455
 9860POPC   D2A55156  12.844  19.101   6.755
 9860POPC   C3A55157  12.865  19.093   7.055
 9860POPC   C4A55158  12.847  19.061   7.355
 9860POPC   C1B55159  13.006  18.825   6.455
 9860POPC   C2B55160  12.944  18.828   6.755
 9860POPC   C3B55161  12.927  18.821   7.055
 9860POPC   C4B55162  12.926  18.872   7.355
 9861POPC   NC355163  40.827  41.594   5.555
 9861POPC   PO455164  40.781  41.557   5.855
 9861POPC   GL155165  40.806  41.542   6.155
 9861POPC   GL255166  40.694  41.485   6.155
 9861POPC   C1A55167  40.832  41.575   6.455
 9861POPC   D2A55168  40.763  41.554   6.755
 9861POPC   C3A55169  40.822  41.570   7.055
 9861POPC   C4A55170  40.744  41.529   7.355
 9861POPC   C1B55171  40.548  41.429   6.455
 9861POPC   C2B55172  40.583  41.448   6.755
 9861POPC   C3B55173  40.562  41.428   7.055
 9861POPC   C4B55174  40.555  41.504   7.355
 9862POPC   NC355175  37.666   3.548   5.555
 9862POPC   PO455176  37.703   3.568   5.855
 9862POPC   GL155177  37.666   3.532   6.155
 9862POPC   GL255178  37.768   3.497   6.155
 9862POPC   C1A55179  37.655   3.508   6.455
 9862POPC   D2A55180  37.720   3.572   6.755
 9862POPC   C3A55181  37.702   3.576   7.055
 9862POPC   C4A55182  37.662   3.585   7.355
 9862POPC   C1B55183  37.873   3.468   6.455
 9862POPC   C2B55184  37.926   3.482   6.755
 9862POPC   C3B55185  37.875   3.455   7.055
 9862POPC   C4B55186  37.884   3.431   7.355
 9863POPC   NC355187   3.543  31.472   5.555
 9863POPC   PO455188   3.542  31.437   5.855
 9863POPC   GL155189   3.530  31.476   6.155
 9863POPC   GL255190   3.592  31.375   6.155
 9863POPC   C1A55191   3.523  31.504   6.455
 9863POPC   D2A55192   3.492  31.452   6.755
 9863POPC   C3A55193   3.509  31.455   7.055
 9863POPC   C4A55194   3.495  31.470   7.355
 9863POPC   C1B55195   3.655  31.239   6.455
 9863POPC   C2B55196   3.708  31.318   6.755
 9863POPC   C3B55197   3.676  31.271   7.055
 9863POPC   C4B55198   3.674  31.286   7.355
 9864POPC   NC355199  29.873  43.886   5.555
 9864POPC   PO455200  29.879  43.907   5.855
 9864POPC   GL155201  29.960  43.911   6.155
 9864POPC   GL255202  29.924  44.009   6.155
 9864POPC   C1A55203  29.893  43.888   6.455
 9864POPC   D2A55204  29.953  43.877   6.755
 9864POPC   C3A55205  29.912  43.870   7.055
 9864POPC   C4A55206  29.876  43.923   7.355
 9864POPC   C1B55207  29.888  44.085   6.455
 9864POPC   C2B55208  29.887  44.122   6.755
 9864POPC   C3B55209  29.801  44.112   7.055
 9864POPC   C4B55210  29.807  44.099   7.355
 9865POPC   NC355211   5.070  12.038   5.555
 9865POPC   PO455212   5.140  12.088   5.855
 9865POPC   GL155213   5.118  12.097   6.155
 9865POPC   GL255214   5.161  12.097   6.155
 9865POPC   C1A55215   5.140  12.062   6.455
 9865POPC   D2A55216   5.049  12.046   6.755
 9865POPC   C3A55217   5.076  12.107   7.055
 9865POPC   C4A55218   5.123  12.068   7.355
 9865POPC   C1B55219   5.341  12.242   6.455
 9865POPC   C2B55220   5.273  12.181   6.755
 9865POPC   C3B55221   5.341  12.194   7.055
 9865POPC   C4B55222   5.313  12.156   7.355
 9866POPC   NC355223  12.836  11.297   5.555
 9866POPC   PO455224  12.859  11.313   5.855
 9866POPC   GL155225  12.883  11.335   6.155
 9866POPC   GL255226  12.973  11.372   6.155
 9866POPC   C1A55227  12.900  11.284   6.455
 9866POPC   D2A55228  12.843  11.301   6.755
 9866POPC   C3A55229  12.805  11.322   7.055
 9866POPC   C4A55230  12.895  11.299   7.355
 9866POPC   C1B55231  13.066  11.417   6.455
 9866POPC   C2B55232  13.103  11.429   6.755
 9866POPC   C3B55233  13.081  11.460   7.055
 9866POPC   C4B55234  13.092  11.430   7.355
 9867POPC   NC355235  15.180   8.963   5.555
 9867POPC   PO455236  15.136   8.924   5.855
 9867POPC   GL155237  15.212   8.973   6.155
 9867POPC   GL255238  15.282   8.930   6.155
 9867POPC   C1A55239  15.224   9.006   6.455
 9867POPC   D2A55240  15.206   8.964   6.755
 9867POPC   C3A55241  15.205   8.957   7.055
 9867POPC   C4A55242  15.209   8.929   7.355
 9867POPC   C1B55243  15.460   8.942   6.455
 9867POPC   C2B55244  15.384   8.851   6.755
 9867POPC   C3B55245  15.409   8.919   7.055
 9867POPC   C4B55246  15.386   8.921   7.355
 9868POPC   NC355247  37.681   5.899   5.555
 9868POPC   PO455248  37.644   5.819   5.855
 9868POPC   GL155249  37.674   5.842   6.155
 9868POPC   GL255250  37.696   6.024   6.155
 9868POPC   C1A55251  37.705   5.872   6.455
 9868POPC   D2A55252  37.670   5.828   6.755
 9868POPC   C3A55253  37.687   5.894   7.055
 9868POPC   C4A55254  37.692   5.899   7.355
 9868POPC   C1B55255  37.750   6.116   6.455
 9868POPC   C2B55256  37.710   6.133   6.755
 9868POPC   C3B55257  37.779   6.115   7.055
 9868POPC   C4B55258  37.746   6.132   7.355
 9869POPC   NC355259   5.910   5.868   5.555
 9869POPC   PO455260   5.911   5.844   5.855
 9869POPC   GL155261   5.844   5.917   6.155
 9869POPC   GL255262   5.843   5.975   6.155
 9869POPC   C1A55263   5.886   5.846   6.455
 9869POPC   D2A55264   5.899   5.913   6.755
 9869POPC   C3A55265   5.833   5.898   7.055
 9869POPC   C4A55266   5.843   5.902   7.355
 9869POPC   C1B55267   5.808   6.108   6.455
 9869POPC   C2B55268   5.772   6.158   6.755
 9869POPC   C3B55269   5.778   6.141   7.055
 9869POPC   C4B55270   5.783   6.085   7.355
 9870POPC   NC355271  14.417  35.340   5.555
 9870POPC   PO455272  14.453  35.341   5.855
 9870POPC   GL155273  14.407  35.363   6.155
 9870POPC   GL255274  14.504  35.280   6.155
 9870POPC   C1A55275  14.398  35.385   6.455
 9870POPC   D2A55276  14.391  35.401   6.755
 9870POPC   C3A55277  14.445  35.326   7.055
 9870POPC   C4A55278  14.419  35.367   7.355
 9870POPC   C1B55279  14.656  35.291   6.455
 9870POPC   C2B55280  14.662  35.245   6.755
 9870POPC   C3B55281  14.680  35.304   7.055
 9870POPC   C4B55282  14.662  35.311   7.355
 9871POPC   NC355283  35.310  39.981   5.555
 9871POPC   PO455284  35.326  40.048   5.855
 9871POPC   GL155285  35.343  39.997   6.155
 9871POPC   GL255286  35.507  40.077   6.155
 9871POPC   C1A55287  35.356  39.961   6.455
 9871POPC   D2A55288  35.310  40.004   6.755
 9871POPC   C3A55289  35.379  40.009   7.055
 9871POPC   C4A55290  35.329  40.028   7.355
 9871POPC   C1B55291  35.570  40.112   6.455
 9871POPC   C2B55292  35.623  40.061   6.755
 9871POPC   C3B55293  35.596  40.124   7.055
 9871POPC   C4B55294  35.593  40.136   7.355
 9872POPC   NC355295   5.067  44.675   5.555
 9872POPC   PO455296   5.120  44.632   5.855
 9872POPC   GL155297   5.119  44.682   6.155
 9872POPC   GL255298   5.178  44.797   6.155
 9872POPC   C1A55299   5.116  44.647   6.455
 9872POPC   D2A55300   5.066  44.691   6.755
 9872POPC   C3A55301   5.062  44.631   7.055
 9872POPC   C4A55302   5.138  44.624   7.355
 9872POPC   C1B55303   5.255  44.845   6.455
 9872POPC   C2B55304   5.164  44.849   6.755
 9872POPC   C3B55305   5.207  44.896   7.055
 9872POPC   C4B55306   5.219  44.924   7.355
 9873POPC   NC355307  41.537  18.306   5.555
 9873POPC   PO455308  41.551  18.327   5.855
 9873POPC   GL155309  41.551  18.246   6.155
 9873POPC   GL255310  41.606  18.181   6.155
 9873POPC   C1A55311  41.574  18.300   6.455
 9873POPC   D2A55312  41.539  18.298   6.755
 9873POPC   C3A55313  41.553  18.251   7.055
 9873POPC   C4A55314  41.513  18.332   7.355
 9873POPC   C1B55315  41.747  18.047   6.455
 9873POPC   C2B55316  41.692  18.112   6.755
 9873POPC   C3B55317  41.707  18.083   7.055
 9873POPC   C4B55318  41.761  18.113   7.355
 9874POPC   NC355319   4.363  42.347   5.555
 9874POPC   PO455320   4.345  42.354   5.855
 9874POPC   GL155321   4.283  42.352   6.155
 9874POPC   GL255322   4.458  42.299   6.155
 9874POPC   C1A55323   4.308  42.332   6.455
 9874POPC   D2A55324   4.285  42.341   6.755
 9874POPC   C3A55325   4.303  42.297   7.055
 9874POPC   C4A55326   4.278  42.302   7.355
 9874POPC   C1B55327   4.567  42.256   6.455
 9874POPC   C2B55328   4.514  42.260   6.755
 9874POPC   C3B55329   4.518  42.225   7.055
 9874POPC   C4B55330   4.593  42.216   7.355
 9875POPC   NC355331  16.004   4.303   5.555
 9875POPC   PO455332  15.928   4.276   5.855
 9875POPC   GL155333  15.958   4.302   6.155
 9875POPC   GL255334  16.104   4.385   6.155
 9875POPC   C1A55335  15.980   4.273   6.455
 9875POPC   D2A55336  15.967   4.269   6.755
 9875POPC   C3A55337  15.974   4.282   7.055
 9875POPC   C4A55338  15.990   4.326   7.355
 9875POPC   C1B55339  16.182   4.325   6.455
 9875POPC   C2B55340  16.225   4.312   6.755
 9875POPC   C3B55341  16.193   4.323   7.055
 9875POPC   C4B55342  16.248   4.386   7.355
 9876POPC   NC355343  38.424   2.027   5.555
 9876POPC   PO455344  38.452   2.033   5.855
 9876POPC   GL155345  38.408   1.962   6.155
 9876POPC   GL255346  38.426   2.090   6.155
 9876POPC   C1A55347  38.452   1.992   6.455
 9876POPC   D2A55348  38.449   1.974   6.755
 9876POPC   C3A55349  38.454   1.982   7.055
 9876POPC   C4A55350  38.406   1.967   7.355
 9876POPC   C1B55351  38.437   2.209   6.455
 9876POPC   C2B55352  38.450   2.259   6.755
 9876POPC   C3B55353  38.394   2.283   7.055
 9876POPC   C4B55354  38.399   2.266   7.355
 9877POPC   NC355355  25.266  15.925   5.555
 9877POPC   PO455356  25.292  16.003   5.855
 9877POPC   GL155357  25.279  15.933   6.155
 9877POPC   GL255358  25.142  15.986   6.155
 9877POPC   C1A55359  25.274  15.985   6.455
 9877POPC   D2A55360  25.315  15.936   6.755
 9877POPC   C3A55361  25.235  15.914   7.055
 9877POPC   C4A55362  25.288  15.973   7.355
 9877POPC   C1B55363  24.979  15.970   6.455
 9877POPC   C2B55364  25.018  15.980   6.755
 9877POPC   C3B55365  24.992  15.977   7.055
 9877POPC   C4B55366  24.981  16.013   7.355
 9878POPC   NC355367   1.226  29.938   5.555
 9878POPC   PO455368   1.250  29.963   5.855
 9878POPC   GL155369   1.225  29.872   6.155
 9878POPC   GL255370   1.086  29.967   6.155
 9878POPC   C1A55371   1.255  29.960   6.455
 9878POPC   D2A55372   1.165  29.939   6.755
 9878POPC   C3A55373   1.224  29.929   7.055
 9878POPC   C4A55374   1.236  29.964   7.355
 9878POPC   C1B55375   0.978  30.026   6.455
 9878POPC   C2B55376   0.933  30.005   6.755
 9878POPC   C3B55377   0.965  29.981   7.055
 9878POPC   C4B55378   1.004  29.961   7.355
 9879POPC   NC355379  29.920  32.245   5.555
 9879POPC   PO455380  29.930  32.222   5.855
 9879POPC   GL155381  29.898  32.234   6.155
 9879POPC   GL255382  29.846  32.333   6.155
 9879POPC   C1A55383  29.963  32.235   6.455
 9879POPC   D2A55384  29.914  32.221   6.755
 9879POPC   C3A55385  29.966  32.250   7.055
 9879POPC   C4A55386  29.917  32.251   7.355
 9879POPC   C1B55387  29.799  32.447   6.455
 9879POPC   C2B55388  29.790  32.420   6.755
 9879POPC   C3B55389  29.769  32.406   7.055
 9879POPC   C4B55390  29.794  32.426   7.355
 9880POPC   NC355391  42.359   8.949   5.555
 9880POPC   PO455392  42.291   9.020   5.855
 9880POPC   GL155393  42.309   8.976   6.155
 9880POPC   GL255394  42.268   9.035   6.155
 9880POPC   C1A55395  42.351   8.957   6.455
 9880POPC   D2A55396  42.363   8.978   6.755
 9880POPC   C3A55397  42.316   8.996   7.055
 9880POPC   C4A55398  42.325   8.944   7.355
 9880POPC   C1B55399  42.192   9.095   6.455
 9880POPC   C2B55400  42.178   9.117   6.755
 9880POPC   C3B55401  42.116   9.185   7.055
 9880POPC   C4B55402  42.188   9.151   7.355
 9881POPC   NC355403  16.686  29.923   5.555
 9881POPC   PO455404  16.760  29.885   5.855
 9881POPC   GL155405  16.743  29.931   6.155
 9881POPC   GL255406  16.784  29.765   6.155
 9881POPC   C1A55407  16.741  29.943   6.455
 9881POPC   D2A55408  16.772  29.908   6.755
 9881POPC   C3A55409  16.684  29.884   7.055
 9881POPC   C4A55410  16.713  29.919   7.355
 9881POPC   C1B55411  16.836  29.724   6.455
 9881POPC   C2B55412  16.859  29.646   6.755
 9881POPC   C3B55413  16.824  29.638   7.055
 9881POPC   C4B55414  16.820  29.641   7.355
 9882POPC   NC355415  40.745  17.514   5.555
 9882POPC   PO455416  40.815  17.557   5.855
 9882POPC   GL155417  40.797  17.480   6.155
 9882POPC   GL255418  40.724  17.547   6.155
 9882POPC   C1A55419  40.754  17.548   6.455
 9882POPC   D2A55420  40.819  17.492   6.755
 9882POPC   C3A55421  40.763  17.540   7.055
 9882POPC   C4A55422  40.800  17.533   7.355
 9882POPC   C1B55423  40.612  17.676   6.455
 9882POPC   C2B55424  40.570  17.664   6.755
 9882POPC   C3B55425  40.605  17.657   7.055
 9882POPC   C4B55426  40.561  17.648   7.355
 9883POPC   NC355427  26.077   0.477   5.555
 9883POPC   PO455428  26.069   0.455   5.855
 9883POPC   GL155429  26.065   0.487   6.155
 9883POPC   GL255430  25.944   0.348   6.155
 9883POPC   C1A55431  26.069   0.471   6.455
 9883POPC   D2A55432  26.027   0.456   6.755
 9883POPC   C3A55433  26.031   0.454   7.055
 9883POPC   C4A55434  26.062   0.423   7.355
 9883POPC   C1B55435  25.790   0.322   6.455
 9883POPC   C2B55436  25.827   0.369   6.755
 9883POPC   C3B55437  25.807   0.377   7.055
 9883POPC   C4B55438  25.810   0.323   7.355
 9884POPC   NC355439   6.620   2.718   5.555
 9884POPC   PO455440   6.620   2.788   5.855
 9884POPC   GL155441   6.678   2.744   6.155
 9884POPC   GL255442   6.590   2.925   6.155
 9884POPC   C1A55443   6.692   2.759   6.455
 9884POPC   D2A55444   6.654   2.737   6.755
 9884POPC   C3A55445   6.650   2.802   7.055
 9884POPC   C4A55446   6.673   2.808   7.355
 9884POPC   C1B55447   6.487   2.985   6.455
 9884POPC   C2B55448   6.491   2.997   6.755
 9884POPC   C3B55449   6.488   3.022   7.055
 9884POPC   C4B55450   6.540   2.959   7.355
 9885POPC   NC355451   7.440  29.185   5.555
 9885POPC   PO455452   7.373  29.123   5.855
 9885POPC   GL155453   7.454  29.108   6.155
 9885POPC   GL255454   7.428  28.995   6.155
 9885POPC   C1A55455   7.401  29.127   6.455
 9885POPC   D2A55456   7.437  29.113   6.755
 9885POPC   C3A55457   7.405  29.107   7.055
 9885POPC   C4A55458   7.452  29.105   7.355
 9885POPC   C1B55459   7.469  28.848   6.455
 9885POPC   C2B55460   7.418  28.941   6.755
 9885POPC   C3B55461   7.430  28.897   7.055
 9885POPC   C4B55462   7.478  28.898   7.355
 9886POPC   NC355463  35.349   4.335   5.555
 9886POPC   PO455464  35.370   4.320   5.855
 9886POPC   GL155465  35.379   4.367   6.155
 9886POPC   GL255466  35.294   4.427   6.155
 9886POPC   C1A55467  35.386   4.278   6.455
 9886POPC   D2A55468  35.371   4.316   6.755
 9886POPC   C3A55469  35.302   4.311   7.055
 9886POPC   C4A55470  35.332   4.326   7.355
 9886POPC   C1B55471  35.227   4.567   6.455
 9886POPC   C2B55472  35.283   4.587   6.755
 9886POPC   C3B55473  35.264   4.583   7.055
 9886POPC   C4B55474  35.282   4.539   7.355
 9887POPC   NC355475  31.498  37.679   5.555
 9887POPC   PO455476  31.434  37.673   5.855
 9887POPC   GL155477  31.438  37.709   6.155
 9887POPC   GL255478  31.375  37.727   6.155
 9887POPC   C1A55479  31.492  37.706   6.455
 9887POPC   D2A55480  31.434  37.692   6.755
 9887POPC   C3A55481  31.447  37.673   7.055
 9887POPC   C4A55482  31.432  37.680   7.355
 9887POPC   C1B55483  31.300  37.839   6.455
 9887POPC   C2B55484  31.324  37.880   6.755
 9887POPC   C3B55485  31.268  37.824   7.055
 9887POPC   C4B55486  31.253  37.889   7.355
 9888POPC   NC355487  26.027  11.282   5.555
 9888POPC   PO455488  26.055  11.324   5.855
 9888POPC   GL155489  26.059  11.350   6.155
 9888POPC   GL255490  26.141  11.352   6.155
 9888POPC   C1A55491  26.037  11.260   6.455
 9888POPC   D2A55492  26.045  11.272   6.755
 9888POPC   C3A55493  26.022  11.287   7.055
 9888POPC   C4A55494  26.037  11.266   7.355
 9888POPC   C1B55495  26.218  11.506   6.455
 9888POPC   C2B55496  26.243  11.482   6.755
 9888POPC   C3B55497  26.229  11.457   7.055
 9888POPC   C4B55498  26.226  11.469   7.355
 9889POPC   NC355499  19.826   1.944   5.555
 9889POPC   PO455500  19.800   1.954   5.855
 9889POPC   GL155501  19.794   2.039   6.155
 9889POPC   GL255502  19.791   2.064   6.155
 9889POPC   C1A55503  19.870   1.949   6.455
 9889POPC   D2A55504  19.865   2.033   6.755
 9889POPC   C3A55505  19.868   1.982   7.055
 9889POPC   C4A55506  19.863   2.014   7.355
 9889POPC   C1B55507  19.718   2.179   6.455
 9889POPC   C2B55508  19.654   2.183   6.755
 9889POPC   C3B55509  19.735   2.233   7.055
 9889POPC   C4B55510  19.708   2.151   7.355
 9890POPC   NC355511  15.998   8.153   5.555
 9890POPC   PO455512  15.984   8.227   5.855
 9890POPC   GL155513  15.963   8.209   6.155
 9890POPC   GL255514  15.860   8.262   6.155
 9890POPC   C1A55515  15.964   8.148   6.455
 9890POPC   D2A55516  15.955   8.225   6.755
 9890POPC   C3A55517  15.952   8.232   7.055
 9890POPC   C4A55518  15.957   8.219   7.355
 9890POPC   C1B55519  15.884   8.399   6.455
 9890POPC   C2B55520  15.824   8.386   6.755
 9890POPC   C3B55521  15.819   8.462   7.055
 9890POPC   C4B55522  15.812   8.403   7.355
 9891POPC   NC355523  12.115  13.593   5.555
 9891POPC   PO455524  12.051  13.664   5.855
 9891POPC   GL155525  12.066  13.673   6.155
 9891POPC   GL255526  11.954  13.579   6.155
 9891POPC   C1A55527  12.062  13.592   6.455
 9891POPC   D2A55528  12.100  13.600   6.755
 9891POPC   C3A55529  12.124  13.676   7.055
 9891POPC   C4A55530  12.120  13.631   7.355
 9891POPC   C1B55531  11.815  13.600   6.455
 9891POPC   C2B55532  11.879  13.583   6.755
 9891POPC   C3B55533  11.793  13.599   7.055
 9891POPC   C4B55534  11.859  13.575   7.355
 9892POPC   NC355535   8.961  42.341   5.555
 9892POPC   PO455536   8.977  42.290   5.855
 9892POPC   GL155537   8.936  42.315   6.155
 9892POPC   GL255538   9.038  42.252   6.155
 9892POPC   C1A55539   8.966  42.314   6.455
 9892POPC   D2A55540   8.987  42.301   6.755
 9892POPC   C3A55541   9.014  42.345   7.055
 9892POPC   C4A55542   8.925  42.285   7.355
 9892POPC   C1B55543   9.217  42.209   6.455
 9892POPC   C2B55544   9.224  42.189   6.755
 9892POPC   C3B55545   9.143  42.208   7.055
 9892POPC   C4B55546   9.139  42.175   7.355
 9893POPC   NC355547   8.181  12.115   5.555
 9893POPC   PO455548   8.228  12.065   5.855
 9893POPC   GL155549   8.192  12.102   6.155
 9893POPC   GL255550   8.109  12.146   6.155
 9893POPC   C1A55551   8.201  12.036   6.455
 9893POPC   D2A55552   8.158  12.083   6.755
 9893POPC   C3A55553   8.150  12.110   7.055
 9893POPC   C4A55554   8.157  12.034   7.355
 9893POPC   C1B55555   8.059  12.339   6.455
 9893POPC   C2B55556   8.150  12.345   6.755
 9893POPC   C3B55557   8.140  12.334   7.055
 9893POPC   C4B55558   8.122  12.351   7.355
 9894POPC   NC355559  19.025  27.567   5.555
 9894POPC   PO455560  19.050  27.590   5.855
 9894POPC   GL155561  19.044  27.578   6.155
 9894POPC   GL255562  19.134  27.563   6.155
 9894POPC   C1A55563  19.066  27.637   6.455
 9894POPC   D2A55564  19.070  27.599   6.755
 9894POPC   C3A55565  19.106  27.568   7.055
 9894POPC   C4A55566  19.030  27.557   7.355
 9894POPC   C1B55567  19.341  27.577   6.455
 9894POPC   C2B55568  19.272  27.536   6.755
 9894POPC   C3B55569  19.338  27.538   7.055
 9894POPC   C4B55570  19.289  27.531   7.355
 9895POPC   NC355571  41.582  15.953   5.555
 9895POPC   PO455572  41.539  15.985   5.855
 9895POPC   GL155573  41.571  15.978   6.155
 9895POPC   GL255574  41.539  15.854   6.155
 9895POPC   C1A55575  41.566  15.953   6.455
 9895POPC   D2A55576  41.589  15.975   6.755
 9895POPC   C3A55577  41.558  15.992   7.055
 9895POPC   C4A55578  41.602  15.974   7.355
 9895POPC   C1B55579  41.586  15.661   6.455
 9895POPC   C2B55580  41.628  15.695   6.755
 9895POPC   C3B55581  41.623  15.673   7.055
 9895POPC   C4B55582  41.566  15.660   7.355
 9896POPC   NC355583   1.183  31.478   5.555
 9896POPC   PO455584   1.189  31.471   5.855
 9896POPC   GL155585   1.167  31.469   6.155
 9896POPC   GL255586   1.267  31.622   6.155
 9896POPC   C1A55587   1.199  31.438   6.455
 9896POPC   D2A55588   1.187  31.458   6.755
 9896POPC   C3A55589   1.239  31.444   7.055
 9896POPC   C4A55590   1.221  31.494   7.355
 9896POPC   C1B55591   1.318  31.722   6.455
 9896POPC   C2B55592   1.370  31.660   6.755
 9896POPC   C3B55593   1.322  31.684   7.055
 9896POPC   C4B55594   1.386  31.639   7.355
 9897POPC   NC355595   0.456  20.645   5.555
 9897POPC   PO455596   0.419  20.567   5.855
 9897POPC   GL155597   0.428  20.600   6.155
 9897POPC   GL255598   0.277  20.610   6.155
 9897POPC   C1A55599   0.447  20.579   6.455
 9897POPC   D2A55600   0.417  20.659   6.755
 9897POPC   C3A55601   0.438  20.638   7.055
 9897POPC   C4A55602   0.449  20.608   7.355
 9897POPC   C1B55603   0.228  20.535   6.455
 9897POPC   C2B55604   0.159  20.575   6.755
 9897POPC   C3B55605   0.211  20.579   7.055
 9897POPC   C4B55606   0.217  20.558   7.355
 9898POPC   NC355607  36.928  43.842   5.555
 9898POPC   PO455608  36.936  43.852   5.855
 9898POPC   GL155609  36.951  43.848   6.155
 9898POPC   GL255610  36.919  43.801   6.155
 9898POPC   C1A55611  36.899  43.915   6.455
 9898POPC   D2A55612  36.924  43.908   6.755
 9898POPC   C3A55613  36.939  43.863   7.055
 9898POPC   C4A55614  36.911  43.879   7.355
 9898POPC   C1B55615  36.970  43.701   6.455
 9898POPC   C2B55616  37.004  43.651   6.755
 9898POPC   C3B55617  36.944  43.680   7.055
 9898POPC   C4B55618  37.001  43.649   7.355
 9899POPC   NC355619  14.402  32.977   5.555
 9899POPC   PO455620  14.449  33.026   5.855
 9899POPC   GL155621  14.358  32.988   6.155
 9899POPC   GL255622  14.405  32.949   6.155
 9899POPC   C1A55623  14.419  33.063   6.455
 9899POPC   D2A55624  14.389  33.048   6.755
 9899POPC   C3A55625  14.394  33.026   7.055
 9899POPC   C4A55626  14.441  32.976   7.355
 9899POPC   C1B55627  14.419  32.819   6.455
 9899POPC   C2B55628  14.418  32.805   6.755
 9899POPC   C3B55629  14.443  32.803   7.055
 9899POPC   C4B55630  14.418  32.796   7.355
 9900POPC   NC355631   4.285  29.942   5.555
 9900POPC   PO455632   4.285  29.951   5.855
 9900POPC   GL155633   4.337  29.877   6.155
 9900POPC   GL255634   4.246  29.791   6.155
 9900POPC   C1A55635   4.366  29.875   6.455
 9900POPC   D2A55636   4.269  29.942   6.755
 9900POPC   C3A55637   4.324  29.929   7.055
 9900POPC   C4A55638   4.310  29.933   7.355
 9900POPC   C1B55639   4.165  29.732   6.455
 9900POPC   C2B55640   4.210  29.682   6.755
 9900POPC   C3B55641   4.219  29.734   7.055
 9900POPC   C4B55642   4.197  29.660   7.355
 9901POPC   NC355643   1.984  29.958   5.555
 9901POPC   PO455644   2.014  29.936   5.855
 9901POPC   GL155645   2.018  29.936   6.155
 9901POPC   GL255646   1.860  29.996   6.155
 9901POPC   C1A55647   2.028  29.942   6.455
 9901POPC   D2A55648   2.019  29.952   6.755
 9901POPC   C3A55649   2.022  29.936   7.055
 9901POPC   C4A55650   1.940  29.921   7.355
 9901POPC   C1B55651   1.792  30.027   6.455
 9901POPC   C2B55652   1.720  30.055   6.755
 9901POPC   C3B55653   1.735  30.042   7.055
 9901POPC   C4B55654   1.747  30.065   7.355
 9902POPC   NC355655  29.145  18.295   5.555
 9902POPC   PO455656  29.179  18.258   5.855
 9902POPC   GL155657  29.097  18.326   6.155
 9902POPC   GL255658  29.023  18.393   6.155
 9902POPC   C1A55659  29.195  18.256   6.455
 9902POPC   D2A55660  29.158  18.260   6.755
 9902POPC   C3A55661  29.168  18.245   7.055
 9902POPC   C4A55662  29.125  18.311   7.355
 9902POPC   C1B55663  28.943  18.492   6.455
 9902POPC   C2B55664  28.945  18.451   6.755
 9902POPC   C3B55665  29.010  18.497   7.055
 9902POPC   C4B55666  28.938  18.504   7.355
 9903POPC   NC355667  43.883  44.620   5.555
 9903POPC   PO455668  43.839  44.689   5.855
 9903POPC   GL155669  43.929  44.633   6.155
 9903POPC   GL255670  43.970  44.560   6.155
 9903POPC   C1A55671  43.897  44.661   6.455
 9903POPC   D2A55672  43.898  44.679   6.755
 9903POPC   C3A55673  43.876  44.712   7.055
 9903POPC   C4A55674  43.856  44.648   7.355
 9903POPC   C1B55675  44.081  44.479   6.455
 9903POPC   C2B55676  44.093  44.524   6.755
 9903POPC   C3B55677  44.120  44.534   7.055
 9903POPC   C4B55678  44.086  44.501   7.355
 9904POPC   NC355679  31.473  27.632   5.555
 9904POPC   PO455680  31.496  27.572   5.855
 9904POPC   GL155681  31.501  27.631   6.155
 9904POPC   GL255682  31.462  27.420   6.155
 9904POPC   C1A55683  31.484  27.568   6.455
 9904POPC   D2A55684  31.472  27.618   6.755
 9904POPC   C3A55685  31.483  27.626   7.055
 9904POPC   C4A55686  31.454  27.595   7.355
 9904POPC   C1B55687  31.546  27.390   6.455
 9904POPC   C2B55688  31.490  27.317   6.755
 9904POPC   C3B55689  31.506  27.372   7.055
 9904POPC   C4B55690  31.534  27.295   7.355
 9905POPC   NC355691  44.666   5.854   5.555
 9905POPC   PO455692  44.616   5.852   5.855
 9905POPC   GL155693  44.686   5.874   6.155
 9905POPC   GL255694  44.773   5.849   6.155
 9905POPC   C1A55695  44.661   5.874   6.455
 9905POPC   D2A55696  44.643   5.828   6.755
 9905POPC   C3A55697  44.614   5.896   7.055
 9905POPC   C4A55698  44.688   5.880   7.355
 9905POPC   C1B55699  44.886   5.796   6.455
 9905POPC   C2B55700  44.925   5.785   6.755
 9905POPC   C3B55701  44.911   5.736   7.055
 9905POPC   C4B55702  44.848   5.799   7.355
 9906POPC   NC355703  39.201   7.418   5.555
 9906POPC   PO455704  39.255   7.470   5.855
 9906POPC   GL155705  39.257   7.405   6.155
 9906POPC   GL255706  39.358   7.342   6.155
 9906POPC   C1A55707  39.192   7.423   6.455
 9906POPC   D2A55708  39.250   7.402   6.755
 9906POPC   C3A55709  39.236   7.427   7.055
 9906POPC   C4A55710  39.201   7.442   7.355
 9906POPC   C1B55711  39.405   7.323   6.455
 9906POPC   C2B55712  39.457   7.318   6.755
 9906POPC   C3B55713  39.470   7.299   7.055
 9906POPC   C4B55714  39.495   7.313   7.355
 9907POPC   NC355715  29.107  31.458   5.555
 9907POPC   PO455716  29.153  31.492   5.855
 9907POPC   GL155717  29.141  31.467   6.155
 9907POPC   GL255718  29.025  31.497   6.155
 9907POPC   C1A55719  29.097  31.521   6.455
 9907POPC   D2A55720  29.166  31.443   6.755
 9907POPC   C3A55721  29.147  31.450   7.055
 9907POPC   C4A55722  29.185  31.516   7.355
 9907POPC   C1B55723  28.849  31.521   6.455
 9907POPC   C2B55724  28.888  31.453   6.755
 9907POPC   C3B55725  28.879  31.447   7.055
 9907POPC   C4B55726  28.862  31.524   7.355
 9908POPC   NC355727   8.220  11.326   5.555
 9908POPC   PO455728   8.208  11.297   5.855
 9908POPC   GL155729   8.220  11.257   6.155
 9908POPC   GL255730   8.240  11.442   6.155
 9908POPC   C1A55731   8.223  11.251   6.455
 9908POPC   D2A55732   8.186  11.292   6.755
 9908POPC   C3A55733   8.153  11.283   7.055
 9908POPC   C4A55734   8.182  11.326   7.355
 9908POPC   C1B55735   8.362  11.496   6.455
 9908POPC   C2B55736   8.377  11.448   6.755
 9908POPC   C3B55737   8.376  11.440   7.055
 9908POPC   C4B55738   8.330  11.448   7.355
 9909POPC   NC355739  13.654  43.139   5.555
 9909POPC   PO455740  13.650  43.063   5.855
 9909POPC   GL155741  13.597  43.079   6.155
 9909POPC   GL255742  13.665  43.257   6.155
 9909POPC   C1A55743  13.662  43.090   6.455
 9909POPC   D2A55744  13.580  43.071   6.755
 9909POPC   C3A55745  13.635  43.063   7.055
 9909POPC   C4A55746  13.582  43.119   7.355
 9909POPC   C1B55747  13.644  43.342   6.455
 9909POPC   C2B55748  13.691  43.344   6.755
 9909POPC   C3B55749  13.658  43.376   7.055
 9909POPC   C4B55750  13.671  43.369   7.355
 9910POPC   NC355751  12.866  44.627   5.555
 9910POPC   PO455752  12.821  44.616   5.855
 9910POPC   GL155753  12.887  44.648   6.155
 9910POPC   GL255754  12.785  44.786   6.155
 9910POPC   C1A55755  12.863  44.625   6.455
 9910POPC   D2A55756  12.858  44.627   6.755
 9910POPC   C3A55757  12.892  44.684   7.055
 9910POPC   C4A55758  12.873  44.682   7.355
 9910POPC   C1B55759  12.828  44.923   6.455
 9910POPC   C2B55760  12.796  44.909   6.755
 9910POPC   C3B55761  12.839  44.872   7.055
 9910POPC   C4B55762  12.789  44.870   7.355
 9911POPC   NC355763  37.711  26.849   5.555
 9911POPC   PO455764  37.643  26.801   5.855
 9911POPC   GL155765  37.676  26.865   6.155
 9911POPC   GL255766  37.793  26.891   6.155
 9911POPC   C1A55767  37.673  26.789   6.455
 9911POPC   D2A55768  37.671  26.799   6.755
 9911POPC   C3A55769  37.715  26.834   7.055
 9911POPC   C4A55770  37.645  26.799   7.355
 9911POPC   C1B55771  37.884  26.871   6.455
 9911POPC   C2B55772  37.918  26.943   6.755
 9911POPC   C3B55773  37.895  26.948   7.055
 9911POPC   C4B55774  37.936  26.896   7.355
 9912POPC   NC355775  28.337  40.803   5.555
 9912POPC   PO455776  28.326  40.805   5.855
 9912POPC   GL155777  28.408  40.781   6.155
 9912POPC   GL255778  28.420  40.706   6.155
 9912POPC   C1A55779  28.354  40.764   6.455
 9912POPC   D2A55780  28.335  40.789   6.755
 9912POPC   C3A55781  28.332  40.775   7.055
 9912POPC   C4A55782  28.375  40.785   7.355
 9912POPC   C1B55783  28.409  40.570   6.455
 9912POPC   C2B55784  28.413  40.536   6.755
 9912POPC   C3B55785  28.391  40.517   7.055
 9912POPC   C4B55786  28.372  40.539   7.355
 9913POPC   NC355787  29.923  15.211   5.555
 9913POPC   PO455788  29.963  15.135   5.855
 9913POPC   GL155789  29.875  15.208   6.155
 9913POPC   GL255790  29.830  15.040   6.155
 9913POPC   C1A55791  29.956  15.146   6.455
 9913POPC   D2A55792  29.915  15.173   6.755
 9913POPC   C3A55793  29.881  15.170   7.055
 9913POPC   C4A55794  29.893  15.133   7.355
 9913POPC   C1B55795  29.772  14.962   6.455
 9913POPC   C2B55796  29.743  15.032   6.755
 9913POPC   C3B55797  29.741  14.963   7.055
 9913POPC   C4B55798  29.768  14.973   7.355
 9914POPC   NC355799   8.167   6.631   5.555
 9914POPC   PO455800   8.196   6.635   5.855
 9914POPC   GL155801   8.156   6.686   6.155
 9914POPC   GL255802   8.060   6.711   6.155
 9914POPC   C1A55803   8.222   6.649   6.455
 9914POPC   D2A55804   8.157   6.596   6.755
 9914POPC   C3A55805   8.181   6.601   7.055
 9914POPC   C4A55806   8.192   6.599   7.355
 9914POPC   C1B55807   8.009   6.763   6.455
 9914POPC   C2B55808   7.973   6.851   6.755
 9914POPC   C3B55809   8.039   6.844   7.055
 9914POPC   C4B55810   8.046   6.820   7.355
 9915POPC   NC355811  42.311   8.223   5.555
 9915POPC   PO455812  42.366   8.193   5.855
 9915POPC   GL155813  42.345   8.203   6.155
 9915POPC   GL255814  42.316   8.037   6.155
 9915POPC   C1A55815  42.381   8.221   6.455
 9915POPC   D2A55816  42.384   8.177   6.755
 9915POPC   C3A55817  42.295   8.186   7.055
 9915POPC   C4A55818  42.311   8.243   7.355
 9915POPC   C1B55819  42.318   7.918   6.455
 9915POPC   C2B55820  42.374   7.973   6.755
 9915POPC   C3B55821  42.376   7.926   7.055
 9915POPC   C4B55822  42.364   7.967   7.355
 9916POPC   NC355823   3.572  29.160   5.555
 9916POPC   PO455824   3.526  29.106   5.855
 9916POPC   GL155825   3.564  29.155   6.155
 9916POPC   GL255826   3.637  29.043   6.155
 9916POPC   C1A55827   3.527  29.166   6.455
 9916POPC   D2A55828   3.547  29.192   6.755
 9916POPC   C3A55829   3.508  29.103   7.055
 9916POPC   C4A55830   3.540  29.121   7.355
 9916POPC   C1B55831   3.723  28.947   6.455
 9916POPC   C2B55832   3.653  28.974   6.755
 9916POPC   C3B55833   3.746  28.988   7.055
 9916POPC   C4B55834   3.738  28.986   7.355
 9917POPC   NC355835  15.228   5.838   5.555
 9917POPC   PO455836  15.184   5.877   5.855
 9917POPC   GL155837  15.214   5.862   6.155
 9917POPC   GL255838  15.266   5.951   6.155
 9917POPC   C1A55839  15.203   5.902   6.455
 9917POPC   D2A55840  15.162   5.833   6.755
 9917POPC   C3A55841  15.218   5.912   7.055
 9917POPC   C4A55842  15.161   5.905   7.355
 9917POPC   C1B55843  15.309   6.084   6.455
 9917POPC   C2B55844  15.350   6.015   6.755
 9917POPC   C3B55845  15.378   6.051   7.055
 9917POPC   C4B55846  15.332   6.079   7.355
 9918POPC   NC355847   1.196  36.866   5.555
 9918POPC   PO455848   1.196  36.913   5.855
 9918POPC   GL155849   1.184  36.884   6.155
 9918POPC   GL255850   1.141  36.994   6.155
 9918POPC   C1A55851   1.218  36.864   6.455
 9918POPC   D2A55852   1.240  36.855   6.755
 9918POPC   C3A55853   1.173  36.868   7.055
 9918POPC   C4A55854   1.221  36.941   7.355
 9918POPC   C1B55855   0.985  37.010   6.455
 9918POPC   C2B55856   0.996  36.977   6.755
 9918POPC   C3B55857   0.987  36.996   7.055
 9918POPC   C4B55858   1.005  36.987   7.355
 9919POPC   NC355859  42.364   3.536   5.555
 9919POPC   PO455860  42.352   3.527   5.855
 9919POPC   GL155861  42.362   3.561   6.155
 9919POPC   GL255862  42.359   3.463   6.155
 9919POPC   C1A55863  42.322   3.515   6.455
 9919POPC   D2A55864  42.356   3.554   6.755
 9919POPC   C3A55865  42.316   3.563   7.055
 9919POPC   C4A55866  42.293   3.523   7.355
 9919POPC   C1B55867  42.364   3.253   6.455
 9919POPC   C2B55868  42.310   3.274   6.755
 9919POPC   C3B55869  42.291   3.255   7.055
 9919POPC   C4B55870  42.319   3.284   7.355
 9920POPC   NC355871   9.724  40.016   5.555
 9920POPC   PO455872   9.776  39.987   5.855
 9920POPC   GL155873   9.771  39.958   6.155
 9920POPC   GL255874   9.834  40.095   6.155
 9920POPC   C1A55875   9.790  39.980   6.455
 9920POPC   D2A55876   9.744  39.961   6.755
 9920POPC   C3A55877   9.750  40.047   7.055
 9920POPC   C4A55878   9.786  40.026   7.355
 9920POPC   C1B55879   9.835  40.202   6.455
 9920POPC   C2B55880   9.844  40.176   6.755
 9920POPC   C3B55881   9.844  40.238   7.055
 9920POPC   C4B55882   9.838  40.245   7.355
 9921POPC   NC355883  40.012  33.067   5.555
 9921POPC   PO455884  39.994  33.009   5.855
 9921POPC   GL155885  40.026  32.998   6.155
 9921POPC   GL255886  39.987  33.169   6.155
 9921POPC   C1A55887  39.975  32.978   6.455
 9921POPC   D2A55888  40.048  33.070   6.755
 9921POPC   C3A55889  40.028  33.030   7.055
 9921POPC   C4A55890  39.979  33.027   7.355
 9921POPC   C1B55891  40.093  33.261   6.455
 9921POPC   C2B55892  40.033  33.281   6.755
 9921POPC   C3B55893  40.094  33.300   7.055
 9921POPC   C4B55894  40.033  33.269   7.355
 9922POPC   NC355895   9.021  29.886   5.555
 9922POPC   PO455896   8.987  29.938   5.855
 9922POPC   GL155897   8.956  29.927   6.155
 9922POPC   GL255898   9.064  30.007   6.155
 9922POPC   C1A55899   8.925  29.947   6.455
 9922POPC   D2A55900   9.000  29.900   6.755
 9922POPC   C3A55901   8.986  29.946   7.055
 9922POPC   C4A55902   8.969  29.928   7.355
 9922POPC   C1B55903   9.136  30.135   6.455
 9922POPC   C2B55904   9.124  30.100   6.755
 9922POPC   C3B55905   9.138  30.110   7.055
 9922POPC   C4B55906   9.162  30.050   7.355
 9923POPC   NC355907  30.670   2.016   5.555
 9923POPC   PO455908  30.736   1.948   5.855
 9923POPC   GL155909  30.650   1.943   6.155
 9923POPC   GL255910  30.870   2.013   6.155
 9923POPC   C1A55911  30.668   1.967   6.455
 9923POPC   D2A55912  30.670   1.979   6.755
 9923POPC   C3A55913  30.675   2.032   7.055
 9923POPC   C4A55914  30.736   2.001   7.355
 9923POPC   C1B55915  30.949   2.043   6.455
 9923POPC   C2B55916  30.964   2.017   6.755
 9923POPC   C3B55917  30.914   2.045   7.055
 9923POPC   C4B55918  30.968   2.035   7.355
 9924POPC   NC355919   5.099  10.495   5.555
 9924POPC   PO455920   5.048  10.537   5.855
 9924POPC   GL155921   5.122  10.490   6.155
 9924POPC   GL255922   5.043  10.389   6.155
 9924POPC   C1A55923   5.052  10.526   6.455
 9924POPC   D2A55924   5.140  10.512   6.755
 9924POPC   C3A55925   5.078  10.485   7.055
 9924POPC   C4A55926   5.075  10.477   7.355
 9924POPC   C1B55927   5.115  10.269   6.455
 9924POPC   C2B55928   5.130  10.229   6.755
 9924POPC   C3B55929   5.085  10.270   7.055
 9924POPC   C4B55930   5.082  10.262   7.355
 9925POPC   NC355931  15.135   9.733   5.555
 9925POPC   PO455932  15.173   9.738   5.855
 9925POPC   GL155933  15.204   9.711   6.155
 9925POPC   GL255934  15.096   9.706   6.155
 9925POPC   C1A55935  15.186   9.751   6.455
 9925POPC   D2A55936  15.206   9.745   6.755
 9925POPC   C3A55937  15.221   9.738   7.055
 9925POPC   C4A55938  15.193   9.763   7.355
 9925POPC   C1B55939  14.988   9.687   6.455
 9925POPC   C2B55940  14.914   9.624   6.755
 9925POPC   C3B55941  15.004   9.614   7.055
 9925POPC   C4B55942  14.975   9.664   7.355
 9926POPC   NC355943  26.083  41.527   5.555
 9926POPC   PO455944  26.069  41.548   5.855
 9926POPC   GL155945  26.061  41.527   6.155
 9926POPC   GL255946  26.025  41.678   6.155
 9926POPC   C1A55947  26.053  41.557   6.455
 9926POPC   D2A55948  26.039  41.607   6.755
 9926POPC   C3A55949  26.053  41.516   7.055
 9926POPC   C4A55950  26.091  41.539   7.355
 9926POPC   C1B55951  26.000  41.809   6.455
 9926POPC   C2B55952  26.023  41.858   6.755
 9926POPC   C3B55953  26.000  41.821   7.055
 9926POPC   C4B55954  26.076  41.848   7.355
 9927POPC   NC355955  42.330   6.665   5.555
 9927POPC   PO455956  42.368   6.597   5.855
 9927POPC   GL155957  42.352   6.632   6.155
 9927POPC   GL255958  42.420   6.758   6.155
 9927POPC   C1A55959  42.307   6.670   6.455
 9927POPC   D2A55960  42.333   6.680   6.755
 9927POPC   C3A55961  42.336   6.633   7.055
 9927POPC   C4A55962  42.306   6.674   7.355
 9927POPC   C1B55963  42.415   6.841   6.455
 9927POPC   C2B55964  42.412   6.903   6.755
 9927POPC   C3B55965  42.428   6.863   7.055
 9927POPC   C4B55966  42.476   6.903   7.355
 9928POPC   NC355967   9.732  27.577   5.555
 9928POPC   PO455968   9.769  27.635   5.855
 9928POPC   GL155969   9.786  27.632   6.155
 9928POPC   GL255970   9.639  27.542   6.155
 9928POPC   C1A55971   9.751  27.610   6.455
 9928POPC   D2A55972   9.771  27.601   6.755
 9928POPC   C3A55973   9.771  27.551   7.055
 9928POPC   C4A55974   9.752  27.633   7.355
 9928POPC   C1B55975   9.501  27.524   6.455
 9928POPC   C2B55976   9.485  27.446   6.755
 9928POPC   C3B55977   9.526  27.466   7.055
 9928POPC   C4B55978   9.536  27.442   7.355
 9929POPC   NC355979   9.750   5.860   5.555
 9929POPC   PO455980   9.773   5.915   5.855
 9929POPC   GL155981   9.703   5.913   6.155
 9929POPC   GL255982   9.681   5.725   6.155
 9929POPC   C1A55983   9.795   5.821   6.455
 9929POPC   D2A55984   9.718   5.883   6.755
 9929POPC   C3A55985   9.751   5.840   7.055
 9929POPC   C4A55986   9.778   5.865   7.355
 9929POPC   C1B55987   9.572   5.725   6.455
 9929POPC   C2B55988   9.629   5.687   6.755
 9929POPC   C3B55989   9.582   5.723   7.055
 9929POPC   C4B55990   9.564   5.706   7.355
 9930POPC   NC355991  26.027   5.047   5.555
 9930POPC   PO455992  26.074   5.105   5.855
 9930POPC   GL155993  26.005   5.065   6.155
 9930POPC   GL255994  25.870   5.116   6.155
 9930POPC   C1A55995  26.085   5.095   6.455
 9930POPC   D2A55996  26.050   5.084   6.755
 9930POPC   C3A55997  26.076   5.095   7.055
 9930POPC   C4A55998  26.005   5.114   7.355
 9930POPC   C1B55999  25.843   5.059   6.455
 9930POPC   C2B56000  25.828   5.018   6.755
 9930POPC   C3B56001  25.778   5.080   7.055
 9930POPC   C4B56002  25.777   5.088   7.355
 9931POPC   NC356003  26.811  13.648   5.555
 9931POPC   PO456004  26.793  13.648   5.855
 9931POPC   GL156005  26.790  13.629   6.155
 9931POPC   GL256006  26.667  13.699   6.155
 9931POPC   C1A56007  26.788  13.658   6.455
 9931POPC   D2A56008  26.855  13.649   6.755
 9931POPC   C3A56009  26.785  13.604   7.055
 9931POPC   C4A56010  26.821  13.643   7.355
 9931POPC   C1B56011  26.634  13.720   6.455
 9931POPC   C2B56012  26.614  13.746   6.755
 9931POPC   C3B56013  26.589  13.724   7.055
 9931POPC   C4B56014  26.598  13.703   7.355
 9932POPC   NC356015   1.204   2.791   5.555
 9932POPC   PO456016   1.249   2.737   5.855
 9932POPC   GL156017   1.172   2.782   6.155
 9932POPC   GL256018   1.134   2.880   6.155
 9932POPC   C1A56019   1.191   2.733   6.455
 9932POPC   D2A56020   1.179   2.716   6.755
 9932POPC   C3A56021   1.179   2.777   7.055
 9932POPC   C4A56022   1.192   2.815   7.355
 9932POPC   C1B56023   1.069   2.889   6.455
 9932POPC   C2B56024   1.042   2.935   6.755
 9932POPC   C3B56025   1.061   2.882   7.055
 9932POPC   C4B56026   1.019   2.910   7.355
 9933POPC   NC356027  42.360  40.771   5.555
 9933POPC   PO456028  42.347  40.753   5.855
 9933POPC   GL156029  42.290  40.799   6.155
 9933POPC   GL256030  42.224  40.688   6.155
 9933POPC   C1A56031  42.371  40.751   6.455
 9933POPC   D2A56032  42.384  40.818   6.755
 9933POPC   C3A56033  42.294  40.789   7.055
 9933POPC   C4A56034  42.290  40.800   7.355
 9933POPC   C1B56035  42.215  40.582   6.455
 9933POPC   C2B56036  42.262  40.591   6.755
 9933POPC   C3B56037  42.257  40.517   7.055
 9933POPC   C4B56038  42.175  40.530   7.355
 9934POPC   NC356039  25.263   8.994   5.555
 9934POPC   PO456040  25.310   8.975   5.855
 9934POPC   GL156041  25.298   8.977   6.155
 9934POPC   GL256042  25.267   9.058   6.155
 9934POPC   C1A56043  25.311   8.988   6.455
 9934POPC   D2A56044  25.261   8.961   6.755
 9934POPC   C3A56045  25.231   8.978   7.055
 9934POPC   C4A56046  25.293   8.943   7.355
 9934POPC   C1B56047  25.347   9.169   6.455
 9934POPC   C2B56048  25.366   9.266   6.755
 9934POPC   C3B56049  25.335   9.248   7.055
 9934POPC   C4B56050  25.307   9.208   7.355
 9935POPC   NC356051   1.251  25.247   5.555
 9935POPC   PO456052   1.213  25.236   5.855
 9935POPC   GL156053   1.188  25.230   6.155
 9935POPC   GL256054   1.244  25.126   6.155
 9935POPC   C1A56055   1.243  25.248   6.455
 9935POPC   D2A56056   1.189  25.283   6.755
 9935POPC   C3A56057   1.205  25.236   7.055
 9935POPC   C4A56058   1.244  25.230   7.355
 9935POPC   C1B56059   1.238  25.054   6.455
 9935POPC   C2B56060   1.191  25.033   6.755
 9935POPC   C3B56061   1.279  24.989   7.055
 9935POPC   C4B56062   1.224  25.007   7.355
 9936POPC   NC356063  44.662  12.803   5.555
 9936POPC   PO456064  44.621  12.823   5.855
 9936POPC   GL156065  44.657  12.826   6.155
 9936POPC   GL256066  44.810  12.911   6.155
 9936POPC   C1A56067  44.669  12.891   6.455
 9936POPC   D2A56068  44.627  12.879   6.755
 9936POPC   C3A56069  44.664  12.898   7.055
 9936POPC   C4A56070  44.677  12.870   7.355
 9936POPC   C1B56071  44.959  12.902   6.455
 9936POPC   C2B56072  44.883  12.842   6.755
 9936POPC   C3B56073  44.895  12.841   7.055
 9936POPC   C4B56074  44.890  12.878   7.355
 9937POPC   NC356075  23.676  25.233   5.555
 9937POPC   PO456076  23.668  25.233   5.855
 9937POPC   GL156077  23.708  25.286   6.155
 9937POPC   GL256078  23.734  25.111   6.155
 9937POPC   C1A56079  23.733  25.238   6.455
 9937POPC   D2A56080  23.756  25.216   6.755
 9937POPC   C3A56081  23.739  25.223   7.055
 9937POPC   C4A56082  23.758  25.261   7.355
 9937POPC   C1B56083  23.810  24.996   6.455
 9937POPC   C2B56084  23.776  24.977   6.755
 9937POPC   C3B56085  23.766  25.022   7.055
 9937POPC   C4B56086  23.835  24.983   7.355
 9938POPC   NC356087  15.922  25.283   5.555
 9938POPC   PO456088  15.933  25.249   5.855
 9938POPC   GL156089  15.954  25.301   6.155
 9938POPC   GL256090  15.971  25.107   6.155
 9938POPC   C1A56091  15.992  25.225   6.455
 9938POPC   D2A56092  15.994  25.232   6.755
 9938POPC   C3A56093  15.981  25.308   7.055
 9938POPC   C4A56094  15.950  25.216   7.355
 9938POPC   C1B56095  15.927  24.988   6.455
 9938POPC   C2B56096  15.915  25.065   6.755
 9938POPC   C3B56097  15.946  25.016   7.055
 9938POPC   C4B56098  15.959  24.984   7.355
 9939POPC   NC356099  15.223  43.156   5.555
 9939POPC   PO456100  15.190  43.149   5.855
 9939POPC   GL156101  15.137  43.115   6.155
 9939POPC   GL256102  15.013  43.112   6.155
 9939POPC   C1A56103  15.153  43.138   6.455
 9939POPC   D2A56104  15.228  43.073   6.755
 9939POPC   C3A56105  15.204  43.091   7.055
 9939POPC   C4A56106  15.204  43.096   7.355
 9939POPC   C1B56107  14.906  43.186   6.455
 9939POPC   C2B56108  14.958  43.164   6.755
 9939POPC   C3B56109  14.902  43.171   7.055
 9939POPC   C4B56110  14.948  43.191   7.355
 9940POPC   NC356111  43.063   4.328   5.555
 9940POPC   PO456112  43.097   4.339   5.855
 9940POPC   GL156113  43.124   4.272   6.155
 9940POPC   GL256114  43.040   4.342   6.155
 9940POPC   C1A56115  43.127   4.348   6.455
 9940POPC   D2A56116  43.143   4.352   6.755
 9940POPC   C3A56117  43.149   4.333   7.055
 9940POPC   C4A56118  43.094   4.337   7.355
 9940POPC   C1B56119  42.897   4.425   6.455
 9940POPC   C2B56120  42.893   4.408   6.755
 9940POPC   C3B56121  42.923   4.459   7.055
 9940POPC   C4B56122  42.855   4.445   7.355
 9941POPC   NC356123   8.977  16.688   5.555
 9941POPC   PO456124   8.936  16.729   5.855
 9941POPC   GL156125   8.926  16.729   6.155
 9941POPC   GL256126   8.866  16.751   6.155
 9941POPC   C1A56127   9.021  16.734   6.455
 9941POPC   D2A56128   8.947  16.752   6.755
 9941POPC   C3A56129   8.998  16.711   7.055
 9941POPC   C4A56130   8.956  16.726   7.355
 9941POPC   C1B56131   8.740  16.686   6.455
 9941POPC   C2B56132   8.747  16.684   6.755
 9941POPC   C3B56133   8.686  16.751   7.055
 9941POPC   C4B56134   8.722  16.741   7.355
 9942POPC   NC356135  17.464  22.159   5.555
 9942POPC   PO456136  17.479  22.174   5.855
 9942POPC   GL156137  17.497  22.114   6.155
 9942POPC   GL256138  17.549  22.011   6.155
 9942POPC   C1A56139  17.474  22.208   6.455
 9942POPC   D2A56140  17.523  22.161   6.755
 9942POPC   C3A56141  17.548  22.118   7.055
 9942POPC   C4A56142  17.469  22.142   7.355
 9942POPC   C1B56143  17.669  21.978   6.455
 9942POPC   C2B56144  17.665  21.945   6.755
 9942POPC   C3B56145  17.644  21.964   7.055
 9942POPC   C4B56146  17.669  21.922   7.355
 9943POPC   NC356147  42.367  22.166   5.555
 9943POPC   PO456148  42.371  22.197   5.855
 9943POPC   GL156149  42.371  22.126   6.155
 9943POPC   GL256150  42.419  22.239   6.155
 9943POPC   C1A56151  42.355  22.145   6.455
 9943POPC   D2A56152  42.370  22.189   6.755
 9943POPC   C3A56153  42.351  22.116   7.055
 9943POPC   C4A56154  42.289  22.167   7.355
 9943POPC   C1B56155  42.402  22.402   6.455
 9943POPC   C2B56156  42.409  22.405   6.755
 9943POPC   C3B56157  42.366  22.434   7.055
 9943POPC   C4B56158  42.421  22.385   7.355
 9944POPC   NC356159   4.279  43.896   5.555
 9944POPC   PO456160   4.334  43.872   5.855
 9944POPC   GL156161   4.311  43.935   6.155
 9944POPC   GL256162   4.416  43.893   6.155
 9944POPC   C1A56163   4.316  43.918   6.455
 9944POPC   D2A56164   4.309  43.871   6.755
 9944POPC   C3A56165   4.281  43.841   7.055
 9944POPC   C4A56166   4.283  43.904   7.355
 9944POPC   C1B56167   4.522  43.857   6.455
 9944POPC   C2B56168   4.548  43.851   6.755
 9944POPC   C3B56169   4.601  43.806   7.055
 9944POPC   C4B56170   4.527  43.801   7.355
 9945POPC   NC356171  26.866  25.230   5.555
 9945POPC   PO456172  26.820  25.260   5.855
 9945POPC   GL156173  26.808  25.292   6.155
 9945POPC   GL256174  26.723  25.278   6.155
 9945POPC   C1A56175  26.801  25.315   6.455
 9945POPC   D2A56176  26.843  25.278   6.755
 9945POPC   C3A56177  26.809  25.279   7.055
 9945POPC   C4A56178  26.845  25.245   7.355
 9945POPC   C1B56179  26.645  25.390   6.455
 9945POPC   C2B56180  26.648  25.385   6.755
 9945POPC   C3B56181  26.648  25.414   7.055
 9945POPC   C4B56182  26.568  25.375   7.355
 9946POPC   NC356183  36.904  22.192   5.555
 9946POPC   PO456184  36.935  22.125   5.855
 9946POPC   GL156185  36.906  22.154   6.155
 9946POPC   GL256186  36.866  22.278   6.155
 9946POPC   C1A56187  36.895  22.141   6.455
 9946POPC   D2A56188  36.939  22.137   6.755
 9946POPC   C3A56189  36.925  22.193   7.055
 9946POPC   C4A56190  36.924  22.134   7.355
 9946POPC   C1B56191  36.903  22.379   6.455
 9946POPC   C2B56192  36.890  22.384   6.755
 9946POPC   C3B56193  36.831  22.400   7.055
 9946POPC   C4B56194  36.864  22.447   7.355
 9947POPC   NC356195  30.735  31.424   5.555
 9947POPC   PO456196  30.676  31.521   5.855
 9947POPC   GL156197  30.693  31.477   6.155
 9947POPC   GL256198  30.547  31.487   6.155
 9947POPC   C1A56199  30.719  31.465   6.455
 9947POPC   D2A56200  30.652  31.496   6.755
 9947POPC   C3A56201  30.743  31.447   7.055
 9947POPC   C4A56202  30.731  31.462   7.355
 9947POPC   C1B56203  30.497  31.413   6.455
 9947POPC   C2B56204  30.417  31.489   6.755
 9947POPC   C3B56205  30.425  31.405   7.055
 9947POPC   C4B56206  30.468  31.463   7.355
 9948POPC   NC356207  16.003  12.040   5.555
 9948POPC   PO456208  15.929  12.042   5.855
 9948POPC   GL156209  15.988  12.089   6.155
 9948POPC   GL256210  15.897  11.953   6.155
 9948POPC   C1A56211  15.907  12.093   6.455
 9948POPC   D2A56212  15.976  12.046   6.755
 9948POPC   C3A56213  15.940  12.049   7.055
 9948POPC   C4A56214  15.926  12.037   7.355
 9948POPC   C1B56215  15.750  11.874   6.455
 9948POPC   C2B56216  15.780  11.910   6.755
 9948POPC   C3B56217  15.807  11.838   7.055
 9948POPC   C4B56218  15.792  11.935   7.355
 9949POPC   NC356219  20.606  21.386   5.555
 9949POPC   PO456220  20.573  21.422   5.855
 9949POPC   GL156221  20.602  21.421   6.155
 9949POPC   GL256222  20.614  21.512   6.155
 9949POPC   C1A56223  20.592  21.417   6.455
 9949POPC   D2A56224  20.574  21.392   6.755
 9949POPC   C3A56225  20.564  21.362   7.055
 9949POPC   C4A56226  20.611  21.391   7.355
 9949POPC   C1B56227  20.557  21.668   6.455
 9949POPC   C2B56228  20.503  21.610   6.755
 9949POPC   C3B56229  20.521  21.602   7.055
 9949POPC   C4B56230  20.530  21.572   7.355
 9950POPC   NC356231   1.964  43.096   5.555
 9950POPC   PO456232   1.996  43.131   5.855
 9950POPC   GL156233   1.945  43.140   6.155
 9950POPC   GL256234   2.095  43.220   6.155
 9950POPC   C1A56235   1.972  43.150   6.455
 9950POPC   D2A56236   1.940  43.155   6.755
 9950POPC   C3A56237   1.983  43.063   7.055
 9950POPC   C4A56238   1.946  43.150   7.355
 9950POPC   C1B56239   2.142  43.274   6.455
 9950POPC   C2B56240   2.120  43.322   6.755
 9950POPC   C3B56241   2.155  43.317   7.055
 9950POPC   C4B56242   2.132  43.324   7.355
 9951POPC   NC356243  28.360  27.561   5.555
 9951POPC   PO456244  28.380  27.580   5.855
 9951POPC   GL156245  28.345  27.614   6.155
 9951POPC   GL256246  28.224  27.688   6.155
 9951POPC   C1A56247  28.369  27.576   6.455
 9951POPC   D2A56248  28.355  27.638   6.755
 9951POPC   C3A56249  28.397  27.594   7.055
 9951POPC   C4A56250  28.349  27.626   7.355
 9951POPC   C1B56251  28.122  27.718   6.455
 9951POPC   C2B56252  28.094  27.679   6.755
 9951POPC   C3B56253  28.164  27.725   7.055
 9951POPC   C4B56254  28.126  27.742   7.355
 9952POPC   NC356255  22.915  40.812   5.555
 9952POPC   PO456256  22.914  40.733   5.855
 9952POPC   GL156257  22.902  40.762   6.155
 9952POPC   GL256258  22.952  40.692   6.155
 9952POPC   C1A56259  22.963  40.743   6.455
 9952POPC   D2A56260  22.893  40.755   6.755
 9952POPC   C3A56261  22.914  40.808   7.055
 9952POPC   C4A56262  22.950  40.795   7.355
 9952POPC   C1B56263  22.979  40.484   6.455
 9952POPC   C2B56264  23.005  40.485   6.755
 9952POPC   C3B56265  22.978  40.485   7.055
 9952POPC   C4B56266  22.971  40.573   7.355
 9953POPC   NC356267  20.635  41.530   5.555
 9953POPC   PO456268  20.656  41.593   5.855
 9953POPC   GL156269  20.563  41.532   6.155
 9953POPC   GL256270  20.532  41.510   6.155
 9953POPC   C1A56271  20.658  41.519   6.455
 9953POPC   D2A56272  20.646  41.586   6.755
 9953POPC   C3A56273  20.627  41.526   7.055
 9953POPC   C4A56274  20.614  41.526   7.355
 9953POPC   C1B56275  20.362  41.399   6.455
 9953POPC   C2B56276  20.390  41.390   6.755
 9953POPC   C3B56277  20.442  41.466   7.055
 9953POPC   C4B56278  20.358  41.401   7.355
 9954POPC   NC356279  17.502   7.437   5.555
 9954POPC   PO456280  17.527   7.413   5.855
 9954POPC   GL156281  17.504   7.427   6.155
 9954POPC   GL256282  17.442   7.476   6.155
 9954POPC   C1A56283  17.499   7.418   6.455
 9954POPC   D2A56284  17.485   7.467   6.755
 9954POPC   C3A56285  17.517   7.453   7.055
 9954POPC   C4A56286  17.459   7.389   7.355
 9954POPC   C1B56287  17.293   7.501   6.455
 9954POPC   C2B56288  17.251   7.509   6.755
 9954POPC   C3B56289  17.258   7.553   7.055
 9954POPC   C4B56290  17.259   7.526   7.355
 9955POPC   NC356291  15.964  10.480   5.555
 9955POPC   PO456292  15.951  10.564   5.855
 9955POPC   GL156293  15.979  10.483   6.155
 9955POPC   GL256294  16.109  10.585   6.155
 9955POPC   C1A56295  15.911  10.482   6.455
 9955POPC   D2A56296  15.966  10.564   6.755
 9955POPC   C3A56297  15.948  10.547   7.055
 9955POPC   C4A56298  15.980  10.501   7.355
 9955POPC   C1B56299  16.218  10.554   6.455
 9955POPC   C2B56300  16.239  10.578   6.755
 9955POPC   C3B56301  16.169  10.595   7.055
 9955POPC   C4B56302  16.176  10.585   7.355
 9956POPC   NC356303  26.010  26.023   5.555
 9956POPC   PO456304  26.035  26.091   5.855
 9956POPC   GL156305  26.015  26.026   6.155
 9956POPC   GL256306  26.077  26.131   6.155
 9956POPC   C1A56307  26.044  25.999   6.455
 9956POPC   D2A56308  26.079  25.993   6.755
 9956POPC   C3A56309  26.083  26.012   7.055
 9956POPC   C4A56310  26.010  26.022   7.355
 9956POPC   C1B56311  26.163  26.191   6.455
 9956POPC   C2B56312  26.240  26.229   6.755
 9956POPC   C3B56313  26.157  26.202   7.055
 9956POPC   C4B56314  26.220  26.250   7.355
 9957POPC   NC356315   3.544  22.125   5.555
 9957POPC   PO456316   3.524  22.200   5.855
 9957POPC   GL156317   3.585  22.175   6.155
 9957POPC   GL256318   3.673  22.160   6.155
 9957POPC   C1A56319   3.565  22.163   6.455
 9957POPC   D2A56320   3.507  22.177   6.755
 9957POPC   C3A56321   3.576  22.160   7.055
 9957POPC   C4A56322   3.546  22.122   7.355
 9957POPC   C1B56323   3.826  22.196   6.455
 9957POPC   C2B56324   3.825  22.167   6.755
 9957POPC   C3B56325   3.740  22.195   7.055
 9957POPC   C4B56326   3.836  22.163   7.355
 9958POPC   NC356327  26.839   9.745   5.555
 9958POPC   PO456328  26.844   9.739   5.855
 9958POPC   GL156329  26.776   9.732   6.155
 9958POPC   GL256330  26.704   9.882   6.155
 9958POPC   C1A56331  26.771   9.709   6.455
 9958POPC   D2A56332  26.851   9.764   6.755
 9958POPC   C3A56333  26.844   9.757   7.055
 9958POPC   C4A56334  26.863   9.719   7.355
 9958POPC   C1B56335  26.671   9.987   6.455
 9958POPC   C2B56336  26.641   9.970   6.755
 9958POPC   C3B56337  26.684   9.952   7.055
 9958POPC   C4B56338  26.635   9.953   7.355
 9959POPC   NC356339  11.303   2.038   5.555
 9959POPC   PO456340  11.281   2.028   5.855
 9959POPC   GL156341  11.322   1.990   6.155
 9959POPC   GL256342  11.364   2.069   6.155
 9959POPC   C1A56343  11.262   1.998   6.455
 9959POPC   D2A56344  11.292   1.970   6.755
 9959POPC   C3A56345  11.323   1.993   7.055
 9959POPC   C4A56346  11.266   2.012   7.355
 9959POPC   C1B56347  11.508   2.094   6.455
 9959POPC   C2B56348  11.534   2.077   6.755
 9959POPC   C3B56349  11.500   2.095   7.055
 9959POPC   C4B56350  11.471   2.085   7.355
 9960POPC   NC356351  13.601  40.833   5.555
 9960POPC   PO456352  13.599  40.774   5.855
 9960POPC   GL156353  13.585  40.750   6.155
 9960POPC   GL256354  13.525  40.691   6.155
 9960POPC   C1A56355  13.672  40.737   6.455
 9960POPC   D2A56356  13.665  40.753   6.755
 9960POPC   C3A56357  13.586  40.740   7.055
 9960POPC   C4A56358  13.613  40.755   7.355
 9960POPC   C1B56359  13.449  40.572   6.455
 9960POPC   C2B56360  13.485  40.567   6.755
 9960POPC   C3B56361  13.471  40.601   7.055
 9960POPC   C4B56362  13.537  40.533   7.355
 9961POPC   NC356363  22.957  44.700   5.555
 9961POPC   PO456364  22.979  44.651   5.855
 9961POPC   GL156365  22.952  44.658   6.155
 9961POPC   GL256366  22.841  44.627   6.155
 9961POPC   C1A56367  22.963  44.651   6.455
 9961POPC   D2A56368  22.917  44.685   6.755
 9961POPC   C3A56369  22.919  44.697   7.055
 9961POPC   C4A56370  22.958  44.673   7.355
 9961POPC   C1B56371  22.707  44.578   6.455
 9961POPC   C2B56372  22.735  44.555   6.755
 9961POPC   C3B56373  22.759  44.547   7.055
 9961POPC   C4B56374  22.696  44.556   7.355
 9962POPC   NC356375  33.807  32.297   5.555
 9962POPC   PO456376  33.770  32.217   5.855
 9962POPC   GL156377  33.791  32.206   6.155
 9962POPC   GL256378  33.884  32.363   6.155
 9962POPC   C1A56379  33.794  32.290   6.455
 9962POPC   D2A56380  33.772  32.281   6.755
 9962POPC   C3A56381  33.779  32.285   7.055
 9962POPC   C4A56382  33.782  32.261   7.355
 9962POPC   C1B56383  33.998  32.477   6.455
 9962POPC   C2B56384  33.996  32.398   6.755
 9962POPC   C3B56385  33.931  32.473   7.055
 9962POPC   C4B56386  33.938  32.446   7.355
 9963POPC   NC356387  19.075  13.598   5.555
 9963POPC   PO456388  19.051  13.637   5.855
 9963POPC   GL156389  19.083  13.673   6.155
 9963POPC   GL256390  19.027  13.474   6.155
 9963POPC   C1A56391  19.048  13.661   6.455
 9963POPC   D2A56392  19.043  13.627   6.755
 9963POPC   C3A56393  19.096  13.672   7.055
 9963POPC   C4A56394  19.081  13.605   7.355
 9963POPC   C1B56395  19.052  13.412   6.455
 9963POPC   C2B56396  19.061  13.395   6.755
 9963POPC   C3B56397  19.061  13.348   7.055
 9963POPC   C4B56398  19.034  13.330   7.355
 9964POPC   NC356399  26.858  43.082   5.555
 9964POPC   PO456400  26.859  43.106   5.855
 9964POPC   GL156401  26.862  43.099   6.155
 9964POPC   GL256402  26.863  43.200   6.155
 9964POPC   C1A56403  26.789  43.065   6.455
 9964POPC   D2A56404  26.820  43.078   6.755
 9964POPC   C3A56405  26.802  43.120   7.055
 9964POPC   C4A56406  26.821  43.071   7.355
 9964POPC   C1B56407  26.903  43.328   6.455
 9964POPC   C2B56408  26.934  43.355   6.755
 9964POPC   C3B56409  26.997  43.274   7.055
 9964POPC   C4B56410  26.969  43.335   7.355
 9965POPC   NC356411  10.485  40.790   5.555
 9965POPC   PO456412  10.483  40.747   5.855
 9965POPC   GL156413  10.533  40.773   6.155
 9965POPC   GL256414  10.668  40.754   6.155
 9965POPC   C1A56415  10.521  40.743   6.455
 9965POPC   D2A56416  10.554  40.735   6.755
 9965POPC   C3A56417  10.530  40.802   7.055
 9965POPC   C4A56418  10.572  40.808   7.355
 9965POPC   C1B56419  10.780  40.800   6.455
 9965POPC   C2B56420  10.740  40.862   6.755
 9965POPC   C3B56421  10.722  40.773   7.055
 9965POPC   C4B56422  10.766  40.778   7.355
 9966POPC   NC356423   4.282  36.087   5.555
 9966POPC   PO456424   4.282  36.152   5.855
 9966POPC   GL156425   4.295  36.098   6.155
 9966POPC   GL256426   4.424  36.082   6.155
 9966POPC   C1A56427   4.359  36.154   6.455
 9966POPC   D2A56428   4.328  36.147   6.755
 9966POPC   C3A56429   4.335  36.120   7.055
 9966POPC   C4A56430   4.272  36.095   7.355
 9966POPC   C1B56431   4.586  36.092   6.455
 9966POPC   C2B56432   4.592  36.097   6.755
 9966POPC   C3B56433   4.616  36.099   7.055
 9966POPC   C4B56434   4.607  36.148   7.355
 9967POPC   NC356435  36.886   4.331   5.555
 9967POPC   PO456436  36.931   4.317   5.855
 9967POPC   GL156437  36.875   4.307   6.155
 9967POPC   GL256438  36.884   4.238   6.155
 9967POPC   C1A56439  36.936   4.281   6.455
 9967POPC   D2A56440  36.873   4.348   6.755
 9967POPC   C3A56441  36.917   4.335   7.055
 9967POPC   C4A56442  36.904   4.297   7.355
 9967POPC   C1B56443  36.880   4.057   6.455
 9967POPC   C2B56444  36.859   4.075   6.755
 9967POPC   C3B56445  36.945   4.091   7.055
 9967POPC   C4B56446  36.925   4.053   7.355
 9968POPC   NC356447   1.227  37.673   5.555
 9968POPC   PO456448   1.251  37.641   5.855
 9968POPC   GL156449   1.169  37.667   6.155
 9968POPC   GL256450   1.084  37.715   6.155
 9968POPC   C1A56451   1.199  37.630   6.455
 9968POPC   D2A56452   1.166  37.715   6.755
 9968POPC   C3A56453   1.205  37.666   7.055
 9968POPC   C4A56454   1.223  37.684   7.355
 9968POPC   C1B56455   0.949  37.795   6.455
 9968POPC   C2B56456   0.964  37.728   6.755
 9968POPC   C3B56457   0.953  37.777   7.055
 9968POPC   C4B56458   0.933  37.732   7.355
 9969POPC   NC356459  19.083   2.002   5.555
 9969POPC   PO456460  19.040   2.012   5.855
 9969POPC   GL156461  19.034   1.996   6.155
 9969POPC   GL256462  18.946   2.073   6.155
 9969POPC   C1A56463  19.091   1.942   6.455
 9969POPC   D2A56464  19.013   1.941   6.755
 9969POPC   C3A56465  19.028   1.965   7.055
 9969POPC   C4A56466  19.045   1.968   7.355
 9969POPC   C1B56467  18.862   2.117   6.455
 9969POPC   C2B56468  18.844   2.057   6.755
 9969POPC   C3B56469  18.886   2.063   7.055
 9969POPC   C4B56470  18.819   2.110   7.355
 9970POPC   NC356471   5.887  40.057   5.555
 9970POPC   PO456472   5.906  40.023   5.855
 9970POPC   GL156473   5.859  40.037   6.155
 9970POPC   GL256474   5.738  40.061   6.155
 9970POPC   C1A56475   5.911  40.037   6.455
 9970POPC   D2A56476   5.820  40.009   6.755
 9970POPC   C3A56477   5.876  40.016   7.055
 9970POPC   C4A56478   5.860  40.045   7.355
 9970POPC   C1B56479   5.610  40.172   6.455
 9970POPC   C2B56480   5.625  40.093   6.755
 9970POPC   C3B56481   5.687  40.093   7.055
 9970POPC   C4B56482   5.635  40.079   7.355
 9971POPC   NC356483  27.628  44.632   5.555
 9971POPC   PO456484  27.544  44.672   5.855
 9971POPC   GL156485  27.544  44.658   6.155
 9971POPC   GL256486  27.659  44.756   6.155
 9971POPC   C1A56487  27.570  44.710   6.455
 9971POPC   D2A56488  27.598  44.651   6.755
 9971POPC   C3A56489  27.642  44.613   7.055
 9971POPC   C4A56490  27.566  44.695   7.355
 9971POPC   C1B56491  27.689  44.897   6.455
 9971POPC   C2B56492  27.689  44.934   6.755
 9971POPC   C3B56493  27.672  44.882   7.055
 9971POPC   C4B56494  27.681  44.926   7.355
 9972POPC   NC356495  27.566  32.994   5.555
 9972POPC   PO456496  27.564  33.031   5.855
 9972POPC   GL156497  27.559  32.977   6.155
 9972POPC   GL256498  27.513  33.025   6.155
 9972POPC   C1A56499  27.550  33.074   6.455
 9972POPC   D2A56500  27.642  32.979   6.755
 9972POPC   C3A56501  27.555  33.036   7.055
 9972POPC   C4A56502  27.570  33.012   7.355
 9972POPC   C1B56503  27.387  32.998   6.455
 9972POPC   C2B56504  27.315  33.009   6.755
 9972POPC   C3B56505  27.300  33.003   7.055
 9972POPC   C4B56506  27.381  33.022   7.355
 9973POPC   NC356507  36.094  31.522   5.555
 9973POPC   PO456508  36.140  31.502   5.855
 9973POPC   GL156509  36.150  31.488   6.155
 9973POPC   GL256510  36.236  31.408   6.155
 9973POPC   C1A56511  36.089  31.470   6.455
 9973POPC   D2A56512  36.099  31.512   6.755
 9973POPC   C3A56513  36.175  31.495   7.055
 9973POPC   C4A56514  36.116  31.492   7.355
 9973POPC   C1B56515  36.407  31.399   6.455
 9973POPC   C2B56516  36.413  31.427   6.755
 9973POPC   C3B56517  36.382  31.454   7.055
 9973POPC   C4B56518  36.323  31.378   7.355
 9974POPC   NC356519  40.003  30.647   5.555
 9974POPC   PO456520  40.038  30.692   5.855
 9974POPC   GL156521  39.996  30.690   6.155
 9974POPC   GL256522  39.901  30.724   6.155
 9974POPC   C1A56523  39.967  30.666   6.455
 9974POPC   D2A56524  39.971  30.650   6.755
 9974POPC   C3A56525  40.016  30.652   7.055
 9974POPC   C4A56526  39.960  30.647   7.355
 9974POPC   C1B56527  39.830  30.829   6.455
 9974POPC   C2B56528  39.807  30.825   6.755
 9974POPC   C3B56529  39.806  30.787   7.055
 9974POPC   C4B56530  39.775  30.840   7.355
 9975POPC   NC356531  37.646  18.291   5.555
 9975POPC   PO456532  37.675  18.284   5.855
 9975POPC   GL156533  37.702  18.243   6.155
 9975POPC   GL256534  37.616  18.350   6.155
 9975POPC   C1A56535  37.687  18.276   6.455
 9975POPC   D2A56536  37.718  18.332   6.755
 9975POPC   C3A56537  37.660  18.271   7.055
 9975POPC   C4A56538  37.685  18.253   7.355
 9975POPC   C1B56539  37.502  18.487   6.455
 9975POPC   C2B56540  37.513  18.518   6.755
 9975POPC   C3B56541  37.504  18.466   7.055
 9975POPC   C4B56542  37.575  18.534   7.355
 9976POPC   NC356543  20.654  42.349   5.555
 9976POPC   PO456544  20.643  42.285   5.855
 9976POPC   GL156545  20.617  42.301   6.155
 9976POPC   GL256546  20.493  42.389   6.155
 9976POPC   C1A56547  20.617  42.324   6.455
 9976POPC   D2A56548  20.619  42.377   6.755
 9976POPC   C3A56549  20.573  42.367   7.055
 9976POPC   C4A56550  20.561  42.334   7.355
 9976POPC   C1B56551  20.415  42.458   6.455
 9976POPC   C2B56552  20.419  42.507   6.755
 9976POPC   C3B56553  20.379  42.435   7.055
 9976POPC   C4B56554  20.421  42.464   7.355
 9977POPC   NC356555   1.201  23.688   5.555
 9977POPC   PO456556   1.227  23.665   5.855
 9977POPC   GL156557   1.251  23.720   6.155
 9977POPC   GL256558   1.106  23.617   6.155
 9977POPC   C1A56559   1.205  23.729   6.455
 9977POPC   D2A56560   1.211  23.694   6.755
 9977POPC   C3A56561   1.207  23.736   7.055
 9977POPC   C4A56562   1.239  23.689   7.355
 9977POPC   C1B56563   1.061  23.598   6.455
 9977POPC   C2B56564   1.040  23.605   6.755
 9977POPC   C3B56565   1.062  23.541   7.055
 9977POPC   C4B56566   1.004  23.562   7.355
 9978POPC   NC356567  43.861  31.519   5.555
 9978POPC   PO456568  43.860  31.449   5.855
 9978POPC   GL156569  43.883  31.509   6.155
 9978POPC   GL256570  43.852  31.582   6.155
 9978POPC   C1A56571  43.906  31.492   6.455
 9978POPC   D2A56572  43.911  31.472   6.755
 9978POPC   C3A56573  43.858  31.466   7.055
 9978POPC   C4A56574  43.897  31.498   7.355
 9978POPC   C1B56575  43.944  31.680   6.455
 9978POPC   C2B56576  43.911  31.766   6.755
 9978POPC   C3B56577  43.856  31.751   7.055
 9978POPC   C4B56578  43.869  31.754   7.355
 9979POPC   NC356579   3.571  17.551   5.555
 9979POPC   PO456580   3.591  17.489   5.855
 9979POPC   GL156581   3.558  17.508   6.155
 9979POPC   GL256582   3.609  17.533   6.155
 9979POPC   C1A56583   3.540  17.457   6.455
 9979POPC   D2A56584   3.524  17.462   6.755
 9979POPC   C3A56585   3.583  17.556   7.055
 9979POPC   C4A56586   3.551  17.537   7.355
 9979POPC   C1B56587   3.776  17.664   6.455
 9979POPC   C2B56588   3.743  17.638   6.755
 9979POPC   C3B56589   3.725  17.642   7.055
 9979POPC   C4B56590   3.791  17.587   7.355
 9980POPC   NC356591  29.900   5.830   5.555
 9980POPC   PO456592  29.959   5.910   5.855
 9980POPC   GL156593  29.941   5.832   6.155
 9980POPC   GL256594  29.996   5.827   6.155
 9980POPC   C1A56595  29.895   5.869   6.455
 9980POPC   D2A56596  29.936   5.841   6.755
 9980POPC   C3A56597  29.946   5.844   7.055
 9980POPC   C4A56598  29.881   5.823   7.355
 9980POPC   C1B56599  30.206   5.867   6.455
 9980POPC   C2B56600  30.158   5.817   6.755
 9980POPC   C3B56601  30.125   5.838   7.055
 9980POPC   C4B56602  30.162   5.814   7.355
 9981POPC   NC356603   4.341  11.343   5.555
 9981POPC   PO456604   4.324  11.257   5.855
 9981POPC   GL156605   4.351  11.257   6.155
 9981POPC   GL256606   4.160  11.282   6.155
 9981POPC   C1A56607   4.325  11.262   6.455
 9981POPC   D2A56608   4.300  11.287   6.755
 9981POPC   C3A56609   4.363  11.346   7.055
 9981POPC   C4A56610   4.355  11.259   7.355
 9981POPC   C1B56611   4.118  11.240   6.455
 9981POPC   C2B56612   4.128  11.171   6.755
 9981POPC   C3B56613   4.064  11.169   7.055
 9981POPC   C4B56614   4.084  11.183   7.355
 9982POPC   NC356615  16.689  11.287   5.555
 9982POPC   PO456616  16.779  11.283   5.855
 9982POPC   GL156617  16.749  11.274   6.155
 9982POPC   GL256618  16.625  11.223   6.155
 9982POPC   C1A56619  16.698  11.251   6.455
 9982POPC   D2A56620  16.769  11.284   6.755
 9982POPC   C3A56621  16.771  11.291   7.055
 9982POPC   C4A56622  16.688  11.272   7.355
 9982POPC   C1B56623  16.584  11.115   6.455
 9982POPC   C2B56624  16.615  11.054   6.755
 9982POPC   C3B56625  16.550  11.081   7.055
 9982POPC   C4B56626  16.548  11.121   7.355
 9983POPC   NC356627  43.115  22.194   5.555
 9983POPC   PO456628  43.108  22.150   5.855
 9983POPC   GL156629  43.113  22.116   6.155
 9983POPC   GL256630  43.143  22.330   6.155
 9983POPC   C1A56631  43.114  22.145   6.455
 9983POPC   D2A56632  43.144  22.117   6.755
 9983POPC   C3A56633  43.152  22.117   7.055
 9983POPC   C4A56634  43.158  22.144   7.355
 9983POPC   C1B56635  43.169  22.460   6.455
 9983POPC   C2B56636  43.153  22.377   6.755
 9983POPC   C3B56637  43.180  22.364   7.055
 9983POPC   C4B56638  43.153  22.401   7.355
 9984POPC   NC356639   9.796  36.946   5.555
 9984POPC   PO456640   9.759  36.897   5.855
 9984POPC   GL156641   9.782  36.947   6.155
 9984POPC   GL256642   9.782  36.754   6.155
 9984POPC   C1A56643   9.701  36.936   6.455
 9984POPC   D2A56644   9.738  36.855   6.755
 9984POPC   C3A56645   9.797  36.861   7.055
 9984POPC   C4A56646   9.711  36.930   7.355
 9984POPC   C1B56647   9.847  36.695   6.455
 9984POPC   C2B56648   9.798  36.680   6.755
 9984POPC   C3B56649   9.814  36.652   7.055
 9984POPC   C4B56650   9.849  36.618   7.355
 9985POPC   NC356651  20.571  22.932   5.555
 9985POPC   PO456652  20.580  22.975   5.855
 9985POPC   GL156653  20.589  22.984   6.155
 9985POPC   GL256654  20.588  22.859   6.155
 9985POPC   C1A56655  20.655  22.933   6.455
 9985POPC   D2A56656  20.576  22.929   6.755
 9985POPC   C3A56657  20.597  22.943   7.055
 9985POPC   C4A56658  20.568  22.962   7.355
 9985POPC   C1B56659  20.472  22.741   6.455
 9985POPC   C2B56660  20.478  22.742   6.755
 9985POPC   C3B56661  20.429  22.735   7.055
 9985POPC   C4B56662  20.469  22.709   7.355
 9986POPC   NC356663  22.146  40.826   5.555
 9986POPC   PO456664  22.173  40.805   5.855
 9986POPC   GL156665  22.138  40.822   6.155
 9986POPC   GL256666  22.213  40.887   6.155
 9986POPC   C1A56667  22.158  40.823   6.455
 9986POPC   D2A56668  22.206  40.736   6.755
 9986POPC   C3A56669  22.124  40.802   7.055
 9986POPC   C4A56670  22.182  40.825   7.355
 9986POPC   C1B56671  22.293  40.980   6.455
 9986POPC   C2B56672  22.307  41.036   6.755
 9986POPC   C3B56673  22.300  41.021   7.055
 9986POPC   C4B56674  22.303  40.968   7.355
 9987POPC   NC356675   1.216  11.300   5.555
 9987POPC   PO456676   1.196  11.328   5.855
 9987POPC   GL156677   1.187  11.291   6.155
 9987POPC   GL256678   1.184  11.447   6.155
 9987POPC   C1A56679   1.183  11.314   6.455
 9987POPC   D2A56680   1.168  11.270   6.755
 9987POPC   C3A56681   1.224  11.268   7.055
 9987POPC   C4A56682   1.182  11.281   7.355
 9987POPC   C1B56683   1.186  11.560   6.455
 9987POPC   C2B56684   1.165  11.525   6.755
 9987POPC   C3B56685   1.189  11.528   7.055
 9987POPC   C4B56686   1.134  11.578   7.355
 9988POPC   NC356687  16.697  44.692   5.555
 9988POPC   PO456688  16.695  44.618   5.855
 9988POPC   GL156689  16.768  44.614   6.155
 9988POPC   GL256690  16.850  44.768   6.155
 9988POPC   C1A56691  16.706  44.692   6.455
 9988POPC   D2A56692  16.761  44.666   6.755
 9988POPC   C3A56693  16.712  44.640   7.055
 9988POPC   C4A56694  16.747  44.651   7.355
 9988POPC   C1B56695  16.887  44.864   6.455
 9988POPC   C2B56696  16.880  44.896   6.755
 9988POPC   C3B56697  16.895  44.829   7.055
 9988POPC   C4B56698  16.908  44.827   7.355
 9989POPC   NC356699   8.948  32.279   5.555
 9989POPC   PO456700   8.938  32.286   5.855
 9989POPC   GL156701   8.992  32.211   6.155
 9989POPC   GL256702   9.007  32.335   6.155
 9989POPC   C1A56703   8.955  32.199   6.455
 9989POPC   D2A56704   8.951  32.227   6.755
 9989POPC   C3A56705   9.013  32.212   7.055
 9989POPC   C4A56706   8.986  32.277   7.355
 9989POPC   C1B56707   9.100  32.485   6.455
 9989POPC   C2B56708   9.098  32.504   6.755
 9989POPC   C3B56709   9.028  32.445   7.055
 9989POPC   C4B56710   9.044  32.515   7.355
 9990POPC   NC356711  18.283  14.417   5.555
 9990POPC   PO456712  18.329  14.451   5.855
 9990POPC   GL156713  18.274  14.363   6.155
 9990POPC   GL256714  18.267  14.544   6.155
 9990POPC   C1A56715  18.270  14.405   6.455
 9990POPC   D2A56716  18.250  14.452   6.755
 9990POPC   C3A56717  18.332  14.417   7.055
 9990POPC   C4A56718  18.251  14.449   7.355
 9990POPC   C1B56719  18.156  14.599   6.455
 9990POPC   C2B56720  18.167  14.667   6.755
 9990POPC   C3B56721  18.174  14.588   7.055
 9990POPC   C4B56722  18.209  14.596   7.355
 9991POPC   NC356723  10.487  32.282   5.555
 9991POPC   PO456724  10.479  32.282   5.855
 9991POPC   GL156725  10.560  32.217   6.155
 9991POPC   GL256726  10.669  32.199   6.155
 9991POPC   C1A56727  10.541  32.251   6.455
 9991POPC   D2A56728  10.491  32.207   6.755
 9991POPC   C3A56729  10.479  32.241   7.055
 9991POPC   C4A56730  10.558  32.282   7.355
 9991POPC   C1B56731  10.779  32.187   6.455
 9991POPC   C2B56732  10.729  32.158   6.755
 9991POPC   C3B56733  10.775  32.149   7.055
 9991POPC   C4B56734  10.763  32.205   7.355
 9992POPC   NC356735  39.252  36.873   5.555
 9992POPC   PO456736  39.269  36.941   5.855
 9992POPC   GL156737  39.226  36.896   6.155
 9992POPC   GL256738  39.365  36.852   6.155
 9992POPC   C1A56739  39.201  36.914   6.455
 9992POPC   D2A56740  39.237  36.905   6.755
 9992POPC   C3A56741  39.234  36.854   7.055
 9992POPC   C4A56742  39.239  36.919   7.355
 9992POPC   C1B56743  39.456  36.821   6.455
 9992POPC   C2B56744  39.501  36.850   6.755
 9992POPC   C3B56745  39.445  36.796   7.055
 9992POPC   C4B56746  39.412  36.794   7.355
 9993POPC   NC356747  32.975   8.926   5.555
 9993POPC   PO456748  33.063   8.992   5.855
 9993POPC   GL156749  33.044   9.016   6.155
 9993POPC   GL256750  33.053   8.897   6.155
 9993POPC   C1A56751  33.037   9.014   6.455
 9993POPC   D2A56752  33.009   8.944   6.755
 9993POPC   C3A56753  33.005   8.937   7.055
 9993POPC   C4A56754  33.037   8.989   7.355
 9993POPC   C1B56755  33.152   8.773   6.455
 9993POPC   C2B56756  33.156   8.773   6.755
 9993POPC   C3B56757  33.108   8.719   7.055
 9993POPC   C4B56758  33.135   8.707   7.355
 9994POPC   NC356759  12.887  43.897   5.555
 9994POPC   PO456760  12.866  43.842   5.855
 9994POPC   GL156761  12.888  43.901   6.155
 9994POPC   GL256762  12.870  43.779   6.155
 9994POPC   C1A56763  12.828  43.915   6.455
 9994POPC   D2A56764  12.827  43.903   6.755
 9994POPC   C3A56765  12.812  43.880   7.055
 9994POPC   C4A56766  12.817  43.913   7.355
 9994POPC   C1B56767  12.846  43.664   6.455
 9994POPC   C2B56768  12.867  43.651   6.755
 9994POPC   C3B56769  12.915  43.646   7.055
 9994POPC   C4B56770  12.859  43.645   7.355
 9995POPC   NC356771  10.563   5.056   5.555
 9995POPC   PO456772  10.490   5.057   5.855
 9995POPC   GL156773  10.483   5.132   6.155
 9995POPC   GL256774  10.487   5.259   6.155
 9995POPC   C1A56775  10.496   5.132   6.455
 9995POPC   D2A56776  10.481   5.125   6.755
 9995POPC   C3A56777  10.574   5.058   7.055
 9995POPC   C4A56778  10.489   5.096   7.355
 9995POPC   C1B56779  10.509   5.309   6.455
 9995POPC   C2B56780  10.574   5.380   6.755
 9995POPC   C3B56781  10.522   5.329   7.055
 9995POPC   C4B56782  10.579   5.316   7.355
 9996POPC   NC356783   5.915  19.011   5.555
 9996POPC   PO456784   5.888  19.056   5.855
 9996POPC   GL156785   5.919  19.042   6.155
 9996POPC   GL256786   5.973  19.131   6.155
 9996POPC   C1A56787   5.860  19.027   6.455
 9996POPC   D2A56788   5.866  19.096   6.755
 9996POPC   C3A56789   5.904  19.108   7.055
 9996POPC   C4A56790   5.910  19.093   7.355
 9996POPC   C1B56791   6.045  19.186   6.455
 9996POPC   C2B56792   6.052  19.153   6.755
 9996POPC   C3B56793   6.045  19.218   7.055
 9996POPC   C4B56794   6.059  19.141   7.355
 9997POPC   NC356795   1.195  29.168   5.555
 9997POPC   PO456796   1.222  29.139   5.855
 9997POPC   GL156797   1.233  29.148   6.155
 9997POPC   GL256798   1.092  29.079   6.155
 9997POPC   C1A56799   1.196  29.163   6.455
 9997POPC   D2A56800   1.261  29.119   6.755
 9997POPC   C3A56801   1.180  29.188   7.055
 9997POPC   C4A56802   1.168  29.121   7.355
 9997POPC   C1B56803   1.014  28.973   6.455
 9997POPC   C2B56804   1.073  28.940   6.755
 9997POPC   C3B56805   1.077  28.990   7.055
 9997POPC   C4B56806   1.011  28.932   7.355
 9998POPC   NC356807  25.288  43.072   5.555
 9998POPC   PO456808  25.227  43.111   5.855
 9998POPC   GL156809  25.230  43.119   6.155
 9998POPC   GL256810  25.182  43.187   6.155
 9998POPC   C1A56811  25.224  43.096   6.455
 9998POPC   D2A56812  25.242  43.089   6.755
 9998POPC   C3A56813  25.278  43.068   7.055
 9998POPC   C4A56814  25.264  43.106   7.355
 9998POPC   C1B56815  25.001  43.216   6.455
 9998POPC   C2B56816  25.063  43.185   6.755
 9998POPC   C3B56817  25.070  43.201   7.055
 9998POPC   C4B56818  25.066  43.201   7.355
 9999POPC   NC356819   0.488  18.267   5.555
 9999POPC   PO456820   0.462  18.309   5.855
 9999POPC   GL156821   0.461  18.283   6.155
 9999POPC   GL256822   0.482  18.377   6.155
 9999POPC   C1A56823   0.475  18.317   6.455
 9999POPC   D2A56824   0.413  18.278   6.755
 9999POPC   C3A56825   0.458  18.242   7.055
 9999POPC   C4A56826   0.473  18.323   7.355
 9999POPC   C1B56827   0.503  18.551   6.455
 9999POPC   C2B56828   0.567  18.511   6.755
 9999POPC   C3B56829   0.563  18.561   7.055
 9999POPC   C4B56830   0.521  18.505   7.355
10000POPC   NC356831  13.588  41.568   5.555
10000POPC   PO456832  13.657  41.510   5.855
10000POPC   GL156833  13.599  41.549   6.155
10000POPC   GL256834  13.501  41.666   6.155
10000POPC   C1A56835  13.599  41.608   6.455
10000POPC   D2A56836  13.601  41.584   6.755
10000POPC   C3A56837  13.672  41.530   7.055
10000POPC   C4A56838  13.606  41.571   7.355
10000POPC   C1B56839  13.377  41.657   6.455
10000POPC   C2B56840  13.395  41.743   6.755
10000POPC   C3B56841  13.425  41.728   7.055
10000POPC   C4B56842  13.372  41.737   7.355
10001POPC   NC356843  30.727   9.761   5.555
10001POPC   PO456844  30.721   9.721   5.855
10001POPC   GL156845  30.730   9.795   6.155
10001POPC   GL256846  30.712   9.897   6.155
10001POPC   C1A56847  30.673   9.786   6.455
10001POPC   D2A56848  30.716   9.701   6.755
10001POPC   C3A56849  30.741   9.754   7.055
10001POPC   C4A56850  30.707   9.729   7.355
10001POPC   C1B56851  30.682  10.012   6.455
10001POPC   C2B56852  30.635  10.034   6.755
10001POPC   C3B56853  30.668   9.970   7.055
10001POPC   C4B56854  30.660  10.000   7.355
10002POPC   NC356855   5.878  13.668   5.555
10002POPC   PO456856   5.851  13.580   5.855
10002POPC   GL156857   5.895  13.622   6.155
10002POPC   GL256858   5.986  13.732   6.155
10002POPC   C1A56859   5.890  13.606   6.455
10002POPC   D2A56860   5.855  13.623   6.755
10002POPC   C3A56861   5.871  13.626   7.055
10002POPC   C4A56862   5.873  13.640   7.355
10002POPC   C1B56863   6.042  13.832   6.455
10002POPC   C2B56864   6.024  13.832   6.755
10002POPC   C3B56865   6.020  13.829   7.055
10002POPC   C4B56866   6.049  13.760   7.355
10003POPC   NC356867   2.740   6.597   5.555
10003POPC   PO456868   2.794   6.676   5.855
10003POPC   GL156869   2.725   6.622   6.155
10003POPC   GL256870   2.864   6.623   6.155
10003POPC   C1A56871   2.811   6.623   6.455
10003POPC   D2A56872   2.719   6.646   6.755
10003POPC   C3A56873   2.757   6.641   7.055
10003POPC   C4A56874   2.730   6.636   7.355
10003POPC   C1B56875   3.004   6.649   6.455
10003POPC   C2B56876   2.981   6.595   6.755
10003POPC   C3B56877   2.989   6.577   7.055
10003POPC   C4B56878   2.986   6.606   7.355
10004POPC   NC356879  34.593  43.908   5.555
10004POPC   PO456880  34.622  43.877   5.855
10004POPC   GL156881  34.540  43.922   6.155
10004POPC   GL256882  34.599  43.969   6.155
10004POPC   C1A56883  34.624  43.898   6.455
10004POPC   D2A56884  34.608  43.837   6.755
10004POPC   C3A56885  34.529  43.905   7.055
10004POPC   C4A56886  34.569  43.927   7.355
10004POPC   C1B56887  34.580  44.117   6.455
10004POPC   C2B56888  34.596  44.107   6.755
10004POPC   C3B56889  34.607  44.131   7.055
10004POPC   C4B56890  34.644  44.143   7.355
10005POPC   NC356891   9.761  23.710   5.555
10005POPC   PO456892   9.727  23.671   5.855
10005POPC   GL156893   9.793  23.669   6.155
10005POPC   GL256894   9.604  23.762   6.155
10005POPC   C1A56895   9.726  23.668   6.455
10005POPC   D2A56896   9.715  23.753   6.755
10005POPC   C3A56897   9.793  23.735   7.055
10005POPC   C4A56898   9.736  23.683   7.355
10005POPC   C1B56899   9.490  23.778   6.455
10005POPC   C2B56900   9.476  23.789   6.755
10005POPC   C3B56901   9.563  23.783   7.055
10005POPC   C4B56902   9.533  23.783   7.355
10006POPC   NC356903  28.367  12.814   5.555
10006POPC   PO456904  28.363  12.860   5.855
10006POPC   GL156905  28.329  12.840   6.155
10006POPC   GL256906  28.346  12.772   6.155
10006POPC   C1A56907  28.332  12.866   6.455
10006POPC   D2A56908  28.331  12.812   6.755
10006POPC   C3A56909  28.408  12.852   7.055
10006POPC   C4A56910  28.378  12.873   7.355
10006POPC   C1B56911  28.312  12.586   6.455
10006POPC   C2B56912  28.310  12.638   6.755
10006POPC   C3B56913  28.292  12.579   7.055
10006POPC   C4B56914  28.262  12.663   7.355
10007POPC   NC356915  27.557  28.380   5.555
10007POPC   PO456916  27.620  28.338   5.855
10007POPC   GL156917  27.546  28.364   6.155
10007POPC   GL256918  27.639  28.507   6.155
10007POPC   C1A56919  27.569  28.402   6.455
10007POPC   D2A56920  27.618  28.341   6.755
10007POPC   C3A56921  27.638  28.364   7.055
10007POPC   C4A56922  27.566  28.418   7.355
10007POPC   C1B56923  27.770  28.511   6.455
10007POPC   C2B56924  27.788  28.605   6.755
10007POPC   C3B56925  27.765  28.555   7.055
10007POPC   C4B56926  27.749  28.532   7.355
10008POPC   NC356927  40.042  29.192   5.555
10008POPC   PO456928  40.008  29.105   5.855
10008POPC   GL156929  39.992  29.103   6.155
10008POPC   GL256930  39.938  29.220   6.155
10008POPC   C1A56931  40.016  29.154   6.455
10008POPC   D2A56932  39.991  29.114   6.755
10008POPC   C3A56933  40.014  29.130   7.055
10008POPC   C4A56934  39.970  29.138   7.355
10008POPC   C1B56935  39.925  29.408   6.455
10008POPC   C2B56936  39.904  29.400   6.755
10008POPC   C3B56937  39.864  29.386   7.055
10008POPC   C4B56938  39.896  29.412   7.355
10009POPC   NC356939  28.418  19.858   5.555
10009POPC   PO456940  28.353  19.816   5.855
10009POPC   GL156941  28.418  19.848   6.155
10009POPC   GL256942  28.413  19.691   6.155
10009POPC   C1A56943  28.372  19.815   6.455
10009POPC   D2A56944  28.332  19.791   6.755
10009POPC   C3A56945  28.373  19.815   7.055
10009POPC   C4A56946  28.374  19.858   7.355
10009POPC   C1B56947  28.445  19.577   6.455
10009POPC   C2B56948  28.496  19.622   6.755
10009POPC   C3B56949  28.428  19.628   7.055
10009POPC   C4B56950  28.468  19.560   7.355
10010POPC   NC356951   5.857  40.776   5.555
10010POPC   PO456952   5.845  40.814   5.855
10010POPC   GL156953   5.858  40.822   6.155
10010POPC   GL256954   5.789  40.686   6.155
10010POPC   C1A56955   5.893  40.739   6.455
10010POPC   D2A56956   5.881  40.738   6.755
10010POPC   C3A56957   5.897  40.816   7.055
10010POPC   C4A56958   5.890  40.744   7.355
10010POPC   C1B56959   5.654  40.631   6.455
10010POPC   C2B56960   5.641  40.675   6.755
10010POPC   C3B56961   5.697  40.687   7.055
10010POPC   C4B56962   5.688  40.712   7.355
10011POPC   NC356963   3.521  20.564   5.555
10011POPC   PO456964   3.576  20.624   5.855
10011POPC   GL156965   3.522  20.564   6.155
10011POPC   GL256966   3.399  20.496   6.155
10011POPC   C1A56967   3.521  20.622   6.455
10011POPC   D2A56968   3.576  20.583   6.755
10011POPC   C3A56969   3.532  20.586   7.055
10011POPC   C4A56970   3.514  20.577   7.355
10011POPC   C1B56971   3.379  20.423   6.455
10011POPC   C2B56972   3.294  20.495   6.755
10011POPC   C3B56973   3.380  20.438   7.055
10011POPC   C4B56974   3.284  20.422   7.355
10012POPC   NC356975  36.136  39.207   5.555
10012POPC   PO456976  36.124  39.199   5.855
10012POPC   GL156977  36.152  39.243   6.155
10012POPC   GL256978  36.131  39.321   6.155
10012POPC   C1A56979  36.173  39.197   6.455
10012POPC   D2A56980  36.177  39.202   6.755
10012POPC   C3A56981  36.085  39.243   7.055
10012POPC   C4A56982  36.144  39.210   7.355
10012POPC   C1B56983  36.047  39.494   6.455
10012POPC   C2B56984  36.114  39.515   6.755
10012POPC   C3B56985  36.080  39.466   7.055
10012POPC   C4B56986  36.060  39.503   7.355
10013POPC   NC356987  30.685  40.001   5.555
10013POPC   PO456988  30.670  39.964   5.855
10013POPC   GL156989  30.742  40.004   6.155
10013POPC   GL256990  30.627  40.069   6.155
10013POPC   C1A56991  30.714  40.001   6.455
10013POPC   D2A56992  30.676  40.054   6.755
10013POPC   C3A56993  30.662  40.025   7.055
10013POPC   C4A56994  30.681  40.040   7.355
10013POPC   C1B56995  30.560  40.212   6.455
10013POPC   C2B56996  30.535  40.273   6.755
10013POPC   C3B56997  30.564  40.205   7.055
10013POPC   C4B56998  30.604  40.255   7.355
10014POPC   NC356999   5.901   5.090   5.555
10014POPC   PO457000   5.839   5.056   5.855
10014POPC   GL157001   5.915   5.091   6.155
10014POPC   GL257002   5.891   4.958   6.155
10014POPC   C1A57003   5.859   5.069   6.455
10014POPC   D2A57004   5.919   5.094   6.755
10014POPC   C3A57005   5.895   5.060   7.055
10014POPC   C4A57006   5.869   5.075   7.355
10014POPC   C1B57007   5.980   4.885   6.455
10014POPC   C2B57008   5.945   4.824   6.755
10014POPC   C3B57009   5.929   4.828   7.055
10014POPC   C4B57010   5.946   4.835   7.355
10015POPC   NC357011   2.766   0.397   5.555
10015POPC   PO457012   2.809   0.435   5.855
10015POPC   GL157013   2.744   0.434   6.155
10015POPC   GL257014   2.655   0.560   6.155
10015POPC   C1A57015   2.721   0.475   6.455
10015POPC   D2A57016   2.794   0.460   6.755
10015POPC   C3A57017   2.760   0.474   7.055
10015POPC   C4A57018   2.719   0.472   7.355
10015POPC   C1B57019   2.685   0.609   6.455
10015POPC   C2B57020   2.645   0.679   6.755
10015POPC   C3B57021   2.640   0.618   7.055
10015POPC   C4B57022   2.624   0.661   7.355
10016POPC   NC357023  37.629  41.608   5.555
10016POPC   PO457024  37.669  41.541   5.855
10016POPC   GL157025  37.637  41.562   6.155
10016POPC   GL257026  37.762  41.590   6.155
10016POPC   C1A57027  37.704  41.597   6.455
10016POPC   D2A57028  37.662  41.603   6.755
10016POPC   C3A57029  37.660  41.598   7.055
10016POPC   C4A57030  37.696  41.598   7.355
10016POPC   C1B57031  37.885  41.634   6.455
10016POPC   C2B57032  37.930  41.635   6.755
10016POPC   C3B57033  37.872  41.673   7.055
10016POPC   C4B57034  37.929  41.646   7.355
10017POPC   NC357035   0.438  36.951   5.555
10017POPC   PO457036   0.438  36.922   5.855
10017POPC   GL157037   0.475  36.950   6.155
10017POPC   GL257038   0.599  36.960   6.155
10017POPC   C1A57039   0.397  36.881   6.455
10017POPC   D2A57040   0.453  36.920   6.755
10017POPC   C3A57041   0.425  36.919   7.055
10017POPC   C4A57042   0.404  36.900   7.355
10017POPC   C1B57043   0.697  37.020   6.455
10017POPC   C2B57044   0.650  37.027   6.755
10017POPC   C3B57045   0.660  36.978   7.055
10017POPC   C4B57046   0.680  37.027   7.355
10018POPC   NC357047  15.955  40.783   5.555
10018POPC   PO457048  15.995  40.818   5.855
10018POPC   GL157049  15.931  40.780   6.155
10018POPC   GL257050  16.028  40.622   6.155
10018POPC   C1A57051  15.984  40.736   6.455
10018POPC   D2A57052  15.916  40.830   6.755
10018POPC   C3A57053  15.970  40.737   7.055
10018POPC   C4A57054  15.922  40.799   7.355
10018POPC   C1B57055  16.006  40.498   6.455
10018POPC   C2B57056  15.983  40.533   6.755
10018POPC   C3B57057  15.987  40.555   7.055
10018POPC   C4B57058  16.021  40.562   7.355
10019POPC   NC357059  24.455  43.869   5.555
10019POPC   PO457060  24.472  43.923   5.855
10019POPC   GL157061  24.518  43.870   6.155
10019POPC   GL257062  24.349  43.855   6.155
10019POPC   C1A57063  24.490  43.931   6.455
10019POPC   D2A57064  24.497  43.887   6.755
10019POPC   C3A57065  24.523  43.886   7.055
10019POPC   C4A57066  24.442  43.926   7.355
10019POPC   C1B57067  24.252  43.761   6.455
10019POPC   C2B57068  24.253  43.809   6.755
10019POPC   C3B57069  24.267  43.798   7.055
10019POPC   C4B57070  24.269  43.753   7.355
10020POPC   NC357071  15.138   7.466   5.555
10020POPC   PO457072  15.136   7.386   5.855
10020POPC   GL157073  15.171   7.464   6.155
10020POPC   GL257074  15.128   7.493   6.155
10020POPC   C1A57075  15.155   7.461   6.455
10020POPC   D2A57076  15.167   7.439   6.755
10020POPC   C3A57077  15.145   7.412   7.055
10020POPC   C4A57078  15.145   7.371   7.355
10020POPC   C1B57079  15.026   7.657   6.455
10020POPC   C2B57080  15.002   7.665   6.755
10020POPC   C3B57081  15.067   7.643   7.055
10020POPC   C4B57082  15.078   7.598   7.355
10021POPC   NC357083  24.461  39.961   5.555
10021POPC   PO457084  24.539  39.991   5.855
10021POPC   GL157085  24.473  40.004   6.155
10021POPC   GL257086  24.436  39.913   6.155
10021POPC   C1A57087  24.494  39.993   6.455
10021POPC   D2A57088  24.508  39.970   6.755
10021POPC   C3A57089  24.483  39.998   7.055
10021POPC   C4A57090  24.506  40.017   7.355
10021POPC   C1B57091  24.407  39.751   6.455
10021POPC   C2B57092  24.438  39.728   6.755
10021POPC   C3B57093  24.368  39.740   7.055
10021POPC   C4B57094  24.422  39.778   7.355
10022POPC   NC357095   5.079  19.073   5.555
10022POPC   PO457096   5.094  19.092   5.855
10022POPC   GL157097   5.113  19.036   6.155
10022POPC   GL257098   4.935  19.076   6.155
10022POPC   C1A57099   5.047  19.049   6.455
10022POPC   D2A57100   5.045  19.060   6.755
10022POPC   C3A57101   5.043  19.065   7.055
10022POPC   C4A57102   5.099  19.108   7.355
10022POPC   C1B57103   4.875  19.041   6.455
10022POPC   C2B57104   4.882  19.005   6.755
10022POPC   C3B57105   4.825  19.028   7.055
10022POPC   C4B57106   4.841  19.030   7.355
10023POPC   NC357107  42.365  35.372   5.555
10023POPC   PO457108  42.373  35.379   5.855
10023POPC   GL157109  42.350  35.346   6.155
10023POPC   GL257110  42.223  35.311   6.155
10023POPC   C1A57111  42.295  35.324   6.455
10023POPC   D2A57112  42.329  35.388   6.755
10023POPC   C3A57113  42.353  35.335   7.055
10023POPC   C4A57114  42.307  35.347   7.355
10023POPC   C1B57115  42.076  35.221   6.455
10023POPC   C2B57116  42.060  35.295   6.755
10023POPC   C3B57117  42.104  35.265   7.055
10023POPC   C4B57118  42.133  35.228   7.355
10024POPC   NC357119   6.624   8.969   5.555
10024POPC   PO457120   6.658   8.930   5.855
10024POPC   GL157121   6.604   8.934   6.155
10024POPC   GL257122   6.643   8.838   6.155
10024POPC   C1A57123   6.667   9.005   6.455
10024POPC   D2A57124   6.622   8.962   6.755
10024POPC   C3A57125   6.609   8.937   7.055
10024POPC   C4A57126   6.688   8.945   7.355
10024POPC   C1B57127   6.733   8.725   6.455
10024POPC   C2B57128   6.701   8.709   6.755
10024POPC   C3B57129   6.695   8.685   7.055
10024POPC   C4B57130   6.753   8.731   7.355
10025POPC   NC357131   1.213   9.772   5.555
10025POPC   PO457132   1.243   9.714   5.855
10025POPC   GL157133   1.173   9.773   6.155
10025POPC   GL257134   1.089   9.712   6.155
10025POPC   C1A57135   1.220   9.798   6.455
10025POPC   D2A57136   1.254   9.794   6.755
10025POPC   C3A57137   1.262   9.796   7.055
10025POPC   C4A57138   1.164   9.786   7.355
10025POPC   C1B57139   0.976   9.624   6.455
10025POPC   C2B57140   0.974   9.659   6.755
10025POPC   C3B57141   0.960   9.661   7.055
10025POPC   C4B57142   0.980   9.591   7.355
10026POPC   NC357143  23.695  12.077   5.555
10026POPC   PO457144  23.714  12.116   5.855
10026POPC   GL157145  23.757  12.099   6.155
10026POPC   GL257146  23.831  12.021   6.155
10026POPC   C1A57147  23.679  12.069   6.455
10026POPC   D2A57148  23.732  12.027   6.755
10026POPC   C3A57149  23.749  12.105   7.055
10026POPC   C4A57150  23.706  12.033   7.355
10026POPC   C1B57151  23.889  11.956   6.455
10026POPC   C2B57152  23.912  11.994   6.755
10026POPC   C3B57153  23.888  11.991   7.055
10026POPC   C4B57154  23.924  11.944   7.355
10027POPC   NC357155   1.995  41.572   5.555
10027POPC   PO457156   1.999  41.590   5.855
10027POPC   GL157157   2.007  41.574   6.155
10027POPC   GL257158   1.930  41.636   6.155
10027POPC   C1A57159   2.009  41.535   6.455
10027POPC   D2A57160   2.001  41.569   6.755
10027POPC   C3A57161   1.980  41.605   7.055
10027POPC   C4A57162   1.998  41.517   7.355
10027POPC   C1B57163   1.752  41.740   6.455
10027POPC   C2B57164   1.764  41.679   6.755
10027POPC   C3B57165   1.774  41.712   7.055
10027POPC   C4B57166   1.803  41.742   7.355
10028POPC   NC357167  16.712  31.438   5.555
10028POPC   PO457168  16.727  31.475   5.855
10028POPC   GL157169  16.744  31.519   6.155
10028POPC   GL257170  16.789  31.347   6.155
10028POPC   C1A57171  16.713  31.476   6.455
10028POPC   D2A57172  16.717  31.474   6.755
10028POPC   C3A57173  16.689  31.510   7.055
10028POPC   C4A57174  16.719  31.458   7.355
10028POPC   C1B57175  16.855  31.204   6.455
10028POPC   C2B57176  16.801  31.284   6.755
10028POPC   C3B57177  16.854  31.258   7.055
10028POPC   C4B57178  16.818  31.237   7.355
10029POPC   NC357179   5.121  41.522   5.555
10029POPC   PO457180   5.074  41.533   5.855
10029POPC   GL157181   5.090  41.567   6.155
10029POPC   GL257182   5.185  41.466   6.155
10029POPC   C1A57183   5.094  41.541   6.455
10029POPC   D2A57184   5.086  41.583   6.755
10029POPC   C3A57185   5.138  41.529   7.055
10029POPC   C4A57186   5.137  41.548   7.355
10029POPC   C1B57187   5.256  41.395   6.455
10029POPC   C2B57188   5.250  41.344   6.755
10029POPC   C3B57189   5.305  41.435   7.055
10029POPC   C4B57190   5.321  41.349   7.355
10030POPC   NC357191  31.473  41.572   5.555
10030POPC   PO457192  31.498  41.601   5.855
10030POPC   GL157193  31.476  41.576   6.155
10030POPC   GL257194  31.606  41.634   6.155
10030POPC   C1A57195  31.514  41.555   6.455
10030POPC   D2A57196  31.513  41.598   6.755
10030POPC   C3A57197  31.442  41.567   7.055
10030POPC   C4A57198  31.497  41.563   7.355
10030POPC   C1B57199  31.750  41.657   6.455
10030POPC   C2B57200  31.709  41.589   6.755
10030POPC   C3B57201  31.712  41.583   7.055
10030POPC   C4B57202  31.725  41.621   7.355
10031POPC   NC357203  23.675  37.678   5.555
10031POPC   PO457204  23.664  37.632   5.855
10031POPC   GL157205  23.764  37.694   6.155
10031POPC   GL257206  23.571  37.785   6.155
10031POPC   C1A57207  23.739  37.720   6.455
10031POPC   D2A57208  23.710  37.717   6.755
10031POPC   C3A57209  23.715  37.670   7.055
10031POPC   C4A57210  23.758  37.642   7.355
10031POPC   C1B57211  23.489  37.768   6.455
10031POPC   C2B57212  23.486  37.817   6.755
10031POPC   C3B57213  23.500  37.840   7.055
10031POPC   C4B57214  23.473  37.786   7.355
10032POPC   NC357215  13.628  19.877   5.555
10032POPC   PO457216  13.595  19.791   5.855
10032POPC   GL157217  13.638  19.808   6.155
10032POPC   GL257218  13.636  19.720   6.155
10032POPC   C1A57219  13.644  19.820   6.455
10032POPC   D2A57220  13.596  19.811   6.755
10032POPC   C3A57221  13.633  19.884   7.055
10032POPC   C4A57222  13.601  19.852   7.355
10032POPC   C1B57223  13.620  19.544   6.455
10032POPC   C2B57224  13.638  19.592   6.755
10032POPC   C3B57225  13.586  19.570   7.055
10032POPC   C4B57226  13.643  19.542   7.355
10033POPC   NC357227  43.850  39.229   5.555
10033POPC   PO457228  43.863  39.229   5.855
10033POPC   GL157229  43.918  39.278   6.155
10033POPC   GL257230  43.939  39.145   6.155
10033POPC   C1A57231  43.923  39.199   6.455
10033POPC   D2A57232  43.902  39.272   6.755
10033POPC   C3A57233  43.923  39.281   7.055
10033POPC   C4A57234  43.916  39.199   7.355
10033POPC   C1B57235  44.045  39.004   6.455
10033POPC   C2B57236  44.019  39.021   6.755
10033POPC   C3B57237  44.067  39.049   7.055
10033POPC   C4B57238  44.053  39.030   7.355
10034POPC   NC357239   4.343  15.970   5.555
10034POPC   PO457240   4.299  16.000   5.855
10034POPC   GL157241   4.295  15.920   6.155
10034POPC   GL257242   4.231  15.851   6.155
10034POPC   C1A57243   4.304  15.935   6.455
10034POPC   D2A57244   4.340  15.959   6.755
10034POPC   C3A57245   4.322  15.944   7.055
10034POPC   C4A57246   4.311  15.987   7.355
10034POPC   C1B57247   4.129  15.882   6.455
10034POPC   C2B57248   4.121  15.837   6.755
10034POPC   C3B57249   4.099  15.859   7.055
10034POPC   C4B57250   4.109  15.844   7.355
10035POPC   NC357251  31.463  42.343   5.555
10035POPC   PO457252  31.432  42.303   5.855
10035POPC   GL157253  31.491  42.348   6.155
10035POPC   GL257254  31.438  42.228   6.155
10035POPC   C1A57255  31.440  42.373   6.455
10035POPC   D2A57256  31.510  42.353   6.755
10035POPC   C3A57257  31.488  42.315   7.055
10035POPC   C4A57258  31.511  42.338   7.355
10035POPC   C1B57259  31.364  42.144   6.455
10035POPC   C2B57260  31.313  42.089   6.755
10035POPC   C3B57261  31.370  42.103   7.055
10035POPC   C4B57262  31.363  42.100   7.355
10036POPC   NC357263  29.923  16.749   5.555
10036POPC   PO457264  29.942  16.692   5.855
10036POPC   GL157265  29.969  16.768   6.155
10036POPC   GL257266  30.023  16.791   6.155
10036POPC   C1A57267  29.904  16.686   6.455
10036POPC   D2A57268  29.912  16.776   6.755
10036POPC   C3A57269  29.923  16.776   7.055
10036POPC   C4A57270  29.933  16.709   7.355
10036POPC   C1B57271  30.150  16.833   6.455
10036POPC   C2B57272  30.111  16.772   6.755
10036POPC   C3B57273  30.123  16.830   7.055
10036POPC   C4B57274  30.118  16.832   7.355
10037POPC   NC357275  19.805  14.437   5.555
10037POPC   PO457276  19.825  14.372   5.855
10037POPC   GL157277  19.799  14.375   6.155
10037POPC   GL257278  19.821  14.289   6.155
10037POPC   C1A57279  19.857  14.420   6.455
10037POPC   D2A57280  19.851  14.372   6.755
10037POPC   C3A57281  19.817  14.370   7.055
10037POPC   C4A57282  19.815  14.433   7.355
10037POPC   C1B57283  19.857  14.147   6.455
10037POPC   C2B57284  19.823  14.137   6.755
10037POPC   C3B57285  19.803  14.188   7.055
10037POPC   C4B57286  19.881  14.166   7.355
10038POPC   NC357287  39.255  20.581   5.555
10038POPC   PO457288  39.265  20.645   5.855
10038POPC   GL157289  39.208  20.566   6.155
10038POPC   GL257290  39.084  20.569   6.155
10038POPC   C1A57291  39.235  20.631   6.455
10038POPC   D2A57292  39.239  20.639   6.755
10038POPC   C3A57293  39.242  20.579   7.055
10038POPC   C4A57294  39.212  20.591   7.355
10038POPC   C1B57295  39.028  20.478   6.455
10038POPC   C2B57296  39.029  20.461   6.755
10038POPC   C3B57297  39.069  20.468   7.055
10038POPC   C4B57298  39.037  20.434   7.355
10039POPC   NC357299  21.427  40.003   5.555
10039POPC   PO457300  21.376  40.055   5.855
10039POPC   GL157301  21.343  40.020   6.155
10039POPC   GL257302  21.517  40.108   6.155
10039POPC   C1A57303  21.341  39.957   6.455
10039POPC   D2A57304  21.365  40.031   6.755
10039POPC   C3A57305  21.426  39.970   7.055
10039POPC   C4A57306  21.407  40.001   7.355
10039POPC   C1B57307  21.593  40.214   6.455
10039POPC   C2B57308  21.582  40.215   6.755
10039POPC   C3B57309  21.599  40.153   7.055
10039POPC   C4B57310  21.535  40.141   7.355
10040POPC   NC357311   8.202  37.679   5.555
10040POPC   PO457312   8.148  37.699   5.855
10040POPC   GL157313   8.187  37.645   6.155
10040POPC   GL257314   8.110  37.649   6.155
10040POPC   C1A57315   8.149  37.695   6.455
10040POPC   D2A57316   8.161  37.649   6.755
10040POPC   C3A57317   8.241  37.711   7.055
10040POPC   C4A57318   8.246  37.728   7.355
10040POPC   C1B57319   8.020  37.548   6.455
10040POPC   C2B57320   7.938  37.532   6.755
10040POPC   C3B57321   7.941  37.588   7.055
10040POPC   C4B57322   7.989  37.553   7.355
10041POPC   NC357323  41.607  27.551   5.555
10041POPC   PO457324  41.526  27.610   5.855
10041POPC   GL157325  41.516  27.596   6.155
10041POPC   GL257326  41.652  27.683   6.155
10041POPC   C1A57327  41.580  27.554   6.455
10041POPC   D2A57328  41.523  27.550   6.755
10041POPC   C3A57329  41.582  27.564   7.055
10041POPC   C4A57330  41.546  27.612   7.355
10041POPC   C1B57331  41.726  27.701   6.455
10041POPC   C2B57332  41.719  27.791   6.755
10041POPC   C3B57333  41.772  27.731   7.055
10041POPC   C4B57334  41.779  27.709   7.355
10042POPC   NC357335   8.980   6.605   5.555
10042POPC   PO457336   8.950   6.674   5.855
10042POPC   GL157337   8.934   6.624   6.155
10042POPC   GL257338   8.860   6.712   6.155
10042POPC   C1A57339   9.020   6.630   6.455
10042POPC   D2A57340   9.013   6.636   6.755
10042POPC   C3A57341   8.991   6.638   7.055
10042POPC   C4A57342   8.965   6.648   7.355
10042POPC   C1B57343   8.712   6.673   6.455
10042POPC   C2B57344   8.696   6.738   6.755
10042POPC   C3B57345   8.761   6.730   7.055
10042POPC   C4B57346   8.716   6.730   7.355
10043POPC   NC357347  42.304  31.482   5.555
10043POPC   PO457348  42.359  31.474   5.855
10043POPC   GL157349  42.346  31.427   6.155
10043POPC   GL257350  42.186  31.428   6.155
10043POPC   C1A57351  42.337  31.503   6.455
10043POPC   D2A57352  42.364  31.521   6.755
10043POPC   C3A57353  42.299  31.485   7.055
10043POPC   C4A57354  42.372  31.510   7.355
10043POPC   C1B57355  42.156  31.347   6.455
10043POPC   C2B57356  42.094  31.342   6.755
10043POPC   C3B57357  42.160  31.378   7.055
10043POPC   C4B57358  42.165  31.376   7.355
10044POPC   NC357359  34.571   5.105   5.555
10044POPC   PO457360  34.535   5.133   5.855
10044POPC   GL157361  34.606   5.073   6.155
10044POPC   GL257362  34.664   5.007   6.155
10044POPC   C1A57363  34.594   5.101   6.455
10044POPC   D2A57364  34.603   5.125   6.755
10044POPC   C3A57365  34.553   5.112   7.055
10044POPC   C4A57366  34.589   5.091   7.355
10044POPC   C1B57367  34.758   4.911   6.455
10044POPC   C2B57368  34.740   4.859   6.755
10044POPC   C3B57369  34.724   4.930   7.055
10044POPC   C4B57370  34.750   4.913   7.355
10045POPC   NC357371   2.750  29.883   5.555
10045POPC   PO457372   2.809  29.957   5.855
10045POPC   GL157373   2.775  29.921   6.155
10045POPC   GL257374   2.735  29.835   6.155
10045POPC   C1A57375   2.779  29.881   6.455
10045POPC   D2A57376   2.812  29.873   6.755
10045POPC   C3A57377   2.810  29.917   7.055
10045POPC   C4A57378   2.804  29.880   7.355
10045POPC   C1B57379   2.651  29.735   6.455
10045POPC   C2B57380   2.627  29.728   6.755
10045POPC   C3B57381   2.669  29.690   7.055
10045POPC   C4B57382   2.684  29.710   7.355
10046POPC   NC357383  27.567  40.016   5.555
10046POPC   PO457384  27.544  39.982   5.855
10046POPC   GL157385  27.552  39.990   6.155
10046POPC   GL257386  27.483  40.051   6.155
10046POPC   C1A57387  27.559  40.041   6.455
10046POPC   D2A57388  27.600  39.984   6.755
10046POPC   C3A57389  27.621  39.974   7.055
10046POPC   C4A57390  27.603  40.014   7.355
10046POPC   C1B57391  27.409  40.139   6.455
10046POPC   C2B57392  27.449  40.197   6.755
10046POPC   C3B57393  27.391  40.120   7.055
10046POPC   C4B57394  27.387  40.199   7.355
10047POPC   NC357395  12.099  32.237   5.555
10047POPC   PO457396  12.115  32.251   5.855
10047POPC   GL157397  12.089  32.222   6.155
10047POPC   GL257398  12.067  32.399   6.155
10047POPC   C1A57399  12.028  32.230   6.455
10047POPC   D2A57400  12.045  32.247   6.755
10047POPC   C3A57401  12.040  32.276   7.055
10047POPC   C4A57402  12.101  32.277   7.355
10047POPC   C1B57403  12.123  32.486   6.455
10047POPC   C2B57404  12.036  32.497   6.755
10047POPC   C3B57405  12.109  32.520   7.055
10047POPC   C4B57406  12.101  32.496   7.355
10048POPC   NC357407  17.534  19.017   5.555
10048POPC   PO457408  17.545  19.063   5.855
10048POPC   GL157409  17.507  19.014   6.155
10048POPC   GL257410  17.373  19.127   6.155
10048POPC   C1A57411  17.536  19.078   6.455
10048POPC   D2A57412  17.482  19.063   6.755
10048POPC   C3A57413  17.556  19.082   7.055
10048POPC   C4A57414  17.536  19.095   7.355
10048POPC   C1B57415  17.285  19.141   6.455
10048POPC   C2B57416  17.286  19.158   6.755
10048POPC   C3B57417  17.243  19.202   7.055
10048POPC   C4B57418  17.246  19.161   7.355
10049POPC   NC357419  39.211   2.000   5.555
10049POPC   PO457420  39.231   2.016   5.855
10049POPC   GL157421  39.190   1.996   6.155
10049POPC   GL257422  39.387   2.023   6.155
10049POPC   C1A57423  39.233   1.978   6.455
10049POPC   D2A57424  39.222   1.958   6.755
10049POPC   C3A57425  39.279   1.966   7.055
10049POPC   C4A57426  39.208   1.941   7.355
10049POPC   C1B57427  39.419   2.098   6.455
10049POPC   C2B57428  39.429   2.104   6.755
10049POPC   C3B57429  39.465   2.139   7.055
10049POPC   C4B57430  39.475   2.101   7.355
10050POPC   NC357431  40.755  44.703   5.555
10050POPC   PO457432  40.831  44.663   5.855
10050POPC   GL157433  40.830  44.653   6.155
10050POPC   GL257434  40.896  44.755   6.155
10050POPC   C1A57435  40.756  44.701   6.455
10050POPC   D2A57436  40.763  44.639   6.755
10050POPC   C3A57437  40.815  44.640   7.055
10050POPC   C4A57438  40.778  44.688   7.355
10050POPC   C1B57439  40.911  44.848   6.455
10050POPC   C2B57440  40.931  44.848   6.755
10050POPC   C3B57441  40.911  44.842   7.055
10050POPC   C4B57442  40.938  44.853   7.355
10051POPC   NC357443  17.511  26.023   5.555
10051POPC   PO457444  17.491  26.080   5.855
10051POPC   GL157445  17.468  26.019   6.155
10051POPC   GL257446  17.549  25.904   6.155
10051POPC   C1A57447  17.547  26.031   6.455
10051POPC   D2A57448  17.537  26.080   6.755
10051POPC   C3A57449  17.523  26.059   7.055
10051POPC   C4A57450  17.525  26.053   7.355
10051POPC   C1B57451  17.537  25.827   6.455
10051POPC   C2B57452  17.484  25.797   6.755
10051POPC   C3B57453  17.535  25.763   7.055
10051POPC   C4B57454  17.517  25.765   7.355
10052POPC   NC357455  28.391  23.713   5.555
10052POPC   PO457456  28.397  23.679   5.855
10052POPC   GL157457  28.375  23.676   6.155
10052POPC   GL257458  28.523  23.738   6.155
10052POPC   C1A57459  28.367  23.677   6.455
10052POPC   D2A57460  28.376  23.732   6.755
10052POPC   C3A57461  28.411  23.751   7.055
10052POPC   C4A57462  28.375  23.693   7.355
10052POPC   C1B57463  28.623  23.696   6.455
10052POPC   C2B57464  28.590  23.671   6.755
10052POPC   C3B57465  28.631  23.672   7.055
10052POPC   C4B57466  28.637  23.701   7.355
10053POPC   NC357467  32.985  33.060   5.555
10053POPC   PO457468  32.977  33.020   5.855
10053POPC   GL157469  33.014  33.030   6.155
10053POPC   GL257470  32.937  33.148   6.155
10053POPC   C1A57471  32.998  32.987   6.455
10053POPC   D2A57472  32.988  33.013   6.755
10053POPC   C3A57473  33.021  33.073   7.055
10053POPC   C4A57474  32.988  33.007   7.355
10053POPC   C1B57475  32.864  33.262   6.455
10053POPC   C2B57476  32.848  33.182   6.755
10053POPC   C3B57477  32.827  33.250   7.055
10053POPC   C4B57478  32.891  33.183   7.355
10054POPC   NC357479  31.468  19.088   5.555
10054POPC   PO457480  31.516  19.078   5.855
10054POPC   GL157481  31.459  19.035   6.155
10054POPC   GL257482  31.370  19.040   6.155
10054POPC   C1A57483  31.460  19.076   6.455
10054POPC   D2A57484  31.506  19.072   6.755
10054POPC   C3A57485  31.468  19.079   7.055
10054POPC   C4A57486  31.490  19.098   7.355
10054POPC   C1B57487  31.212  18.999   6.455
10054POPC   C2B57488  31.184  19.024   6.755
10054POPC   C3B57489  31.278  19.022   7.055
10054POPC   C4B57490  31.257  18.954   7.355
10055POPC   NC357491  43.847  26.832   5.555
10055POPC   PO457492  43.888  26.774   5.855
10055POPC   GL157493  43.882  26.794   6.155
10055POPC   GL257494  44.000  26.756   6.155
10055POPC   C1A57495  43.896  26.799   6.455
10055POPC   D2A57496  43.917  26.858   6.755
10055POPC   C3A57497  43.926  26.867   7.055
10055POPC   C4A57498  43.917  26.828   7.355
10055POPC   C1B57499  44.161  26.755   6.455
10055POPC   C2B57500  44.137  26.744   6.755
10055POPC   C3B57501  44.115  26.689   7.055
10055POPC   C4B57502  44.119  26.747   7.355
10056POPC   NC357503   8.980  10.571   5.555
10056POPC   PO457504   8.996  10.527   5.855
10056POPC   GL157505   8.927  10.540   6.155
10056POPC   GL257506   8.935  10.652   6.155
10056POPC   C1A57507   8.974  10.521   6.455
10056POPC   D2A57508   8.966  10.488   6.755
10056POPC   C3A57509   8.941  10.483   7.055
10056POPC   C4A57510   8.981  10.516   7.355
10056POPC   C1B57511   8.938  10.773   6.455
10056POPC   C2B57512   8.965  10.820   6.755
10056POPC   C3B57513   8.987  10.756   7.055
10056POPC   C4B57514   9.000  10.788   7.355
10057POPC   NC357515  25.246   5.870   5.555
10057POPC   PO457516  25.271   5.820   5.855
10057POPC   GL157517  25.246   5.828   6.155
10057POPC   GL257518  25.207   6.015   6.155
10057POPC   C1A57519  25.270   5.918   6.455
10057POPC   D2A57520  25.278   5.872   6.755
10057POPC   C3A57521  25.263   5.839   7.055
10057POPC   C4A57522  25.300   5.856   7.355
10057POPC   C1B57523  25.138   6.079   6.455
10057POPC   C2B57524  25.179   6.073   6.755
10057POPC   C3B57525  25.171   6.090   7.055
10057POPC   C4B57526  25.137   6.117   7.355
10058POPC   NC357527   5.835   2.010   5.555
10058POPC   PO457528   5.835   1.946   5.855
10058POPC   GL157529   5.823   1.955   6.155
10058POPC   GL257530   5.860   2.095   6.155
10058POPC   C1A57531   5.846   1.979   6.455
10058POPC   D2A57532   5.883   1.981   6.755
10058POPC   C3A57533   5.851   2.029   7.055
10058POPC   C4A57534   5.824   2.026   7.355
10058POPC   C1B57535   5.942   2.215   6.455
10058POPC   C2B57536   5.958   2.260   6.755
10058POPC   C3B57537   5.936   2.246   7.055
10058POPC   C4B57538   5.932   2.209   7.355
10059POPC   NC357539  27.602  29.130   5.555
10059POPC   PO457540  27.619  29.130   5.855
10059POPC   GL157541  27.547  29.112   6.155
10059POPC   GL257542  27.757  29.118   6.155
10059POPC   C1A57543  27.615  29.193   6.455
10059POPC   D2A57544  27.599  29.160   6.755
10059POPC   C3A57545  27.575  29.158   7.055
10059POPC   C4A57546  27.567  29.129   7.355
10059POPC   C1B57547  27.838  29.136   6.455
10059POPC   C2B57548  27.883  29.165   6.755
10059POPC   C3B57549  27.865  29.188   7.055
10059POPC   C4B57550  27.836  29.199   7.355
10060POPC   NC357551  26.020  24.493   5.555
10060POPC   PO457552  26.038  24.510   5.855
10060POPC   GL157553  26.011  24.526   6.155
10060POPC   GL257554  26.084  24.393   6.155
10060POPC   C1A57555  26.074  24.499   6.455
10060POPC   D2A57556  26.081  24.457   6.755
10060POPC   C3A57557  26.051  24.525   7.055
10060POPC   C4A57558  26.039  24.532   7.355
10060POPC   C1B57559  26.148  24.249   6.455
10060POPC   C2B57560  26.176  24.279   6.755
10060POPC   C3B57561  26.118  24.310   7.055
10060POPC   C4B57562  26.140  24.217   7.355
10061POPC   NC357563   0.471  33.001   5.555
10061POPC   PO457564   0.418  33.021   5.855
10061POPC   GL157565   0.413  33.017   6.155
10061POPC   GL257566   0.400  32.885   6.155
10061POPC   C1A57567   0.446  33.056   6.455
10061POPC   D2A57568   0.456  33.029   6.755
10061POPC   C3A57569   0.440  33.017   7.055
10061POPC   C4A57570   0.462  33.007   7.355
10061POPC   C1B57571   0.408  32.808   6.455
10061POPC   C2B57572   0.420  32.787   6.755
10061POPC   C3B57573   0.357  32.760   7.055
10061POPC   C4B57574   0.419  32.814   7.355
10062POPC   NC357575  33.059  35.369   5.555
10062POPC   PO457576  33.062  35.342   5.855
10062POPC   GL157577  33.073  35.350   6.155
10062POPC   GL257578  32.868  35.349   6.155
10062POPC   C1A57579  32.991  35.329   6.455
10062POPC   D2A57580  33.005  35.380   6.755
10062POPC   C3A57581  33.012  35.386   7.055
10062POPC   C4A57582  33.018  35.382   7.355
10062POPC   C1B57583  32.742  35.388   6.455
10062POPC   C2B57584  32.788  35.413   6.755
10062POPC   C3B57585  32.793  35.384   7.055
10062POPC   C4B57586  32.759  35.370   7.355
10063POPC   NC357587  28.391  25.997   5.555
10063POPC   PO457588  28.354  26.000   5.855
10063POPC   GL157589  28.397  26.012   6.155
10063POPC   GL257590  28.491  26.021   6.155
10063POPC   C1A57591  28.399  26.040   6.455
10063POPC   D2A57592  28.386  26.017   6.755
10063POPC   C3A57593  28.392  26.019   7.055
10063POPC   C4A57594  28.403  26.024   7.355
10063POPC   C1B57595  28.557  25.979   6.455
10063POPC   C2B57596  28.603  25.945   6.755
10063POPC   C3B57597  28.617  25.998   7.055
10063POPC   C4B57598  28.648  25.987   7.355
10064POPC   NC357599  43.890  26.090   5.555
10064POPC   PO457600  43.912  26.032   5.855
10064POPC   GL157601  43.851  26.011   6.155
10064POPC   GL257602  43.985  25.912   6.155
10064POPC   C1A57603  43.904  26.084   6.455
10064POPC   D2A57604  43.936  26.078   6.755
10064POPC   C3A57605  43.877  25.992   7.055
10064POPC   C4A57606  43.854  26.019   7.355
10064POPC   C1B57607  44.042  25.822   6.455
10064POPC   C2B57608  44.054  25.882   6.755
10064POPC   C3B57609  44.034  25.834   7.055
10064POPC   C4B57610  44.008  25.854   7.355
10065POPC   NC357611  42.355  26.847   5.555
10065POPC   PO457612  42.285  26.815   5.855
10065POPC   GL157613  42.318  26.867   6.155
10065POPC   GL257614  42.430  26.839   6.155
10065POPC   C1A57615  42.344  26.838   6.455
10065POPC   D2A57616  42.364  26.833   6.755
10065POPC   C3A57617  42.311  26.814   7.055
10065POPC   C4A57618  42.327  26.831   7.355
10065POPC   C1B57619  42.572  26.796   6.455
10065POPC   C2B57620  42.599  26.816   6.755
10065POPC   C3B57621  42.569  26.782   7.055
10065POPC   C4B57622  42.545  26.788   7.355
10066POPC   NC357623  15.221  39.212   5.555
10066POPC   PO457624  15.168  39.259   5.855
10066POPC   GL157625  15.141  39.236   6.155
10066POPC   GL257626  15.340  39.194   6.155
10066POPC   C1A57627  15.167  39.231   6.455
10066POPC   D2A57628  15.159  39.226   6.755
10066POPC   C3A57629  15.226  39.276   7.055
10066POPC   C4A57630  15.203  39.216   7.355
10066POPC   C1B57631  15.469  39.228   6.455
10066POPC   C2B57632  15.405  39.210   6.755
10066POPC   C3B57633  15.388  39.238   7.055
10066POPC   C4B57634  15.470  39.244   7.355
10067POPC   NC357635  39.982  25.997   5.555
10067POPC   PO457636  40.025  26.046   5.855
10067POPC   GL157637  40.019  26.012   6.155
10067POPC   GL257638  39.901  26.108   6.155
10067POPC   C1A57639  39.994  26.064   6.455
10067POPC   D2A57640  39.970  26.069   6.755
10067POPC   C3A57641  40.008  26.063   7.055
10067POPC   C4A57642  39.996  25.995   7.355
10067POPC   C1B57643  39.775  26.108   6.455
10067POPC   C2B57644  39.792  26.116   6.755
10067POPC   C3B57645  39.780  26.128   7.055
10067POPC   C4B57646  39.788  26.111   7.355
10068POPC   NC357647  11.324  38.488   5.555
10068POPC   PO457648  11.251  38.457   5.855
10068POPC   GL157649  11.257  38.424   6.155
10068POPC   GL257650  11.447  38.409   6.155
10068POPC   C1A57651  11.295  38.469   6.455
10068POPC   D2A57652  11.328  38.415   6.755
10068POPC   C3A57653  11.346  38.455   7.055
10068POPC   C4A57654  11.283  38.499   7.355
10068POPC   C1B57655  11.480  38.298   6.455
10068POPC   C2B57656  11.465  38.271   6.755
10068POPC   C3B57657  11.490  38.288   7.055
10068POPC   C4B57658  11.544  38.283   7.355
10069POPC   NC357659  14.449  40.825   5.555
10069POPC   PO457660  14.426  40.744   5.855
10069POPC   GL157661  14.451  40.756   6.155
10069POPC   GL257662  14.402  40.915   6.155
10069POPC   C1A57663  14.413  40.778   6.455
10069POPC   D2A57664  14.390  40.798   6.755
10069POPC   C3A57665  14.449  40.762   7.055
10069POPC   C4A57666  14.433  40.828   7.355
10069POPC   C1B57667  14.488  41.015   6.455
10069POPC   C2B57668  14.488  41.014   6.755
10069POPC   C3B57669  14.399  41.005   7.055
10069POPC   C4B57670  14.458  41.071   7.355
10070POPC   NC357671  22.183   5.098   5.555
10070POPC   PO457672  22.164   5.121   5.855
10070POPC   GL157673  22.191   5.060   6.155
10070POPC   GL257674  22.180   4.958   6.155
10070POPC   C1A57675  22.136   5.126   6.455
10070POPC   D2A57676  22.164   5.104   6.755
10070POPC   C3A57677  22.204   5.074   7.055
10070POPC   C4A57678  22.163   5.116   7.355
10070POPC   C1B57679  22.204   4.803   6.455
10070POPC   C2B57680  22.187   4.896   6.755
10070POPC   C3B57681  22.241   4.875   7.055
10070POPC   C4B57682  22.187   4.901   7.355
10071POPC   NC357683  24.464   5.832   5.555
10071POPC   PO457684  24.473   5.897   5.855
10071POPC   GL157685  24.499   5.866   6.155
10071POPC   GL257686  24.498   5.708   6.155
10071POPC   C1A57687  24.449   5.874   6.455
10071POPC   D2A57688  24.468   5.893   6.755
10071POPC   C3A57689  24.520   5.847   7.055
10071POPC   C4A57690  24.502   5.900   7.355
10071POPC   C1B57691  24.389   5.656   6.455
10071POPC   C2B57692  24.365   5.663   6.755
10071POPC   C3B57693  24.428   5.641   7.055
10071POPC   C4B57694  24.368   5.593   7.355
10072POPC   NC357695  22.122  29.951   5.555
10072POPC   PO457696  22.154  29.871   5.855
10072POPC   GL157697  22.147  29.920   6.155
10072POPC   GL257698  22.294  29.888   6.155
10072POPC   C1A57699  22.152  29.878   6.455
10072POPC   D2A57700  22.137  29.880   6.755
10072POPC   C3A57701  22.159  29.883   7.055
10072POPC   C4A57702  22.190  29.939   7.355
10072POPC   C1B57703  22.426  29.869   6.455
10072POPC   C2B57704  22.361  29.862   6.755
10072POPC   C3B57705  22.415  29.787   7.055
10072POPC   C4B57706  22.345  29.806   7.355
10073POPC   NC357707  25.314  29.185   5.555
10073POPC   PO457708  25.229  29.165   5.855
10073POPC   GL157709  25.302  29.102   6.155
10073POPC   GL257710  25.339  28.979   6.155
10073POPC   C1A57711  25.228  29.133   6.455
10073POPC   D2A57712  25.279  29.148   6.755
10073POPC   C3A57713  25.299  29.149   7.055
10073POPC   C4A57714  25.282  29.102   7.355
10073POPC   C1B57715  25.359  28.937   6.455
10073POPC   C2B57716  25.349  28.932   6.755
10073POPC   C3B57717  25.365  28.906   7.055
10073POPC   C4B57718  25.323  28.937   7.355
10074POPC   NC357719  28.327  43.156   5.555
10074POPC   PO457720  28.382  43.083   5.855
10074POPC   GL157721  28.348  43.087   6.155
10074POPC   GL257722  28.431  42.976   6.155
10074POPC   C1A57723  28.403  43.110   6.455
10074POPC   D2A57724  28.394  43.072   6.755
10074POPC   C3A57725  28.394  43.131   7.055
10074POPC   C4A57726  28.335  43.085   7.355
10074POPC   C1B57727  28.502  42.843   6.455
10074POPC   C2B57728  28.489  42.894   6.755
10074POPC   C3B57729  28.488  42.839   7.055
10074POPC   C4B57730  28.476  42.840   7.355
10075POPC   NC357731   8.164  43.866   5.555
10075POPC   PO457732   8.181  43.887   5.855
10075POPC   GL157733   8.171  43.877   6.155
10075POPC   GL257734   8.046  43.907   6.155
10075POPC   C1A57735   8.197  43.914   6.455
10075POPC   D2A57736   8.230  43.919   6.755
10075POPC   C3A57737   8.148  43.929   7.055
10075POPC   C4A57738   8.213  43.871   7.355
10075POPC   C1B57739   7.940  43.840   6.455
10075POPC   C2B57740   7.920  43.817   6.755
10075POPC   C3B57741   7.906  43.872   7.055
10075POPC   C4B57742   7.951  43.906   7.355
10076POPC   NC357743  19.857  31.475   5.555
10076POPC   PO457744  19.874  31.436   5.855
10076POPC   GL157745  19.820  31.483   6.155
10076POPC   GL257746  19.926  31.618   6.155
10076POPC   C1A57747  19.862  31.497   6.455
10076POPC   D2A57748  19.853  31.443   6.755
10076POPC   C3A57749  19.822  31.458   7.055
10076POPC   C4A57750  19.840  31.457   7.355
10076POPC   C1B57751  19.907  31.675   6.455
10076POPC   C2B57752  19.934  31.705   6.755
10076POPC   C3B57753  19.894  31.677   7.055
10076POPC   C4B57754  19.985  31.720   7.355
10077POPC   NC357755  43.124  26.808   5.555
10077POPC   PO457756  43.155  26.843   5.855
10077POPC   GL157757  43.113  26.850   6.155
10077POPC   GL257758  43.034  26.707   6.155
10077POPC   C1A57759  43.113  26.798   6.455
10077POPC   D2A57760  43.115  26.832   6.755
10077POPC   C3A57761  43.096  26.794   7.055
10077POPC   C4A57762  43.125  26.845   7.355
10077POPC   C1B57763  42.946  26.606   6.455
10077POPC   C2B57764  42.888  26.634   6.755
10077POPC   C3B57765  42.924  26.615   7.055
10077POPC   C4B57766  42.893  26.685   7.355
10078POPC   NC357767  12.112  43.141   5.555
10078POPC   PO457768  12.060  43.134   5.855
10078POPC   GL157769  12.075  43.121   6.155
10078POPC   GL257770  12.185  43.089   6.155
10078POPC   C1A57771  12.096  43.132   6.455
10078POPC   D2A57772  12.091  43.120   6.755
10078POPC   C3A57773  12.078  43.081   7.055
10078POPC   C4A57774  12.068  43.142   7.355
10078POPC   C1B57775  12.259  42.999   6.455
10078POPC   C2B57776  12.311  43.023   6.755
10078POPC   C3B57777  12.324  43.048   7.055
10078POPC   C4B57778  12.263  42.975   7.355
10079POPC   NC357779  33.770  31.464   5.555
10079POPC   PO457780  33.801  31.485   5.855
10079POPC   GL157781  33.781  31.514   6.155
10079POPC   GL257782  33.950  31.528   6.155
10079POPC   C1A57783  33.810  31.452   6.455
10079POPC   D2A57784  33.847  31.435   6.755
10079POPC   C3A57785  33.793  31.516   7.055
10079POPC   C4A57786  33.845  31.440   7.355
10079POPC   C1B57787  34.044  31.525   6.455
10079POPC   C2B57788  34.044  31.546   6.755
10079POPC   C3B57789  34.051  31.572   7.055
10079POPC   C4B57790  34.022  31.532   7.355
10080POPC   NC357791   6.596  42.314   5.555
10080POPC   PO457792   6.644  42.286   5.855
10080POPC   GL157793   6.645  42.381   6.155
10080POPC   GL257794   6.610  42.470   6.155
10080POPC   C1A57795   6.668  42.377   6.455
10080POPC   D2A57796   6.611  42.331   6.755
10080POPC   C3A57797   6.681  42.319   7.055
10080POPC   C4A57798   6.652  42.304   7.355
10080POPC   C1B57799   6.559  42.568   6.455
10080POPC   C2B57800   6.569  42.564   6.755
10080POPC   C3B57801   6.539  42.527   7.055
10080POPC   C4B57802   6.508  42.555   7.355
10081POPC   NC357803  12.893   1.233   5.555
10081POPC   PO457804  12.902   1.256   5.855
10081POPC   GL157805  12.805   1.235   6.155
10081POPC   GL257806  12.683   1.257   6.155
10081POPC   C1A57807  12.821   1.225   6.455
10081POPC   D2A57808  12.828   1.188   6.755
10081POPC   C3A57809  12.872   1.217   7.055
10081POPC   C4A57810  12.877   1.188   7.355
10081POPC   C1B57811  12.619   1.280   6.455
10081POPC   C2B57812  12.646   1.260   6.755
10081POPC   C3B57813  12.642   1.257   7.055
10081POPC   C4B57814  12.570   1.271   7.355
10082POPC   NC357815   9.710  10.474   5.555
10082POPC   PO457816   9.729  10.499   5.855
10082POPC   GL157817   9.769  10.504   6.155
10082POPC   GL257818   9.827  10.652   6.155
10082POPC   C1A57819   9.794  10.499   6.455
10082POPC   D2A57820   9.717  10.484   6.755
10082POPC   C3A57821   9.736  10.560   7.055
10082POPC   C4A57822   9.706  10.555   7.355
10082POPC   C1B57823   9.869  10.757   6.455
10082POPC   C2B57824   9.871  10.717   6.755
10082POPC   C3B57825   9.861  10.740   7.055
10082POPC   C4B57826   9.886  10.759   7.355
10083POPC   NC357827   4.299  12.809   5.555
10083POPC   PO457828   4.272  12.873   5.855
10083POPC   GL157829   4.305  12.809   6.155
10083POPC   GL257830   4.260  12.981   6.155
10083POPC   C1A57831   4.284  12.854   6.455
10083POPC   D2A57832   4.271  12.823   6.755
10083POPC   C3A57833   4.291  12.860   7.055
10083POPC   C4A57834   4.294  12.882   7.355
10083POPC   C1B57835   4.223  13.107   6.455
10083POPC   C2B57836   4.305  13.082   6.755
10083POPC   C3B57837   4.284  13.110   7.055
10083POPC   C4B57838   4.277  13.054   7.355
10084POPC   NC357839  19.088   5.066   5.555
10084POPC   PO457840  19.100   5.122   5.855
10084POPC   GL157841  19.057   5.069   6.155
10084POPC   GL257842  19.133   5.163   6.155
10084POPC   C1A57843  19.019   5.088   6.455
10084POPC   D2A57844  19.097   5.135   6.755
10084POPC   C3A57845  19.015   5.061   7.055
10084POPC   C4A57846  19.017   5.129   7.355
10084POPC   C1B57847  19.270   5.222   6.455
10084POPC   C2B57848  19.234   5.243   6.755
10084POPC   C3B57849  19.288   5.268   7.055
10084POPC   C4B57850  19.244   5.253   7.355
10085POPC   NC357851  11.343  22.204   5.555
10085POPC   PO457852  11.348  22.167   5.855
10085POPC   GL157853  11.271  22.160   6.155
10085POPC   GL257854  11.288  22.265   6.155
10085POPC   C1A57855  11.263  22.182   6.455
10085POPC   D2A57856  11.320  22.129   6.755
10085POPC   C3A57857  11.292  22.210   7.055
10085POPC   C4A57858  11.289  22.184   7.355
10085POPC   C1B57859  11.293  22.405   6.455
10085POPC   C2B57860  11.241  22.418   6.755
10085POPC   C3B57861  11.235  22.392   7.055
10085POPC   C4B57862  11.260  22.362   7.355
10086POPC   NC357863   8.154  29.892   5.555
10086POPC   PO457864   8.200  29.956   5.855
10086POPC   GL157865   8.193  29.937   6.155
10086POPC   GL257866   8.292  29.858   6.155
10086POPC   C1A57867   8.198  29.963   6.455
10086POPC   D2A57868   8.206  29.937   6.755
10086POPC   C3A57869   8.170  29.920   7.055
10086POPC   C4A57870   8.181  29.931   7.355
10086POPC   C1B57871   8.390  29.769   6.455
10086POPC   C2B57872   8.367  29.729   6.755
10086POPC   C3B57873   8.339  29.704   7.055
10086POPC   C4B57874   8.355  29.683   7.355
10087POPC   NC357875   9.002  12.882   5.555
10087POPC   PO457876   8.994  12.808   5.855
10087POPC   GL157877   8.993  12.860   6.155
10087POPC   GL257878   9.115  12.780   6.155
10087POPC   C1A57879   8.988  12.890   6.455
10087POPC   D2A57880   8.979  12.818   6.755
10087POPC   C3A57881   9.011  12.855   7.055
10087POPC   C4A57882   9.019  12.840   7.355
10087POPC   C1B57883   9.168  12.693   6.455
10087POPC   C2B57884   9.179  12.663   6.755
10087POPC   C3B57885   9.135  12.686   7.055
10087POPC   C4B57886   9.197  12.662   7.355
10088POPC   NC357887  31.458  13.676   5.555
10088POPC   PO457888  31.510  13.667   5.855
10088POPC   GL157889  31.469  13.613   6.155
10088POPC   GL257890  31.436  13.766   6.155
10088POPC   C1A57891  31.467  13.665   6.455
10088POPC   D2A57892  31.471  13.621   6.755
10088POPC   C3A57893  31.434  13.648   7.055
10088POPC   C4A57894  31.443  13.656   7.355
10088POPC   C1B57895  31.382  13.856   6.455
10088POPC   C2B57896  31.423  13.882   6.755
10088POPC   C3B57897  31.369  13.837   7.055
10088POPC   C4B57898  31.450  13.851   7.355
10089POPC   NC357899  27.565  15.987   5.555
10089POPC   PO457900  27.611  15.939   5.855
10089POPC   GL157901  27.620  16.003   6.155
10089POPC   GL257902  27.667  15.889   6.155
10089POPC   C1A57903  27.602  15.978   6.455
10089POPC   D2A57904  27.619  15.956   6.755
10089POPC   C3A57905  27.633  15.940   7.055
10089POPC   C4A57906  27.544  15.955   7.355
10089POPC   C1B57907  27.731  15.687   6.455
10089POPC   C2B57908  27.753  15.734   6.755
10089POPC   C3B57909  27.685  15.717   7.055
10089POPC   C4B57910  27.702  15.722   7.355
10090POPC   NC357911  44.645  12.051   5.555
10090POPC   PO457912  44.669  12.079   5.855
10090POPC   GL157913  44.621  12.073   6.155
10090POPC   GL257914  44.544  12.008   6.155
10090POPC   C1A57915  44.629  12.065   6.455
10090POPC   D2A57916  44.628  12.073   6.755
10090POPC   C3A57917  44.619  12.065   7.055
10090POPC   C4A57918  44.666  12.085   7.355
10090POPC   C1B57919  44.569  11.910   6.455
10090POPC   C2B57920  44.512  11.872   6.755
10090POPC   C3B57921  44.510  11.851   7.055
10090POPC   C4B57922  44.497  11.831   7.355
10091POPC   NC357923   1.191  40.805   5.555
10091POPC   PO457924   1.231  40.827   5.855
10091POPC   GL157925   1.179  40.761   6.155
10091POPC   GL257926   1.331  40.763   6.155
10091POPC   C1A57927   1.239  40.765   6.455
10091POPC   D2A57928   1.218  40.791   6.755
10091POPC   C3A57929   1.223  40.782   7.055
10091POPC   C4A57930   1.189  40.739   7.355
10091POPC   C1B57931   1.443  40.712   6.455
10091POPC   C2B57932   1.464  40.666   6.755
10091POPC   C3B57933   1.402  40.655   7.055
10091POPC   C4B57934   1.440  40.650   7.355
10092POPC   NC357935  26.007   2.009   5.555
10092POPC   PO457936  26.051   1.974   5.855
10092POPC   GL157937  26.075   2.029   6.155
10092POPC   GL257938  25.972   2.054   6.155
10092POPC   C1A57939  26.019   1.964   6.455
10092POPC   D2A57940  26.077   1.983   6.755
10092POPC   C3A57941  26.006   1.997   7.055
10092POPC   C4A57942  26.073   2.028   7.355
10092POPC   C1B57943  25.889   2.190   6.455
10092POPC   C2B57944  25.822   2.141   6.755
10092POPC   C3B57945  25.816   2.115   7.055
10092POPC   C4B57946  25.898   2.181   7.355
10093POPC   NC357947  10.474  35.315   5.555
10093POPC   PO457948  10.528  35.402   5.855
10093POPC   GL157949  10.518  35.358   6.155
10093POPC   GL257950  10.450  35.400   6.155
10093POPC   C1A57951  10.549  35.322   6.455
10093POPC   D2A57952  10.555  35.367   6.755
10093POPC   C3A57953  10.509  35.304   7.055
10093POPC   C4A57954  10.556  35.354   7.355
10093POPC   C1B57955  10.327  35.370   6.455
10093POPC   C2B57956  10.260  35.362   6.755
10093POPC   C3B57957  10.296  35.353   7.055
10093POPC   C4B57958  10.267  35.408   7.355
10094POPC   NC357959  38.504  26.061   5.555
10094POPC   PO457960  38.487  26.073   5.855
10094POPC   GL157961  38.454  26.084   6.155
10094POPC   GL257962  38.616  26.041   6.155
10094POPC   C1A57963  38.429  26.078   6.455
10094POPC   D2A57964  38.407  26.069   6.755
10094POPC   C3A57965  38.429  25.998   7.055
10094POPC   C4A57966  38.501  26.028   7.355
10094POPC   C1B57967  38.730  26.043   6.455
10094POPC   C2B57968  38.734  26.007   6.755
10094POPC   C3B57969  38.679  25.986   7.055
10094POPC   C4B57970  38.665  26.039   7.355
10095POPC   NC357971   9.794   2.719   5.555
10095POPC   PO457972   9.786   2.794   5.855
10095POPC   GL157973   9.766   2.813   6.155
10095POPC   GL257974   9.664   2.763   6.155
10095POPC   C1A57975   9.755   2.787   6.455
10095POPC   D2A57976   9.759   2.726   6.755
10095POPC   C3A57977   9.777   2.729   7.055
10095POPC   C4A57978   9.761   2.766   7.355
10095POPC   C1B57979   9.497   2.778   6.455
10095POPC   C2B57980   9.508   2.771   6.755
10095POPC   C3B57981   9.504   2.726   7.055
10095POPC   C4B57982   9.529   2.771   7.355
10096POPC   NC357983  20.573   5.054   5.555
10096POPC   PO457984  20.607   5.092   5.855
10096POPC   GL157985  20.610   5.109   6.155
10096POPC   GL257986  20.496   5.130   6.155
10096POPC   C1A57987  20.587   5.071   6.455
10096POPC   D2A57988  20.599   5.081   6.755
10096POPC   C3A57989  20.620   5.059   7.055
10096POPC   C4A57990  20.657   5.103   7.355
10096POPC   C1B57991  20.390   5.144   6.455
10096POPC   C2B57992  20.424   5.233   6.755
10096POPC   C3B57993  20.379   5.234   7.055
10096POPC   C4B57994  20.355   5.220   7.355
10097POPC   NC357995   3.533  28.389   5.555
10097POPC   PO457996   3.579  28.345   5.855
10097POPC   GL157997   3.573  28.340   6.155
10097POPC   GL257998   3.567  28.515   6.155
10097POPC   C1A57999   3.524  28.410   6.455
10097POPC   D2A58000   3.525  28.353   6.755
10097POPC   C3A58001   3.549  28.330   7.055
10097POPC   C4A58002   3.537  28.361   7.355
10097POPC   C1B58003   3.618  28.634   6.455
10097POPC   C2B58004   3.524  28.578   6.755
10097POPC   C3B58005   3.596  28.625   7.055
10097POPC   C4B58006   3.581  28.636   7.355
10098POPC   NC358007  15.160  20.606   5.555
10098POPC   PO458008  15.204  20.610   5.855
10098POPC   GL158009  15.177  20.599   6.155
10098POPC   GL258010  15.326  20.644   6.155
10098POPC   C1A58011  15.211  20.601   6.455
10098POPC   D2A58012  15.143  20.617   6.755
10098POPC   C3A58013  15.184  20.630   7.055
10098POPC   C4A58014  15.184  20.574   7.355
10098POPC   C1B58015  15.428  20.661   6.455
10098POPC   C2B58016  15.420  20.646   6.755
10098POPC   C3B58017  15.458  20.700   7.055
10098POPC   C4B58018  15.447  20.717   7.355
10099POPC   NC358019  21.405  16.770   5.555
10099POPC   PO458020  21.404  16.771   5.855
10099POPC   GL158021  21.380  16.758   6.155
10099POPC   GL258022  21.417  16.581   6.155
10099POPC   C1A58023  21.361  16.699   6.455
10099POPC   D2A58024  21.345  16.772   6.755
10099POPC   C3A58025  21.377  16.726   7.055
10099POPC   C4A58026  21.408  16.701   7.355
10099POPC   C1B58027  21.561  16.562   6.455
10099POPC   C2B58028  21.546  16.489   6.755
10099POPC   C3B58029  21.573  16.528   7.055
10099POPC   C4B58030  21.566  16.527   7.355
10100POPC   NC358031  30.684  19.021   5.555
10100POPC   PO458032  30.723  19.050   5.855
10100POPC   GL158033  30.746  19.044   6.155
10100POPC   GL258034  30.694  18.957   6.155
10100POPC   C1A58035  30.739  19.068   6.455
10100POPC   D2A58036  30.677  19.025   6.755
10100POPC   C3A58037  30.696  19.045   7.055
10100POPC   C4A58038  30.660  19.012   7.355
10100POPC   C1B58039  30.683  18.811   6.455
10100POPC   C2B58040  30.689  18.854   6.755
10100POPC   C3B58041  30.648  18.804   7.055
10100POPC   C4B58042  30.680  18.833   7.355
10101POPC   NC358043  44.646  15.186   5.555
10101POPC   PO458044  44.657  15.168   5.855
10101POPC   GL158045  44.642  15.224   6.155
10101POPC   GL258046  44.572  15.236   6.155
10101POPC   C1A58047  44.648  15.145   6.455
10101POPC   D2A58048  44.616  15.213   6.755
10101POPC   C3A58049  44.615  15.198   7.055
10101POPC   C4A58050  44.631  15.216   7.355
10101POPC   C1B58051  44.518  15.395   6.455
10101POPC   C2B58052  44.552  15.359   6.755
10101POPC   C3B58053  44.470  15.336   7.055
10101POPC   C4B58054  44.499  15.404   7.355
10102POPC   NC358055   1.232  39.222   5.555
10102POPC   PO458056   1.253  39.213   5.855
10102POPC   GL158057   1.215  39.236   6.155
10102POPC   GL258058   1.131  39.153   6.155
10102POPC   C1A58059   1.261  39.271   6.455
10102POPC   D2A58060   1.187  39.255   6.755
10102POPC   C3A58061   1.242  39.274   7.055
10102POPC   C4A58062   1.260  39.251   7.355
10102POPC   C1B58063   1.081  39.040   6.455
10102POPC   C2B58064   0.999  39.047   6.755
10102POPC   C3B58065   1.046  39.046   7.055
10102POPC   C4B58066   1.054  39.080   7.355
10103POPC   NC358067  41.555  12.851   5.555
10103POPC   PO458068  41.585  12.814   5.855
10103POPC   GL158069  41.544  12.822   6.155
10103POPC   GL258070  41.436  12.826   6.155
10103POPC   C1A58071  41.588  12.850   6.455
10103POPC   D2A58072  41.520  12.851   6.755
10103POPC   C3A58073  41.562  12.840   7.055
10103POPC   C4A58074  41.569  12.829   7.355
10103POPC   C1B58075  41.330  12.796   6.455
10103POPC   C2B58076  41.365  12.812   6.755
10103POPC   C3B58077  41.332  12.782   7.055
10103POPC   C4B58078  41.277  12.834   7.355
10104POPC   NC358079  32.986   4.270   5.555
10104POPC   PO458080  32.996   4.284   5.855
10104POPC   GL158081  33.049   4.356   6.155
10104POPC   GL258082  32.982   4.453   6.155
10104POPC   C1A58083  33.028   4.341   6.455
10104POPC   D2A58084  33.029   4.284   6.755
10104POPC   C3A58085  32.982   4.305   7.055
10104POPC   C4A58086  32.992   4.336   7.355
10104POPC   C1B58087  32.909   4.533   6.455
10104POPC   C2B58088  32.932   4.574   6.755
10104POPC   C3B58089  32.944   4.552   7.055
10104POPC   C4B58090  32.885   4.579   7.355
10105POPC   NC358091  17.547  12.094   5.555
10105POPC   PO458092  17.496  12.118   5.855
10105POPC   GL158093  17.487  12.027   6.155
10105POPC   GL258094  17.352  12.104   6.155
10105POPC   C1A58095  17.527  12.096   6.455
10105POPC   D2A58096  17.538  12.058   6.755
10105POPC   C3A58097  17.528  12.084   7.055
10105POPC   C4A58098  17.510  12.054   7.355
10105POPC   C1B58099  17.291  12.144   6.455
10105POPC   C2B58100  17.247  12.093   6.755
10105POPC   C3B58101  17.230  12.129   7.055
10105POPC   C4B58102  17.228  12.181   7.355
10106POPC   NC358103  10.550   7.463   5.555
10106POPC   PO458104  10.497   7.371   5.855
10106POPC   GL158105  10.553   7.413   6.155
10106POPC   GL258106  10.662   7.383   6.155
10106POPC   C1A58107  10.478   7.374   6.455
10106POPC   D2A58108  10.493   7.373   6.755
10106POPC   C3A58109  10.561   7.441   7.055
10106POPC   C4A58110  10.483   7.453   7.355
10106POPC   C1B58111  10.706   7.319   6.455
10106POPC   C2B58112  10.752   7.352   6.755
10106POPC   C3B58113  10.741   7.350   7.055
10106POPC   C4B58114  10.790   7.277   7.355
10107POPC   NC358115  30.651   0.414   5.555
10107POPC   PO458116  30.700   0.417   5.855
10107POPC   GL158117  30.737   0.466   6.155
10107POPC   GL258118  30.737   0.590   6.155
10107POPC   C1A58119  30.708   0.399   6.455
10107POPC   D2A58120  30.737   0.424   6.755
10107POPC   C3A58121  30.728   0.442   7.055
10107POPC   C4A58122  30.681   0.406   7.355
10107POPC   C1B58123  30.784   0.683   6.455
10107POPC   C2B58124  30.727   0.708   6.755
10107POPC   C3B58125  30.787   0.659   7.055
10107POPC   C4B58126  30.762   0.662   7.355
10108POPC   NC358127   9.718  37.722   5.555
10108POPC   PO458128   9.772  37.652   5.855
10108POPC   GL158129   9.773  37.641   6.155
10108POPC   GL258130   9.826  37.604   6.155
10108POPC   C1A58131   9.795  37.644   6.455
10108POPC   D2A58132   9.770  37.657   6.755
10108POPC   C3A58133   9.765  37.683   7.055
10108POPC   C4A58134   9.791  37.669   7.355
10108POPC   C1B58135  10.008  37.550   6.455
10108POPC   C2B58136   9.976  37.636   6.755
10108POPC   C3B58137  10.012  37.604   7.055
10108POPC   C4B58138   9.956  37.644   7.355
10109POPC   NC358139  20.564  40.816   5.555
10109POPC   PO458140  20.583  40.788   5.855
10109POPC   GL158141  20.620  40.755   6.155
10109POPC   GL258142  20.649  40.641   6.155
10109POPC   C1A58143  20.659  40.815   6.455
10109POPC   D2A58144  20.656  40.779   6.755
10109POPC   C3A58145  20.637  40.779   7.055
10109POPC   C4A58146  20.581  40.762   7.355
10109POPC   C1B58147  20.583  40.524   6.455
10109POPC   C2B58148  20.639  40.502   6.755
10109POPC   C3B58149  20.602  40.534   7.055
10109POPC   C4B58150  20.572  40.490   7.355
10110POPC   NC358151   1.239  19.875   5.555
10110POPC   PO458152   1.205  19.797   5.855
10110POPC   GL158153   1.221  19.869   6.155
10110POPC   GL258154   1.090  19.743   6.155
10110POPC   C1A58155   1.182  19.828   6.455
10110POPC   D2A58156   1.190  19.845   6.755
10110POPC   C3A58157   1.217  19.848   7.055
10110POPC   C4A58158   1.232  19.828   7.355
10110POPC   C1B58159   0.972  19.753   6.455
10110POPC   C2B58160   1.030  19.670   6.755
10110POPC   C3B58161   0.971  19.737   7.055
10110POPC   C4B58162   1.032  19.739   7.355
10111POPC   NC358163   1.190  12.834   5.555
10111POPC   PO458164   1.213  12.899   5.855
10111POPC   GL158165   1.233  12.808   6.155
10111POPC   GL258166   1.322  12.724   6.155
10111POPC   C1A58167   1.219  12.877   6.455
10111POPC   D2A58168   1.234  12.883   6.755
10111POPC   C3A58169   1.219  12.808   7.055
10111POPC   C4A58170   1.217  12.806   7.355
10111POPC   C1B58171   1.367  12.591   6.455
10111POPC   C2B58172   1.386  12.646   6.755
10111POPC   C3B58173   1.360  12.601   7.055
10111POPC   C4B58174   1.326  12.591   7.355
10112POPC   NC358175  19.858  16.712   5.555
10112POPC   PO458176  19.871  16.721   5.855
10112POPC   GL158177  19.825  16.752   6.155
10112POPC   GL258178  19.955  16.866   6.155
10112POPC   C1A58179  19.821  16.770   6.455
10112POPC   D2A58180  19.845  16.754   6.755
10112POPC   C3A58181  19.817  16.743   7.055
10112POPC   C4A58182  19.818  16.777   7.355
10112POPC   C1B58183  19.966  16.881   6.455
10112POPC   C2B58184  19.977  16.918   6.755
10112POPC   C3B58185  20.042  16.887   7.055
10112POPC   C4B58186  20.007  16.937   7.355
10113POPC   NC358187   2.774  38.450   5.555
10113POPC   PO458188   2.757  38.413   5.855
10113POPC   GL158189   2.743  38.422   6.155
10113POPC   GL258190   2.749  38.284   6.155
10113POPC   C1A58191   2.815  38.458   6.455
10113POPC   D2A58192   2.768  38.499   6.755
10113POPC   C3A58193   2.799  38.482   7.055
10113POPC   C4A58194   2.806  38.427   7.355
10113POPC   C1B58195   2.728  38.169   6.455
10113POPC   C2B58196   2.724  38.197   6.755
10113POPC   C3B58197   2.757  38.258   7.055
10113POPC   C4B58198   2.745  38.218   7.355
10114POPC   NC358199  39.259  17.483   5.555
10114POPC   PO458200  39.205  17.506   5.855
10114POPC   GL158201  39.255  17.521   6.155
10114POPC   GL258202  39.358  17.402   6.155
10114POPC   C1A58203  39.239  17.510   6.455
10114POPC   D2A58204  39.229  17.486   6.755
10114POPC   C3A58205  39.279  17.465   7.055
10114POPC   C4A58206  39.230  17.552   7.355
10114POPC   C1B58207  39.490  17.433   6.455
10114POPC   C2B58208  39.412  17.427   6.755
10114POPC   C3B58209  39.499  17.403   7.055
10114POPC   C4B58210  39.462  17.421   7.355
10115POPC   NC358211  39.246   5.051   5.555
10115POPC   PO458212  39.274   5.143   5.855
10115POPC   GL158213  39.224   5.048   6.155
10115POPC   GL258214  39.219   5.261   6.155
10115POPC   C1A58215  39.187   5.051   6.455
10115POPC   D2A58216  39.259   5.069   6.755
10115POPC   C3A58217  39.194   5.125   7.055
10115POPC   C4A58218  39.225   5.095   7.355
10115POPC   C1B58219  39.306   5.327   6.455
10115POPC   C2B58220  39.267   5.323   6.755
10115POPC   C3B58221  39.314   5.371   7.055
10115POPC   C4B58222  39.291   5.324   7.355
10116POPC   NC358223  30.698  29.957   5.555
10116POPC   PO458224  30.708  29.945   5.855
10116POPC   GL158225  30.701  29.900   6.155
10116POPC   GL258226  30.848  29.865   6.155
10116POPC   C1A58227  30.701  29.906   6.455
10116POPC   D2A58228  30.729  29.944   6.755
10116POPC   C3A58229  30.709  29.891   7.055
10116POPC   C4A58230  30.704  29.947   7.355
10116POPC   C1B58231  30.892  29.769   6.455
10116POPC   C2B58232  30.895  29.822   6.755
10116POPC   C3B58233  30.929  29.807   7.055
10116POPC   C4B58234  30.897  29.778   7.355
10117POPC   NC358235  29.950  19.786   5.555
10117POPC   PO458236  29.923  19.798   5.855
10117POPC   GL158237  29.937  19.850   6.155
10117POPC   GL258238  29.929  19.943   6.155
10117POPC   C1A58239  29.887  19.858   6.455
10117POPC   D2A58240  29.898  19.846   6.755
10117POPC   C3A58241  29.914  19.880   7.055
10117POPC   C4A58242  29.873  19.878   7.355
10117POPC   C1B58243  29.909  20.119   6.455
10117POPC   C2B58244  29.919  20.045   6.755
10117POPC   C3B58245  29.986  20.049   7.055
10117POPC   C4B58246  29.939  20.076   7.355
10118POPC   NC358247  18.312  30.684   5.555
10118POPC   PO458248  18.324  30.705   5.855
10118POPC   GL158249  18.254  30.656   6.155
10118POPC   GL258250  18.247  30.576   6.155
10118POPC   C1A58251  18.268  30.661   6.455
10118POPC   D2A58252  18.320  30.698   6.755
10118POPC   C3A58253  18.264  30.686   7.055
10118POPC   C4A58254  18.287  30.745   7.355
10118POPC   C1B58255  18.181  30.489   6.455
10118POPC   C2B58256  18.126  30.528   6.755
10118POPC   C3B58257  18.121  30.528   7.055
10118POPC   C4B58258  18.183  30.450   7.355
10119POPC   NC358259  38.442  34.608   5.555
10119POPC   PO458260  38.443  34.604   5.855
10119POPC   GL158261  38.444  34.606   6.155
10119POPC   GL258262  38.313  34.673   6.155
10119POPC   C1A58263  38.457  34.577   6.455
10119POPC   D2A58264  38.449  34.570   6.755
10119POPC   C3A58265  38.425  34.602   7.055
10119POPC   C4A58266  38.447  34.553   7.355
10119POPC   C1B58267  38.290  34.753   6.455
10119POPC   C2B58268  38.257  34.774   6.755
10119POPC   C3B58269  38.263  34.789   7.055
10119POPC   C4B58270  38.316  34.748   7.355
10120POPC   NC358271   2.722  36.878   5.555
10120POPC   PO458272   2.781  36.925   5.855
10120POPC   GL158273   2.795  36.911   6.155
10120POPC   GL258274   2.770  36.785   6.155
10120POPC   C1A58275   2.748  36.943   6.455
10120POPC   D2A58276   2.759  36.929   6.755
10120POPC   C3A58277   2.789  36.901   7.055
10120POPC   C4A58278   2.810  36.885   7.355
10120POPC   C1B58279   2.717  36.647   6.455
10120POPC   C2B58280   2.686  36.672   6.755
10120POPC   C3B58281   2.672  36.633   7.055
10120POPC   C4B58282   2.657  36.650   7.355
10121POPC   NC358283  14.400  11.280   5.555
10121POPC   PO458284  14.358  11.268   5.855
10121POPC   GL158285  14.447  11.319   6.155
10121POPC   GL258286  14.400  11.188   6.155
10121POPC   C1A58287  14.376  11.270   6.455
10121POPC   D2A58288  14.397  11.340   6.755
10121POPC   C3A58289  14.375  11.335   7.055
10121POPC   C4A58290  14.381  11.305   7.355
10121POPC   C1B58291  14.297  11.108   6.455
10121POPC   C2B58292  14.353  11.035   6.755
10121POPC   C3B58293  14.362  11.060   7.055
10121POPC   C4B58294  14.345  11.039   7.355
10122POPC   NC358295  14.435  10.572   5.555
10122POPC   PO458296  14.366  10.479   5.855
10122POPC   GL158297  14.445  10.484   6.155
10122POPC   GL258298  14.253  10.587   6.155
10122POPC   C1A58299  14.397  10.515   6.455
10122POPC   D2A58300  14.431  10.485   6.755
10122POPC   C3A58301  14.358  10.509   7.055
10122POPC   C4A58302  14.449  10.559   7.355
10122POPC   C1B58303  14.214  10.617   6.455
10122POPC   C2B58304  14.145  10.588   6.755
10122POPC   C3B58305  14.208  10.616   7.055
10122POPC   C4B58306  14.180  10.643   7.355
10123POPC   NC358307  33.794   3.508   5.555
10123POPC   PO458308  33.788   3.572   5.855
10123POPC   GL158309  33.760   3.549   6.155
10123POPC   GL258310  33.714   3.405   6.155
10123POPC   C1A58311  33.777   3.559   6.455
10123POPC   D2A58312  33.843   3.559   6.755
10123POPC   C3A58313  33.751   3.505   7.055
10123POPC   C4A58314  33.779   3.556   7.355
10123POPC   C1B58315  33.630   3.362   6.455
10123POPC   C2B58316  33.649   3.379   6.755
10123POPC   C3B58317  33.663   3.331   7.055
10123POPC   C4B58318  33.647   3.387   7.355
10124POPC   NC358319   8.225  29.099   5.555
10124POPC   PO458320   8.172  29.128   5.855
10124POPC   GL158321   8.225  29.137   6.155
10124POPC   GL258322   8.281  29.015   6.155
10124POPC   C1A58323   8.220  29.184   6.455
10124POPC   D2A58324   8.220  29.181   6.755
10124POPC   C3A58325   8.203  29.194   7.055
10124POPC   C4A58326   8.159  29.195   7.355
10124POPC   C1B58327   8.295  28.938   6.455
10124POPC   C2B58328   8.245  28.925   6.755
10124POPC   C3B58329   8.233  28.863   7.055
10124POPC   C4B58330   8.288  28.926   7.355
10125POPC   NC358331   4.366  18.315   5.555
10125POPC   PO458332   4.336  18.317   5.855
10125POPC   GL158333   4.277  18.281   6.155
10125POPC   GL258334   4.366  18.220   6.155
10125POPC   C1A58335   4.280  18.291   6.455
10125POPC   D2A58336   4.361  18.254   6.755
10125POPC   C3A58337   4.295  18.301   7.055
10125POPC   C4A58338   4.288  18.324   7.355
10125POPC   C1B58339   4.516  18.062   6.455
10125POPC   C2B58340   4.497  18.091   6.755
10125POPC   C3B58341   4.458  18.082   7.055
10125POPC   C4B58342   4.518  18.077   7.355
10126POPC   NC358343  20.591   4.336   5.555
10126POPC   PO458344  20.633   4.303   5.855
10126POPC   GL158345  20.603   4.319   6.155
10126POPC   GL258346  20.529   4.450   6.155
10126POPC   C1A58347  20.561   4.300   6.455
10126POPC   D2A58348  20.608   4.323   6.755
10126POPC   C3A58349  20.649   4.309   7.055
10126POPC   C4A58350  20.624   4.308   7.355
10126POPC   C1B58351  20.489   4.551   6.455
10126POPC   C2B58352  20.431   4.503   6.755
10126POPC   C3B58353  20.423   4.545   7.055
10126POPC   C4B58354  20.499   4.524   7.355
10127POPC   NC358355   5.112  29.947   5.555
10127POPC   PO458356   5.097  29.897   5.855
10127POPC   GL158357   5.051  29.902   6.155
10127POPC   GL258358   5.190  29.834   6.155
10127POPC   C1A58359   5.105  29.900   6.455
10127POPC   D2A58360   5.082  29.943   6.755
10127POPC   C3A58361   5.130  29.968   7.055
10127POPC   C4A58362   5.141  29.930   7.355
10127POPC   C1B58363   5.329  29.888   6.455
10127POPC   C2B58364   5.341  29.812   6.755
10127POPC   C3B58365   5.343  29.822   7.055
10127POPC   C4B58366   5.347  29.890   7.355
10128POPC   NC358367  44.655  26.038   5.555
10128POPC   PO458368  44.629  26.084   5.855
10128POPC   GL158369  44.667  26.007   6.155
10128POPC   GL258370  44.708  26.174   6.155
10128POPC   C1A58371  44.704  25.999   6.455
10128POPC   D2A58372  44.703  26.047   6.755
10128POPC   C3A58373  44.690  26.073   7.055
10128POPC   C4A58374  44.627  26.071   7.355
10128POPC   C1B58375  44.692  26.272   6.455
10128POPC   C2B58376  44.762  26.264   6.755
10128POPC   C3B58377  44.776  26.267   7.055
10128POPC   C4B58378  44.765  26.299   7.355
10129POPC   NC358379  44.615   6.674   5.555
10129POPC   PO458380  44.681   6.654   5.855
10129POPC   GL158381  44.657   6.640   6.155
10129POPC   GL258382  44.593   6.567   6.155
10129POPC   C1A58383  44.644   6.610   6.455
10129POPC   D2A58384  44.684   6.642   6.755
10129POPC   C3A58385  44.627   6.660   7.055
10129POPC   C4A58386  44.702   6.596   7.355
10129POPC   C1B58387  44.514   6.456   6.455
10129POPC   C2B58388  44.477   6.497   6.755
10129POPC   C3B58389  44.506   6.483   7.055
10129POPC   C4B58390  44.522   6.473   7.355
10130POPC   NC358391  44.624   0.460   5.555
10130POPC   PO458392  44.702   0.421   5.855
10130POPC   GL158393  44.687   0.430   6.155
10130POPC   GL258394  44.756   0.552   6.155
10130POPC   C1A58395  44.668   0.463   6.455
10130POPC   D2A58396  44.639   0.420   6.755
10130POPC   C3A58397  44.693   0.409   7.055
10130POPC   C4A58398  44.693   0.409   7.355
10130POPC   C1B58399  44.772   0.691   6.455
10130POPC   C2B58400  44.791   0.647   6.755
10130POPC   C3B58401  44.717   0.716   7.055
10130POPC   C4B58402  44.741   0.672   7.355
10131POPC   NC358403  16.722   3.512   5.555
10131POPC   PO458404  16.724   3.532   5.855
10131POPC   GL158405  16.749   3.531   6.155
10131POPC   GL258406  16.587   3.557   6.155
10131POPC   C1A58407  16.721   3.514   6.455
10131POPC   D2A58408  16.744   3.514   6.755
10131POPC   C3A58409  16.762   3.506   7.055
10131POPC   C4A58410  16.699   3.536   7.355
10131POPC   C1B58411  16.517   3.487   6.455
10131POPC   C2B58412  16.469   3.566   6.755
10131POPC   C3B58413  16.441   3.559   7.055
10131POPC   C4B58414  16.508   3.502   7.355
10132POPC   NC358415  42.311  17.478   5.555
10132POPC   PO458416  42.310  17.467   5.855
10132POPC   GL158417  42.289  17.551   6.155
10132POPC   GL258418  42.210  17.470   6.155
10132POPC   C1A58419  42.320  17.461   6.455
10132POPC   D2A58420  42.341  17.508   6.755
10132POPC   C3A58421  42.375  17.508   7.055
10132POPC   C4A58422  42.324  17.461   7.355
10132POPC   C1B58423  42.048  17.580   6.455
10132POPC   C2B58424  42.104  17.548   6.755
10132POPC   C3B58425  42.056  17.499   7.055
10132POPC   C4B58426  42.043  17.538   7.355
10133POPC   NC358427  39.279  33.756   5.555
10133POPC   PO458428  39.214  33.839   5.855
10133POPC   GL158429  39.255  33.788   6.155
10133POPC   GL258430  39.127  33.713   6.155
10133POPC   C1A58431  39.233  33.802   6.455
10133POPC   D2A58432  39.277  33.793   6.755
10133POPC   C3A58433  39.200  33.771   7.055
10133POPC   C4A58434  39.263  33.798   7.355
10133POPC   C1B58435  39.072  33.570   6.455
10133POPC   C2B58436  39.023  33.568   6.755
10133POPC   C3B58437  39.044  33.629   7.055
10133POPC   C4B58438  39.021  33.579   7.355
10134POPC   NC358439  33.794   2.758   5.555
10134POPC   PO458440  33.764   2.744   5.855
10134POPC   GL158441  33.764   2.807   6.155
10134POPC   GL258442  33.697   2.906   6.155
10134POPC   C1A58443  33.836   2.770   6.455
10134POPC   D2A58444  33.831   2.760   6.755
10134POPC   C3A58445  33.787   2.720   7.055
10134POPC   C4A58446  33.810   2.783   7.355
10134POPC   C1B58447  33.664   2.993   6.455
10134POPC   C2B58448  33.672   2.925   6.755
10134POPC   C3B58449  33.645   2.946   7.055
10134POPC   C4B58450  33.621   2.929   7.355
10135POPC   NC358451  30.719  21.376   5.555
10135POPC   PO458452  30.653  21.403   5.855
10135POPC   GL158453  30.702  21.349   6.155
10135POPC   GL258454  30.683  21.521   6.155
10135POPC   C1A58455  30.686  21.406   6.455
10135POPC   D2A58456  30.695  21.399   6.755
10135POPC   C3A58457  30.740  21.386   7.055
10135POPC   C4A58458  30.677  21.383   7.355
10135POPC   C1B58459  30.621  21.581   6.455
10135POPC   C2B58460  30.646  21.586   6.755
10135POPC   C3B58461  30.643  21.652   7.055
10135POPC   C4B58462  30.625  21.599   7.355
10136POPC   NC358463  18.254  23.669   5.555
10136POPC   PO458464  18.256  23.753   5.855
10136POPC   GL158465  18.245  23.680   6.155
10136POPC   GL258466  18.176  23.816   6.155
10136POPC   C1A58467  18.304  23.681   6.455
10136POPC   D2A58468  18.323  23.707   6.755
10136POPC   C3A58469  18.321  23.696   7.055
10136POPC   C4A58470  18.331  23.696   7.355
10136POPC   C1B58471  18.144  23.923   6.455
10136POPC   C2B58472  18.143  23.846   6.755
10136POPC   C3B58473  18.080  23.854   7.055
10136POPC   C4B58474  18.125  23.871   7.355
10137POPC   NC358475  40.742  23.721   5.555
10137POPC   PO458476  40.742  23.724   5.855
10137POPC   GL158477  40.740  23.752   6.155
10137POPC   GL258478  40.854  23.657   6.155
10137POPC   C1A58479  40.736  23.754   6.455
10137POPC   D2A58480  40.762  23.677   6.755
10137POPC   C3A58481  40.806  23.677   7.055
10137POPC   C4A58482  40.775  23.744   7.355
10137POPC   C1B58483  40.920  23.534   6.455
10137POPC   C2B58484  40.931  23.523   6.755
10137POPC   C3B58485  40.950  23.522   7.055
10137POPC   C4B58486  40.942  23.472   7.355
10138POPC   NC358487  36.864  40.787   5.555
10138POPC   PO458488  36.898  40.770   5.855
10138POPC   GL158489  36.857  40.824   6.155
10138POPC   GL258490  37.052  40.695   6.155
10138POPC   C1A58491  36.948  40.786   6.455
10138POPC   D2A58492  36.858  40.781   6.755
10138POPC   C3A58493  36.924  40.743   7.055
10138POPC   C4A58494  36.926  40.740   7.355
10138POPC   C1B58495  37.122  40.608   6.455
10138POPC   C2B58496  37.102  40.652   6.755
10138POPC   C3B58497  37.133  40.664   7.055
10138POPC   C4B58498  37.098  40.616   7.355
10139POPC   NC358499  29.936   5.096   5.555
10139POPC   PO458500  29.949   5.094   5.855
10139POPC   GL158501  29.953   5.074   6.155
10139POPC   GL258502  29.928   5.205   6.155
10139POPC   C1A58503  29.907   5.111   6.455
10139POPC   D2A58504  29.960   5.142   6.755
10139POPC   C3A58505  29.919   5.115   7.055
10139POPC   C4A58506  29.878   5.120   7.355
10139POPC   C1B58507  29.940   5.336   6.455
10139POPC   C2B58508  29.905   5.325   6.755
10139POPC   C3B58509  29.989   5.302   7.055
10139POPC   C4B58510  29.977   5.327   7.355
10140POPC   NC358511  16.774  20.598   5.555
10140POPC   PO458512  16.703  20.581   5.855
10140POPC   GL158513  16.690  20.575   6.155
10140POPC   GL258514  16.577  20.524   6.155
10140POPC   C1A58515  16.752  20.612   6.455
10140POPC   D2A58516  16.687  20.657   6.755
10140POPC   C3A58517  16.755  20.659   7.055
10140POPC   C4A58518  16.737  20.640   7.355
10140POPC   C1B58519  16.508  20.470   6.455
10140POPC   C2B58520  16.526  20.469   6.755
10140POPC   C3B58521  16.531  20.481   7.055
10140POPC   C4B58522  16.543  20.500   7.355
10141POPC   NC358523  12.102   5.135   5.555
10141POPC   PO458524  12.067   5.122   5.855
10141POPC   GL158525  12.027   5.048   6.155
10141POPC   GL258526  12.230   5.018   6.155
10141POPC   C1A58527  12.079   5.064   6.455
10141POPC   D2A58528  12.104   5.119   6.755
10141POPC   C3A58529  12.076   5.056   7.055
10141POPC   C4A58530  12.057   5.110   7.355
10141POPC   C1B58531  12.342   5.030   6.455
10141POPC   C2B58532  12.310   5.063   6.755
10141POPC   C3B58533  12.361   5.057   7.055
10141POPC   C4B58534  12.364   4.992   7.355
10142POPC   NC358535  19.850   4.307   5.555
10142POPC   PO458536  19.809   4.354   5.855
10142POPC   GL158537  19.793   4.331   6.155
10142POPC   GL258538  19.739   4.239   6.155
10142POPC   C1A58539  19.847   4.357   6.455
10142POPC   D2A58540  19.858   4.349   6.755
10142POPC   C3A58541  19.828   4.358   7.055
10142POPC   C4A58542  19.787   4.339   7.355
10142POPC   C1B58543  19.757   4.091   6.455
10142POPC   C2B58544  19.748   4.135   6.755
10142POPC   C3B58545  19.771   4.066   7.055
10142POPC   C4B58546  19.705   4.064   7.355
10143POPC   NC358547  22.201   1.989   5.555
10143POPC   PO458548  22.154   2.025   5.855
10143POPC   GL158549  22.125   2.007   6.155
10143POPC   GL258550  22.263   2.038   6.155
10143POPC   C1A58551  22.202   1.982   6.455
10143POPC   D2A58552  22.133   1.944   6.755
10143POPC   C3A58553  22.138   1.998   7.055
10143POPC   C4A58554  22.187   2.021   7.355
10143POPC   C1B58555  22.433   2.088   6.455
10143POPC   C2B58556  22.373   2.064   6.755
10143POPC   C3B58557  22.386   2.063   7.055
10143POPC   C4B58558  22.411   2.090   7.355
10144POPC   NC358559  17.483   1.231   5.555
10144POPC   PO458560  17.503   1.201   5.855
10144POPC   GL158561  17.545   1.241   6.155
10144POPC   GL258562  17.610   1.346   6.155
10144POPC   C1A58563  17.479   1.247   6.455
10144POPC   D2A58564  17.541   1.242   6.755
10144POPC   C3A58565  17.529   1.217   7.055
10144POPC   C4A58566  17.521   1.189   7.355
10144POPC   C1B58567  17.726   1.387   6.455
10144POPC   C2B58568  17.643   1.404   6.755
10144POPC   C3B58569  17.677   1.403   7.055
10144POPC   C4B58570  17.661   1.403   7.355
10145POPC   NC358571  18.272  24.465   5.555
10145POPC   PO458572  18.267  24.450   5.855
10145POPC   GL158573  18.255  24.447   6.155
10145POPC   GL258574  18.265  24.604   6.155
10145POPC   C1A58575  18.311  24.538   6.455
10145POPC   D2A58576  18.327  24.502   6.755
10145POPC   C3A58577  18.251  24.518   7.055
10145POPC   C4A58578  18.293  24.497   7.355
10145POPC   C1B58579  18.281  24.700   6.455
10145POPC   C2B58580  18.239  24.710   6.755
10145POPC   C3B58581  18.241  24.742   7.055
10145POPC   C4B58582  18.298  24.728   7.355
10146POPC   NC358583   8.212  36.127   5.555
10146POPC   PO458584   8.236  36.150   5.855
10146POPC   GL158585   8.161  36.091   6.155
10146POPC   GL258586   8.229  36.206   6.155
10146POPC   C1A58587   8.245  36.086   6.455
10146POPC   D2A58588   8.173  36.114   6.755
10146POPC   C3A58589   8.185  36.122   7.055
10146POPC   C4A58590   8.212  36.121   7.355
10146POPC   C1B58591   8.398  36.299   6.455
10146POPC   C2B58592   8.368  36.281   6.755
10146POPC   C3B58593   8.349  36.322   7.055
10146POPC   C4B58594   8.371  36.369   7.355
10147POPC   NC358595  16.690  12.857   5.555
10147POPC   PO458596  16.761  12.826   5.855
10147POPC   GL158597  16.692  12.854   6.155
10147POPC   GL258598  16.811  12.772   6.155
10147POPC   C1A58599  16.699  12.832   6.455
10147POPC   D2A58600  16.733  12.889   6.755
10147POPC   C3A58601  16.748  12.859   7.055
10147POPC   C4A58602  16.758  12.822   7.355
10147POPC   C1B58603  16.905  12.742   6.455
10147POPC   C2B58604  16.947  12.710   6.755
10147POPC   C3B58605  16.986  12.783   7.055
10147POPC   C4B58606  16.979  12.745   7.355
10148POPC   NC358607  38.452  15.145   5.555
10148POPC   PO458608  38.440  15.201   5.855
10148POPC   GL158609  38.497  15.210   6.155
10148POPC   GL258610  38.294  15.105   6.155
10148POPC   C1A58611  38.435  15.177   6.455
10148POPC   D2A58612  38.413  15.210   6.755
10148POPC   C3A58613  38.444  15.131   7.055
10148POPC   C4A58614  38.495  15.216   7.355
10148POPC   C1B58615  38.204  15.097   6.455
10148POPC   C2B58616  38.183  15.050   6.755
10148POPC   C3B58617  38.211  15.073   7.055
10148POPC   C4B58618  38.194  15.094   7.355
10149POPC   NC358619  13.667   6.629   5.555
10149POPC   PO458620  13.584   6.651   5.855
10149POPC   GL158621  13.658   6.687   6.155
10149POPC   GL258622  13.729   6.677   6.155
10149POPC   C1A58623  13.602   6.684   6.455
10149POPC   D2A58624  13.584   6.675   6.755
10149POPC   C3A58625  13.613   6.598   7.055
10149POPC   C4A58626  13.675   6.606   7.355
10149POPC   C1B58627  13.815   6.829   6.455
10149POPC   C2B58628  13.855   6.801   6.755
10149POPC   C3B58629  13.789   6.800   7.055
10149POPC   C4B58630  13.884   6.776   7.355
10150POPC   NC358631  32.222   3.521   5.555
10150POPC   PO458632  32.216   3.581   5.855
10150POPC   GL158633  32.244   3.526   6.155
10150POPC   GL258634  32.373   3.530   6.155
10150POPC   C1A58635  32.204   3.518   6.455
10150POPC   D2A58636  32.278   3.560   6.755
10150POPC   C3A58637  32.259   3.585   7.055
10150POPC   C4A58638  32.267   3.555   7.355
10150POPC   C1B58639  32.452   3.414   6.455
10150POPC   C2B58640  32.451   3.421   6.755
10150POPC   C3B58641  32.496   3.456   7.055
10150POPC   C4B58642  32.496   3.439   7.355
10151POPC   NC358643  42.346  23.760   5.555
10151POPC   PO458644  42.311  23.722   5.855
10151POPC   GL158645  42.319  23.728   6.155
10151POPC   GL258646  42.284  23.573   6.155
10151POPC   C1A58647  42.373  23.691   6.455
10151POPC   D2A58648  42.359  23.732   6.755
10151POPC   C3A58649  42.348  23.696   7.055
10151POPC   C4A58650  42.374  23.697   7.355
10151POPC   C1B58651  42.202  23.454   6.455
10151POPC   C2B58652  42.193  23.450   6.755
10151POPC   C3B58653  42.207  23.497   7.055
10151POPC   C4B58654  42.185  23.463   7.355
10152POPC   NC358655  28.355  28.342   5.555
10152POPC   PO458656  28.402  28.366   5.855
10152POPC   GL158657  28.392  28.323   6.155
10152POPC   GL258658  28.266  28.438   6.155
10152POPC   C1A58659  28.379  28.411   6.455
10152POPC   D2A58660  28.348  28.326   6.755
10152POPC   C3A58661  28.352  28.360   7.055
10152POPC   C4A58662  28.408  28.415   7.355
10152POPC   C1B58663  28.137  28.529   6.455
10152POPC   C2B58664  28.146  28.530   6.755
10152POPC   C3B58665  28.105  28.470   7.055
10152POPC   C4B58666  28.111  28.452   7.355
10153POPC   NC358667  42.362   1.244   5.555
10153POPC   PO458668  42.309   1.168   5.855
10153POPC   GL158669  42.378   1.206   6.155
10153POPC   GL258670  42.189   1.252   6.155
10153POPC   C1A58671  42.293   1.260   6.455
10153POPC   D2A58672  42.352   1.188   6.755
10153POPC   C3A58673  42.323   1.231   7.055
10153POPC   C4A58674  42.358   1.231   7.355
10153POPC   C1B58675  42.089   1.232   6.455
10153POPC   C2B58676  42.096   1.313   6.755
10153POPC   C3B58677  42.092   1.304   7.055
10153POPC   C4B58678  42.141   1.258   7.355
10154POPC   NC358679   9.756  35.388   5.555
10154POPC   PO458680   9.784  35.347   5.855
10154POPC   GL158681   9.726  35.336   6.155
10154POPC   GL258682   9.736  35.499   6.155
10154POPC   C1A58683   9.773  35.371   6.455
10154POPC   D2A58684   9.722  35.378   6.755
10154POPC   C3A58685   9.786  35.341   7.055
10154POPC   C4A58686   9.729  35.311   7.355
10154POPC   C1B58687   9.705  35.611   6.455
10154POPC   C2B58688   9.671  35.560   6.755
10154POPC   C3B58689   9.668  35.590   7.055
10154POPC   C4B58690   9.691  35.604   7.355
10155POPC   NC358691  15.137  44.633   5.555
10155POPC   PO458692  15.202  44.692   5.855
10155POPC   GL158693  15.197  44.679   6.155
10155POPC   GL258694  15.264  44.684   6.155
10155POPC   C1A58695  15.185  44.660   6.455
10155POPC   D2A58696  15.187  44.629   6.755
10155POPC   C3A58697  15.138  44.629   7.055
10155POPC   C4A58698  15.176  44.704   7.355
10155POPC   C1B58699  15.425  44.763   6.455
10155POPC   C2B58700  15.433  44.709   6.755
10155POPC   C3B58701  15.428  44.724   7.055
10155POPC   C4B58702  15.439  44.779   7.355
10156POPC   NC358703  43.119  38.440   5.555
10156POPC   PO458704  43.075  38.456   5.855
10156POPC   GL158705  43.139  38.482   6.155
10156POPC   GL258706  43.010  38.351   6.155
10156POPC   C1A58707  43.118  38.445   6.455
10156POPC   D2A58708  43.071  38.417   6.755
10156POPC   C3A58709  43.097  38.435   7.055
10156POPC   C4A58710  43.116  38.412   7.355
10156POPC   C1B58711  42.933  38.237   6.455
10156POPC   C2B58712  42.980  38.302   6.755
10156POPC   C3B58713  42.989  38.272   7.055
10156POPC   C4B58714  42.971  38.220   7.355
10157POPC   NC358715  31.458  36.915   5.555
10157POPC   PO458716  31.514  36.930   5.855
10157POPC   GL158717  31.498  36.876   6.155
10157POPC   GL258718  31.499  36.834   6.155
10157POPC   C1A58719  31.428  36.940   6.455
10157POPC   D2A58720  31.442  36.883   6.755
10157POPC   C3A58721  31.431  36.952   7.055
10157POPC   C4A58722  31.497  36.905   7.355
10157POPC   C1B58723  31.630  36.661   6.455
10157POPC   C2B58724  31.573  36.733   6.755
10157POPC   C3B58725  31.616  36.667   7.055
10157POPC   C4B58726  31.617  36.655   7.355
10158POPC   NC358727  42.354  15.954   5.555
10158POPC   PO458728  42.384  15.907   5.855
10158POPC   GL158729  42.315  15.912   6.155
10158POPC   GL258730  42.455  16.069   6.155
10158POPC   C1A58731  42.383  15.908   6.455
10158POPC   D2A58732  42.321  15.957   6.755
10158POPC   C3A58733  42.285  15.983   7.055
10158POPC   C4A58734  42.289  15.954   7.355
10158POPC   C1B58735  42.497  16.086   6.455
10158POPC   C2B58736  42.500  16.169   6.755
10158POPC   C3B58737  42.503  16.084   7.055
10158POPC   C4B58738  42.562  16.081   7.355
10159POPC   NC358739  44.645  11.348   5.555
10159POPC   PO458740  44.623  11.266   5.855
10159POPC   GL158741  44.631  11.264   6.155
10159POPC   GL258742  44.737  11.426   6.155
10159POPC   C1A58743  44.669  11.284   6.455
10159POPC   D2A58744  44.652  11.277   6.755
10159POPC   C3A58745  44.680  11.334   7.055
10159POPC   C4A58746  44.668  11.340   7.355
10159POPC   C1B58747  44.869  11.528   6.455
10159POPC   C2B58748  44.843  11.492   6.755
10159POPC   C3B58749  44.837  11.447   7.055
10159POPC   C4B58750  44.831  11.483   7.355
10160POPC   NC358751  39.240  27.613   5.555
10160POPC   PO458752  39.244  27.562   5.855
10160POPC   GL158753  39.192  27.632   6.155
10160POPC   GL258754  39.205  27.463   6.155
10160POPC   C1A58755  39.220  27.633   6.455
10160POPC   D2A58756  39.227  27.556   6.755
10160POPC   C3A58757  39.259  27.642   7.055
10160POPC   C4A58758  39.182  27.574   7.355
10160POPC   C1B58759  39.069  27.347   6.455
10160POPC   C2B58760  39.056  27.351   6.755
10160POPC   C3B58761  39.127  27.397   7.055
10160POPC   C4B58762  39.036  27.412   7.355
10161POPC   NC358763   9.754   6.598   5.555
10161POPC   PO458764   9.722   6.692   5.855
10161POPC   GL158765   9.762   6.601   6.155
10161POPC   GL258766   9.860   6.663   6.155
10161POPC   C1A58767   9.746   6.648   6.455
10161POPC   D2A58768   9.716   6.614   6.755
10161POPC   C3A58769   9.750   6.679   7.055
10161POPC   C4A58770   9.739   6.673   7.355
10161POPC   C1B58771  10.045   6.676   6.455
10161POPC   C2B58772   9.984   6.661   6.755
10161POPC   C3B58773  10.005   6.674   7.055
10161POPC   C4B58774   9.970   6.620   7.355
10162POPC   NC358775  34.590  36.112   5.555
10162POPC   PO458776  34.550  36.163   5.855
10162POPC   GL158777  34.609  36.082   6.155
10162POPC   GL258778  34.704  36.169   6.155
10162POPC   C1A58779  34.539  36.136   6.455
10162POPC   D2A58780  34.539  36.111   6.755
10162POPC   C3A58781  34.556  36.085   7.055
10162POPC   C4A58782  34.614  36.092   7.355
10162POPC   C1B58783  34.768  36.244   6.455
10162POPC   C2B58784  34.771  36.265   6.755
10162POPC   C3B58785  34.734  36.278   7.055
10162POPC   C4B58786  34.764  36.319   7.355
10163POPC   NC358787  43.147  11.266   5.555
10163POPC   PO458788  43.112  11.300   5.855
10163POPC   GL158789  43.066  11.309   6.155
10163POPC   GL258790  43.182  11.244   6.155
10163POPC   C1A58791  43.126  11.322   6.455
10163POPC   D2A58792  43.159  11.347   6.755
10163POPC   C3A58793  43.131  11.271   7.055
10163POPC   C4A58794  43.160  11.260   7.355
10163POPC   C1B58795  43.310  11.120   6.455
10163POPC   C2B58796  43.288  11.176   6.755
10163POPC   C3B58797  43.302  11.180   7.055
10163POPC   C4B58798  43.259  11.096   7.355
10164POPC   NC358799  39.978  17.533   5.555
10164POPC   PO458800  40.025  17.513   5.855
10164POPC   GL158801  40.044  17.461   6.155
10164POPC   GL258802  39.954  17.377   6.155
10164POPC   C1A58803  40.002  17.546   6.455
10164POPC   D2A58804  40.013  17.482   6.755
10164POPC   C3A58805  40.031  17.517   7.055
10164POPC   C4A58806  39.990  17.494   7.355
10164POPC   C1B58807  39.839  17.326   6.455
10164POPC   C2B58808  39.895  17.290   6.755
10164POPC   C3B58809  39.893  17.252   7.055
10164POPC   C4B58810  39.891  17.336   7.355
10165POPC   NC358811  11.251  26.853   5.555
10165POPC   PO458812  11.275  26.795   5.855
10165POPC   GL158813  11.275  26.803   6.155
10165POPC   GL258814  11.159  26.783   6.155
10165POPC   C1A58815  11.305  26.798   6.455
10165POPC   D2A58816  11.289  26.810   6.755
10165POPC   C3A58817  11.329  26.830   7.055
10165POPC   C4A58818  11.304  26.847   7.355
10165POPC   C1B58819  11.105  26.678   6.455
10165POPC   C2B58820  11.055  26.711   6.755
10165POPC   C3B58821  11.087  26.751   7.055
10165POPC   C4B58822  11.102  26.672   7.355
10166POPC   NC358823  43.856  42.311   5.555
10166POPC   PO458824  43.883  42.290   5.855
10166POPC   GL158825  43.926  42.315   6.155
10166POPC   GL258826  43.903  42.213   6.155
10166POPC   C1A58827  43.934  42.347   6.455
10166POPC   D2A58828  43.916  42.317   6.755
10166POPC   C3A58829  43.922  42.372   7.055
10166POPC   C4A58830  43.931  42.293   7.355
10166POPC   C1B58831  43.964  42.128   6.455
10166POPC   C2B58832  43.959  42.142   6.755
10166POPC   C3B58833  43.910  42.136   7.055
10166POPC   C4B58834  43.986  42.098   7.355
10167POPC   NC358835  23.720  43.082   5.555
10167POPC   PO458836  23.733  43.082   5.855
10167POPC   GL158837  23.717  43.104   6.155
10167POPC   GL258838  23.627  43.020   6.155
10167POPC   C1A58839  23.753  43.128   6.455
10167POPC   D2A58840  23.732  43.160   6.755
10167POPC   C3A58841  23.705  43.149   7.055
10167POPC   C4A58842  23.749  43.091   7.355
10167POPC   C1B58843  23.537  42.923   6.455
10167POPC   C2B58844  23.463  42.952   6.755
10167POPC   C3B58845  23.480  42.954   7.055
10167POPC   C4B58846  23.531  42.966   7.355
10168POPC   NC358847  20.622  25.229   5.555
10168POPC   PO458848  20.615  25.280   5.855
10168POPC   GL158849  20.652  25.316   6.155
10168POPC   GL258850  20.643  25.388   6.155
10168POPC   C1A58851  20.611  25.279   6.455
10168POPC   D2A58852  20.592  25.217   6.755
10168POPC   C3A58853  20.632  25.274   7.055
10168POPC   C4A58854  20.651  25.288   7.355
10168POPC   C1B58855  20.713  25.527   6.455
10168POPC   C2B58856  20.661  25.534   6.755
10168POPC   C3B58857  20.714  25.517   7.055
10168POPC   C4B58858  20.661  25.526   7.355
10169POPC   NC358859  36.125  41.558   5.555
10169POPC   PO458860  36.125  41.522   5.855
10169POPC   GL158861  36.169  41.578   6.155
10169POPC   GL258862  35.957  41.561   6.155
10169POPC   C1A58863  36.104  41.585   6.455
10169POPC   D2A58864  36.126  41.581   6.755
10169POPC   C3A58865  36.083  41.522   7.055
10169POPC   C4A58866  36.163  41.515   7.355
10169POPC   C1B58867  35.918  41.562   6.455
10169POPC   C2B58868  35.836  41.572   6.755
10169POPC   C3B58869  35.878  41.569   7.055
10169POPC   C4B58870  35.923  41.564   7.355
10170POPC   NC358871  40.013  27.554   5.555
10170POPC   PO458872  40.048  27.639   5.855
10170POPC   GL158873  39.975  27.558   6.155
10170POPC   GL258874  39.839  27.554   6.155
10170POPC   C1A58875  40.014  27.624   6.455
10170POPC   D2A58876  40.048  27.578   6.755
10170POPC   C3A58877  40.048  27.564   7.055
10170POPC   C4A58878  40.009  27.581   7.355
10170POPC   C1B58879  39.733  27.524   6.455
10170POPC   C2B58880  39.729  27.583   6.755
10170POPC   C3B58881  39.779  27.515   7.055
10170POPC   C4B58882  39.717  27.573   7.355
10171POPC   NC358883  17.489  25.233   5.555
10171POPC   PO458884  17.463  25.302   5.855
10171POPC   GL158885  17.478  25.287   6.155
10171POPC   GL258886  17.453  25.195   6.155
10171POPC   C1A58887  17.466  25.314   6.455
10171POPC   D2A58888  17.529  25.298   6.755
10171POPC   C3A58889  17.482  25.274   7.055
10171POPC   C4A58890  17.472  25.288   7.355
10171POPC   C1B58891  17.431  25.061   6.455
10171POPC   C2B58892  17.367  24.991   6.755
10171POPC   C3B58893  17.437  25.012   7.055
10171POPC   C4B58894  17.425  25.062   7.355
10172POPC   NC358895  36.905   2.750   5.555
10172POPC   PO458896  36.882   2.792   5.855
10172POPC   GL158897  36.948   2.761   6.155
10172POPC   GL258898  36.898   2.938   6.155
10172POPC   C1A58899  36.896   2.740   6.455
10172POPC   D2A58900  36.913   2.762   6.755
10172POPC   C3A58901  36.897   2.759   7.055
10172POPC   C4A58902  36.865   2.755   7.355
10172POPC   C1B58903  36.897   3.023   6.455
10172POPC   C2B58904  36.954   3.043   6.755
10172POPC   C3B58905  36.899   3.035   7.055
10172POPC   C4B58906  36.944   2.967   7.355
10173POPC   NC358907  43.910  12.123   5.555
10173POPC   PO458908  43.912  12.083   5.855
10173POPC   GL158909  43.869  12.083   6.155
10173POPC   GL258910  43.815  11.970   6.155
10173POPC   C1A58911  43.926  12.090   6.455
10173POPC   D2A58912  43.929  12.086   6.755
10173POPC   C3A58913  43.924  12.098   7.055
10173POPC   C4A58914  43.868  12.036   7.355
10173POPC   C1B58915  43.864  11.870   6.455
10173POPC   C2B58916  43.860  11.883   6.755
10173POPC   C3B58917  43.817  11.814   7.055
10173POPC   C4B58918  43.841  11.866   7.355
10174POPC   NC358919   2.743  26.012   5.555
10174POPC   PO458920   2.778  26.087   5.855
10174POPC   GL158921   2.791  26.058   6.155
10174POPC   GL258922   2.632  26.031   6.155
10174POPC   C1A58923   2.799  26.074   6.455
10174POPC   D2A58924   2.805  25.993   6.755
10174POPC   C3A58925   2.807  26.018   7.055
10174POPC   C4A58926   2.783  26.082   7.355
10174POPC   C1B58927   2.549  26.004   6.455
10174POPC   C2B58928   2.556  26.002   6.755
10174POPC   C3B58929   2.575  25.961   7.055
10174POPC   C4B58930   2.551  25.991   7.355
10175POPC   NC358931  11.322  35.343   5.555
10175POPC   PO458932  11.251  35.304   5.855
10175POPC   GL158933  11.277  35.335   6.155
10175POPC   GL258934  11.425  35.332   6.155
10175POPC   C1A58935  11.342  35.385   6.455
10175POPC   D2A58936  11.328  35.336   6.755
10175POPC   C3A58937  11.272  35.369   7.055
10175POPC   C4A58938  11.299  35.346   7.355
10175POPC   C1B58939  11.569  35.268   6.455
10175POPC   C2B58940  11.524  35.294   6.755
10175POPC   C3B58941  11.503  35.221   7.055
10175POPC   C4B58942  11.512  35.220   7.355
10176POPC   NC358943  28.329  32.292   5.555
10176POPC   PO458944  28.404  32.239   5.855
10176POPC   GL158945  28.411  32.255   6.155
10176POPC   GL258946  28.393  32.347   6.155
10176POPC   C1A58947  28.367  32.286   6.455
10176POPC   D2A58948  28.411  32.274   6.755
10176POPC   C3A58949  28.356  32.204   7.055
10176POPC   C4A58950  28.354  32.233   7.355
10176POPC   C1B58951  28.364  32.451   6.455
10176POPC   C2B58952  28.421  32.498   6.755
10176POPC   C3B58953  28.366  32.489   7.055
10176POPC   C4B58954  28.336  32.548   7.355
10177POPC   NC358955  34.607  34.534   5.555
10177POPC   PO458956  34.559  34.528   5.855
10177POPC   GL158957  34.620  34.585   6.155
10177POPC   GL258958  34.687  34.585   6.155
10177POPC   C1A58959  34.542  34.566   6.455
10177POPC   D2A58960  34.577  34.553   6.755
10177POPC   C3A58961  34.608  34.595   7.055
10177POPC   C4A58962  34.561  34.586   7.355
10177POPC   C1B58963  34.865  34.569   6.455
10177POPC   C2B58964  34.871  34.566   6.755
10177POPC   C3B58965  34.836  34.615   7.055
10177POPC   C4B58966  34.803  34.549   7.355
10178POPC   NC358967  22.934   2.005   5.555
10178POPC   PO458968  22.945   1.951   5.855
10178POPC   GL158969  22.920   1.996   6.155
10178POPC   GL258970  22.858   2.065   6.155
10178POPC   C1A58971  22.889   1.981   6.455
10178POPC   D2A58972  22.888   1.998   6.755
10178POPC   C3A58973  22.950   1.992   7.055
10178POPC   C4A58974  22.907   2.020   7.355
10178POPC   C1B58975  22.871   2.186   6.455
10178POPC   C2B58976  22.882   2.222   6.755
10178POPC   C3B58977  22.878   2.233   7.055
10178POPC   C4B58978  22.831   2.205   7.355
10179POPC   NC358979  40.828  32.235   5.555
10179POPC   PO458980  40.823  32.203   5.855
10179POPC   GL158981  40.798  32.216   6.155
10179POPC   GL258982  40.771  32.372   6.155
10179POPC   C1A58983  40.774  32.265   6.455
10179POPC   D2A58984  40.749  32.279   6.755
10179POPC   C3A58985  40.819  32.242   7.055
10179POPC   C4A58986  40.780  32.235   7.355
10179POPC   C1B58987  40.820  32.538   6.455
10179POPC   C2B58988  40.817  32.455   6.755
10179POPC   C3B58989  40.853  32.467   7.055
10179POPC   C4B58990  40.825  32.478   7.355
10180POPC   NC358991  38.474  29.135   5.555
10180POPC   PO458992  38.479  29.106   5.855
10180POPC   GL158993  38.453  29.114   6.155
10180POPC   GL258994  38.342  29.082   6.155
10180POPC   C1A58995  38.419  29.139   6.455
10180POPC   D2A58996  38.449  29.156   6.755
10180POPC   C3A58997  38.426  29.172   7.055
10180POPC   C4A58998  38.412  29.140   7.355
10180POPC   C1B58999  38.193  29.104   6.455
10180POPC   C2B59000  38.221  29.123   6.755
10180POPC   C3B59001  38.219  29.074   7.055
10180POPC   C4B59002  38.179  29.157   7.355
10181POPC   NC359003  16.001  43.921   5.555
10181POPC   PO459004  15.915  43.916   5.855
10181POPC   GL159005  15.977  43.883   6.155
10181POPC   GL259006  15.887  43.979   6.155
10181POPC   C1A59007  15.914  43.900   6.455
10181POPC   D2A59008  15.946  43.935   6.755
10181POPC   C3A59009  15.933  43.936   7.055
10181POPC   C4A59010  15.918  43.844   7.355
10181POPC   C1B59011  15.859  44.152   6.455
10181POPC   C2B59012  15.863  44.133   6.755
10181POPC   C3B59013  15.860  44.132   7.055
10181POPC   C4B59014  15.841  44.146   7.355
10182POPC   NC359015   4.285  15.220   5.555
10182POPC   PO459016   4.286  15.164   5.855
10182POPC   GL159017   4.366  15.214   6.155
10182POPC   GL259018   4.427  15.133   6.155
10182POPC   C1A59019   4.350  15.132   6.455
10182POPC   D2A59020   4.367  15.142   6.755
10182POPC   C3A59021   4.356  15.146   7.055
10182POPC   C4A59022   4.322  15.169   7.355
10182POPC   C1B59023   4.554  15.159   6.455
10182POPC   C2B59024   4.580  15.222   6.755
10182POPC   C3B59025   4.581  15.134   7.055
10182POPC   C4B59026   4.617  15.218   7.355
10183POPC   NC359027  30.735   8.227   5.555
10183POPC   PO459028  30.736   8.197   5.855
10183POPC   GL159029  30.736   8.244   6.155
10183POPC   GL259030  30.639   8.331   6.155
10183POPC   C1A59031  30.743   8.212   6.455
10183POPC   D2A59032  30.741   8.167   6.755
10183POPC   C3A59033  30.665   8.157   7.055
10183POPC   C4A59034  30.664   8.238   7.355
10183POPC   C1B59035  30.541   8.367   6.455
10183POPC   C2B59036  30.508   8.393   6.755
10183POPC   C3B59037  30.576   8.424   7.055
10183POPC   C4B59038  30.560   8.366   7.355
10184POPC   NC359039   2.794  27.582   5.555
10184POPC   PO459040   2.719  27.614   5.855
10184POPC   GL159041   2.760  27.601   6.155
10184POPC   GL259042   2.827  27.499   6.155
10184POPC   C1A59043   2.716  27.566   6.455
10184POPC   D2A59044   2.811  27.614   6.755
10184POPC   C3A59045   2.726  27.578   7.055
10184POPC   C4A59046   2.784  27.613   7.355
10184POPC   C1B59047   2.933  27.460   6.455
10184POPC   C2B59048   2.943  27.376   6.755
10184POPC   C3B59049   2.927  27.396   7.055
10184POPC   C4B59050   2.928  27.387   7.355
10185POPC   NC359051  36.104   6.634   5.555
10185POPC   PO459052  36.093   6.627   5.855
10185POPC   GL159053  36.153   6.629   6.155
10185POPC   GL259054  36.020   6.777   6.155
10185POPC   C1A59055  36.119   6.638   6.455
10185POPC   D2A59056  36.101   6.670   6.755
10185POPC   C3A59057  36.173   6.620   7.055
10185POPC   C4A59058  36.095   6.624   7.355
10185POPC   C1B59059  35.905   6.862   6.455
10185POPC   C2B59060  35.914   6.797   6.755
10185POPC   C3B59061  35.927   6.800   7.055
10185POPC   C4B59062  35.927   6.802   7.355
10186POPC   NC359063   8.205  34.536   5.555
10186POPC   PO459064   8.181  34.598   5.855
10186POPC   GL159065   8.159  34.592   6.155
10186POPC   GL259066   8.074  34.654   6.155
10186POPC   C1A59067   8.201  34.536   6.455
10186POPC   D2A59068   8.246  34.553   6.755
10186POPC   C3A59069   8.228  34.617   7.055
10186POPC   C4A59070   8.231  34.533   7.355
10186POPC   C1B59071   8.009  34.655   6.455
10186POPC   C2B59072   7.976  34.658   6.755
10186POPC   C3B59073   8.011  34.662   7.055
10186POPC   C4B59074   7.937  34.699   7.355
10187POPC   NC359075  23.742   1.254   5.555
10187POPC   PO459076  23.670   1.251   5.855
10187POPC   GL159077  23.750   1.193   6.155
10187POPC   GL259078  23.682   1.319   6.155
10187POPC   C1A59079  23.759   1.180   6.455
10187POPC   D2A59080  23.705   1.215   6.755
10187POPC   C3A59081  23.726   1.198   7.055
10187POPC   C4A59082  23.758   1.247   7.355
10187POPC   C1B59083  23.535   1.459   6.455
10187POPC   C2B59084  23.574   1.399   6.755
10187POPC   C3B59085  23.556   1.456   7.055
10187POPC   C4B59086  23.541   1.364   7.355
10188POPC   NC359087   0.414  21.354   5.555
10188POPC   PO459088   0.468  21.367   5.855
10188POPC   GL159089   0.444  21.390   6.155
10188POPC   GL259090   0.346  21.395   6.155
10188POPC   C1A59091   0.415  21.339   6.455
10188POPC   D2A59092   0.454  21.405   6.755
10188POPC   C3A59093   0.464  21.372   7.055
10188POPC   C4A59094   0.412  21.422   7.355
10188POPC   C1B59095   0.190  21.485   6.455
10188POPC   C2B59096   0.218  21.400   6.755
10188POPC   C3B59097   0.171  21.399   7.055
10188POPC   C4B59098   0.232  21.468   7.355
10189POPC   NC359099  37.703  43.838   5.555
10189POPC   PO459100  37.688  43.889   5.855
10189POPC   GL159101  37.694  43.862   6.155
10189POPC   GL259102  37.805  43.980   6.155
10189POPC   C1A59103  37.646  43.912   6.455
10189POPC   D2A59104  37.728  43.928   6.755
10189POPC   C3A59105  37.718  43.928   7.055
10189POPC   C4A59106  37.692  43.871   7.355
10189POPC   C1B59107  37.856  44.037   6.455
10189POPC   C2B59108  37.788  44.116   6.755
10189POPC   C3B59109  37.783  44.082   7.055
10189POPC   C4B59110  37.875  44.096   7.355
10190POPC   NC359111  41.531  29.158   5.555
10190POPC   PO459112  41.574  29.168   5.855
10190POPC   GL159113  41.579  29.186   6.155
10190POPC   GL259114  41.623  29.264   6.155
10190POPC   C1A59115  41.525  29.174   6.455
10190POPC   D2A59116  41.536  29.158   6.755
10190POPC   C3A59117  41.532  29.192   7.055
10190POPC   C4A59118  41.551  29.139   7.355
10190POPC   C1B59119  41.772  29.332   6.455
10190POPC   C2B59120  41.711  29.307   6.755
10190POPC   C3B59121  41.739  29.300   7.055
10190POPC   C4B59122  41.757  29.324   7.355
10191POPC   NC359123  44.670  39.182   5.555
10191POPC   PO459124  44.667  39.278   5.855
10191POPC   GL159125  44.642  39.279   6.155
10191POPC   GL259126  44.745  39.268   6.155
10191POPC   C1A59127  44.671  39.222   6.455
10191POPC   D2A59128  44.664  39.207   6.755
10191POPC   C3A59129  44.624  39.189   7.055
10191POPC   C4A59130  44.625  39.198   7.355
10191POPC   C1B59131  44.943  39.329   6.455
10191POPC   C2B59132  44.919  39.264   6.755
10191POPC   C3B59133  44.953  39.285   7.055
10191POPC   C4B59134  44.855  39.251   7.355
10192POPC   NC359135  42.336  37.653   5.555
10192POPC   PO459136  42.364  37.639   5.855
10192POPC   GL159137  42.309  37.644   6.155
10192POPC   GL259138  42.447  37.756   6.155
10192POPC   C1A59139  42.350  37.706   6.455
10192POPC   D2A59140  42.322  37.678   6.755
10192POPC   C3A59141  42.311  37.694   7.055
10192POPC   C4A59142  42.383  37.679   7.355
10192POPC   C1B59143  42.505  37.871   6.455
10192POPC   C2B59144  42.575  37.783   6.755
10192POPC   C3B59145  42.572  37.822   7.055
10192POPC   C4B59146  42.549  37.837   7.355
10193POPC   NC359147  35.322  29.964   5.555
10193POPC   PO459148  35.323  29.936   5.855
10193POPC   GL159149  35.308  29.899   6.155
10193POPC   GL259150  35.363  29.791   6.155
10193POPC   C1A59151  35.348  29.956   6.455
10193POPC   D2A59152  35.383  29.940   6.755
10193POPC   C3A59153  35.397  29.876   7.055
10193POPC   C4A59154  35.343  29.938   7.355
10193POPC   C1B59155  35.423  29.632   6.455
10193POPC   C2B59156  35.382  29.652   6.755
10193POPC   C3B59157  35.385  29.631   7.055
10193POPC   C4B59158  35.411  29.680   7.355
10194POPC   NC359159  21.371   1.990   5.555
10194POPC   PO459160  21.398   1.972   5.855
10194POPC   GL159161  21.400   1.985   6.155
10194POPC   GL259162  21.437   1.909   6.155
10194POPC   C1A59163  21.366   2.001   6.455
10194POPC   D2A59164  21.342   2.011   6.755
10194POPC   C3A59165  21.427   2.020   7.055
10194POPC   C4A59166  21.381   1.953   7.355
10194POPC   C1B59167  21.499   1.749   6.455
10194POPC   C2B59168  21.507   1.778   6.755
10194POPC   C3B59169  21.464   1.738   7.055
10194POPC   C4B59170  21.484   1.729   7.355
10195POPC   NC359171  26.815  16.740   5.555
10195POPC   PO459172  26.787  16.701   5.855
10195POPC   GL159173  26.849  16.710   6.155
10195POPC   GL259174  26.923  16.717   6.155
10195POPC   C1A59175  26.834  16.728   6.455
10195POPC   D2A59176  26.833  16.729   6.755
10195POPC   C3A59177  26.802  16.693   7.055
10195POPC   C4A59178  26.780  16.707   7.355
10195POPC   C1B59179  27.116  16.714   6.455
10195POPC   C2B59180  27.020  16.674   6.755
10195POPC   C3B59181  27.023  16.689   7.055
10195POPC   C4B59182  27.099  16.703   7.355
10196POPC   NC359183   5.129  42.375   5.555
10196POPC   PO459184   5.104  42.351   5.855
10196POPC   GL159185   5.070  42.382   6.155
10196POPC   GL259186   5.165  42.448   6.155
10196POPC   C1A59187   5.111  42.376   6.455
10196POPC   D2A59188   5.057  42.368   6.755
10196POPC   C3A59189   5.117  42.352   7.055
10196POPC   C4A59190   5.122  42.326   7.355
10196POPC   C1B59191   5.328  42.504   6.455
10196POPC   C2B59192   5.304  42.435   6.755
10196POPC   C3B59193   5.339  42.459   7.055
10196POPC   C4B59194   5.335  42.460   7.355
10197POPC   NC359195  43.153   1.184   5.555
10197POPC   PO459196  43.135   1.220   5.855
10197POPC   GL159197  43.144   1.198   6.155
10197POPC   GL259198  43.199   1.198   6.155
10197POPC   C1A59199  43.097   1.244   6.455
10197POPC   D2A59200  43.076   1.182   6.755
10197POPC   C3A59201  43.140   1.252   7.055
10197POPC   C4A59202  43.077   1.200   7.355
10197POPC   C1B59203  43.364   1.211   6.455
10197POPC   C2B59204  43.316   1.145   6.755
10197POPC   C3B59205  43.359   1.120   7.055
10197POPC   C4B59206  43.314   1.166   7.355
10198POPC   NC359207   8.973  40.821   5.555
10198POPC   PO459208   9.018  40.817   5.855
10198POPC   GL159209   8.952  40.775   6.155
10198POPC   GL259210   9.045  40.845   6.155
10198POPC   C1A59211   8.960  40.813   6.455
10198POPC   D2A59212   9.008  40.792   6.755
10198POPC   C3A59213   8.941  40.831   7.055
10198POPC   C4A59214   9.003  40.794   7.355
10198POPC   C1B59215   9.150  40.910   6.455
10198POPC   C2B59216   9.171  40.955   6.755
10198POPC   C3B59217   9.138  40.883   7.055
10198POPC   C4B59218   9.232  40.930   7.355
10199POPC   NC359219  21.339  43.878   5.555
10199POPC   PO459220  21.347  43.900   5.855
10199POPC   GL159221  21.378  43.850   6.155
10199POPC   GL259222  21.270  43.852   6.155
10199POPC   C1A59223  21.395  43.922   6.455
10199POPC   D2A59224  21.352  43.900   6.755
10199POPC   C3A59225  21.421  43.884   7.055
10199POPC   C4A59226  21.430  43.888   7.355
10199POPC   C1B59227  21.096  43.868   6.455
10199POPC   C2B59228  21.103  43.863   6.755
10199POPC   C3B59229  21.111  43.860   7.055
10199POPC   C4B59230  21.160  43.869   7.355
10200POPC   NC359231  22.189   5.831   5.555
10200POPC   PO459232  22.194   5.851   5.855
10200POPC   GL159233  22.203   5.879   6.155
10200POPC   GL259234  22.259   5.927   6.155
10200POPC   C1A59235  22.170   5.907   6.455
10200POPC   D2A59236  22.191   5.842   6.755
10200POPC   C3A59237  22.146   5.860   7.055
10200POPC   C4A59238  22.146   5.824   7.355
10200POPC   C1B59239  22.358   6.050   6.455
10200POPC   C2B59240  22.354   5.983   6.755
10200POPC   C3B59241  22.330   6.008   7.055
10200POPC   C4B59242  22.341   5.979   7.355
10201POPC   NC359243  12.822  35.331   5.555
10201POPC   PO459244  12.900  35.341   5.855
10201POPC   GL159245  12.837  35.332   6.155
10201POPC   GL259246  12.716  35.448   6.155
10201POPC   C1A59247  12.817  35.390   6.455
10201POPC   D2A59248  12.879  35.366   6.755
10201POPC   C3A59249  12.828  35.396   7.055
10201POPC   C4A59250  12.881  35.366   7.355
10201POPC   C1B59251  12.660  35.562   6.455
10201POPC   C2B59252  12.692  35.483   6.755
10201POPC   C3B59253  12.635  35.554   7.055
10201POPC   C4B59254  12.686  35.481   7.355
10202POPC   NC359255  24.482   6.658   5.555
10202POPC   PO459256  24.516   6.662   5.855
10202POPC   GL159257  24.495   6.693   6.155
10202POPC   GL259258  24.562   6.538   6.155
10202POPC   C1A59259  24.476   6.603   6.455
10202POPC   D2A59260  24.511   6.691   6.755
10202POPC   C3A59261  24.539   6.614   7.055
10202POPC   C4A59262  24.449   6.629   7.355
10202POPC   C1B59263  24.574   6.392   6.455
10202POPC   C2B59264  24.590   6.359   6.755
10202POPC   C3B59265  24.565   6.447   7.055
10202POPC   C4B59266  24.533   6.386   7.355
10203POPC   NC359267  35.345   5.087   5.555
10203POPC   PO459268  35.320   5.139   5.855
10203POPC   GL159269  35.334   5.064   6.155
10203POPC   GL259270  35.460   5.097   6.155
10203POPC   C1A59271  35.381   5.069   6.455
10203POPC   D2A59272  35.339   5.116   6.755
10203POPC   C3A59273  35.393   5.123   7.055
10203POPC   C4A59274  35.394   5.095   7.355
10203POPC   C1B59275  35.614   5.201   6.455
10203POPC   C2B59276  35.624   5.156   6.755
10203POPC   C3B59277  35.591   5.135   7.055
10203POPC   C4B59278  35.596   5.188   7.355
10204POPC   NC359279  42.320  13.602   5.555
10204POPC   PO459280  42.289  13.643   5.855
10204POPC   GL159281  42.327  13.609   6.155
10204POPC   GL259282  42.364  13.702   6.155
10204POPC   C1A59283  42.375  13.619   6.455
10204POPC   D2A59284  42.343  13.675   6.755
10204POPC   C3A59285  42.380  13.651   7.055
10204POPC   C4A59286  42.342  13.591   7.355
10204POPC   C1B59287  42.486  13.794   6.455
10204POPC   C2B59288  42.434  13.821   6.755
10204POPC   C3B59289  42.438  13.814   7.055
10204POPC   C4B59290  42.490  13.867   7.355
10205POPC   NC359291   3.590  11.311   5.555
10205POPC   PO459292   3.571  11.307   5.855
10205POPC   GL159293   3.547  11.309   6.155
10205POPC   GL259294   3.632  11.155   6.155
10205POPC   C1A59295   3.527  11.329   6.455
10205POPC   D2A59296   3.559  11.289   6.755
10205POPC   C3A59297   3.576  11.297   7.055
10205POPC   C4A59298   3.501  11.323   7.355
10205POPC   C1B59299   3.711  11.104   6.455
10205POPC   C2B59300   3.678  11.076   6.755
10205POPC   C3B59301   3.669  11.103   7.055
10205POPC   C4B59302   3.639  11.092   7.355
10206POPC   NC359303  19.053  32.293   5.555
10206POPC   PO459304  19.085  32.296   5.855
10206POPC   GL159305  19.040  32.275   6.155
10206POPC   GL259306  19.204  32.322   6.155
10206POPC   C1A59307  19.044  32.253   6.455
10206POPC   D2A59308  19.093  32.201   6.755
10206POPC   C3A59309  19.084  32.213   7.055
10206POPC   C4A59310  19.053  32.213   7.355
10206POPC   C1B59311  19.334  32.392   6.455
10206POPC   C2B59312  19.246  32.345   6.755
10206POPC   C3B59313  19.241  32.400   7.055
10206POPC   C4B59314  19.235  32.332   7.355
10207POPC   NC359315  18.308  20.591   5.555
10207POPC   PO459316  18.281  20.592   5.855
10207POPC   GL159317  18.318  20.609   6.155
10207POPC   GL259318  18.209  20.490   6.155
10207POPC   C1A59319  18.286  20.584   6.455
10207POPC   D2A59320  18.235  20.609   6.755
10207POPC   C3A59321  18.303  20.654   7.055
10207POPC   C4A59322  18.311  20.589   7.355
10207POPC   C1B59323  18.192  20.352   6.455
10207POPC   C2B59324  18.204  20.418   6.755
10207POPC   C3B59325  18.144  20.443   7.055
10207POPC   C4B59326  18.155  20.442   7.355
10208POPC   NC359327  40.037  22.987   5.555
10208POPC   PO459328  40.016  22.889   5.855
10208POPC   GL159329  39.957  22.931   6.155
10208POPC   GL259330  40.099  22.794   6.155
10208POPC   C1A59331  39.963  22.899   6.455
10208POPC   D2A59332  40.003  22.986   6.755
10208POPC   C3A59333  40.056  22.906   7.055
10208POPC   C4A59334  40.026  22.943   7.355
10208POPC   C1B59335  40.190  22.731   6.455
10208POPC   C2B59336  40.097  22.730   6.755
10208POPC   C3B59337  40.182  22.724   7.055
10208POPC   C4B59338  40.181  22.729   7.355
10209POPC   NC359339  43.930  30.693   5.555
10209POPC   PO459340  43.874  30.671   5.855
10209POPC   GL159341  43.904  30.680   6.155
10209POPC   GL259342  43.758  30.623   6.155
10209POPC   C1A59343  43.858  30.704   6.455
10209POPC   D2A59344  43.880  30.724   6.755
10209POPC   C3A59345  43.898  30.700   7.055
10209POPC   C4A59346  43.920  30.740   7.355
10209POPC   C1B59347  43.690  30.573   6.455
10209POPC   C2B59348  43.658  30.604   6.755
10209POPC   C3B59349  43.631  30.644   7.055
10209POPC   C4B59350  43.700  30.613   7.355
10210POPC   NC359351  16.732   2.769   5.555
10210POPC   PO459352  16.757   2.773   5.855
10210POPC   GL159353  16.751   2.731   6.155
10210POPC   GL259354  16.802   2.804   6.155
10210POPC   C1A59355  16.774   2.774   6.455
10210POPC   D2A59356  16.780   2.751   6.755
10210POPC   C3A59357  16.774   2.736   7.055
10210POPC   C4A59358  16.712   2.761   7.355
10210POPC   C1B59359  16.930   2.886   6.455
10210POPC   C2B59360  16.895   2.877   6.755
10210POPC   C3B59361  16.974   2.947   7.055
10210POPC   C4B59362  16.937   2.939   7.355
10211POPC   NC359363  14.356  26.856   5.555
10211POPC   PO459364  14.446  26.847   5.855
10211POPC   GL159365  14.376  26.802   6.155
10211POPC   GL259366  14.349  26.985   6.155
10211POPC   C1A59367  14.363  26.805   6.455
10211POPC   D2A59368  14.441  26.780   6.755
10211POPC   C3A59369  14.445  26.857   7.055
10211POPC   C4A59370  14.379  26.838   7.355
10211POPC   C1B59371  14.296  27.008   6.455
10211POPC   C2B59372  14.363  27.103   6.755
10211POPC   C3B59373  14.324  27.066   7.055
10211POPC   C4B59374  14.287  27.053   7.355
10212POPC   NC359375   9.727  22.166   5.555
10212POPC   PO459376   9.761  22.191   5.855
10212POPC   GL159377   9.782  22.191   6.155
10212POPC   GL259378   9.802  22.046   6.155
10212POPC   C1A59379   9.701  22.209   6.455
10212POPC   D2A59380   9.771  22.201   6.755
10212POPC   C3A59381   9.754  22.148   7.055
10212POPC   C4A59382   9.748  22.212   7.355
10212POPC   C1B59383   9.824  21.958   6.455
10212POPC   C2B59384   9.859  21.940   6.755
10212POPC   C3B59385   9.843  21.954   7.055
10212POPC   C4B59386   9.801  21.914   7.355
10213POPC   NC359387  19.833  42.340   5.555
10213POPC   PO459388  19.848  42.317   5.855
10213POPC   GL159389  19.788  42.327   6.155
10213POPC   GL259390  19.881  42.208   6.155
10213POPC   C1A59391  19.796  42.286   6.455
10213POPC   D2A59392  19.821  42.299   6.755
10213POPC   C3A59393  19.805  42.382   7.055
10213POPC   C4A59394  19.849  42.360   7.355
10213POPC   C1B59395  19.920  42.163   6.455
10213POPC   C2B59396  19.980  42.138   6.755
10213POPC   C3B59397  19.936  42.082   7.055
10213POPC   C4B59398  19.976  42.081   7.355
10214POPC   NC359399  17.478   5.110   5.555
10214POPC   PO459400  17.473   5.087   5.855
10214POPC   GL159401  17.473   5.069   6.155
10214POPC   GL259402  17.479   4.993   6.155
10214POPC   C1A59403  17.519   5.053   6.455
10214POPC   D2A59404  17.514   5.125   6.755
10214POPC   C3A59405  17.468   5.117   7.055
10214POPC   C4A59406  17.461   5.126   7.355
10214POPC   C1B59407  17.387   4.869   6.455
10214POPC   C2B59408  17.404   4.869   6.755
10214POPC   C3B59409  17.375   4.882   7.055
10214POPC   C4B59410  17.386   4.819   7.355
10215POPC   NC359411  44.663  14.428   5.555
10215POPC   PO459412  44.651  14.400   5.855
10215POPC   GL159413  44.707  14.363   6.155
10215POPC   GL259414  44.696  14.324   6.155
10215POPC   C1A59415  44.633  14.448   6.455
10215POPC   D2A59416  44.703  14.383   6.755
10215POPC   C3A59417  44.643  14.381   7.055
10215POPC   C4A59418  44.710  14.377   7.355
10215POPC   C1B59419  44.729  14.193   6.455
10215POPC   C2B59420  44.723  14.139   6.755
10215POPC   C3B59421  44.697  14.158   7.055
10215POPC   C4B59422  44.752  14.170   7.355
10216POPC   NC359423  20.611  24.487   5.555
10216POPC   PO459424  20.588  24.500   5.855
10216POPC   GL159425  20.632  24.491   6.155
10216POPC   GL259426  20.687  24.419   6.155
10216POPC   C1A59427  20.643  24.445   6.455
10216POPC   D2A59428  20.562  24.485   6.755
10216POPC   C3A59429  20.592  24.481   7.055
10216POPC   C4A59430  20.636  24.487   7.355
10216POPC   C1B59431  20.718  24.335   6.455
10216POPC   C2B59432  20.720  24.326   6.755
10216POPC   C3B59433  20.764  24.262   7.055
10216POPC   C4B59434  20.742  24.284   7.355
10217POPC   NC359435  11.310   3.506   5.555
10217POPC   PO459436  11.338   3.494   5.855
10217POPC   GL159437  11.259   3.536   6.155
10217POPC   GL259438  11.425   3.566   6.155
10217POPC   C1A59439  11.308   3.524   6.455
10217POPC   D2A59440  11.348   3.537   6.755
10217POPC   C3A59441  11.300   3.520   7.055
10217POPC   C4A59442  11.300   3.514   7.355
10217POPC   C1B59443  11.562   3.509   6.455
10217POPC   C2B59444  11.526   3.480   6.755
10217POPC   C3B59445  11.533   3.520   7.055
10217POPC   C4B59446  11.572   3.469   7.355
10218POPC   NC359447  15.964  15.186   5.555
10218POPC   PO459448  15.994  15.226   5.855
10218POPC   GL159449  15.942  15.221   6.155
10218POPC   GL259450  15.974  15.054   6.155
10218POPC   C1A59451  16.001  15.159   6.455
10218POPC   D2A59452  15.952  15.174   6.755
10218POPC   C3A59453  15.981  15.179   7.055
10218POPC   C4A59454  15.953  15.178   7.355
10218POPC   C1B59455  15.859  14.958   6.455
10218POPC   C2B59456  15.848  14.931   6.755
10218POPC   C3B59457  15.912  14.944   7.055
10218POPC   C4B59458  15.851  14.979   7.355
10219POPC   NC359459  31.468  32.991   5.555
10219POPC   PO459460  31.435  32.984   5.855
10219POPC   GL159461  31.482  33.055   6.155
10219POPC   GL259462  31.568  32.933   6.155
10219POPC   C1A59463  31.475  33.055   6.455
10219POPC   D2A59464  31.446  33.039   6.755
10219POPC   C3A59465  31.478  33.004   7.055
10219POPC   C4A59466  31.500  33.063   7.355
10219POPC   C1B59467  31.678  32.828   6.455
10219POPC   C2B59468  31.632  32.902   6.755
10219POPC   C3B59469  31.623  32.896   7.055
10219POPC   C4B59470  31.679  32.906   7.355
10220POPC   NC359471  24.506  28.388   5.555
10220POPC   PO459472  24.537  28.390   5.855
10220POPC   GL159473  24.467  28.390   6.155
10220POPC   GL259474  24.340  28.414   6.155
10220POPC   C1A59475  24.515  28.377   6.455
10220POPC   D2A59476  24.489  28.351   6.755
10220POPC   C3A59477  24.468  28.405   7.055
10220POPC   C4A59478  24.449  28.418   7.355
10220POPC   C1B59479  24.283  28.519   6.455
10220POPC   C2B59480  24.239  28.470   6.755
10220POPC   C3B59481  24.253  28.467   7.055
10220POPC   C4B59482  24.250  28.511   7.355
10221POPC   NC359483  32.233  36.081   5.555
10221POPC   PO459484  32.215  36.102   5.855
10221POPC   GL159485  32.213  36.098   6.155
10221POPC   GL259486  32.120  36.033   6.155
10221POPC   C1A59487  32.253  36.152   6.455
10221POPC   D2A59488  32.282  36.107   6.755
10221POPC   C3A59489  32.249  36.171   7.055
10221POPC   C4A59490  32.256  36.104   7.355
10221POPC   C1B59491  32.081  35.958   6.455
10221POPC   C2B59492  32.070  35.976   6.755
10221POPC   C3B59493  32.065  35.919   7.055
10221POPC   C4B59494  32.048  36.007   7.355
10222POPC   NC359495  32.249  29.140   5.555
10222POPC   PO459496  32.256  29.117   5.855
10222POPC   GL159497  32.200  29.191   6.155
10222POPC   GL259498  32.183  29.034   6.155
10222POPC   C1A59499  32.209  29.119   6.455
10222POPC   D2A59500  32.211  29.150   6.755
10222POPC   C3A59501  32.226  29.131   7.055
10222POPC   C4A59502  32.205  29.180   7.355
10222POPC   C1B59503  32.141  28.944   6.455
10222POPC   C2B59504  32.179  28.920   6.755
10222POPC   C3B59505  32.167  28.921   7.055
10222POPC   C4B59506  32.121  28.883   7.355
10223POPC   NC359507  44.688  36.911   5.555
10223POPC   PO459508  44.679  36.864   5.855
10223POPC   GL159509  44.651  36.889   6.155
10223POPC   GL259510  44.752  37.013   6.155
10223POPC   C1A59511  44.702  36.925   6.455
10223POPC   D2A59512  44.640  36.855   6.755
10223POPC   C3A59513  44.632  36.888   7.055
10223POPC   C4A59514  44.618  36.949   7.355
10223POPC   C1B59515  44.814  37.124   6.455
10223POPC   C2B59516  44.816  37.124   6.755
10223POPC   C3B59517  44.782  37.090   7.055
10223POPC   C4B59518  44.764  37.081   7.355
10224POPC   NC359519  12.099  43.916   5.555
10224POPC   PO459520  12.100  43.855   5.855
10224POPC   GL159521  12.026  43.889   6.155
10224POPC   GL259522  12.088  43.947   6.155
10224POPC   C1A59523  12.123  43.873   6.455
10224POPC   D2A59524  12.041  43.843   6.755
10224POPC   C3A59525  12.052  43.893   7.055
10224POPC   C4A59526  12.067  43.848   7.355
10224POPC   C1B59527  12.224  44.153   6.455
10224POPC   C2B59528  12.206  44.104   6.755
10224POPC   C3B59529  12.176  44.093   7.055
10224POPC   C4B59530  12.233  44.133   7.355
10225POPC   NC359531  16.696  41.509   5.555
10225POPC   PO459532  16.692  41.530   5.855
10225POPC   GL159533  16.781  41.550   6.155
10225POPC   GL259534  16.800  41.434   6.155
10225POPC   C1A59535  16.749  41.521   6.455
10225POPC   D2A59536  16.735  41.516   6.755
10225POPC   C3A59537  16.750  41.571   7.055
10225POPC   C4A59538  16.762  41.536   7.355
10225POPC   C1B59539  16.794  41.374   6.455
10225POPC   C2B59540  16.837  41.320   6.755
10225POPC   C3B59541  16.850  41.360   7.055
10225POPC   C4B59542  16.893  41.340   7.355
10226POPC   NC359543  26.783  29.897   5.555
10226POPC   PO459544  26.833  29.944   5.855
10226POPC   GL159545  26.806  29.888   6.155
10226POPC   GL259546  26.824  29.770   6.155
10226POPC   C1A59547  26.849  29.890   6.455
10226POPC   D2A59548  26.852  29.937   6.755
10226POPC   C3A59549  26.802  29.941   7.055
10226POPC   C4A59550  26.769  29.919   7.355
10226POPC   C1B59551  26.850  29.649   6.455
10226POPC   C2B59552  26.919  29.651   6.755
10226POPC   C3B59553  26.887  29.680   7.055
10226POPC   C4B59554  26.896  29.687   7.355
10227POPC   NC359555   1.957  12.893   5.555
10227POPC   PO459556   1.985  12.833   5.855
10227POPC   GL159557   1.994  12.871   6.155
10227POPC   GL259558   2.038  12.685   6.155
10227POPC   C1A59559   2.000  12.878   6.455
10227POPC   D2A59560   2.000  12.854   6.755
10227POPC   C3A59561   1.943  12.843   7.055
10227POPC   C4A59562   1.982  12.853   7.355
10227POPC   C1B59563   1.998  12.586   6.455
10227POPC   C2B59564   2.005  12.570   6.755
10227POPC   C3B59565   2.038  12.586   7.055
10227POPC   C4B59566   2.046  12.611   7.355
10228POPC   NC359567  22.122  39.226   5.555
10228POPC   PO459568  22.141  39.224   5.855
10228POPC   GL159569  22.129  39.278   6.155
10228POPC   GL259570  22.311  39.248   6.155
10228POPC   C1A59571  22.170  39.244   6.455
10228POPC   D2A59572  22.192  39.215   6.755
10228POPC   C3A59573  22.127  39.206   7.055
10228POPC   C4A59574  22.161  39.235   7.355
10228POPC   C1B59575  22.382  39.265   6.455
10228POPC   C2B59576  22.458  39.277   6.755
10228POPC   C3B59577  22.394  39.245   7.055
10228POPC   C4B59578  22.391  39.271   7.355
10229POPC   NC359579  21.412  22.897   5.555
10229POPC   PO459580  21.424  22.935   5.855
10229POPC   GL159581  21.367  22.895   6.155
10229POPC   GL259582  21.395  22.851   6.155
10229POPC   C1A59583  21.395  22.895   6.455
10229POPC   D2A59584  21.411  22.919   6.755
10229POPC   C3A59585  21.373  22.890   7.055
10229POPC   C4A59586  21.398  22.929   7.355
10229POPC   C1B59587  21.451  22.720   6.455
10229POPC   C2B59588  21.527  22.714   6.755
10229POPC   C3B59589  21.467  22.691   7.055
10229POPC   C4B59590  21.503  22.712   7.355
10230POPC   NC359591  43.857  10.500   5.555
10230POPC   PO459592  43.906  10.560   5.855
10230POPC   GL159593  43.866  10.485   6.155
10230POPC   GL259594  43.827  10.437   6.155
10230POPC   C1A59595  43.854  10.489   6.455
10230POPC   D2A59596  43.912  10.564   6.755
10230POPC   C3A59597  43.936  10.480   7.055
10230POPC   C4A59598  43.853  10.531   7.355
10230POPC   C1B59599  43.684  10.368   6.455
10230POPC   C2B59600  43.674  10.366   6.755
10230POPC   C3B59601  43.677  10.320   7.055
10230POPC   C4B59602  43.653  10.408   7.355
10231POPC   NC359603  16.744  40.045   5.555
10231POPC   PO459604  16.726  40.007   5.855
10231POPC   GL159605  16.757  40.021   6.155
10231POPC   GL259606  16.794  39.876   6.155
10231POPC   C1A59607  16.717  40.050   6.455
10231POPC   D2A59608  16.731  40.044   6.755
10231POPC   C3A59609  16.708  40.032   7.055
10231POPC   C4A59610  16.766  40.034   7.355
10231POPC   C1B59611  16.826  39.728   6.455
10231POPC   C2B59612  16.859  39.789   6.755
10231POPC   C3B59613  16.858  39.770   7.055
10231POPC   C4B59614  16.839  39.736   7.355
10232POPC   NC359615  20.569  26.811   5.555
10232POPC   PO459616  20.572  26.817   5.855
10232POPC   GL159617  20.652  26.864   6.155
10232POPC   GL259618  20.662  26.951   6.155
10232POPC   C1A59619  20.598  26.830   6.455
10232POPC   D2A59620  20.644  26.850   6.755
10232POPC   C3A59621  20.607  26.843   7.055
10232POPC   C4A59622  20.599  26.809   7.355
10232POPC   C1B59623  20.631  27.060   6.455
10232POPC   C2B59624  20.692  27.024   6.755
10232POPC   C3B59625  20.638  27.045   7.055
10232POPC   C4B59626  20.640  27.034   7.355
10233POPC   NC359627  27.575  31.447   5.555
10233POPC   PO459628  27.576  31.435   5.855
10233POPC   GL159629  27.557  31.519   6.155
10233POPC   GL259630  27.690  31.547   6.155
10233POPC   C1A59631  27.550  31.507   6.455
10233POPC   D2A59632  27.620  31.511   6.755
10233POPC   C3A59633  27.625  31.509   7.055
10233POPC   C4A59634  27.636  31.438   7.355
10233POPC   C1B59635  27.749  31.588   6.455
10233POPC   C2B59636  27.813  31.646   6.755
10233POPC   C3B59637  27.757  31.586   7.055
10233POPC   C4B59638  27.829  31.645   7.355
10234POPC   NC359639  43.883   7.453   5.555
10234POPC   PO459640  43.929   7.395   5.855
10234POPC   GL159641  43.913   7.421   6.155
10234POPC   GL259642  43.720   7.376   6.155
10234POPC   C1A59643  43.854   7.389   6.455
10234POPC   D2A59644  43.854   7.396   6.755
10234POPC   C3A59645  43.925   7.437   7.055
10234POPC   C4A59646  43.870   7.400   7.355
10234POPC   C1B59647  43.626   7.318   6.455
10234POPC   C2B59648  43.615   7.379   6.755
10234POPC   C3B59649  43.595   7.328   7.055
10234POPC   C4B59650  43.609   7.382   7.355
10235POPC   NC359651   7.427  33.835   5.555
10235POPC   PO459652   7.373  33.754   5.855
10235POPC   GL159653   7.433  33.777   6.155
10235POPC   GL259654   7.504  33.676   6.155
10235POPC   C1A59655   7.410  33.789   6.455
10235POPC   D2A59656   7.397  33.845   6.755
10235POPC   C3A59657   7.426  33.839   7.055
10235POPC   C4A59658   7.378  33.760   7.355
10235POPC   C1B59659   7.539  33.622   6.455
10235POPC   C2B59660   7.588  33.637   6.755
10235POPC   C3B59661   7.523  33.548   7.055
10235POPC   C4B59662   7.580  33.605   7.355
10236POPC   NC359663  40.790  32.981   5.555
10236POPC   PO459664  40.796  33.013   5.855
10236POPC   GL159665  40.780  33.042   6.155
10236POPC   GL259666  40.867  32.903   6.155
10236POPC   C1A59667  40.821  33.060   6.455
10236POPC   D2A59668  40.778  33.018   6.755
10236POPC   C3A59669  40.739  33.049   7.055
10236POPC   C4A59670  40.741  32.994   7.355
10236POPC   C1B59671  40.866  32.795   6.455
10236POPC   C2B59672  40.873  32.777   6.755
10236POPC   C3B59673  40.866  32.751   7.055
10236POPC   C4B59674  40.854  32.750   7.355
10237POPC   NC359675  12.102   6.635   5.555
10237POPC   PO459676  12.040   6.660   5.855
10237POPC   GL159677  12.062   6.693   6.155
10237POPC   GL259678  12.235   6.581   6.155
10237POPC   C1A59679  12.064   6.639   6.455
10237POPC   D2A59680  12.090   6.631   6.755
10237POPC   C3A59681  12.076   6.605   7.055
10237POPC   C4A59682  12.035   6.606   7.355
10237POPC   C1B59683  12.289   6.556   6.455
10237POPC   C2B59684  12.367   6.553   6.755
10237POPC   C3B59685  12.280   6.602   7.055
10237POPC   C4B59686  12.353   6.539   7.355
10238POPC   NC359687  36.169  44.689   5.555
10238POPC   PO459688  36.085  44.706   5.855
10238POPC   GL159689  36.119  44.669   6.155
10238POPC   GL259690  36.016  44.649   6.155
10238POPC   C1A59691  36.105  44.682   6.455
10238POPC   D2A59692  36.163  44.614   6.755
10238POPC   C3A59693  36.129  44.674   7.055
10238POPC   C4A59694  36.142  44.639   7.355
10238POPC   C1B59695  35.890  44.675   6.455
10238POPC   C2B59696  35.868  44.685   6.755
10238POPC   C3B59697  35.921  44.611   7.055
10238POPC   C4B59698  35.840  44.687   7.355
10239POPC   NC359699  38.469  28.376   5.555
10239POPC   PO459700  38.428  28.330   5.855
10239POPC   GL159701  38.409  28.331   6.155
10239POPC   GL259702  38.333  28.485   6.155
10239POPC   C1A59703  38.416  28.393   6.455
10239POPC   D2A59704  38.478  28.360   6.755
10239POPC   C3A59705  38.423  28.330   7.055
10239POPC   C4A59706  38.433  28.360   7.355
10239POPC   C1B59707  38.340  28.551   6.455
10239POPC   C2B59708  38.257  28.549   6.755
10239POPC   C3B59709  38.265  28.548   7.055
10239POPC   C4B59710  38.304  28.542   7.355
10240POPC   NC359711  16.737  13.659   5.555
10240POPC   PO459712  16.716  13.588   5.855
10240POPC   GL159713  16.740  13.620   6.155
10240POPC   GL259714  16.786  13.677   6.155
10240POPC   C1A59715  16.716  13.625   6.455
10240POPC   D2A59716  16.744  13.605   6.755
10240POPC   C3A59717  16.777  13.677   7.055
10240POPC   C4A59718  16.762  13.594   7.355
10240POPC   C1B59719  16.983  13.772   6.455
10240POPC   C2B59720  16.971  13.788   6.755
10240POPC   C3B59721  16.903  13.814   7.055
10240POPC   C4B59722  16.978  13.785   7.355
10241POPC   NC359723  15.213  41.515   5.555
10241POPC   PO459724  15.175  41.532   5.855
10241POPC   GL159725  15.189  41.512   6.155
10241POPC   GL259726  15.052  41.527   6.155
10241POPC   C1A59727  15.199  41.547   6.455
10241POPC   D2A59728  15.222  41.541   6.755
10241POPC   C3A59729  15.142  41.598   7.055
10241POPC   C4A59730  15.200  41.594   7.355
10241POPC   C1B59731  14.933  41.580   6.455
10241POPC   C2B59732  14.935  41.505   6.755
10241POPC   C3B59733  14.944  41.522   7.055
10241POPC   C4B59734  14.889  41.543   7.355
10242POPC   NC359735  32.230  36.880   5.555
10242POPC   PO459736  32.251  36.925   5.855
10242POPC   GL159737  32.204  36.952   6.155
10242POPC   GL259738  32.342  36.862   6.155
10242POPC   C1A59739  32.281  36.865   6.455
10242POPC   D2A59740  32.238  36.863   6.755
10242POPC   C3A59741  32.207  36.932   7.055
10242POPC   C4A59742  32.212  36.928   7.355
10242POPC   C1B59743  32.466  36.742   6.455
10242POPC   C2B59744  32.451  36.698   6.755
10242POPC   C3B59745  32.379  36.704   7.055
10242POPC   C4B59746  32.427  36.695   7.355
10243POPC   NC359747  17.515   5.915   5.555
10243POPC   PO459748  17.506   5.860   5.855
10243POPC   GL159749  17.457   5.846   6.155
10243POPC   GL259750  17.645   5.944   6.155
10243POPC   C1A59751  17.515   5.830   6.455
10243POPC   D2A59752  17.485   5.819   6.755
10243POPC   C3A59753  17.461   5.898   7.055
10243POPC   C4A59754  17.526   5.918   7.355
10243POPC   C1B59755  17.703   5.949   6.455
10243POPC   C2B59756  17.744   6.006   6.755
10243POPC   C3B59757  17.744   5.974   7.055
10243POPC   C4B59758  17.751   5.984   7.355
10244POPC   NC359759  43.150  30.692   5.555
10244POPC   PO459760  43.072  30.694   5.855
10244POPC   GL159761  43.063  30.682   6.155
10244POPC   GL259762  43.028  30.774   6.155
10244POPC   C1A59763  43.138  30.721   6.455
10244POPC   D2A59764  43.098  30.655   6.755
10244POPC   C3A59765  43.158  30.719   7.055
10244POPC   C4A59766  43.122  30.704   7.355
10244POPC   C1B59767  42.994  30.962   6.455
10244POPC   C2B59768  42.970  30.890   6.755
10244POPC   C3B59769  43.053  30.910   7.055
10244POPC   C4B59770  42.973  30.951   7.355
10245POPC   NC359771  15.923  20.598   5.555
10245POPC   PO459772  16.003  20.656   5.855
10245POPC   GL159773  15.977  20.653   6.155
10245POPC   GL259774  16.078  20.615   6.155
10245POPC   C1A59775  15.984  20.594   6.455
10245POPC   D2A59776  15.948  20.612   6.755
10245POPC   C3A59777  15.924  20.617   7.055
10245POPC   C4A59778  15.944  20.616   7.355
10245POPC   C1B59779  16.248  20.618   6.455
10245POPC   C2B59780  16.192  20.636   6.755
10245POPC   C3B59781  16.158  20.612   7.055
10245POPC   C4B59782  16.178  20.681   7.355
10246POPC   NC359783  39.984  36.111   5.555
10246POPC   PO459784  40.020  36.095   5.855
10246POPC   GL159785  39.957  36.112   6.155
10246POPC   GL259786  40.019  36.221   6.155
10246POPC   C1A59787  39.971  36.088   6.455
10246POPC   D2A59788  39.999  36.122   6.755
10246POPC   C3A59789  39.989  36.106   7.055
10246POPC   C4A59790  40.004  36.155   7.355
10246POPC   C1B59791  39.998  36.340   6.455
10246POPC   C2B59792  39.962  36.410   6.755
10246POPC   C3B59793  39.959  36.405   7.055
10246POPC   C4B59794  39.941  36.354   7.355
10247POPC   NC359795   7.458  33.069   5.555
10247POPC   PO459796   7.458  33.038   5.855
10247POPC   GL159797   7.468  33.063   6.155
10247POPC   GL259798   7.532  33.104   6.155
10247POPC   C1A59799   7.417  33.065   6.455
10247POPC   D2A59800   7.402  33.044   6.755
10247POPC   C3A59801   7.388  33.047   7.055
10247POPC   C4A59802   7.426  33.001   7.355
10247POPC   C1B59803   7.625  33.128   6.455
10247POPC   C2B59804   7.686  33.081   6.755
10247POPC   C3B59805   7.644  33.145   7.055
10247POPC   C4B59806   7.669  33.130   7.355
10248POPC   NC359807  42.347  21.336   5.555
10248POPC   PO459808  42.307  21.435   5.855
10248POPC   GL159809  42.379  21.377   6.155
10248POPC   GL259810  42.423  21.314   6.155
10248POPC   C1A59811  42.359  21.343   6.455
10248POPC   D2A59812  42.382  21.348   6.755
10248POPC   C3A59813  42.330  21.370   7.055
10248POPC   C4A59814  42.312  21.394   7.355
10248POPC   C1B59815  42.606  21.348   6.455
10248POPC   C2B59816  42.550  21.369   6.755
10248POPC   C3B59817  42.608  21.374   7.055
10248POPC   C4B59818  42.587  21.384   7.355
10249POPC   NC359819  10.540   3.565   5.555
10249POPC   PO459820  10.487   3.509   5.855
10249POPC   GL159821  10.547   3.584   6.155
10249POPC   GL259822  10.425   3.701   6.155
10249POPC   C1A59823  10.522   3.513   6.455
10249POPC   D2A59824  10.512   3.530   6.755
10249POPC   C3A59825  10.522   3.590   7.055
10249POPC   C4A59826  10.513   3.556   7.355
10249POPC   C1B59827  10.422   3.722   6.455
10249POPC   C2B59828  10.453   3.767   6.755
10249POPC   C3B59829  10.446   3.784   7.055
10249POPC   C4B59830  10.400   3.793   7.355
10250POPC   NC359831   0.479   6.597   5.555
10250POPC   PO459832   0.482   6.643   5.855
10250POPC   GL159833   0.483   6.619   6.155
10250POPC   GL259834   0.519   6.578   6.155
10250POPC   C1A59835   0.396   6.607   6.455
10250POPC   D2A59836   0.407   6.674   6.755
10250POPC   C3A59837   0.473   6.610   7.055
10250POPC   C4A59838   0.392   6.677   7.355
10250POPC   C1B59839   0.667   6.555   6.455
10250POPC   C2B59840   0.634   6.591   6.755
10250POPC   C3B59841   0.708   6.550   7.055
10250POPC   C4B59842   0.671   6.598   7.355
10251POPC   NC359843  41.543  36.946   5.555
10251POPC   PO459844  41.548  36.892   5.855
10251POPC   GL159845  41.511  36.905   6.155
10251POPC   GL259846  41.433  36.928   6.155
10251POPC   C1A59847  41.556  36.895   6.455
10251POPC   D2A59848  41.583  36.901   6.755
10251POPC   C3A59849  41.603  36.935   7.055
10251POPC   C4A59850  41.552  36.902   7.355
10251POPC   C1B59851  41.299  36.980   6.455
10251POPC   C2B59852  41.302  36.940   6.755
10251POPC   C3B59853  41.301  36.923   7.055
10251POPC   C4B59854  41.286  36.932   7.355
10252POPC   NC359855   1.952  14.418   5.555
10252POPC   PO459856   2.025  14.378   5.855
10252POPC   GL159857   1.970  14.409   6.155
10252POPC   GL259858   1.925  14.326   6.155
10252POPC   C1A59859   1.994  14.423   6.455
10252POPC   D2A59860   2.021  14.405   6.755
10252POPC   C3A59861   1.959  14.439   7.055
10252POPC   C4A59862   2.021  14.396   7.355
10252POPC   C1B59863   1.861  14.165   6.455
10252POPC   C2B59864   1.893  14.222   6.755
10252POPC   C3B59865   1.857  14.224   7.055
10252POPC   C4B59866   1.847  14.202   7.355
10253POPC   NC359867   6.624  11.283   5.555
10253POPC   PO459868   6.624  11.320   5.855
10253POPC   GL159869   6.614  11.285   6.155
10253POPC   GL259870   6.684  11.192   6.155
10253POPC   C1A59871   6.602  11.308   6.455
10253POPC   D2A59872   6.612  11.267   6.755
10253POPC   C3A59873   6.681  11.304   7.055
10253POPC   C4A59874   6.675  11.282   7.355
10253POPC   C1B59875   6.782  11.112   6.455
10253POPC   C2B59876   6.756  11.086   6.755
10253POPC   C3B59877   6.771  11.065   7.055
10253POPC   C4B59878   6.804  11.089   7.355
10254POPC   NC359879  40.784  25.271   5.555
10254POPC   PO459880  40.756  25.290   5.855
10254POPC   GL159881  40.814  25.253   6.155
10254POPC   GL259882  40.871  25.136   6.155
10254POPC   C1A59883  40.773  25.252   6.455
10254POPC   D2A59884  40.756  25.237   6.755
10254POPC   C3A59885  40.803  25.251   7.055
10254POPC   C4A59886  40.796  25.298   7.355
10254POPC   C1B59887  41.014  25.063   6.455
10254POPC   C2B59888  40.970  25.133   6.755
10254POPC   C3B59889  40.958  25.063   7.055
10254POPC   C4B59890  40.937  25.083   7.355
10255POPC   NC359891  44.671   7.437   5.555
10255POPC   PO459892  44.627   7.371   5.855
10255POPC   GL159893  44.708   7.380   6.155
10255POPC   GL259894  44.592   7.586   6.155
10255POPC   C1A59895  44.682   7.444   6.455
10255POPC   D2A59896  44.669   7.434   6.755
10255POPC   C3A59897  44.667   7.462   7.055
10255POPC   C4A59898  44.620   7.465   7.355
10255POPC   C1B59899  44.527   7.662   6.455
10255POPC   C2B59900  44.558   7.608   6.755
10255POPC   C3B59901  44.555   7.702   7.055
10255POPC   C4B59902  44.578   7.616   7.355
10256POPC   NC359903  21.431  19.858   5.555
10256POPC   PO459904  21.427  19.841   5.855
10256POPC   GL159905  21.403  19.816   6.155
10256POPC   GL259906  21.431  19.980   6.155
10256POPC   C1A59907  21.414  19.849   6.455
10256POPC   D2A59908  21.358  19.802   6.755
10256POPC   C3A59909  21.396  19.798   7.055
10256POPC   C4A59910  21.352  19.819   7.355
10256POPC   C1B59911  21.365  20.115   6.455
10256POPC   C2B59912  21.409  20.116   6.755
10256POPC   C3B59913  21.368  20.054   7.055
10256POPC   C4B59914  21.422  20.082   7.355
10257POPC   NC359915   2.015  31.471   5.555
10257POPC   PO459916   2.001  31.429   5.855
10257POPC   GL159917   1.995  31.471   6.155
10257POPC   GL259918   1.965  31.642   6.155
10257POPC   C1A59919   1.988  31.483   6.455
10257POPC   D2A59920   2.004  31.474   6.755
10257POPC   C3A59921   1.965  31.518   7.055
10257POPC   C4A59922   1.969  31.451   7.355
10257POPC   C1B59923   1.915  31.676   6.455
10257POPC   C2B59924   1.925  31.692   6.755
10257POPC   C3B59925   1.976  31.674   7.055
10257POPC   C4B59926   1.925  31.744   7.355
10258POPC   NC359927  17.484  29.178   5.555
10258POPC   PO459928  17.491  29.126   5.855
10258POPC   GL159929  17.554  29.183   6.155
10258POPC   GL259930  17.347  29.207   6.155
10258POPC   C1A59931  17.509  29.188   6.455
10258POPC   D2A59932  17.482  29.134   6.755
10258POPC   C3A59933  17.484  29.187   7.055
10258POPC   C4A59934  17.486  29.116   7.355
10258POPC   C1B59935  17.249  29.231   6.455
10258POPC   C2B59936  17.311  29.207   6.755
10258POPC   C3B59937  17.302  29.218   7.055
10258POPC   C4B59938  17.289  29.249   7.355
10259POPC   NC359939  33.808  21.340   5.555
10259POPC   PO459940  33.784  21.387   5.855
10259POPC   GL159941  33.836  21.434   6.155
10259POPC   GL259942  33.766  21.231   6.155
10259POPC   C1A59943  33.800  21.428   6.455
10259POPC   D2A59944  33.810  21.428   6.755
10259POPC   C3A59945  33.840  21.435   7.055
10259POPC   C4A59946  33.822  21.398   7.355
10259POPC   C1B59947  33.742  21.109   6.455
10259POPC   C2B59948  33.714  21.178   6.755
10259POPC   C3B59949  33.719  21.182   7.055
10259POPC   C4B59950  33.682  21.192   7.355
10260POPC   NC359951  36.941  12.859   5.555
10260POPC   PO459952  36.902  12.819   5.855
10260POPC   GL159953  36.902  12.881   6.155
10260POPC   GL259954  37.013  12.988   6.155
10260POPC   C1A59955  36.878  12.882   6.455
10260POPC   D2A59956  36.863  12.810   6.755
10260POPC   C3A59957  36.868  12.883   7.055
10260POPC   C4A59958  36.909  12.808   7.355
10260POPC   C1B59959  37.061  13.009   6.455
10260POPC   C2B59960  37.027  13.017   6.755
10260POPC   C3B59961  37.070  13.025   7.055
10260POPC   C4B59962  37.054  12.996   7.355
10261POPC   NC359963  34.611   1.201   5.555
10261POPC   PO459964  34.615   1.254   5.855
10261POPC   GL159965  34.618   1.176   6.155
10261POPC   GL259966  34.577   1.305   6.155
10261POPC   C1A59967  34.584   1.250   6.455
10261POPC   D2A59968  34.550   1.260   6.755
10261POPC   C3A59969  34.535   1.210   7.055
10261POPC   C4A59970  34.600   1.170   7.355
10261POPC   C1B59971  34.607   1.504   6.455
10261POPC   C2B59972  34.665   1.504   6.755
10261POPC   C3B59973  34.597   1.416   7.055
10261POPC   C4B59974  34.610   1.481   7.355
10262POPC   NC359975  13.625   1.965   5.555
10262POPC   PO459976  13.644   1.942   5.855
10262POPC   GL159977  13.612   1.988   6.155
10262POPC   GL259978  13.534   2.013   6.155
10262POPC   C1A59979  13.630   1.969   6.455
10262POPC   D2A59980  13.601   1.962   6.755
10262POPC   C3A59981  13.625   1.981   7.055
10262POPC   C4A59982  13.645   1.978   7.355
10262POPC   C1B59983  13.333   2.005   6.455
10262POPC   C2B59984  13.422   2.016   6.755
10262POPC   C3B59985  13.359   2.018   7.055
10262POPC   C4B59986  13.361   2.021   7.355
10263POPC   NC359987  13.628  27.621   5.555
10263POPC   PO459988  13.652  27.557   5.855
10263POPC   GL159989  13.591  27.635   6.155
10263POPC   GL259990  13.729  27.661   6.155
10263POPC   C1A59991  13.580  27.610   6.455
10263POPC   D2A59992  13.593  27.575   6.755
10263POPC   C3A59993  13.617  27.635   7.055
10263POPC   C4A59994  13.650  27.614   7.355
10263POPC   C1B59995  13.806  27.739   6.455
10263POPC   C2B59996  13.832  27.748   6.755
10263POPC   C3B59997  13.818  27.771   7.055
10263POPC   C4B59998  13.837  27.779   7.355
10264POPC   NC359999  30.735   5.138   5.555
10264POPC   PO460000  30.684   5.093   5.855
10264POPC   GL160001  30.668   5.073   6.155
10264POPC   GL260002  30.821   5.201   6.155
10264POPC   C1A60003  30.651   5.113   6.455
10264POPC   D2A60004  30.657   5.075   6.755
10264POPC   C3A60005  30.693   5.127   7.055
10264POPC   C4A60006  30.700   5.054   7.355
10264POPC   C1B60007  30.878   5.229   6.455
10264POPC   C2B60008  30.883   5.240   6.755
10264POPC   C3B60009  30.903   5.210   7.055
10264POPC   C4B60010  30.862   5.211   7.355
10265POPC   NC360011   1.201  28.402   5.555
10265POPC   PO460012   1.220  28.383   5.855
10265POPC   GL160013   1.237  28.372   6.155
10265POPC   GL260014   1.177  28.239   6.155
10265POPC   C1A60015   1.170  28.337   6.455
10265POPC   D2A60016   1.188  28.371   6.755
10265POPC   C3A60017   1.203  28.343   7.055
10265POPC   C4A60018   1.186  28.360   7.355
10265POPC   C1B60019   1.087  28.161   6.455
10265POPC   C2B60020   1.079  28.154   6.755
10265POPC   C3B60021   1.035  28.142   7.055
10265POPC   C4B60022   1.047  28.133   7.355
10266POPC   NC360023  30.667  39.241   5.555
10266POPC   PO460024  30.682  39.251   5.855
10266POPC   GL160025  30.650  39.194   6.155
10266POPC   GL260026  30.669  39.366   6.155
10266POPC   C1A60027  30.668  39.230   6.455
10266POPC   D2A60028  30.723  39.209   6.755
10266POPC   C3A60029  30.710  39.249   7.055
10266POPC   C4A60030  30.713  39.206   7.355
10266POPC   C1B60031  30.745  39.507   6.455
10266POPC   C2B60032  30.690  39.461   6.755
10266POPC   C3B60033  30.702  39.516   7.055
10266POPC   C4B60034  30.698  39.484   7.355
10267POPC   NC360035  18.277  42.308   5.555
10267POPC   PO460036  18.273  42.303   5.855
10267POPC   GL160037  18.294  42.381   6.155
10267POPC   GL260038  18.204  42.262   6.155
10267POPC   C1A60039  18.246  42.319   6.455
10267POPC   D2A60040  18.248  42.307   6.755
10267POPC   C3A60041  18.277  42.289   7.055
10267POPC   C4A60042  18.298  42.326   7.355
10267POPC   C1B60043  17.993  42.304   6.455
10267POPC   C2B60044  18.009  42.277   6.755
10267POPC   C3B60045  18.084  42.246   7.055
10267POPC   C4B60046  18.046  42.233   7.355
10268POPC   NC360047   1.257  26.863   5.555
10268POPC   PO460048   1.229  26.851   5.855
10268POPC   GL160049   1.254  26.794   6.155
10268POPC   GL260050   1.151  26.749   6.155
10268POPC   C1A60051   1.236  26.801   6.455
10268POPC   D2A60052   1.259  26.774   6.755
10268POPC   C3A60053   1.236  26.772   7.055
10268POPC   C4A60054   1.214  26.775   7.355
10268POPC   C1B60055   0.985  26.681   6.455
10268POPC   C2B60056   1.011  26.660   6.755
10268POPC   C3B60057   1.017  26.616   7.055
10268POPC   C4B60058   1.049  26.643   7.355
10269POPC   NC360059  37.712   2.722   5.555
10269POPC   PO460060  37.718   2.732   5.855
10269POPC   GL160061  37.662   2.790   6.155
10269POPC   GL260062  37.668   2.841   6.155
10269POPC   C1A60063  37.632   2.749   6.455
10269POPC   D2A60064  37.644   2.812   6.755
10269POPC   C3A60065  37.659   2.813   7.055
10269POPC   C4A60066  37.689   2.806   7.355
10269POPC   C1B60067  37.788   3.003   6.455
10269POPC   C2B60068  37.730   2.988   6.755
10269POPC   C3B60069  37.711   3.048   7.055
10269POPC   C4B60070  37.753   3.034   7.355
10270POPC   NC360071   5.851  16.750   5.555
10270POPC   PO460072   5.893  16.687   5.855
10270POPC   GL160073   5.885  16.755   6.155
10270POPC   GL260074   5.824  16.632   6.155
10270POPC   C1A60075   5.857  16.696   6.455
10270POPC   D2A60076   5.903  16.694   6.755
10270POPC   C3A60077   5.838  16.766   7.055
10270POPC   C4A60078   5.855  16.779   7.355
10270POPC   C1B60079   5.791  16.479   6.455
10270POPC   C2B60080   5.776  16.514   6.755
10270POPC   C3B60081   5.759  16.509   7.055
10270POPC   C4B60082   5.823  16.504   7.355
10271POPC   NC360083  43.838  15.982   5.555
10271POPC   PO460084  43.929  15.995   5.855
10271POPC   GL160085  43.930  15.926   6.155
10271POPC   GL260086  43.777  15.913   6.155
10271POPC   C1A60087  43.920  15.921   6.455
10271POPC   D2A60088  43.922  15.916   6.755
10271POPC   C3A60089  43.857  15.911   7.055
10271POPC   C4A60090  43.884  15.927   7.355
10271POPC   C1B60091  43.671  15.949   6.455
10271POPC   C2B60092  43.684  15.890   6.755
10271POPC   C3B60093  43.661  15.954   7.055
10271POPC   C4B60094  43.625  15.944   7.355
10272POPC   NC360095  38.460  43.086   5.555
10272POPC   PO460096  38.407  43.092   5.855
10272POPC   GL160097  38.475  43.065   6.155
10272POPC   GL260098  38.536  43.104   6.155
10272POPC   C1A60099  38.463  43.132   6.455
10272POPC   D2A60100  38.478  43.063   6.755
10272POPC   C3A60101  38.482  43.105   7.055
10272POPC   C4A60102  38.479  43.100   7.355
10272POPC   C1B60103  38.691  43.198   6.455
10272POPC   C2B60104  38.739  43.179   6.755
10272POPC   C3B60105  38.688  43.149   7.055
10272POPC   C4B60106  38.657  43.228   7.355
10273POPC   NC360107   1.990   1.191   5.555
10273POPC   PO460108   2.022   1.240   5.855
10273POPC   GL160109   1.993   1.251   6.155
10273POPC   GL260110   2.083   1.234   6.155
10273POPC   C1A60111   1.987   1.228   6.455
10273POPC   D2A60112   1.972   1.239   6.755
10273POPC   C3A60113   2.033   1.165   7.055
10273POPC   C4A60114   2.034   1.245   7.355
10273POPC   C1B60115   2.202   1.216   6.455
10273POPC   C2B60116   2.224   1.209   6.755
10273POPC   C3B60117   2.254   1.209   7.055
10273POPC   C4B60118   2.276   1.213   7.355
10274POPC   NC360119  17.486  22.892   5.555
10274POPC   PO460120  17.494  22.910   5.855
10274POPC   GL160121  17.556  22.925   6.155
10274POPC   GL260122  17.393  22.874   6.155
10274POPC   C1A60123  17.532  22.893   6.455
10274POPC   D2A60124  17.483  22.976   6.755
10274POPC   C3A60125  17.487  22.930   7.055
10274POPC   C4A60126  17.519  22.920   7.355
10274POPC   C1B60127  17.317  22.740   6.455
10274POPC   C2B60128  17.315  22.808   6.755
10274POPC   C3B60129  17.351  22.716   7.055
10274POPC   C4B60130  17.327  22.750   7.355
10275POPC   NC360131  22.975  36.174   5.555
10275POPC   PO460132  22.961  36.161   5.855
10275POPC   GL160133  22.962  36.112   6.155
10275POPC   GL260134  22.765  36.143   6.155
10275POPC   C1A60135  22.911  36.112   6.455
10275POPC   D2A60136  22.916  36.081   6.755
10275POPC   C3A60137  22.949  36.110   7.055
10275POPC   C4A60138  22.927  36.092   7.355
10275POPC   C1B60139  22.695  36.065   6.455
10275POPC   C2B60140  22.658  36.092   6.755
10275POPC   C3B60141  22.699  36.081   7.055
10275POPC   C4B60142  22.671  36.141   7.355
10276POPC   NC360143   3.561   0.461   5.555
10276POPC   PO460144   3.507   0.481   5.855
10276POPC   GL160145   3.537   0.475   6.155
10276POPC   GL260146   3.484   0.391   6.155
10276POPC   C1A60147   3.531   0.426   6.455
10276POPC   D2A60148   3.540   0.424   6.755
10276POPC   C3A60149   3.555   0.480   7.055
10276POPC   C4A60150   3.525   0.471   7.355
10276POPC   C1B60151   3.346   0.331   6.455
10276POPC   C2B60152   3.369   0.325   6.755
10276POPC   C3B60153   3.321   0.337   7.055
10276POPC   C4B60154   3.312   0.352   7.355
10277POPC   NC360155  35.362   1.167   5.555
10277POPC   PO460156  35.392   1.170   5.855
10277POPC   GL160157  35.393   1.180   6.155
10277POPC   GL260158  35.412   1.261   6.155
10277POPC   C1A60159  35.322   1.236   6.455
10277POPC   D2A60160  35.350   1.229   6.755
10277POPC   C3A60161  35.397   1.179   7.055
10277POPC   C4A60162  35.347   1.211   7.355
10277POPC   C1B60163  35.564   1.326   6.455
10277POPC   C2B60164  35.531   1.375   6.755
10277POPC   C3B60165  35.543   1.331   7.055
10277POPC   C4B60166  35.574   1.370   7.355
10278POPC   NC360167  29.130   4.270   5.555
10278POPC   PO460168  29.169   4.328   5.855
10278POPC   GL160169  29.176   4.307   6.155
10278POPC   GL260170  29.151   4.240   6.155
10278POPC   C1A60171  29.189   4.269   6.455
10278POPC   D2A60172  29.158   4.279   6.755
10278POPC   C3A60173  29.101   4.302   7.055
10278POPC   C4A60174  29.121   4.310   7.355
10278POPC   C1B60175  29.134   4.047   6.455
10278POPC   C2B60176  29.164   4.047   6.755
10278POPC   C3B60177  29.159   4.109   7.055
10278POPC   C4B60178  29.119   4.091   7.355
10279POPC   NC360179  33.790  40.756   5.555
10279POPC   PO460180  33.818  40.829   5.855
10279POPC   GL160181  33.761  40.733   6.155
10279POPC   GL260182  33.641  40.807   6.155
10279POPC   C1A60183  33.827  40.802   6.455
10279POPC   D2A60184  33.762  40.746   6.755
10279POPC   C3A60185  33.811  40.807   7.055
10279POPC   C4A60186  33.766  40.816   7.355
10279POPC   C1B60187  33.621  40.870   6.455
10279POPC   C2B60188  33.541  40.859   6.755
10279POPC   C3B60189  33.626  40.867   7.055
10279POPC   C4B60190  33.624  40.934   7.355
10280POPC   NC360191  29.116   0.413   5.555
10280POPC   PO460192  29.129   0.468   5.855
10280POPC   GL160193  29.119   0.441   6.155
10280POPC   GL260194  29.066   0.468   6.155
10280POPC   C1A60195  29.180   0.390   6.455
10280POPC   D2A60196  29.101   0.449   6.755
10280POPC   C3A60197  29.187   0.447   7.055
10280POPC   C4A60198  29.158   0.469   7.355
10280POPC   C1B60199  28.899   0.518   6.455
10280POPC   C2B60200  28.960   0.543   6.755
10280POPC   C3B60201  28.914   0.608   7.055
10280POPC   C4B60202  28.896   0.531   7.355
10281POPC   NC360203  21.394  26.016   5.555
10281POPC   PO460204  21.384  26.089   5.855
10281POPC   GL160205  21.366  26.025   6.155
10281POPC   GL260206  21.504  26.128   6.155
10281POPC   C1A60207  21.346  26.007   6.455
10281POPC   D2A60208  21.430  26.019   6.755
10281POPC   C3A60209  21.387  26.019   7.055
10281POPC   C4A60210  21.347  26.045   7.355
10281POPC   C1B60211  21.517  26.232   6.455
10281POPC   C2B60212  21.529  26.265   6.755
10281POPC   C3B60213  21.560  26.244   7.055
10281POPC   C4B60214  21.575  26.225   7.355
10282POPC   NC360215  16.743   8.238   5.555
10282POPC   PO460216  16.739   8.188   5.855
10282POPC   GL160217  16.682   8.207   6.155
10282POPC   GL260218  16.841   8.227   6.155
10282POPC   C1A60219  16.729   8.225   6.455
10282POPC   D2A60220  16.753   8.180   6.755
10282POPC   C3A60221  16.731   8.181   7.055
10282POPC   C4A60222  16.707   8.191   7.355
10282POPC   C1B60223  16.997   8.315   6.455
10282POPC   C2B60224  16.940   8.332   6.755
10282POPC   C3B60225  17.005   8.251   7.055
10282POPC   C4B60226  16.951   8.246   7.355
10283POPC   NC360227  16.720   4.282   5.555
10283POPC   PO460228  16.708   4.346   5.855
10283POPC   GL160229  16.749   4.338   6.155
10283POPC   GL260230  16.644   4.224   6.155
10283POPC   C1A60231  16.745   4.344   6.455
10283POPC   D2A60232  16.681   4.267   6.755
10283POPC   C3A60233  16.730   4.281   7.055
10283POPC   C4A60234  16.775   4.336   7.355
10283POPC   C1B60235  16.616   4.063   6.455
10283POPC   C2B60236  16.637   4.067   6.755
10283POPC   C3B60237  16.668   4.074   7.055
10283POPC   C4B60238  16.651   4.059   7.355
10284POPC   NC360239  43.109  12.859   5.555
10284POPC   PO460240  43.152  12.838   5.855
10284POPC   GL160241  43.065  12.876   6.155
10284POPC   GL260242  43.084  12.982   6.155
10284POPC   C1A60243  43.071  12.837   6.455
10284POPC   D2A60244  43.086  12.844   6.755
10284POPC   C3A60245  43.142  12.814   7.055
10284POPC   C4A60246  43.142  12.849   7.355
10284POPC   C1B60247  43.044  13.062   6.455
10284POPC   C2B60248  43.029  13.054   6.755
10284POPC   C3B60249  43.033  13.121   7.055
10284POPC   C4B60250  43.017  13.077   7.355
10285POPC   NC360251  39.267  15.135   5.555
10285POPC   PO460252  39.255  15.220   5.855
10285POPC   GL160253  39.270  15.168   6.155
10285POPC   GL260254  39.160  15.032   6.155
10285POPC   C1A60255  39.276  15.141   6.455
10285POPC   D2A60256  39.234  15.174   6.755
10285POPC   C3A60257  39.190  15.172   7.055
10285POPC   C4A60258  39.267  15.154   7.355
10285POPC   C1B60259  39.123  14.957   6.455
10285POPC   C2B60260  39.134  14.935   6.755
10285POPC   C3B60261  39.101  14.993   7.055
10285POPC   C4B60262  39.097  14.915   7.355
10286POPC   NC360263  28.397  29.925   5.555
10286POPC   PO460264  28.409  29.901   5.855
10286POPC   GL160265  28.373  29.926   6.155
10286POPC   GL260266  28.464  30.010   6.155
10286POPC   C1A60267  28.319  29.895   6.455
10286POPC   D2A60268  28.331  29.880   6.755
10286POPC   C3A60269  28.385  29.885   7.055
10286POPC   C4A60270  28.328  29.874   7.355
10286POPC   C1B60271  28.489  30.125   6.455
10286POPC   C2B60272  28.559  30.131   6.755
10286POPC   C3B60273  28.577  30.128   7.055
10286POPC   C4B60274  28.575  30.153   7.355
10287POPC   NC360275  43.919   2.790   5.555
10287POPC   PO460276  43.901   2.753   5.855
10287POPC   GL160277  43.837   2.752   6.155
10287POPC   GL260278  44.039   2.768   6.155
10287POPC   C1A60279  43.872   2.810   6.455
10287POPC   D2A60280  43.845   2.814   6.755
10287POPC   C3A60281  43.845   2.745   7.055
10287POPC   C4A60282  43.903   2.765   7.355
10287POPC   C1B60283  44.147   2.770   6.455
10287POPC   C2B60284  44.177   2.749   6.755
10287POPC   C3B60285  44.109   2.765   7.055
10287POPC   C4B60286  44.131   2.758   7.355
10288POPC   NC360287  39.270  22.929   5.555
10288POPC   PO460288  39.220  22.938   5.855
10288POPC   GL160289  39.226  22.941   6.155
10288POPC   GL260290  39.291  23.044   6.155
10288POPC   C1A60291  39.237  22.956   6.455
10288POPC   D2A60292  39.267  22.958   6.755
10288POPC   C3A60293  39.211  22.903   7.055
10288POPC   C4A60294  39.256  22.905   7.355
10288POPC   C1B60295  39.386  23.094   6.455
10288POPC   C2B60296  39.356  23.107   6.755
10288POPC   C3B60297  39.409  23.181   7.055
10288POPC   C4B60298  39.334  23.137   7.355
10289POPC   NC360299  35.397  30.715   5.555
10289POPC   PO460300  35.401  30.735   5.855
10289POPC   GL160301  35.309  30.681   6.155
10289POPC   GL260302  35.407  30.865   6.155
10289POPC   C1A60303  35.370  30.653   6.455
10289POPC   D2A60304  35.321  30.715   6.755
10289POPC   C3A60305  35.335  30.723   7.055
10289POPC   C4A60306  35.349  30.712   7.355
10289POPC   C1B60307  35.331  30.957   6.455
10289POPC   C2B60308  35.368  30.947   6.755
10289POPC   C3B60309  35.344  30.918   7.055
10289POPC   C4B60310  35.383  30.979   7.355
10290POPC   NC360311  33.042  43.124   5.555
10290POPC   PO460312  33.070  43.087   5.855
10290POPC   GL160313  33.021  43.121   6.155
10290POPC   GL260314  32.915  42.999   6.155
10290POPC   C1A60315  33.023  43.116   6.455
10290POPC   D2A60316  32.982  43.080   6.755
10290POPC   C3A60317  33.014  43.082   7.055
10290POPC   C4A60318  33.068  43.063   7.355
10290POPC   C1B60319  32.860  42.902   6.455
10290POPC   C2B60320  32.863  42.975   6.755
10290POPC   C3B60321  32.854  42.953   7.055
10290POPC   C4B60322  32.832  42.981   7.355
10291POPC   NC360323  22.977  26.052   5.555
10291POPC   PO460324  22.981  25.998   5.855
10291POPC   GL160325  22.973  26.057   6.155
10291POPC   GL260326  22.816  25.964   6.155
10291POPC   C1A60327  22.917  26.058   6.455
10291POPC   D2A60328  22.956  26.062   6.755
10291POPC   C3A60329  22.974  26.057   7.055
10291POPC   C4A60330  22.961  26.054   7.355
10291POPC   C1B60331  22.760  25.912   6.455
10291POPC   C2B60332  22.685  25.946   6.755
10291POPC   C3B60333  22.725  25.947   7.055
10291POPC   C4B60334  22.765  25.920   7.355
10292POPC   NC360335  27.548  41.592   5.555
10292POPC   PO460336  27.556  41.525   5.855
10292POPC   GL160337  27.573  41.527   6.155
10292POPC   GL260338  27.439  41.510   6.155
10292POPC   C1A60339  27.558  41.532   6.455
10292POPC   D2A60340  27.573  41.546   6.755
10292POPC   C3A60341  27.622  41.546   7.055
10292POPC   C4A60342  27.582  41.566   7.355
10292POPC   C1B60343  27.372  41.381   6.455
10292POPC   C2B60344  27.410  41.453   6.755
10292POPC   C3B60345  27.399  41.424   7.055
10292POPC   C4B60346  27.368  41.469   7.355
10293POPC   NC360347  28.335  37.704   5.555
10293POPC   PO460348  28.400  37.672   5.855
10293POPC   GL160349  28.382  37.680   6.155
10293POPC   GL260350  28.434  37.653   6.155
10293POPC   C1A60351  28.416  37.645   6.455
10293POPC   D2A60352  28.370  37.727   6.755
10293POPC   C3A60353  28.391  37.674   7.055
10293POPC   C4A60354  28.324  37.694   7.355
10293POPC   C1B60355  28.601  37.582   6.455
10293POPC   C2B60356  28.579  37.522   6.755
10293POPC   C3B60357  28.617  37.522   7.055
10293POPC   C4B60358  28.551  37.563   7.355
10294POPC   NC360359  43.846   9.775   5.555
10294POPC   PO460360  43.848   9.701   5.855
10294POPC   GL160361  43.849   9.726   6.155
10294POPC   GL260362  43.956   9.691   6.155
10294POPC   C1A60363  43.884   9.771   6.455
10294POPC   D2A60364  43.921   9.754   6.755
10294POPC   C3A60365  43.919   9.776   7.055
10294POPC   C4A60366  43.883   9.763   7.355
10294POPC   C1B60367  44.165   9.616   6.455
10294POPC   C2B60368  44.076   9.640   6.755
10294POPC   C3B60369  44.135   9.674   7.055
10294POPC   C4B60370  44.158   9.664   7.355
10295POPC   NC360371  42.349  41.575   5.555
10295POPC   PO460372  42.348  41.516   5.855
10295POPC   GL160373  42.310  41.564   6.155
10295POPC   GL260374  42.224  41.577   6.155
10295POPC   C1A60375  42.324  41.595   6.455
10295POPC   D2A60376  42.297  41.524   6.755
10295POPC   C3A60377  42.291  41.511   7.055
10295POPC   C4A60378  42.380  41.562   7.355
10295POPC   C1B60379  42.108  41.507   6.455
10295POPC   C2B60380  42.116  41.526   6.755
10295POPC   C3B60381  42.076  41.503   7.055
10295POPC   C4B60382  42.086  41.472   7.355
10296POPC   NC360383  34.550   7.402   5.555
10296POPC   PO460384  34.616   7.466   5.855
10296POPC   GL160385  34.536   7.457   6.155
10296POPC   GL260386  34.478   7.377   6.155
10296POPC   C1A60387  34.609   7.396   6.455
10296POPC   D2A60388  34.572   7.382   6.755
10296POPC   C3A60389  34.534   7.393   7.055
10296POPC   C4A60390  34.571   7.377   7.355
10296POPC   C1B60391  34.326   7.366   6.455
10296POPC   C2B60392  34.375   7.376   6.755
10296POPC   C3B60393  34.317   7.357   7.055
10296POPC   C4B60394  34.320   7.315   7.355
10297POPC   NC360395  16.706  26.072   5.555
10297POPC   PO460396  16.763  25.992   5.855
10297POPC   GL160397  16.713  26.037   6.155
10297POPC   GL260398  16.859  26.090   6.155
10297POPC   C1A60399  16.740  26.087   6.455
10297POPC   D2A60400  16.743  26.007   6.755
10297POPC   C3A60401  16.750  26.072   7.055
10297POPC   C4A60402  16.763  26.031   7.355
10297POPC   C1B60403  16.966  26.177   6.455
10297POPC   C2B60404  16.957  26.166   6.755
10297POPC   C3B60405  16.935  26.147   7.055
10297POPC   C4B60406  16.965  26.134   7.355
10298POPC   NC360407  42.354  14.387   5.555
10298POPC   PO460408  42.295  14.428   5.855
10298POPC   GL160409  42.350  14.452   6.155
10298POPC   GL260410  42.169  14.360   6.155
10298POPC   C1A60411  42.312  14.391   6.455
10298POPC   D2A60412  42.346  14.415   6.755
10298POPC   C3A60413  42.353  14.449   7.055
10298POPC   C4A60414  42.311  14.437   7.355
10298POPC   C1B60415  42.146  14.327   6.455
10298POPC   C2B60416  42.062  14.302   6.755
10298POPC   C3B60417  42.139  14.340   7.055
10298POPC   C4B60418  42.115  14.359   7.355
10299POPC   NC360419  43.841  11.326   5.555
10299POPC   PO460420  43.837  11.272   5.855
10299POPC   GL160421  43.879  11.280   6.155
10299POPC   GL260422  43.919  11.168   6.155
10299POPC   C1A60423  43.919  11.337   6.455
10299POPC   D2A60424  43.877  11.315   6.755
10299POPC   C3A60425  43.863  11.321   7.055
10299POPC   C4A60426  43.911  11.303   7.355
10299POPC   C1B60427  43.921  11.071   6.455
10299POPC   C2B60428  43.945  11.055   6.755
10299POPC   C3B60429  43.894  11.062   7.055
10299POPC   C4B60430  43.882  11.076   7.355
10300POPC   NC360431  12.052  37.652   5.555
10300POPC   PO460432  12.039  37.670   5.855
10300POPC   GL160433  12.077  37.634   6.155
10300POPC   GL260434  12.176  37.638   6.155
10300POPC   C1A60435  12.078  37.632   6.455
10300POPC   D2A60436  12.046  37.684   6.755
10300POPC   C3A60437  12.105  37.634   7.055
10300POPC   C4A60438  12.100  37.665   7.355
10300POPC   C1B60439  12.230  37.538   6.455
10300POPC   C2B60440  12.235  37.522   6.755
10300POPC   C3B60441  12.243  37.518   7.055
10300POPC   C4B60442  12.282  37.533   7.355
10301POPC   NC360443  14.399   3.552   5.555
10301POPC   PO460444  14.406   3.583   5.855
10301POPC   GL160445  14.356   3.536   6.155
10301POPC   GL260446  14.274   3.416   6.155
10301POPC   C1A60447  14.448   3.538   6.455
10301POPC   D2A60448  14.388   3.591   6.755
10301POPC   C3A60449  14.439   3.564   7.055
10301POPC   C4A60450  14.446   3.536   7.355
10301POPC   C1B60451  14.181   3.435   6.455
10301POPC   C2B60452  14.202   3.368   6.755
10301POPC   C3B60453  14.253   3.421   7.055
10301POPC   C4B60454  14.256   3.405   7.355
10302POPC   NC360455  20.573  19.099   5.555
10302POPC   PO460456  20.639  19.093   5.855
10302POPC   GL160457  20.602  19.061   6.155
10302POPC   GL260458  20.517  18.917   6.155
10302POPC   C1A60459  20.643  19.039   6.455
10302POPC   D2A60460  20.561  19.068   6.755
10302POPC   C3A60461  20.585  19.022   7.055
10302POPC   C4A60462  20.639  19.105   7.355
10302POPC   C1B60463  20.438  18.852   6.455
10302POPC   C2B60464  20.461  18.883   6.755
10302POPC   C3B60465  20.459  18.856   7.055
10302POPC   C4B60466  20.520  18.844   7.355
10303POPC   NC360467  40.038  22.146   5.555
10303POPC   PO460468  39.985  22.188   5.855
10303POPC   GL160469  39.992  22.117   6.155
10303POPC   GL260470  39.878  22.230   6.155
10303POPC   C1A60471  40.004  22.207   6.455
10303POPC   D2A60472  40.019  22.172   6.755
10303POPC   C3A60473  40.036  22.211   7.055
10303POPC   C4A60474  40.039  22.120   7.355
10303POPC   C1B60475  39.791  22.284   6.455
10303POPC   C2B60476  39.771  22.293   6.755
10303POPC   C3B60477  39.755  22.312   7.055
10303POPC   C4B60478  39.845  22.269   7.355
10304POPC   NC360479  19.813  20.638   5.555
10304POPC   PO460480  19.837  20.642   5.855
10304POPC   GL160481  19.872  20.598   6.155
10304POPC   GL260482  19.719  20.631   6.155
10304POPC   C1A60483  19.831  20.606   6.455
10304POPC   D2A60484  19.851  20.594   6.755
10304POPC   C3A60485  19.837  20.589   7.055
10304POPC   C4A60486  19.821  20.653   7.355
10304POPC   C1B60487  19.616  20.616   6.455
10304POPC   C2B60488  19.591  20.600   6.755
10304POPC   C3B60489  19.602  20.573   7.055
10304POPC   C4B60490  19.628  20.632   7.355
10305POPC   NC360491  25.266  24.509   5.555
10305POPC   PO460492  25.268  24.487   5.855
10305POPC   GL160493  25.242  24.472   6.155
10305POPC   GL260494  25.318  24.614   6.155
10305POPC   C1A60495  25.280  24.476   6.455
10305POPC   D2A60496  25.240  24.456   6.755
10305POPC   C3A60497  25.249  24.493   7.055
10305POPC   C4A60498  25.283  24.509   7.355
10305POPC   C1B60499  25.315  24.698   6.455
10305POPC   C2B60500  25.328  24.713   6.755
10305POPC   C3B60501  25.386  24.693   7.055
10305POPC   C4B60502  25.376  24.696   7.355
10306POPC   NC360503  20.657  27.626   5.555
10306POPC   PO460504  20.651  27.630   5.855
10306POPC   GL160505  20.624  27.630   6.155
10306POPC   GL260506  20.699  27.524   6.155
10306POPC   C1A60507  20.569  27.616   6.455
10306POPC   D2A60508  20.631  27.556   6.755
10306POPC   C3A60509  20.596  27.550   7.055
10306POPC   C4A60510  20.573  27.608   7.355
10306POPC   C1B60511  20.696  27.341   6.455
10306POPC   C2B60512  20.751  27.321   6.755
10306POPC   C3B60513  20.718  27.335   7.055
10306POPC   C4B60514  20.676  27.366   7.355
10307POPC   NC360515  33.001  29.130   5.555
10307POPC   PO460516  33.047  29.155   5.855
10307POPC   GL160517  33.002  29.135   6.155
10307POPC   GL260518  33.100  29.122   6.155
10307POPC   C1A60519  32.997  29.110   6.455
10307POPC   D2A60520  33.009  29.113   6.755
10307POPC   C3A60521  33.012  29.116   7.055
10307POPC   C4A60522  33.054  29.188   7.355
10307POPC   C1B60523  33.293  29.054   6.455
10307POPC   C2B60524  33.251  29.100   6.755
10307POPC   C3B60525  33.294  29.121   7.055
10307POPC   C4B60526  33.286  29.096   7.355
10308POPC   NC360527  31.473  35.333   5.555
10308POPC   PO460528  31.446  35.367   5.855
10308POPC   GL160529  31.486  35.385   6.155
10308POPC   GL260530  31.564  35.444   6.155
10308POPC   C1A60531  31.460  35.382   6.455
10308POPC   D2A60532  31.488  35.333   6.755
10308POPC   C3A60533  31.439  35.381   7.055
10308POPC   C4A60534  31.495  35.327   7.355
10308POPC   C1B60535  31.601  35.542   6.455
10308POPC   C2B60536  31.627  35.592   6.755
10308POPC   C3B60537  31.659  35.589   7.055
10308POPC   C4B60538  31.598  35.578   7.355
10309POPC   NC360539   7.467  41.535   5.555
10309POPC   PO460540   7.422  41.534   5.855
10309POPC   GL160541   7.376  41.564   6.155
10309POPC   GL260542   7.503  41.568   6.155
10309POPC   C1A60543   7.441  41.566   6.455
10309POPC   D2A60544   7.456  41.561   6.755
10309POPC   C3A60545   7.379  41.537   7.055
10309POPC   C4A60546   7.415  41.591   7.355
10309POPC   C1B60547   7.667  41.547   6.455
10309POPC   C2B60548   7.691  41.523   6.755
10309POPC   C3B60549   7.645  41.519   7.055
10309POPC   C4B60550   7.637  41.556   7.355
10310POPC   NC360551  23.757  12.883   5.555
10310POPC   PO460552  23.675  12.865   5.855
10310POPC   GL160553  23.707  12.829   6.155
10310POPC   GL260554  23.713  12.746   6.155
10310POPC   C1A60555  23.742  12.899   6.455
10310POPC   D2A60556  23.673  12.881   6.755
10310POPC   C3A60557  23.758  12.864   7.055
10310POPC   C4A60558  23.687  12.900   7.355
10310POPC   C1B60559  23.825  12.628   6.455
10310POPC   C2B60560  23.782  12.606   6.755
10310POPC   C3B60561  23.781  12.604   7.055
10310POPC   C4B60562  23.803  12.596   7.355
10311POPC   NC360563  40.006  15.189   5.555
10311POPC   PO460564  39.959  15.150   5.855
10311POPC   GL160565  39.973  15.225   6.155
10311POPC   GL260566  40.095  15.031   6.155
10311POPC   C1A60567  40.013  15.182   6.455
10311POPC   D2A60568  40.039  15.191   6.755
10311POPC   C3A60569  40.003  15.228   7.055
10311POPC   C4A60570  39.986  15.132   7.355
10311POPC   C1B60571  40.151  15.015   6.455
10311POPC   C2B60572  40.145  14.988   6.755
10311POPC   C3B60573  40.139  14.943   7.055
10311POPC   C4B60574  40.125  14.983   7.355
10312POPC   NC360575  39.264   3.552   5.555
10312POPC   PO460576  39.250   3.545   5.855
10312POPC   GL160577  39.257   3.534   6.155
10312POPC   GL260578  39.231   3.385   6.155
10312POPC   C1A60579  39.212   3.590   6.455
10312POPC   D2A60580  39.281   3.553   6.755
10312POPC   C3A60581  39.211   3.565   7.055
10312POPC   C4A60582  39.183   3.564   7.355
10312POPC   C1B60583  39.314   3.322   6.455
10312POPC   C2B60584  39.325   3.267   6.755
10312POPC   C3B60585  39.338   3.277   7.055
10312POPC   C4B60586  39.345   3.275   7.355
10313POPC   NC360587  22.892   1.255   5.555
10313POPC   PO460588  22.917   1.263   5.855
10313POPC   GL160589  22.945   1.199   6.155
10313POPC   GL260590  23.086   1.253   6.155
10313POPC   C1A60591  22.914   1.178   6.455
10313POPC   D2A60592  22.975   1.181   6.755
10313POPC   C3A60593  22.934   1.183   7.055
10313POPC   C4A60594  22.898   1.246   7.355
10313POPC   C1B60595  23.213   1.312   6.455
10313POPC   C2B60596  23.144   1.296   6.755
10313POPC   C3B60597  23.197   1.335   7.055
10313POPC   C4B60598  23.153   1.333   7.355
10314POPC   NC360599   7.446   5.851   5.555
10314POPC   PO460600   7.466   5.897   5.855
10314POPC   GL160601   7.379   5.869   6.155
10314POPC   GL260602   7.496   5.819   6.155
10314POPC   C1A60603   7.396   5.846   6.455
10314POPC   D2A60604   7.451   5.865   6.755
10314POPC   C3A60605   7.462   5.823   7.055
10314POPC   C4A60606   7.416   5.864   7.355
10314POPC   C1B60607   7.695   5.825   6.455
10314POPC   C2B60608   7.628   5.866   6.755
10314POPC   C3B60609   7.621   5.841   7.055
10314POPC   C4B60610   7.690   5.871   7.355
10315POPC   NC360611  34.555  27.619   5.555
10315POPC   PO460612  34.624  27.551   5.855
10315POPC   GL160613  34.550  27.639   6.155
10315POPC   GL260614  34.543  27.765   6.155
10315POPC   C1A60615  34.530  27.588   6.455
10315POPC   D2A60616  34.537  27.611   6.755
10315POPC   C3A60617  34.597  27.597   7.055
10315POPC   C4A60618  34.569  27.559   7.355
10315POPC   C1B60619  34.505  27.820   6.455
10315POPC   C2B60620  34.593  27.866   6.755
10315POPC   C3B60621  34.514  27.835   7.055
10315POPC   C4B60622  34.509  27.854   7.355
10316POPC   NC360623  36.115  14.370   5.555
10316POPC   PO460624  36.119  14.389   5.855
10316POPC   GL160625  36.131  14.395   6.155
10316POPC   GL260626  35.979  14.463   6.155
10316POPC   C1A60627  36.111  14.444   6.455
10316POPC   D2A60628  36.143  14.439   6.755
10316POPC   C3A60629  36.117  14.394   7.055
10316POPC   C4A60630  36.115  14.398   7.355
10316POPC   C1B60631  35.896  14.556   6.455
10316POPC   C2B60632  35.858  14.487   6.755
10316POPC   C3B60633  35.863  14.497   7.055
10316POPC   C4B60634  35.879  14.515   7.355
10317POPC   NC360635  10.499  29.127   5.555
10317POPC   PO460636  10.499  29.164   5.855
10317POPC   GL160637  10.535  29.176   6.155
10317POPC   GL260638  10.438  29.088   6.155
10317POPC   C1A60639  10.572  29.134   6.455
10317POPC   D2A60640  10.494  29.099   6.755
10317POPC   C3A60641  10.500  29.154   7.055
10317POPC   C4A60642  10.532  29.120   7.355
10317POPC   C1B60643  10.381  28.934   6.455
10317POPC   C2B60644  10.323  29.010   6.755
10317POPC   C3B60645  10.307  29.021   7.055
10317POPC   C4B60646  10.315  29.031   7.355
10318POPC   NC360647  34.612   6.647   5.555
10318POPC   PO460648  34.589   6.660   5.855
10318POPC   GL160649  34.598   6.615   6.155
10318POPC   GL260650  34.501   6.781   6.155
10318POPC   C1A60651  34.554   6.612   6.455
10318POPC   D2A60652  34.625   6.674   6.755
10318POPC   C3A60653  34.611   6.681   7.055
10318POPC   C4A60654  34.582   6.631   7.355
10318POPC   C1B60655  34.517   6.858   6.455
10318POPC   C2B60656  34.500   6.895   6.755
10318POPC   C3B60657  34.564   6.938   7.055
10318POPC   C4B60658  34.493   6.869   7.355
10319POPC   NC360659  13.636  40.019   5.555
10319POPC   PO460660  13.608  40.012   5.855
10319POPC   GL160661  13.664  39.962   6.155
10319POPC   GL260662  13.789  40.004   6.155
10319POPC   C1A60663  13.596  40.050   6.455
10319POPC   D2A60664  13.603  39.996   6.755
10319POPC   C3A60665  13.622  39.980   7.055
10319POPC   C4A60666  13.616  39.970   7.355
10319POPC   C1B60667  13.830  39.928   6.455
10319POPC   C2B60668  13.853  39.966   6.755
10319POPC   C3B60669  13.884  39.942   7.055
10319POPC   C4B60670  13.885  39.934   7.355
10320POPC   NC360671   0.419  39.261   5.555
10320POPC   PO460672   0.469  39.244   5.855
10320POPC   GL160673   0.443  39.198   6.155
10320POPC   GL260674   0.551  39.327   6.155
10320POPC   C1A60675   0.432  39.280   6.455
10320POPC   D2A60676   0.419  39.218   6.755
10320POPC   C3A60677   0.402  39.256   7.055
10320POPC   C4A60678   0.434  39.248   7.355
10320POPC   C1B60679   0.598  39.448   6.455
10320POPC   C2B60680   0.580  39.428   6.755
10320POPC   C3B60681   0.611  39.416   7.055
10320POPC   C4B60682   0.566  39.444   7.355
10321POPC   NC360683   3.492  38.504   5.555
10321POPC   PO460684   3.495  38.491   5.855
10321POPC   GL160685   3.591  38.481   6.155
10321POPC   GL260686   3.405  38.511   6.155
10321POPC   C1A60687   3.567  38.415   6.455
10321POPC   D2A60688   3.569  38.483   6.755
10321POPC   C3A60689   3.590  38.408   7.055
10321POPC   C4A60690   3.543  38.416   7.355
10321POPC   C1B60691   3.353  38.553   6.455
10321POPC   C2B60692   3.268  38.552   6.755
10321POPC   C3B60693   3.272  38.535   7.055
10321POPC   C4B60694   3.285  38.580   7.355
10322POPC   NC360695  19.860  22.126   5.555
10322POPC   PO460696  19.877  22.183   5.855
10322POPC   GL160697  19.819  22.212   6.155
10322POPC   GL260698  19.802  22.293   6.155
10322POPC   C1A60699  19.844  22.198   6.455
10322POPC   D2A60700  19.822  22.206   6.755
10322POPC   C3A60701  19.794  22.182   7.055
10322POPC   C4A60702  19.827  22.157   7.355
10322POPC   C1B60703  19.785  22.371   6.455
10322POPC   C2B60704  19.830  22.426   6.755
10322POPC   C3B60705  19.802  22.393   7.055
10322POPC   C4B60706  19.845  22.421   7.355
10323POPC   NC360707  22.170  17.465   5.555
10323POPC   PO460708  22.191  17.501   5.855
10323POPC   GL160709  22.145  17.522   6.155
10323POPC   GL260710  22.321  17.554   6.155
10323POPC   C1A60711  22.197  17.530   6.455
10323POPC   D2A60712  22.185  17.545   6.755
10323POPC   C3A60713  22.202  17.548   7.055
10323POPC   C4A60714  22.188  17.512   7.355
10323POPC   C1B60715  22.460  17.550   6.455
10323POPC   C2B60716  22.374  17.589   6.755
10323POPC   C3B60717  22.412  17.560   7.055
10323POPC   C4B60718  22.446  17.498   7.355
10324POPC   NC360719   1.951  13.654   5.555
10324POPC   PO460720   2.004  13.640   5.855
10324POPC   GL160721   1.996  13.586   6.155
10324POPC   GL260722   1.974  13.777   6.155
10324POPC   C1A60723   1.963  13.674   6.455
10324POPC   D2A60724   1.965  13.677   6.755
10324POPC   C3A60725   1.990  13.598   7.055
10324POPC   C4A60726   1.962  13.619   7.355
10324POPC   C1B60727   2.022  13.909   6.455
10324POPC   C2B60728   2.067  13.884   6.755
10324POPC   C3B60729   1.983  13.910   7.055
10324POPC   C4B60730   2.038  13.910   7.355
10325POPC   NC360731  43.851  13.674   5.555
10325POPC   PO460732  43.860  13.656   5.855
10325POPC   GL160733  43.916  13.620   6.155
10325POPC   GL260734  43.737  13.512   6.155
10325POPC   C1A60735  43.846  13.640   6.455
10325POPC   D2A60736  43.879  13.642   6.755
10325POPC   C3A60737  43.893  13.670   7.055
10325POPC   C4A60738  43.908  13.627   7.355
10325POPC   C1B60739  43.679  13.532   6.455
10325POPC   C2B60740  43.688  13.512   6.755
10325POPC   C3B60741  43.664  13.482   7.055
10325POPC   C4B60742  43.633  13.470   7.355
10326POPC   NC360743  44.646  10.516   5.555
10326POPC   PO460744  44.613  10.507   5.855
10326POPC   GL160745  44.704  10.505   6.155
10326POPC   GL260746  44.616  10.371   6.155
10326POPC   C1A60747  44.697  10.528   6.455
10326POPC   D2A60748  44.637  10.549   6.755
10326POPC   C3A60749  44.689  10.572   7.055
10326POPC   C4A60750  44.614  10.535   7.355
10326POPC   C1B60751  44.604  10.250   6.455
10326POPC   C2B60752  44.585  10.243   6.755
10326POPC   C3B60753  44.615  10.253   7.055
10326POPC   C4B60754  44.617  10.328   7.355
10327POPC   NC360755  42.340  25.256   5.555
10327POPC   PO460756  42.311  25.229   5.855
10327POPC   GL160757  42.376  25.229   6.155
10327POPC   GL260758  42.246  25.192   6.155
10327POPC   C1A60759  42.361  25.255   6.455
10327POPC   D2A60760  42.381  25.274   6.755
10327POPC   C3A60761  42.350  25.292   7.055
10327POPC   C4A60762  42.356  25.308   7.355
10327POPC   C1B60763  42.090  25.188   6.455
10327POPC   C2B60764  42.146  25.129   6.755
10327POPC   C3B60765  42.137  25.138   7.055
10327POPC   C4B60766  42.148  25.168   7.355
10328POPC   NC360767  21.402   2.745   5.555
10328POPC   PO460768  21.359   2.761   5.855
10328POPC   GL160769  21.418   2.810   6.155
10328POPC   GL260770  21.316   2.826   6.155
10328POPC   C1A60771  21.348   2.726   6.455
10328POPC   D2A60772  21.382   2.763   6.755
10328POPC   C3A60773  21.406   2.809   7.055
10328POPC   C4A60774  21.417   2.731   7.355
10328POPC   C1B60775  21.163   2.899   6.455
10328POPC   C2B60776  21.153   2.893   6.755
10328POPC   C3B60777  21.145   2.885   7.055
10328POPC   C4B60778  21.207   2.929   7.355
10329POPC   NC360779  43.858  32.212   5.555
10329POPC   PO460780  43.925  32.234   5.855
10329POPC   GL160781  43.895  32.258   6.155
10329POPC   GL260782  43.812  32.366   6.155
10329POPC   C1A60783  43.926  32.221   6.455
10329POPC   D2A60784  43.935  32.210   6.755
10329POPC   C3A60785  43.912  32.259   7.055
10329POPC   C4A60786  43.933  32.199   7.355
10329POPC   C1B60787  43.769  32.465   6.455
10329POPC   C2B60788  43.742  32.426   6.755
10329POPC   C3B60789  43.703  32.445   7.055
10329POPC   C4B60790  43.729  32.469   7.355
10330POPC   NC360791  15.185  24.464   5.555
10330POPC   PO460792  15.148  24.458   5.855
10330POPC   GL160793  15.192  24.497   6.155
10330POPC   GL260794  15.142  24.387   6.155
10330POPC   C1A60795  15.175  24.519   6.455
10330POPC   D2A60796  15.190  24.507   6.755
10330POPC   C3A60797  15.155  24.524   7.055
10330POPC   C4A60798  15.150  24.530   7.355
10330POPC   C1B60799  15.111  24.218   6.455
10330POPC   C2B60800  15.105  24.274   6.755
10330POPC   C3B60801  15.076  24.220   7.055
10330POPC   C4B60802  15.085  24.247   7.355
10331POPC   NC360803  37.727  33.791   5.555
10331POPC   PO460804  37.723  33.841   5.855
10331POPC   GL160805  37.679  33.822   6.155
10331POPC   GL260806  37.553  33.730   6.155
10331POPC   C1A60807  37.630  33.825   6.455
10331POPC   D2A60808  37.678  33.848   6.755
10331POPC   C3A60809  37.673  33.805   7.055
10331POPC   C4A60810  37.664  33.763   7.355
10331POPC   C1B60811  37.482  33.764   6.455
10331POPC   C2B60812  37.403  33.802   6.755
10331POPC   C3B60813  37.425  33.760   7.055
10331POPC   C4B60814  37.422  33.774   7.355
10332POPC   NC360815  22.154  28.362   5.555
10332POPC   PO460816  22.180  28.390   5.855
10332POPC   GL160817  22.209  28.406   6.155
10332POPC   GL260818  22.054  28.277   6.155
10332POPC   C1A60819  22.161  28.388   6.455
10332POPC   D2A60820  22.151  28.389   6.755
10332POPC   C3A60821  22.174  28.349   7.055
10332POPC   C4A60822  22.122  28.337   7.355
10332POPC   C1B60823  21.963  28.273   6.455
10332POPC   C2B60824  21.942  28.301   6.755
10332POPC   C3B60825  21.936  28.281   7.055
10332POPC   C4B60826  21.913  28.246   7.355
10333POPC   NC360827  42.298  36.855   5.555
10333POPC   PO460828  42.316  36.891   5.855
10333POPC   GL160829  42.304  36.857   6.155
10333POPC   GL260830  42.360  36.787   6.155
10333POPC   C1A60831  42.373  36.945   6.455
10333POPC   D2A60832  42.351  36.891   6.755
10333POPC   C3A60833  42.315  36.938   7.055
10333POPC   C4A60834  42.336  36.951   7.355
10333POPC   C1B60835  42.472  36.648   6.455
10333POPC   C2B60836  42.484  36.675   6.755
10333POPC   C3B60837  42.393  36.625   7.055
10333POPC   C4B60838  42.393  36.678   7.355
10334POPC   NC360839  32.238  19.858   5.555
10334POPC   PO460840  32.293  19.787   5.855
10334POPC   GL160841  32.291  19.814   6.155
10334POPC   GL260842  32.232  19.722   6.155
10334POPC   C1A60843  32.223  19.787   6.455
10334POPC   D2A60844  32.212  19.867   6.755
10334POPC   C3A60845  32.254  19.875   7.055
10334POPC   C4A60846  32.199  19.828   7.355
10334POPC   C1B60847  32.189  19.579   6.455
10334POPC   C2B60848  32.241  19.548   6.755
10334POPC   C3B60849  32.185  19.589   7.055
10334POPC   C4B60850  32.171  19.619   7.355
10335POPC   NC360851  26.776   4.340   5.555
10335POPC   PO460852  26.857   4.366   5.855
10335POPC   GL160853  26.791   4.303   6.155
10335POPC   GL260854  26.881   4.262   6.155
10335POPC   C1A60855  26.836   4.293   6.455
10335POPC   D2A60856  26.809   4.276   6.755
10335POPC   C3A60857  26.863   4.337   7.055
10335POPC   C4A60858  26.856   4.304   7.355
10335POPC   C1B60859  27.015   4.145   6.455
10335POPC   C2B60860  27.015   4.189   6.755
10335POPC   C3B60861  27.031   4.147   7.055
10335POPC   C4B60862  27.014   4.155   7.355
10336POPC   NC360863  44.662   9.745   5.555
10336POPC   PO460864  44.639   9.771   5.855
10336POPC   GL160865  44.627   9.730   6.155
10336POPC   GL260866  44.582   9.788   6.155
10336POPC   C1A60867  44.647   9.738   6.455
10336POPC   D2A60868  44.690   9.780   6.755
10336POPC   C3A60869  44.620   9.769   7.055
10336POPC   C4A60870  44.709   9.793   7.355
10336POPC   C1B60871  44.421   9.826   6.455
10336POPC   C2B60872  44.440   9.864   6.755
10336POPC   C3B60873  44.450   9.858   7.055
10336POPC   C4B60874  44.439   9.820   7.355
10337POPC   NC360875  41.530  25.244   5.555
10337POPC   PO460876  41.608  25.311   5.855
10337POPC   GL160877  41.549  25.267   6.155
10337POPC   GL260878  41.649  25.217   6.155
10337POPC   C1A60879  41.608  25.232   6.455
10337POPC   D2A60880  41.554  25.298   6.755
10337POPC   C3A60881  41.601  25.255   7.055
10337POPC   C4A60882  41.525  25.231   7.355
10337POPC   C1B60883  41.759  25.068   6.455
10337POPC   C2B60884  41.764  25.089   6.755
10337POPC   C3B60885  41.751  25.056   7.055
10337POPC   C4B60886  41.706  25.118   7.355
10338POPC   NC360887   6.662  33.818   5.555
10338POPC   PO460888   6.678  33.835   5.855
10338POPC   GL160889   6.610  33.787   6.155
10338POPC   GL260890   6.753  33.739   6.155
10338POPC   C1A60891   6.640  33.775   6.455
10338POPC   D2A60892   6.632  33.764   6.755
10338POPC   C3A60893   6.607  33.758   7.055
10338POPC   C4A60894   6.681  33.751   7.355
10338POPC   C1B60895   6.845  33.678   6.455
10338POPC   C2B60896   6.867  33.751   6.755
10338POPC   C3B60897   6.898  33.740   7.055
10338POPC   C4B60898   6.927  33.685   7.355
10339POPC   NC360899  24.499  29.170   5.555
10339POPC   PO460900  24.495  29.156   5.855
10339POPC   GL160901  24.493  29.151   6.155
10339POPC   GL260902  24.582  29.188   6.155
10339POPC   C1A60903  24.460  29.097   6.455
10339POPC   D2A60904  24.519  29.126   6.755
10339POPC   C3A60905  24.531  29.147   7.055
10339POPC   C4A60906  24.473  29.120   7.355
10339POPC   C1B60907  24.626  29.314   6.455
10339POPC   C2B60908  24.642  29.325   6.755
10339POPC   C3B60909  24.686  29.347   7.055
10339POPC   C4B60910  24.696  29.294   7.355
10340POPC   NC360911  32.224   8.958   5.555
10340POPC   PO460912  32.282   8.968   5.855
10340POPC   GL160913  32.256   9.000   6.155
10340POPC   GL260914  32.399   8.887   6.155
10340POPC   C1A60915  32.245   8.950   6.455
10340POPC   D2A60916  32.274   8.939   6.755
10340POPC   C3A60917  32.277   8.956   7.055
10340POPC   C4A60918  32.248   8.938   7.355
10340POPC   C1B60919  32.512   8.913   6.455
10340POPC   C2B60920  32.452   8.890   6.755
10340POPC   C3B60921  32.478   8.854   7.055
10340POPC   C4B60922  32.530   8.906   7.355
10341POPC   NC360923  29.175  17.512   5.555
10341POPC   PO460924  29.111  17.549   5.855
10341POPC   GL160925  29.187  17.513   6.155
10341POPC   GL260926  29.087  17.620   6.155
10341POPC   C1A60927  29.147  17.491   6.455
10341POPC   D2A60928  29.123  17.462   6.755
10341POPC   C3A60929  29.156  17.507   7.055
10341POPC   C4A60930  29.112  17.480   7.355
10341POPC   C1B60931  29.054  17.750   6.455
10341POPC   C2B60932  29.036  17.757   6.755
10341POPC   C3B60933  29.054  17.740   7.055
10341POPC   C4B60934  29.094  17.776   7.355
10342POPC   NC360935   5.092  33.846   5.555
10342POPC   PO460936   5.108  33.812   5.855
10342POPC   GL160937   5.051  33.845   6.155
10342POPC   GL260938   5.030  33.722   6.155
10342POPC   C1A60939   5.093  33.814   6.455
10342POPC   D2A60940   5.073  33.779   6.755
10342POPC   C3A60941   5.086  33.795   7.055
10342POPC   C4A60942   5.089  33.824   7.355
10342POPC   C1B60943   4.963  33.550   6.455
10342POPC   C2B60944   4.917  33.595   6.755
10342POPC   C3B60945   4.968  33.587   7.055
10342POPC   C4B60946   4.900  33.560   7.355
10343POPC   NC360947  28.386  12.065   5.555
10343POPC   PO460948  28.400  12.077   5.855
10343POPC   GL160949  28.404  12.074   6.155
10343POPC   GL260950  28.223  12.101   6.155
10343POPC   C1A60951  28.348  12.123   6.455
10343POPC   D2A60952  28.342  12.029   6.755
10343POPC   C3A60953  28.366  12.123   7.055
10343POPC   C4A60954  28.346  12.118   7.355
10343POPC   C1B60955  28.184  12.236   6.455
10343POPC   C2B60956  28.145  12.166   6.755
10343POPC   C3B60957  28.103  12.167   7.055
10343POPC   C4B60958  28.124  12.179   7.355
10344POPC   NC360959  42.286  38.428   5.555
10344POPC   PO460960  42.299  38.465   5.855
10344POPC   GL160961  42.380  38.505   6.155
10344POPC   GL260962  42.363  38.536   6.155
10344POPC   C1A60963  42.318  38.462   6.455
10344POPC   D2A60964  42.374  38.431   6.755
10344POPC   C3A60965  42.367  38.476   7.055
10344POPC   C4A60966  42.307  38.431   7.355
10344POPC   C1B60967  42.283  38.672   6.455
10344POPC   C2B60968  42.278  38.719   6.755
10344POPC   C3B60969  42.335  38.754   7.055
10344POPC   C4B60970  42.335  38.713   7.355
10345POPC   NC360971  14.390  43.134   5.555
10345POPC   PO460972  14.384  43.064   5.855
10345POPC   GL160973  14.416  43.100   6.155
10345POPC   GL260974  14.284  43.083   6.155
10345POPC   C1A60975  14.360  43.084   6.455
10345POPC   D2A60976  14.358  43.065   6.755
10345POPC   C3A60977  14.407  43.138   7.055
10345POPC   C4A60978  14.381  43.115   7.355
10345POPC   C1B60979  14.118  43.132   6.455
10345POPC   C2B60980  14.120  43.100   6.755
10345POPC   C3B60981  14.134  43.080   7.055
10345POPC   C4B60982  14.193  43.115   7.355
10346POPC   NC360983  26.824  22.890   5.555
10346POPC   PO460984  26.831  22.914   5.855
10346POPC   GL160985  26.830  22.988   6.155
10346POPC   GL260986  26.902  22.936   6.155
10346POPC   C1A60987  26.817  22.909   6.455
10346POPC   D2A60988  26.846  22.902   6.755
10346POPC   C3A60989  26.809  22.953   7.055
10346POPC   C4A60990  26.770  22.943   7.355
10346POPC   C1B60991  27.014  22.998   6.455
10346POPC   C2B60992  27.018  23.080   6.755
10346POPC   C3B60993  27.054  23.048   7.055
10346POPC   C4B60994  27.030  22.989   7.355
10347POPC   NC360995  40.029  34.619   5.555
10347POPC   PO460996  39.985  34.538   5.855
10347POPC   GL160997  39.966  34.592   6.155
10347POPC   GL260998  39.967  34.512   6.155
10347POPC   C1A60999  39.975  34.558   6.455
10347POPC   D2A61000  40.032  34.548   6.755
10347POPC   C3A61001  40.052  34.621   7.055
10347POPC   C4A61002  39.999  34.557   7.355
10347POPC   C1B61003  39.811  34.417   6.455
10347POPC   C2B61004  39.853  34.381   6.755
10347POPC   C3B61005  39.879  34.379   7.055
10347POPC   C4B61006  39.872  34.365   7.355
10348POPC   NC361007  27.578  27.576   5.555
10348POPC   PO461008  27.579  27.596   5.855
10348POPC   GL161009  27.613  27.549   6.155
10348POPC   GL261010  27.666  27.444   6.155
10348POPC   C1A61011  27.562  27.627   6.455
10348POPC   D2A61012  27.561  27.642   6.755
10348POPC   C3A61013  27.600  27.567   7.055
10348POPC   C4A61014  27.611  27.626   7.355
10348POPC   C1B61015  27.608  27.363   6.455
10348POPC   C2B61016  27.658  27.371   6.755
10348POPC   C3B61017  27.599  27.351   7.055
10348POPC   C4B61018  27.620  27.358   7.355
10349POPC   NC361019  29.902  33.071   5.555
10349POPC   PO461020  29.872  33.056   5.855
10349POPC   GL161021  29.921  33.004   6.155
10349POPC   GL261022  29.882  32.906   6.155
10349POPC   C1A61023  29.895  33.041   6.455
10349POPC   D2A61024  29.936  33.031   6.755
10349POPC   C3A61025  29.896  33.018   7.055
10349POPC   C4A61026  29.899  33.015   7.355
10349POPC   C1B61027  29.805  32.862   6.455
10349POPC   C2B61028  29.775  32.792   6.755
10349POPC   C3B61029  29.783  32.843   7.055
10349POPC   C4B61030  29.755  32.798   7.355
10350POPC   NC361031  11.339  42.326   5.555
10350POPC   PO461032  11.324  42.295   5.855
10350POPC   GL161033  11.285  42.294   6.155
10350POPC   GL261034  11.278  42.434   6.155
10350POPC   C1A61035  11.284  42.303   6.455
10350POPC   D2A61036  11.265  42.361   6.755
10350POPC   C3A61037  11.262  42.321   7.055
10350POPC   C4A61038  11.284  42.344   7.355
10350POPC   C1B61039  11.157  42.553   6.455
10350POPC   C2B61040  11.163  42.506   6.755
10350POPC   C3B61041  11.213  42.560   7.055
10350POPC   C4B61042  11.147  42.578   7.355
10351POPC   NC361043  43.915  29.916   5.555
10351POPC   PO461044  43.855  29.942   5.855
10351POPC   GL161045  43.905  29.945   6.155
10351POPC   GL261046  43.752  29.862   6.155
10351POPC   C1A61047  43.927  29.939   6.455
10351POPC   D2A61048  43.887  29.888   6.755
10351POPC   C3A61049  43.921  29.929   7.055
10351POPC   C4A61050  43.867  29.914   7.355
10351POPC   C1B61051  43.676  29.830   6.455
10351POPC   C2B61052  43.671  29.853   6.755
10351POPC   C3B61053  43.667  29.844   7.055
10351POPC   C4B61054  43.699  29.812   7.355
10352POPC   NC361055   9.716  38.458   5.555
10352POPC   PO461056   9.795  38.471   5.855
10352POPC   GL161057   9.764  38.454   6.155
10352POPC   GL261058   9.843  38.447   6.155
10352POPC   C1A61059   9.767  38.459   6.455
10352POPC   D2A61060   9.785  38.453   6.755
10352POPC   C3A61061   9.756  38.433   7.055
10352POPC   C4A61062   9.749  38.450   7.355
10352POPC   C1B61063  10.027  38.456   6.455
10352POPC   C2B61064  10.020  38.362   6.755
10352POPC   C3B61065   9.965  38.428   7.055
10352POPC   C4B61066   9.946  38.393   7.355
10353POPC   NC361067  19.872  41.534   5.555
10353POPC   PO461068  19.804  41.525   5.855
10353POPC   GL161069  19.861  41.538   6.155
10353POPC   GL261070  19.966  41.554   6.155
10353POPC   C1A61071  19.831  41.579   6.455
10353POPC   D2A61072  19.798  41.530   6.755
10353POPC   C3A61073  19.854  41.604   7.055
10353POPC   C4A61074  19.859  41.579   7.355
10353POPC   C1B61075  20.068  41.529   6.455
10353POPC   C2B61076  20.089  41.494   6.755
10353POPC   C3B61077  20.130  41.479   7.055
10353POPC   C4B61078  20.058  41.489   7.355
10354POPC   NC361079   2.724  15.227   5.555
10354POPC   PO461080   2.766  15.225   5.855
10354POPC   GL161081   2.765  15.203   6.155
10354POPC   GL261082   2.693  15.265   6.155
10354POPC   C1A61083   2.728  15.142   6.455
10354POPC   D2A61084   2.785  15.185   6.755
10354POPC   C3A61085   2.782  15.171   7.055
10354POPC   C4A61086   2.788  15.163   7.355
10354POPC   C1B61087   2.694  15.452   6.455
10354POPC   C2B61088   2.707  15.387   6.755
10354POPC   C3B61089   2.710  15.390   7.055
10354POPC   C4B61090   2.660  15.393   7.355
10355POPC   NC361091  36.949  29.876   5.555
10355POPC   PO461092  36.883  29.940   5.855
10355POPC   GL161093  36.891  29.897   6.155
10355POPC   GL261094  37.003  29.945   6.155
10355POPC   C1A61095  36.871  29.942   6.455
10355POPC   D2A61096  36.864  29.919   6.755
10355POPC   C3A61097  36.863  29.968   7.055
10355POPC   C4A61098  36.949  29.943   7.355
10355POPC   C1B61099  37.157  29.983   6.455
10355POPC   C2B61100  37.119  29.978   6.755
10355POPC   C3B61101  37.183  29.978   7.055
10355POPC   C4B61102  37.181  29.977   7.355
10356POPC   NC361103  24.513  44.674   5.555
10356POPC   PO461104  24.472  44.614   5.855
10356POPC   GL161105  24.494  44.689   6.155
10356POPC   GL261106  24.574  44.714   6.155
10356POPC   C1A61107  24.470  44.631   6.455
10356POPC   D2A61108  24.446  44.666   6.755
10356POPC   C3A61109  24.523  44.686   7.055
10356POPC   C4A61110  24.492  44.690   7.355
10356POPC   C1B61111  24.731  44.744   6.455
10356POPC   C2B61112  24.759  44.684   6.755
10356POPC   C3B61113  24.712  44.760   7.055
10356POPC   C4B61114  24.711  44.669   7.355
10357POPC   NC361115  10.508  41.602   5.555
10357POPC   PO461116  10.546  41.543   5.855
10357POPC   GL161117  10.554  41.584   6.155
10357POPC   GL261118  10.548  41.665   6.155
10357POPC   C1A61119  10.480  41.544   6.455
10357POPC   D2A61120  10.479  41.541   6.755
10357POPC   C3A61121  10.501  41.537   7.055
10357POPC   C4A61122  10.484  41.514   7.355
10357POPC   C1B61123  10.692  41.816   6.455
10357POPC   C2B61124  10.684  41.723   6.755
10357POPC   C3B61125  10.695  41.730   7.055
10357POPC   C4B61126  10.703  41.750   7.355
10358POPC   NC361127  42.371  28.395   5.555
10358POPC   PO461128  42.311  28.345   5.855
10358POPC   GL161129  42.324  28.328   6.155
10358POPC   GL261130  42.432  28.259   6.155
10358POPC   C1A61131  42.313  28.373   6.455
10358POPC   D2A61132  42.287  28.357   6.755
10358POPC   C3A61133  42.358  28.368   7.055
10358POPC   C4A61134  42.384  28.326   7.355
10358POPC   C1B61135  42.569  28.265   6.455
10358POPC   C2B61136  42.495  28.245   6.755
10358POPC   C3B61137  42.498  28.173   7.055
10358POPC   C4B61138  42.496  28.237   7.355
10359POPC   NC361139  43.846   2.031   5.555
10359POPC   PO461140  43.849   1.998   5.855
10359POPC   GL161141  43.881   2.008   6.155
10359POPC   GL261142  44.011   2.059   6.155
10359POPC   C1A61143  43.836   1.976   6.455
10359POPC   D2A61144  43.918   1.950   6.755
10359POPC   C3A61145  43.874   1.963   7.055
10359POPC   C4A61146  43.837   2.017   7.355
10359POPC   C1B61147  44.125   2.078   6.455
10359POPC   C2B61148  44.088   2.105   6.755
10359POPC   C3B61149  44.089   2.084   7.055
10359POPC   C4B61150  44.131   2.070   7.355
10360POPC   NC361151  28.352   4.274   5.555
10360POPC   PO461152  28.325   4.329   5.855
10360POPC   GL161153  28.363   4.310   6.155
10360POPC   GL261154  28.233   4.224   6.155
10360POPC   C1A61155  28.353   4.359   6.455
10360POPC   D2A61156  28.331   4.294   6.755
10360POPC   C3A61157  28.404   4.286   7.055
10360POPC   C4A61158  28.333   4.312   7.355
10360POPC   C1B61159  28.121   4.135   6.455
10360POPC   C2B61160  28.206   4.167   6.755
10360POPC   C3B61161  28.210   4.166   7.055
10360POPC   C4B61162  28.202   4.217   7.355
10361POPC   NC361163   0.471  26.833   5.555
10361POPC   PO461164   0.453  26.795   5.855
10361POPC   GL161165   0.452  26.773   6.155
10361POPC   GL261166   0.388  26.664   6.155
10361POPC   C1A61167   0.401  26.863   6.455
10361POPC   D2A61168   0.485  26.826   6.755
10361POPC   C3A61169   0.406  26.805   7.055
10361POPC   C4A61170   0.457  26.795   7.355
10361POPC   C1B61171   0.413  26.606   6.455
10361POPC   C2B61172   0.399  26.617   6.755
10361POPC   C3B61173   0.416  26.615   7.055
10361POPC   C4B61174   0.390  26.519   7.355
10362POPC   NC361175   8.165  20.608   5.555
10362POPC   PO461176   8.151  20.640   5.855
10362POPC   GL161177   8.212  20.611   6.155
10362POPC   GL261178   8.349  20.592   6.155
10362POPC   C1A61179   8.246  20.591   6.455
10362POPC   D2A61180   8.148  20.607   6.755
10362POPC   C3A61181   8.158  20.598   7.055
10362POPC   C4A61182   8.221  20.601   7.355
10362POPC   C1B61183   8.403  20.465   6.455
10362POPC   C2B61184   8.399  20.528   6.755
10362POPC   C3B61185   8.377  20.442   7.055
10362POPC   C4B61186   8.390  20.446   7.355
10363POPC   NC361187   0.478  43.140   5.555
10363POPC   PO461188   0.457  43.061   5.855
10363POPC   GL161189   0.487  43.066   6.155
10363POPC   GL261190   0.395  43.197   6.155
10363POPC   C1A61191   0.488  43.096   6.455
10363POPC   D2A61192   0.395  43.144   6.755
10363POPC   C3A61193   0.478  43.114   7.055
10363POPC   C4A61194   0.415  43.076   7.355
10363POPC   C1B61195   0.302  43.329   6.455
10363POPC   C2B61196   0.262  43.324   6.755
10363POPC   C3B61197   0.324  43.312   7.055
10363POPC   C4B61198   0.327  43.320   7.355
10364POPC   NC361199  17.552  26.824   5.555
10364POPC   PO461200  17.499  26.771   5.855
10364POPC   GL161201  17.519  26.788   6.155
10364POPC   GL261202  17.659  26.799   6.155
10364POPC   C1A61203  17.539  26.794   6.455
10364POPC   D2A61204  17.517  26.840   6.755
10364POPC   C3A61205  17.485  26.780   7.055
10364POPC   C4A61206  17.465  26.827   7.355
10364POPC   C1B61207  17.779  26.806   6.455
10364POPC   C2B61208  17.709  26.831   6.755
10364POPC   C3B61209  17.765  26.810   7.055
10364POPC   C4B61210  17.721  26.770   7.355
10365POPC   NC361211   1.175   5.877   5.555
10365POPC   PO461212   1.166   5.836   5.855
10365POPC   GL161213   1.249   5.843   6.155
10365POPC   GL261214   1.114   5.833   6.155
10365POPC   C1A61215   1.192   5.875   6.455
10365POPC   D2A61216   1.229   5.832   6.755
10365POPC   C3A61217   1.220   5.867   7.055
10365POPC   C4A61218   1.242   5.819   7.355
10365POPC   C1B61219   0.989   5.705   6.455
10365POPC   C2B61220   1.044   5.738   6.755
10365POPC   C3B61221   0.951   5.721   7.055
10365POPC   C4B61222   0.974   5.732   7.355
10366POPC   NC361223  15.945  26.067   5.555
10366POPC   PO461224  15.975  26.012   5.855
10366POPC   GL161225  15.950  25.999   6.155
10366POPC   GL261226  15.876  26.050   6.155
10366POPC   C1A61227  15.951  26.044   6.455
10366POPC   D2A61228  15.955  26.011   6.755
10366POPC   C3A61229  15.938  26.011   7.055
10366POPC   C4A61230  15.975  26.017   7.355
10366POPC   C1B61231  15.683  26.015   6.455
10366POPC   C2B61232  15.714  26.045   6.755
10366POPC   C3B61233  15.706  25.962   7.055
10366POPC   C4B61234  15.711  25.991   7.355
10367POPC   NC361235  31.450   7.394   5.555
10367POPC   PO461236  31.483   7.392   5.855
10367POPC   GL161237  31.508   7.445   6.155
10367POPC   GL261238  31.379   7.378   6.155
10367POPC   C1A61239  31.514   7.395   6.455
10367POPC   D2A61240  31.520   7.438   6.755
10367POPC   C3A61241  31.474   7.409   7.055
10367POPC   C4A61242  31.448   7.387   7.355
10367POPC   C1B61243  31.341   7.266   6.455
10367POPC   C2B61244  31.322   7.250   6.755
10367POPC   C3B61245  31.331   7.276   7.055
10367POPC   C4B61246  31.323   7.246   7.355
10368POPC   NC361247  12.902  26.043   5.555
10368POPC   PO461248  12.863  25.996   5.855
10368POPC   GL161249  12.810  26.066   6.155
10368POPC   GL261250  12.943  26.161   6.155
10368POPC   C1A61251  12.841  26.069   6.455
10368POPC   D2A61252  12.822  26.007   6.755
10368POPC   C3A61253  12.834  26.000   7.055
10368POPC   C4A61254  12.806  26.055   7.355
10368POPC   C1B61255  12.977  26.232   6.455
10368POPC   C2B61256  13.018  26.246   6.755
10368POPC   C3B61257  13.017  26.292   7.055
10368POPC   C4B61258  12.994  26.265   7.355
10369POPC   NC361259  42.333  15.175   5.555
10369POPC   PO461260  42.291  15.205   5.855
10369POPC   GL161261  42.324  15.152   6.155
10369POPC   GL261262  42.249  15.183   6.155
10369POPC   C1A61263  42.317  15.178   6.455
10369POPC   D2A61264  42.367  15.187   6.755
10369POPC   C3A61265  42.286  15.178   7.055
10369POPC   C4A61266  42.376  15.178   7.355
10369POPC   C1B61267  42.102  15.263   6.455
10369POPC   C2B61268  42.097  15.280   6.755
10369POPC   C3B61269  42.067  15.276   7.055
10369POPC   C4B61270  42.078  15.310   7.355
10370POPC   NC361271  24.538  39.260   5.555
10370POPC   PO461272  24.532  39.262   5.855
10370POPC   GL161273  24.473  39.234   6.155
10370POPC   GL261274  24.556  39.187   6.155
10370POPC   C1A61275  24.468  39.223   6.455
10370POPC   D2A61276  24.468  39.248   6.755
10370POPC   C3A61277  24.472  39.280   7.055
10370POPC   C4A61278  24.508  39.199   7.355
10370POPC   C1B61279  24.737  39.090   6.455
10370POPC   C2B61280  24.727  39.131   6.755
10370POPC   C3B61281  24.677  39.137   7.055
10370POPC   C4B61282  24.661  39.102   7.355
10371POPC   NC361283  22.926  29.884   5.555
10371POPC   PO461284  22.932  29.871   5.855
10371POPC   GL161285  22.909  29.959   6.155
10371POPC   GL261286  22.873  30.064   6.155
10371POPC   C1A61287  22.918  29.904   6.455
10371POPC   D2A61288  22.945  29.916   6.755
10371POPC   C3A61289  22.967  29.899   7.055
10371POPC   C4A61290  22.924  29.904   7.355
10371POPC   C1B61291  22.744  30.153   6.455
10371POPC   C2B61292  22.823  30.136   6.755
10371POPC   C3B61293  22.776  30.125   7.055
10371POPC   C4B61294  22.782  30.088   7.355
10372POPC   NC361295  29.955   4.297   5.555
10372POPC   PO461296  29.914   4.279   5.855
10372POPC   GL161297  29.910   4.314   6.155
10372POPC   GL261298  30.085   4.363   6.155
10372POPC   C1A61299  29.951   4.305   6.455
10372POPC   D2A61300  29.880   4.295   6.755
10372POPC   C3A61301  29.873   4.290   7.055
10372POPC   C4A61302  29.960   4.340   7.355
10372POPC   C1B61303  30.174   4.441   6.455
10372POPC   C2B61304  30.133   4.413   6.755
10372POPC   C3B61305  30.162   4.433   7.055
10372POPC   C4B61306  30.157   4.370   7.355
10373POPC   NC361307  29.894   3.509   5.555
10373POPC   PO461308  29.952   3.573   5.855
10373POPC   GL161309  29.969   3.584   6.155
10373POPC   GL261310  30.033   3.397   6.155
10373POPC   C1A61311  29.886   3.582   6.455
10373POPC   D2A61312  29.965   3.584   6.755
10373POPC   C3A61313  29.928   3.566   7.055
10373POPC   C4A61314  29.875   3.566   7.355
10373POPC   C1B61315  30.066   3.318   6.455
10373POPC   C2B61316  30.021   3.366   6.755
10373POPC   C3B61317  30.070   3.286   7.055
10373POPC   C4B61318  30.059   3.366   7.355
10374POPC   NC361319  12.057   8.168   5.555
10374POPC   PO461320  12.077   8.166   5.855
10374POPC   GL161321  12.091   8.173   6.155
10374POPC   GL261322  12.035   8.092   6.155
10374POPC   C1A61323  12.114   8.191   6.455
10374POPC   D2A61324  12.098   8.221   6.755
10374POPC   C3A61325  12.096   8.157   7.055
10374POPC   C4A61326  12.103   8.152   7.355
10374POPC   C1B61327  11.862   8.058   6.455
10374POPC   C2B61328  11.890   8.045   6.755
10374POPC   C3B61329  11.912   8.063   7.055
10374POPC   C4B61330  11.932   8.004   7.355
10375POPC   NC361331  26.862   1.221   5.555
10375POPC   PO461332  26.776   1.257   5.855
10375POPC   GL161333  26.787   1.234   6.155
10375POPC   GL261334  26.958   1.099   6.155
10375POPC   C1A61335  26.810   1.239   6.455
10375POPC   D2A61336  26.769   1.176   6.755
10375POPC   C3A61337  26.815   1.221   7.055
10375POPC   C4A61338  26.838   1.241   7.355
10375POPC   C1B61339  27.040   1.057   6.455
10375POPC   C2B61340  27.039   1.035   6.755
10375POPC   C3B61341  27.020   1.023   7.055
10375POPC   C4B61342  26.975   1.072   7.355
10376POPC   NC361343  40.748   8.165   5.555
10376POPC   PO461344  40.733   8.224   5.855
10376POPC   GL161345  40.769   8.187   6.155
10376POPC   GL261346  40.712   8.119   6.155
10376POPC   C1A61347  40.778   8.166   6.455
10376POPC   D2A61348  40.813   8.225   6.755
10376POPC   C3A61349  40.818   8.237   7.055
10376POPC   C4A61350  40.761   8.197   7.355
10376POPC   C1B61351  40.677   8.005   6.455
10376POPC   C2B61352  40.665   8.002   6.755
10376POPC   C3B61353  40.646   7.957   7.055
10376POPC   C4B61354  40.677   7.964   7.355
10377POPC   NC361355  22.941  32.216   5.555
10377POPC   PO461356  22.952  32.287   5.855
10377POPC   GL161357  22.922  32.266   6.155
10377POPC   GL261358  22.989  32.178   6.155
10377POPC   C1A61359  22.947  32.280   6.455
10377POPC   D2A61360  22.924  32.239   6.755
10377POPC   C3A61361  22.962  32.239   7.055
10377POPC   C4A61362  22.965  32.285   7.355
10377POPC   C1B61363  23.057  32.050   6.455
10377POPC   C2B61364  23.125  32.092   6.755
10377POPC   C3B61365  23.118  32.054   7.055
10377POPC   C4B61366  23.091  32.038   7.355
10378POPC   NC361367  40.789   6.655   5.555
10378POPC   PO461368  40.752   6.628   5.855
10378POPC   GL161369  40.756   6.671   6.155
10378POPC   GL261370  40.730   6.812   6.155
10378POPC   C1A61371  40.831   6.649   6.455
10378POPC   D2A61372  40.755   6.651   6.755
10378POPC   C3A61373  40.787   6.653   7.055
10378POPC   C4A61374  40.789   6.612   7.355
10378POPC   C1B61375  40.762   6.885   6.455
10378POPC   C2B61376  40.742   6.894   6.755
10378POPC   C3B61377  40.757   6.928   7.055
10378POPC   C4B61378  40.707   6.885   7.355
10379POPC   NC361379  19.015  24.458   5.555
10379POPC   PO461380  19.102  24.505   5.855
10379POPC   GL161381  19.090  24.486   6.155
10379POPC   GL261382  19.186  24.518   6.155
10379POPC   C1A61383  19.095  24.471   6.455
10379POPC   D2A61384  19.030  24.534   6.755
10379POPC   C3A61385  19.105  24.514   7.055
10379POPC   C4A61386  19.048  24.468   7.355
10379POPC   C1B61387  19.261  24.541   6.455
10379POPC   C2B61388  19.287  24.540   6.755
10379POPC   C3B61389  19.291  24.523   7.055
10379POPC   C4B61390  19.307  24.590   7.355
10380POPC   NC361391  22.966  38.459   5.555
10380POPC   PO461392  22.922  38.482   5.855
10380POPC   GL161393  22.953  38.480   6.155
10380POPC   GL261394  22.969  38.568   6.155
10380POPC   C1A61395  22.969  38.457   6.455
10380POPC   D2A61396  22.977  38.419   6.755
10380POPC   C3A61397  22.899  38.457   7.055
10380POPC   C4A61398  22.914  38.432   7.355
10380POPC   C1B61399  23.018  38.662   6.455
10380POPC   C2B61400  22.965  38.747   6.755
10380POPC   C3B61401  22.986  38.751   7.055
10380POPC   C4B61402  22.970  38.728   7.355
10381POPC   NC361403  28.322   2.811   5.555
10381POPC   PO461404  28.378   2.737   5.855
10381POPC   GL161405  28.410   2.774   6.155
10381POPC   GL261406  28.336   2.681   6.155
10381POPC   C1A61407  28.325   2.738   6.455
10381POPC   D2A61408  28.412   2.728   6.755
10381POPC   C3A61409  28.367   2.780   7.055
10381POPC   C4A61410  28.370   2.764   7.355
10381POPC   C1B61411  28.245   2.611   6.455
10381POPC   C2B61412  28.263   2.519   6.755
10381POPC   C3B61413  28.248   2.591   7.055
10381POPC   C4B61414  28.172   2.544   7.355
10382POPC   NC361415  19.857  21.430   5.555
10382POPC   PO461416  19.803  21.402   5.855
10382POPC   GL161417  19.816  21.420   6.155
10382POPC   GL261418  19.964  21.313   6.155
10382POPC   C1A61419  19.785  21.390   6.455
10382POPC   D2A61420  19.836  21.388   6.755
10382POPC   C3A61421  19.820  21.426   7.055
10382POPC   C4A61422  19.837  21.373   7.355
10382POPC   C1B61423  19.979  21.185   6.455
10382POPC   C2B61424  20.017  21.252   6.755
10382POPC   C3B61425  20.020  21.221   7.055
10382POPC   C4B61426  20.020  21.225   7.355
10383POPC   NC361427  12.063   5.914   5.555
10383POPC   PO461428  12.075   5.888   5.855
10383POPC   GL161429  12.097   5.867   6.155
10383POPC   GL261430  12.200   5.873   6.155
10383POPC   C1A61431  12.053   5.845   6.455
10383POPC   D2A61432  12.106   5.827   6.755
10383POPC   C3A61433  12.111   5.827   7.055
10383POPC   C4A61434  12.026   5.859   7.355
10383POPC   C1B61435  12.303   6.008   6.455
10383POPC   C2B61436  12.330   6.020   6.755
10383POPC   C3B61437  12.321   5.997   7.055
10383POPC   C4B61438  12.303   5.965   7.355
10384POPC   NC361439   8.949   0.412   5.555
10384POPC   PO461440   8.955   0.462   5.855
10384POPC   GL161441   8.976   0.419   6.155
10384POPC   GL261442   8.909   0.330   6.155
10384POPC   C1A61443   8.951   0.417   6.455
10384POPC   D2A61444   8.956   0.486   6.755
10384POPC   C3A61445   9.007   0.479   7.055
10384POPC   C4A61446   9.001   0.436   7.355
10384POPC   C1B61447   8.924   0.183   6.455
10384POPC   C2B61448   8.874   0.187   6.755
10384POPC   C3B61449   8.933   0.182   7.055
10384POPC   C4B61450   8.887   0.147   7.355
10385POPC   NC361451  19.059  21.370   5.555
10385POPC   PO461452  19.097  21.389   5.855
10385POPC   GL161453  19.100  21.352   6.155
10385POPC   GL261454  19.072  21.499   6.155
10385POPC   C1A61455  19.073  21.349   6.455
10385POPC   D2A61456  19.066  21.412   6.755
10385POPC   C3A61457  19.071  21.356   7.055
10385POPC   C4A61458  19.048  21.363   7.355
10385POPC   C1B61459  18.992  21.588   6.455
10385POPC   C2B61460  19.077  21.645   6.755
10385POPC   C3B61461  19.032  21.617   7.055
10385POPC   C4B61462  19.078  21.681   7.355
10386POPC   NC361463  19.029  26.060   5.555
10386POPC   PO461464  19.095  26.018   5.855
10386POPC   GL161465  19.048  26.026   6.155
10386POPC   GL261466  18.945  26.056   6.155
10386POPC   C1A61467  19.010  26.002   6.455
10386POPC   D2A61468  19.049  26.041   6.755
10386POPC   C3A61469  19.033  26.042   7.055
10386POPC   C4A61470  19.087  25.997   7.355
10386POPC   C1B61471  18.847  26.056   6.455
10386POPC   C2B61472  18.782  26.075   6.755
10386POPC   C3B61473  18.791  26.074   7.055
10386POPC   C4B61474  18.843  26.058   7.355
10387POPC   NC361475  25.218   8.221   5.555
10387POPC   PO461476  25.303   8.179   5.855
10387POPC   GL161477  25.273   8.174   6.155
10387POPC   GL261478  25.156   8.143   6.155
10387POPC   C1A61479  25.302   8.189   6.455
10387POPC   D2A61480  25.296   8.166   6.755
10387POPC   C3A61481  25.296   8.176   7.055
10387POPC   C4A61482  25.260   8.222   7.355
10387POPC   C1B61483  25.129   7.999   6.455
10387POPC   C2B61484  25.125   8.000   6.755
10387POPC   C3B61485  25.131   8.031   7.055
10387POPC   C4B61486  25.075   8.042   7.355
10388POPC   NC361487   9.797  42.372   5.555
10388POPC   PO461488   9.780  42.370   5.855
10388POPC   GL161489   9.735  42.313   6.155
10388POPC   GL261490   9.672  42.277   6.155
10388POPC   C1A61491   9.709  42.333   6.455
10388POPC   D2A61492   9.794  42.314   6.755
10388POPC   C3A61493   9.793  42.296   7.055
10388POPC   C4A61494   9.753  42.349   7.355
10388POPC   C1B61495   9.579  42.094   6.455
10388POPC   C2B61496   9.617  42.179   6.755
10388POPC   C3B61497   9.607  42.154   7.055
10388POPC   C4B61498   9.646  42.142   7.355
10389POPC   NC361499  21.400  20.633   5.555
10389POPC   PO461500  21.378  20.565   5.855
10389POPC   GL161501  21.388  20.605   6.155
10389POPC   GL261502  21.309  20.515   6.155
10389POPC   C1A61503  21.353  20.616   6.455
10389POPC   D2A61504  21.352  20.644   6.755
10389POPC   C3A61505  21.426  20.650   7.055
10389POPC   C4A61506  21.413  20.624   7.355
10389POPC   C1B61507  21.207  20.380   6.455
10389POPC   C2B61508  21.271  20.458   6.755
10389POPC   C3B61509  21.254  20.451   7.055
10389POPC   C4B61510  21.226  20.379   7.355
10390POPC   NC361511  29.180  40.036   5.555
10390POPC   PO461512  29.172  39.987   5.855
10390POPC   GL161513  29.143  40.032   6.155
10390POPC   GL261514  29.182  39.941   6.155
10390POPC   C1A61515  29.173  40.020   6.455
10390POPC   D2A61516  29.099  40.008   6.755
10390POPC   C3A61517  29.177  40.037   7.055
10390POPC   C4A61518  29.117  40.047   7.355
10390POPC   C1B61519  29.316  39.843   6.455
10390POPC   C2B61520  29.292  39.767   6.755
10390POPC   C3B61521  29.281  39.830   7.055
10390POPC   C4B61522  29.236  39.783   7.355
10391POPC   NC361523  12.086   1.940   5.555
10391POPC   PO461524  12.028   1.994   5.855
10391POPC   GL161525  12.112   2.035   6.155
10391POPC   GL261526  12.230   1.898   6.155
10391POPC   C1A61527  12.065   2.010   6.455
10391POPC   D2A61528  12.044   1.999   6.755
10391POPC   C3A61529  12.049   2.025   7.055
10391POPC   C4A61530  12.036   1.979   7.355
10391POPC   C1B61531  12.325   1.827   6.455
10391POPC   C2B61532  12.324   1.883   6.755
10391POPC   C3B61533  12.261   1.827   7.055
10391POPC   C4B61534  12.329   1.913   7.355
10392POPC   NC361535  25.304  43.906   5.555
10392POPC   PO461536  25.223  43.930   5.855
10392POPC   GL161537  25.297  43.912   6.155
10392POPC   GL261538  25.370  43.845   6.155
10392POPC   C1A61539  25.283  43.927   6.455
10392POPC   D2A61540  25.258  43.878   6.755
10392POPC   C3A61541  25.240  43.907   7.055
10392POPC   C4A61542  25.270  43.908   7.355
10392POPC   C1B61543  25.561  43.866   6.455
10392POPC   C2B61544  25.551  43.933   6.755
10392POPC   C3B61545  25.531  43.883   7.055
10392POPC   C4B61546  25.511  43.945   7.355
10393POPC   NC361547  41.537   1.193   5.555
10393POPC   PO461548  41.527   1.251   5.855
10393POPC   GL161549  41.563   1.167   6.155
10393POPC   GL261550  41.617   1.262   6.155
10393POPC   C1A61551  41.566   1.196   6.455
10393POPC   D2A61552  41.563   1.192   6.755
10393POPC   C3A61553  41.512   1.164   7.055
10393POPC   C4A61554  41.540   1.180   7.355
10393POPC   C1B61555  41.732   1.366   6.455
10393POPC   C2B61556  41.760   1.345   6.755
10393POPC   C3B61557  41.785   1.376   7.055
10393POPC   C4B61558  41.746   1.312   7.355
10394POPC   NC361559  20.614   0.459   5.555
10394POPC   PO461560  20.618   0.430   5.855
10394POPC   GL161561  20.628   0.393   6.155
10394POPC   GL261562  20.628   0.337   6.155
10394POPC   C1A61563  20.614   0.429   6.455
10394POPC   D2A61564  20.620   0.460   6.755
10394POPC   C3A61565  20.660   0.484   7.055
10394POPC   C4A61566  20.579   0.469   7.355
10394POPC   C1B61567  20.610   0.150   6.455
10394POPC   C2B61568  20.683   0.207   6.755
10394POPC   C3B61569  20.636   0.193   7.055
10394POPC   C4B61570  20.685   0.209   7.355
10395POPC   NC361571  22.199  38.416   5.555
10395POPC   PO461572  22.138  38.475   5.855
10395POPC   GL161573  22.132  38.453   6.155
10395POPC   GL261574  22.065  38.473   6.155
10395POPC   C1A61575  22.117  38.416   6.455
10395POPC   D2A61576  22.182  38.499   6.755
10395POPC   C3A61577  22.127  38.482   7.055
10395POPC   C4A61578  22.155  38.417   7.355
10395POPC   C1B61579  21.952  38.512   6.455
10395POPC   C2B61580  21.906  38.504   6.755
10395POPC   C3B61581  21.908  38.516   7.055
10395POPC   C4B61582  21.917  38.448   7.355
10396POPC   NC361583  22.898   3.498   5.555
10396POPC   PO461584  22.940   3.550   5.855
10396POPC   GL161585  22.974   3.565   6.155
10396POPC   GL261586  22.815   3.604   6.155
10396POPC   C1A61587  22.911   3.499   6.455
10396POPC   D2A61588  22.942   3.498   6.755
10396POPC   C3A61589  22.945   3.528   7.055
10396POPC   C4A61590  22.913   3.571   7.355
10396POPC   C1B61591  22.747   3.730   6.455
10396POPC   C2B61592  22.770   3.695   6.755
10396POPC   C3B61593  22.744   3.663   7.055
10396POPC   C4B61594  22.711   3.745   7.355
10397POPC   NC361595  20.601   1.178   5.555
10397POPC   PO461596  20.634   1.176   5.855
10397POPC   GL161597  20.660   1.222   6.155
10397POPC   GL261598  20.603   1.072   6.155
10397POPC   C1A61599  20.602   1.242   6.455
10397POPC   D2A61600  20.600   1.229   6.755
10397POPC   C3A61601  20.655   1.183   7.055
10397POPC   C4A61602  20.580   1.220   7.355
10397POPC   C1B61603  20.613   0.999   6.455
10397POPC   C2B61604  20.631   0.965   6.755
10397POPC   C3B61605  20.591   0.984   7.055
10397POPC   C4B61606  20.588   0.999   7.355
10398POPC   NC361607  22.174  31.501   5.555
10398POPC   PO461608  22.210  31.500   5.855
10398POPC   GL161609  22.180  31.437   6.155
10398POPC   GL261610  21.993  31.452   6.155
10398POPC   C1A61611  22.119  31.485   6.455
10398POPC   D2A61612  22.164  31.449   6.755
10398POPC   C3A61613  22.139  31.468   7.055
10398POPC   C4A61614  22.177  31.443   7.355
10398POPC   C1B61615  21.906  31.574   6.455
10398POPC   C2B61616  21.904  31.562   6.755
10398POPC   C3B61617  21.959  31.557   7.055
10398POPC   C4B61618  21.873  31.491   7.355
10399POPC   NC361619  33.817  37.718   5.555
10399POPC   PO461620  33.787  37.705   5.855
10399POPC   GL161621  33.758  37.689   6.155
10399POPC   GL261622  33.943  37.672   6.155
10399POPC   C1A61623  33.793  37.690   6.455
10399POPC   D2A61624  33.769  37.712   6.755
10399POPC   C3A61625  33.792  37.666   7.055
10399POPC   C4A61626  33.850  37.635   7.355
10399POPC   C1B61627  34.077  37.715   6.455
10399POPC   C2B61628  34.056  37.657   6.755
10399POPC   C3B61629  34.080  37.670   7.055
10399POPC   C4B61630  34.063  37.629   7.355
10400POPC   NC361631  24.468  15.200   5.555
10400POPC   PO461632  24.529  15.143   5.855
10400POPC   GL161633  24.487  15.185   6.155
10400POPC   GL261634  24.577  15.257   6.155
10400POPC   C1A61635  24.476  15.131   6.455
10400POPC   D2A61636  24.451  15.224   6.755
10400POPC   C3A61637  24.440  15.143   7.055
10400POPC   C4A61638  24.497  15.213   7.355
10400POPC   C1B61639  24.742  15.279   6.455
10400POPC   C2B61640  24.684  15.291   6.755
10400POPC   C3B61641  24.702  15.317   7.055
10400POPC   C4B61642  24.747  15.339   7.355
10401POPC   NC361643  20.570  28.382   5.555
10401POPC   PO461644  20.602  28.329   5.855
10401POPC   GL161645  20.621  28.403   6.155
10401POPC   GL261646  20.690  28.354   6.155
10401POPC   C1A61647  20.656  28.364   6.455
10401POPC   D2A61648  20.561  28.354   6.755
10401POPC   C3A61649  20.634  28.321   7.055
10401POPC   C4A61650  20.655  28.353   7.355
10401POPC   C1B61651  20.849  28.246   6.455
10401POPC   C2B61652  20.849  28.304   6.755
10401POPC   C3B61653  20.855  28.297   7.055
10401POPC   C4B61654  20.871  28.243   7.355
10402POPC   NC361655   0.415   3.514   5.555
10402POPC   PO461656   0.441   3.518   5.855
10402POPC   GL161657   0.398   3.519   6.155
10402POPC   GL261658   0.594   3.481   6.155
10402POPC   C1A61659   0.393   3.526   6.455
10402POPC   D2A61660   0.459   3.550   6.755
10402POPC   C3A61661   0.473   3.492   7.055
10402POPC   C4A61662   0.398   3.521   7.355
10402POPC   C1B61663   0.614   3.455   6.455
10402POPC   C2B61664   0.644   3.428   6.755
10402POPC   C3B61665   0.668   3.391   7.055
10402POPC   C4B61666   0.624   3.380   7.355
10403POPC   NC361667  43.073  14.450   5.555
10403POPC   PO461668  43.079  14.408   5.855
10403POPC   GL161669  43.103  14.355   6.155
10403POPC   GL261670  43.146  14.514   6.155
10403POPC   C1A61671  43.148  14.358   6.455
10403POPC   D2A61672  43.071  14.418   6.755
10403POPC   C3A61673  43.089  14.438   7.055
10403POPC   C4A61674  43.083  14.366   7.355
10403POPC   C1B61675  43.204  14.594   6.455
10403POPC   C2B61676  43.266  14.638   6.755
10403POPC   C3B61677  43.272  14.650   7.055
10403POPC   C4B61678  43.203  14.608   7.355
10404POPC   NC361679  43.141  24.539   5.555
10404POPC   PO461680  43.115  24.512   5.855
10404POPC   GL161681  43.087  24.500   6.155
10404POPC   GL261682  43.138  24.344   6.155
10404POPC   C1A61683  43.063  24.455   6.455
10404POPC   D2A61684  43.132  24.529   6.755
10404POPC   C3A61685  43.093  24.455   7.055
10404POPC   C4A61686  43.131  24.490   7.355
10404POPC   C1B61687  43.196  24.254   6.455
10404POPC   C2B61688  43.198  24.306   6.755
10404POPC   C3B61689  43.188  24.269   7.055
10404POPC   C4B61690  43.201  24.224   7.355
10405POPC   NC361691  19.797  17.494   5.555
10405POPC   PO461692  19.815  17.546   5.855
10405POPC   GL161693  19.818  17.478   6.155
10405POPC   GL261694  19.759  17.527   6.155
10405POPC   C1A61695  19.805  17.497   6.455
10405POPC   D2A61696  19.811  17.502   6.755
10405POPC   C3A61697  19.844  17.460   7.055
10405POPC   C4A61698  19.831  17.494   7.355
10405POPC   C1B61699  19.591  17.487   6.455
10405POPC   C2B61700  19.622  17.482   6.755
10405POPC   C3B61701  19.629  17.516   7.055
10405POPC   C4B61702  19.592  17.486   7.355
10406POPC   NC361703  15.964  32.251   5.555
10406POPC   PO461704  15.969  32.208   5.855
10406POPC   GL161705  15.939  32.257   6.155
10406POPC   GL261706  15.838  32.183   6.155
10406POPC   C1A61707  15.913  32.249   6.455
10406POPC   D2A61708  15.983  32.269   6.755
10406POPC   C3A61709  15.959  32.282   7.055
10406POPC   C4A61710  15.906  32.243   7.355
10406POPC   C1B61711  15.753  32.043   6.455
10406POPC   C2B61712  15.716  32.121   6.755
10406POPC   C3B61713  15.798  32.128   7.055
10406POPC   C4B61714  15.746  32.124   7.355
10407POPC   NC361715   1.188  43.104   5.555
10407POPC   PO461716   1.263  43.148   5.855
10407POPC   GL161717   1.213  43.147   6.155
10407POPC   GL261718   1.063  43.165   6.155
10407POPC   C1A61719   1.213  43.154   6.455
10407POPC   D2A61720   1.210  43.138   6.755
10407POPC   C3A61721   1.192  43.119   7.055
10407POPC   C4A61722   1.232  43.098   7.355
10407POPC   C1B61723   0.989  43.218   6.455
10407POPC   C2B61724   0.946  43.201   6.755
10407POPC   C3B61725   0.971  43.139   7.055
10407POPC   C4B61726   0.957  43.191   7.355
10408POPC   NC361727  11.264  36.906   5.555
10408POPC   PO461728  11.260  36.908   5.855
10408POPC   GL161729  11.313  36.889   6.155
10408POPC   GL261730  11.175  36.891   6.155
10408POPC   C1A61731  11.265  36.861   6.455
10408POPC   D2A61732  11.260  36.870   6.755
10408POPC   C3A61733  11.301  36.879   7.055
10408POPC   C4A61734  11.299  36.864   7.355
10408POPC   C1B61735  11.097  36.826   6.455
10408POPC   C2B61736  11.071  36.878   6.755
10408POPC   C3B61737  11.030  36.863   7.055
10408POPC   C4B61738  11.063  36.835   7.355
10409POPC   NC361739  40.748  40.013   5.555
10409POPC   PO461740  40.787  39.963   5.855
10409POPC   GL161741  40.753  40.017   6.155
10409POPC   GL261742  40.781  40.083   6.155
10409POPC   C1A61743  40.833  40.010   6.455
10409POPC   D2A61744  40.787  39.962   6.755
10409POPC   C3A61745  40.779  39.973   7.055
10409POPC   C4A61746  40.766  40.030   7.355
10409POPC   C1B61747  40.780  40.224   6.455
10409POPC   C2B61748  40.767  40.210   6.755
10409POPC   C3B61749  40.834  40.287   7.055
10409POPC   C4B61750  40.772  40.219   7.355
10410POPC   NC361751  12.073  40.777   5.555
10410POPC   PO461752  12.079  40.737   5.855
10410POPC   GL161753  12.089  40.810   6.155
10410POPC   GL261754  12.064  40.660   6.155
10410POPC   C1A61755  12.076  40.803   6.455
10410POPC   D2A61756  12.119  40.736   6.755
10410POPC   C3A61757  12.059  40.738   7.055
10410POPC   C4A61758  12.085  40.820   7.355
10410POPC   C1B61759  12.144  40.563   6.455
10410POPC   C2B61760  12.132  40.501   6.755
10410POPC   C3B61761  12.081  40.525   7.055
10410POPC   C4B61762  12.123  40.522   7.355
10411POPC   NC361763  41.556  17.525   5.555
10411POPC   PO461764  41.551  17.467   5.855
10411POPC   GL161765  41.524  17.519   6.155
10411POPC   GL261766  41.612  17.362   6.155
10411POPC   C1A61767  41.575  17.539   6.455
10411POPC   D2A61768  41.540  17.497   6.755
10411POPC   C3A61769  41.543  17.538   7.055
10411POPC   C4A61770  41.604  17.488   7.355
10411POPC   C1B61771  41.687  17.307   6.455
10411POPC   C2B61772  41.706  17.321   6.755
10411POPC   C3B61773  41.746  17.326   7.055
10411POPC   C4B61774  41.756  17.289   7.355
10412POPC   NC361775  39.975  39.223   5.555
10412POPC   PO461776  39.996  39.205   5.855
10412POPC   GL161777  39.957  39.233   6.155
10412POPC   GL261778  39.923  39.247   6.155
10412POPC   C1A61779  39.959  39.184   6.455
10412POPC   D2A61780  39.987  39.264   6.755
10412POPC   C3A61781  39.970  39.277   7.055
10412POPC   C4A61782  39.995  39.280   7.355
10412POPC   C1B61783  39.712  39.249   6.455
10412POPC   C2B61784  39.768  39.261   6.755
10412POPC   C3B61785  39.782  39.310   7.055
10412POPC   C4B61786  39.717  39.272   7.355
10413POPC   NC361787  39.195  24.482   5.555
10413POPC   PO461788  39.212  24.504   5.855
10413POPC   GL161789  39.189  24.522   6.155
10413POPC   GL261790  39.364  24.421   6.155
10413POPC   C1A61791  39.226  24.465   6.455
10413POPC   D2A61792  39.195  24.477   6.755
10413POPC   C3A61793  39.200  24.495   7.055
10413POPC   C4A61794  39.258  24.471   7.355
10413POPC   C1B61795  39.478  24.457   6.455
10413POPC   C2B61796  39.448  24.459   6.755
10413POPC   C3B61797  39.447  24.451   7.055
10413POPC   C4B61798  39.480  24.451   7.355
10414POPC   NC361799  17.481   1.956   5.555
10414POPC   PO461800  17.461   1.957   5.855
10414POPC   GL161801  17.527   1.971   6.155
10414POPC   GL261802  17.606   2.004   6.155
10414POPC   C1A61803  17.531   1.940   6.455
10414POPC   D2A61804  17.555   1.957   6.755
10414POPC   C3A61805  17.511   2.002   7.055
10414POPC   C4A61806  17.490   2.015   7.355
10414POPC   C1B61807  17.777   2.014   6.455
10414POPC   C2B61808  17.772   2.095   6.755
10414POPC   C3B61809  17.741   2.090   7.055
10414POPC   C4B61810  17.733   2.094   7.355
10415POPC   NC361811  10.512  19.087   5.555
10415POPC   PO461812  10.528  19.019   5.855
10415POPC   GL161813  10.487  19.035   6.155
10415POPC   GL261814  10.613  19.017   6.155
10415POPC   C1A61815  10.529  19.030   6.455
10415POPC   D2A61816  10.475  19.073   6.755
10415POPC   C3A61817  10.529  19.099   7.055
10415POPC   C4A61818  10.519  19.091   7.355
10415POPC   C1B61819  10.721  18.910   6.455
10415POPC   C2B61820  10.717  18.896   6.755
10415POPC   C3B61821  10.728  18.917   7.055
10415POPC   C4B61822  10.709  18.931   7.355
10416POPC   NC361823  39.970   5.130   5.555
10416POPC   PO461824  39.998   5.074   5.855
10416POPC   GL161825  39.971   5.043   6.155
10416POPC   GL261826  40.091   5.144   6.155
10416POPC   C1A61827  40.038   5.122   6.455
10416POPC   D2A61828  40.035   5.141   6.755
10416POPC   C3A61829  40.038   5.068   7.055
10416POPC   C4A61830  39.984   5.079   7.355
10416POPC   C1B61831  40.256   5.185   6.455
10416POPC   C2B61832  40.236   5.158   6.755
10416POPC   C3B61833  40.267   5.175   7.055
10416POPC   C4B61834  40.269   5.222   7.355
10417POPC   NC361835   0.478   8.935   5.555
10417POPC   PO461836   0.437   8.954   5.855
10417POPC   GL161837   0.461   8.946   6.155
10417POPC   GL261838   0.498   8.884   6.155
10417POPC   C1A61839   0.437   9.005   6.455
10417POPC   D2A61840   0.482   9.018   6.755
10417POPC   C3A61841   0.463   8.927   7.055
10417POPC   C4A61842   0.456   9.004   7.355
10417POPC   C1B61843   0.592   8.781   6.455
10417POPC   C2B61844   0.618   8.786   6.755
10417POPC   C3B61845   0.581   8.750   7.055
10417POPC   C4B61846   0.662   8.776   7.355
10418POPC   NC361847  43.098   2.747   5.555
10418POPC   PO461848  43.098   2.794   5.855
10418POPC   GL161849  43.128   2.788   6.155
10418POPC   GL261850  43.254   2.676   6.155
10418POPC   C1A61851  43.082   2.775   6.455
10418POPC   D2A61852  43.116   2.731   6.755
10418POPC   C3A61853  43.102   2.806   7.055
10418POPC   C4A61854  43.147   2.746   7.355
10418POPC   C1B61855  43.325   2.625   6.455
10418POPC   C2B61856  43.336   2.616   6.755
10418POPC   C3B61857  43.307   2.598   7.055
10418POPC   C4B61858  43.313   2.645   7.355
10419POPC   NC361859  19.875  25.300   5.555
10419POPC   PO461860  19.869  25.280   5.855
10419POPC   GL161861  19.884  25.266   6.155
10419POPC   GL261862  19.716  25.305   6.155
10419POPC   C1A61863  19.806  25.297   6.455
10419POPC   D2A61864  19.865  25.247   6.755
10419POPC   C3A61865  19.865  25.272   7.055
10419POPC   C4A61866  19.852  25.266   7.355
10419POPC   C1B61867  19.594  25.375   6.455
10419POPC   C2B61868  19.601  25.305   6.755
10419POPC   C3B61869  19.590  25.377   7.055
10419POPC   C4B61870  19.575  25.353   7.355
10420POPC   NC361871  34.574  39.996   5.555
10420POPC   PO461872  34.558  40.049   5.855
10420POPC   GL161873  34.548  39.970   6.155
10420POPC   GL261874  34.585  40.096   6.155
10420POPC   C1A61875  34.596  39.976   6.455
10420POPC   D2A61876  34.617  40.025   6.755
10420POPC   C3A61877  34.592  40.042   7.055
10420POPC   C4A61878  34.542  39.960   7.355
10420POPC   C1B61879  34.633  40.283   6.455
10420POPC   C2B61880  34.661  40.225   6.755
10420POPC   C3B61881  34.607  40.250   7.055
10420POPC   C4B61882  34.688  40.253   7.355
10421POPC   NC361883  37.721  36.931   5.555
10421POPC   PO461884  37.677  36.912   5.855
10421POPC   GL161885  37.697  36.936   6.155
10421POPC   GL261886  37.622  36.745   6.155
10421POPC   C1A61887  37.657  36.952   6.455
10421POPC   D2A61888  37.669  36.868   6.755
10421POPC   C3A61889  37.640  36.933   7.055
10421POPC   C4A61890  37.723  36.910   7.355
10421POPC   C1B61891  37.542  36.667   6.455
10421POPC   C2B61892  37.562  36.715   6.755
10421POPC   C3B61893  37.526  36.699   7.055
10421POPC   C4B61894  37.534  36.660   7.355
10422POPC   NC361895   9.714  36.120   5.555
10422POPC   PO461896   9.774  36.103   5.855
10422POPC   GL161897   9.721  36.084   6.155
10422POPC   GL261898   9.644  36.152   6.155
10422POPC   C1A61899   9.712  36.108   6.455
10422POPC   D2A61900   9.758  36.168   6.755
10422POPC   C3A61901   9.706  36.167   7.055
10422POPC   C4A61902   9.753  36.172   7.355
10422POPC   C1B61903   9.555  36.158   6.455
10422POPC   C2B61904   9.468  36.235   6.755
10422POPC   C3B61905   9.487  36.163   7.055
10422POPC   C4B61906   9.492  36.172   7.355
10423POPC   NC361907  19.811  32.984   5.555
10423POPC   PO461908  19.857  33.024   5.855
10423POPC   GL161909  19.868  33.022   6.155
10423POPC   GL261910  19.916  32.984   6.155
10423POPC   C1A61911  19.823  33.054   6.455
10423POPC   D2A61912  19.864  33.041   6.755
10423POPC   C3A61913  19.844  33.002   7.055
10423POPC   C4A61914  19.865  33.002   7.355
10423POPC   C1B61915  20.017  32.906   6.455
10423POPC   C2B61916  20.024  32.911   6.755
10423POPC   C3B61917  20.079  32.905   7.055
10423POPC   C4B61918  20.061  32.862   7.355
10424POPC   NC361919  36.903   0.486   5.555
10424POPC   PO461920  36.866   0.475   5.855
10424POPC   GL161921  36.891   0.434   6.155
10424POPC   GL261922  36.901   0.302   6.155
10424POPC   C1A61923  36.867   0.452   6.455
10424POPC   D2A61924  36.928   0.467   6.755
10424POPC   C3A61925  36.908   0.462   7.055
10424POPC   C4A61926  36.949   0.457   7.355
10424POPC   C1B61927  36.949   0.168   6.455
10424POPC   C2B61928  36.888   0.191   6.755
10424POPC   C3B61929  36.946   0.185   7.055
10424POPC   C4B61930  36.916   0.211   7.355
10425POPC   NC361931  40.015  25.275   5.555
10425POPC   PO461932  39.969  25.235   5.855
10425POPC   GL161933  39.984  25.244   6.155
10425POPC   GL261934  39.885  25.395   6.155
10425POPC   C1A61935  40.004  25.301   6.455
10425POPC   D2A61936  39.981  25.281   6.755
10425POPC   C3A61937  39.990  25.223   7.055
10425POPC   C4A61938  40.047  25.302   7.355
10425POPC   C1B61939  39.851  25.513   6.455
10425POPC   C2B61940  39.837  25.488   6.755
10425POPC   C3B61941  39.822  25.481   7.055
10425POPC   C4B61942  39.821  25.469   7.355
10426POPC   NC361943  25.308  27.570   5.555
10426POPC   PO461944  25.244  27.604   5.855
10426POPC   GL161945  25.218  27.615   6.155
10426POPC   GL261946  25.152  27.532   6.155
10426POPC   C1A61947  25.248  27.553   6.455
10426POPC   D2A61948  25.238  27.601   6.755
10426POPC   C3A61949  25.259  27.628   7.055
10426POPC   C4A61950  25.308  27.605   7.355
10426POPC   C1B61951  25.084  27.391   6.455
10426POPC   C2B61952  25.143  27.362   6.755
10426POPC   C3B61953  25.091  27.423   7.055
10426POPC   C4B61954  25.152  27.386   7.355
10427POPC   NC361955  25.306  39.194   5.555
10427POPC   PO461956  25.296  39.270   5.855
10427POPC   GL161957  25.287  39.195   6.155
10427POPC   GL261958  25.335  39.099   6.155
10427POPC   C1A61959  25.275  39.251   6.455
10427POPC   D2A61960  25.247  39.183   6.755
10427POPC   C3A61961  25.296  39.244   7.055
10427POPC   C4A61962  25.233  39.206   7.355
10427POPC   C1B61963  25.402  39.004   6.455
10427POPC   C2B61964  25.409  38.985   6.755
10427POPC   C3B61965  25.360  38.967   7.055
10427POPC   C4B61966  25.388  39.026   7.355
10428POPC   NC361967  32.274  37.668   5.555
10428POPC   PO461968  32.282  37.717   5.855
10428POPC   GL161969  32.236  37.719   6.155
10428POPC   GL261970  32.310  37.563   6.155
10428POPC   C1A61971  32.263  37.726   6.455
10428POPC   D2A61972  32.243  37.660   6.755
10428POPC   C3A61973  32.295  37.677   7.055
10428POPC   C4A61974  32.203  37.684   7.355
10428POPC   C1B61975  32.250  37.422   6.455
10428POPC   C2B61976  32.327  37.482   6.755
10428POPC   C3B61977  32.322  37.453   7.055
10428POPC   C4B61978  32.315  37.397   7.355
10429POPC   NC361979   2.782  12.871   5.555
10429POPC   PO461980   2.766  12.855   5.855
10429POPC   GL161981   2.730  12.823   6.155
10429POPC   GL261982   2.800  12.924   6.155
10429POPC   C1A61983   2.752  12.867   6.455
10429POPC   D2A61984   2.784  12.849   6.755
10429POPC   C3A61985   2.796  12.835   7.055
10429POPC   C4A61986   2.797  12.811   7.355
10429POPC   C1B61987   2.862  13.094   6.455
10429POPC   C2B61988   2.928  13.059   6.755
10429POPC   C3B61989   2.935  13.045   7.055
10429POPC   C4B61990   2.940  13.065   7.355
10430POPC   NC361991  43.127  15.946   5.555
10430POPC   PO461992  43.076  15.914   5.855
10430POPC   GL161993  43.074  15.947   6.155
10430POPC   GL261994  43.027  15.845   6.155
10430POPC   C1A61995  43.069  15.972   6.455
10430POPC   D2A61996  43.092  15.956   6.755
10430POPC   C3A61997  43.134  15.975   7.055
10430POPC   C4A61998  43.131  15.939   7.355
10430POPC   C1B61999  43.010  15.769   6.455
10430POPC   C2B62000  42.956  15.728   6.755
10430POPC   C3B62001  43.036  15.713   7.055
10430POPC   C4B62002  42.985  15.776   7.355
10431POPC   NC362003   5.865  31.431   5.555
10431POPC   PO462004   5.852  31.452   5.855
10431POPC   GL162005   5.911  31.436   6.155
10431POPC   GL262006   5.783  31.485   6.155
10431POPC   C1A62007   5.850  31.487   6.455
10431POPC   D2A62008   5.876  31.515   6.755
10431POPC   C3A62009   5.867  31.450   7.055
10431POPC   C4A62010   5.894  31.454   7.355
10431POPC   C1B62011   5.663  31.488   6.455
10431POPC   C2B62012   5.672  31.534   6.755
10431POPC   C3B62013   5.628  31.486   7.055
10431POPC   C4B62014   5.655  31.510   7.355
10432POPC   NC362015   7.426  18.309   5.555
10432POPC   PO462016   7.398  18.314   5.855
10432POPC   GL162017   7.455  18.311   6.155
10432POPC   GL262018   7.289  18.366   6.155
10432POPC   C1A62019   7.441  18.317   6.455
10432POPC   D2A62020   7.470  18.248   6.755
10432POPC   C3A62021   7.400  18.285   7.055
10432POPC   C4A62022   7.373  18.310   7.355
10432POPC   C1B62023   7.243  18.412   6.455
10432POPC   C2B62024   7.175  18.392   6.755
10432POPC   C3B62025   7.255  18.421   7.055
10432POPC   C4B62026   7.208  18.406   7.355
10433POPC   NC362027  44.701  20.614   5.555
10433POPC   PO462028  44.631  20.619   5.855
10433POPC   GL162029  44.619  20.652   6.155
10433POPC   GL262030  44.738  20.517   6.155
10433POPC   C1A62031  44.680  20.567   6.455
10433POPC   D2A62032  44.676  20.596   6.755
10433POPC   C3A62033  44.711  20.566   7.055
10433POPC   C4A62034  44.670  20.636   7.355
10433POPC   C1B62035  44.828  20.479   6.455
10433POPC   C2B62036  44.861  20.423   6.755
10433POPC   C3B62037  44.870  20.428   7.055
10433POPC   C4B62038  44.913  20.508   7.355
10434POPC   NC362039   5.066  19.847   5.555
10434POPC   PO462040   5.059  19.833   5.855
10434POPC   GL162041   5.124  19.874   6.155
10434POPC   GL262042   4.957  19.943   6.155
10434POPC   C1A62043   5.099  19.797   6.455
10434POPC   D2A62044   5.118  19.797   6.755
10434POPC   C3A62045   5.105  19.802   7.055
10434POPC   C4A62046   5.117  19.793   7.355
10434POPC   C1B62047   4.876  19.976   6.455
10434POPC   C2B62048   4.860  19.940   6.755
10434POPC   C3B62049   4.849  20.005   7.055
10434POPC   C4B62050   4.884  20.000   7.355
10435POPC   NC362051  41.521  28.412   5.555
10435POPC   PO462052  41.581  28.357   5.855
10435POPC   GL162053  41.521  28.412   6.155
10435POPC   GL262054  41.681  28.258   6.155
10435POPC   C1A62055  41.543  28.332   6.455
10435POPC   D2A62056  41.527  28.374   6.755
10435POPC   C3A62057  41.542  28.328   7.055
10435POPC   C4A62058  41.599  28.383   7.355
10435POPC   C1B62059  41.772  28.250   6.455
10435POPC   C2B62060  41.786  28.246   6.755
10435POPC   C3B62061  41.732  28.193   7.055
10435POPC   C4B62062  41.773  28.260   7.355
10436POPC   NC362063  29.890  27.634   5.555
10436POPC   PO462064  29.958  27.601   5.855
10436POPC   GL162065  29.933  27.564   6.155
10436POPC   GL262066  29.836  27.607   6.155
10436POPC   C1A62067  29.883  27.629   6.455
10436POPC   D2A62068  29.918  27.548   6.755
10436POPC   C3A62069  29.958  27.626   7.055
10436POPC   C4A62070  29.936  27.548   7.355
10436POPC   C1B62071  29.709  27.541   6.455
10436POPC   C2B62072  29.668  27.588   6.755
10436POPC   C3B62073  29.638  27.579   7.055
10436POPC   C4B62074  29.672  27.594   7.355
10437POPC   NC362075   9.796  12.900   5.555
10437POPC   PO462076   9.739  12.803   5.855
10437POPC   GL162077   9.730  12.835   6.155
10437POPC   GL262078   9.899  12.808   6.155
10437POPC   C1A62079   9.710  12.831   6.455
10437POPC   D2A62080   9.752  12.866   6.755
10437POPC   C3A62081   9.702  12.818   7.055
10437POPC   C4A62082   9.750  12.813   7.355
10437POPC   C1B62083   9.989  12.816   6.455
10437POPC   C2B62084   9.959  12.773   6.755
10437POPC   C3B62085   9.949  12.783   7.055
10437POPC   C4B62086  10.035  12.819   7.355
10438POPC   NC362087   9.712  21.418   5.555
10438POPC   PO462088   9.742  21.354   5.855
10438POPC   GL162089   9.732  21.358   6.155
10438POPC   GL262090   9.631  21.244   6.155
10438POPC   C1A62091   9.714  21.340   6.455
10438POPC   D2A62092   9.770  21.397   6.755
10438POPC   C3A62093   9.755  21.430   7.055
10438POPC   C4A62094   9.798  21.349   7.355
10438POPC   C1B62095   9.579  21.160   6.455
10438POPC   C2B62096   9.633  21.132   6.755
10438POPC   C3B62097   9.654  21.192   7.055
10438POPC   C4B62098   9.584  21.154   7.355
10439POPC   NC362099   9.747  34.599   5.555
10439POPC   PO462100   9.721  34.549   5.855
10439POPC   GL162101   9.770  34.618   6.155
10439POPC   GL262102   9.611  34.641   6.155
10439POPC   C1A62103   9.703  34.553   6.455
10439POPC   D2A62104   9.796  34.575   6.755
10439POPC   C3A62105   9.750  34.533   7.055
10439POPC   C4A62106   9.748  34.582   7.355
10439POPC   C1B62107   9.532  34.734   6.455
10439POPC   C2B62108   9.595  34.713   6.755
10439POPC   C3B62109   9.531  34.783   7.055
10439POPC   C4B62110   9.584  34.757   7.355
10440POPC   NC362111  43.922  29.124   5.555
10440POPC   PO462112  43.891  29.150   5.855
10440POPC   GL162113  43.911  29.181   6.155
10440POPC   GL262114  43.982  29.066   6.155
10440POPC   C1A62115  43.911  29.119   6.455
10440POPC   D2A62116  43.848  29.134   6.755
10440POPC   C3A62117  43.918  29.190   7.055
10440POPC   C4A62118  43.846  29.149   7.355
10440POPC   C1B62119  44.060  28.979   6.455
10440POPC   C2B62120  44.086  29.007   6.755
10440POPC   C3B62121  44.087  28.993   7.055
10440POPC   C4B62122  44.092  29.062   7.355
10441POPC   NC362123  35.329  42.363   5.555
10441POPC   PO462124  35.358  42.348   5.855
10441POPC   GL162125  35.377  42.351   6.155
10441POPC   GL262126  35.214  42.342   6.155
10441POPC   C1A62127  35.305  42.382   6.455
10441POPC   D2A62128  35.344  42.335   6.755
10441POPC   C3A62129  35.401  42.364   7.055
10441POPC   C4A62130  35.340  42.341   7.355
10441POPC   C1B62131  35.130  42.380   6.455
10441POPC   C2B62132  35.068  42.418   6.755
10441POPC   C3B62133  35.084  42.401   7.055
10441POPC   C4B62134  35.146  42.388   7.355
10442POPC   NC362135  12.809   9.725   5.555
10442POPC   PO462136  12.884   9.769   5.855
10442POPC   GL162137  12.887   9.741   6.155
10442POPC   GL262138  12.980   9.692   6.155
10442POPC   C1A62139  12.893   9.779   6.455
10442POPC   D2A62140  12.870   9.785   6.755
10442POPC   C3A62141  12.808   9.736   7.055
10442POPC   C4A62142  12.860   9.708   7.355
10442POPC   C1B62143  13.078   9.592   6.455
10442POPC   C2B62144  13.012   9.601   6.755
10442POPC   C3B62145  13.049   9.641   7.055
10442POPC   C4B62146  13.096   9.595   7.355
10443POPC   NC362147  43.156   9.777   5.555
10443POPC   PO462148  43.122   9.786   5.855
10443POPC   GL162149  43.064   9.752   6.155
10443POPC   GL262150  42.981   9.795   6.155
10443POPC   C1A62151  43.067   9.701   6.455
10443POPC   D2A62152  43.075   9.774   6.755
10443POPC   C3A62153  43.124   9.763   7.055
10443POPC   C4A62154  43.062   9.791   7.355
10443POPC   C1B62155  42.837   9.845   6.455
10443POPC   C2B62156  42.895   9.780   6.755
10443POPC   C3B62157  42.877   9.798   7.055
10443POPC   C4B62158  42.862   9.802   7.355
10444POPC   NC362159  43.118  13.640   5.555
10444POPC   PO462160  43.113  13.607   5.855
10444POPC   GL162161  43.090  13.607   6.155
10444POPC   GL262162  43.055  13.711   6.155
10444POPC   C1A62163  43.105  13.601   6.455
10444POPC   D2A62164  43.125  13.657   6.755
10444POPC   C3A62165  43.139  13.655   7.055
10444POPC   C4A62166  43.087  13.584   7.355
10444POPC   C1B62167  43.140  13.836   6.455
10444POPC   C2B62168  43.120  13.833   6.755
10444POPC   C3B62169  43.080  13.897   7.055
10444POPC   C4B62170  43.134  13.871   7.355
10445POPC   NC362171   7.375  15.925   5.555
10445POPC   PO462172   7.402  15.999   5.855
10445POPC   GL162173   7.433  15.996   6.155
10445POPC   GL262174   7.553  15.932   6.155
10445POPC   C1A62175   7.465  15.931   6.455
10445POPC   D2A62176   7.403  16.000   6.755
10445POPC   C3A62177   7.468  15.979   7.055
10445POPC   C4A62178   7.453  15.966   7.355
10445POPC   C1B62179   7.709  15.894   6.455
10445POPC   C2B62180   7.621  15.977   6.755
10445POPC   C3B62181   7.623  15.919   7.055
10445POPC   C4B62182   7.713  15.980   7.355
10446POPC   NC362183  40.809  15.961   5.555
10446POPC   PO462184  40.738  15.945   5.855
10446POPC   GL162185  40.822  15.999   6.155
10446POPC   GL262186  40.733  16.056   6.155
10446POPC   C1A62187  40.770  15.953   6.455
10446POPC   D2A62188  40.790  15.942   6.755
10446POPC   C3A62189  40.766  15.925   7.055
10446POPC   C4A62190  40.796  15.935   7.355
10446POPC   C1B62191  40.682  16.198   6.455
10446POPC   C2B62192  40.658  16.142   6.755
10446POPC   C3B62193  40.639  16.121   7.055
10446POPC   C4B62194  40.639  16.205   7.355
10447POPC   NC362195  40.762  28.399   5.555
10447POPC   PO462196  40.745  28.323   5.855
10447POPC   GL162197  40.819  28.390   6.155
10447POPC   GL262198  40.688  28.309   6.155
10447POPC   C1A62199  40.802  28.372   6.455
10447POPC   D2A62200  40.763  28.410   6.755
10447POPC   C3A62201  40.822  28.358   7.055
10447POPC   C4A62202  40.796  28.367   7.355
10447POPC   C1B62203  40.583  28.271   6.455
10447POPC   C2B62204  40.564  28.246   6.755
10447POPC   C3B62205  40.534  28.266   7.055
10447POPC   C4B62206  40.529  28.239   7.355
10448POPC   NC362207  30.663  33.838   5.555
10448POPC   PO462208  30.711  33.774   5.855
10448POPC   GL162209  30.719  33.774   6.155
10448POPC   GL262210  30.681  33.648   6.155
10448POPC   C1A62211  30.656  33.786   6.455
10448POPC   D2A62212  30.713  33.761   6.755
10448POPC   C3A62213  30.669  33.777   7.055
10448POPC   C4A62214  30.676  33.782   7.355
10448POPC   C1B62215  30.598  33.624   6.455
10448POPC   C2B62216  30.563  33.588   6.755
10448POPC   C3B62217  30.608  33.530   7.055
10448POPC   C4B62218  30.591  33.540   7.355
10449POPC   NC362219  19.825  23.739   5.555
10449POPC   PO462220  19.879  23.731   5.855
10449POPC   GL162221  19.877  23.712   6.155
10449POPC   GL262222  19.808  23.630   6.155
10449POPC   C1A62223  19.811  23.745   6.455
10449POPC   D2A62224  19.860  23.673   6.755
10449POPC   C3A62225  19.805  23.743   7.055
10449POPC   C4A62226  19.790  23.715   7.355
10449POPC   C1B62227  19.788  23.435   6.455
10449POPC   C2B62228  19.745  23.507   6.755
10449POPC   C3B62229  19.802  23.465   7.055
10449POPC   C4B62230  19.782  23.448   7.355
10450POPC   NC362231  42.308  36.120   5.555
10450POPC   PO462232  42.297  36.148   5.855
10450POPC   GL162233  42.336  36.095   6.155
10450POPC   GL262234  42.204  36.223   6.155
10450POPC   C1A62235  42.289  36.147   6.455
10450POPC   D2A62236  42.308  36.119   6.755
10450POPC   C3A62237  42.303  36.154   7.055
10450POPC   C4A62238  42.373  36.092   7.355
10450POPC   C1B62239  42.079  36.282   6.455
10450POPC   C2B62240  42.119  36.227   6.755
10450POPC   C3B62241  42.128  36.275   7.055
10450POPC   C4B62242  42.074  36.226   7.355
10451POPC   NC362243  10.541  22.953   5.555
10451POPC   PO462244  10.514  22.954   5.855
10451POPC   GL162245  10.566  22.911   6.155
10451POPC   GL262246  10.350  22.952   6.155
10451POPC   C1A62247  10.519  22.895   6.455
10451POPC   D2A62248  10.566  22.908   6.755
10451POPC   C3A62249  10.546  22.892   7.055
10451POPC   C4A62250  10.481  22.914   7.355
10451POPC   C1B62251  10.317  22.922   6.455
10451POPC   C2B62252  10.297  23.004   6.755
10451POPC   C3B62253  10.316  22.974   7.055
10451POPC   C4B62254  10.240  22.966   7.355
10452POPC   NC362255  32.248   8.182   5.555
10452POPC   PO462256  32.225   8.189   5.855
10452POPC   GL162257  32.293   8.168   6.155
10452POPC   GL262258  32.293   8.139   6.155
10452POPC   C1A62259  32.275   8.224   6.455
10452POPC   D2A62260  32.276   8.155   6.755
10452POPC   C3A62261  32.251   8.231   7.055
10452POPC   C4A62262  32.292   8.214   7.355
10452POPC   C1B62263  32.365   8.039   6.455
10452POPC   C2B62264  32.450   7.971   6.755
10452POPC   C3B62265  32.418   8.034   7.055
10452POPC   C4B62266  32.457   7.970   7.355
10453POPC   NC362267  39.207  28.329   5.555
10453POPC   PO462268  39.222  28.340   5.855
10453POPC   GL162269  39.204  28.324   6.155
10453POPC   GL262270  39.341  28.454   6.155
10453POPC   C1A62271  39.203  28.347   6.455
10453POPC   D2A62272  39.220  28.329   6.755
10453POPC   C3A62273  39.229  28.355   7.055
10453POPC   C4A62274  39.275  28.404   7.355
10453POPC   C1B62275  39.507  28.484   6.455
10453POPC   C2B62276  39.425  28.499   6.755
10453POPC   C3B62277  39.478  28.422   7.055
10453POPC   C4B62278  39.503  28.499   7.355
10454POPC   NC362279   4.342  34.530   5.555
10454POPC   PO462280   4.346  34.624   5.855
10454POPC   GL162281   4.287  34.544   6.155
10454POPC   GL262282   4.147  34.588   6.155
10454POPC   C1A62283   4.335  34.551   6.455
10454POPC   D2A62284   4.283  34.621   6.755
10454POPC   C3A62285   4.319  34.611   7.055
10454POPC   C4A62286   4.356  34.562   7.355
10454POPC   C1B62287   4.103  34.581   6.455
10454POPC   C2B62288   4.043  34.527   6.755
10454POPC   C3B62289   4.091  34.603   7.055
10454POPC   C4B62290   4.116  34.552   7.355
10455POPC   NC362291  17.488   0.411   5.555
10455POPC   PO462292  17.508   0.413   5.855
10455POPC   GL162293  17.540   0.478   6.155
10455POPC   GL262294  17.670   0.427   6.155
10455POPC   C1A62295  17.486   0.392   6.455
10455POPC   D2A62296  17.516   0.426   6.755
10455POPC   C3A62297  17.547   0.406   7.055
10455POPC   C4A62298  17.536   0.407   7.355
10455POPC   C1B62299  17.779   0.473   6.455
10455POPC   C2B62300  17.712   0.395   6.755
10455POPC   C3B62301  17.710   0.411   7.055
10455POPC   C4B62302  17.726   0.468   7.355
10456POPC   NC362303  11.271   5.101   5.555
10456POPC   PO462304  11.344   5.086   5.855
10456POPC   GL162305  11.268   5.047   6.155
10456POPC   GL262306  11.186   5.153   6.155
10456POPC   C1A62307  11.328   5.086   6.455
10456POPC   D2A62308  11.315   5.128   6.755
10456POPC   C3A62309  11.259   5.053   7.055
10456POPC   C4A62310  11.316   5.090   7.355
10456POPC   C1B62311  11.050   5.152   6.455
10456POPC   C2B62312  11.045   5.159   6.755
10456POPC   C3B62313  11.071   5.125   7.055
10456POPC   C4B62314  11.069   5.129   7.355
10457POPC   NC362315  21.362  33.007   5.555
10457POPC   PO462316  21.350  33.068   5.855
10457POPC   GL162317  21.399  32.999   6.155
10457POPC   GL262318  21.435  32.853   6.155
10457POPC   C1A62319  21.431  33.031   6.455
10457POPC   D2A62320  21.341  32.991   6.755
10457POPC   C3A62321  21.423  32.983   7.055
10457POPC   C4A62322  21.429  32.993   7.355
10457POPC   C1B62323  21.406  32.826   6.455
10457POPC   C2B62324  21.445  32.789   6.755
10457POPC   C3B62325  21.488  32.788   7.055
10457POPC   C4B62326  21.430  32.809   7.355
10458POPC   NC362327  14.434   9.759   5.555
10458POPC   PO462328  14.411   9.734   5.855
10458POPC   GL162329  14.449   9.722   6.155
10458POPC   GL262330  14.295   9.684   6.155
10458POPC   C1A62331  14.354   9.786   6.455
10458POPC   D2A62332  14.450   9.779   6.755
10458POPC   C3A62333  14.423   9.760   7.055
10458POPC   C4A62334  14.394   9.769   7.355
10458POPC   C1B62335  14.259   9.594   6.455
10458POPC   C2B62336  14.286   9.549   6.755
10458POPC   C3B62337  14.274   9.539   7.055
10458POPC   C4B62338  14.271   9.567   7.355
10459POPC   NC362339  33.789  29.927   5.555
10459POPC   PO462340  33.775  29.924   5.855
10459POPC   GL162341  33.847  29.935   6.155
10459POPC   GL262342  33.633  29.931   6.155
10459POPC   C1A62343  33.757  29.934   6.455
10459POPC   D2A62344  33.829  29.952   6.755
10459POPC   C3A62345  33.847  29.937   7.055
10459POPC   C4A62346  33.797  29.905   7.355
10459POPC   C1B62347  33.582  29.951   6.455
10459POPC   C2B62348  33.598  29.989   6.755
10459POPC   C3B62349  33.523  29.940   7.055
10459POPC   C4B62350  33.576  29.998   7.355
10460POPC   NC362351   4.322  41.572   5.555
10460POPC   PO462352   4.293  41.552   5.855
10460POPC   GL162353   4.289  41.604   6.155
10460POPC   GL262354   4.309  41.411   6.155
10460POPC   C1A62355   4.326  41.519   6.455
10460POPC   D2A62356   4.364  41.584   6.755
10460POPC   C3A62357   4.273  41.589   7.055
10460POPC   C4A62358   4.280  41.531   7.355
10460POPC   C1B62359   4.237  41.278   6.455
10460POPC   C2B62360   4.225  41.340   6.755
10460POPC   C3B62361   4.251  41.348   7.055
10460POPC   C4B62362   4.276  41.306   7.355
10461POPC   NC362363  13.652  20.631   5.555
10461POPC   PO462364  13.631  20.657   5.855
10461POPC   GL162365  13.657  20.636   6.155
10461POPC   GL262366  13.682  20.530   6.155
10461POPC   C1A62367  13.650  20.607   6.455
10461POPC   D2A62368  13.642  20.621   6.755
10461POPC   C3A62369  13.623  20.604   7.055
10461POPC   C4A62370  13.670  20.575   7.355
10461POPC   C1B62371  13.706  20.389   6.455
10461POPC   C2B62372  13.777  20.337   6.755
10461POPC   C3B62373  13.716  20.360   7.055
10461POPC   C4B62374  13.684  20.346   7.355
10462POPC   NC362375  29.186   6.694   5.555
10462POPC   PO462376  29.123   6.680   5.855
10462POPC   GL162377  29.132   6.605   6.155
10462POPC   GL262378  29.171   6.741   6.155
10462POPC   C1A62379  29.176   6.692   6.455
10462POPC   D2A62380  29.112   6.683   6.755
10462POPC   C3A62381  29.159   6.671   7.055
10462POPC   C4A62382  29.181   6.671   7.355
10462POPC   C1B62383  29.237   6.879   6.455
10462POPC   C2B62384  29.258   6.812   6.755
10462POPC   C3B62385  29.264   6.859   7.055
10462POPC   C4B62386  29.326   6.893   7.355
10463POPC   NC362387  22.175   0.440   5.555
10463POPC   PO462388  22.202   0.407   5.855
10463POPC   GL162389  22.178   0.431   6.155
10463POPC   GL262390  22.232   0.533   6.155
10463POPC   C1A62391  22.186   0.443   6.455
10463POPC   D2A62392  22.135   0.419   6.755
10463POPC   C3A62393  22.201   0.411   7.055
10463POPC   C4A62394  22.188   0.472   7.355
10463POPC   C1B62395  22.226   0.715   6.455
10463POPC   C2B62396  22.250   0.683   6.755
10463POPC   C3B62397  22.286   0.652   7.055
10463POPC   C4B62398  22.228   0.709   7.355
10464POPC   NC362399  43.080  39.232   5.555
10464POPC   PO462400  43.101  39.195   5.855
10464POPC   GL162401  43.066  39.183   6.155
10464POPC   GL262402  43.095  39.327   6.155
10464POPC   C1A62403  43.112  39.242   6.455
10464POPC   D2A62404  43.127  39.229   6.755
10464POPC   C3A62405  43.126  39.183   7.055
10464POPC   C4A62406  43.078  39.259   7.355
10464POPC   C1B62407  43.066  39.499   6.455
10464POPC   C2B62408  43.079  39.490   6.755
10464POPC   C3B62409  43.089  39.458   7.055
10464POPC   C4B62410  43.091  39.458   7.355
10465POPC   NC362411  15.167  19.824   5.555
10465POPC   PO462412  15.171  19.795   5.855
10465POPC   GL162413  15.172  19.862   6.155
10465POPC   GL262414  15.037  19.734   6.155
10465POPC   C1A62415  15.176  19.876   6.455
10465POPC   D2A62416  15.152  19.823   6.755
10465POPC   C3A62417  15.212  19.867   7.055
10465POPC   C4A62418  15.174  19.852   7.355
10465POPC   C1B62419  14.977  19.716   6.455
10465POPC   C2B62420  15.000  19.656   6.755
10465POPC   C3B62421  14.940  19.674   7.055
10465POPC   C4B62422  14.980  19.728   7.355
10466POPC   NC362423  42.373  18.312   5.555
10466POPC   PO462424  42.357  18.318   5.855
10466POPC   GL162425  42.382  18.327   6.155
10466POPC   GL262426  42.493  18.318   6.155
10466POPC   C1A62427  42.372  18.287   6.455
10466POPC   D2A62428  42.365  18.256   6.755
10466POPC   C3A62429  42.287  18.327   7.055
10466POPC   C4A62430  42.368  18.249   7.355
10466POPC   C1B62431  42.559  18.334   6.455
10466POPC   C2B62432  42.553  18.350   6.755
10466POPC   C3B62433  42.570  18.385   7.055
10466POPC   C4B62434  42.545  18.332   7.355
10467POPC   NC362435  11.303   4.291   5.555
10467POPC   PO462436  11.327   4.283   5.855
10467POPC   GL162437  11.278   4.304   6.155
10467POPC   GL262438  11.244   4.432   6.155
10467POPC   C1A62439  11.336   4.276   6.455
10467POPC   D2A62440  11.328   4.338   6.755
10467POPC   C3A62441  11.262   4.268   7.055
10467POPC   C4A62442  11.252   4.273   7.355
10467POPC   C1B62443  11.172   4.531   6.455
10467POPC   C2B62444  11.145   4.560   6.755
10467POPC   C3B62445  11.115   4.469   7.055
10467POPC   C4B62446  11.178   4.536   7.355
10468POPC   NC362447   8.992   9.740   5.555
10468POPC   PO462448   8.923   9.757   5.855
10468POPC   GL162449   8.962   9.768   6.155
10468POPC   GL262450   8.847   9.660   6.155
10468POPC   C1A62451   8.977   9.711   6.455
10468POPC   D2A62452   8.936   9.771   6.755
10468POPC   C3A62453   8.974   9.720   7.055
10468POPC   C4A62454   9.013   9.747   7.355
10468POPC   C1B62455   8.779   9.549   6.455
10468POPC   C2B62456   8.821   9.593   6.755
10468POPC   C3B62457   8.775   9.526   7.055
10468POPC   C4B62458   8.845   9.603   7.355
10469POPC   NC362459  31.463  11.275   5.555
10469POPC   PO462460  31.484  11.256   5.855
10469POPC   GL162461  31.441  11.311   6.155
10469POPC   GL262462  31.534  11.435   6.155
10469POPC   C1A62463  31.488  11.322   6.455
10469POPC   D2A62464  31.478  11.314   6.755
10469POPC   C3A62465  31.488  11.280   7.055
10469POPC   C4A62466  31.517  11.262   7.355
10469POPC   C1B62467  31.484  11.545   6.455
10469POPC   C2B62468  31.484  11.520   6.755
10469POPC   C3B62469  31.558  11.499   7.055
10469POPC   C4B62470  31.549  11.520   7.355
10470POPC   NC362471  42.343   5.139   5.555
10470POPC   PO462472  42.351   5.123   5.855
10470POPC   GL162473  42.324   5.093   6.155
10470POPC   GL262474  42.430   5.130   6.155
10470POPC   C1A62475  42.327   5.085   6.455
10470POPC   D2A62476  42.310   5.107   6.755
10470POPC   C3A62477  42.297   5.075   7.055
10470POPC   C4A62478  42.371   5.053   7.355
10470POPC   C1B62479  42.551   5.120   6.455
10470POPC   C2B62480  42.539   5.136   6.755
10470POPC   C3B62481  42.587   5.171   7.055
10470POPC   C4B62482  42.578   5.161   7.355
10471POPC   NC362483  36.882  41.597   5.555
10471POPC   PO462484  36.856  41.539   5.855
10471POPC   GL162485  36.912  41.537   6.155
10471POPC   GL262486  36.995  41.590   6.155
10471POPC   C1A62487  36.864  41.571   6.455
10471POPC   D2A62488  36.932  41.577   6.755
10471POPC   C3A62489  36.904  41.570   7.055
10471POPC   C4A62490  36.952  41.559   7.355
10471POPC   C1B62491  37.128  41.647   6.455
10471POPC   C2B62492  37.169  41.610   6.755
10471POPC   C3B62493  37.186  41.590   7.055
10471POPC   C4B62494  37.131  41.633   7.355
10472POPC   NC362495  15.174   1.980   5.555
10472POPC   PO462496  15.138   2.027   5.855
10472POPC   GL162497  15.151   2.023   6.155
10472POPC   GL262498  15.305   1.952   6.155
10472POPC   C1A62499  15.217   1.969   6.455
10472POPC   D2A62500  15.165   2.039   6.755
10472POPC   C3A62501  15.136   1.957   7.055
10472POPC   C4A62502  15.143   2.036   7.355
10472POPC   C1B62503  15.402   1.939   6.455
10472POPC   C2B62504  15.447   1.940   6.755
10472POPC   C3B62505  15.392   1.977   7.055
10472POPC   C4B62506  15.438   1.932   7.355
10473POPC   NC362507  16.693  16.691   5.555
10473POPC   PO462508  16.779  16.699   5.855
10473POPC   GL162509  16.732  16.683   6.155
10473POPC   GL262510  16.586  16.669   6.155
10473POPC   C1A62511  16.746  16.723   6.455
10473POPC   D2A62512  16.734  16.704   6.755
10473POPC   C3A62513  16.693  16.753   7.055
10473POPC   C4A62514  16.765  16.758   7.355
10473POPC   C1B62515  16.478  16.696   6.455
10473POPC   C2B62516  16.511  16.679   6.755
10473POPC   C3B62517  16.533  16.651   7.055
10473POPC   C4B62518  16.451  16.694   7.355
10474POPC   NC362519  10.527   5.832   5.555
10474POPC   PO462520  10.522   5.899   5.855
10474POPC   GL162521  10.526   5.837   6.155
10474POPC   GL262522  10.590   5.814   6.155
10474POPC   C1A62523  10.517   5.909   6.455
10474POPC   D2A62524  10.514   5.912   6.755
10474POPC   C3A62525  10.514   5.869   7.055
10474POPC   C4A62526  10.542   5.829   7.355
10474POPC   C1B62527  10.707   5.707   6.455
10474POPC   C2B62528  10.617   5.686   6.755
10474POPC   C3B62529  10.708   5.632   7.055
10474POPC   C4B62530  10.642   5.682   7.355
10475POPC   NC362531  43.071   6.681   5.555
10475POPC   PO462532  43.081   6.595   5.855
10475POPC   GL162533  43.103   6.631   6.155
10475POPC   GL262534  43.212   6.579   6.155
10475POPC   C1A62535  43.142   6.677   6.455
10475POPC   D2A62536  43.076   6.682   6.755
10475POPC   C3A62537  43.120   6.668   7.055
10475POPC   C4A62538  43.068   6.599   7.355
10475POPC   C1B62539  43.278   6.553   6.455
10475POPC   C2B62540  43.311   6.514   6.755
10475POPC   C3B62541  43.313   6.493   7.055
10475POPC   C4B62542  43.324   6.516   7.355
10476POPC   NC362543  24.504   5.135   5.555
10476POPC   PO462544  24.453   5.073   5.855
10476POPC   GL162545  24.487   5.044   6.155
10476POPC   GL262546  24.421   5.161   6.155
10476POPC   C1A62547  24.490   5.134   6.455
10476POPC   D2A62548  24.465   5.120   6.755
10476POPC   C3A62549  24.481   5.129   7.055
10476POPC   C4A62550  24.528   5.117   7.355
10476POPC   C1B62551  24.313   5.288   6.455
10476POPC   C2B62552  24.300   5.333   6.755
10476POPC   C3B62553  24.392   5.311   7.055
10476POPC   C4B62554  24.395   5.300   7.355
10477POPC   NC362555  44.633   1.218   5.555
10477POPC   PO462556  44.665   1.175   5.855
10477POPC   GL162557  44.677   1.252   6.155
10477POPC   GL262558  44.656   1.326   6.155
10477POPC   C1A62559  44.631   1.175   6.455
10477POPC   D2A62560  44.635   1.261   6.755
10477POPC   C3A62561  44.615   1.179   7.055
10477POPC   C4A62562  44.658   1.223   7.355
10477POPC   C1B62563  44.674   1.421   6.455
10477POPC   C2B62564  44.616   1.416   6.755
10477POPC   C3B62565  44.602   1.460   7.055
10477POPC   C4B62566  44.659   1.435   7.355
10478POPC   NC362567  30.735  12.873   5.555
10478POPC   PO462568  30.713  12.879   5.855
10478POPC   GL162569  30.684  12.805   6.155
10478POPC   GL262570  30.712  12.996   6.155
10478POPC   C1A62571  30.668  12.811   6.455
10478POPC   D2A62572  30.692  12.810   6.755
10478POPC   C3A62573  30.736  12.858   7.055
10478POPC   C4A62574  30.732  12.889   7.355
10478POPC   C1B62575  30.685  13.120   6.455
10478POPC   C2B62576  30.729  13.137   6.755
10478POPC   C3B62577  30.685  13.145   7.055
10478POPC   C4B62578  30.738  13.083   7.355
10479POPC   NC362579  26.837  41.527   5.555
10479POPC   PO462580  26.843  41.575   5.855
10479POPC   GL162581  26.844  41.532   6.155
10479POPC   GL262582  26.904  41.510   6.155
10479POPC   C1A62583  26.864  41.565   6.455
10479POPC   D2A62584  26.791  41.561   6.755
10479POPC   C3A62585  26.805  41.525   7.055
10479POPC   C4A62586  26.813  41.581   7.355
10479POPC   C1B62587  27.076  41.527   6.455
10479POPC   C2B62588  27.011  41.522   6.755
10479POPC   C3B62589  27.075  41.505   7.055
10479POPC   C4B62590  27.099  41.523   7.355
10480POPC   NC362591  40.048  39.960   5.555
10480POPC   PO462592  39.976  40.018   5.855
10480POPC   GL162593  39.995  40.042   6.155
10480POPC   GL262594  39.852  39.993   6.155
10480POPC   C1A62595  40.022  40.012   6.455
10480POPC   D2A62596  39.965  40.028   6.755
10480POPC   C3A62597  39.977  39.993   7.055
10480POPC   C4A62598  40.004  40.022   7.355
10480POPC   C1B62599  39.812  39.863   6.455
10480POPC   C2B62600  39.788  39.840   6.755
10480POPC   C3B62601  39.748  39.912   7.055
10480POPC   C4B62602  39.799  39.847   7.355
10481POPC   NC362603  22.150   3.562   5.555
10481POPC   PO462604  22.129   3.540   5.855
10481POPC   GL162605  22.208   3.585   6.155
10481POPC   GL262606  22.163   3.384   6.155
10481POPC   C1A62607  22.143   3.531   6.455
10481POPC   D2A62608  22.120   3.540   6.755
10481POPC   C3A62609  22.149   3.565   7.055
10481POPC   C4A62610  22.212   3.559   7.355
10481POPC   C1B62611  22.200   3.318   6.455
10481POPC   C2B62612  22.168   3.272   6.755
10481POPC   C3B62613  22.191   3.315   7.055
10481POPC   C4B62614  22.245   3.343   7.355
10482POPC   NC362615   7.435   7.379   5.555
10482POPC   PO462616   7.456   7.448   5.855
10482POPC   GL162617   7.371   7.419   6.155
10482POPC   GL262618   7.266   7.344   6.155
10482POPC   C1A62619   7.409   7.456   6.455
10482POPC   D2A62620   7.379   7.467   6.755
10482POPC   C3A62621   7.378   7.418   7.055
10482POPC   C4A62622   7.433   7.432   7.355
10482POPC   C1B62623   7.221   7.350   6.455
10482POPC   C2B62624   7.146   7.392   6.755
10482POPC   C3B62625   7.163   7.364   7.055
10482POPC   C4B62626   7.184   7.311   7.355
10483POPC   NC362627  12.836   8.167   5.555
10483POPC   PO462628  12.889   8.214   5.855
10483POPC   GL162629  12.883   8.179   6.155
10483POPC   GL262630  12.734   8.121   6.155
10483POPC   C1A62631  12.819   8.166   6.455
10483POPC   D2A62632  12.863   8.194   6.755
10483POPC   C3A62633  12.880   8.211   7.055
10483POPC   C4A62634  12.874   8.177   7.355
10483POPC   C1B62635  12.662   8.099   6.455
10483POPC   C2B62636  12.683   8.024   6.755
10483POPC   C3B62637  12.614   8.029   7.055
10483POPC   C4B62638  12.659   8.094   7.355
10484POPC   NC362639  40.733  14.354   5.555
10484POPC   PO462640  40.769  14.398   5.855
10484POPC   GL162641  40.737  14.430   6.155
10484POPC   GL262642  40.668  14.361   6.155
10484POPC   C1A62643  40.770  14.420   6.455
10484POPC   D2A62644  40.752  14.414   6.755
10484POPC   C3A62645  40.808  14.386   7.055
10484POPC   C4A62646  40.761  14.380   7.355
10484POPC   C1B62647  40.584  14.355   6.455
10484POPC   C2B62648  40.582  14.346   6.755
10484POPC   C3B62649  40.583  14.320   7.055
10484POPC   C4B62650  40.561  14.293   7.355
10485POPC   NC362651   8.164   3.533   5.555
10485POPC   PO462652   8.153   3.553   5.855
10485POPC   GL162653   8.152   3.516   6.155
10485POPC   GL262654   8.065   3.569   6.155
10485POPC   C1A62655   8.165   3.500   6.455
10485POPC   D2A62656   8.182   3.499   6.755
10485POPC   C3A62657   8.236   3.556   7.055
10485POPC   C4A62658   8.193   3.535   7.355
10485POPC   C1B62659   8.005   3.594   6.455
10485POPC   C2B62660   7.975   3.640   6.755
10485POPC   C3B62661   7.919   3.596   7.055
10485POPC   C4B62662   8.006   3.610   7.355
10486POPC   NC362663   1.969   8.989   5.555
10486POPC   PO462664   2.004   8.927   5.855
10486POPC   GL162665   1.998   8.968   6.155
10486POPC   GL262666   2.064   9.125   6.155
10486POPC   C1A62667   1.956   8.993   6.455
10486POPC   D2A62668   2.004   8.986   6.755
10486POPC   C3A62669   2.001   8.998   7.055
10486POPC   C4A62670   2.006   8.998   7.355
10486POPC   C1B62671   2.156   9.192   6.455
10486POPC   C2B62672   2.128   9.160   6.755
10486POPC   C3B62673   2.076   9.159   7.055
10486POPC   C4B62674   2.082   9.210   7.355
10487POPC   NC362675   2.741  15.921   5.555
10487POPC   PO462676   2.778  15.908   5.855
10487POPC   GL162677   2.780  15.919   6.155
10487POPC   GL262678   2.888  16.026   6.155
10487POPC   C1A62679   2.790  15.910   6.455
10487POPC   D2A62680   2.813  15.972   6.755
10487POPC   C3A62681   2.805  15.922   7.055
10487POPC   C4A62682   2.777  15.985   7.355
10487POPC   C1B62683   2.940  16.099   6.455
10487POPC   C2B62684   2.924  16.146   6.755
10487POPC   C3B62685   2.923  16.067   7.055
10487POPC   C4B62686   2.962  16.115   7.355
10488POPC   NC362687  14.414  33.849   5.555
10488POPC   PO462688  14.447  33.761   5.855
10488POPC   GL162689  14.355  33.826   6.155
10488POPC   GL262690  14.537  33.742   6.155
10488POPC   C1A62691  14.364  33.788   6.455
10488POPC   D2A62692  14.368  33.822   6.755
10488POPC   C3A62693  14.422  33.778   7.055
10488POPC   C4A62694  14.397  33.812   7.355
10488POPC   C1B62695  14.593  33.687   6.455
10488POPC   C2B62696  14.563  33.711   6.755
10488POPC   C3B62697  14.595  33.711   7.055
10488POPC   C4B62698  14.657  33.646   7.355
10489POPC   NC362699  34.564  32.271   5.555
10489POPC   PO462700  34.626  32.228   5.855
10489POPC   GL162701  34.558  32.233   6.155
10489POPC   GL262702  34.590  32.387   6.155
10489POPC   C1A62703  34.598  32.267   6.455
10489POPC   D2A62704  34.544  32.262   6.755
10489POPC   C3A62705  34.602  32.234   7.055
10489POPC   C4A62706  34.621  32.198   7.355
10489POPC   C1B62707  34.668  32.457   6.455
10489POPC   C2B62708  34.691  32.455   6.755
10489POPC   C3B62709  34.643  32.519   7.055
10489POPC   C4B62710  34.641  32.452   7.355
10490POPC   NC362711   5.131   1.192   5.555
10490POPC   PO462712   5.143   1.200   5.855
10490POPC   GL162713   5.086   1.183   6.155
10490POPC   GL262714   5.141   1.069   6.155
10490POPC   C1A62715   5.108   1.255   6.455
10490POPC   D2A62716   5.085   1.196   6.755
10490POPC   C3A62717   5.054   1.223   7.055
10490POPC   C4A62718   5.057   1.259   7.355
10490POPC   C1B62719   5.109   0.934   6.455
10490POPC   C2B62720   5.125   0.940   6.755
10490POPC   C3B62721   5.098   0.936   7.055
10490POPC   C4B62722   5.112   0.938   7.355
10491POPC   NC362723  28.396  22.903   5.555
10491POPC   PO462724  28.384  22.979   5.855
10491POPC   GL162725  28.373  22.978   6.155
10491POPC   GL262726  28.452  22.811   6.155
10491POPC   C1A62727  28.384  22.903   6.455
10491POPC   D2A62728  28.326  22.949   6.755
10491POPC   C3A62729  28.397  22.896   7.055
10491POPC   C4A62730  28.364  22.894   7.355
10491POPC   C1B62731  28.515  22.761   6.455
10491POPC   C2B62732  28.525  22.704   6.755
10491POPC   C3B62733  28.517  22.675   7.055
10491POPC   C4B62734  28.492  22.724   7.355
10492POPC   NC362735   2.742  44.638   5.555
10492POPC   PO462736   2.745  44.681   5.855
10492POPC   GL162737   2.764  44.658   6.155
10492POPC   GL262738   2.902  44.537   6.155
10492POPC   C1A62739   2.782  44.677   6.455
10492POPC   D2A62740   2.808  44.666   6.755
10492POPC   C3A62741   2.733  44.708   7.055
10492POPC   C4A62742   2.815  44.704   7.355
10492POPC   C1B62743   2.972  44.504   6.455
10492POPC   C2B62744   2.953  44.522   6.755
10492POPC   C3B62745   2.975  44.541   7.055
10492POPC   C4B62746   2.971  44.485   7.355
10493POPC   NC362747  17.503   2.790   5.555
10493POPC   PO462748  17.544   2.726   5.855
10493POPC   GL162749  17.488   2.792   6.155
10493POPC   GL262750  17.451   2.711   6.155
10493POPC   C1A62751  17.467   2.813   6.455
10493POPC   D2A62752  17.488   2.747   6.755
10493POPC   C3A62753  17.482   2.757   7.055
10493POPC   C4A62754  17.484   2.717   7.355
10493POPC   C1B62755  17.321   2.587   6.455
10493POPC   C2B62756  17.295   2.565   6.755
10493POPC   C3B62757  17.260   2.580   7.055
10493POPC   C4B62758  17.278   2.654   7.355
10494POPC   NC362759  32.999  30.734   5.555
10494POPC   PO462760  32.985  30.669   5.855
10494POPC   GL162761  33.022  30.700   6.155
10494POPC   GL262762  32.932  30.808   6.155
10494POPC   C1A62763  32.991  30.733   6.455
10494POPC   D2A62764  33.037  30.712   6.755
10494POPC   C3A62765  33.008  30.719   7.055
10494POPC   C4A62766  33.018  30.713   7.355
10494POPC   C1B62767  32.915  30.940   6.455
10494POPC   C2B62768  32.924  30.899   6.755
10494POPC   C3B62769  32.874  30.885   7.055
10494POPC   C4B62770  32.880  30.869   7.355
10495POPC   NC362771  33.847   5.828   5.555
10495POPC   PO462772  33.836   5.863   5.855
10495POPC   GL162773  33.801   5.852   6.155
10495POPC   GL262774  33.887   5.764   6.155
10495POPC   C1A62775  33.759   5.888   6.455
10495POPC   D2A62776  33.798   5.902   6.755
10495POPC   C3A62777  33.772   5.832   7.055
10495POPC   C4A62778  33.812   5.858   7.355
10495POPC   C1B62779  33.890   5.602   6.455
10495POPC   C2B62780  33.958   5.682   6.755
10495POPC   C3B62781  33.940   5.644   7.055
10495POPC   C4B62782  33.966   5.623   7.355
10496POPC   NC362783   1.990  23.677   5.555
10496POPC   PO462784   1.967  23.736   5.855
10496POPC   GL162785   2.021  23.713   6.155
10496POPC   GL262786   1.929  23.594   6.155
10496POPC   C1A62787   2.008  23.760   6.455
10496POPC   D2A62788   1.961  23.726   6.755
10496POPC   C3A62789   1.969  23.738   7.055
10496POPC   C4A62790   2.023  23.720   7.355
10496POPC   C1B62791   1.984  23.416   6.455
10496POPC   C2B62792   1.919  23.439   6.755
10496POPC   C3B62793   1.962  23.485   7.055
10496POPC   C4B62794   1.997  23.451   7.355
10497POPC   NC362795   2.775  39.975   5.555
10497POPC   PO462796   2.762  39.973   5.855
10497POPC   GL162797   2.739  40.040   6.155
10497POPC   GL262798   2.850  40.089   6.155
10497POPC   C1A62799   2.743  39.967   6.455
10497POPC   D2A62800   2.737  39.958   6.755
10497POPC   C3A62801   2.743  39.982   7.055
10497POPC   C4A62802   2.734  40.044   7.355
10497POPC   C1B62803   2.866  40.194   6.455
10497POPC   C2B62804   2.853  40.270   6.755
10497POPC   C3B62805   2.877  40.248   7.055
10497POPC   C4B62806   2.842  40.250   7.355
10498POPC   NC362807  40.766  27.585   5.555
10498POPC   PO462808  40.781  27.599   5.855
10498POPC   GL162809  40.818  27.560   6.155
10498POPC   GL262810  40.824  27.458   6.155
10498POPC   C1A62811  40.742  27.547   6.455
10498POPC   D2A62812  40.791  27.578   6.755
10498POPC   C3A62813  40.769  27.623   7.055
10498POPC   C4A62814  40.778  27.637   7.355
10498POPC   C1B62815  40.956  27.386   6.455
10498POPC   C2B62816  40.937  27.438   6.755
10498POPC   C3B62817  40.924  27.397   7.055
10498POPC   C4B62818  40.971  27.466   7.355
10499POPC   NC362819  13.654  38.468   5.555
10499POPC   PO462820  13.666  38.435   5.855
10499POPC   GL162821  13.584  38.469   6.155
10499POPC   GL262822  13.620  38.617   6.155
10499POPC   C1A62823  13.615  38.447   6.455
10499POPC   D2A62824  13.634  38.476   6.755
10499POPC   C3A62825  13.664  38.504   7.055
10499POPC   C4A62826  13.584  38.454   7.355
10499POPC   C1B62827  13.614  38.659   6.455
10499POPC   C2B62828  13.604  38.688   6.755
10499POPC   C3B62829  13.632  38.738   7.055
10499POPC   C4B62830  13.582  38.727   7.355
10500POPC   NC362831   4.345  40.043   5.555
10500POPC   PO462832   4.355  39.960   5.855
10500POPC   GL162833   4.314  40.004   6.155
10500POPC   GL262834   4.365  40.067   6.155
10500POPC   C1A62835   4.350  40.015   6.455
10500POPC   D2A62836   4.328  39.965   6.755
10500POPC   C3A62837   4.291  40.025   7.055
10500POPC   C4A62838   4.308  40.049   7.355
10500POPC   C1B62839   4.505  40.187   6.455
10500POPC   C2B62840   4.440  40.207   6.755
10500POPC   C3B62841   4.482  40.142   7.055
10500POPC   C4B62842   4.463  40.191   7.355
10501POPC   NC362843  31.475  28.353   5.555
10501POPC   PO462844  31.443  28.343   5.855
10501POPC   GL162845  31.486  28.405   6.155
10501POPC   GL262846  31.487  28.251   6.155
10501POPC   C1A62847  31.486  28.378   6.455
10501POPC   D2A62848  31.437  28.382   6.755
10501POPC   C3A62849  31.498  28.336   7.055
10501POPC   C4A62850  31.429  28.408   7.355
10501POPC   C1B62851  31.586  28.156   6.455
10501POPC   C2B62852  31.564  28.170   6.755
10501POPC   C3B62853  31.566  28.172   7.055
10501POPC   C4B62854  31.526  28.082   7.355
10502POPC   NC362855  43.914  38.448   5.555
10502POPC   PO462856  43.868  38.441   5.855
10502POPC   GL162857  43.934  38.441   6.155
10502POPC   GL262858  43.803  38.556   6.155
10502POPC   C1A62859  43.909  38.466   6.455
10502POPC   D2A62860  43.910  38.420   6.755
10502POPC   C3A62861  43.886  38.413   7.055
10502POPC   C4A62862  43.861  38.502   7.355
10502POPC   C1B62863  43.780  38.647   6.455
10502POPC   C2B62864  43.746  38.699   6.755
10502POPC   C3B62865  43.752  38.672   7.055
10502POPC   C4B62866  43.784  38.691   7.355
10503POPC   NC362867  39.192  12.840   5.555
10503POPC   PO462868  39.274  12.875   5.855
10503POPC   GL162869  39.258  12.808   6.155
10503POPC   GL262870  39.095  12.842   6.155
10503POPC   C1A62871  39.274  12.806   6.455
10503POPC   D2A62872  39.193  12.871   6.755
10503POPC   C3A62873  39.187  12.830   7.055
10503POPC   C4A62874  39.185  12.827   7.355
10503POPC   C1B62875  38.994  12.959   6.455
10503POPC   C2B62876  38.975  12.899   6.755
10503POPC   C3B62877  39.013  12.940   7.055
10503POPC   C4B62878  38.988  12.942   7.355
10504POPC   NC362879  14.430  12.115   5.555
10504POPC   PO462880  14.377  12.031   5.855
10504POPC   GL162881  14.451  12.095   6.155
10504POPC   GL262882  14.270  12.181   6.155
10504POPC   C1A62883  14.431  12.066   6.455
10504POPC   D2A62884  14.431  12.072   6.755
10504POPC   C3A62885  14.412  12.026   7.055
10504POPC   C4A62886  14.361  12.091   7.355
10504POPC   C1B62887  14.184  12.293   6.455
10504POPC   C2B62888  14.271  12.232   6.755
10504POPC   C3B62889  14.232  12.264   7.055
10504POPC   C4B62890  14.276  12.245   7.355
10505POPC   NC362891   7.440  44.637   5.555
10505POPC   PO462892   7.458  44.680   5.855
10505POPC   GL162893   7.463  44.647   6.155
10505POPC   GL262894   7.294  44.613   6.155
10505POPC   C1A62895   7.412  44.648   6.455
10505POPC   D2A62896   7.396  44.641   6.755
10505POPC   C3A62897   7.394  44.625   7.055
10505POPC   C4A62898   7.418  44.670   7.355
10505POPC   C1B62899   7.249  44.479   6.455
10505POPC   C2B62900   7.182  44.529   6.755
10505POPC   C3B62901   7.239  44.468   7.055
10505POPC   C4B62902   7.262  44.524   7.355
10506POPC   NC362903  36.914   1.957   5.555
10506POPC   PO462904  36.951   2.039   5.855
10506POPC   GL162905  36.916   2.003   6.155
10506POPC   GL262906  36.823   1.980   6.155
10506POPC   C1A62907  36.893   1.977   6.455
10506POPC   D2A62908  36.865   1.994   6.755
10506POPC   C3A62909  36.898   1.957   7.055
10506POPC   C4A62910  36.858   2.004   7.355
10506POPC   C1B62911  36.657   2.074   6.455
10506POPC   C2B62912  36.673   2.012   6.755
10506POPC   C3B62913  36.698   2.004   7.055
10506POPC   C4B62914  36.616   2.073   7.355
10507POPC   NC362915   8.203   8.204   5.555
10507POPC   PO462916   8.191   8.160   5.855
10507POPC   GL162917   8.229   8.217   6.155
10507POPC   GL262918   8.187   8.363   6.155
10507POPC   C1A62919   8.188   8.185   6.455
10507POPC   D2A62920   8.198   8.153   6.755
10507POPC   C3A62921   8.194   8.161   7.055
10507POPC   C4A62922   8.213   8.179   7.355
10507POPC   C1B62923   8.099   8.395   6.455
10507POPC   C2B62924   8.158   8.416   6.755
10507POPC   C3B62925   8.177   8.483   7.055
10507POPC   C4B62926   8.180   8.422   7.355
10508POPC   NC362927  29.152  12.831   5.555
10508POPC   PO462928  29.128  12.809   5.855
10508POPC   GL162929  29.191  12.869   6.155
10508POPC   GL262930  29.094  12.767   6.155
10508POPC   C1A62931  29.130  12.859   6.455
10508POPC   D2A62932  29.143  12.861   6.755
10508POPC   C3A62933  29.141  12.885   7.055
10508POPC   C4A62934  29.137  12.900   7.355
10508POPC   C1B62935  28.988  12.659   6.455
10508POPC   C2B62936  29.019  12.634   6.755
10508POPC   C3B62937  28.953  12.615   7.055
10508POPC   C4B62938  28.983  12.672   7.355
10509POPC   NC362939  44.619  27.603   5.555
10509POPC   PO462940  44.636  27.582   5.855
10509POPC   GL162941  44.683  27.548   6.155
10509POPC   GL262942  44.800  27.606   6.155
10509POPC   C1A62943  44.663  27.636   6.455
10509POPC   D2A62944  44.664  27.579   6.755
10509POPC   C3A62945  44.630  27.594   7.055
10509POPC   C4A62946  44.697  27.564   7.355
10509POPC   C1B62947  44.882  27.645   6.455
10509POPC   C2B62948  44.911  27.687   6.755
10509POPC   C3B62949  44.886  27.653   7.055
10509POPC   C4B62950  44.926  27.649   7.355
10510POPC   NC362951  29.885  19.092   5.555
10510POPC   PO462952  29.921  19.074   5.855
10510POPC   GL162953  29.943  19.015   6.155
10510POPC   GL262954  29.967  19.134   6.155
10510POPC   C1A62955  29.940  19.062   6.455
10510POPC   D2A62956  29.918  19.032   6.755
10510POPC   C3A62957  29.894  19.103   7.055
10510POPC   C4A62958  29.917  19.022   7.355
10510POPC   C1B62959  30.007  19.253   6.455
10510POPC   C2B62960  30.076  19.319   6.755
10510POPC   C3B62961  30.020  19.241   7.055
10510POPC   C4B62962  30.019  19.250   7.355
10511POPC   NC362963  15.909  22.986   5.555
10511POPC   PO462964  15.956  22.938   5.855
10511POPC   GL162965  15.916  22.910   6.155
10511POPC   GL262966  16.049  22.824   6.155
10511POPC   C1A62967  15.960  22.898   6.455
10511POPC   D2A62968  15.941  22.918   6.755
10511POPC   C3A62969  15.967  22.947   7.055
10511POPC   C4A62970  15.920  22.905   7.355
10511POPC   C1B62971  16.173  22.717   6.455
10511POPC   C2B62972  16.108  22.813   6.755
10511POPC   C3B62973  16.176  22.748   7.055
10511POPC   C4B62974  16.138  22.731   7.355
10512POPC   NC362975  33.843  39.218   5.555
10512POPC   PO462976  33.764  39.267   5.855
10512POPC   GL162977  33.777  39.223   6.155
10512POPC   GL262978  33.633  39.274   6.155
10512POPC   C1A62979  33.754  39.241   6.455
10512POPC   D2A62980  33.790  39.242   6.755
10512POPC   C3A62981  33.803  39.251   7.055
10512POPC   C4A62982  33.759  39.233   7.355
10512POPC   C1B62983  33.529  39.337   6.455
10512POPC   C2B62984  33.580  39.334   6.755
10512POPC   C3B62985  33.535  39.346   7.055
10512POPC   C4B62986  33.539  39.331   7.355
10513POPC   NC362987  35.304  36.100   5.555
10513POPC   PO462988  35.321  36.101   5.855
10513POPC   GL162989  35.319  36.121   6.155
10513POPC   GL262990  35.399  36.242   6.155
10513POPC   C1A62991  35.325  36.107   6.455
10513POPC   D2A62992  35.398  36.139   6.755
10513POPC   C3A62993  35.385  36.087   7.055
10513POPC   C4A62994  35.351  36.103   7.355
10513POPC   C1B62995  35.353  36.391   6.455
10513POPC   C2B62996  35.341  36.385   6.755
10513POPC   C3B62997  35.377  36.327   7.055
10513POPC   C4B62998  35.389  36.419   7.355
10514POPC   NC362999  34.570  29.154   5.555
10514POPC   PO463000  34.606  29.161   5.855
10514POPC   GL163001  34.618  29.122   6.155
10514POPC   GL263002  34.683  29.216   6.155
10514POPC   C1A63003  34.579  29.162   6.455
10514POPC   D2A63004  34.604  29.159   6.755
10514POPC   C3A63005  34.551  29.108   7.055
10514POPC   C4A63006  34.601  29.192   7.355
10514POPC   C1B63007  34.833  29.229   6.455
10514POPC   C2B63008  34.793  29.200   6.755
10514POPC   C3B63009  34.812  29.205   7.055
10514POPC   C4B63010  34.830  29.249   7.355
10515POPC   NC363011  18.303  43.854   5.555
10515POPC   PO463012  18.234  43.875   5.855
10515POPC   GL163013  18.284  43.905   6.155
10515POPC   GL263014  18.146  43.794   6.155
10515POPC   C1A63015  18.290  43.906   6.455
10515POPC   D2A63016  18.293  43.868   6.755
10515POPC   C3A63017  18.261  43.859   7.055
10515POPC   C4A63018  18.291  43.854   7.355
10515POPC   C1B63019  18.096  43.807   6.455
10515POPC   C2B63020  18.071  43.827   6.755
10515POPC   C3B63021  18.010  43.817   7.055
10515POPC   C4B63022  18.081  43.788   7.355
10516POPC   NC363023   9.007  22.167   5.555
10516POPC   PO463024   9.009  22.159   5.855
10516POPC   GL163025   8.995  22.211   6.155
10516POPC   GL263026   8.895  22.036   6.155
10516POPC   C1A63027   8.929  22.196   6.455
10516POPC   D2A63028   9.021  22.158   6.755
10516POPC   C3A63029   8.931  22.201   7.055
10516POPC   C4A63030   8.924  22.181   7.355
10516POPC   C1B63031   8.795  21.974   6.455
10516POPC   C2B63032   8.806  21.943   6.755
10516POPC   C3B63033   8.781  21.988   7.055
10516POPC   C4B63034   8.780  21.932   7.355
10517POPC   NC363035   9.752  30.713   5.555
10517POPC   PO463036   9.714  30.729   5.855
10517POPC   GL163037   9.708  30.715   6.155
10517POPC   GL263038   9.647  30.633   6.155
10517POPC   C1A63039   9.793  30.664   6.455
10517POPC   D2A63040   9.730  30.741   6.755
10517POPC   C3A63041   9.720  30.728   7.055
10517POPC   C4A63042   9.736  30.695   7.355
10517POPC   C1B63043   9.537  30.704   6.455
10517POPC   C2B63044   9.508  30.699   6.755
10517POPC   C3B63045   9.479  30.643   7.055
10517POPC   C4B63046   9.545  30.623   7.355
10518POPC   NC363047   9.720  25.283   5.555
10518POPC   PO463048   9.742  25.218   5.855
10518POPC   GL163049   9.719  25.270   6.155
10518POPC   GL263050   9.725  25.387   6.155
10518POPC   C1A63051   9.751  25.230   6.455
10518POPC   D2A63052   9.745  25.275   6.755
10518POPC   C3A63053   9.716  25.309   7.055
10518POPC   C4A63054   9.781  25.310   7.355
10518POPC   C1B63055   9.801  25.495   6.455
10518POPC   C2B63056   9.795  25.545   6.755
10518POPC   C3B63057   9.749  25.527   7.055
10518POPC   C4B63058   9.761  25.468   7.355
10519POPC   NC363059  34.566  37.721   5.555
10519POPC   PO463060  34.593  37.674   5.855
10519POPC   GL163061  34.574  37.711   6.155
10519POPC   GL263062  34.574  37.765   6.155
10519POPC   C1A63063  34.566  37.630   6.455
10519POPC   D2A63064  34.546  37.630   6.755
10519POPC   C3A63065  34.563  37.667   7.055
10519POPC   C4A63066  34.607  37.682   7.355
10519POPC   C1B63067  34.591  37.908   6.455
10519POPC   C2B63068  34.553  37.888   6.755
10519POPC   C3B63069  34.616  37.901   7.055
10519POPC   C4B63070  34.596  37.954   7.355
10520POPC   NC363071  32.276  32.986   5.555
10520POPC   PO463072  32.215  32.985   5.855
10520POPC   GL163073  32.282  33.061   6.155
10520POPC   GL263074  32.362  32.944   6.155
10520POPC   C1A63075  32.225  33.010   6.455
10520POPC   D2A63076  32.253  33.014   6.755
10520POPC   C3A63077  32.278  32.981   7.055
10520POPC   C4A63078  32.212  33.044   7.355
10520POPC   C1B63079  32.464  33.006   6.455
10520POPC   C2B63080  32.520  32.993   6.755
10520POPC   C3B63081  32.471  32.922   7.055
10520POPC   C4B63082  32.453  32.950   7.355
10521POPC   NC363083  21.414  18.245   5.555
10521POPC   PO463084  21.370  18.242   5.855
10521POPC   GL163085  21.426  18.255   6.155
10521POPC   GL263086  21.389  18.175   6.155
10521POPC   C1A63087  21.392  18.245   6.455
10521POPC   D2A63088  21.339  18.296   6.755
10521POPC   C3A63089  21.341  18.257   7.055
10521POPC   C4A63090  21.344  18.246   7.355
10521POPC   C1B63091  21.416  18.068   6.455
10521POPC   C2B63092  21.385  18.081   6.755
10521POPC   C3B63093  21.451  17.991   7.055
10521POPC   C4B63094  21.449  18.021   7.355
10522POPC   NC363095  13.656  21.371   5.555
10522POPC   PO463096  13.620  21.355   5.855
10522POPC   GL163097  13.651  21.420   6.155
10522POPC   GL263098  13.686  21.526   6.155
10522POPC   C1A63099  13.638  21.356   6.455
10522POPC   D2A63100  13.581  21.339   6.755
10522POPC   C3A63101  13.657  21.424   7.055
10522POPC   C4A63102  13.625  21.426   7.355
10522POPC   C1B63103  13.795  21.570   6.455
10522POPC   C2B63104  13.790  21.527   6.755
10522POPC   C3B63105  13.822  21.580   7.055
10522POPC   C4B63106  13.829  21.527   7.355
10523POPC   NC363107   1.951  35.364   5.555
10523POPC   PO463108   1.940  35.373   5.855
10523POPC   GL163109   1.945  35.397   6.155
10523POPC   GL263110   1.959  35.429   6.155
10523POPC   C1A63111   1.949  35.307   6.455
10523POPC   D2A63112   1.960  35.379   6.755
10523POPC   C3A63113   2.014  35.307   7.055
10523POPC   C4A63114   1.978  35.348   7.355
10523POPC   C1B63115   1.913  35.589   6.455
10523POPC   C2B63116   1.888  35.606   6.755
10523POPC   C3B63117   1.888  35.558   7.055
10523POPC   C4B63118   1.926  35.558   7.355
10524POPC   NC363119  19.791  43.906   5.555
10524POPC   PO463120  19.875  43.886   5.855
10524POPC   GL163121  19.808  43.923   6.155
10524POPC   GL263122  19.791  43.739   6.155
10524POPC   C1A63123  19.817  43.845   6.455
10524POPC   D2A63124  19.881  43.934   6.755
10524POPC   C3A63125  19.870  43.899   7.055
10524POPC   C4A63126  19.875  43.837   7.355
10524POPC   C1B63127  19.686  43.656   6.455
10524POPC   C2B63128  19.661  43.710   6.755
10524POPC   C3B63129  19.734  43.676   7.055
10524POPC   C4B63130  19.664  43.685   7.355
10525POPC   NC363131   8.948   2.018   5.555
10525POPC   PO463132   8.956   1.976   5.855
10525POPC   GL163133   8.979   1.962   6.155
10525POPC   GL263134   9.113   1.970   6.155
10525POPC   C1A63135   8.955   1.965   6.455
10525POPC   D2A63136   8.956   2.028   6.755
10525POPC   C3A63137   8.957   2.010   7.055
10525POPC   C4A63138   9.016   1.954   7.355
10525POPC   C1B63139   9.196   2.014   6.455
10525POPC   C2B63140   9.192   1.999   6.755
10525POPC   C3B63141   9.194   1.935   7.055
10525POPC   C4B63142   9.175   1.942   7.355
10526POPC   NC363143  37.639  43.093   5.555
10526POPC   PO463144  37.664  43.064   5.855
10526POPC   GL163145  37.674  43.077   6.155
10526POPC   GL263146  37.706  42.999   6.155
10526POPC   C1A63147  37.718  43.087   6.455
10526POPC   D2A63148  37.718  43.110   6.755
10526POPC   C3A63149  37.719  43.121   7.055
10526POPC   C4A63150  37.647  43.069   7.355
10526POPC   C1B63151  37.773  42.842   6.455
10526POPC   C2B63152  37.793  42.840   6.755
10526POPC   C3B63153  37.779  42.926   7.055
10526POPC   C4B63154  37.806  42.913   7.355
10527POPC   NC363155  29.119  44.631   5.555
10527POPC   PO463156  29.128  44.621   5.855
10527POPC   GL163157  29.178  44.624   6.155
10527POPC   GL263158  29.258  44.644   6.155
10527POPC   C1A63159  29.163  44.668   6.455
10527POPC   D2A63160  29.146  44.711   6.755
10527POPC   C3A63161  29.164  44.637   7.055
10527POPC   C4A63162  29.180  44.697   7.355
10527POPC   C1B63163  29.386  44.665   6.455
10527POPC   C2B63164  29.421  44.683   6.755
10527POPC   C3B63165  29.433  44.594   7.055
10527POPC   C4B63166  29.407  44.604   7.355
10528POPC   NC363167  43.123  39.969   5.555
10528POPC   PO463168  43.085  40.000   5.855
10528POPC   GL163169  43.117  40.023   6.155
10528POPC   GL263170  43.033  40.099   6.155
10528POPC   C1A63171  43.061  40.054   6.455
10528POPC   D2A63172  43.094  40.002   6.755
10528POPC   C3A63173  43.106  40.026   7.055
10528POPC   C4A63174  43.080  39.998   7.355
10528POPC   C1B63175  42.956  40.240   6.455
10528POPC   C2B63176  42.957  40.201   6.755
10528POPC   C3B63177  42.959  40.172   7.055
10528POPC   C4B63178  42.939  40.219   7.355
10529POPC   NC363179  36.927   3.551   5.555
10529POPC   PO463180  36.940   3.519   5.855
10529POPC   GL163181  36.858   3.584   6.155
10529POPC   GL263182  36.881   3.614   6.155
10529POPC   C1A63183  36.855   3.526   6.455
10529POPC   D2A63184  36.887   3.528   6.755
10529POPC   C3A63185  36.913   3.558   7.055
10529POPC   C4A63186  36.859   3.507   7.355
10529POPC   C1B63187  36.756   3.712   6.455
10529POPC   C2B63188  36.759   3.732   6.755
10529POPC   C3B63189  36.740   3.709   7.055
10529POPC   C4B63190  36.739   3.742   7.355
10530POPC   NC363191  27.575  23.725   5.555
10530POPC   PO463192  27.548  23.712   5.855
10530POPC   GL163193  27.569  23.725   6.155
10530POPC   GL263194  27.596  23.551   6.155
10530POPC   C1A63195  27.632  23.698   6.455
10530POPC   D2A63196  27.634  23.725   6.755
10530POPC   C3A63197  27.567  23.666   7.055
10530POPC   C4A63198  27.593  23.697   7.355
10530POPC   C1B63199  27.547  23.506   6.455
10530POPC   C2B63200  27.500  23.480   6.755
10530POPC   C3B63201  27.573  23.446   7.055
10530POPC   C4B63202  27.551  23.505   7.355
10531POPC   NC363203  14.388  34.611   5.555
10531POPC   PO463204  14.391  34.609   5.855
10531POPC   GL163205  14.401  34.621   6.155
10531POPC   GL263206  14.493  34.684   6.155
10531POPC   C1A63207  14.380  34.616   6.455
10531POPC   D2A63208  14.362  34.550   6.755
10531POPC   C3A63209  14.360  34.584   7.055
10531POPC   C4A63210  14.373  34.614   7.355
10531POPC   C1B63211  14.642  34.717   6.455
10531POPC   C2B63212  14.631  34.707   6.755
10531POPC   C3B63213  14.656  34.662   7.055
10531POPC   C4B63214  14.576  34.745   7.355
10532POPC   NC363215  14.378  15.993   5.555
10532POPC   PO463216  14.437  15.931   5.855
10532POPC   GL163217  14.450  15.960   6.155
10532POPC   GL263218  14.358  15.817   6.155
10532POPC   C1A63219  14.368  15.984   6.455
10532POPC   D2A63220  14.365  15.944   6.755
10532POPC   C3A63221  14.378  15.973   7.055
10532POPC   C4A63222  14.376  15.956   7.355
10532POPC   C1B63223  14.339  15.687   6.455
10532POPC   C2B63224  14.296  15.766   6.755
10532POPC   C3B63225  14.265  15.740   7.055
10532POPC   C4B63226  14.262  15.689   7.355
10533POPC   NC363227  13.606   2.778   5.555
10533POPC   PO463228  13.658   2.766   5.855
10533POPC   GL163229  13.658   2.804   6.155
10533POPC   GL263230  13.685   2.636   6.155
10533POPC   C1A63231  13.615   2.717   6.455
10533POPC   D2A63232  13.654   2.720   6.755
10533POPC   C3A63233  13.643   2.723   7.055
10533POPC   C4A63234  13.587   2.759   7.355
10533POPC   C1B63235  13.825   2.556   6.455
10533POPC   C2B63236  13.765   2.614   6.755
10533POPC   C3B63237  13.841   2.583   7.055
10533POPC   C4B63238  13.841   2.609   7.355
10534POPC   NC363239  12.875  37.630   5.555
10534POPC   PO463240  12.862  37.656   5.855
10534POPC   GL163241  12.888  37.659   6.155
10534POPC   GL263242  12.759  37.582   6.155
10534POPC   C1A63243  12.893  37.696   6.455
10534POPC   D2A63244  12.810  37.664   6.755
10534POPC   C3A63245  12.848  37.698   7.055
10534POPC   C4A63246  12.883  37.720   7.355
10534POPC   C1B63247  12.679  37.534   6.455
10534POPC   C2B63248  12.638  37.520   6.755
10534POPC   C3B63249  12.629  37.544   7.055
10534POPC   C4B63250  12.650  37.542   7.355
10535POPC   NC363251  40.759   9.741   5.555
10535POPC   PO463252  40.792   9.778   5.855
10535POPC   GL163253  40.783   9.711   6.155
10535POPC   GL263254  40.622   9.741   6.155
10535POPC   C1A63255  40.762   9.776   6.455
10535POPC   D2A63256  40.756   9.738   6.755
10535POPC   C3A63257  40.765   9.744   7.055
10535POPC   C4A63258  40.801   9.727   7.355
10535POPC   C1B63259  40.570   9.777   6.455
10535POPC   C2B63260  40.531   9.754   6.755
10535POPC   C3B63261  40.510   9.813   7.055
10535POPC   C4B63262  40.491   9.719   7.355
10536POPC   NC363263  29.118  22.127   5.555
10536POPC   PO463264  29.191  22.203   5.855
10536POPC   GL163265  29.177  22.141   6.155
10536POPC   GL263266  29.187  22.322   6.155
10536POPC   C1A63267  29.147  22.138   6.455
10536POPC   D2A63268  29.163  22.167   6.755
10536POPC   C3A63269  29.110  22.153   7.055
10536POPC   C4A63270  29.176  22.176   7.355
10536POPC   C1B63271  29.164  22.402   6.455
10536POPC   C2B63272  29.176  22.386   6.755
10536POPC   C3B63273  29.215  22.388   7.055
10536POPC   C4B63274  29.218  22.427   7.355
10537POPC   NC363275  26.059  27.564   5.555
10537POPC   PO463276  26.008  27.615   5.855
10537POPC   GL163277  26.046  27.551   6.155
10537POPC   GL263278  25.888  27.628   6.155
10537POPC   C1A63279  26.035  27.557   6.455
10537POPC   D2A63280  26.084  27.638   6.755
10537POPC   C3A63281  26.069  27.578   7.055
10537POPC   C4A63282  26.003  27.568   7.355
10537POPC   C1B63283  25.758  27.699   6.455
10537POPC   C2B63284  25.781  27.612   6.755
10537POPC   C3B63285  25.775  27.691   7.055
10537POPC   C4B63286  25.810  27.634   7.355
10538POPC   NC363287  18.309  22.116   5.555
10538POPC   PO463288  18.282  22.172   5.855
10538POPC   GL163289  18.314  22.139   6.155
10538POPC   GL263290  18.183  22.294   6.155
10538POPC   C1A63291  18.287  22.170   6.455
10538POPC   D2A63292  18.235  22.124   6.755
10538POPC   C3A63293  18.293  22.124   7.055
10538POPC   C4A63294  18.276  22.150   7.355
10538POPC   C1B63295  18.194  22.381   6.455
10538POPC   C2B63296  18.178  22.410   6.755
10538POPC   C3B63297  18.176  22.397   7.055
10538POPC   C4B63298  18.179  22.434   7.355
10539POPC   NC363299  12.847  24.483   5.555
10539POPC   PO463300  12.871  24.477   5.855
10539POPC   GL163301  12.877  24.443   6.155
10539POPC   GL263302  12.830  24.358   6.155
10539POPC   C1A63303  12.889  24.521   6.455
10539POPC   D2A63304  12.870  24.506   6.755
10539POPC   C3A63305  12.864  24.489   7.055
10539POPC   C4A63306  12.868  24.474   7.355
10539POPC   C1B63307  12.744  24.264   6.455
10539POPC   C2B63308  12.688  24.278   6.755
10539POPC   C3B63309  12.700  24.291   7.055
10539POPC   C4B63310  12.743  24.261   7.355
10540POPC   NC363311  12.040  34.617   5.555
10540POPC   PO463312  12.075  34.581   5.855
10540POPC   GL163313  12.062  34.549   6.155
10540POPC   GL263314  12.111  34.714   6.155
10540POPC   C1A63315  12.109  34.553   6.455
10540POPC   D2A63316  12.038  34.595   6.755
10540POPC   C3A63317  12.049  34.611   7.055
10540POPC   C4A63318  12.077  34.579   7.355
10540POPC   C1B63319  12.116  34.869   6.455
10540POPC   C2B63320  12.113  34.823   6.755
10540POPC   C3B63321  12.095  34.824   7.055
10540POPC   C4B63322  12.073  34.805   7.355
10541POPC   NC363323  10.561  25.307   5.555
10541POPC   PO463324  10.506  25.244   5.855
10541POPC   GL163325  10.475  25.301   6.155
10541POPC   GL263326  10.417  25.117   6.155
10541POPC   C1A63327  10.518  25.232   6.455
10541POPC   D2A63328  10.479  25.224   6.755
10541POPC   C3A63329  10.520  25.267   7.055
10541POPC   C4A63330  10.565  25.285   7.355
10541POPC   C1B63331  10.389  25.045   6.455
10541POPC   C2B63332  10.371  25.027   6.755
10541POPC   C3B63333  10.379  25.021   7.055
10541POPC   C4B63334  10.442  25.049   7.355
10542POPC   NC363335  28.403   0.435   5.555
10542POPC   PO463336  28.324   0.405   5.855
10542POPC   GL163337  28.398   0.412   6.155
10542POPC   GL263338  28.266   0.342   6.155
10542POPC   C1A63339  28.360   0.451   6.455
10542POPC   D2A63340  28.340   0.464   6.755
10542POPC   C3A63341  28.400   0.479   7.055
10542POPC   C4A63342  28.406   0.470   7.355
10542POPC   C1B63343  28.226   0.210   6.455
10542POPC   C2B63344  28.220   0.237   6.755
10542POPC   C3B63345  28.258   0.279   7.055
10542POPC   C4B63346  28.224   0.202   7.355
10543POPC   NC363347  12.825  40.765   5.555
10543POPC   PO463348  12.827  40.774   5.855
10543POPC   GL163349  12.851  40.758   6.155
10543POPC   GL263350  12.917  40.690   6.155
10543POPC   C1A63351  12.834  40.736   6.455
10543POPC   D2A63352  12.803  40.755   6.755
10543POPC   C3A63353  12.878  40.748   7.055
10543POPC   C4A63354  12.818  40.805   7.355
10543POPC   C1B63355  12.946  40.615   6.455
10543POPC   C2B63356  12.968  40.583   6.755
10543POPC   C3B63357  13.012  40.525   7.055
10543POPC   C4B63358  13.010  40.584   7.355
10544POPC   NC363359  21.411  41.564   5.555
10544POPC   PO463360  21.385  41.538   5.855
10544POPC   GL163361  21.352  41.604   6.155
10544POPC   GL263362  21.509  41.502   6.155
10544POPC   C1A63363  21.337  41.580   6.455
10544POPC   D2A63364  21.341  41.560   6.755
10544POPC   C3A63365  21.402  41.567   7.055
10544POPC   C4A63366  21.349  41.576   7.355
10544POPC   C1B63367  21.565  41.402   6.455
10544POPC   C2B63368  21.554  41.372   6.755
10544POPC   C3B63369  21.562  41.363   7.055
10544POPC   C4B63370  21.557  41.417   7.355
10545POPC   NC363371  40.829   7.389   5.555
10545POPC   PO463372  40.811   7.378   5.855
10545POPC   GL163373  40.778   7.461   6.155
10545POPC   GL263374  40.785   7.291   6.155
10545POPC   C1A63375  40.760   7.431   6.455
10545POPC   D2A63376  40.808   7.451   6.755
10545POPC   C3A63377  40.762   7.400   7.055
10545POPC   C4A63378  40.780   7.377   7.355
10545POPC   C1B63379  40.740   7.168   6.455
10545POPC   C2B63380  40.683   7.165   6.755
10545POPC   C3B63381  40.681   7.190   7.055
10545POPC   C4B63382  40.763   7.197   7.355
10546POPC   NC363383  15.967   5.835   5.555
10546POPC   PO463384  15.951   5.872   5.855
10546POPC   GL163385  15.971   5.887   6.155
10546POPC   GL263386  16.036   5.767   6.155
10546POPC   C1A63387  15.918   5.850   6.455
10546POPC   D2A63388  15.952   5.887   6.755
10546POPC   C3A63389  15.973   5.879   7.055
10546POPC   C4A63390  15.958   5.869   7.355
10546POPC   C1B63391  16.104   5.686   6.455
10546POPC   C2B63392  16.096   5.651   6.755
10546POPC   C3B63393  16.044   5.623   7.055
10546POPC   C4B63394  16.058   5.685   7.355
10547POPC   NC363395  15.226   5.091   5.555
10547POPC   PO463396  15.155   5.063   5.855
10547POPC   GL163397  15.192   5.076   6.155
10547POPC   GL263398  15.019   5.153   6.155
10547POPC   C1A63399  15.188   5.125   6.455
10547POPC   D2A63400  15.216   5.064   6.755
10547POPC   C3A63401  15.191   5.066   7.055
10547POPC   C4A63402  15.209   5.131   7.355
10547POPC   C1B63403  14.894   5.141   6.455
10547POPC   C2B63404  14.886   5.138   6.755
10547POPC   C3B63405  14.909   5.121   7.055
10547POPC   C4B63406  14.919   5.133   7.355
10548POPC   NC363407  39.970  40.748   5.555
10548POPC   PO463408  39.995  40.748   5.855
10548POPC   GL163409  40.054  40.758   6.155
10548POPC   GL263410  40.047  40.707   6.155
10548POPC   C1A63411  40.005  40.799   6.455
10548POPC   D2A63412  40.049  40.792   6.755
10548POPC   C3A63413  39.993  40.779   7.055
10548POPC   C4A63414  40.050  40.799   7.355
10548POPC   C1B63415  40.021  40.570   6.455
10548POPC   C2B63416  40.060  40.518   6.755
10548POPC   C3B63417  40.054  40.585   7.055
10548POPC   C4B63418  40.093  40.555   7.355
10549POPC   NC363419  39.216  15.934   5.555
10549POPC   PO463420  39.237  15.931   5.855
10549POPC   GL163421  39.227  15.936   6.155
10549POPC   GL263422  39.115  16.012   6.155
10549POPC   C1A63423  39.258  15.966   6.455
10549POPC   D2A63424  39.266  15.937   6.755
10549POPC   C3A63425  39.191  15.908   7.055
10549POPC   C4A63426  39.261  15.911   7.355
10549POPC   C1B63427  39.018  16.100   6.455
10549POPC   C2B63428  39.057  16.115   6.755
10549POPC   C3B63429  39.045  16.174   7.055
10549POPC   C4B63430  39.051  16.163   7.355
10550POPC   NC363431  21.422  39.262   5.555
10550POPC   PO463432  21.407  39.281   5.855
10550POPC   GL163433  21.357  39.265   6.155
10550POPC   GL263434  21.516  39.299   6.155
10550POPC   C1A63435  21.401  39.224   6.455
10550POPC   D2A63436  21.343  39.196   6.755
10550POPC   C3A63437  21.399  39.255   7.055
10550POPC   C4A63438  21.360  39.194   7.355
10550POPC   C1B63439  21.599  39.362   6.455
10550POPC   C2B63440  21.605  39.394   6.755
10550POPC   C3B63441  21.605  39.359   7.055
10550POPC   C4B63442  21.554  39.419   7.355
10551POPC   NC363443  12.100   1.236   5.555
10551POPC   PO463444  12.097   1.200   5.855
10551POPC   GL163445  12.108   1.208   6.155
10551POPC   GL263446  12.042   1.098   6.155
10551POPC   C1A63447  12.116   1.180   6.455
10551POPC   D2A63448  12.106   1.256   6.755
10551POPC   C3A63449  12.101   1.225   7.055
10551POPC   C4A63450  12.053   1.202   7.355
10551POPC   C1B63451  11.903   0.970   6.455
10551POPC   C2B63452  11.927   0.981   6.755
10551POPC   C3B63453  11.988   1.001   7.055
10551POPC   C4B63454  11.935   1.006   7.355
10552POPC   NC363455   7.418  19.797   5.555
10552POPC   PO463456   7.428  19.798   5.855
10552POPC   GL163457   7.387  19.881   6.155
10552POPC   GL263458   7.500  19.717   6.155
10552POPC   C1A63459   7.461  19.819   6.455
10552POPC   D2A63460   7.415  19.832   6.755
10552POPC   C3A63461   7.454  19.786   7.055
10552POPC   C4A63462   7.427  19.787   7.355
10552POPC   C1B63463   7.521  19.558   6.455
10552POPC   C2B63464   7.465  19.581   6.755
10552POPC   C3B63465   7.461  19.583   7.055
10552POPC   C4B63466   7.458  19.611   7.355
10553POPC   NC363467  41.541  34.531   5.555
10553POPC   PO463468  41.509  34.602   5.855
10553POPC   GL163469  41.555  34.596   6.155
10553POPC   GL263470  41.582  34.747   6.155
10553POPC   C1A63471  41.551  34.567   6.455
10553POPC   D2A63472  41.548  34.599   6.755
10553POPC   C3A63473  41.527  34.554   7.055
10553POPC   C4A63474  41.597  34.567   7.355
10553POPC   C1B63475  41.465  34.795   6.455
10553POPC   C2B63476  41.524  34.829   6.755
10553POPC   C3B63477  41.543  34.843   7.055
10553POPC   C4B63478  41.482  34.795   7.355
10554POPC   NC363479  38.458  29.950   5.555
10554POPC   PO463480  38.475  29.871   5.855
10554POPC   GL163481  38.456  29.873   6.155
10554POPC   GL263482  38.452  30.007   6.155
10554POPC   C1A63483  38.417  29.967   6.455
10554POPC   D2A63484  38.429  29.914   6.755
10554POPC   C3A63485  38.424  29.917   7.055
10554POPC   C4A63486  38.490  29.909   7.355
10554POPC   C1B63487  38.430  30.216   6.455
10554POPC   C2B63488  38.494  30.130   6.755
10554POPC   C3B63489  38.486  30.188   7.055
10554POPC   C4B63490  38.492  30.141   7.355
10555POPC   NC363491   4.272  13.614   5.555
10555POPC   PO463492   4.294  13.655   5.855
10555POPC   GL163493   4.344  13.657   6.155
10555POPC   GL263494   4.372  13.541   6.155
10555POPC   C1A63495   4.314  13.648   6.455
10555POPC   D2A63496   4.307  13.641   6.755
10555POPC   C3A63497   4.352  13.630   7.055
10555POPC   C4A63498   4.365  13.581   7.355
10555POPC   C1B63499   4.492  13.486   6.455
10555POPC   C2B63500   4.534  13.462   6.755
10555POPC   C3B63501   4.469  13.442   7.055
10555POPC   C4B63502   4.487  13.427   7.355
10556POPC   NC363503   5.918  15.214   5.555
10556POPC   PO463504   5.873  15.212   5.855
10556POPC   GL163505   5.886  15.218   6.155
10556POPC   GL263506   5.900  15.045   6.155
10556POPC   C1A63507   5.864  15.217   6.455
10556POPC   D2A63508   5.900  15.160   6.755
10556POPC   C3A63509   5.857  15.192   7.055
10556POPC   C4A63510   5.871  15.179   7.355
10556POPC   C1B63511   5.946  14.912   6.455
10556POPC   C2B63512   5.999  14.958   6.755
10556POPC   C3B63513   6.014  14.934   7.055
10556POPC   C4B63514   5.955  14.954   7.355
10557POPC   NC363515  30.722   6.686   5.555
10557POPC   PO463516  30.700   6.680   5.855
10557POPC   GL163517  30.666   6.666   6.155
10557POPC   GL263518  30.752   6.544   6.155
10557POPC   C1A63519  30.667   6.620   6.455
10557POPC   D2A63520  30.736   6.687   6.755
10557POPC   C3A63521  30.699   6.658   7.055
10557POPC   C4A63522  30.697   6.685   7.355
10557POPC   C1B63523  30.772   6.395   6.455
10557POPC   C2B63524  30.741   6.417   6.755
10557POPC   C3B63525  30.788   6.380   7.055
10557POPC   C4B63526  30.814   6.448   7.355
10558POPC   NC363527   5.093  15.972   5.555
10558POPC   PO463528   5.046  15.945   5.855
10558POPC   GL163529   5.124  15.952   6.155
10558POPC   GL263530   5.089  15.854   6.155
10558POPC   C1A63531   5.122  15.950   6.455
10558POPC   D2A63532   5.114  15.986   6.755
10558POPC   C3A63533   5.063  15.976   7.055
10558POPC   C4A63534   5.117  15.931   7.355
10558POPC   C1B63535   5.129  15.719   6.455
10558POPC   C2B63536   5.159  15.683   6.755
10558POPC   C3B63537   5.132  15.738   7.055
10558POPC   C4B63538   5.146  15.666   7.355
10559POPC   NC363539   0.439  35.378   5.555
10559POPC   PO463540   0.461  35.395   5.855
10559POPC   GL163541   0.471  35.314   6.155
10559POPC   GL263542   0.336  35.393   6.155
10559POPC   C1A63543   0.415  35.372   6.455
10559POPC   D2A63544   0.472  35.386   6.755
10559POPC   C3A63545   0.479  35.327   7.055
10559POPC   C4A63546   0.466  35.310   7.355
10559POPC   C1B63547   0.167  35.455   6.455
10559POPC   C2B63548   0.186  35.433   6.755
10559POPC   C3B63549   0.235  35.451   7.055
10559POPC   C4B63550   0.230  35.465   7.355
10560POPC   NC363551  40.761   1.224   5.555
10560POPC   PO463552  40.798   1.205   5.855
10560POPC   GL163553  40.739   1.186   6.155
10560POPC   GL263554  40.779   1.354   6.155
10560POPC   C1A63555  40.789   1.246   6.455
10560POPC   D2A63556  40.800   1.246   6.755
10560POPC   C3A63557  40.776   1.179   7.055
10560POPC   C4A63558  40.783   1.230   7.355
10560POPC   C1B63559  40.717   1.432   6.455
10560POPC   C2B63560  40.726   1.432   6.755
10560POPC   C3B63561  40.737   1.480   7.055
10560POPC   C4B63562  40.687   1.430   7.355
10561POPC   NC363563  12.876   6.675   5.555
10561POPC   PO463564  12.819   6.646   5.855
10561POPC   GL163565  12.864   6.616   6.155
10561POPC   GL263566  12.996   6.711   6.155
10561POPC   C1A63567  12.845   6.610   6.455
10561POPC   D2A63568  12.845   6.599   6.755
10561POPC   C3A63569  12.862   6.664   7.055
10561POPC   C4A63570  12.838   6.597   7.355
10561POPC   C1B63571  13.039   6.728   6.455
10561POPC   C2B63572  13.069   6.703   6.755
10561POPC   C3B63573  13.042   6.700   7.055
10561POPC   C4B63574  13.137   6.685   7.355
10562POPC   NC363575   6.686  15.976   5.555
10562POPC   PO463576   6.595  15.998   5.855
10562POPC   GL163577   6.677  15.912   6.155
10562POPC   GL263578   6.718  16.107   6.155
10562POPC   C1A63579   6.687  15.944   6.455
10562POPC   D2A63580   6.596  16.001   6.755
10562POPC   C3A63581   6.603  15.942   7.055
10562POPC   C4A63582   6.613  15.971   7.355
10562POPC   C1B63583   6.767  16.216   6.455
10562POPC   C2B63584   6.757  16.177   6.755
10562POPC   C3B63585   6.736  16.220   7.055
10562POPC   C4B63586   6.704  16.191   7.355
10563POPC   NC363587  32.265   7.372   5.555
10563POPC   PO463588  32.262   7.451   5.855
10563POPC   GL163589  32.238   7.398   6.155
10563POPC   GL263590  32.308   7.484   6.155
10563POPC   C1A63591  32.201   7.412   6.455
10563POPC   D2A63592  32.226   7.423   6.755
10563POPC   C3A63593  32.254   7.407   7.055
10563POPC   C4A63594  32.237   7.390   7.355
10563POPC   C1B63595  32.417   7.585   6.455
10563POPC   C2B63596  32.411   7.597   6.755
10563POPC   C3B63597  32.400   7.571   7.055
10563POPC   C4B63598  32.447   7.623   7.355
10564POPC   NC363599  15.947  12.884   5.555
10564POPC   PO463600  15.975  12.857   5.855
10564POPC   GL163601  15.959  12.824   6.155
10564POPC   GL263602  15.910  12.912   6.155
10564POPC   C1A63603  15.965  12.891   6.455
10564POPC   D2A63604  15.944  12.848   6.755
10564POPC   C3A63605  15.958  12.823   7.055
10564POPC   C4A63606  15.962  12.844   7.355
10564POPC   C1B63607  15.834  13.105   6.455
10564POPC   C2B63608  15.857  13.082   6.755
10564POPC   C3B63609  15.790  13.086   7.055
10564POPC   C4B63610  15.790  13.103   7.355
10565POPC   NC363611  24.496  26.000   5.555
10565POPC   PO463612  24.521  26.066   5.855
10565POPC   GL163613  24.525  26.015   6.155
10565POPC   GL263614  24.442  25.943   6.155
10565POPC   C1A63615  24.478  26.037   6.455
10565POPC   D2A63616  24.476  26.056   6.755
10565POPC   C3A63617  24.441  26.084   7.055
10565POPC   C4A63618  24.446  26.029   7.355
10565POPC   C1B63619  24.439  25.800   6.455
10565POPC   C2B63620  24.364  25.787   6.755
10565POPC   C3B63621  24.404  25.831   7.055
10565POPC   C4B63622  24.399  25.769   7.355
10566POPC   NC363623  43.837   5.057   5.555
10566POPC   PO463624  43.844   5.089   5.855
10566POPC   GL163625  43.905   5.082   6.155
10566POPC   GL263626  43.966   5.076   6.155
10566POPC   C1A63627  43.844   5.120   6.455
10566POPC   D2A63628  43.881   5.088   6.755
10566POPC   C3A63629  43.900   5.099   7.055
10566POPC   C4A63630  43.870   5.115   7.355
10566POPC   C1B63631  44.144   5.034   6.455
10566POPC   C2B63632  44.104   5.073   6.755
10566POPC   C3B63633  44.128   5.042   7.055
10566POPC   C4B63634  44.158   5.053   7.355
10567POPC   NC363635  39.280  23.682   5.555
10567POPC   PO463636  39.247  23.758   5.855
10567POPC   GL163637  39.214  23.700   6.155
10567POPC   GL263638  39.334  23.819   6.155
10567POPC   C1A63639  39.265  23.703   6.455
10567POPC   D2A63640  39.248  23.722   6.755
10567POPC   C3A63641  39.190  23.672   7.055
10567POPC   C4A63642  39.183  23.691   7.355
10567POPC   C1B63643  39.432  23.840   6.455
10567POPC   C2B63644  39.471  23.838   6.755
10567POPC   C3B63645  39.417  23.830   7.055
10567POPC   C4B63646  39.454  23.878   7.355
10568POPC   NC363647  38.437  36.116   5.555
10568POPC   PO463648  38.420  36.130   5.855
10568POPC   GL163649  38.500  36.150   6.155
10568POPC   GL263650  38.405  36.239   6.155
10568POPC   C1A63651  38.484  36.145   6.455
10568POPC   D2A63652  38.487  36.104   6.755
10568POPC   C3A63653  38.494  36.094   7.055
10568POPC   C4A63654  38.434  36.080   7.355
10568POPC   C1B63655  38.282  36.295   6.455
10568POPC   C2B63656  38.278  36.249   6.755
10568POPC   C3B63657  38.217  36.324   7.055
10568POPC   C4B63658  38.263  36.255   7.355
10569POPC   NC363659  42.292  34.580   5.555
10569POPC   PO463660  42.317  34.586   5.855
10569POPC   GL163661  42.321  34.597   6.155
10569POPC   GL263662  42.241  34.603   6.155
10569POPC   C1A63663  42.316  34.575   6.455
10569POPC   D2A63664  42.308  34.584   6.755
10569POPC   C3A63665  42.302  34.565   7.055
10569POPC   C4A63666  42.355  34.564   7.355
10569POPC   C1B63667  42.095  34.566   6.455
10569POPC   C2B63668  42.069  34.570   6.755
10569POPC   C3B63669  42.116  34.561   7.055
10569POPC   C4B63670  42.052  34.496   7.355
10570POPC   NC363671  10.489  37.705   5.555
10570POPC   PO463672  10.518  37.729   5.855
10570POPC   GL163673  10.515  37.687   6.155
10570POPC   GL263674  10.455  37.534   6.155
10570POPC   C1A63675  10.531  37.644   6.455
10570POPC   D2A63676  10.516  37.718   6.755
10570POPC   C3A63677  10.573  37.631   7.055
10570POPC   C4A63678  10.560  37.729   7.355
10570POPC   C1B63679  10.471  37.404   6.455
10570POPC   C2B63680  10.427  37.480   6.755
10570POPC   C3B63681  10.427  37.471   7.055
10570POPC   C4B63682  10.514  37.394   7.355
10571POPC   NC363683  43.143  31.467   5.555
10571POPC   PO463684  43.085  31.519   5.855
10571POPC   GL163685  43.071  31.435   6.155
10571POPC   GL263686  43.052  31.315   6.155
10571POPC   C1A63687  43.135  31.522   6.455
10571POPC   D2A63688  43.089  31.455   6.755
10571POPC   C3A63689  43.064  31.458   7.055
10571POPC   C4A63690  43.091  31.448   7.355
10571POPC   C1B63691  43.085  31.188   6.455
10571POPC   C2B63692  43.045  31.216   6.755
10571POPC   C3B63693  43.060  31.193   7.055
10571POPC   C4B63694  43.026  31.179   7.355
10572POPC   NC363695  39.242  43.148   5.555
10572POPC   PO463696  39.279  43.156   5.855
10572POPC   GL163697  39.253  43.139   6.155
10572POPC   GL263698  39.221  43.254   6.155
10572POPC   C1A63699  39.205  43.156   6.455
10572POPC   D2A63700  39.254  43.119   6.755
10572POPC   C3A63701  39.210  43.141   7.055
10572POPC   C4A63702  39.264  43.128   7.355
10572POPC   C1B63703  39.126  43.304   6.455
10572POPC   C2B63704  39.122  43.297   6.755
10572POPC   C3B63705  39.178  43.375   7.055
10572POPC   C4B63706  39.086  43.376   7.355
10573POPC   NC363707  41.570   4.323   5.555
10573POPC   PO463708  41.534   4.277   5.855
10573POPC   GL163709  41.544   4.345   6.155
10573POPC   GL263710  41.660   4.297   6.155
10573POPC   C1A63711  41.588   4.351   6.455
10573POPC   D2A63712  41.534   4.320   6.755
10573POPC   C3A63713  41.586   4.312   7.055
10573POPC   C4A63714  41.589   4.361   7.355
10573POPC   C1B63715  41.791   4.249   6.455
10573POPC   C2B63716  41.855   4.271   6.755
10573POPC   C3B63717  41.774   4.320   7.055
10573POPC   C4B63718  41.812   4.284   7.355
10574POPC   NC363719  26.052   5.837   5.555
10574POPC   PO463720  26.001   5.821   5.855
10574POPC   GL163721  26.007   5.870   6.155
10574POPC   GL263722  26.075   5.762   6.155
10574POPC   C1A63723  26.049   5.893   6.455
10574POPC   D2A63724  26.055   5.876   6.755
10574POPC   C3A63725  26.016   5.843   7.055
10574POPC   C4A63726  26.069   5.902   7.355
10574POPC   C1B63727  26.098   5.596   6.455
10574POPC   C2B63728  26.018   5.634   6.755
10574POPC   C3B63729  26.048   5.605   7.055
10574POPC   C4B63730  26.082   5.592   7.355
10575POPC   NC363731  17.493  23.671   5.555
10575POPC   PO463732  17.534  23.734   5.855
10575POPC   GL163733  17.463  23.666   6.155
10575POPC   GL263734  17.608  23.726   6.155
10575POPC   C1A63735  17.494  23.729   6.455
10575POPC   D2A63736  17.531  23.737   6.755
10575POPC   C3A63737  17.546  23.713   7.055
10575POPC   C4A63738  17.505  23.674   7.355
10575POPC   C1B63739  17.721  23.608   6.455
10575POPC   C2B63740  17.762  23.593   6.755
10575POPC   C3B63741  17.704  23.657   7.055
10575POPC   C4B63742  17.783  23.669   7.355
10576POPC   NC363743  27.595   8.212   5.555
10576POPC   PO463744  27.599   8.194   5.855
10576POPC   GL163745  27.613   8.235   6.155
10576POPC   GL263746  27.434   8.109   6.155
10576POPC   C1A63747  27.615   8.243   6.455
10576POPC   D2A63748  27.577   8.232   6.755
10576POPC   C3A63749  27.596   8.241   7.055
10576POPC   C4A63750  27.636   8.197   7.355
10576POPC   C1B63751  27.322   8.047   6.455
10576POPC   C2B63752  27.326   8.064   6.755
10576POPC   C3B63753  27.390   8.116   7.055
10576POPC   C4B63754  27.358   8.060   7.355
10577POPC   NC363755  11.325  22.889   5.555
10577POPC   PO463756  11.267  22.940   5.855
10577POPC   GL163757  11.323  22.891   6.155
10577POPC   GL263758  11.156  22.926   6.155
10577POPC   C1A63759  11.321  22.980   6.455
10577POPC   D2A63760  11.324  22.943   6.755
10577POPC   C3A63761  11.314  22.889   7.055
10577POPC   C4A63762  11.321  22.957   7.355
10577POPC   C1B63763  11.100  22.877   6.455
10577POPC   C2B63764  11.021  22.845   6.755
10577POPC   C3B63765  11.074  22.882   7.055
10577POPC   C4B63766  11.110  22.812   7.355
10578POPC   NC363767  18.293  28.382   5.555
10578POPC   PO463768  18.273  28.368   5.855
10578POPC   GL163769  18.287  28.374   6.155
10578POPC   GL263770  18.415  28.380   6.155
10578POPC   C1A63771  18.261  28.371   6.455
10578POPC   D2A63772  18.252  28.383   6.755
10578POPC   C3A63773  18.248  28.354   7.055
10578POPC   C4A63774  18.323  28.322   7.355
10578POPC   C1B63775  18.559  28.357   6.455
10578POPC   C2B63776  18.492  28.318   6.755
10578POPC   C3B63777  18.527  28.289   7.055
10578POPC   C4B63778  18.555  28.368   7.355
10579POPC   NC363779  43.111  17.476   5.555
10579POPC   PO463780  43.094  17.542   5.855
10579POPC   GL163781  43.113  17.470   6.155
10579POPC   GL263782  43.060  17.444   6.155
10579POPC   C1A63783  43.062  17.519   6.455
10579POPC   D2A63784  43.102  17.548   6.755
10579POPC   C3A63785  43.135  17.478   7.055
10579POPC   C4A63786  43.129  17.555   7.355
10579POPC   C1B63787  42.943  17.332   6.455
10579POPC   C2B63788  42.927  17.360   6.755
10579POPC   C3B63789  42.938  17.364   7.055
10579POPC   C4B63790  42.972  17.337   7.355
10580POPC   NC363791  17.472  41.548   5.555
10580POPC   PO463792  17.548  41.595   5.855
10580POPC   GL163793  17.503  41.549   6.155
10580POPC   GL263794  17.397  41.552   6.155
10580POPC   C1A63795  17.497  41.525   6.455
10580POPC   D2A63796  17.463  41.580   6.755
10580POPC   C3A63797  17.557  41.596   7.055
10580POPC   C4A63798  17.548  41.519   7.355
10580POPC   C1B63799  17.241  41.456   6.455
10580POPC   C2B63800  17.319  41.468   6.755
10580POPC   C3B63801  17.236  41.412   7.055
10580POPC   C4B63802  17.262  41.454   7.355
10581POPC   NC363803  27.555   0.459   5.555
10581POPC   PO463804  27.575   0.423   5.855
10581POPC   GL163805  27.611   0.480   6.155
10581POPC   GL263806  27.718   0.501   6.155
10581POPC   C1A63807  27.611   0.417   6.455
10581POPC   D2A63808  27.568   0.468   6.755
10581POPC   C3A63809  27.572   0.448   7.055
10581POPC   C4A63810  27.637   0.432   7.355
10581POPC   C1B63811  27.788   0.572   6.455
10581POPC   C2B63812  27.767   0.602   6.755
10581POPC   C3B63813  27.754   0.580   7.055
10581POPC   C4B63814  27.770   0.606   7.355
10582POPC   NC363815  39.198   2.722   5.555
10582POPC   PO463816  39.271   2.719   5.855
10582POPC   GL163817  39.229   2.718   6.155
10582POPC   GL263818  39.330   2.855   6.155
10582POPC   C1A63819  39.217   2.757   6.455
10582POPC   D2A63820  39.200   2.800   6.755
10582POPC   C3A63821  39.252   2.748   7.055
10582POPC   C4A63822  39.278   2.738   7.355
10582POPC   C1B63823  39.390   2.906   6.455
10582POPC   C2B63824  39.449   2.969   6.755
10582POPC   C3B63825  39.419   2.979   7.055
10582POPC   C4B63826  39.393   2.949   7.355
10583POPC   NC363827  42.288  29.114   5.555
10583POPC   PO463828  42.375  29.100   5.855
10583POPC   GL163829  42.366  29.144   6.155
10583POPC   GL263830  42.424  29.245   6.155
10583POPC   C1A63831  42.355  29.158   6.455
10583POPC   D2A63832  42.312  29.189   6.755
10583POPC   C3A63833  42.317  29.163   7.055
10583POPC   C4A63834  42.316  29.161   7.355
10583POPC   C1B63835  42.464  29.337   6.455
10583POPC   C2B63836  42.435  29.403   6.755
10583POPC   C3B63837  42.374  29.346   7.055
10583POPC   C4B63838  42.375  29.403   7.355
10584POPC   NC363839  30.661  42.338   5.555
10584POPC   PO463840  30.652  42.383   5.855
10584POPC   GL163841  30.721  42.299   6.155
10584POPC   GL263842  30.674  42.481   6.155
10584POPC   C1A63843  30.746  42.362   6.455
10584POPC   D2A63844  30.665  42.333   6.755
10584POPC   C3A63845  30.672  42.333   7.055
10584POPC   C4A63846  30.721  42.336   7.355
10584POPC   C1B63847  30.565  42.589   6.455
10584POPC   C2B63848  30.576  42.550   6.755
10584POPC   C3B63849  30.581  42.549   7.055
10584POPC   C4B63850  30.617  42.532   7.355
10585POPC   NC363851   1.254  10.514   5.555
10585POPC   PO463852   1.165  10.554   5.855
10585POPC   GL163853   1.222  10.529   6.155
10585POPC   GL263854   1.127  10.607   6.155
10585POPC   C1A63855   1.185  10.490   6.455
10585POPC   D2A63856   1.167  10.494   6.755
10585POPC   C3A63857   1.193  10.526   7.055
10585POPC   C4A63858   1.219  10.475   7.355
10585POPC   C1B63859   1.118  10.740   6.455
10585POPC   C2B63860   1.136  10.756   6.755
10585POPC   C3B63861   1.122  10.780   7.055
10585POPC   C4B63862   1.091  10.753   7.355
10586POPC   NC363863  25.252   0.393   5.555
10586POPC   PO463864  25.310   0.459   5.855
10586POPC   GL163865  25.250   0.418   6.155
10586POPC   GL263866  25.343   0.372   6.155
10586POPC   C1A63867  25.241   0.403   6.455
10586POPC   D2A63868  25.236   0.422   6.755
10586POPC   C3A63869  25.240   0.419   7.055
10586POPC   C4A63870  25.262   0.439   7.355
10586POPC   C1B63871  25.391   0.239   6.455
10586POPC   C2B63872  25.364   0.256   6.755
10586POPC   C3B63873  25.429   0.268   7.055
10586POPC   C4B63874  25.358   0.243   7.355
10587POPC   NC363875   1.210  42.289   5.555
10587POPC   PO463876   1.169  42.323   5.855
10587POPC   GL163877   1.205  42.326   6.155
10587POPC   GL263878   1.284  42.213   6.155
10587POPC   C1A63879   1.180  42.356   6.455
10587POPC   D2A63880   1.214  42.349   6.755
10587POPC   C3A63881   1.244  42.376   7.055
10587POPC   C4A63882   1.235  42.367   7.355
10587POPC   C1B63883   1.345  42.206   6.455
10587POPC   C2B63884   1.433  42.181   6.755
10587POPC   C3B63885   1.395  42.111   7.055
10587POPC   C4B63886   1.369  42.188   7.355
10588POPC   NC363887  40.766  34.601   5.555
10588POPC   PO463888  40.771  34.625   5.855
10588POPC   GL163889  40.736  34.529   6.155
10588POPC   GL263890  40.726  34.473   6.155
10588POPC   C1A63891  40.812  34.592   6.455
10588POPC   D2A63892  40.790  34.552   6.755
10588POPC   C3A63893  40.748  34.581   7.055
10588POPC   C4A63894  40.738  34.561   7.355
10588POPC   C1B63895  40.604  34.353   6.455
10588POPC   C2B63896  40.631  34.322   6.755
10588POPC   C3B63897  40.602  34.362   7.055
10588POPC   C4B63898  40.654  34.319   7.355
10589POPC   NC363899  37.660   0.438   5.555
10589POPC   PO463900  37.707   0.439   5.855
10589POPC   GL163901  37.716   0.434   6.155
10589POPC   GL263902  37.813   0.326   6.155
10589POPC   C1A63903  37.718   0.410   6.455
10589POPC   D2A63904  37.699   0.456   6.755
10589POPC   C3A63905  37.645   0.418   7.055
10589POPC   C4A63906  37.684   0.439   7.355
10589POPC   C1B63907  37.840   0.266   6.455
10589POPC   C2B63908  37.848   0.268   6.755
10589POPC   C3B63909  37.933   0.324   7.055
10589POPC   C4B63910  37.863   0.253   7.355
10590POPC   NC363911   6.631   5.861   5.555
10590POPC   PO463912   6.646   5.858   5.855
10590POPC   GL163913   6.614   5.825   6.155
10590POPC   GL263914   6.591   5.699   6.155
10590POPC   C1A63915   6.673   5.853   6.455
10590POPC   D2A63916   6.621   5.860   6.755
10590POPC   C3A63917   6.614   5.911   7.055
10590POPC   C4A63918   6.656   5.843   7.355
10590POPC   C1B63919   6.652   5.571   6.455
10590POPC   C2B63920   6.573   5.628   6.755
10590POPC   C3B63921   6.662   5.652   7.055
10590POPC   C4B63922   6.571   5.652   7.355
10591POPC   NC363923  41.534  30.669   5.555
10591POPC   PO463924  41.514  30.648   5.855
10591POPC   GL163925  41.524  30.666   6.155
10591POPC   GL263926  41.606  30.820   6.155
10591POPC   C1A63927  41.538  30.665   6.455
10591POPC   D2A63928  41.579  30.674   6.755
10591POPC   C3A63929  41.607  30.686   7.055
10591POPC   C4A63930  41.548  30.695   7.355
10591POPC   C1B63931  41.747  30.908   6.455
10591POPC   C2B63932  41.693  30.867   6.755
10591POPC   C3B63933  41.760  30.830   7.055
10591POPC   C4B63934  41.717  30.874   7.355
10592POPC   NC363935  41.570  32.999   5.555
10592POPC   PO463936  41.559  33.012   5.855
10592POPC   GL163937  41.574  33.023   6.155
10592POPC   GL263938  41.559  33.189   6.155
10592POPC   C1A63939  41.600  33.046   6.455
10592POPC   D2A63940  41.568  33.074   6.755
10592POPC   C3A63941  41.566  33.010   7.055
10592POPC   C4A63942  41.575  33.001   7.355
10592POPC   C1B63943  41.530  33.276   6.455
10592POPC   C2B63944  41.521  33.317   6.755
10592POPC   C3B63945  41.573  33.278   7.055
10592POPC   C4B63946  41.533  33.261   7.355
10593POPC   NC363947  33.792   5.135   5.555
10593POPC   PO463948  33.758   5.135   5.855
10593POPC   GL163949  33.845   5.107   6.155
10593POPC   GL263950  33.823   5.148   6.155
10593POPC   C1A63951  33.802   5.108   6.455
10593POPC   D2A63952  33.800   5.118   6.755
10593POPC   C3A63953  33.849   5.048   7.055
10593POPC   C4A63954  33.797   5.095   7.355
10593POPC   C1B63955  33.913   5.307   6.455
10593POPC   C2B63956  33.934   5.341   6.755
10593POPC   C3B63957  33.892   5.328   7.055
10593POPC   C4B63958  33.935   5.284   7.355
10594POPC   NC363959  41.530  37.701   5.555
10594POPC   PO463960  41.573  37.703   5.855
10594POPC   GL163961  41.536  37.678   6.155
10594POPC   GL263962  41.548  37.789   6.155
10594POPC   C1A63963  41.595  37.662   6.455
10594POPC   D2A63964  41.583  37.641   6.755
10594POPC   C3A63965  41.569  37.716   7.055
10594POPC   C4A63966  41.539  37.698   7.355
10594POPC   C1B63967  41.581  37.936   6.455
10594POPC   C2B63968  41.631  37.880   6.755
10594POPC   C3B63969  41.542  37.915   7.055
10594POPC   C4B63970  41.550  37.955   7.355
10595POPC   NC363971  15.192  42.355   5.555
10595POPC   PO463972  15.144  42.308   5.855
10595POPC   GL163973  15.204  42.298   6.155
10595POPC   GL263974  15.156  42.445   6.155
10595POPC   C1A63975  15.212  42.334   6.455
10595POPC   D2A63976  15.144  42.292   6.755
10595POPC   C3A63977  15.170  42.330   7.055
10595POPC   C4A63978  15.206  42.359   7.355
10595POPC   C1B63979  15.103  42.552   6.455
10595POPC   C2B63980  15.021  42.524   6.755
10595POPC   C3B63981  15.094  42.577   7.055
10595POPC   C4B63982  15.106  42.552   7.355
10596POPC   NC363983  19.815  40.817   5.555
10596POPC   PO463984  19.826  40.734   5.855
10596POPC   GL163985  19.795  40.809   6.155
10596POPC   GL263986  19.764  40.896   6.155
10596POPC   C1A63987  19.823  40.776   6.455
10596POPC   D2A63988  19.810  40.738   6.755
10596POPC   C3A63989  19.848  40.737   7.055
10596POPC   C4A63990  19.882  40.776   7.355
10596POPC   C1B63991  19.747  41.062   6.455
10596POPC   C2B63992  19.791  41.041   6.755
10596POPC   C3B63993  19.825  40.979   7.055
10596POPC   C4B63994  19.812  41.000   7.355
10597POPC   NC363995  29.909  40.004   5.555
10597POPC   PO463996  29.932  40.054   5.855
10597POPC   GL163997  29.876  39.958   6.155
10597POPC   GL263998  29.954  40.129   6.155
10597POPC   C1A63999  29.931  39.996   6.455
10597POPC   D2A64000  29.949  40.019   6.755
10597POPC   C3A64001  29.931  40.018   7.055
10597POPC   C4A64002  29.920  40.017   7.355
10597POPC   C1B64003  30.095  40.225   6.455
10597POPC   C2B64004  30.045  40.180   6.755
10597POPC   C3B64005  30.106  40.152   7.055
10597POPC   C4B64006  30.123  40.198   7.355
10598POPC   NC364007  11.346  12.032   5.555
10598POPC   PO464008  11.332  12.076   5.855
10598POPC   GL164009  11.328  12.094   6.155
10598POPC   GL264010  11.230  11.980   6.155
10598POPC   C1A64011  11.336  12.067   6.455
10598POPC   D2A64012  11.315  12.071   6.755
10598POPC   C3A64013  11.340  12.126   7.055
10598POPC   C4A64014  11.301  12.102   7.355
10598POPC   C1B64015  11.279  11.810   6.455
10598POPC   C2B64016  11.288  11.870   6.755
10598POPC   C3B64017  11.280  11.790   7.055
10598POPC   C4B64018  11.262  11.850   7.355
10599POPC   NC364019   8.958  36.087   5.555
10599POPC   PO464020   8.940  36.158   5.855
10599POPC   GL164021   8.938  36.135   6.155
10599POPC   GL264022   9.052  36.281   6.155
10599POPC   C1A64023   8.974  36.099   6.455
10599POPC   D2A64024   9.003  36.090   6.755
10599POPC   C3A64025   8.965  36.079   7.055
10599POPC   C4A64026   8.967  36.086   7.355
10599POPC   C1B64027   9.076  36.415   6.455
10599POPC   C2B64028   9.048  36.412   6.755
10599POPC   C3B64029   8.988  36.339   7.055
10599POPC   C4B64030   9.027  36.399   7.355
10600POPC   NC364031  17.477  30.692   5.555
10600POPC   PO464032  17.520  30.736   5.855
10600POPC   GL164033  17.495  30.730   6.155
10600POPC   GL264034  17.451  30.746   6.155
10600POPC   C1A64035  17.546  30.742   6.455
10600POPC   D2A64036  17.545  30.738   6.755
10600POPC   C3A64037  17.480  30.731   7.055
10600POPC   C4A64038  17.546  30.686   7.355
10600POPC   C1B64039  17.292  30.857   6.455
10600POPC   C2B64040  17.350  30.817   6.755
10600POPC   C3B64041  17.328  30.875   7.055
10600POPC   C4B64042  17.347  30.806   7.355
10601POPC   NC364043  23.703   4.366   5.555
10601POPC   PO464044  23.688   4.338   5.855
10601POPC   GL164045  23.686   4.301   6.155
10601POPC   GL264046  23.668   4.444   6.155
10601POPC   C1A64047  23.763   4.351   6.455
10601POPC   D2A64048  23.713   4.302   6.755
10601POPC   C3A64049  23.734   4.328   7.055
10601POPC   C4A64050  23.676   4.286   7.355
10601POPC   C1B64051  23.622   4.507   6.455
10601POPC   C2B64052  23.558   4.541   6.755
10601POPC   C3B64053  23.526   4.496   7.055
10601POPC   C4B64054  23.564   4.493   7.355
10602POPC   NC364055  38.419  44.629   5.555
10602POPC   PO464056  38.409  44.656   5.855
10602POPC   GL164057  38.457  44.703   6.155
10602POPC   GL264058  38.316  44.697   6.155
10602POPC   C1A64059  38.502  44.651   6.455
10602POPC   D2A64060  38.423  44.633   6.755
10602POPC   C3A64061  38.453  44.619   7.055
10602POPC   C4A64062  38.430  44.703   7.355
10602POPC   C1B64063  38.182  44.599   6.455
10602POPC   C2B64064  38.192  44.688   6.755
10602POPC   C3B64065  38.232  44.633   7.055
10602POPC   C4B64066  38.246  44.659   7.355
10603POPC   NC364067  14.443  19.877   5.555
10603POPC   PO464068  14.440  19.823   5.855
10603POPC   GL164069  14.359  19.845   6.155
10603POPC   GL264070  14.505  19.839   6.155
10603POPC   C1A64071  14.441  19.801   6.455
10603POPC   D2A64072  14.440  19.810   6.755
10603POPC   C3A64073  14.373  19.811   7.055
10603POPC   C4A64074  14.453  19.850   7.355
10603POPC   C1B64075  14.647  19.852   6.455
10603POPC   C2B64076  14.653  19.892   6.755
10603POPC   C3B64077  14.684  19.935   7.055
10603POPC   C4B64078  14.615  19.924   7.355
10604POPC   NC364079  26.077   7.447   5.555
10604POPC   PO464080  26.066   7.405   5.855
10604POPC   GL164081  26.034   7.438   6.155
10604POPC   GL264082  25.941   7.542   6.155
10604POPC   C1A64083  26.005   7.438   6.455
10604POPC   D2A64084  26.027   7.468   6.755
10604POPC   C3A64085  26.077   7.425   7.055
10604POPC   C4A64086  26.026   7.390   7.355
10604POPC   C1B64087  25.953   7.590   6.455
10604POPC   C2B64088  25.966   7.606   6.755
10604POPC   C3B64089  25.879   7.668   7.055
10604POPC   C4B64090  25.921   7.656   7.355
10605POPC   NC364091  43.936  22.959   5.555
10605POPC   PO464092  43.912  22.900   5.855
10605POPC   GL164093  43.931  22.888   6.155
10605POPC   GL264094  43.765  22.982   6.155
10605POPC   C1A64095  43.892  22.958   6.455
10605POPC   D2A64096  43.846  22.965   6.755
10605POPC   C3A64097  43.870  22.905   7.055
10605POPC   C4A64098  43.874  22.900   7.355
10605POPC   C1B64099  43.605  23.007   6.455
10605POPC   C2B64100  43.628  22.955   6.755
10605POPC   C3B64101  43.618  22.980   7.055
10605POPC   C4B64102  43.683  22.998   7.355
10606POPC   NC364103   5.061   3.518   5.555
10606POPC   PO464104   5.124   3.501   5.855
10606POPC   GL164105   5.071   3.560   6.155
10606POPC   GL264106   5.016   3.594   6.155
10606POPC   C1A64107   5.122   3.520   6.455
10606POPC   D2A64108   5.094   3.559   6.755
10606POPC   C3A64109   5.128   3.540   7.055
10606POPC   C4A64110   5.089   3.573   7.355
10606POPC   C1B64111   4.890   3.758   6.455
10606POPC   C2B64112   4.874   3.726   6.755
10606POPC   C3B64113   4.887   3.763   7.055
10606POPC   C4B64114   4.879   3.685   7.355
10607POPC   NC364115  40.050   4.353   5.555
10607POPC   PO464116  39.992   4.274   5.855
10607POPC   GL164117  39.959   4.357   6.155
10607POPC   GL264118  39.929   4.232   6.155
10607POPC   C1A64119  39.997   4.343   6.455
10607POPC   D2A64120  40.051   4.282   6.755
10607POPC   C3A64121  40.023   4.356   7.055
10607POPC   C4A64122  40.001   4.269   7.355
10607POPC   C1B64123  39.932   4.092   6.455
10607POPC   C2B64124  39.943   4.081   6.755
10607POPC   C3B64125  39.887   4.040   7.055
10607POPC   C4B64126  39.872   4.049   7.355
10608POPC   NC364127  42.373  43.913   5.555
10608POPC   PO464128  42.362  43.848   5.855
10608POPC   GL164129  42.338  43.914   6.155
10608POPC   GL264130  42.290  43.998   6.155
10608POPC   C1A64131  42.358  43.905   6.455
10608POPC   D2A64132  42.309  43.863   6.755
10608POPC   C3A64133  42.376  43.921   7.055
10608POPC   C4A64134  42.318  43.848   7.355
10608POPC   C1B64135  42.323  44.134   6.455
10608POPC   C2B64136  42.317  44.097   6.755
10608POPC   C3B64137  42.250  44.119   7.055
10608POPC   C4B64138  42.278  44.085   7.355
10609POPC   NC364139  39.185   4.322   5.555
10609POPC   PO464140  39.252   4.324   5.855
10609POPC   GL164141  39.266   4.278   6.155
10609POPC   GL264142  39.098   4.288   6.155
10609POPC   C1A64143  39.214   4.282   6.455
10609POPC   D2A64144  39.224   4.293   6.755
10609POPC   C3A64145  39.227   4.312   7.055
10609POPC   C4A64146  39.224   4.359   7.355
10609POPC   C1B64147  38.947   4.331   6.455
10609POPC   C2B64148  38.957   4.301   6.755
10609POPC   C3B64149  38.975   4.325   7.055
10609POPC   C4B64150  39.011   4.290   7.355
10610POPC   NC364151  35.368  19.028   5.555
10610POPC   PO464152  35.354  19.037   5.855
10610POPC   GL164153  35.383  19.034   6.155
10610POPC   GL264154  35.305  19.128   6.155
10610POPC   C1A64155  35.374  19.069   6.455
10610POPC   D2A64156  35.342  19.032   6.755
10610POPC   C3A64157  35.332  19.053   7.055
10610POPC   C4A64158  35.303  19.043   7.355
10610POPC   C1B64159  35.170  19.224   6.455
10610POPC   C2B64160  35.156  19.219   6.755
10610POPC   C3B64161  35.137  19.238   7.055
10610POPC   C4B64162  35.168  19.217   7.355
10611POPC   NC364163   5.098  15.144   5.555
10611POPC   PO464164   5.124  15.148   5.855
10611POPC   GL164165   5.077  15.202   6.155
10611POPC   GL264166   5.057  15.294   6.155
10611POPC   C1A64167   5.069  15.145   6.455
10611POPC   D2A64168   5.056  15.154   6.755
10611POPC   C3A64169   5.120  15.161   7.055
10611POPC   C4A64170   5.078  15.215   7.355
10611POPC   C1B64171   5.014  15.384   6.455
10611POPC   C2B64172   4.951  15.422   6.755
10611POPC   C3B64173   4.987  15.427   7.055
10611POPC   C4B64174   4.975  15.414   7.355
10612POPC   NC364175  24.467  40.824   5.555
10612POPC   PO464176  24.475  40.765   5.855
10612POPC   GL164177  24.500  40.775   6.155
10612POPC   GL264178  24.425  40.621   6.155
10612POPC   C1A64179  24.465  40.761   6.455
10612POPC   D2A64180  24.519  40.821   6.755
10612POPC   C3A64181  24.466  40.761   7.055
10612POPC   C4A64182  24.497  40.769   7.355
10612POPC   C1B64183  24.374  40.557   6.455
10612POPC   C2B64184  24.392  40.551   6.755
10612POPC   C3B64185  24.416  40.517   7.055
10612POPC   C4B64186  24.434  40.586   7.355
10613POPC   NC364187   6.682   0.460   5.555
10613POPC   PO464188   6.638   0.406   5.855
10613POPC   GL164189   6.666   0.405   6.155
10613POPC   GL264190   6.483   0.455   6.155
10613POPC   C1A64191   6.603   0.401   6.455
10613POPC   D2A64192   6.624   0.399   6.755
10613POPC   C3A64193   6.667   0.474   7.055
10613POPC   C4A64194   6.670   0.458   7.355
10613POPC   C1B64195   6.378   0.424   6.455
10613POPC   C2B64196   6.396   0.439   6.755
10613POPC   C3B64197   6.418   0.411   7.055
10613POPC   C4B64198   6.388   0.403   7.355
10614POPC   NC364199  37.722  20.613   5.555
10614POPC   PO464200  37.692  20.565   5.855
10614POPC   GL164201  37.710  20.596   6.155
10614POPC   GL264202  37.692  20.754   6.155
10614POPC   C1A64203  37.725  20.566   6.455
10614POPC   D2A64204  37.702  20.645   6.755
10614POPC   C3A64205  37.719  20.623   7.055
10614POPC   C4A64206  37.642  20.565   7.355
10614POPC   C1B64207  37.612  20.820   6.455
10614POPC   C2B64208  37.594  20.839   6.755
10614POPC   C3B64209  37.598  20.877   7.055
10614POPC   C4B64210  37.642  20.875   7.355
10615POPC   NC364211  14.432  43.882   5.555
10615POPC   PO464212  14.401  43.893   5.855
10615POPC   GL164213  14.388  43.884   6.155
10615POPC   GL264214  14.346  43.801   6.155
10615POPC   C1A64215  14.383  43.903   6.455
10615POPC   D2A64216  14.424  43.921   6.755
10615POPC   C3A64217  14.392  43.893   7.055
10615POPC   C4A64218  14.400  43.882   7.355
10615POPC   C1B64219  14.319  43.712   6.455
10615POPC   C2B64220  14.255  43.651   6.755
10615POPC   C3B64221  14.254  43.652   7.055
10615POPC   C4B64222  14.316  43.658   7.355
10616POPC   NC364223  24.486   8.974   5.555
10616POPC   PO464224  24.510   9.010   5.855
10616POPC   GL164225  24.468   8.975   6.155
10616POPC   GL264226  24.419   8.812   6.155
10616POPC   C1A64227  24.456   9.004   6.455
10616POPC   D2A64228  24.471   8.932   6.755
10616POPC   C3A64229  24.482   9.002   7.055
10616POPC   C4A64230  24.446   9.016   7.355
10616POPC   C1B64231  24.422   8.741   6.455
10616POPC   C2B64232  24.410   8.715   6.755
10616POPC   C3B64233  24.404   8.771   7.055
10616POPC   C4B64234  24.403   8.766   7.355
10617POPC   NC364235  16.691  22.922   5.555
10617POPC   PO464236  16.760  22.981   5.855
10617POPC   GL164237  16.694  22.889   6.155
10617POPC   GL264238  16.791  23.002   6.155
10617POPC   C1A64239  16.749  22.947   6.455
10617POPC   D2A64240  16.732  22.951   6.755
10617POPC   C3A64241  16.776  22.906   7.055
10617POPC   C4A64242  16.704  22.957   7.355
10617POPC   C1B64243  16.905  23.074   6.455
10617POPC   C2B64244  16.894  23.122   6.755
10617POPC   C3B64245  16.903  23.101   7.055
10617POPC   C4B64246  16.884  23.094   7.355
10618POPC   NC364247   5.875   9.726   5.555
10618POPC   PO464248   5.837   9.797   5.855
10618POPC   GL164249   5.857   9.702   6.155
10618POPC   GL264250   6.010   9.791   6.155
10618POPC   C1A64251   5.828   9.738   6.455
10618POPC   D2A64252   5.842   9.751   6.755
10618POPC   C3A64253   5.909   9.733   7.055
10618POPC   C4A64254   5.870   9.766   7.355
10618POPC   C1B64255   6.055   9.847   6.455
10618POPC   C2B64256   6.101   9.853   6.755
10618POPC   C3B64257   6.074   9.865   7.055
10618POPC   C4B64258   6.075   9.855   7.355
10619POPC   NC364259   0.479  24.529   5.555
10619POPC   PO464260   0.464  24.535   5.855
10619POPC   GL164261   0.417  24.451   6.155
10619POPC   GL264262   0.383  24.580   6.155
10619POPC   C1A64263   0.390  24.452   6.455
10619POPC   D2A64264   0.463  24.521   6.755
10619POPC   C3A64265   0.482  24.490   7.055
10619POPC   C4A64266   0.388  24.535   7.355
10619POPC   C1B64267   0.427  24.728   6.455
10619POPC   C2B64268   0.412  24.722   6.755
10619POPC   C3B64269   0.392  24.695   7.055
10619POPC   C4B64270   0.348  24.746   7.355
10620POPC   NC364271   1.982  28.380   5.555
10620POPC   PO464272   1.946  28.398   5.855
10620POPC   GL164273   2.035  28.342   6.155
10620POPC   GL264274   1.906  28.249   6.155
10620POPC   C1A64275   1.948  28.338   6.455
10620POPC   D2A64276   1.967  28.391   6.755
10620POPC   C3A64277   2.036  28.359   7.055
10620POPC   C4A64278   1.972  28.366   7.355
10620POPC   C1B64279   1.884  28.113   6.455
10620POPC   C2B64280   1.903  28.145   6.755
10620POPC   C3B64281   1.941  28.109   7.055
10620POPC   C4B64282   1.883  28.115   7.355
10621POPC   NC364283   1.969  17.487   5.555
10621POPC   PO464284   1.975  17.555   5.855
10621POPC   GL164285   1.983  17.470   6.155
10621POPC   GL264286   1.858  17.449   6.155
10621POPC   C1A64287   1.983  17.541   6.455
10621POPC   D2A64288   1.952  17.533   6.755
10621POPC   C3A64289   1.979  17.488   7.055
10621POPC   C4A64290   2.008  17.460   7.355
10621POPC   C1B64291   1.737  17.445   6.455
10621POPC   C2B64292   1.787  17.407   6.755
10621POPC   C3B64293   1.713  17.465   7.055
10621POPC   C4B64294   1.699  17.468   7.355
10622POPC   NC364295  10.475  43.848   5.555
10622POPC   PO464296  10.547  43.845   5.855
10622POPC   GL164297  10.526  43.887   6.155
10622POPC   GL264298  10.656  43.798   6.155
10622POPC   C1A64299  10.528  43.902   6.455
10622POPC   D2A64300  10.563  43.891   6.755
10622POPC   C3A64301  10.570  43.910   7.055
10622POPC   C4A64302  10.502  43.865   7.355
10622POPC   C1B64303  10.786  43.783   6.455
10622POPC   C2B64304  10.800  43.754   6.755
10622POPC   C3B64305  10.711  43.819   7.055
10622POPC   C4B64306  10.791  43.796   7.355
10623POPC   NC364307  22.941  43.145   5.555
10623POPC   PO464308  22.914  43.076   5.855
10623POPC   GL164309  22.903  43.110   6.155
10623POPC   GL264310  23.005  43.275   6.155
10623POPC   C1A64311  22.939  43.153   6.455
10623POPC   D2A64312  22.897  43.144   6.755
10623POPC   C3A64313  22.974  43.068   7.055
10623POPC   C4A64314  22.955  43.110   7.355
10623POPC   C1B64315  22.976  43.399   6.455
10623POPC   C2B64316  22.967  43.342   6.755
10623POPC   C3B64317  22.983  43.405   7.055
10623POPC   C4B64318  23.025  43.398   7.355
10624POPC   NC364319  21.414  28.391   5.555
10624POPC   PO464320  21.402  28.350   5.855
10624POPC   GL164321  21.386  28.326   6.155
10624POPC   GL264322  21.224  28.389   6.155
10624POPC   C1A64323  21.401  28.381   6.455
10624POPC   D2A64324  21.421  28.378   6.755
10624POPC   C3A64325  21.390  28.327   7.055
10624POPC   C4A64326  21.410  28.339   7.355
10624POPC   C1B64327  21.103  28.430   6.455
10624POPC   C2B64328  21.102  28.478   6.755
10624POPC   C3B64329  21.189  28.489   7.055
10624POPC   C4B64330  21.132  28.403   7.355
10625POPC   NC364331  19.861  39.995   5.555
10625POPC   PO464332  19.846  39.968   5.855
10625POPC   GL164333  19.874  39.960   6.155
10625POPC   GL264334  19.739  40.053   6.155
10625POPC   C1A64335  19.803  40.035   6.455
10625POPC   D2A64336  19.868  40.033   6.755
10625POPC   C3A64337  19.814  40.041   7.055
10625POPC   C4A64338  19.863  39.993   7.355
10625POPC   C1B64339  19.554  40.114   6.455
10625POPC   C2B64340  19.553  40.074   6.755
10625POPC   C3B64341  19.638  40.037   7.055
10625POPC   C4B64342  19.587  40.067   7.355
10626POPC   NC364343   2.037  42.302   5.555
10626POPC   PO464344   2.013  42.325   5.855
10626POPC   GL164345   2.010  42.355   6.155
10626POPC   GL264346   1.901  42.221   6.155
10626POPC   C1A64347   1.977  42.372   6.455
10626POPC   D2A64348   1.993  42.317   6.755
10626POPC   C3A64349   2.004  42.302   7.055
10626POPC   C4A64350   1.992  42.301   7.355
10626POPC   C1B64351   1.791  42.170   6.455
10626POPC   C2B64352   1.766  42.188   6.755
10626POPC   C3B64353   1.739  42.210   7.055
10626POPC   C4B64354   1.752  42.183   7.355
10627POPC   NC364355   5.097  33.072   5.555
10627POPC   PO464356   5.059  33.016   5.855
10627POPC   GL164357   5.066  33.055   6.155
10627POPC   GL264358   4.926  32.937   6.155
10627POPC   C1A64359   5.069  32.996   6.455
10627POPC   D2A64360   5.089  32.979   6.755
10627POPC   C3A64361   5.135  32.996   7.055
10627POPC   C4A64362   5.081  33.001   7.355
10627POPC   C1B64363   4.872  32.913   6.455
10627POPC   C2B64364   4.839  32.930   6.755
10627POPC   C3B64365   4.814  32.971   7.055
10627POPC   C4B64366   4.868  32.955   7.355
10628POPC   NC364367  37.713  31.503   5.555
10628POPC   PO464368  37.719  31.426   5.855
10628POPC   GL164369  37.675  31.423   6.155
10628POPC   GL264370  37.557  31.393   6.155
10628POPC   C1A64371  37.663  31.478   6.455
10628POPC   D2A64372  37.662  31.429   6.755
10628POPC   C3A64373  37.665  31.509   7.055
10628POPC   C4A64374  37.689  31.469   7.355
10628POPC   C1B64375  37.514  31.302   6.455
10628POPC   C2B64376  37.487  31.318   6.755
10628POPC   C3B64377  37.452  31.298   7.055
10628POPC   C4B64378  37.479  31.291   7.355
10629POPC   NC364379   6.690   4.339   5.555
10629POPC   PO464380   6.655   4.290   5.855
10629POPC   GL164381   6.609   4.361   6.155
10629POPC   GL264382   6.635   4.185   6.155
10629POPC   C1A64383   6.692   4.321   6.455
10629POPC   D2A64384   6.637   4.340   6.755
10629POPC   C3A64385   6.667   4.336   7.055
10629POPC   C4A64386   6.616   4.351   7.355
10629POPC   C1B64387   6.667   4.031   6.455
10629POPC   C2B64388   6.653   4.022   6.755
10629POPC   C3B64389   6.679   4.078   7.055
10629POPC   C4B64390   6.617   4.082   7.355
10630POPC   NC364391  16.768  18.295   5.555
10630POPC   PO464392  16.737  18.324   5.855
10630POPC   GL164393  16.738  18.235   6.155
10630POPC   GL264394  16.888  18.278   6.155
10630POPC   C1A64395  16.702  18.260   6.455
10630POPC   D2A64396  16.702  18.265   6.755
10630POPC   C3A64397  16.700  18.261   7.055
10630POPC   C4A64398  16.689  18.316   7.355
10630POPC   C1B64399  17.004  18.303   6.455
10630POPC   C2B64400  17.026  18.218   6.755
10630POPC   C3B64401  16.960  18.230   7.055
10630POPC   C4B64402  16.966  18.233   7.355
10631POPC   NC364403   8.224   1.984   5.555
10631POPC   PO464404   8.188   2.021   5.855
10631POPC   GL164405   8.191   2.017   6.155
10631POPC   GL264406   8.147   1.893   6.155
10631POPC   C1A64407   8.244   1.997   6.455
10631POPC   D2A64408   8.156   1.940   6.755
10631POPC   C3A64409   8.148   2.013   7.055
10631POPC   C4A64410   8.174   2.021   7.355
10631POPC   C1B64411   8.096   1.748   6.455
10631POPC   C2B64412   8.022   1.816   6.755
10631POPC   C3B64413   8.046   1.808   7.055
10631POPC   C4B64414   8.078   1.746   7.355
10632POPC   NC364415  41.550  22.153   5.555
10632POPC   PO464416  41.556  22.200   5.855
10632POPC   GL164417  41.522  22.190   6.155
10632POPC   GL264418  41.518  22.323   6.155
10632POPC   C1A64419  41.579  22.140   6.455
10632POPC   D2A64420  41.574  22.142   6.755
10632POPC   C3A64421  41.605  22.121   7.055
10632POPC   C4A64422  41.529  22.188   7.355
10632POPC   C1B64423  41.593  22.362   6.455
10632POPC   C2B64424  41.591  22.438   6.755
10632POPC   C3B64425  41.549  22.376   7.055
10632POPC   C4B64426  41.596  22.381   7.355
10633POPC   NC364427  32.990  43.896   5.555
10633POPC   PO464428  32.979  43.892   5.855
10633POPC   GL164429  33.056  43.919   6.155
10633POPC   GL264430  33.118  43.891   6.155
10633POPC   C1A64431  32.996  43.915   6.455
10633POPC   D2A64432  33.045  43.872   6.755
10633POPC   C3A64433  33.033  43.934   7.055
10633POPC   C4A64434  33.017  43.888   7.355
10633POPC   C1B64435  33.271  43.816   6.455
10633POPC   C2B64436  33.235  43.847   6.755
10633POPC   C3B64437  33.299  43.878   7.055
10633POPC   C4B64438  33.236  43.879   7.355
10634POPC   NC364439  40.761  15.131   5.555
10634POPC   PO464440  40.777  15.217   5.855
10634POPC   GL164441  40.801  15.217   6.155
10634POPC   GL264442  40.858  15.317   6.155
10634POPC   C1A64443  40.822  15.153   6.455
10634POPC   D2A64444  40.783  15.227   6.755
10634POPC   C3A64445  40.792  15.173   7.055
10634POPC   C4A64446  40.760  15.186   7.355
10634POPC   C1B64447  40.965  15.340   6.455
10634POPC   C2B64448  40.947  15.430   6.755
10634POPC   C3B64449  40.966  15.426   7.055
10634POPC   C4B64450  40.936  15.333   7.355
10635POPC   NC364451   8.989  34.547   5.555
10635POPC   PO464452   8.955  34.540   5.855
10635POPC   GL164453   8.930  34.600   6.155
10635POPC   GL264454   9.078  34.679   6.155
10635POPC   C1A64455   8.949  34.593   6.455
10635POPC   D2A64456   9.015  34.575   6.755
10635POPC   C3A64457   8.970  34.577   7.055
10635POPC   C4A64458   8.937  34.542   7.355
10635POPC   C1B64459   9.122  34.715   6.455
10635POPC   C2B64460   9.185  34.694   6.755
10635POPC   C3B64461   9.182  34.722   7.055
10635POPC   C4B64462   9.117  34.699   7.355
10636POPC   NC364463  29.187  35.384   5.555
10636POPC   PO464464  29.144  35.315   5.855
10636POPC   GL164465  29.127  35.384   6.155
10636POPC   GL264466  29.154  35.517   6.155
10636POPC   C1A64467  29.106  35.397   6.455
10636POPC   D2A64468  29.179  35.375   6.755
10636POPC   C3A64469  29.114  35.302   7.055
10636POPC   C4A64470  29.154  35.325   7.355
10636POPC   C1B64471  29.068  35.610   6.455
10636POPC   C2B64472  29.066  35.633   6.755
10636POPC   C3B64473  29.052  35.582   7.055
10636POPC   C4B64474  29.103  35.631   7.355
10637POPC   NC364475  34.566  40.733   5.555
10637POPC   PO464476  34.613  40.809   5.855
10637POPC   GL164477  34.577  40.817   6.155
10637POPC   GL264478  34.742  40.718   6.155
10637POPC   C1A64479  34.550  40.804   6.455
10637POPC   D2A64480  34.617  40.803   6.755
10637POPC   C3A64481  34.585  40.815   7.055
10637POPC   C4A64482  34.598  40.787   7.355
10637POPC   C1B64483  34.841  40.674   6.455
10637POPC   C2B64484  34.770  40.722   6.755
10637POPC   C3B64485  34.788  40.656   7.055
10637POPC   C4B64486  34.820  40.706   7.355
10638POPC   NC364487  10.534   6.682   5.555
10638POPC   PO464488  10.501   6.680   5.855
10638POPC   GL164489  10.521   6.619   6.155
10638POPC   GL264490  10.518   6.736   6.155
10638POPC   C1A64491  10.514   6.637   6.455
10638POPC   D2A64492  10.562   6.622   6.755
10638POPC   C3A64493  10.509   6.611   7.055
10638POPC   C4A64494  10.477   6.611   7.355
10638POPC   C1B64495  10.623   6.851   6.455
10638POPC   C2B64496  10.532   6.843   6.755
10638POPC   C3B64497  10.567   6.892   7.055
10638POPC   C4B64498  10.546   6.859   7.355
10639POPC   NC364499  37.672   1.261   5.555
10639POPC   PO464500  37.672   1.252   5.855
10639POPC   GL164501  37.672   1.216   6.155
10639POPC   GL264502  37.588   1.168   6.155
10639POPC   C1A64503  37.658   1.175   6.455
10639POPC   D2A64504  37.714   1.172   6.755
10639POPC   C3A64505  37.675   1.202   7.055
10639POPC   C4A64506  37.649   1.226   7.355
10639POPC   C1B64507  37.455   1.062   6.455
10639POPC   C2B64508  37.482   1.053   6.755
10639POPC   C3B64509  37.504   1.127   7.055
10639POPC   C4B64510  37.461   1.049   7.355
10640POPC   NC364511  34.606   4.278   5.555
10640POPC   PO464512  34.531   4.318   5.855
10640POPC   GL164513  34.593   4.337   6.155
10640POPC   GL264514  34.492   4.432   6.155
10640POPC   C1A64515  34.541   4.297   6.455
10640POPC   D2A64516  34.617   4.339   6.755
10640POPC   C3A64517  34.530   4.330   7.055
10640POPC   C4A64518  34.578   4.366   7.355
10640POPC   C1B64519  34.396   4.427   6.455
10640POPC   C2B64520  34.345   4.439   6.755
10640POPC   C3B64521  34.410   4.446   7.055
10640POPC   C4B64522  34.373   4.446   7.355
10641POPC   NC364523  22.160  37.684   5.555
10641POPC   PO464524  22.169  37.723   5.855
10641POPC   GL164525  22.117  37.662   6.155
10641POPC   GL264526  22.290  37.651   6.155
10641POPC   C1A64527  22.181  37.720   6.455
10641POPC   D2A64528  22.165  37.686   6.755
10641POPC   C3A64529  22.164  37.634   7.055
10641POPC   C4A64530  22.172  37.674   7.355
10641POPC   C1B64531  22.330  37.560   6.455
10641POPC   C2B64532  22.323  37.507   6.755
10641POPC   C3B64533  22.321  37.557   7.055
10641POPC   C4B64534  22.378  37.544   7.355
10642POPC   NC364535   0.485  28.366   5.555
10642POPC   PO464536   0.405  28.408   5.855
10642POPC   GL164537   0.488  28.332   6.155
10642POPC   GL264538   0.542  28.320   6.155
10642POPC   C1A64539   0.423  28.325   6.455
10642POPC   D2A64540   0.470  28.381   6.755
10642POPC   C3A64541   0.397  28.358   7.055
10642POPC   C4A64542   0.454  28.385   7.355
10642POPC   C1B64543   0.673  28.340   6.455
10642POPC   C2B64544   0.669  28.360   6.755
10642POPC   C3B64545   0.707  28.373   7.055
10642POPC   C4B64546   0.635  28.300   7.355
10643POPC   NC364547  21.405  33.838   5.555
10643POPC   PO464548  21.422  33.806   5.855
10643POPC   GL164549  21.424  33.759   6.155
10643POPC   GL264550  21.463  33.731   6.155
10643POPC   C1A64551  21.351  33.806   6.455
10643POPC   D2A64552  21.372  33.822   6.755
10643POPC   C3A64553  21.351  33.826   7.055
10643POPC   C4A64554  21.370  33.838   7.355
10643POPC   C1B64555  21.545  33.579   6.455
10643POPC   C2B64556  21.569  33.599   6.755
10643POPC   C3B64557  21.488  33.555   7.055
10643POPC   C4B64558  21.561  33.617   7.355
10644POPC   NC364559  34.596  11.331   5.555
10644POPC   PO464560  34.619  11.314   5.855
10644POPC   GL164561  34.605  11.303   6.155
10644POPC   GL264562  34.707  11.173   6.155
10644POPC   C1A64563  34.530  11.346   6.455
10644POPC   D2A64564  34.569  11.321   6.755
10644POPC   C3A64565  34.558  11.259   7.055
10644POPC   C4A64566  34.534  11.324   7.355
10644POPC   C1B64567  34.797  11.102   6.455
10644POPC   C2B64568  34.738  11.167   6.755
10644POPC   C3B64569  34.773  11.106   7.055
10644POPC   C4B64570  34.717  11.148   7.355
10645POPC   NC364571   6.693  22.918   5.555
10645POPC   PO464572   6.635  22.918   5.855
10645POPC   GL164573   6.623  22.925   6.155
10645POPC   GL264574   6.658  22.794   6.155
10645POPC   C1A64575   6.619  22.984   6.455
10645POPC   D2A64576   6.662  22.922   6.755
10645POPC   C3A64577   6.683  22.949   7.055
10645POPC   C4A64578   6.681  22.910   7.355
10645POPC   C1B64579   6.752  22.732   6.455
10645POPC   C2B64580   6.727  22.714   6.755
10645POPC   C3B64581   6.767  22.679   7.055
10645POPC   C4B64582   6.760  22.754   7.355
10646POPC   NC364583  29.918  12.098   5.555
10646POPC   PO464584  29.946  12.088   5.855
10646POPC   GL164585  29.917  12.109   6.155
10646POPC   GL264586  29.847  12.146   6.155
10646POPC   C1A64587  29.964  12.044   6.455
10646POPC   D2A64588  29.929  12.104   6.755
10646POPC   C3A64589  29.912  12.106   7.055
10646POPC   C4A64590  29.933  12.031   7.355
10646POPC   C1B64591  29.788  12.268   6.455
10646POPC   C2B64592  29.746  12.234   6.755
10646POPC   C3B64593  29.769  12.284   7.055
10646POPC   C4B64594  29.728  12.278   7.355
10647POPC   NC364595  31.462  16.683   5.555
10647POPC   PO464596  31.448  16.726   5.855
10647POPC   GL164597  31.495  16.692   6.155
10647POPC   GL264598  31.461  16.871   6.155
10647POPC   C1A64599  31.423  16.752   6.455
10647POPC   D2A64600  31.453  16.707   6.755
10647POPC   C3A64601  31.486  16.737   7.055
10647POPC   C4A64602  31.490  16.718   7.355
10647POPC   C1B64603  31.438  16.935   6.455
10647POPC   C2B64604  31.434  16.941   6.755
10647POPC   C3B64605  31.451  16.977   7.055
10647POPC   C4B64606  31.488  17.025   7.355
10648POPC   NC364607  20.596  33.794   5.555
10648POPC   PO464608  20.638  33.813   5.855
10648POPC   GL164609  20.593  33.764   6.155
10648POPC   GL264610  20.569  33.682   6.155
10648POPC   C1A64611  20.597  33.758   6.455
10648POPC   D2A64612  20.581  33.811   6.755
10648POPC   C3A64613  20.633  33.813   7.055
10648POPC   C4A64614  20.644  33.844   7.355
10648POPC   C1B64615  20.549  33.583   6.455
10648POPC   C2B64616  20.592  33.513   6.755
10648POPC   C3B64617  20.553  33.551   7.055
10648POPC   C4B64618  20.546  33.527   7.355
10649POPC   NC364619  33.065  32.292   5.555
10649POPC   PO464620  32.988  32.247   5.855
10649POPC   GL164621  32.981  32.284   6.155
10649POPC   GL264622  33.015  32.128   6.155
10649POPC   C1A64623  32.990  32.286   6.455
10649POPC   D2A64624  33.051  32.264   6.755
10649POPC   C3A64625  33.022  32.205   7.055
10649POPC   C4A64626  33.006  32.252   7.355
10649POPC   C1B64627  32.954  32.032   6.455
10649POPC   C2B64628  32.944  31.994   6.755
10649POPC   C3B64629  32.949  31.989   7.055
10649POPC   C4B64630  32.935  32.044   7.355
10650POPC   NC364631  13.633  35.350   5.555
10650POPC   PO464632  13.639  35.353   5.855
10650POPC   GL164633  13.673  35.344   6.155
10650POPC   GL264634  13.622  35.476   6.155
10650POPC   C1A64635  13.617  35.374   6.455
10650POPC   D2A64636  13.603  35.365   6.755
10650POPC   C3A64637  13.591  35.319   7.055
10650POPC   C4A64638  13.665  35.380   7.355
10650POPC   C1B64639  13.546  35.611   6.455
10650POPC   C2B64640  13.507  35.614   6.755
10650POPC   C3B64641  13.537  35.564   7.055
10650POPC   C4B64642  13.542  35.568   7.355
10651POPC   NC364643   8.152  42.294   5.555
10651POPC   PO464644   8.166  42.295   5.855
10651POPC   GL164645   8.203  42.315   6.155
10651POPC   GL264646   8.102  42.330   6.155
10651POPC   C1A64647   8.187  42.335   6.455
10651POPC   D2A64648   8.227  42.316   6.755
10651POPC   C3A64649   8.199  42.366   7.055
10651POPC   C4A64650   8.194  42.380   7.355
10651POPC   C1B64651   7.926  42.243   6.455
10651POPC   C2B64652   7.977  42.254   6.755
10651POPC   C3B64653   8.005  42.270   7.055
10651POPC   C4B64654   7.990  42.247   7.355
10652POPC   NC364655  28.403   5.917   5.555
10652POPC   PO464656  28.377   5.891   5.855
10652POPC   GL164657  28.383   5.855   6.155
10652POPC   GL264658  28.460   5.776   6.155
10652POPC   C1A64659  28.326   5.839   6.455
10652POPC   D2A64660  28.404   5.873   6.755
10652POPC   C3A64661  28.344   5.842   7.055
10652POPC   C4A64662  28.329   5.888   7.355
10652POPC   C1B64663  28.589   5.716   6.455
10652POPC   C2B64664  28.572   5.649   6.755
10652POPC   C3B64665  28.513   5.672   7.055
10652POPC   C4B64666  28.588   5.695   7.355
10653POPC   NC364667   7.426  21.402   5.555
10653POPC   PO464668   7.371  21.392   5.855
10653POPC   GL164669   7.421  21.392   6.155
10653POPC   GL264670   7.358  21.280   6.155
10653POPC   C1A64671   7.433  21.343   6.455
10653POPC   D2A64672   7.393  21.377   6.755
10653POPC   C3A64673   7.436  21.349   7.055
10653POPC   C4A64674   7.405  21.369   7.355
10653POPC   C1B64675   7.276  21.196   6.455
10653POPC   C2B64676   7.323  21.205   6.755
10653POPC   C3B64677   7.240  21.206   7.055
10653POPC   C4B64678   7.301  21.145   7.355
10654POPC   NC364679  16.752  15.195   5.555
10654POPC   PO464680  16.691  15.166   5.855
10654POPC   GL164681  16.760  15.159   6.155
10654POPC   GL264682  16.823  15.143   6.155
10654POPC   C1A64683  16.760  15.207   6.455
10654POPC   D2A64684  16.729  15.162   6.755
10654POPC   C3A64685  16.704  15.183   7.055
10654POPC   C4A64686  16.694  15.158   7.355
10654POPC   C1B64687  16.987  15.201   6.455
10654POPC   C2B64688  16.943  15.246   6.755
10654POPC   C3B64689  16.981  15.230   7.055
10654POPC   C4B64690  17.001  15.170   7.355
10655POPC   NC364691  39.198  44.712   5.555
10655POPC   PO464692  39.208  44.698   5.855
10655POPC   GL164693  39.276  44.639   6.155
10655POPC   GL264694  39.310  44.576   6.155
10655POPC   C1A64695  39.221  44.685   6.455
10655POPC   D2A64696  39.234  44.684   6.755
10655POPC   C3A64697  39.253  44.684   7.055
10655POPC   C4A64698  39.275  44.662   7.355
10655POPC   C1B64699  39.326  44.459   6.455
10655POPC   C2B64700  39.344  44.472   6.755
10655POPC   C3B64701  39.416  44.423   7.055
10655POPC   C4B64702  39.367  44.427   7.355
10656POPC   NC364703  40.827   5.110   5.555
10656POPC   PO464704  40.808   5.142   5.855
10656POPC   GL164705  40.759   5.131   6.155
10656POPC   GL264706  40.732   4.971   6.155
10656POPC   C1A64707  40.787   5.115   6.455
10656POPC   D2A64708  40.759   5.106   6.755
10656POPC   C3A64709  40.807   5.133   7.055
10656POPC   C4A64710  40.742   5.105   7.355
10656POPC   C1B64711  40.706   4.832   6.455
10656POPC   C2B64712  40.743   4.825   6.755
10656POPC   C3B64713  40.762   4.858   7.055
10656POPC   C4B64714  40.761   4.843   7.355
10657POPC   NC364715   7.418  31.449   5.555
10657POPC   PO464716   7.435  31.435   5.855
10657POPC   GL164717   7.380  31.480   6.155
10657POPC   GL264718   7.526  31.471   6.155
10657POPC   C1A64719   7.426  31.433   6.455
10657POPC   D2A64720   7.423  31.485   6.755
10657POPC   C3A64721   7.372  31.500   7.055
10657POPC   C4A64722   7.408  31.521   7.355
10657POPC   C1B64723   7.656  31.489   6.455
10657POPC   C2B64724   7.663  31.556   6.755
10657POPC   C3B64725   7.647  31.549   7.055
10657POPC   C4B64726   7.705  31.512   7.355
10658POPC   NC364727  44.684  22.143   5.555
10658POPC   PO464728  44.617  22.204   5.855
10658POPC   GL164729  44.696  22.192   6.155
10658POPC   GL264730  44.536  22.161   6.155
10658POPC   C1A64731  44.700  22.125   6.455
10658POPC   D2A64732  44.692  22.140   6.755
10658POPC   C3A64733  44.635  22.166   7.055
10658POPC   C4A64734  44.623  22.182   7.355
10658POPC   C1B64735  44.404  22.173   6.455
10658POPC   C2B64736  44.399  22.200   6.755
10658POPC   C3B64737  44.374  22.238   7.055
10658POPC   C4B64738  44.390  22.270   7.355
10659POPC   NC364739  42.316  11.307   5.555
10659POPC   PO464740  42.292  11.292   5.855
10659POPC   GL164741  42.289  11.296   6.155
10659POPC   GL264742  42.225  11.377   6.155
10659POPC   C1A64743  42.344  11.258   6.455
10659POPC   D2A64744  42.294  11.310   6.755
10659POPC   C3A64745  42.346  11.345   7.055
10659POPC   C4A64746  42.305  11.272   7.355
10659POPC   C1B64747  42.223  11.552   6.455
10659POPC   C2B64748  42.240  11.485   6.755
10659POPC   C3B64749  42.238  11.558   7.055
10659POPC   C4B64750  42.180  11.560   7.355
10660POPC   NC364751  29.106  41.575   5.555
10660POPC   PO464752  29.104  41.567   5.855
10660POPC   GL164753  29.174  41.518   6.155
10660POPC   GL264754  29.255  41.435   6.155
10660POPC   C1A64755  29.141  41.585   6.455
10660POPC   D2A64756  29.168  41.529   6.755
10660POPC   C3A64757  29.120  41.576   7.055
10660POPC   C4A64758  29.135  41.546   7.355
10660POPC   C1B64759  29.330  41.445   6.455
10660POPC   C2B64760  29.379  41.371   6.755
10660POPC   C3B64761  29.297  41.457   7.055
10660POPC   C4B64762  29.374  41.456   7.355
10661POPC   NC364763  41.531  23.701   5.555
10661POPC   PO464764  41.566  23.741   5.855
10661POPC   GL164765  41.606  23.753   6.155
10661POPC   GL264766  41.612  23.874   6.155
10661POPC   C1A64767  41.528  23.712   6.455
10661POPC   D2A64768  41.579  23.726   6.755
10661POPC   C3A64769  41.586  23.698   7.055
10661POPC   C4A64770  41.596  23.735   7.355
10661POPC   C1B64771  41.641  23.983   6.455
10661POPC   C2B64772  41.686  23.916   6.755
10661POPC   C3B64773  41.602  23.952   7.055
10661POPC   C4B64774  41.687  23.936   7.355
10662POPC   NC364775  22.211  15.166   5.555
10662POPC   PO464776  22.208  15.151   5.855
10662POPC   GL164777  22.187  15.220   6.155
10662POPC   GL264778  22.183  15.279   6.155
10662POPC   C1A64779  22.140  15.146   6.455
10662POPC   D2A64780  22.199  15.194   6.755
10662POPC   C3A64781  22.147  15.220   7.055
10662POPC   C4A64782  22.114  15.160   7.355
10662POPC   C1B64783  22.075  15.412   6.455
10662POPC   C2B64784  22.075  15.395   6.755
10662POPC   C3B64785  22.106  15.390   7.055
10662POPC   C4B64786  22.058  15.385   7.355
10663POPC   NC364787  37.674  15.950   5.555
10663POPC   PO464788  37.660  15.976   5.855
10663POPC   GL164789  37.695  15.981   6.155
10663POPC   GL264790  37.784  15.931   6.155
10663POPC   C1A64791  37.667  15.991   6.455
10663POPC   D2A64792  37.701  15.942   6.755
10663POPC   C3A64793  37.640  15.950   7.055
10663POPC   C4A64794  37.632  15.939   7.355
10663POPC   C1B64795  37.920  16.001   6.455
10663POPC   C2B64796  37.908  15.950   6.755
10663POPC   C3B64797  37.907  15.980   7.055
10663POPC   C4B64798  37.925  15.989   7.355
10664POPC   NC364799  19.029  40.776   5.555
10664POPC   PO464800  19.040  40.754   5.855
10664POPC   GL164801  19.086  40.792   6.155
10664POPC   GL264802  18.998  40.664   6.155
10664POPC   C1A64803  19.013  40.810   6.455
10664POPC   D2A64804  19.088  40.774   6.755
10664POPC   C3A64805  19.063  40.832   7.055
10664POPC   C4A64806  19.099  40.736   7.355
10664POPC   C1B64807  18.883  40.614   6.455
10664POPC   C2B64808  18.894  40.593   6.755
10664POPC   C3B64809  18.912  40.567   7.055
10664POPC   C4B64810  18.843  40.587   7.355
10665POPC   NC364811   5.077   6.646   5.555
10665POPC   PO464812   5.099   6.636   5.855
10665POPC   GL164813   5.049   6.686   6.155
10665POPC   GL264814   4.934   6.589   6.155
10665POPC   C1A64815   5.099   6.641   6.455
10665POPC   D2A64816   5.121   6.689   6.755
10665POPC   C3A64817   5.084   6.665   7.055
10665POPC   C4A64818   5.095   6.666   7.355
10665POPC   C1B64819   4.878   6.648   6.455
10665POPC   C2B64820   4.799   6.623   6.755
10665POPC   C3B64821   4.819   6.606   7.055
10665POPC   C4B64822   4.874   6.628   7.355
10666POPC   NC364823   2.020  38.486   5.555
10666POPC   PO464824   2.019  38.498   5.855
10666POPC   GL164825   2.006  38.469   6.155
10666POPC   GL264826   2.022  38.533   6.155
10666POPC   C1A64827   1.941  38.452   6.455
10666POPC   D2A64828   2.015  38.469   6.755
10666POPC   C3A64829   1.987  38.410   7.055
10666POPC   C4A64830   1.952  38.452   7.355
10666POPC   C1B64831   2.120  38.648   6.455
10666POPC   C2B64832   2.131  38.688   6.755
10666POPC   C3B64833   2.184  38.667   7.055
10666POPC   C4B64834   2.138  38.678   7.355
10667POPC   NC364835  13.658   8.970   5.555
10667POPC   PO464836  13.620   8.976   5.855
10667POPC   GL164837  13.598   8.973   6.155
10667POPC   GL264838  13.453   9.011   6.155
10667POPC   C1A64839  13.617   8.985   6.455
10667POPC   D2A64840  13.607   8.979   6.755
10667POPC   C3A64841  13.638   9.014   7.055
10667POPC   C4A64842  13.588   8.950   7.355
10667POPC   C1B64843  13.334   8.933   6.455
10667POPC   C2B64844  13.401   9.001   6.755
10667POPC   C3B64845  13.349   8.978   7.055
10667POPC   C4B64846  13.360   8.966   7.355
10668POPC   NC364847   2.028  34.624   5.555
10668POPC   PO464848   2.029  34.590   5.855
10668POPC   GL164849   1.952  34.615   6.155
10668POPC   GL264850   2.084  34.562   6.155
10668POPC   C1A64851   1.961  34.555   6.455
10668POPC   D2A64852   2.011  34.616   6.755
10668POPC   C3A64853   2.007  34.561   7.055
10668POPC   C4A64854   1.952  34.576   7.355
10668POPC   C1B64855   2.219  34.442   6.455
10668POPC   C2B64856   2.176  34.497   6.755
10668POPC   C3B64857   2.258  34.473   7.055
10668POPC   C4B64858   2.221  34.472   7.355
10669POPC   NC364859  12.884   0.470   5.555
10669POPC   PO464860  12.812   0.417   5.855
10669POPC   GL164861  12.894   0.483   6.155
10669POPC   GL264862  12.880   0.561   6.155
10669POPC   C1A64863  12.885   0.473   6.455
10669POPC   D2A64864  12.853   0.396   6.755
10669POPC   C3A64865  12.814   0.472   7.055
10669POPC   C4A64866  12.898   0.393   7.355
10669POPC   C1B64867  12.940   0.681   6.455
10669POPC   C2B64868  12.913   0.622   6.755
10669POPC   C3B64869  12.944   0.706   7.055
10669POPC   C4B64870  12.921   0.622   7.355
10670POPC   NC364871   5.067   7.399   5.555
10670POPC   PO464872   5.138   7.470   5.855
10670POPC   GL164873   5.076   7.371   6.155
10670POPC   GL264874   5.160   7.312   6.155
10670POPC   C1A64875   5.080   7.468   6.455
10670POPC   D2A64876   5.090   7.373   6.755
10670POPC   C3A64877   5.123   7.377   7.055
10670POPC   C4A64878   5.125   7.414   7.355
10670POPC   C1B64879   5.167   7.167   6.455
10670POPC   C2B64880   5.181   7.171   6.755
10670POPC   C3B64881   5.169   7.235   7.055
10670POPC   C4B64882   5.163   7.243   7.355
10671POPC   NC364883  30.660  37.680   5.555
10671POPC   PO464884  30.650  37.717   5.855
10671POPC   GL164885  30.664  37.693   6.155
10671POPC   GL264886  30.847  37.607   6.155
10671POPC   C1A64887  30.675  37.711   6.455
10671POPC   D2A64888  30.744  37.670   6.755
10671POPC   C3A64889  30.745  37.701   7.055
10671POPC   C4A64890  30.676  37.686   7.355
10671POPC   C1B64891  30.908  37.623   6.455
10671POPC   C2B64892  30.917  37.646   6.755
10671POPC   C3B64893  30.907  37.655   7.055
10671POPC   C4B64894  30.984  37.628   7.355
10672POPC   NC364895  13.644   0.403   5.555
10672POPC   PO464896  13.648   0.487   5.855
10672POPC   GL164897  13.625   0.416   6.155
10672POPC   GL264898  13.759   0.360   6.155
10672POPC   C1A64899  13.589   0.443   6.455
10672POPC   D2A64900  13.630   0.442   6.755
10672POPC   C3A64901  13.661   0.448   7.055
10672POPC   C4A64902  13.655   0.468   7.355
10672POPC   C1B64903  13.814   0.332   6.455
10672POPC   C2B64904  13.840   0.363   6.755
10672POPC   C3B64905  13.810   0.321   7.055
10672POPC   C4B64906  13.852   0.301   7.355
10673POPC   NC364907  40.794  42.302   5.555
10673POPC   PO464908  40.829  42.343   5.855
10673POPC   GL164909  40.773  42.329   6.155
10673POPC   GL264910  40.832  42.427   6.155
10673POPC   C1A64911  40.772  42.339   6.455
10673POPC   D2A64912  40.824  42.297   6.755
10673POPC   C3A64913  40.802  42.348   7.055
10673POPC   C4A64914  40.798  42.335   7.355
10673POPC   C1B64915  41.009  42.465   6.455
10673POPC   C2B64916  40.969  42.520   6.755
10673POPC   C3B64917  40.968  42.491   7.055
10673POPC   C4B64918  40.917  42.480   7.355
10674POPC   NC364919  31.500   0.446   5.555
10674POPC   PO464920  31.458   0.399   5.855
10674POPC   GL164921  31.522   0.414   6.155
10674POPC   GL264922  31.551   0.573   6.155
10674POPC   C1A64923  31.443   0.448   6.455
10674POPC   D2A64924  31.432   0.399   6.755
10674POPC   C3A64925  31.491   0.399   7.055
10674POPC   C4A64926  31.475   0.475   7.355
10674POPC   C1B64927  31.570   0.720   6.455
10674POPC   C2B64928  31.556   0.722   6.755
10674POPC   C3B64929  31.558   0.666   7.055
10674POPC   C4B64930  31.578   0.717   7.355
10675POPC   NC364931   8.244  21.356   5.555
10675POPC   PO464932   8.178  21.380   5.855
10675POPC   GL164933   8.217  21.352   6.155
10675POPC   GL264934   8.172  21.475   6.155
10675POPC   C1A64935   8.177  21.339   6.455
10675POPC   D2A64936   8.200  21.396   6.755
10675POPC   C3A64937   8.205  21.426   7.055
10675POPC   C4A64938   8.205  21.386   7.355
10675POPC   C1B64939   8.242  21.678   6.455
10675POPC   C2B64940   8.286  21.652   6.755
10675POPC   C3B64941   8.190  21.597   7.055
10675POPC   C4B64942   8.262  21.645   7.355
10676POPC   NC364943  34.602   2.010   5.555
10676POPC   PO464944  34.619   2.022   5.855
10676POPC   GL164945  34.610   1.997   6.155
10676POPC   GL264946  34.457   1.940   6.155
10676POPC   C1A64947  34.591   1.953   6.455
10676POPC   D2A64948  34.605   2.002   6.755
10676POPC   C3A64949  34.600   1.967   7.055
10676POPC   C4A64950  34.592   2.029   7.355
10676POPC   C1B64951  34.289   1.870   6.455
10676POPC   C2B64952  34.385   1.941   6.755
10676POPC   C3B64953  34.375   1.931   7.055
10676POPC   C4B64954  34.359   1.876   7.355
10677POPC   NC364955  23.717  27.615   5.555
10677POPC   PO464956  23.690  27.640   5.855
10677POPC   GL164957  23.677  27.587   6.155
10677POPC   GL264958  23.727  27.760   6.155
10677POPC   C1A64959  23.747  27.581   6.455
10677POPC   D2A64960  23.703  27.575   6.755
10677POPC   C3A64961  23.703  27.591   7.055
10677POPC   C4A64962  23.664  27.630   7.355
10677POPC   C1B64963  23.794  27.791   6.455
10677POPC   C2B64964  23.735  27.813   6.755
10677POPC   C3B64965  23.815  27.843   7.055
10677POPC   C4B64966  23.797  27.820   7.355
10678POPC   NC364967   1.999  33.055   5.555
10678POPC   PO464968   2.035  33.007   5.855
10678POPC   GL164969   1.992  33.000   6.155
10678POPC   GL264970   2.046  32.920   6.155
10678POPC   C1A64971   1.981  33.023   6.455
10678POPC   D2A64972   2.010  32.994   6.755
10678POPC   C3A64973   1.959  32.994   7.055
10678POPC   C4A64974   1.963  32.991   7.355
10678POPC   C1B64975   2.177  32.788   6.455
10678POPC   C2B64976   2.122  32.798   6.755
10678POPC   C3B64977   2.172  32.828   7.055
10678POPC   C4B64978   2.126  32.843   7.355
10679POPC   NC364979  40.002  29.877   5.555
10679POPC   PO464980  40.044  29.908   5.855
10679POPC   GL164981  39.993  29.964   6.155
10679POPC   GL264982  39.981  30.060   6.155
10679POPC   C1A64983  39.988  29.900   6.455
10679POPC   D2A64984  39.959  29.950   6.755
10679POPC   C3A64985  39.967  29.897   7.055
10679POPC   C4A64986  40.054  29.895   7.355
10679POPC   C1B64987  39.856  30.183   6.455
10679POPC   C2B64988  39.904  30.178   6.755
10679POPC   C3B64989  39.900  30.171   7.055
10679POPC   C4B64990  39.933  30.096   7.355
10680POPC   NC364991   2.021  36.164   5.555
10680POPC   PO464992   2.025  36.138   5.855
10680POPC   GL164993   2.019  36.084   6.155
10680POPC   GL264994   1.907  36.111   6.155
10680POPC   C1A64995   2.036  36.132   6.455
10680POPC   D2A64996   1.994  36.093   6.755
10680POPC   C3A64997   2.026  36.111   7.055
10680POPC   C4A64998   2.034  36.136   7.355
10680POPC   C1B64999   1.775  36.091   6.455
10680POPC   C2B65000   1.691  36.171   6.755
10680POPC   C3B65001   1.714  36.154   7.055
10680POPC   C4B65002   1.757  36.188   7.355
10681POPC   NC365003  22.913  39.220   5.555
10681POPC   PO465004  22.914  39.240   5.855
10681POPC   GL165005  22.954  39.221   6.155
10681POPC   GL265006  22.825  39.158   6.155
10681POPC   C1A65007  22.976  39.253   6.455
10681POPC   D2A65008  22.940  39.185   6.755
10681POPC   C3A65009  22.925  39.249   7.055
10681POPC   C4A65010  22.936  39.219   7.355
10681POPC   C1B65011  22.744  39.080   6.455
10681POPC   C2B65012  22.808  39.070   6.755
10681POPC   C3B65013  22.742  39.086   7.055
10681POPC   C4B65014  22.803  39.028   7.355
10682POPC   NC365015   2.033  22.986   5.555
10682POPC   PO465016   2.013  22.973   5.855
10682POPC   GL165017   2.008  22.905   6.155
10682POPC   GL265018   2.089  23.017   6.155
10682POPC   C1A65019   1.994  22.916   6.455
10682POPC   D2A65020   1.999  22.910   6.755
10682POPC   C3A65021   1.989  22.909   7.055
10682POPC   C4A65022   1.993  22.971   7.355
10682POPC   C1B65023   2.201  23.101   6.455
10682POPC   C2B65024   2.189  23.077   6.755
10682POPC   C3B65025   2.214  23.071   7.055
10682POPC   C4B65026   2.221  23.121   7.355
10683POPC   NC365027  26.840   2.734   5.555
10683POPC   PO465028  26.799   2.750   5.855
10683POPC   GL165029  26.794   2.793   6.155
10683POPC   GL265030  26.780   2.676   6.155
10683POPC   C1A65031  26.783   2.716   6.455
10683POPC   D2A65032  26.840   2.755   6.755
10683POPC   C3A65033  26.849   2.718   7.055
10683POPC   C4A65034  26.801   2.795   7.355
10683POPC   C1B65035  26.699   2.559   6.455
10683POPC   C2B65036  26.669   2.541   6.755
10683POPC   C3B65037  26.657   2.581   7.055
10683POPC   C4B65038  26.670   2.599   7.355
10684POPC   NC365039  31.501  38.418   5.555
10684POPC   PO465040  31.502  38.435   5.855
10684POPC   GL165041  31.522  38.478   6.155
10684POPC   GL265042  31.330  38.545   6.155
10684POPC   C1A65043  31.437  38.465   6.455
10684POPC   D2A65044  31.432  38.443   6.755
10684POPC   C3A65045  31.501  38.459   7.055
10684POPC   C4A65046  31.454  38.442   7.355
10684POPC   C1B65047  31.276  38.517   6.455
10684POPC   C2B65048  31.248  38.495   6.755
10684POPC   C3B65049  31.286  38.579   7.055
10684POPC   C4B65050  31.196  38.510   7.355
10685POPC   NC365051   5.089  18.324   5.555
10685POPC   PO465052   5.073  18.271   5.855
10685POPC   GL165053   5.127  18.279   6.155
10685POPC   GL265054   5.173  18.254   6.155
10685POPC   C1A65055   5.069  18.253   6.455
10685POPC   D2A65056   5.088  18.245   6.755
10685POPC   C3A65057   5.099  18.284   7.055
10685POPC   C4A65058   5.120  18.288   7.355
10685POPC   C1B65059   5.367  18.310   6.455
10685POPC   C2B65060   5.337  18.291   6.755
10685POPC   C3B65061   5.373  18.337   7.055
10685POPC   C4B65062   5.322  18.329   7.355
10686POPC   NC365063   6.631  32.275   5.555
10686POPC   PO465064   6.648  32.210   5.855
10686POPC   GL165065   6.642  32.257   6.155
10686POPC   GL265066   6.661  32.151   6.155
10686POPC   C1A65067   6.601  32.254   6.455
10686POPC   D2A65068   6.608  32.244   6.755
10686POPC   C3A65069   6.679  32.231   7.055
10686POPC   C4A65070   6.611  32.291   7.355
10686POPC   C1B65071   6.730  32.007   6.455
10686POPC   C2B65072   6.771  32.017   6.755
10686POPC   C3B65073   6.727  32.064   7.055
10686POPC   C4B65074   6.747  32.039   7.355
10687POPC   NC365075   4.273  20.641   5.555
10687POPC   PO465076   4.353  20.645   5.855
10687POPC   GL165077   4.282  20.649   6.155
10687POPC   GL265078   4.170  20.674   6.155
10687POPC   C1A65079   4.315  20.592   6.455
10687POPC   D2A65080   4.345  20.591   6.755
10687POPC   C3A65081   4.279  20.638   7.055
10687POPC   C4A65082   4.354  20.645   7.355
10687POPC   C1B65083   4.129  20.754   6.455
10687POPC   C2B65084   4.054  20.701   6.755
10687POPC   C3B65085   4.078  20.674   7.055
10687POPC   C4B65086   4.095  20.708   7.355
10688POPC   NC365087   2.757   3.508   5.555
10688POPC   PO465088   2.810   3.543   5.855
10688POPC   GL165089   2.784   3.520   6.155
10688POPC   GL265090   2.863   3.456   6.155
10688POPC   C1A65091   2.727   3.496   6.455
10688POPC   D2A65092   2.779   3.501   6.755
10688POPC   C3A65093   2.767   3.515   7.055
10688POPC   C4A65094   2.761   3.499   7.355
10688POPC   C1B65095   2.998   3.381   6.455
10688POPC   C2B65096   2.930   3.436   6.755
10688POPC   C3B65097   3.022   3.374   7.055
10688POPC   C4B65098   2.947   3.409   7.355
10689POPC   NC365099   4.312  43.077   5.555
10689POPC   PO465100   4.306  43.065   5.855
10689POPC   GL165101   4.321  43.101   6.155
10689POPC   GL265102   4.379  43.196   6.155
10689POPC   C1A65103   4.366  43.113   6.455
10689POPC   D2A65104   4.339  43.155   6.755
10689POPC   C3A65105   4.287  43.061   7.055
10689POPC   C4A65106   4.330  43.128   7.355
10689POPC   C1B65107   4.550  43.265   6.455
10689POPC   C2B65108   4.484  43.225   6.755
10689POPC   C3B65109   4.505  43.297   7.055
10689POPC   C4B65110   4.518  43.273   7.355
10690POPC   NC365111   5.091  17.472   5.555
10690POPC   PO465112   5.057  17.468   5.855
10690POPC   GL165113   5.067  17.554   6.155
10690POPC   GL265114   5.150  17.622   6.155
10690POPC   C1A65115   5.056  17.479   6.455
10690POPC   D2A65116   5.133  17.491   6.755
10690POPC   C3A65117   5.075  17.511   7.055
10690POPC   C4A65118   5.069  17.492   7.355
10690POPC   C1B65119   5.240  17.644   6.455
10690POPC   C2B65120   5.230  17.646   6.755
10690POPC   C3B65121   5.228  17.714   7.055
10690POPC   C4B65122   5.256  17.673   7.355
10691POPC   NC365123  43.889  23.677   5.555
10691POPC   PO465124  43.901  23.725   5.855
10691POPC   GL165125  43.929  23.743   6.155
10691POPC   GL265126  43.906  23.804   6.155
10691POPC   C1A65127  43.864  23.748   6.455
10691POPC   D2A65128  43.903  23.714   6.755
10691POPC   C3A65129  43.868  23.707   7.055
10691POPC   C4A65130  43.887  23.746   7.355
10691POPC   C1B65131  43.871  23.936   6.455
10691POPC   C2B65132  43.953  23.977   6.755
10691POPC   C3B65133  43.914  23.947   7.055
10691POPC   C4B65134  43.931  23.957   7.355
10692POPC   NC365135   6.622  41.580   5.555
10692POPC   PO465136   6.643  41.512   5.855
10692POPC   GL165137   6.617  41.580   6.155
10692POPC   GL265138   6.789  41.548   6.155
10692POPC   C1A65139   6.617  41.527   6.455
10692POPC   D2A65140   6.618  41.601   6.755
10692POPC   C3A65141   6.606  41.514   7.055
10692POPC   C4A65142   6.670  41.514   7.355
10692POPC   C1B65143   6.895  41.611   6.455
10692POPC   C2B65144   6.896  41.572   6.755
10692POPC   C3B65145   6.922  41.544   7.055
10692POPC   C4B65146   6.900  41.545   7.355
10693POPC   NC365147   4.299  33.073   5.555
10693POPC   PO465148   4.322  33.029   5.855
10693POPC   GL165149   4.350  33.069   6.155
10693POPC   GL265150   4.274  33.118   6.155
10693POPC   C1A65151   4.341  33.045   6.455
10693POPC   D2A65152   4.322  33.044   6.755
10693POPC   C3A65153   4.282  33.052   7.055
10693POPC   C4A65154   4.318  33.016   7.355
10693POPC   C1B65155   4.197  33.226   6.455
10693POPC   C2B65156   4.229  33.253   6.755
10693POPC   C3B65157   4.230  33.233   7.055
10693POPC   C4B65158   4.262  33.264   7.355
10694POPC   NC365159   9.728  32.256   5.555
10694POPC   PO465160   9.796  32.226   5.855
10694POPC   GL165161   9.751  32.230   6.155
10694POPC   GL265162   9.659  32.105   6.155
10694POPC   C1A65163   9.767  32.284   6.455
10694POPC   D2A65164   9.726  32.269   6.755
10694POPC   C3A65165   9.743  32.290   7.055
10694POPC   C4A65166   9.760  32.278   7.355
10694POPC   C1B65167   9.621  32.059   6.455
10694POPC   C2B65168   9.593  32.047   6.755
10694POPC   C3B65169   9.624  31.985   7.055
10694POPC   C4B65170   9.654  31.991   7.355
10695POPC   NC365171  26.000  29.913   5.555
10695POPC   PO465172  26.014  29.968   5.855
10695POPC   GL165173  26.043  29.951   6.155
10695POPC   GL265174  26.002  29.761   6.155
10695POPC   C1A65175  26.023  29.903   6.455
10695POPC   D2A65176  26.068  29.876   6.755
10695POPC   C3A65177  26.018  29.923   7.055
10695POPC   C4A65178  26.091  29.926   7.355
10695POPC   C1B65179  26.016  29.655   6.455
10695POPC   C2B65180  26.016  29.717   6.755
10695POPC   C3B65181  25.942  29.667   7.055
10695POPC   C4B65182  25.948  29.629   7.355
10696POPC   NC365183  39.260  13.599   5.555
10696POPC   PO465184  39.265  13.590   5.855
10696POPC   GL165185  39.272  13.626   6.155
10696POPC   GL265186  39.340  13.520   6.155
10696POPC   C1A65187  39.228  13.601   6.455
10696POPC   D2A65188  39.244  13.672   6.755
10696POPC   C3A65189  39.213  13.592   7.055
10696POPC   C4A65190  39.225  13.652   7.355
10696POPC   C1B65191  39.439  13.492   6.455
10696POPC   C2B65192  39.475  13.462   6.755
10696POPC   C3B65193  39.413  13.462   7.055
10696POPC   C4B65194  39.420  13.518   7.355
10697POPC   NC365195  41.563   5.875   5.555
10697POPC   PO465196  41.522   5.839   5.855
10697POPC   GL165197  41.585   5.847   6.155
10697POPC   GL265198  41.474   5.768   6.155
10697POPC   C1A65199  41.586   5.870   6.455
10697POPC   D2A65200  41.512   5.858   6.755
10697POPC   C3A65201  41.605   5.860   7.055
10697POPC   C4A65202  41.533   5.905   7.355
10697POPC   C1B65203  41.503   5.617   6.455
10697POPC   C2B65204  41.516   5.647   6.755
10697POPC   C3B65205  41.486   5.674   7.055
10697POPC   C4B65206  41.460   5.611   7.355
10698POPC   NC365207  26.011   1.263   5.555
10698POPC   PO465208  26.071   1.213   5.855
10698POPC   GL165209  26.008   1.233   6.155
10698POPC   GL265210  26.044   1.296   6.155
10698POPC   C1A65211  26.078   1.230   6.455
10698POPC   D2A65212  26.009   1.183   6.755
10698POPC   C3A65213  26.057   1.257   7.055
10698POPC   C4A65214  26.049   1.227   7.355
10698POPC   C1B65215  26.014   1.467   6.455
10698POPC   C2B65216  26.009   1.461   6.755
10698POPC   C3B65217  25.994   1.489   7.055
10698POPC   C4B65218  26.053   1.419   7.355
10699POPC   NC365219  27.597  25.270   5.555
10699POPC   PO465220  27.598  25.250   5.855
10699POPC   GL165221  27.607  25.245   6.155
10699POPC   GL265222  27.563  25.396   6.155
10699POPC   C1A65223  27.591  25.299   6.455
10699POPC   D2A65224  27.612  25.291   6.755
10699POPC   C3A65225  27.594  25.245   7.055
10699POPC   C4A65226  27.554  25.247   7.355
10699POPC   C1B65227  27.394  25.476   6.455
10699POPC   C2B65228  27.396  25.448   6.755
10699POPC   C3B65229  27.398  25.497   7.055
10699POPC   C4B65230  27.397  25.504   7.355
10700POPC   NC365231  17.549  15.916   5.555
10700POPC   PO465232  17.476  15.915   5.855
10700POPC   GL165233  17.512  15.932   6.155
10700POPC   GL265234  17.350  15.888   6.155
10700POPC   C1A65235  17.476  15.971   6.455
10700POPC   D2A65236  17.467  15.958   6.755
10700POPC   C3A65237  17.512  15.964   7.055
10700POPC   C4A65238  17.489  15.925   7.355
10700POPC   C1B65239  17.288  15.904   6.455
10700POPC   C2B65240  17.292  15.871   6.755
10700POPC   C3B65241  17.265  15.884   7.055
10700POPC   C4B65242  17.230  15.904   7.355
10701POPC   NC365243   6.601  12.854   5.555
10701POPC   PO465244   6.624  12.850   5.855
10701POPC   GL165245   6.597  12.835   6.155
10701POPC   GL265246   6.642  12.693   6.155
10701POPC   C1A65247   6.668  12.834   6.455
10701POPC   D2A65248   6.656  12.865   6.755
10701POPC   C3A65249   6.633  12.858   7.055
10701POPC   C4A65250   6.611  12.865   7.355
10701POPC   C1B65251   6.592  12.597   6.455
10701POPC   C2B65252   6.569  12.660   6.755
10701POPC   C3B65253   6.563  12.578   7.055
10701POPC   C4B65254   6.527  12.581   7.355
10702POPC   NC365255   3.538   5.827   5.555
10702POPC   PO465256   3.508   5.897   5.855
10702POPC   GL165257   3.577   5.819   6.155
10702POPC   GL265258   3.552   5.785   6.155
10702POPC   C1A65259   3.587   5.886   6.455
10702POPC   D2A65260   3.571   5.899   6.755
10702POPC   C3A65261   3.494   5.890   7.055
10702POPC   C4A65262   3.539   5.843   7.355
10702POPC   C1B65263   3.572   5.587   6.455
10702POPC   C2B65264   3.645   5.646   6.755
10702POPC   C3B65265   3.614   5.658   7.055
10702POPC   C4B65266   3.630   5.639   7.355
10703POPC   NC365267  44.657  29.131   5.555
10703POPC   PO465268  44.659  29.126   5.855
10703POPC   GL165269  44.623  29.148   6.155
10703POPC   GL265270  44.746  29.286   6.155
10703POPC   C1A65271  44.672  29.193   6.455
10703POPC   D2A65272  44.641  29.191   6.755
10703POPC   C3A65273  44.640  29.188   7.055
10703POPC   C4A65274  44.706  29.157   7.355
10703POPC   C1B65275  44.801  29.316   6.455
10703POPC   C2B65276  44.850  29.358   6.755
10703POPC   C3B65277  44.806  29.384   7.055
10703POPC   C4B65278  44.780  29.299   7.355
10704POPC   NC365279   3.560  36.945   5.555
10704POPC   PO465280   3.545  36.886   5.855
10704POPC   GL165281   3.556  36.863   6.155
10704POPC   GL265282   3.441  36.843   6.155
10704POPC   C1A65283   3.581  36.936   6.455
10704POPC   D2A65284   3.541  36.912   6.755
10704POPC   C3A65285   3.539  36.944   7.055
10704POPC   C4A65286   3.519  36.931   7.355
10704POPC   C1B65287   3.415  36.678   6.455
10704POPC   C2B65288   3.404  36.683   6.755
10704POPC   C3B65289   3.403  36.688   7.055
10704POPC   C4B65290   3.405  36.670   7.355
10705POPC   NC365291  33.771   1.993   5.555
10705POPC   PO465292  33.756   1.985   5.855
10705POPC   GL165293  33.794   2.037   6.155
10705POPC   GL265294  33.843   1.891   6.155
10705POPC   C1A65295  33.753   1.969   6.455
10705POPC   D2A65296  33.783   1.986   6.755
10705POPC   C3A65297  33.781   2.027   7.055
10705POPC   C4A65298  33.759   1.998   7.355
10705POPC   C1B65299  33.972   1.787   6.455
10705POPC   C2B65300  33.991   1.771   6.755
10705POPC   C3B65301  33.933   1.836   7.055
10705POPC   C4B65302  33.902   1.781   7.355
10706POPC   NC365303   6.647   5.094   5.555
10706POPC   PO465304   6.643   5.143   5.855
10706POPC   GL165305   6.662   5.061   6.155
10706POPC   GL265306   6.667   5.220   6.155
10706POPC   C1A65307   6.655   5.050   6.455
10706POPC   D2A65308   6.637   5.133   6.755
10706POPC   C3A65309   6.674   5.091   7.055
10706POPC   C4A65310   6.615   5.045   7.355
10706POPC   C1B65311   6.601   5.348   6.455
10706POPC   C2B65312   6.626   5.294   6.755
10706POPC   C3B65313   6.629   5.383   7.055
10706POPC   C4B65314   6.689   5.348   7.355
10707POPC   NC365315  40.012  20.657   5.555
10707POPC   PO465316  40.050  20.660   5.855
10707POPC   GL165317  40.011  20.585   6.155
10707POPC   GL265318  40.137  20.500   6.155
10707POPC   C1A65319  40.037  20.564   6.455
10707POPC   D2A65320  39.966  20.651   6.755
10707POPC   C3A65321  40.052  20.615   7.055
10707POPC   C4A65322  40.049  20.636   7.355
10707POPC   C1B65323  40.238  20.470   6.455
10707POPC   C2B65324  40.210  20.460   6.755
10707POPC   C3B65325  40.225  20.492   7.055
10707POPC   C4B65326  40.190  20.436   7.355
10708POPC   NC365327   9.739   5.060   5.555
10708POPC   PO465328   9.779   5.078   5.855
10708POPC   GL165329   9.708   5.074   6.155
10708POPC   GL265330   9.834   5.037   6.155
10708POPC   C1A65331   9.746   5.070   6.455
10708POPC   D2A65332   9.772   5.050   6.755
10708POPC   C3A65333   9.745   5.068   7.055
10708POPC   C4A65334   9.769   5.050   7.355
10708POPC   C1B65335   9.936   4.919   6.455
10708POPC   C2B65336   9.867   4.848   6.755
10708POPC   C3B65337   9.875   4.851   7.055
10708POPC   C4B65338   9.904   4.908   7.355
10709POPC   NC365339  10.519  44.644   5.555
10709POPC   PO465340  10.487  44.678   5.855
10709POPC   GL165341  10.564  44.677   6.155
10709POPC   GL265342  10.684  44.675   6.155
10709POPC   C1A65343  10.507  44.651   6.455
10709POPC   D2A65344  10.570  44.671   6.755
10709POPC   C3A65345  10.479  44.636   7.055
10709POPC   C4A65346  10.546  44.615   7.355
10709POPC   C1B65347  10.740  44.591   6.455
10709POPC   C2B65348  10.774  44.558   6.755
10709POPC   C3B65349  10.742  44.634   7.055
10709POPC   C4B65350  10.766  44.563   7.355
10710POPC   NC365351  26.003   8.925   5.555
10710POPC   PO465352  26.019   9.019   5.855
10710POPC   GL165353  26.073   8.986   6.155
10710POPC   GL265354  26.010   9.113   6.155
10710POPC   C1A65355  26.053   8.942   6.455
10710POPC   D2A65356  26.035   8.941   6.755
10710POPC   C3A65357  26.020   8.944   7.055
10710POPC   C4A65358  26.041   9.004   7.355
10710POPC   C1B65359  25.850   9.149   6.455
10710POPC   C2B65360  25.855   9.205   6.755
10710POPC   C3B65361  25.934   9.132   7.055
10710POPC   C4B65362  25.916   9.130   7.355
10711POPC   NC365363  15.978   2.014   5.555
10711POPC   PO465364  15.996   1.949   5.855
10711POPC   GL165365  15.973   2.031   6.155
10711POPC   GL265366  15.843   1.944   6.155
10711POPC   C1A65367  15.960   2.000   6.455
10711POPC   D2A65368  15.974   2.012   6.755
10711POPC   C3A65369  15.924   2.030   7.055
10711POPC   C4A65370  15.953   1.988   7.355
10711POPC   C1B65371  15.815   1.835   6.455
10711POPC   C2B65372  15.789   1.822   6.755
10711POPC   C3B65373  15.811   1.814   7.055
10711POPC   C4B65374  15.747   1.781   7.355
10712POPC   NC365375   6.653  20.588   5.555
10712POPC   PO465376   6.646  20.591   5.855
10712POPC   GL165377   6.637  20.577   6.155
10712POPC   GL265378   6.675  20.730   6.155
10712POPC   C1A65379   6.679  20.607   6.455
10712POPC   D2A65380   6.673  20.655   6.755
10712POPC   C3A65381   6.605  20.596   7.055
10712POPC   C4A65382   6.628  20.572   7.355
10712POPC   C1B65383   6.779  20.818   6.455
10712POPC   C2B65384   6.753  20.791   6.755
10712POPC   C3B65385   6.702  20.880   7.055
10712POPC   C4B65386   6.738  20.816   7.355
10713POPC   NC365387  29.173  30.734   5.555
10713POPC   PO465388  29.158  30.726   5.855
10713POPC   GL165389  29.164  30.653   6.155
10713POPC   GL265390  29.249  30.697   6.155
10713POPC   C1A65391  29.195  30.704   6.455
10713POPC   D2A65392  29.164  30.685   6.755
10713POPC   C3A65393  29.176  30.733   7.055
10713POPC   C4A65394  29.132  30.711   7.355
10713POPC   C1B65395  29.433  30.727   6.455
10713POPC   C2B65396  29.362  30.722   6.755
10713POPC   C3B65397  29.427  30.746   7.055
10713POPC   C4B65398  29.400  30.746   7.355
10714POPC   NC365399  12.072  36.120   5.555
10714POPC   PO465400  12.070  36.093   5.855
10714POPC   GL165401  12.051  36.174   6.155
10714POPC   GL265402  12.154  36.172   6.155
10714POPC   C1A65403  12.085  36.129   6.455
10714POPC   D2A65404  12.030  36.155   6.755
10714POPC   C3A65405  12.107  36.116   7.055
10714POPC   C4A65406  12.108  36.082   7.355
10714POPC   C1B65407  12.233  36.313   6.455
10714POPC   C2B65408  12.232  36.320   6.755
10714POPC   C3B65409  12.310  36.317   7.055
10714POPC   C4B65410  12.304  36.277   7.355
10715POPC   NC365411  27.558  29.943   5.555
10715POPC   PO465412  27.635  29.943   5.855
10715POPC   GL165413  27.618  29.881   6.155
10715POPC   GL265414  27.679  29.848   6.155
10715POPC   C1A65415  27.643  29.886   6.455
10715POPC   D2A65416  27.567  29.966   6.755
10715POPC   C3A65417  27.633  29.931   7.055
10715POPC   C4A65418  27.588  29.909   7.355
10715POPC   C1B65419  27.684  29.651   6.455
10715POPC   C2B65420  27.662  29.698   6.755
10715POPC   C3B65421  27.701  29.674   7.055
10715POPC   C4B65422  27.673  29.735   7.355
10716POPC   NC365423  43.102   0.456   5.555
10716POPC   PO465424  43.092   0.476   5.855
10716POPC   GL165425  43.071   0.390   6.155
10716POPC   GL265426  43.131   0.547   6.155
10716POPC   C1A65427  43.066   0.389   6.455
10716POPC   D2A65428  43.135   0.430   6.755
10716POPC   C3A65429  43.159   0.431   7.055
10716POPC   C4A65430  43.146   0.473   7.355
10716POPC   C1B65431  43.212   0.666   6.455
10716POPC   C2B65432  43.227   0.681   6.755
10716POPC   C3B65433  43.142   0.694   7.055
10716POPC   C4B65434  43.166   0.682   7.355
10717POPC   NC365435  43.852  21.428   5.555
10717POPC   PO465436  43.917  21.392   5.855
10717POPC   GL165437  43.854  21.375   6.155
10717POPC   GL265438  43.864  21.233   6.155
10717POPC   C1A65439  43.854  21.353   6.455
10717POPC   D2A65440  43.862  21.398   6.755
10717POPC   C3A65441  43.870  21.359   7.055
10717POPC   C4A65442  43.839  21.401   7.355
10717POPC   C1B65443  43.965  21.177   6.455
10717POPC   C2B65444  43.876  21.127   6.755
10717POPC   C3B65445  43.898  21.096   7.055
10717POPC   C4B65446  43.901  21.187   7.355
10718POPC   NC365447   9.005  44.702   5.555
10718POPC   PO465448   8.956  44.706   5.855
10718POPC   GL165449   8.968  44.620   6.155
10718POPC   GL265450   9.053  44.762   6.155
10718POPC   C1A65451   8.995  44.696   6.455
10718POPC   D2A65452   8.972  44.685   6.755
10718POPC   C3A65453   8.942  44.620   7.055
10718POPC   C4A65454   8.924  44.712   7.355
10718POPC   C1B65455   9.090  44.895   6.455
10718POPC   C2B65456   9.078  44.874   6.755
10718POPC   C3B65457   9.145  44.853   7.055
10718POPC   C4B65458   9.082  44.925   7.355
10719POPC   NC365459  37.645  36.159   5.555
10719POPC   PO465460  37.703  36.125   5.855
10719POPC   GL165461  37.715  36.171   6.155
10719POPC   GL265462  37.613  36.011   6.155
10719POPC   C1A65463  37.719  36.095   6.455
10719POPC   D2A65464  37.652  36.130   6.755
10719POPC   C3A65465  37.641  36.176   7.055
10719POPC   C4A65466  37.697  36.100   7.355
10719POPC   C1B65467  37.560  35.928   6.455
10719POPC   C2B65468  37.647  35.914   6.755
10719POPC   C3B65469  37.599  35.840   7.055
10719POPC   C4B65470  37.633  35.933   7.355
10720POPC   NC365471  32.990  29.961   5.555
10720POPC   PO465472  33.015  29.882   5.855
10720POPC   GL165473  33.043  29.946   6.155
10720POPC   GL265474  33.157  29.936   6.155
10720POPC   C1A65475  33.060  29.965   6.455
10720POPC   D2A65476  32.988  29.936   6.755
10720POPC   C3A65477  33.052  29.937   7.055
10720POPC   C4A65478  32.996  29.881   7.355
10720POPC   C1B65479  33.253  29.915   6.455
10720POPC   C2B65480  33.285  29.994   6.755
10720POPC   C3B65481  33.316  30.006   7.055
10720POPC   C4B65482  33.313  29.947   7.355
10721POPC   NC365483  26.808  26.007   5.555
10721POPC   PO465484  26.840  26.083   5.855
10721POPC   GL165485  26.776  26.006   6.155
10721POPC   GL265486  26.820  25.947   6.155
10721POPC   C1A65487  26.835  26.088   6.455
10721POPC   D2A65488  26.774  26.032   6.755
10721POPC   C3A65489  26.779  26.085   7.055
10721POPC   C4A65490  26.841  26.061   7.355
10721POPC   C1B65491  26.888  25.814   6.455
10721POPC   C2B65492  26.823  25.821   6.755
10721POPC   C3B65493  26.823  25.784   7.055
10721POPC   C4B65494  26.808  25.783   7.355
10722POPC   NC365495  26.799  28.405   5.555
10722POPC   PO465496  26.793  28.352   5.855
10722POPC   GL165497  26.815  28.415   6.155
10722POPC   GL265498  26.904  28.387   6.155
10722POPC   C1A65499  26.829  28.364   6.455
10722POPC   D2A65500  26.783  28.407   6.755
10722POPC   C3A65501  26.847  28.352   7.055
10722POPC   C4A65502  26.861  28.358   7.355
10722POPC   C1B65503  27.019  28.530   6.455
10722POPC   C2B65504  27.039  28.543   6.755
10722POPC   C3B65505  27.002  28.472   7.055
10722POPC   C4B65506  27.039  28.551   7.355
10723POPC   NC365507  22.888  31.450   5.555
10723POPC   PO465508  22.943  31.425   5.855
10723POPC   GL165509  22.930  31.514   6.155
10723POPC   GL265510  23.046  31.518   6.155
10723POPC   C1A65511  22.897  31.471   6.455
10723POPC   D2A65512  22.919  31.459   6.755
10723POPC   C3A65513  22.911  31.462   7.055
10723POPC   C4A65514  22.919  31.485   7.355
10723POPC   C1B65515  23.167  31.583   6.455
10723POPC   C2B65516  23.169  31.579   6.755
10723POPC   C3B65517  23.145  31.613   7.055
10723POPC   C4B65518  23.106  31.622   7.355
10724POPC   NC365519   1.964  12.099   5.555
10724POPC   PO465520   2.002  12.102   5.855
10724POPC   GL165521   2.020  12.115   6.155
10724POPC   GL265522   2.107  12.149   6.155
10724POPC   C1A65523   2.023  12.047   6.455
10724POPC   D2A65524   1.978  12.121   6.755
10724POPC   C3A65525   2.025  12.095   7.055
10724POPC   C4A65526   1.984  12.028   7.355
10724POPC   C1B65527   2.262  12.185   6.455
10724POPC   C2B65528   2.204  12.140   6.755
10724POPC   C3B65529   2.242  12.124   7.055
10724POPC   C4B65530   2.246  12.110   7.355
10725POPC   NC365531  29.119  21.365   5.555
10725POPC   PO465532  29.194  21.417   5.855
10725POPC   GL165533  29.163  21.390   6.155
10725POPC   GL265534  29.048  21.365   6.155
10725POPC   C1A65535  29.174  21.423   6.455
10725POPC   D2A65536  29.138  21.435   6.755
10725POPC   C3A65537  29.150  21.360   7.055
10725POPC   C4A65538  29.135  21.415   7.355
10725POPC   C1B65539  28.851  21.418   6.455
10725POPC   C2B65540  28.894  21.455   6.755
10725POPC   C3B65541  28.851  21.415   7.055
10725POPC   C4B65542  28.908  21.472   7.355
10726POPC   NC365543  15.938  29.951   5.555
10726POPC   PO465544  15.922  29.962   5.855
10726POPC   GL165545  15.993  29.896   6.155
10726POPC   GL265546  16.069  29.870   6.155
10726POPC   C1A65547  15.968  29.936   6.455
10726POPC   D2A65548  15.911  29.943   6.755
10726POPC   C3A65549  16.003  29.911   7.055
10726POPC   C4A65550  15.967  29.890   7.355
10726POPC   C1B65551  16.218  29.859   6.455
10726POPC   C2B65552  16.170  29.847   6.755
10726POPC   C3B65553  16.176  29.851   7.055
10726POPC   C4B65554  16.228  29.862   7.355
10727POPC   NC365555  36.157  26.857   5.555
10727POPC   PO465556  36.078  26.789   5.855
10727POPC   GL165557  36.170  26.819   6.155
10727POPC   GL265558  36.168  26.913   6.155
10727POPC   C1A65559  36.130  26.782   6.455
10727POPC   D2A65560  36.148  26.821   6.755
10727POPC   C3A65561  36.157  26.797   7.055
10727POPC   C4A65562  36.155  26.785   7.355
10727POPC   C1B65563  36.282  27.036   6.455
10727POPC   C2B65564  36.239  27.023   6.755
10727POPC   C3B65565  36.290  27.016   7.055
10727POPC   C4B65566  36.217  27.010   7.355
10728POPC   NC365567  36.128  20.640   5.555
10728POPC   PO465568  36.105  20.644   5.855
10728POPC   GL165569  36.134  20.658   6.155
10728POPC   GL265570  36.008  20.568   6.155
10728POPC   C1A65571  36.123  20.652   6.455
10728POPC   D2A65572  36.159  20.619   6.755
10728POPC   C3A65573  36.078  20.649   7.055
10728POPC   C4A65574  36.080  20.627   7.355
10728POPC   C1B65575  35.959  20.424   6.455
10728POPC   C2B65576  35.946  20.477   6.755
10728POPC   C3B65577  35.977  20.418   7.055
10728POPC   C4B65578  35.919  20.426   7.355
10729POPC   NC365579  19.029   4.344   5.555
10729POPC   PO465580  19.056   4.326   5.855
10729POPC   GL165581  19.096   4.332   6.155
10729POPC   GL265582  19.057   4.448   6.155
10729POPC   C1A65583  19.050   4.340   6.455
10729POPC   D2A65584  19.103   4.286   6.755
10729POPC   C3A65585  19.087   4.285   7.055
10729POPC   C4A65586  19.064   4.353   7.355
10729POPC   C1B65587  19.017   4.530   6.455
10729POPC   C2B65588  19.070   4.615   6.755
10729POPC   C3B65589  19.059   4.566   7.055
10729POPC   C4B65590  19.077   4.612   7.355
10730POPC   NC365591   0.400   4.273   5.555
10730POPC   PO465592   0.407   4.304   5.855
10730POPC   GL165593   0.487   4.318   6.155
10730POPC   GL265594   0.516   4.458   6.155
10730POPC   C1A65595   0.438   4.324   6.455
10730POPC   D2A65596   0.425   4.352   6.755
10730POPC   C3A65597   0.392   4.320   7.055
10730POPC   C4A65598   0.442   4.355   7.355
10730POPC   C1B65599   0.552   4.524   6.455
10730POPC   C2B65600   0.542   4.531   6.755
10730POPC   C3B65601   0.620   4.498   7.055
10730POPC   C4B65602   0.581   4.559   7.355
10731POPC   NC365603  18.275   1.249   5.555
10731POPC   PO465604  18.288   1.204   5.855
10731POPC   GL165605  18.324   1.190   6.155
10731POPC   GL265606  18.419   1.215   6.155
10731POPC   C1A65607  18.312   1.196   6.455
10731POPC   D2A65608  18.272   1.174   6.755
10731POPC   C3A65609  18.304   1.242   7.055
10731POPC   C4A65610  18.236   1.246   7.355
10731POPC   C1B65611  18.522   1.152   6.455
10731POPC   C2B65612  18.527   1.195   6.755
10731POPC   C3B65613  18.571   1.126   7.055
10731POPC   C4B65614  18.554   1.144   7.355
10732POPC   NC365615   7.466   2.738   5.555
10732POPC   PO465616   7.390   2.748   5.855
10732POPC   GL165617   7.434   2.728   6.155
10732POPC   GL265618   7.379   2.845   6.155
10732POPC   C1A65619   7.408   2.741   6.455
10732POPC   D2A65620   7.410   2.772   6.755
10732POPC   C3A65621   7.460   2.815   7.055
10732POPC   C4A65622   7.403   2.779   7.355
10732POPC   C1B65623   7.295   2.976   6.455
10732POPC   C2B65624   7.211   2.929   6.755
10732POPC   C3B65625   7.233   2.915   7.055
10732POPC   C4B65626   7.241   2.912   7.355
10733POPC   NC365627  13.610  34.603   5.555
10733POPC   PO465628  13.637  34.570   5.855
10733POPC   GL165629  13.667  34.530   6.155
10733POPC   GL265630  13.509  34.531   6.155
10733POPC   C1A65631  13.665  34.576   6.455
10733POPC   D2A65632  13.629  34.621   6.755
10733POPC   C3A65633  13.591  34.619   7.055
10733POPC   C4A65634  13.648  34.568   7.355
10733POPC   C1B65635  13.438  34.420   6.455
10733POPC   C2B65636  13.438  34.450   6.755
10733POPC   C3B65637  13.376  34.434   7.055
10733POPC   C4B65638  13.449  34.477   7.355
10734POPC   NC365639   8.202   5.131   5.555
10734POPC   PO465640   8.229   5.078   5.855
10734POPC   GL165641   8.195   5.054   6.155
10734POPC   GL265642   8.219   5.194   6.155
10734POPC   C1A65643   8.241   5.063   6.455
10734POPC   D2A65644   8.167   5.138   6.755
10734POPC   C3A65645   8.179   5.051   7.055
10734POPC   C4A65646   8.232   5.073   7.355
10734POPC   C1B65647   8.251   5.371   6.455
10734POPC   C2B65648   8.217   5.367   6.755
10734POPC   C3B65649   8.270   5.305   7.055
10734POPC   C4B65650   8.294   5.290   7.355
10735POPC   NC365651   2.021  19.046   5.555
10735POPC   PO465652   1.959  19.039   5.855
10735POPC   GL165653   2.036  19.029   6.155
10735POPC   GL265654   2.119  18.961   6.155
10735POPC   C1A65655   2.011  19.054   6.455
10735POPC   D2A65656   1.983  19.009   6.755
10735POPC   C3A65657   1.986  19.062   7.055
10735POPC   C4A65658   1.941  19.020   7.355
10735POPC   C1B65659   2.228  18.904   6.455
10735POPC   C2B65660   2.255  18.919   6.755
10735POPC   C3B65661   2.205  18.959   7.055
10735POPC   C4B65662   2.216  18.977   7.355
10736POPC   NC365663   4.309   8.226   5.555
10736POPC   PO465664   4.350   8.152   5.855
10736POPC   GL165665   4.348   8.176   6.155
10736POPC   GL265666   4.310   8.321   6.155
10736POPC   C1A65667   4.303   8.184   6.455
10736POPC   D2A65668   4.319   8.210   6.755
10736POPC   C3A65669   4.329   8.195   7.055
10736POPC   C4A65670   4.314   8.173   7.355
10736POPC   C1B65671   4.220   8.409   6.455
10736POPC   C2B65672   4.215   8.426   6.755
10736POPC   C3B65673   4.181   8.462   7.055
10736POPC   C4B65674   4.200   8.467   7.355
10737POPC   NC365675  22.186  27.568   5.555
10737POPC   PO465676  22.194  27.573   5.855
10737POPC   GL165677  22.166  27.630   6.155
10737POPC   GL265678  22.182  27.444   6.155
10737POPC   C1A65679  22.182  27.606   6.455
10737POPC   D2A65680  22.144  27.642   6.755
10737POPC   C3A65681  22.148  27.544   7.055
10737POPC   C4A65682  22.152  27.602   7.355
10737POPC   C1B65683  22.191  27.342   6.455
10737POPC   C2B65684  22.191  27.329   6.755
10737POPC   C3B65685  22.134  27.296   7.055
10737POPC   C4B65686  22.221  27.365   7.355
10738POPC   NC365687  33.058   3.560   5.555
10738POPC   PO465688  32.977   3.504   5.855
10738POPC   GL165689  33.026   3.536   6.155
10738POPC   GL265690  33.183   3.599   6.155
10738POPC   C1A65691  32.996   3.515   6.455
10738POPC   D2A65692  32.988   3.561   6.755
10738POPC   C3A65693  33.067   3.564   7.055
10738POPC   C4A65694  32.996   3.514   7.355
10738POPC   C1B65695  33.276   3.672   6.455
10738POPC   C2B65696  33.244   3.607   6.755
10738POPC   C3B65697  33.298   3.651   7.055
10738POPC   C4B65698  33.253   3.641   7.355
10739POPC   NC365699   9.755   3.497   5.555
10739POPC   PO465700   9.700   3.495   5.855
10739POPC   GL165701   9.760   3.587   6.155
10739POPC   GL265702   9.798   3.596   6.155
10739POPC   C1A65703   9.789   3.589   6.455
10739POPC   D2A65704   9.794   3.575   6.755
10739POPC   C3A65705   9.719   3.527   7.055
10739POPC   C4A65706   9.727   3.575   7.355
10739POPC   C1B65707   9.924   3.762   6.455
10739POPC   C2B65708   9.875   3.722   6.755
10739POPC   C3B65709   9.944   3.756   7.055
10739POPC   C4B65710   9.885   3.701   7.355
10740POPC   NC365711  30.678  36.100   5.555
10740POPC   PO465712  30.721  36.144   5.855
10740POPC   GL165713  30.677  36.139   6.155
10740POPC   GL265714  30.698  36.026   6.155
10740POPC   C1A65715  30.680  36.153   6.455
10740POPC   D2A65716  30.687  36.174   6.755
10740POPC   C3A65717  30.704  36.106   7.055
10740POPC   C4A65718  30.723  36.082   7.355
10740POPC   C1B65719  30.697  35.849   6.455
10740POPC   C2B65720  30.696  35.904   6.755
10740POPC   C3B65721  30.680  35.929   7.055
10740POPC   C4B65722  30.681  35.834   7.355
10741POPC   NC365723  40.799  31.483   5.555
10741POPC   PO465724  40.808  31.425   5.855
10741POPC   GL165725  40.781  31.456   6.155
10741POPC   GL265726  40.907  31.516   6.155
10741POPC   C1A65727  40.823  31.517   6.455
10741POPC   D2A65728  40.810  31.473   6.755
10741POPC   C3A65729  40.818  31.470   7.055
10741POPC   C4A65730  40.733  31.515   7.355
10741POPC   C1B65731  40.975  31.611   6.455
10741POPC   C2B65732  40.967  31.680   6.755
10741POPC   C3B65733  40.954  31.638   7.055
10741POPC   C4B65734  40.966  31.697   7.355
10742POPC   NC365735  26.081  43.127   5.555
10742POPC   PO465736  26.014  43.121   5.855
10742POPC   GL165737  26.066  43.106   6.155
10742POPC   GL265738  26.016  42.983   6.155
10742POPC   C1A65739  26.047  43.071   6.455
10742POPC   D2A65740  26.047  43.121   6.755
10742POPC   C3A65741  26.045  43.155   7.055
10742POPC   C4A65742  26.002  43.140   7.355
10742POPC   C1B65743  26.024  42.863   6.455
10742POPC   C2B65744  26.002  42.839   6.755
10742POPC   C3B65745  25.980  42.823   7.055
10742POPC   C4B65746  26.022  42.902   7.355
10743POPC   NC365747  32.287  40.770   5.555
10743POPC   PO465748  32.244  40.787   5.855
10743POPC   GL165749  32.275  40.786   6.155
10743POPC   GL265750  32.316  40.687   6.155
10743POPC   C1A65751  32.259  40.749   6.455
10743POPC   D2A65752  32.278  40.819   6.755
10743POPC   C3A65753  32.255  40.812   7.055
10743POPC   C4A65754  32.236  40.753   7.355
10743POPC   C1B65755  32.507  40.641   6.455
10743POPC   C2B65756  32.434  40.645   6.755
10743POPC   C3B65757  32.492  40.654   7.055
10743POPC   C4B65758  32.472  40.654   7.355
10744POPC   NC365759  15.209   2.760   5.555
10744POPC   PO465760  15.209   2.813   5.855
10744POPC   GL165761  15.218   2.795   6.155
10744POPC   GL265762  15.073   2.681   6.155
10744POPC   C1A65763  15.134   2.723   6.455
10744POPC   D2A65764  15.217   2.798   6.755
10744POPC   C3A65765  15.205   2.786   7.055
10744POPC   C4A65766  15.168   2.724   7.355
10744POPC   C1B65767  14.978   2.568   6.455
10744POPC   C2B65768  14.954   2.568   6.755
10744POPC   C3B65769  15.042   2.602   7.055
10744POPC   C4B65770  14.968   2.581   7.355
10745POPC   NC365771  28.341  10.511   5.555
10745POPC   PO465772  28.418  10.549   5.855
10745POPC   GL165773  28.321  10.493   6.155
10745POPC   GL265774  28.465  10.506   6.155
10745POPC   C1A65775  28.365  10.543   6.455
10745POPC   D2A65776  28.403  10.555   6.755
10745POPC   C3A65777  28.399  10.521   7.055
10745POPC   C4A65778  28.324  10.493   7.355
10745POPC   C1B65779  28.598  10.540   6.455
10745POPC   C2B65780  28.664  10.484   6.755
10745POPC   C3B65781  28.593  10.513   7.055
10745POPC   C4B65782  28.588  10.514   7.355
10746POPC   NC365783  19.032  18.322   5.555
10746POPC   PO465784  19.085  18.273   5.855
10746POPC   GL165785  19.105  18.260   6.155
10746POPC   GL265786  19.229  18.303   6.155
10746POPC   C1A65787  19.020  18.272   6.455
10746POPC   D2A65788  19.088  18.267   6.755
10746POPC   C3A65789  19.042  18.310   7.055
10746POPC   C4A65790  19.024  18.249   7.355
10746POPC   C1B65791  19.299  18.335   6.455
10746POPC   C2B65792  19.254  18.311   6.755
10746POPC   C3B65793  19.257  18.320   7.055
10746POPC   C4B65794  19.338  18.350   7.355
10747POPC   NC365795   6.647   1.187   5.555
10747POPC   PO465796   6.652   1.228   5.855
10747POPC   GL165797   6.692   1.261   6.155
10747POPC   GL265798   6.508   1.145   6.155
10747POPC   C1A65799   6.610   1.202   6.455
10747POPC   D2A65800   6.656   1.243   6.755
10747POPC   C3A65801   6.614   1.246   7.055
10747POPC   C4A65802   6.685   1.259   7.355
10747POPC   C1B65803   6.448   1.094   6.455
10747POPC   C2B65804   6.485   1.020   6.755
10747POPC   C3B65805   6.481   1.093   7.055
10747POPC   C4B65806   6.506   1.024   7.355
10748POPC   NC365807   8.929  12.051   5.555
10748POPC   PO465808   8.970  12.095   5.855
10748POPC   GL165809   9.006  12.074   6.155
10748POPC   GL265810   8.804  12.077   6.155
10748POPC   C1A65811   8.932  12.027   6.455
10748POPC   D2A65812   8.941  12.061   6.755
10748POPC   C3A65813   8.962  12.065   7.055
10748POPC   C4A65814   8.984  12.031   7.355
10748POPC   C1B65815   8.765  12.115   6.455
10748POPC   C2B65816   8.717  12.099   6.755
10748POPC   C3B65817   8.733  12.165   7.055
10748POPC   C4B65818   8.695  12.159   7.355
10749POPC   NC365819  43.894  14.390   5.555
10749POPC   PO465820  43.868  14.392   5.855
10749POPC   GL165821  43.935  14.359   6.155
10749POPC   GL265822  43.934  14.510   6.155
10749POPC   C1A65823  43.904  14.369   6.455
10749POPC   D2A65824  43.920  14.395   6.755
10749POPC   C3A65825  43.853  14.431   7.055
10749POPC   C4A65826  43.850  14.407   7.355
10749POPC   C1B65827  44.085  14.541   6.455
10749POPC   C2B65828  44.096  14.569   6.755
10749POPC   C3B65829  44.024  14.563   7.055
10749POPC   C4B65830  44.021  14.527   7.355
10750POPC   NC365831  20.576  33.067   5.555
10750POPC   PO465832  20.611  33.021   5.855
10750POPC   GL165833  20.590  32.978   6.155
10750POPC   GL265834  20.710  32.996   6.155
10750POPC   C1A65835  20.649  33.029   6.455
10750POPC   D2A65836  20.619  32.975   6.755
10750POPC   C3A65837  20.601  32.975   7.055
10750POPC   C4A65838  20.646  33.069   7.355
10750POPC   C1B65839  20.886  33.034   6.455
10750POPC   C2B65840  20.840  32.969   6.755
10750POPC   C3B65841  20.892  32.985   7.055
10750POPC   C4B65842  20.870  32.953   7.355
10751POPC   NC365843  35.316  43.925   5.555
10751POPC   PO465844  35.372  43.890   5.855
10751POPC   GL165845  35.320  43.915   6.155
10751POPC   GL265846  35.503  43.868   6.155
10751POPC   C1A65847  35.344  43.855   6.455
10751POPC   D2A65848  35.320  43.868   6.755
10751POPC   C3A65849  35.382  43.849   7.055
10751POPC   C4A65850  35.334  43.893   7.355
10751POPC   C1B65851  35.622  43.851   6.455
10751POPC   C2B65852  35.629  43.803   6.755
10751POPC   C3B65853  35.589  43.889   7.055
10751POPC   C4B65854  35.611  43.843   7.355
10752POPC   NC365855   1.199  24.513   5.555
10752POPC   PO465856   1.217  24.445   5.855
10752POPC   GL165857   1.210  24.471   6.155
10752POPC   GL265858   1.090  24.531   6.155
10752POPC   C1A65859   1.182  24.473   6.455
10752POPC   D2A65860   1.233  24.516   6.755
10752POPC   C3A65861   1.166  24.522   7.055
10752POPC   C4A65862   1.223  24.483   7.355
10752POPC   C1B65863   0.919  24.570   6.455
10752POPC   C2B65864   1.010  24.554   6.755
10752POPC   C3B65865   0.974  24.503   7.055
10752POPC   C4B65866   0.954  24.547   7.355
10753POPC   NC365867  30.660  41.607   5.555
10753POPC   PO465868  30.676  41.574   5.855
10753POPC   GL165869  30.687  41.578   6.155
10753POPC   GL265870  30.760  41.635   6.155
10753POPC   C1A65871  30.725  41.605   6.455
10753POPC   D2A65872  30.724  41.530   6.755
10753POPC   C3A65873  30.686  41.571   7.055
10753POPC   C4A65874  30.671  41.581   7.355
10753POPC   C1B65875  30.764  41.746   6.455
10753POPC   C2B65876  30.754  41.748   6.755
10753POPC   C3B65877  30.819  41.832   7.055
10753POPC   C4B65878  30.747  41.832   7.355
10754POPC   NC365879  35.369  37.707   5.555
10754POPC   PO465880  35.390  37.660   5.855
10754POPC   GL165881  35.373  37.718   6.155
10754POPC   GL265882  35.291  37.772   6.155
10754POPC   C1A65883  35.378  37.711   6.455
10754POPC   D2A65884  35.395  37.672   6.755
10754POPC   C3A65885  35.344  37.706   7.055
10754POPC   C4A65886  35.370  37.689   7.355
10754POPC   C1B65887  35.304  37.882   6.455
10754POPC   C2B65888  35.350  37.958   6.755
10754POPC   C3B65889  35.312  37.932   7.055
10754POPC   C4B65890  35.362  37.920   7.355
10755POPC   NC365891   3.524  14.425   5.555
10755POPC   PO465892   3.566  14.363   5.855
10755POPC   GL165893   3.534  14.393   6.155
10755POPC   GL265894   3.385  14.374   6.155
10755POPC   C1A65895   3.515  14.376   6.455
10755POPC   D2A65896   3.529  14.452   6.755
10755POPC   C3A65897   3.550  14.380   7.055
10755POPC   C4A65898   3.590  14.394   7.355
10755POPC   C1B65899   3.288  14.370   6.455
10755POPC   C2B65900   3.316  14.359   6.755
10755POPC   C3B65901   3.270  14.371   7.055
10755POPC   C4B65902   3.325  14.341   7.355
10756POPC   NC365903  13.657  15.919   5.555
10756POPC   PO465904  13.589  15.995   5.855
10756POPC   GL165905  13.664  15.960   6.155
10756POPC   GL265906  13.464  15.957   6.155
10756POPC   C1A65907  13.605  15.979   6.455
10756POPC   D2A65908  13.632  15.969   6.755
10756POPC   C3A65909  13.636  15.921   7.055
10756POPC   C4A65910  13.625  15.958   7.355
10756POPC   C1B65911  13.412  15.964   6.455
10756POPC   C2B65912  13.367  15.912   6.755
10756POPC   C3B65913  13.419  15.924   7.055
10756POPC   C4B65914  13.420  15.917   7.355
10757POPC   NC365915   5.108  35.343   5.555
10757POPC   PO465916   5.102  35.354   5.855
10757POPC   GL165917   5.140  35.344   6.155
10757POPC   GL265918   5.033  35.422   6.155
10757POPC   C1A65919   5.118  35.398   6.455
10757POPC   D2A65920   5.076  35.310   6.755
10757POPC   C3A65921   5.055  35.333   7.055
10757POPC   C4A65922   5.064  35.324   7.355
10757POPC   C1B65923   4.977  35.619   6.455
10757POPC   C2B65924   5.046  35.563   6.755
10757POPC   C3B65925   5.041  35.576   7.055
10757POPC   C4B65926   5.004  35.559   7.355
10758POPC   NC365927  11.304  23.687   5.555
10758POPC   PO465928  11.317  23.684   5.855
10758POPC   GL165929  11.332  23.686   6.155
10758POPC   GL265930  11.408  23.696   6.155
10758POPC   C1A65931  11.251  23.760   6.455
10758POPC   D2A65932  11.328  23.730   6.755
10758POPC   C3A65933  11.311  23.758   7.055
10758POPC   C4A65934  11.254  23.759   7.355
10758POPC   C1B65935  11.571  23.639   6.455
10758POPC   C2B65936  11.502  23.584   6.755
10758POPC   C3B65937  11.583  23.638   7.055
10758POPC   C4B65938  11.573  23.637   7.355
10759POPC   NC365939  11.341  21.352   5.555
10759POPC   PO465940  11.255  21.349   5.855
10759POPC   GL165941  11.345  21.426   6.155
10759POPC   GL265942  11.424  21.337   6.155
10759POPC   C1A65943  11.341  21.396   6.455
10759POPC   D2A65944  11.332  21.420   6.755
10759POPC   C3A65945  11.327  21.422   7.055
10759POPC   C4A65946  11.342  21.419   7.355
10759POPC   C1B65947  11.521  21.240   6.455
10759POPC   C2B65948  11.446  21.173   6.755
10759POPC   C3B65949  11.518  21.216   7.055
10759POPC   C4B65950  11.438  21.185   7.355
10760POPC   NC365951   2.776  19.046   5.555
10760POPC   PO465952   2.761  19.061   5.855
10760POPC   GL165953   2.811  19.107   6.155
10760POPC   GL265954   2.667  18.981   6.155
10760POPC   C1A65955   2.764  19.066   6.455
10760POPC   D2A65956   2.741  19.060   6.755
10760POPC   C3A65957   2.739  19.060   7.055
10760POPC   C4A65958   2.798  19.015   7.355
10760POPC   C1B65959   2.624  18.935   6.455
10760POPC   C2B65960   2.594  18.931   6.755
10760POPC   C3B65961   2.545  18.890   7.055
10760POPC   C4B65962   2.585  18.865   7.355
10761POPC   NC365963  34.538   2.803   5.555
10761POPC   PO465964  34.536   2.804   5.855
10761POPC   GL165965  34.527   2.745   6.155
10761POPC   GL265966  34.630   2.633   6.155
10761POPC   C1A65967  34.538   2.814   6.455
10761POPC   D2A65968  34.577   2.746   6.755
10761POPC   C3A65969  34.536   2.799   7.055
10761POPC   C4A65970  34.533   2.743   7.355
10761POPC   C1B65971  34.607   2.544   6.455
10761POPC   C2B65972  34.544   2.500   6.755
10761POPC   C3B65973  34.596   2.547   7.055
10761POPC   C4B65974  34.550   2.526   7.355
10762POPC   NC365975   8.235   1.248   5.555
10762POPC   PO465976   8.194   1.192   5.855
10762POPC   GL165977   8.169   1.206   6.155
10762POPC   GL265978   8.133   1.338   6.155
10762POPC   C1A65979   8.184   1.263   6.455
10762POPC   D2A65980   8.231   1.178   6.755
10762POPC   C3A65981   8.232   1.184   7.055
10762POPC   C4A65982   8.204   1.210   7.355
10762POPC   C1B65983   8.071   1.383   6.455
10762POPC   C2B65984   8.023   1.391   6.755
10762POPC   C3B65985   8.038   1.417   7.055
10762POPC   C4B65986   8.056   1.477   7.355
10763POPC   NC365987  39.255  19.095   5.555
10763POPC   PO465988  39.243  19.060   5.855
10763POPC   GL165989  39.255  19.012   6.155
10763POPC   GL265990  39.283  19.147   6.155
10763POPC   C1A65991  39.258  19.042   6.455
10763POPC   D2A65992  39.229  19.094   6.755
10763POPC   C3A65993  39.259  19.015   7.055
10763POPC   C4A65994  39.241  19.015   7.355
10763POPC   C1B65995  39.352  19.275   6.455
10763POPC   C2B65996  39.350  19.276   6.755
10763POPC   C3B65997  39.352  19.259   7.055
10763POPC   C4B65998  39.404  19.296   7.355
10764POPC   NC365999   3.557  12.123   5.555
10764POPC   PO466000   3.526  12.042   5.855
10764POPC   GL166001   3.565  12.092   6.155
10764POPC   GL266002   3.661  12.021   6.155
10764POPC   C1A66003   3.554  12.121   6.455
10764POPC   D2A66004   3.571  12.032   6.755
10764POPC   C3A66005   3.499  12.086   7.055
10764POPC   C4A66006   3.533  12.052   7.355
10764POPC   C1B66007   3.804  11.943   6.455
10764POPC   C2B66008   3.718  11.920   6.755
10764POPC   C3B66009   3.712  11.973   7.055
10764POPC   C4B66010   3.708  11.940   7.355
10765POPC   NC366011  41.595  20.656   5.555
10765POPC   PO466012  41.512  20.616   5.855
10765POPC   GL166013  41.554  20.645   6.155
10765POPC   GL266014  41.721  20.648   6.155
10765POPC   C1A66015  41.606  20.626   6.455
10765POPC   D2A66016  41.605  20.636   6.755
10765POPC   C3A66017  41.599  20.618   7.055
10765POPC   C4A66018  41.520  20.624   7.355
10765POPC   C1B66019  41.809  20.642   6.455
10765POPC   C2B66020  41.800  20.649   6.755
10765POPC   C3B66021  41.802  20.629   7.055
10765POPC   C4B66022  41.843  20.641   7.355
10766POPC   NC366023  21.426  35.332   5.555
10766POPC   PO466024  21.354  35.328   5.855
10766POPC   GL166025  21.357  35.362   6.155
10766POPC   GL266026  21.256  35.395   6.155
10766POPC   C1A66027  21.352  35.337   6.455
10766POPC   D2A66028  21.434  35.311   6.755
10766POPC   C3A66029  21.356  35.338   7.055
10766POPC   C4A66030  21.380  35.321   7.355
10766POPC   C1B66031  21.164  35.353   6.455
10766POPC   C2B66032  21.121  35.408   6.755
10766POPC   C3B66033  21.122  35.336   7.055
10766POPC   C4B66034  21.136  35.398   7.355
10767POPC   NC366035   9.736  16.753   5.555
10767POPC   PO466036   9.797  16.706   5.855
10767POPC   GL166037   9.794  16.744   6.155
10767POPC   GL266038   9.659  16.668   6.155
10767POPC   C1A66039   9.699  16.685   6.455
10767POPC   D2A66040   9.735  16.712   6.755
10767POPC   C3A66041   9.793  16.776   7.055
10767POPC   C4A66042   9.793  16.752   7.355
10767POPC   C1B66043   9.549  16.581   6.455
10767POPC   C2B66044   9.551  16.539   6.755
10767POPC   C3B66045   9.555  16.512   7.055
10767POPC   C4B66046   9.601  16.487   7.355
10768POPC   NC366047  36.086  40.041   5.555
10768POPC   PO466048  36.084  39.972   5.855
10768POPC   GL166049  36.114  40.044   6.155
10768POPC   GL266050  36.218  39.883   6.155
10768POPC   C1A66051  36.165  40.036   6.455
10768POPC   D2A66052  36.133  40.043   6.755
10768POPC   C3A66053  36.094  39.996   7.055
10768POPC   C4A66054  36.123  40.026   7.355
10768POPC   C1B66055  36.220  39.814   6.455
10768POPC   C2B66056  36.254  39.805   6.755
10768POPC   C3B66057  36.271  39.789   7.055
10768POPC   C4B66058  36.310  39.755   7.355
10769POPC   NC366059  24.501  41.581   5.555
10769POPC   PO466060  24.446  41.562   5.855
10769POPC   GL166061  24.511  41.523   6.155
10769POPC   GL266062  24.583  41.662   6.155
10769POPC   C1A66063  24.467  41.607   6.455
10769POPC   D2A66064  24.449  41.533   6.755
10769POPC   C3A66065  24.453  41.587   7.055
10769POPC   C4A66066  24.459  41.532   7.355
10769POPC   C1B66067  24.579  41.772   6.455
10769POPC   C2B66068  24.571  41.832   6.755
10769POPC   C3B66069  24.640  41.824   7.055
10769POPC   C4B66070  24.582  41.752   7.355
10770POPC   NC366071  34.556  35.344   5.555
10770POPC   PO466072  34.623  35.325   5.855
10770POPC   GL166073  34.609  35.364   6.155
10770POPC   GL266074  34.448  35.302   6.155
10770POPC   C1A66075  34.564  35.367   6.455
10770POPC   D2A66076  34.584  35.351   6.755
10770POPC   C3A66077  34.568  35.378   7.055
10770POPC   C4A66078  34.584  35.316   7.355
10770POPC   C1B66079  34.308  35.296   6.455
10770POPC   C2B66080  34.308  35.247   6.755
10770POPC   C3B66081  34.353  35.265   7.055
10770POPC   C4B66082  34.334  35.267   7.355
10771POPC   NC366083  36.142  38.435   5.555
10771POPC   PO466084  36.098  38.437   5.855
10771POPC   GL166085  36.124  38.463   6.155
10771POPC   GL266086  36.192  38.378   6.155
10771POPC   C1A66087  36.117  38.442   6.455
10771POPC   D2A66088  36.133  38.441   6.755
10771POPC   C3A66089  36.100  38.435   7.055
10771POPC   C4A66090  36.139  38.417   7.355
10771POPC   C1B66091  36.254  38.286   6.455
10771POPC   C2B66092  36.240  38.210   6.755
10771POPC   C3B66093  36.243  38.207   7.055
10771POPC   C4B66094  36.239  38.290   7.355
10772POPC   NC366095  23.691  17.507   5.555
10772POPC   PO466096  23.686  17.541   5.855
10772POPC   GL166097  23.682  17.530   6.155
10772POPC   GL266098  23.619  17.374   6.155
10772POPC   C1A66099  23.669  17.531   6.455
10772POPC   D2A66100  23.712  17.516   6.755
10772POPC   C3A66101  23.687  17.480   7.055
10772POPC   C4A66102  23.760  17.554   7.355
10772POPC   C1B66103  23.526  17.380   6.455
10772POPC   C2B66104  23.489  17.361   6.755
10772POPC   C3B66105  23.493  17.290   7.055
10772POPC   C4B66106  23.510  17.367   7.355
10773POPC   NC366107  43.125  34.610   5.555
10773POPC   PO466108  43.082  34.612   5.855
10773POPC   GL166109  43.093  34.602   6.155
10773POPC   GL266110  43.028  34.645   6.155
10773POPC   C1A66111  43.157  34.561   6.455
10773POPC   D2A66112  43.139  34.560   6.755
10773POPC   C3A66113  43.084  34.544   7.055
10773POPC   C4A66114  43.159  34.543   7.355
10773POPC   C1B66115  43.022  34.753   6.455
10773POPC   C2B66116  43.008  34.820   6.755
10773POPC   C3B66117  43.011  34.769   7.055
10773POPC   C4B66118  43.010  34.796   7.355
10774POPC   NC366119  28.415  16.704   5.555
10774POPC   PO466120  28.332  16.723   5.855
10774POPC   GL166121  28.383  16.767   6.155
10774POPC   GL266122  28.330  16.625   6.155
10774POPC   C1A66123  28.326  16.720   6.455
10774POPC   D2A66124  28.335  16.751   6.755
10774POPC   C3A66125  28.396  16.760   7.055
10774POPC   C4A66126  28.398  16.778   7.355
10774POPC   C1B66127  28.280  16.491   6.455
10774POPC   C2B66128  28.240  16.451   6.755
10774POPC   C3B66129  28.280  16.491   7.055
10774POPC   C4B66130  28.269  16.525   7.355
10775POPC   NC366131  39.221  41.562   5.555
10775POPC   PO466132  39.272  41.518   5.855
10775POPC   GL166133  39.264  41.552   6.155
10775POPC   GL266134  39.106  41.553   6.155
10775POPC   C1A66135  39.270  41.511   6.455
10775POPC   D2A66136  39.200  41.588   6.755
10775POPC   C3A66137  39.185  41.566   7.055
10775POPC   C4A66138  39.276  41.594   7.355
10775POPC   C1B66139  38.981  41.670   6.455
10775POPC   C2B66140  38.982  41.604   6.755
10775POPC   C3B66141  39.028  41.645   7.055
10775POPC   C4B66142  39.022  41.585   7.355
10776POPC   NC366143  25.224   6.630   5.555
10776POPC   PO466144  25.309   6.658   5.855
10776POPC   GL166145  25.291   6.679   6.155
10776POPC   GL266146  25.383   6.591   6.155
10776POPC   C1A66147  25.275   6.596   6.455
10776POPC   D2A66148  25.298   6.627   6.755
10776POPC   C3A66149  25.287   6.647   7.055
10776POPC   C4A66150  25.221   6.676   7.355
10776POPC   C1B66151  25.418   6.422   6.455
10776POPC   C2B66152  25.412   6.438   6.755
10776POPC   C3B66153  25.382   6.430   7.055
10776POPC   C4B66154  25.450   6.392   7.355
10777POPC   NC366155  36.949  28.362   5.555
10777POPC   PO466156  36.917  28.359   5.855
10777POPC   GL166157  36.888  28.347   6.155
10777POPC   GL266158  36.904  28.218   6.155
10777POPC   C1A66159  36.869  28.375   6.455
10777POPC   D2A66160  36.950  28.328   6.755
10777POPC   C3A66161  36.916  28.371   7.055
10777POPC   C4A66162  36.857  28.371   7.355
10777POPC   C1B66163  36.831  28.090   6.455
10777POPC   C2B66164  36.820  28.165   6.755
10777POPC   C3B66165  36.848  28.125   7.055
10777POPC   C4B66166  36.821  28.148   7.355
10778POPC   NC366167  12.064   0.414   5.555
10778POPC   PO466168  12.031   0.400   5.855
10778POPC   GL166169  12.049   0.462   6.155
10778POPC   GL266170  11.954   0.357   6.155
10778POPC   C1A66171  12.101   0.449   6.455
10778POPC   D2A66172  12.113   0.457   6.755
10778POPC   C3A66173  12.109   0.389   7.055
10778POPC   C4A66174  12.122   0.419   7.355
10778POPC   C1B66175  11.908   0.288   6.455
10778POPC   C2B66176  11.838   0.267   6.755
10778POPC   C3B66177  11.893   0.261   7.055
10778POPC   C4B66178  11.831   0.294   7.355
10779POPC   NC366179  26.785  31.449   5.555
10779POPC   PO466180  26.801  31.506   5.855
10779POPC   GL166181  26.827  31.497   6.155
10779POPC   GL266182  26.893  31.505   6.155
10779POPC   C1A66183  26.861  31.485   6.455
10779POPC   D2A66184  26.774  31.513   6.755
10779POPC   C3A66185  26.862  31.504   7.055
10779POPC   C4A66186  26.806  31.502   7.355
10779POPC   C1B66187  27.057  31.553   6.455
10779POPC   C2B66188  27.071  31.517   6.755
10779POPC   C3B66189  27.067  31.564   7.055
10779POPC   C4B66190  27.036  31.550   7.355
10780POPC   NC366191   6.662  16.740   5.555
10780POPC   PO466192   6.639  16.763   5.855
10780POPC   GL166193   6.618  16.682   6.155
10780POPC   GL266194   6.657  16.606   6.155
10780POPC   C1A66195   6.623  16.737   6.455
10780POPC   D2A66196   6.622  16.763   6.755
10780POPC   C3A66197   6.644  16.780   7.055
10780POPC   C4A66198   6.609  16.700   7.355
10780POPC   C1B66199   6.692  16.458   6.455
10780POPC   C2B66200   6.747  16.536   6.755
10780POPC   C3B66201   6.745  16.527   7.055
10780POPC   C4B66202   6.680  16.469   7.355
10781POPC   NC366203  26.073  38.465   5.555
10781POPC   PO466204  26.056  38.407   5.855
10781POPC   GL166205  26.086  38.455   6.155
10781POPC   GL266206  25.961  38.441   6.155
10781POPC   C1A66207  26.061  38.467   6.455
10781POPC   D2A66208  26.084  38.479   6.755
10781POPC   C3A66209  26.038  38.446   7.055
10781POPC   C4A66210  26.003  38.492   7.355
10781POPC   C1B66211  25.788  38.546   6.455
10781POPC   C2B66212  25.827  38.467   6.755
10781POPC   C3B66213  25.768  38.527   7.055
10781POPC   C4B66214  25.769  38.547   7.355
10782POPC   NC366215   1.991  21.408   5.555
10782POPC   PO466216   1.962  21.420   5.855
10782POPC   GL166217   1.976  21.428   6.155
10782POPC   GL266218   1.882  21.437   6.155
10782POPC   C1A66219   1.978  21.412   6.455
10782POPC   D2A66220   2.001  21.374   6.755
10782POPC   C3A66221   1.988  21.391   7.055
10782POPC   C4A66222   2.014  21.340   7.355
10782POPC   C1B66223   1.738  21.440   6.455
10782POPC   C2B66224   1.720  21.511   6.755
10782POPC   C3B66225   1.780  21.419   7.055
10782POPC   C4B66226   1.771  21.457   7.355
10783POPC   NC366227  32.272   1.174   5.555
10783POPC   PO466228  32.252   1.181   5.855
10783POPC   GL166229  32.261   1.173   6.155
10783POPC   GL266230  32.313   1.320   6.155
10783POPC   C1A66231  32.236   1.226   6.455
10783POPC   D2A66232  32.286   1.213   6.755
10783POPC   C3A66233  32.212   1.217   7.055
10783POPC   C4A66234  32.273   1.221   7.355
10783POPC   C1B66235  32.361   1.398   6.455
10783POPC   C2B66236  32.364   1.420   6.755
10783POPC   C3B66237  32.406   1.367   7.055
10783POPC   C4B66238  32.442   1.387   7.355
10784POPC   NC366239   3.587  39.244   5.555
10784POPC   PO466240   3.530  39.182   5.855
10784POPC   GL166241   3.561  39.182   6.155
10784POPC   GL266242   3.664  39.122   6.155
10784POPC   C1A66243   3.521  39.183   6.455
10784POPC   D2A66244   3.517  39.194   6.755
10784POPC   C3A66245   3.538  39.228   7.055
10784POPC   C4A66246   3.586  39.223   7.355
10784POPC   C1B66247   3.702  39.088   6.455
10784POPC   C2B66248   3.711  39.044   6.755
10784POPC   C3B66249   3.762  39.035   7.055
10784POPC   C4B66250   3.699  39.060   7.355
10785POPC   NC366251   0.397  19.104   5.555
10785POPC   PO466252   0.396  19.055   5.855
10785POPC   GL166253   0.474  19.043   6.155
10785POPC   GL266254   0.353  19.029   6.155
10785POPC   C1A66255   0.397  19.037   6.455
10785POPC   D2A66256   0.431  19.093   6.755
10785POPC   C3A66257   0.455  19.046   7.055
10785POPC   C4A66258   0.481  19.064   7.355
10785POPC   C1B66259   0.219  18.953   6.455
10785POPC   C2B66260   0.191  18.947   6.755
10785POPC   C3B66261   0.186  18.889   7.055
10785POPC   C4B66262   0.253  18.893   7.355
10786POPC   NC366263  43.124  19.836   5.555
10786POPC   PO466264  43.073  19.834   5.855
10786POPC   GL166265  43.080  19.836   6.155
10786POPC   GL266266  43.061  19.734   6.155
10786POPC   C1A66267  43.094  19.825   6.455
10786POPC   D2A66268  43.104  19.868   6.755
10786POPC   C3A66269  43.097  19.872   7.055
10786POPC   C4A66270  43.154  19.818   7.355
10786POPC   C1B66271  42.996  19.589   6.455
10786POPC   C2B66272  43.024  19.638   6.755
10786POPC   C3B66273  42.992  19.575   7.055
10786POPC   C4B66274  43.042  19.651   7.355
10787POPC   NC366275   2.772   4.329   5.555
10787POPC   PO466276   2.781   4.341   5.855
10787POPC   GL166277   2.770   4.344   6.155
10787POPC   GL266278   2.933   4.370   6.155
10787POPC   C1A66279   2.730   4.333   6.455
10787POPC   D2A66280   2.807   4.332   6.755
10787POPC   C3A66281   2.747   4.353   7.055
10787POPC   C4A66282   2.758   4.301   7.355
10787POPC   C1B66283   3.027   4.386   6.455
10787POPC   C2B66284   2.969   4.395   6.755
10787POPC   C3B66285   2.974   4.428   7.055
10787POPC   C4B66286   3.019   4.376   7.355
10788POPC   NC366287  38.488  19.831   5.555
10788POPC   PO466288  38.482  19.859   5.855
10788POPC   GL166289  38.480  19.816   6.155
10788POPC   GL266290  38.379  19.839   6.155
10788POPC   C1A66291  38.445  19.844   6.455
10788POPC   D2A66292  38.475  19.840   6.755
10788POPC   C3A66293  38.432  19.869   7.055
10788POPC   C4A66294  38.504  19.848   7.355
10788POPC   C1B66295  38.176  19.936   6.455
10788POPC   C2B66296  38.191  19.938   6.755
10788POPC   C3B66297  38.219  19.917   7.055
10788POPC   C4B66298  38.241  19.864   7.355
10789POPC   NC366299  12.075  41.536   5.555
10789POPC   PO466300  12.117  41.564   5.855
10789POPC   GL166301  12.118  41.528   6.155
10789POPC   GL266302  11.931  41.578   6.155
10789POPC   C1A66303  12.062  41.590   6.455
10789POPC   D2A66304  12.067  41.531   6.755
10789POPC   C3A66305  12.120  41.594   7.055
10789POPC   C4A66306  12.071  41.594   7.355
10789POPC   C1B66307  11.843  41.560   6.455
10789POPC   C2B66308  11.849  41.565   6.755
10789POPC   C3B66309  11.874  41.627   7.055
10789POPC   C4B66310  11.801  41.558   7.355
10790POPC   NC366311   5.139  28.400   5.555
10790POPC   PO466312   5.133  28.397   5.855
10790POPC   GL166313   5.122  28.349   6.155
10790POPC   GL266314   5.105  28.477   6.155
10790POPC   C1A66315   5.117  28.320   6.455
10790POPC   D2A66316   5.108  28.331   6.755
10790POPC   C3A66317   5.043  28.349   7.055
10790POPC   C4A66318   5.138  28.369   7.355
10790POPC   C1B66319   5.048  28.634   6.455
10790POPC   C2B66320   5.018  28.640   6.755
10790POPC   C3B66321   5.055  28.626   7.055
10790POPC   C4B66322   5.030  28.574   7.355
10791POPC   NC366323   0.419  25.255   5.555
10791POPC   PO466324   0.404  25.285   5.855
10791POPC   GL166325   0.444  25.241   6.155
10791POPC   GL266326   0.404  25.144   6.155
10791POPC   C1A66327   0.409  25.269   6.455
10791POPC   D2A66328   0.484  25.235   6.755
10791POPC   C3A66329   0.446  25.241   7.055
10791POPC   C4A66330   0.403  25.284   7.355
10791POPC   C1B66331   0.362  25.046   6.455
10791POPC   C2B66332   0.367  25.021   6.755
10791POPC   C3B66333   0.431  25.018   7.055
10791POPC   C4B66334   0.368  25.009   7.355
10792POPC   NC366335  26.797  39.970   5.555
10792POPC   PO466336  26.848  40.046   5.855
10792POPC   GL166337  26.848  40.052   6.155
10792POPC   GL266338  26.662  39.947   6.155
10792POPC   C1A66339  26.824  39.979   6.455
10792POPC   D2A66340  26.865  40.045   6.755
10792POPC   C3A66341  26.791  40.023   7.055
10792POPC   C4A66342  26.813  39.971   7.355
10792POPC   C1B66343  26.599  40.021   6.455
10792POPC   C2B66344  26.528  39.975   6.755
10792POPC   C3B66345  26.595  39.936   7.055
10792POPC   C4B66346  26.530  39.932   7.355
10793POPC   NC366347   5.908  36.938   5.555
10793POPC   PO466348   5.840  36.908   5.855
10793POPC   GL166349   5.850  36.946   6.155
10793POPC   GL266350   5.722  36.926   6.155
10793POPC   C1A66351   5.899  36.907   6.455
10793POPC   D2A66352   5.913  36.910   6.755
10793POPC   C3A66353   5.891  36.946   7.055
10793POPC   C4A66354   5.899  36.899   7.355
10793POPC   C1B66355   5.584  36.852   6.455
10793POPC   C2B66356   5.628  36.905   6.755
10793POPC   C3B66357   5.616  36.923   7.055
10793POPC   C4B66358   5.575  36.859   7.355
10794POPC   NC366359   7.451  36.907   5.555
10794POPC   PO466360   7.407  36.885   5.855
10794POPC   GL166361   7.460  36.911   6.155
10794POPC   GL266362   7.410  36.759   6.155
10794POPC   C1A66363   7.415  36.871   6.455
10794POPC   D2A66364   7.466  36.931   6.755
10794POPC   C3A66365   7.397  36.888   7.055
10794POPC   C4A66366   7.460  36.882   7.355
10794POPC   C1B66367   7.345  36.673   6.455
10794POPC   C2B66368   7.282  36.696   6.755
10794POPC   C3B66369   7.379  36.664   7.055
10794POPC   C4B66370   7.342  36.682   7.355
10795POPC   NC366371  16.687  25.233   5.555
10795POPC   PO466372  16.742  25.245   5.855
10795POPC   GL166373  16.707  25.285   6.155
10795POPC   GL266374  16.615  25.150   6.155
10795POPC   C1A66375  16.755  25.281   6.455
10795POPC   D2A66376  16.759  25.244   6.755
10795POPC   C3A66377  16.752  25.313   7.055
10795POPC   C4A66378  16.744  25.313   7.355
10795POPC   C1B66379  16.569  25.072   6.455
10795POPC   C2B66380  16.577  25.056   6.755
10795POPC   C3B66381  16.503  25.150   7.055
10795POPC   C4B66382  16.579  25.098   7.355
10796POPC   NC366383  12.871   2.766   5.555
10796POPC   PO466384  12.860   2.719   5.855
10796POPC   GL166385  12.873   2.731   6.155
10796POPC   GL266386  12.681   2.744   6.155
10796POPC   C1A66387  12.826   2.781   6.455
10796POPC   D2A66388  12.821   2.800   6.755
10796POPC   C3A66389  12.870   2.812   7.055
10796POPC   C4A66390  12.885   2.773   7.355
10796POPC   C1B66391  12.652   2.714   6.455
10796POPC   C2B66392  12.603   2.675   6.755
10796POPC   C3B66393  12.629   2.753   7.055
10796POPC   C4B66394  12.571   2.758   7.355
10797POPC   NC366395  20.642  17.504   5.555
10797POPC   PO466396  20.581  17.471   5.855
10797POPC   GL166397  20.576  17.529   6.155
10797POPC   GL266398  20.493  17.459   6.155
10797POPC   C1A66399  20.608  17.529   6.455
10797POPC   D2A66400  20.642  17.469   6.755
10797POPC   C3A66401  20.641  17.457   7.055
10797POPC   C4A66402  20.610  17.468   7.355
10797POPC   C1B66403  20.480  17.347   6.455
10797POPC   C2B66404  20.455  17.348   6.755
10797POPC   C3B66405  20.458  17.356   7.055
10797POPC   C4B66406  20.464  17.316   7.355
10798POPC   NC366407   0.485  15.143   5.555
10798POPC   PO466408   0.469  15.212   5.855
10798POPC   GL166409   0.389  15.212   6.155
10798POPC   GL266410   0.345  15.289   6.155
10798POPC   C1A66411   0.400  15.135   6.455
10798POPC   D2A66412   0.480  15.168   6.755
10798POPC   C3A66413   0.438  15.226   7.055
10798POPC   C4A66414   0.404  15.171   7.355
10798POPC   C1B66415   0.237  15.369   6.455
10798POPC   C2B66416   0.226  15.380   6.755
10798POPC   C3B66417   0.238  15.348   7.055
10798POPC   C4B66418   0.233  15.344   7.355
10799POPC   NC366419  37.664  39.996   5.555
10799POPC   PO466420  37.638  40.052   5.855
10799POPC   GL166421  37.678  39.993   6.155
10799POPC   GL266422  37.639  40.125   6.155
10799POPC   C1A66423  37.656  40.049   6.455
10799POPC   D2A66424  37.671  39.958   6.755
10799POPC   C3A66425  37.633  39.957   7.055
10799POPC   C4A66426  37.692  39.983   7.355
10799POPC   C1B66427  37.550  40.199   6.455
10799POPC   C2B66428  37.608  40.220   6.755
10799POPC   C3B66429  37.556  40.267   7.055
10799POPC   C4B66430  37.609  40.225   7.355
10800POPC   NC366431  17.480  24.458   5.555
10800POPC   PO466432  17.470  24.479   5.855
10800POPC   GL166433  17.511  24.498   6.155
10800POPC   GL266434  17.467  24.572   6.155
10800POPC   C1A66435  17.478  24.491   6.455
10800POPC   D2A66436  17.553  24.473   6.755
10800POPC   C3A66437  17.507  24.486   7.055
10800POPC   C4A66438  17.551  24.477   7.355
10800POPC   C1B66439  17.387  24.752   6.455
10800POPC   C2B66440  17.444  24.761   6.755
10800POPC   C3B66441  17.442  24.730   7.055
10800POPC   C4B66442  17.370  24.680   7.355
10801POPC   NC366443  43.864   9.008   5.555
10801POPC   PO466444  43.846   8.965   5.855
10801POPC   GL166445  43.888   8.970   6.155
10801POPC   GL266446  44.010   8.905   6.155
10801POPC   C1A66447  43.889   8.977   6.455
10801POPC   D2A66448  43.916   9.007   6.755
10801POPC   C3A66449  43.932   8.925   7.055
10801POPC   C4A66450  43.885   8.961   7.355
10801POPC   C1B66451  44.127   8.936   6.455
10801POPC   C2B66452  44.110   8.977   6.755
10801POPC   C3B66453  44.094   8.903   7.055
10801POPC   C4B66454  44.133   8.974   7.355
10802POPC   NC366455  43.145  29.937   5.555
10802POPC   PO466456  43.099  29.921   5.855
10802POPC   GL166457  43.133  29.952   6.155
10802POPC   GL266458  43.219  30.016   6.155
10802POPC   C1A66459  43.158  29.964   6.455
10802POPC   D2A66460  43.101  29.954   6.755
10802POPC   C3A66461  43.095  29.949   7.055
10802POPC   C4A66462  43.151  29.934   7.355
10802POPC   C1B66463  43.307  30.074   6.455
10802POPC   C2B66464  43.299  30.117   6.755
10802POPC   C3B66465  43.232  30.098   7.055
10802POPC   C4B66466  43.220  30.111   7.355
10803POPC   NC366467  26.811   8.968   5.555
10803POPC   PO466468  26.821   8.971   5.855
10803POPC   GL166469  26.812   8.993   6.155
10803POPC   GL266470  26.905   9.033   6.155
10803POPC   C1A66471  26.848   8.985   6.455
10803POPC   D2A66472  26.823   8.964   6.755
10803POPC   C3A66473  26.808   9.008   7.055
10803POPC   C4A66474  26.787   8.981   7.355
10803POPC   C1B66475  27.079   9.008   6.455
10803POPC   C2B66476  27.066   9.096   6.755
10803POPC   C3B66477  27.087   9.013   7.055
10803POPC   C4B66478  27.064   9.061   7.355
10804POPC   NC366479   1.177   4.287   5.555
10804POPC   PO466480   1.224   4.307   5.855
10804POPC   GL166481   1.186   4.291   6.155
10804POPC   GL266482   1.357   4.244   6.155
10804POPC   C1A66483   1.200   4.341   6.455
10804POPC   D2A66484   1.235   4.346   6.755
10804POPC   C3A66485   1.238   4.298   7.055
10804POPC   C4A66486   1.171   4.330   7.355
10804POPC   C1B66487   1.441   4.216   6.455
10804POPC   C2B66488   1.419   4.217   6.755
10804POPC   C3B66489   1.393   4.176   7.055
10804POPC   C4B66490   1.458   4.223   7.355
10805POPC   NC366491  19.023  30.649   5.555
10805POPC   PO466492  19.020  30.692   5.855
10805POPC   GL166493  19.024  30.647   6.155
10805POPC   GL266494  19.225  30.727   6.155
10805POPC   C1A66495  19.042  30.706   6.455
10805POPC   D2A66496  19.023  30.728   6.755
10805POPC   C3A66497  19.077  30.731   7.055
10805POPC   C4A66498  19.060  30.738   7.355
10805POPC   C1B66499  19.338  30.738   6.455
10805POPC   C2B66500  19.288  30.778   6.755
10805POPC   C3B66501  19.309  30.737   7.055
10805POPC   C4B66502  19.322  30.723   7.355
10806POPC   NC366503  39.968  37.708   5.555
10806POPC   PO466504  40.012  37.690   5.855
10806POPC   GL166505  40.017  37.677   6.155
10806POPC   GL266506  40.034  37.590   6.155
10806POPC   C1A66507  39.999  37.698   6.455
10806POPC   D2A66508  39.985  37.630   6.755
10806POPC   C3A66509  39.967  37.717   7.055
10806POPC   C4A66510  40.026  37.643   7.355
10806POPC   C1B66511  40.143  37.465   6.455
10806POPC   C2B66512  40.066  37.493   6.755
10806POPC   C3B66513  40.134  37.476   7.055
10806POPC   C4B66514  40.068  37.409   7.355
10807POPC   NC366515  14.417   1.224   5.555
10807POPC   PO466516  14.416   1.165   5.855
10807POPC   GL166517  14.431   1.178   6.155
10807POPC   GL266518  14.418   1.314   6.155
10807POPC   C1A66519  14.354   1.227   6.455
10807POPC   D2A66520  14.451   1.222   6.755
10807POPC   C3A66521  14.378   1.212   7.055
10807POPC   C4A66522  14.444   1.182   7.355
10807POPC   C1B66523  14.407   1.513   6.455
10807POPC   C2B66524  14.390   1.427   6.755
10807POPC   C3B66525  14.346   1.462   7.055
10807POPC   C4B66526  14.394   1.455   7.355
10808POPC   NC366527  39.202  34.579   5.555
10808POPC   PO466528  39.270  34.566   5.855
10808POPC   GL166529  39.193  34.576   6.155
10808POPC   GL266530  39.201  34.733   6.155
10808POPC   C1A66531  39.271  34.561   6.455
10808POPC   D2A66532  39.273  34.550   6.755
10808POPC   C3A66533  39.215  34.541   7.055
10808POPC   C4A66534  39.231  34.601   7.355
10808POPC   C1B66535  39.150  34.831   6.455
10808POPC   C2B66536  39.124  34.828   6.755
10808POPC   C3B66537  39.121  34.797   7.055
10808POPC   C4B66538  39.116  34.824   7.355
10809POPC   NC366539  19.823  29.167   5.555
10809POPC   PO466540  19.831  29.153   5.855
10809POPC   GL166541  19.853  29.115   6.155
10809POPC   GL266542  19.734  29.174   6.155
10809POPC   C1A66543  19.816  29.103   6.455
10809POPC   D2A66544  19.868  29.184   6.755
10809POPC   C3A66545  19.800  29.161   7.055
10809POPC   C4A66546  19.874  29.103   7.355
10809POPC   C1B66547  19.556  29.183   6.455
10809POPC   C2B66548  19.596  29.235   6.755
10809POPC   C3B66549  19.562  29.264   7.055
10809POPC   C4B66550  19.625  29.236   7.355
10810POPC   NC366551  23.681  30.745   5.555
10810POPC   PO466552  23.735  30.648   5.855
10810POPC   GL166553  23.679  30.714   6.155
10810POPC   GL266554  23.835  30.680   6.155
10810POPC   C1A66555  23.756  30.718   6.455
10810POPC   D2A66556  23.735  30.672   6.755
10810POPC   C3A66557  23.763  30.734   7.055
10810POPC   C4A66558  23.747  30.650   7.355
10810POPC   C1B66559  23.940  30.698   6.455
10810POPC   C2B66560  23.953  30.671   6.755
10810POPC   C3B66561  23.958  30.695   7.055
10810POPC   C4B66562  23.938  30.677   7.355
10811POPC   NC366563  43.098   8.967   5.555
10811POPC   PO466564  43.137   8.957   5.855
10811POPC   GL166565  43.132   9.012   6.155
10811POPC   GL266566  43.167   9.044   6.155
10811POPC   C1A66567  43.154   9.003   6.455
10811POPC   D2A66568  43.141   8.953   6.755
10811POPC   C3A66569  43.061   9.001   7.055
10811POPC   C4A66570  43.071   9.016   7.355
10811POPC   C1B66571  43.243   9.219   6.455
10811POPC   C2B66572  43.249   9.180   6.755
10811POPC   C3B66573  43.196   9.157   7.055
10811POPC   C4B66574  43.190   9.145   7.355
10812POPC   NC366575  29.124  25.236   5.555
10812POPC   PO466576  29.103  25.311   5.855
10812POPC   GL166577  29.146  25.260   6.155
10812POPC   GL266578  29.197  25.102   6.155
10812POPC   C1A66579  29.150  25.278   6.455
10812POPC   D2A66580  29.189  25.287   6.755
10812POPC   C3A66581  29.157  25.234   7.055
10812POPC   C4A66582  29.125  25.231   7.355
10812POPC   C1B66583  29.265  25.072   6.455
10812POPC   C2B66584  29.266  25.004   6.755
10812POPC   C3B66585  29.219  25.039   7.055
10812POPC   C4B66586  29.195  25.021   7.355
10813POPC   NC366587  14.420  32.236   5.555
10813POPC   PO466588  14.441  32.215   5.855
10813POPC   GL166589  14.423  32.228   6.155
10813POPC   GL266590  14.330  32.158   6.155
10813POPC   C1A66591  14.372  32.274   6.455
10813POPC   D2A66592  14.377  32.214   6.755
10813POPC   C3A66593  14.410  32.219   7.055
10813POPC   C4A66594  14.446  32.228   7.355
10813POPC   C1B66595  14.370  31.969   6.455
10813POPC   C2B66596  14.379  32.050   6.755
10813POPC   C3B66597  14.347  32.017   7.055
10813POPC   C4B66598  14.379  31.969   7.355
10814POPC   NC366599  20.591  34.546   5.555
10814POPC   PO466600  20.630  34.569   5.855
10814POPC   GL166601  20.606  34.606   6.155
10814POPC   GL266602  20.726  34.448   6.155
10814POPC   C1A66603  20.610  34.623   6.455
10814POPC   D2A66604  20.574  34.545   6.755
10814POPC   C3A66605  20.581  34.539   7.055
10814POPC   C4A66606  20.650  34.583   7.355
10814POPC   C1B66607  20.776  34.424   6.455
10814POPC   C2B66608  20.793  34.401   6.755
10814POPC   C3B66609  20.789  34.417   7.055
10814POPC   C4B66610  20.764  34.429   7.355
10815POPC   NC366611  37.667  40.747   5.555
10815POPC   PO466612  37.646  40.806   5.855
10815POPC   GL166613  37.720  40.800   6.155
10815POPC   GL266614  37.760  40.655   6.155
10815POPC   C1A66615  37.710  40.764   6.455
10815POPC   D2A66616  37.728  40.777   6.755
10815POPC   C3A66617  37.699  40.767   7.055
10815POPC   C4A66618  37.660  40.790   7.355
10815POPC   C1B66619  37.742  40.505   6.455
10815POPC   C2B66620  37.707  40.520   6.755
10815POPC   C3B66621  37.714  40.544   7.055
10815POPC   C4B66622  37.731  40.552   7.355
10816POPC   NC366623  15.931  44.669   5.555
10816POPC   PO466624  15.956  44.654   5.855
10816POPC   GL166625  16.004  44.655   6.155
10816POPC   GL266626  15.819  44.666   6.155
10816POPC   C1A66627  15.998  44.657   6.455
10816POPC   D2A66628  15.991  44.651   6.755
10816POPC   C3A66629  15.998  44.661   7.055
10816POPC   C4A66630  15.953  44.704   7.355
10816POPC   C1B66631  15.756  44.711   6.455
10816POPC   C2B66632  15.670  44.729   6.755
10816POPC   C3B66633  15.678  44.783   7.055
10816POPC   C4B66634  15.756  44.770   7.355
10817POPC   NC366635  32.250  29.951   5.555
10817POPC   PO466636  32.231  29.872   5.855
10817POPC   GL166637  32.297  29.879   6.155
10817POPC   GL266638  32.149  29.972   6.155
10817POPC   C1A66639  32.213  29.909   6.455
10817POPC   D2A66640  32.295  29.960   6.755
10817POPC   C3A66641  32.280  29.937   7.055
10817POPC   C4A66642  32.246  29.906   7.355
10817POPC   C1B66643  31.991  29.922   6.455
10817POPC   C2B66644  32.007  29.949   6.755
10817POPC   C3B66645  31.971  29.892   7.055
10817POPC   C4B66646  31.988  29.904   7.355
10818POPC   NC366647   3.500   2.813   5.555
10818POPC   PO466648   3.563   2.790   5.855
10818POPC   GL166649   3.501   2.740   6.155
10818POPC   GL266650   3.598   2.692   6.155
10818POPC   C1A66651   3.517   2.792   6.455
10818POPC   D2A66652   3.529   2.760   6.755
10818POPC   C3A66653   3.535   2.799   7.055
10818POPC   C4A66654   3.505   2.716   7.355
10818POPC   C1B66655   3.760   2.553   6.455
10818POPC   C2B66656   3.687   2.587   6.755
10818POPC   C3B66657   3.665   2.608   7.055
10818POPC   C4B66658   3.676   2.576   7.355
10819POPC   NC366659  12.806   7.422   5.555
10819POPC   PO466660  12.819   7.429   5.855
10819POPC   GL166661  12.844   7.458   6.155
10819POPC   GL266662  12.965   7.434   6.155
10819POPC   C1A66663  12.841   7.448   6.455
10819POPC   D2A66664  12.898   7.461   6.755
10819POPC   C3A66665  12.822   7.388   7.055
10819POPC   C4A66666  12.806   7.392   7.355
10819POPC   C1B66667  13.123   7.483   6.455
10819POPC   C2B66668  13.145   7.453   6.755
10819POPC   C3B66669  13.125   7.482   7.055
10819POPC   C4B66670  13.148   7.463   7.355
10820POPC   NC366671   5.843  39.215   5.555
10820POPC   PO466672   5.869  39.189   5.855
10820POPC   GL166673   5.856  39.256   6.155
10820POPC   GL266674   6.018  39.249   6.155
10820POPC   C1A66675   5.869  39.204   6.455
10820POPC   D2A66676   5.866  39.274   6.755
10820POPC   C3A66677   5.861  39.278   7.055
10820POPC   C4A66678   5.909  39.245   7.355
10820POPC   C1B66679   6.089  39.251   6.455
10820POPC   C2B66680   6.100  39.281   6.755
10820POPC   C3B66681   6.071  39.243   7.055
10820POPC   C4B66682   6.133  39.254   7.355
10821POPC   NC366683   5.113  32.278   5.555
10821POPC   PO466684   5.136  32.206   5.855
10821POPC   GL166685   5.061  32.240   6.155
10821POPC   GL266686   5.086  32.398   6.155
10821POPC   C1A66687   5.089  32.292   6.455
10821POPC   D2A66688   5.055  32.203   6.755
10821POPC   C3A66689   5.108  32.277   7.055
10821POPC   C4A66690   5.132  32.210   7.355
10821POPC   C1B66691   5.093  32.471   6.455
10821POPC   C2B66692   5.147  32.507   6.755
10821POPC   C3B66693   5.148  32.460   7.055
10821POPC   C4B66694   5.110  32.459   7.355
10822POPC   NC366695  38.441   5.141   5.555
10822POPC   PO466696  38.502   5.089   5.855
10822POPC   GL166697  38.429   5.066   6.155
10822POPC   GL266698  38.605   5.111   6.155
10822POPC   C1A66699  38.475   5.059   6.455
10822POPC   D2A66700  38.443   5.105   6.755
10822POPC   C3A66701  38.503   5.050   7.055
10822POPC   C4A66702  38.496   5.076   7.355
10822POPC   C1B66703  38.726   5.195   6.455
10822POPC   C2B66704  38.691   5.212   6.755
10822POPC   C3B66705  38.676   5.179   7.055
10822POPC   C4B66706  38.656   5.156   7.355
10823POPC   NC366707   9.789  43.106   5.555
10823POPC   PO466708   9.758  43.148   5.855
10823POPC   GL166709   9.772  43.075   6.155
10823POPC   GL266710   9.777  43.225   6.155
10823POPC   C1A66711   9.704  43.142   6.455
10823POPC   D2A66712   9.795  43.067   6.755
10823POPC   C3A66713   9.726  43.153   7.055
10823POPC   C4A66714   9.768  43.093   7.355
10823POPC   C1B66715   9.920  43.302   6.455
10823POPC   C2B66716   9.844  43.288   6.755
10823POPC   C3B66717   9.879  43.302   7.055
10823POPC   C4B66718   9.896  43.303   7.355
10824POPC   NC366719  32.199  12.856   5.555
10824POPC   PO466720  32.274  12.891   5.855
10824POPC   GL166721  32.279  12.824   6.155
10824POPC   GL266722  32.257  12.715   6.155
10824POPC   C1A66723  32.294  12.866   6.455
10824POPC   D2A66724  32.215  12.842   6.755
10824POPC   C3A66725  32.279  12.832   7.055
10824POPC   C4A66726  32.238  12.837   7.355
10824POPC   C1B66727  32.279  12.608   6.455
10824POPC   C2B66728  32.274  12.561   6.755
10824POPC   C3B66729  32.219  12.602   7.055
10824POPC   C4B66730  32.265  12.572   7.355
10825POPC   NC366731  26.815   5.877   5.555
10825POPC   PO466732  26.772   5.890   5.855
10825POPC   GL166733  26.835   5.863   6.155
10825POPC   GL266734  26.783   5.717   6.155
10825POPC   C1A66735  26.833   5.824   6.455
10825POPC   D2A66736  26.821   5.875   6.755
10825POPC   C3A66737  26.811   5.834   7.055
10825POPC   C4A66738  26.821   5.845   7.355
10825POPC   C1B66739  26.729   5.681   6.455
10825POPC   C2B66740  26.718   5.681   6.755
10825POPC   C3B66741  26.665   5.641   7.055
10825POPC   C4B66742  26.683   5.706   7.355
10826POPC   NC366743  24.536  11.257   5.555
10826POPC   PO466744  24.537  11.319   5.855
10826POPC   GL166745  24.509  11.288   6.155
10826POPC   GL266746  24.398  11.233   6.155
10826POPC   C1A66747  24.500  11.300   6.455
10826POPC   D2A66748  24.471  11.251   6.755
10826POPC   C3A66749  24.479  11.277   7.055
10826POPC   C4A66750  24.452  11.318   7.355
10826POPC   C1B66751  24.341  11.146   6.455
10826POPC   C2B66752  24.331  11.118   6.755
10826POPC   C3B66753  24.289  11.123   7.055
10826POPC   C4B66754  24.334  11.122   7.355
10827POPC   NC366755  26.803  12.839   5.555
10827POPC   PO466756  26.860  12.804   5.855
10827POPC   GL166757  26.833  12.855   6.155
10827POPC   GL266758  26.891  12.959   6.155
10827POPC   C1A66759  26.778  12.854   6.455
10827POPC   D2A66760  26.832  12.867   6.755
10827POPC   C3A66761  26.800  12.869   7.055
10827POPC   C4A66762  26.779  12.809   7.355
10827POPC   C1B66763  26.853  13.108   6.455
10827POPC   C2B66764  26.838  13.114   6.755
10827POPC   C3B66765  26.883  13.058   7.055
10827POPC   C4B66766  26.877  13.091   7.355
10828POPC   NC366767  28.357   1.966   5.555
10828POPC   PO466768  28.396   1.969   5.855
10828POPC   GL166769  28.406   1.956   6.155
10828POPC   GL266770  28.401   2.130   6.155
10828POPC   C1A66771  28.362   2.005   6.455
10828POPC   D2A66772  28.405   2.007   6.755
10828POPC   C3A66773  28.322   2.017   7.055
10828POPC   C4A66774  28.374   2.030   7.355
10828POPC   C1B66775  28.333   2.224   6.455
10828POPC   C2B66776  28.339   2.257   6.755
10828POPC   C3B66777  28.378   2.218   7.055
10828POPC   C4B66778  28.389   2.230   7.355
10829POPC   NC366779   2.745   1.175   5.555
10829POPC   PO466780   2.784   1.263   5.855
10829POPC   GL166781   2.773   1.257   6.155
10829POPC   GL266782   2.821   1.368   6.155
10829POPC   C1A66783   2.757   1.255   6.455
10829POPC   D2A66784   2.719   1.238   6.755
10829POPC   C3A66785   2.800   1.237   7.055
10829POPC   C4A66786   2.779   1.253   7.355
10829POPC   C1B66787   2.871   1.454   6.455
10829POPC   C2B66788   2.893   1.445   6.755
10829POPC   C3B66789   2.891   1.427   7.055
10829POPC   C4B66790   2.867   1.472   7.355
10830POPC   NC366791  17.544  29.912   5.555
10830POPC   PO466792  17.544  29.905   5.855
10830POPC   GL166793  17.481  29.916   6.155
10830POPC   GL266794  17.618  29.939   6.155
10830POPC   C1A66795  17.523  29.907   6.455
10830POPC   D2A66796  17.461  29.929   6.755
10830POPC   C3A66797  17.480  29.916   7.055
10830POPC   C4A66798  17.497  29.916   7.355
10830POPC   C1B66799  17.795  30.003   6.455
10830POPC   C2B66800  17.741  30.007   6.755
10830POPC   C3B66801  17.745  30.026   7.055
10830POPC   C4B66802  17.742  30.021   7.355
10831POPC   NC366803   3.555  36.157   5.555
10831POPC   PO466804   3.590  36.165   5.855
10831POPC   GL166805   3.558  36.087   6.155
10831POPC   GL266806   3.409  36.220   6.155
10831POPC   C1A66807   3.536  36.097   6.455
10831POPC   D2A66808   3.536  36.114   6.755
10831POPC   C3A66809   3.497  36.132   7.055
10831POPC   C4A66810   3.530  36.141   7.355
10831POPC   C1B66811   3.338  36.281   6.455
10831POPC   C2B66812   3.378  36.289   6.755
10831POPC   C3B66813   3.383  36.362   7.055
10831POPC   C4B66814   3.372  36.361   7.355
10832POPC   NC366815  10.494  10.499   5.555
10832POPC   PO466816  10.569  10.525   5.855
10832POPC   GL166817  10.503  10.475   6.155
10832POPC   GL266818  10.462  10.621   6.155
10832POPC   C1A66819  10.558  10.540   6.455
10832POPC   D2A66820  10.511  10.483   6.755
10832POPC   C3A66821  10.532  10.522   7.055
10832POPC   C4A66822  10.514  10.538   7.355
10832POPC   C1B66823  10.370  10.640   6.455
10832POPC   C2B66824  10.314  10.656   6.755
10832POPC   C3B66825  10.330  10.685   7.055
10832POPC   C4B66826  10.354  10.658   7.355
10833POPC   NC366827   5.879   6.677   5.555
10833POPC   PO466828   5.836   6.672   5.855
10833POPC   GL166829   5.873   6.614   6.155
10833POPC   GL266830   5.907   6.501   6.155
10833POPC   C1A66831   5.841   6.692   6.455
10833POPC   D2A66832   5.846   6.677   6.755
10833POPC   C3A66833   5.829   6.655   7.055
10833POPC   C4A66834   5.894   6.626   7.355
10833POPC   C1B66835   5.957   6.364   6.455
10833POPC   C2B66836   5.952   6.380   6.755
10833POPC   C3B66837   5.940   6.388   7.055
10833POPC   C4B66838   5.948   6.389   7.355
10834POPC   NC366839  35.309  35.384   5.555
10834POPC   PO466840  35.385  35.341   5.855
10834POPC   GL166841  35.367  35.328   6.155
10834POPC   GL266842  35.273  35.293   6.155
10834POPC   C1A66843  35.374  35.389   6.455
10834POPC   D2A66844  35.370  35.341   6.755
10834POPC   C3A66845  35.378  35.350   7.055
10834POPC   C4A66846  35.386  35.358   7.355
10834POPC   C1B66847  35.228  35.116   6.455
10834POPC   C2B66848  35.211  35.199   6.755
10834POPC   C3B66849  35.167  35.175   7.055
10834POPC   C4B66850  35.228  35.150   7.355
10835POPC   NC366851  21.394  15.917   5.555
10835POPC   PO466852  21.353  15.967   5.855
10835POPC   GL166853  21.365  15.929   6.155
10835POPC   GL266854  21.248  15.934   6.155
10835POPC   C1A66855  21.424  15.914   6.455
10835POPC   D2A66856  21.406  15.916   6.755
10835POPC   C3A66857  21.386  15.945   7.055
10835POPC   C4A66858  21.381  15.930   7.355
10835POPC   C1B66859  21.194  15.856   6.455
10835POPC   C2B66860  21.192  15.856   6.755
10835POPC   C3B66861  21.125  15.876   7.055
10835POPC   C4B66862  21.175  15.925   7.355
10836POPC   NC366863  16.762  12.076   5.555
10836POPC   PO466864  16.756  12.073   5.855
10836POPC   GL166865  16.725  12.039   6.155
10836POPC   GL266866  16.866  12.124   6.155
10836POPC   C1A66867  16.743  12.028   6.455
10836POPC   D2A66868  16.691  12.091   6.755
10836POPC   C3A66869  16.776  12.066   7.055
10836POPC   C4A66870  16.763  12.123   7.355
10836POPC   C1B66871  16.956  12.076   6.455
10836POPC   C2B66872  16.995  12.062   6.755
10836POPC   C3B66873  17.019  12.057   7.055
10836POPC   C4B66874  16.980  12.062   7.355
10837POPC   NC366875  14.354  24.499   5.555
10837POPC   PO466876  14.452  24.516   5.855
10837POPC   GL166877  14.389  24.518   6.155
10837POPC   GL266878  14.320  24.412   6.155
10837POPC   C1A66879  14.404  24.508   6.455
10837POPC   D2A66880  14.410  24.489   6.755
10837POPC   C3A66881  14.416  24.536   7.055
10837POPC   C4A66882  14.354  24.456   7.355
10837POPC   C1B66883  14.220  24.328   6.455
10837POPC   C2B66884  14.225  24.350   6.755
10837POPC   C3B66885  14.235  24.350   7.055
10837POPC   C4B66886  14.258  24.281   7.355
10838POPC   NC366887  43.116  27.603   5.555
10838POPC   PO466888  43.074  27.576   5.855
10838POPC   GL166889  43.125  27.642   6.155
10838POPC   GL266890  43.066  27.474   6.155
10838POPC   C1A66891  43.156  27.592   6.455
10838POPC   D2A66892  43.105  27.567   6.755
10838POPC   C3A66893  43.154  27.568   7.055
10838POPC   C4A66894  43.091  27.558   7.355
10838POPC   C1B66895  42.933  27.414   6.455
10838POPC   C2B66896  42.915  27.448   6.755
10838POPC   C3B66897  42.914  27.377   7.055
10838POPC   C4B66898  42.928  27.416   7.355
10839POPC   NC366899  22.892  13.639   5.555
10839POPC   PO466900  22.983  13.591   5.855
10839POPC   GL166901  22.909  13.620   6.155
10839POPC   GL266902  22.840  13.560   6.155
10839POPC   C1A66903  22.958  13.635   6.455
10839POPC   D2A66904  22.903  13.656   6.755
10839POPC   C3A66905  22.921  13.626   7.055
10839POPC   C4A66906  22.918  13.657   7.355
10839POPC   C1B66907  22.749  13.490   6.455
10839POPC   C2B66908  22.705  13.535   6.755
10839POPC   C3B66909  22.711  13.449   7.055
10839POPC   C4B66910  22.767  13.530   7.355
10840POPC   NC366911  43.862  35.315   5.555
10840POPC   PO466912  43.906  35.389   5.855
10840POPC   GL166913  43.858  35.370   6.155
10840POPC   GL266914  44.021  35.271   6.155
10840POPC   C1A66915  43.899  35.307   6.455
10840POPC   D2A66916  43.847  35.349   6.755
10840POPC   C3A66917  43.898  35.315   7.055
10840POPC   C4A66918  43.900  35.401   7.355
10840POPC   C1B66919  44.096  35.157   6.455
10840POPC   C2B66920  44.060  35.162   6.755
10840POPC   C3B66921  44.110  35.203   7.055
10840POPC   C4B66922  44.093  35.224   7.355
10841POPC   NC366923  19.047  15.941   5.555
10841POPC   PO466924  19.103  15.999   5.855
10841POPC   GL166925  19.103  15.999   6.155
10841POPC   GL266926  19.168  15.898   6.155
10841POPC   C1A66927  19.069  15.925   6.455
10841POPC   D2A66928  19.079  15.970   6.755
10841POPC   C3A66929  19.066  15.907   7.055
10841POPC   C4A66930  19.039  15.933   7.355
10841POPC   C1B66931  19.247  15.799   6.455
10841POPC   C2B66932  19.161  15.726   6.755
10841POPC   C3B66933  19.168  15.713   7.055
10841POPC   C4B66934  19.260  15.797   7.355
10842POPC   NC366935  37.643   6.625   5.555
10842POPC   PO466936  37.710   6.606   5.855
10842POPC   GL166937  37.638   6.632   6.155
10842POPC   GL266938  37.804   6.670   6.155
10842POPC   C1A66939  37.677   6.676   6.455
10842POPC   D2A66940  37.666   6.691   6.755
10842POPC   C3A66941  37.705   6.685   7.055
10842POPC   C4A66942  37.653   6.692   7.355
10842POPC   C1B66943  37.872   6.726   6.455
10842POPC   C2B66944  37.896   6.672   6.755
10842POPC   C3B66945  37.900   6.724   7.055
10842POPC   C4B66946  37.907   6.741   7.355
10843POPC   NC366947  44.663   5.062   5.555
10843POPC   PO466948  44.679   5.058   5.855
10843POPC   GL166949  44.705   5.066   6.155
10843POPC   GL266950  44.502   5.108   6.155
10843POPC   C1A66951  44.671   5.073   6.455
10843POPC   D2A66952  44.700   5.126   6.755
10843POPC   C3A66953  44.638   5.044   7.055
10843POPC   C4A66954  44.656   5.069   7.355
10843POPC   C1B66955  44.368   4.994   6.455
10843POPC   C2B66956  44.422   5.019   6.755
10843POPC   C3B66957  44.378   4.999   7.055
10843POPC   C4B66958  44.420   5.068   7.355
10844POPC   NC366959  32.991   9.727   5.555
10844POPC   PO466960  32.974   9.710   5.855
10844POPC   GL166961  33.021   9.732   6.155
10844POPC   GL266962  33.120   9.641   6.155
10844POPC   C1A66963  33.057   9.712   6.455
10844POPC   D2A66964  33.071   9.732   6.755
10844POPC   C3A66965  32.999   9.742   7.055
10844POPC   C4A66966  33.012   9.748   7.355
10844POPC   C1B66967  33.128   9.557   6.455
10844POPC   C2B66968  33.169   9.493   6.755
10844POPC   C3B66969  33.150   9.536   7.055
10844POPC   C4B66970  33.165   9.496   7.355
10845POPC   NC366971  28.396   3.509   5.555
10845POPC   PO466972  28.382   3.517   5.855
10845POPC   GL166973  28.352   3.551   6.155
10845POPC   GL266974  28.488   3.506   6.155
10845POPC   C1A66975  28.337   3.560   6.455
10845POPC   D2A66976  28.388   3.548   6.755
10845POPC   C3A66977  28.352   3.558   7.055
10845POPC   C4A66978  28.409   3.492   7.355
10845POPC   C1B66979  28.606   3.494   6.455
10845POPC   C2B66980  28.636   3.469   6.755
10845POPC   C3B66981  28.643   3.497   7.055
10845POPC   C4B66982  28.587   3.512   7.355
10846POPC   NC366983  43.908  19.015   5.555
10846POPC   PO466984  43.914  19.107   5.855
10846POPC   GL166985  43.913  19.067   6.155
10846POPC   GL266986  43.808  19.022   6.155
10846POPC   C1A66987  43.875  19.042   6.455
10846POPC   D2A66988  43.839  19.040   6.755
10846POPC   C3A66989  43.851  19.015   7.055
10846POPC   C4A66990  43.889  19.107   7.355
10846POPC   C1B66991  43.602  19.073   6.455
10846POPC   C2B66992  43.679  19.016   6.755
10846POPC   C3B66993  43.652  19.019   7.055
10846POPC   C4B66994  43.677  19.086   7.355
10847POPC   NC366995  31.522   9.732   5.555
10847POPC   PO466996  31.488   9.763   5.855
10847POPC   GL166997  31.520   9.786   6.155
10847POPC   GL266998  31.558   9.718   6.155
10847POPC   C1A66999  31.491   9.795   6.455
10847POPC   D2A67000  31.460   9.723   6.755
10847POPC   C3A67001  31.485   9.733   7.055
10847POPC   C4A67002  31.429   9.747   7.355
10847POPC   C1B67003  31.711   9.711   6.455
10847POPC   C2B67004  31.743   9.757   6.755
10847POPC   C3B67005  31.686   9.723   7.055
10847POPC   C4B67006  31.762   9.736   7.355
10848POPC   NC367007  23.675  32.289   5.555
10848POPC   PO467008  23.709  32.206   5.855
10848POPC   GL167009  23.717  32.293   6.155
10848POPC   GL267010  23.830  32.342   6.155
10848POPC   C1A67011  23.697  32.242   6.455
10848POPC   D2A67012  23.666  32.271   6.755
10848POPC   C3A67013  23.724  32.285   7.055
10848POPC   C4A67014  23.708  32.291   7.355
10848POPC   C1B67015  23.971  32.345   6.455
10848POPC   C2B67016  23.961  32.354   6.755
10848POPC   C3B67017  23.948  32.366   7.055
10848POPC   C4B67018  23.965  32.293   7.355
10849POPC   NC367019  15.913   7.449   5.555
10849POPC   PO467020  15.907   7.463   5.855
10849POPC   GL167021  15.972   7.463   6.155
10849POPC   GL267022  16.107   7.334   6.155
10849POPC   C1A67023  15.917   7.460   6.455
10849POPC   D2A67024  15.983   7.448   6.755
10849POPC   C3A67025  15.970   7.428   7.055
10849POPC   C4A67026  15.943   7.420   7.355
10849POPC   C1B67027  16.183   7.331   6.455
10849POPC   C2B67028  16.222   7.322   6.755
10849POPC   C3B67029  16.171   7.349   7.055
10849POPC   C4B67030  16.149   7.290   7.355
10850POPC   NC367031  29.945  30.745   5.555
10850POPC   PO467032  29.915  30.726   5.855
10850POPC   GL167033  29.955  30.718   6.155
10850POPC   GL267034  29.845  30.564   6.155
10850POPC   C1A67035  29.937  30.706   6.455
10850POPC   D2A67036  29.933  30.722   6.755
10850POPC   C3A67037  29.966  30.697   7.055
10850POPC   C4A67038  29.946  30.647   7.355
10850POPC   C1B67039  29.754  30.486   6.455
10850POPC   C2B67040  29.745  30.487   6.755
10850POPC   C3B67041  29.789  30.504   7.055
10850POPC   C4B67042  29.768  30.493   7.355
10851POPC   NC367043   5.074  14.412   5.555
10851POPC   PO467044   5.107  14.414   5.855
10851POPC   GL167045   5.064  14.379   6.155
10851POPC   GL267046   5.149  14.323   6.155
10851POPC   C1A67047   5.129  14.410   6.455
10851POPC   D2A67048   5.057  14.375   6.755
10851POPC   C3A67049   5.087  14.411   7.055
10851POPC   C4A67050   5.044  14.442   7.355
10851POPC   C1B67051   5.287  14.178   6.455
10851POPC   C2B67052   5.278  14.211   6.755
10851POPC   C3B67053   5.274  14.177   7.055
10851POPC   C4B67054   5.259  14.224   7.355
10852POPC   NC367055   2.038  11.322   5.555
10852POPC   PO467056   2.000  11.342   5.855
10852POPC   GL167057   2.005  11.294   6.155
10852POPC   GL267058   1.874  11.377   6.155
10852POPC   C1A67059   1.966  11.262   6.455
10852POPC   D2A67060   2.017  11.317   6.755
10852POPC   C3A67061   1.957  11.313   7.055
10852POPC   C4A67062   1.986  11.328   7.355
10852POPC   C1B67063   1.703  11.355   6.455
10852POPC   C2B67064   1.699  11.368   6.755
10852POPC   C3B67065   1.715  11.356   7.055
10852POPC   C4B67066   1.763  11.336   7.355
10853POPC   NC367067  15.922  17.476   5.555
10853POPC   PO467068  15.985  17.523   5.855
10853POPC   GL167069  15.979  17.527   6.155
10853POPC   GL267070  16.040  17.598   6.155
10853POPC   C1A67071  15.946  17.529   6.455
10853POPC   D2A67072  16.004  17.544   6.755
10853POPC   C3A67073  15.955  17.458   7.055
10853POPC   C4A67074  16.005  17.486   7.355
10853POPC   C1B67075  16.202  17.629   6.455
10853POPC   C2B67076  16.178  17.659   6.755
10853POPC   C3B67077  16.148  17.575   7.055
10853POPC   C4B67078  16.219  17.658   7.355
10854POPC   NC367079  34.587  36.883   5.555
10854POPC   PO467080  34.553  36.900   5.855
10854POPC   GL167081  34.582  36.859   6.155
10854POPC   GL267082  34.499  36.845   6.155
10854POPC   C1A67083  34.543  36.892   6.455
10854POPC   D2A67084  34.585  36.900   6.755
10854POPC   C3A67085  34.564  36.906   7.055
10854POPC   C4A67086  34.613  36.946   7.355
10854POPC   C1B67087  34.393  36.791   6.455
10854POPC   C2B67088  34.335  36.701   6.755
10854POPC   C3B67089  34.349  36.731   7.055
10854POPC   C4B67090  34.433  36.712   7.355
10855POPC   NC367091  33.792   8.165   5.555
10855POPC   PO467092  33.776   8.157   5.855
10855POPC   GL167093  33.794   8.228   6.155
10855POPC   GL267094  33.715   8.204   6.155
10855POPC   C1A67095  33.807   8.213   6.455
10855POPC   D2A67096  33.755   8.169   6.755
10855POPC   C3A67097  33.811   8.234   7.055
10855POPC   C4A67098  33.804   8.163   7.355
10855POPC   C1B67099  33.585   8.199   6.455
10855POPC   C2B67100  33.528   8.216   6.755
10855POPC   C3B67101  33.566   8.210   7.055
10855POPC   C4B67102  33.501   8.209   7.355
10856POPC   NC367103  32.287  42.337   5.555
10856POPC   PO467104  32.250  42.371   5.855
10856POPC   GL167105  32.209  42.319   6.155
10856POPC   GL267106  32.368  42.435   6.155
10856POPC   C1A67107  32.213  42.320   6.455
10856POPC   D2A67108  32.204  42.331   6.755
10856POPC   C3A67109  32.282  42.351   7.055
10856POPC   C4A67110  32.232  42.366   7.355
10856POPC   C1B67111  32.415  42.466   6.455
10856POPC   C2B67112  32.438  42.513   6.755
10856POPC   C3B67113  32.431  42.553   7.055
10856POPC   C4B67114  32.393  42.484   7.355
10857POPC   NC367115  10.548  22.187   5.555
10857POPC   PO467116  10.538  22.153   5.855
10857POPC   GL167117  10.490  22.146   6.155
10857POPC   GL267118  10.506  22.076   6.155
10857POPC   C1A67119  10.543  22.135   6.455
10857POPC   D2A67120  10.553  22.114   6.755
10857POPC   C3A67121  10.542  22.133   7.055
10857POPC   C4A67122  10.561  22.148   7.355
10857POPC   C1B67123  10.498  21.875   6.455
10857POPC   C2B67124  10.530  21.955   6.755
10857POPC   C3B67125  10.529  21.887   7.055
10857POPC   C4B67126  10.551  21.934   7.355
10858POPC   NC367127   3.511  44.700   5.555
10858POPC   PO467128   3.584  44.645   5.855
10858POPC   GL167129   3.509  44.710   6.155
10858POPC   GL267130   3.500  44.549   6.155
10858POPC   C1A67131   3.514  44.653   6.455
10858POPC   D2A67132   3.568  44.612   6.755
10858POPC   C3A67133   3.503  44.691   7.055
10858POPC   C4A67134   3.560  44.620   7.355
10858POPC   C1B67135   3.524  44.436   6.455
10858POPC   C2B67136   3.487  44.415   6.755
10858POPC   C3B67137   3.515  44.366   7.055
10858POPC   C4B67138   3.514  44.410   7.355
10859POPC   NC367139  29.966   1.187   5.555
10859POPC   PO467140  29.957   1.208   5.855
10859POPC   GL167141  29.909   1.248   6.155
10859POPC   GL267142  29.997   1.155   6.155
10859POPC   C1A67143  29.944   1.234   6.455
10859POPC   D2A67144  29.880   1.197   6.755
10859POPC   C3A67145  29.891   1.220   7.055
10859POPC   C4A67146  29.956   1.175   7.355
10859POPC   C1B67147  30.115   1.048   6.455
10859POPC   C2B67148  30.108   1.064   6.755
10859POPC   C3B67149  30.095   1.050   7.055
10859POPC   C4B67150  30.085   1.099   7.355
10860POPC   NC367151   8.974  43.152   5.555
10860POPC   PO467152   8.969  43.124   5.855
10860POPC   GL167153   8.966  43.101   6.155
10860POPC   GL267154   8.873  43.187   6.155
10860POPC   C1A67155   9.010  43.108   6.455
10860POPC   D2A67156   8.964  43.129   6.755
10860POPC   C3A67157   8.999  43.067   7.055
10860POPC   C4A67158   8.975  43.101   7.355
10860POPC   C1B67159   8.823  43.350   6.455
10860POPC   C2B67160   8.866  43.301   6.755
10860POPC   C3B67161   8.815  43.327   7.055
10860POPC   C4B67162   8.859  43.298   7.355
10861POPC   NC367163   3.550  13.664   5.555
10861POPC   PO467164   3.510  13.653   5.855
10861POPC   GL167165   3.585  13.655   6.155
10861POPC   GL267166   3.444  13.716   6.155
10861POPC   C1A67167   3.580  13.666   6.455
10861POPC   D2A67168   3.525  13.579   6.755
10861POPC   C3A67169   3.589  13.606   7.055
10861POPC   C4A67170   3.591  13.648   7.355
10861POPC   C1B67171   3.416  13.820   6.455
10861POPC   C2B67172   3.405  13.875   6.755
10861POPC   C3B67173   3.414  13.800   7.055
10861POPC   C4B67174   3.423  13.857   7.355
10862POPC   NC367175  29.960  38.497   5.555
10862POPC   PO467176  29.964  38.414   5.855
10862POPC   GL167177  29.958  38.440   6.155
10862POPC   GL267178  29.977  38.327   6.155
10862POPC   C1A67179  29.900  38.488   6.455
10862POPC   D2A67180  29.882  38.432   6.755
10862POPC   C3A67181  29.881  38.501   7.055
10862POPC   C4A67182  29.953  38.419   7.355
10862POPC   C1B67183  30.007  38.184   6.455
10862POPC   C2B67184  29.969  38.224   6.755
10862POPC   C3B67185  29.943  38.174   7.055
10862POPC   C4B67186  29.981  38.250   7.355
10863POPC   NC367187  35.346   1.994   5.555
10863POPC   PO467188  35.307   1.941   5.855
10863POPC   GL167189  35.386   1.990   6.155
10863POPC   GL267190  35.346   1.848   6.155
10863POPC   C1A67191  35.337   1.954   6.455
10863POPC   D2A67192  35.314   2.022   6.755
10863POPC   C3A67193  35.393   2.019   7.055
10863POPC   C4A67194  35.316   1.965   7.355
10863POPC   C1B67195  35.358   1.724   6.455
10863POPC   C2B67196  35.452   1.704   6.755
10863POPC   C3B67197  35.433   1.786   7.055
10863POPC   C4B67198  35.440   1.726   7.355
10864POPC   NC367199   5.904  30.679   5.555
10864POPC   PO467200   5.845  30.662   5.855
10864POPC   GL167201   5.857  30.710   6.155
10864POPC   GL267202   5.816  30.827   6.155
10864POPC   C1A67203   5.862  30.695   6.455
10864POPC   D2A67204   5.872  30.676   6.755
10864POPC   C3A67205   5.908  30.672   7.055
10864POPC   C4A67206   5.865  30.684   7.355
10864POPC   C1B67207   5.701  30.841   6.455
10864POPC   C2B67208   5.708  30.875   6.755
10864POPC   C3B67209   5.689  30.846   7.055
10864POPC   C4B67210   5.718  30.903   7.355
10865POPC   NC367211   0.478  36.143   5.555
10865POPC   PO467212   0.463  36.155   5.855
10865POPC   GL167213   0.479  36.091   6.155
10865POPC   GL267214   0.544  36.100   6.155
10865POPC   C1A67215   0.404  36.106   6.455
10865POPC   D2A67216   0.460  36.101   6.755
10865POPC   C3A67217   0.414  36.164   7.055
10865POPC   C4A67218   0.435  36.102   7.355
10865POPC   C1B67219   0.714  36.080   6.455
10865POPC   C2B67220   0.658  36.153   6.755
10865POPC   C3B67221   0.656  36.157   7.055
10865POPC   C4B67222   0.673  36.170   7.355
10866POPC   NC367223  31.513  33.755   5.555
10866POPC   PO467224  31.435  33.831   5.855
10866POPC   GL167225  31.497  33.817   6.155
10866POPC   GL267226  31.566  33.816   6.155
10866POPC   C1A67227  31.520  33.767   6.455
10866POPC   D2A67228  31.484  33.828   6.755
10866POPC   C3A67229  31.514  33.809   7.055
10866POPC   C4A67230  31.474  33.790   7.355
10866POPC   C1B67231  31.734  33.833   6.455
10866POPC   C2B67232  31.676  33.807   6.755
10866POPC   C3B67233  31.674  33.801   7.055
10866POPC   C4B67234  31.714  33.869   7.355
10867POPC   NC367235  25.997  17.534   5.555
10867POPC   PO467236  26.003  17.534   5.855
10867POPC   GL167237  26.064  17.492   6.155
10867POPC   GL267238  26.161  17.560   6.155
10867POPC   C1A67239  26.058  17.538   6.455
10867POPC   D2A67240  26.084  17.518   6.755
10867POPC   C3A67241  26.011  17.473   7.055
10867POPC   C4A67242  26.029  17.490   7.355
10867POPC   C1B67243  26.183  17.741   6.455
10867POPC   C2B67244  26.206  17.660   6.755
10867POPC   C3B67245  26.190  17.737   7.055
10867POPC   C4B67246  26.233  17.727   7.355
10868POPC   NC367247  18.305  41.569   5.555
10868POPC   PO467248  18.253  41.587   5.855
10868POPC   GL167249  18.271  41.592   6.155
10868POPC   GL267250  18.436  41.629   6.155
10868POPC   C1A67251  18.327  41.539   6.455
10868POPC   D2A67252  18.297  41.588   6.755
10868POPC   C3A67253  18.306  41.608   7.055
10868POPC   C4A67254  18.278  41.568   7.355
10868POPC   C1B67255  18.520  41.648   6.455
10868POPC   C2B67256  18.488  41.617   6.755
10868POPC   C3B67257  18.485  41.659   7.055
10868POPC   C4B67258  18.533  41.610   7.355
10869POPC   NC367259  42.288  22.955   5.555
10869POPC   PO467260  42.329  22.905   5.855
10869POPC   GL167261  42.303  22.962   6.155
10869POPC   GL267262  42.294  23.050   6.155
10869POPC   C1A67263  42.344  22.906   6.455
10869POPC   D2A67264  42.380  22.967   6.755
10869POPC   C3A67265  42.361  22.979   7.055
10869POPC   C4A67266  42.349  22.961   7.355
10869POPC   C1B67267  42.274  23.134   6.455
10869POPC   C2B67268  42.291  23.169   6.755
10869POPC   C3B67269  42.233  23.133   7.055
10869POPC   C4B67270  42.241  23.228   7.355
10870POPC   NC367271  40.766  30.697   5.555
10870POPC   PO467272  40.803  30.658   5.855
10870POPC   GL167273  40.753  30.652   6.155
10870POPC   GL267274  40.951  30.615   6.155
10870POPC   C1A67275  40.821  30.691   6.455
10870POPC   D2A67276  40.813  30.715   6.755
10870POPC   C3A67277  40.819  30.718   7.055
10870POPC   C4A67278  40.809  30.719   7.355
10870POPC   C1B67279  41.042  30.628   6.455
10870POPC   C2B67280  41.044  30.617   6.755
10870POPC   C3B67281  41.015  30.625   7.055
10870POPC   C4B67282  40.983  30.651   7.355
10871POPC   NC367283  22.967  15.165   5.555
10871POPC   PO467284  22.907  15.211   5.855
10871POPC   GL167285  22.942  15.179   6.155
10871POPC   GL267286  22.854  15.103   6.155
10871POPC   C1A67287  22.934  15.150   6.455
10871POPC   D2A67288  22.986  15.195   6.755
10871POPC   C3A67289  22.930  15.143   7.055
10871POPC   C4A67290  22.985  15.161   7.355
10871POPC   C1B67291  22.732  15.039   6.455
10871POPC   C2B67292  22.754  15.001   6.755
10871POPC   C3B67293  22.770  15.008   7.055
10871POPC   C4B67294  22.812  14.971   7.355
10872POPC   NC367295  13.588  24.471   5.555
10872POPC   PO467296  13.652  24.539   5.855
10872POPC   GL167297  13.673  24.466   6.155
10872POPC   GL267298  13.531  24.418   6.155
10872POPC   C1A67299  13.660  24.468   6.455
10872POPC   D2A67300  13.614  24.504   6.755
10872POPC   C3A67301  13.677  24.535   7.055
10872POPC   C4A67302  13.624  24.510   7.355
10872POPC   C1B67303  13.423  24.294   6.455
10872POPC   C2B67304  13.431  24.305   6.755
10872POPC   C3B67305  13.431  24.293   7.055
10872POPC   C4B67306  13.413  24.336   7.355
10873POPC   NC367307  44.651  19.817   5.555
10873POPC   PO467308  44.613  19.870   5.855
10873POPC   GL167309  44.620  19.852   6.155
10873POPC   GL267310  44.654  19.942   6.155
10873POPC   C1A67311  44.635  19.794   6.455
10873POPC   D2A67312  44.705  19.824   6.755
10873POPC   C3A67313  44.659  19.803   7.055
10873POPC   C4A67314  44.681  19.790   7.355
10873POPC   C1B67315  44.714  20.063   6.455
10873POPC   C2B67316  44.690  20.039   6.755
10873POPC   C3B67317  44.748  20.124   7.055
10873POPC   C4B67318  44.665  20.113   7.355
10874POPC   NC367319   5.052   2.793   5.555
10874POPC   PO467320   5.056   2.813   5.855
10874POPC   GL167321   5.046   2.744   6.155
10874POPC   GL267322   5.193   2.710   6.155
10874POPC   C1A67323   5.136   2.751   6.455
10874POPC   D2A67324   5.139   2.726   6.755
10874POPC   C3A67325   5.112   2.741   7.055
10874POPC   C4A67326   5.119   2.767   7.355
10874POPC   C1B67327   5.301   2.620   6.455
10874POPC   C2B67328   5.283   2.702   6.755
10874POPC   C3B67329   5.299   2.662   7.055
10874POPC   C4B67330   5.288   2.619   7.355
10875POPC   NC367331  27.630   2.010   5.555
10875POPC   PO467332  27.633   1.996   5.855
10875POPC   GL167333  27.639   2.022   6.155
10875POPC   GL267334  27.442   1.931   6.155
10875POPC   C1A67335  27.582   1.959   6.455
10875POPC   D2A67336  27.624   1.946   6.755
10875POPC   C3A67337  27.633   1.995   7.055
10875POPC   C4A67338  27.592   2.034   7.355
10875POPC   C1B67339  27.324   1.997   6.455
10875POPC   C2B67340  27.331   1.965   6.755
10875POPC   C3B67341  27.369   1.951   7.055
10875POPC   C4B67342  27.384   1.941   7.355
10876POPC   NC367343  22.196  42.314   5.555
10876POPC   PO467344  22.164  42.377   5.855
10876POPC   GL167345  22.152  42.328   6.155
10876POPC   GL267346  22.179  42.216   6.155
10876POPC   C1A67347  22.123  42.384   6.455
10876POPC   D2A67348  22.187  42.365   6.755
10876POPC   C3A67349  22.112  42.373   7.055
10876POPC   C4A67350  22.169  42.297   7.355
10876POPC   C1B67351  22.248  42.084   6.455
10876POPC   C2B67352  22.326  42.104   6.755
10876POPC   C3B67353  22.257  42.072   7.055
10876POPC   C4B67354  22.302  42.161   7.355
10877POPC   NC367355  26.051  15.991   5.555
10877POPC   PO467356  26.091  15.991   5.855
10877POPC   GL167357  26.065  15.997   6.155
10877POPC   GL267358  26.152  16.112   6.155
10877POPC   C1A67359  26.030  15.977   6.455
10877POPC   D2A67360  26.053  15.987   6.755
10877POPC   C3A67361  26.045  15.913   7.055
10877POPC   C4A67362  26.014  15.924   7.355
10877POPC   C1B67363  26.180  16.221   6.455
10877POPC   C2B67364  26.179  16.213   6.755
10877POPC   C3B67365  26.134  16.176   7.055
10877POPC   C4B67366  26.186  16.127   7.355
10878POPC   NC367367  29.133   5.124   5.555
10878POPC   PO467368  29.123   5.110   5.855
10878POPC   GL167369  29.135   5.123   6.155
10878POPC   GL267370  29.088   5.170   6.155
10878POPC   C1A67371  29.159   5.058   6.455
10878POPC   D2A67372  29.161   5.062   6.755
10878POPC   C3A67373  29.134   5.052   7.055
10878POPC   C4A67374  29.142   5.062   7.355
10878POPC   C1B67375  28.999   5.223   6.455
10878POPC   C2B67376  28.945   5.294   6.755
10878POPC   C3B67377  29.004   5.261   7.055
10878POPC   C4B67378  28.972   5.236   7.355
10879POPC   NC367379  14.376  42.383   5.555
10879POPC   PO467380  14.452  42.315   5.855
10879POPC   GL167381  14.369  42.333   6.155
10879POPC   GL267382  14.440  42.399   6.155
10879POPC   C1A67383  14.443  42.300   6.455
10879POPC   D2A67384  14.445  42.311   6.755
10879POPC   C3A67385  14.411  42.381   7.055
10879POPC   C4A67386  14.449  42.354   7.355
10879POPC   C1B67387  14.587  42.533   6.455
10879POPC   C2B67388  14.513  42.537   6.755
10879POPC   C3B67389  14.553  42.496   7.055
10879POPC   C4B67390  14.602  42.548   7.355
10880POPC   NC367391  18.257  26.020   5.555
10880POPC   PO467392  18.259  26.007   5.855
10880POPC   GL167393  18.329  26.018   6.155
10880POPC   GL267394  18.424  26.114   6.155
10880POPC   C1A67395  18.328  26.073   6.455
10880POPC   D2A67396  18.271  26.034   6.755
10880POPC   C3A67397  18.269  26.090   7.055
10880POPC   C4A67398  18.237  26.024   7.355
10880POPC   C1B67399  18.484  26.185   6.455
10880POPC   C2B67400  18.547  26.136   6.755
10880POPC   C3B67401  18.496  26.193   7.055
10880POPC   C4B67402  18.471  26.184   7.355
10881POPC   NC367403  18.291  31.508   5.555
10881POPC   PO467404  18.270  31.503   5.855
10881POPC   GL167405  18.244  31.442   6.155
10881POPC   GL267406  18.246  31.359   6.155
10881POPC   C1A67407  18.319  31.503   6.455
10881POPC   D2A67408  18.307  31.507   6.755
10881POPC   C3A67409  18.244  31.429   7.055
10881POPC   C4A67410  18.270  31.517   7.355
10881POPC   C1B67411  18.264  31.175   6.455
10881POPC   C2B67412  18.340  31.219   6.755
10881POPC   C3B67413  18.293  31.178   7.055
10881POPC   C4B67414  18.271  31.197   7.355
10882POPC   NC367415  27.568  12.820   5.555
10882POPC   PO467416  27.580  12.876   5.855
10882POPC   GL167417  27.555  12.857   6.155
10882POPC   GL267418  27.620  13.009   6.155
10882POPC   C1A67419  27.593  12.863   6.455
10882POPC   D2A67420  27.609  12.877   6.755
10882POPC   C3A67421  27.605  12.866   7.055
10882POPC   C4A67422  27.583  12.878   7.355
10882POPC   C1B67423  27.541  13.131   6.455
10882POPC   C2B67424  27.539  13.135   6.755
10882POPC   C3B67425  27.590  13.124   7.055
10882POPC   C4B67426  27.602  13.113   7.355
10883POPC   NC367427   0.455  30.657   5.555
10883POPC   PO467428   0.470  30.665   5.855
10883POPC   GL167429   0.398  30.719   6.155
10883POPC   GL267430   0.376  30.549   6.155
10883POPC   C1A67431   0.457  30.684   6.455
10883POPC   D2A67432   0.398  30.744   6.755
10883POPC   C3A67433   0.439  30.662   7.055
10883POPC   C4A67434   0.403  30.736   7.355
10883POPC   C1B67435   0.423  30.443   6.455
10883POPC   C2B67436   0.371  30.444   6.755
10883POPC   C3B67437   0.417  30.463   7.055
10883POPC   C4B67438   0.399  30.426   7.355
10884POPC   NC367439  13.656   4.323   5.555
10884POPC   PO467440  13.629   4.305   5.855
10884POPC   GL167441  13.600   4.351   6.155
10884POPC   GL267442  13.456   4.283   6.155
10884POPC   C1A67443  13.608   4.271   6.455
10884POPC   D2A67444  13.672   4.360   6.755
10884POPC   C3A67445  13.600   4.311   7.055
10884POPC   C4A67446  13.613   4.323   7.355
10884POPC   C1B67447  13.403   4.335   6.455
10884POPC   C2B67448  13.420   4.261   6.755
10884POPC   C3B67449  13.333   4.281   7.055
10884POPC   C4B67450  13.344   4.360   7.355
10885POPC   NC367451  44.686  18.320   5.555
10885POPC   PO467452  44.655  18.318   5.855
10885POPC   GL167453  44.704  18.296   6.155
10885POPC   GL267454  44.590  18.370   6.155
10885POPC   C1A67455  44.700  18.332   6.455
10885POPC   D2A67456  44.623  18.262   6.755
10885POPC   C3A67457  44.703  18.315   7.055
10885POPC   C4A67458  44.692  18.263   7.355
10885POPC   C1B67459  44.423  18.466   6.455
10885POPC   C2B67460  44.443  18.463   6.755
10885POPC   C3B67461  44.472  18.449   7.055
10885POPC   C4B67462  44.507  18.458   7.355
10886POPC   NC367463  41.568  26.850   5.555
10886POPC   PO467464  41.531  26.821   5.855
10886POPC   GL167465  41.528  26.810   6.155
10886POPC   GL267466  41.571  26.679   6.155
10886POPC   C1A67467  41.581  26.860   6.455
10886POPC   D2A67468  41.527  26.852   6.755
10886POPC   C3A67469  41.547  26.837   7.055
10886POPC   C4A67470  41.547  26.828   7.355
10886POPC   C1B67471  41.621  26.610   6.455
10886POPC   C2B67472  41.657  26.594   6.755
10886POPC   C3B67473  41.648  26.563   7.055
10886POPC   C4B67474  41.679  26.567   7.355
10887POPC   NC367475  27.628  16.717   5.555
10887POPC   PO467476  27.547  16.780   5.855
10887POPC   GL167477  27.608  16.768   6.155
10887POPC   GL267478  27.626  16.626   6.155
10887POPC   C1A67479  27.584  16.695   6.455
10887POPC   D2A67480  27.626  16.779   6.755
10887POPC   C3A67481  27.561  16.701   7.055
10887POPC   C4A67482  27.584  16.696   7.355
10887POPC   C1B67483  27.558  16.490   6.455
10887POPC   C2B67484  27.603  16.519   6.755
10887POPC   C3B67485  27.569  16.514   7.055
10887POPC   C4B67486  27.580  16.464   7.355
10888POPC   NC367487  22.201  23.730   5.555
10888POPC   PO467488  22.190  23.705   5.855
10888POPC   GL167489  22.134  23.746   6.155
10888POPC   GL267490  22.118  23.820   6.155
10888POPC   C1A67491  22.178  23.708   6.455
10888POPC   D2A67492  22.169  23.763   6.755
10888POPC   C3A67493  22.160  23.677   7.055
10888POPC   C4A67494  22.155  23.716   7.355
10888POPC   C1B67495  22.034  23.904   6.455
10888POPC   C2B67496  22.042  23.962   6.755
10888POPC   C3B67497  22.096  23.936   7.055
10888POPC   C4B67498  22.027  23.956   7.355
10889POPC   NC367499  28.369  17.471   5.555
10889POPC   PO467500  28.355  17.503   5.855
10889POPC   GL167501  28.412  17.544   6.155
10889POPC   GL267502  28.266  17.529   6.155
10889POPC   C1A67503  28.319  17.526   6.455
10889POPC   D2A67504  28.352  17.550   6.755
10889POPC   C3A67505  28.359  17.518   7.055
10889POPC   C4A67506  28.346  17.460   7.355
10889POPC   C1B67507  28.135  17.555   6.455
10889POPC   C2B67508  28.127  17.543   6.755
10889POPC   C3B67509  28.154  17.604   7.055
10889POPC   C4B67510  28.168  17.578   7.355
10890POPC   NC367511  28.396  41.546   5.555
10890POPC   PO467512  28.338  41.553   5.855
10890POPC   GL167513  28.390  41.602   6.155
10890POPC   GL267514  28.489  41.546   6.155
10890POPC   C1A67515  28.348  41.586   6.455
10890POPC   D2A67516  28.322  41.576   6.755
10890POPC   C3A67517  28.396  41.515   7.055
10890POPC   C4A67518  28.358  41.527   7.355
10890POPC   C1B67519  28.627  41.423   6.455
10890POPC   C2B67520  28.624  41.474   6.755
10890POPC   C3B67521  28.568  41.497   7.055
10890POPC   C4B67522  28.576  41.495   7.355
10891POPC   NC367523  24.522  31.448   5.555
10891POPC   PO467524  24.536  31.426   5.855
10891POPC   GL167525  24.445  31.440   6.155
10891POPC   GL267526  24.402  31.494   6.155
10891POPC   C1A67527  24.537  31.425   6.455
10891POPC   D2A67528  24.522  31.423   6.755
10891POPC   C3A67529  24.451  31.433   7.055
10891POPC   C4A67530  24.481  31.470   7.355
10891POPC   C1B67531  24.247  31.463   6.455
10891POPC   C2B67532  24.226  31.425   6.755
10891POPC   C3B67533  24.207  31.421   7.055
10891POPC   C4B67534  24.282  31.378   7.355
10892POPC   NC367535  39.192  26.793   5.555
10892POPC   PO467536  39.211  26.853   5.855
10892POPC   GL167537  39.190  26.845   6.155
10892POPC   GL267538  39.375  26.815   6.155
10892POPC   C1A67539  39.220  26.768   6.455
10892POPC   D2A67540  39.263  26.818   6.755
10892POPC   C3A67541  39.259  26.790   7.055
10892POPC   C4A67542  39.252  26.770   7.355
10892POPC   C1B67543  39.473  26.907   6.455
10892POPC   C2B67544  39.491  26.912   6.755
10892POPC   C3B67545  39.470  26.867   7.055
10892POPC   C4B67546  39.509  26.863   7.355
10893POPC   NC367547  26.073   6.645   5.555
10893POPC   PO467548  26.072   6.654   5.855
10893POPC   GL167549  26.016   6.682   6.155
10893POPC   GL267550  26.153   6.588   6.155
10893POPC   C1A67551  26.086   6.641   6.455
10893POPC   D2A67552  26.021   6.634   6.755
10893POPC   C3A67553  26.002   6.661   7.055
10893POPC   C4A67554  26.060   6.688   7.355
10893POPC   C1B67555  26.247   6.463   6.455
10893POPC   C2B67556  26.217   6.508   6.755
10893POPC   C3B67557  26.284   6.477   7.055
10893POPC   C4B67558  26.246   6.542   7.355
10894POPC   NC367559  13.591   7.465   5.555
10894POPC   PO467560  13.634   7.387   5.855
10894POPC   GL167561  13.627   7.406   6.155
10894POPC   GL267562  13.510   7.351   6.155
10894POPC   C1A67563  13.617   7.398   6.455
10894POPC   D2A67564  13.588   7.426   6.755
10894POPC   C3A67565  13.610   7.448   7.055
10894POPC   C4A67566  13.586   7.456   7.355
10894POPC   C1B67567  13.491   7.208   6.455
10894POPC   C2B67568  13.483   7.303   6.755
10894POPC   C3B67569  13.419   7.302   7.055
10894POPC   C4B67570  13.481   7.264   7.355
10895POPC   NC367571  27.571  11.326   5.555
10895POPC   PO467572  27.639  11.297   5.855
10895POPC   GL167573  27.560  11.315   6.155
10895POPC   GL267574  27.538  11.240   6.155
10895POPC   C1A67575  27.636  11.315   6.455
10895POPC   D2A67576  27.580  11.268   6.755
10895POPC   C3A67577  27.563  11.262   7.055
10895POPC   C4A67578  27.642  11.277   7.355
10895POPC   C1B67579  27.400  11.158   6.455
10895POPC   C2B67580  27.462  11.089   6.755
10895POPC   C3B67581  27.429  11.145   7.055
10895POPC   C4B67582  27.457  11.155   7.355
10896POPC   NC367583  33.044  42.301   5.555
10896POPC   PO467584  33.045  42.368   5.855
10896POPC   GL167585  33.072  42.293   6.155
10896POPC   GL267586  33.044  42.500   6.155
10896POPC   C1A67587  33.064  42.291   6.455
10896POPC   D2A67588  33.034  42.357   6.755
10896POPC   C3A67589  33.065  42.337   7.055
10896POPC   C4A67590  33.005  42.338   7.355
10896POPC   C1B67591  33.042  42.607   6.455
10896POPC   C2B67592  33.095  42.574   6.755
10896POPC   C3B67593  33.094  42.558   7.055
10896POPC   C4B67594  33.107  42.604   7.355
10897POPC   NC367595   2.804  43.902   5.555
10897POPC   PO467596   2.744  43.880   5.855
10897POPC   GL167597   2.759  43.846   6.155
10897POPC   GL267598   2.739  43.988   6.155
10897POPC   C1A67599   2.743  43.844   6.455
10897POPC   D2A67600   2.815  43.911   6.755
10897POPC   C3A67601   2.766  43.920   7.055
10897POPC   C4A67602   2.791  43.838   7.355
10897POPC   C1B67603   2.831  44.168   6.455
10897POPC   C2B67604   2.789  44.124   6.755
10897POPC   C3B67605   2.830  44.177   7.055
10897POPC   C4B67606   2.824  44.159   7.355
10898POPC   NC367607   3.499   6.632   5.555
10898POPC   PO467608   3.501   6.618   5.855
10898POPC   GL167609   3.589   6.623   6.155
10898POPC   GL267610   3.632   6.707   6.155
10898POPC   C1A67611   3.580   6.614   6.455
10898POPC   D2A67612   3.523   6.690   6.755
10898POPC   C3A67613   3.551   6.600   7.055
10898POPC   C4A67614   3.511   6.643   7.355
10898POPC   C1B67615   3.761   6.753   6.455
10898POPC   C2B67616   3.794   6.754   6.755
10898POPC   C3B67617   3.754   6.771   7.055
10898POPC   C4B67618   3.820   6.749   7.355
10899POPC   NC367619  17.477  17.481   5.555
10899POPC   PO467620  17.493  17.515   5.855
10899POPC   GL167621  17.494  17.539   6.155
10899POPC   GL267622  17.525  17.613   6.155
10899POPC   C1A67623  17.516  17.521   6.455
10899POPC   D2A67624  17.493  17.501   6.755
10899POPC   C3A67625  17.533  17.506   7.055
10899POPC   C4A67626  17.538  17.530   7.355
10899POPC   C1B67627  17.597  17.689   6.455
10899POPC   C2B67628  17.660  17.703   6.755
10899POPC   C3B67629  17.668  17.718   7.055
10899POPC   C4B67630  17.619  17.686   7.355
10900POPC   NC367631  19.011  43.078   5.555
10900POPC   PO467632  19.095  43.152   5.855
10900POPC   GL167633  19.031  43.099   6.155
10900POPC   GL267634  19.137  43.189   6.155
10900POPC   C1A67635  19.095  43.063   6.455
10900POPC   D2A67636  19.019  43.144   6.755
10900POPC   C3A67637  19.013  43.109   7.055
10900POPC   C4A67638  19.062  43.136   7.355
10900POPC   C1B67639  19.112  43.346   6.455
10900POPC   C2B67640  19.190  43.358   6.755
10900POPC   C3B67641  19.163  43.307   7.055
10900POPC   C4B67642  19.117  43.382   7.355
10901POPC   NC367643  11.305   5.835   5.555
10901POPC   PO467644  11.255   5.827   5.855
10901POPC   GL167645  11.350   5.872   6.155
10901POPC   GL267646  11.408   5.963   6.155
10901POPC   C1A67647  11.320   5.910   6.455
10901POPC   D2A67648  11.252   5.821   6.755
10901POPC   C3A67649  11.338   5.836   7.055
10901POPC   C4A67650  11.284   5.870   7.355
10901POPC   C1B67651  11.424   6.057   6.455
10901POPC   C2B67652  11.465   6.019   6.755
10901POPC   C3B67653  11.447   6.061   7.055
10901POPC   C4B67654  11.452   6.018   7.355
10902POPC   NC367655  40.829  21.367   5.555
10902POPC   PO467656  40.746  21.433   5.855
10902POPC   GL167657  40.772  21.357   6.155
10902POPC   GL267658  40.756  21.272   6.155
10902POPC   C1A67659  40.733  21.396   6.455
10902POPC   D2A67660  40.759  21.351   6.755
10902POPC   C3A67661  40.754  21.427   7.055
10902POPC   C4A67662  40.742  21.377   7.355
10902POPC   C1B67663  40.769  21.179   6.455
10902POPC   C2B67664  40.692  21.121   6.755
10902POPC   C3B67665  40.774  21.136   7.055
10902POPC   C4B67666  40.756  21.145   7.355
10903POPC   NC367667  12.901   4.347   5.555
10903POPC   PO467668  12.888   4.347   5.855
10903POPC   GL167669  12.805   4.295   6.155
10903POPC   GL267670  12.899   4.466   6.155
10903POPC   C1A67671  12.866   4.281   6.455
10903POPC   D2A67672  12.846   4.348   6.755
10903POPC   C3A67673  12.890   4.269   7.055
10903POPC   C4A67674  12.834   4.309   7.355
10903POPC   C1B67675  12.989   4.577   6.455
10903POPC   C2B67676  13.005   4.502   6.755
10903POPC   C3B67677  12.994   4.504   7.055
10903POPC   C4B67678  12.948   4.525   7.355
10904POPC   NC367679  40.776   2.026   5.555
10904POPC   PO467680  40.808   2.029   5.855
10904POPC   GL167681  40.771   1.960   6.155
10904POPC   GL267682  40.812   2.063   6.155
10904POPC   C1A67683  40.741   2.007   6.455
10904POPC   D2A67684  40.808   1.988   6.755
10904POPC   C3A67685  40.765   1.955   7.055
10904POPC   C4A67686  40.773   1.999   7.355
10904POPC   C1B67687  40.812   2.279   6.455
10904POPC   C2B67688  40.857   2.193   6.755
10904POPC   C3B67689  40.888   2.208   7.055
10904POPC   C4B67690  40.885   2.276   7.355
10905POPC   NC367691  40.788  43.065   5.555
10905POPC   PO467692  40.824  43.125   5.855
10905POPC   GL167693  40.746  43.134   6.155
10905POPC   GL267694  40.647  43.001   6.155
10905POPC   C1A67695  40.828  43.108   6.455
10905POPC   D2A67696  40.804  43.144   6.755
10905POPC   C3A67697  40.740  43.107   7.055
10905POPC   C4A67698  40.806  43.065   7.355
10905POPC   C1B67699  40.620  42.972   6.455
10905POPC   C2B67700  40.638  42.897   6.755
10905POPC   C3B67701  40.584  42.990   7.055
10905POPC   C4B67702  40.607  42.920   7.355
10906POPC   NC367703  22.180  39.974   5.555
10906POPC   PO467704  22.118  39.998   5.855
10906POPC   GL167705  22.139  40.042   6.155
10906POPC   GL267706  22.052  39.966   6.155
10906POPC   C1A67707  22.196  40.019   6.455
10906POPC   D2A67708  22.153  40.016   6.755
10906POPC   C3A67709  22.113  40.028   7.055
10906POPC   C4A67710  22.131  40.008   7.355
10906POPC   C1B67711  21.881  39.998   6.455
10906POPC   C2B67712  21.933  39.954   6.755
10906POPC   C3B67713  21.911  39.975   7.055
10906POPC   C4B67714  21.929  40.026   7.355
10907POPC   NC367715  25.217  40.779   5.555
10907POPC   PO467716  25.250  40.745   5.855
10907POPC   GL167717  25.269  40.785   6.155
10907POPC   GL267718  25.295  40.631   6.155
10907POPC   C1A67719  25.228  40.800   6.455
10907POPC   D2A67720  25.292  40.757   6.755
10907POPC   C3A67721  25.257  40.818   7.055
10907POPC   C4A67722  25.270  40.753   7.355
10907POPC   C1B67723  25.308  40.498   6.455
10907POPC   C2B67724  25.223  40.553   6.755
10907POPC   C3B67725  25.270  40.537   7.055
10907POPC   C4B67726  25.271  40.565   7.355
10908POPC   NC367727   7.394   8.972   5.555
10908POPC   PO467728   7.418   8.970   5.855
10908POPC   GL167729   7.403   8.967   6.155
10908POPC   GL267730   7.475   8.836   6.155
10908POPC   C1A67731   7.429   8.959   6.455
10908POPC   D2A67732   7.386   8.939   6.755
10908POPC   C3A67733   7.380   8.992   7.055
10908POPC   C4A67734   7.416   8.954   7.355
10908POPC   C1B67735   7.586   8.785   6.455
10908POPC   C2B67736   7.559   8.749   6.755
10908POPC   C3B67737   7.551   8.733   7.055
10908POPC   C4B67738   7.587   8.750   7.355
10909POPC   NC367739   6.601   9.730   5.555
10909POPC   PO467740   6.615   9.784   5.855
10909POPC   GL167741   6.600   9.724   6.155
10909POPC   GL267742   6.719   9.801   6.155
10909POPC   C1A67743   6.631   9.698   6.455
10909POPC   D2A67744   6.649   9.719   6.755
10909POPC   C3A67745   6.618   9.737   7.055
10909POPC   C4A67746   6.613   9.770   7.355
10909POPC   C1B67747   6.875   9.822   6.455
10909POPC   C2B67748   6.931   9.746   6.755
10909POPC   C3B67749   6.846   9.749   7.055
10909POPC   C4B67750   6.926   9.754   7.355
10910POPC   NC367751  30.700  38.493   5.555
10910POPC   PO467752  30.729  38.420   5.855
10910POPC   GL167753  30.683  38.469   6.155
10910POPC   GL267754  30.541  38.524   6.155
10910POPC   C1A67755  30.659  38.491   6.455
10910POPC   D2A67756  30.713  38.491   6.755
10910POPC   C3A67757  30.668  38.438   7.055
10910POPC   C4A67758  30.738  38.448   7.355
10910POPC   C1B67759  30.466  38.514   6.455
10910POPC   C2B67760  30.427  38.457   6.755
10910POPC   C3B67761  30.438  38.542   7.055
10910POPC   C4B67762  30.441  38.541   7.355
10911POPC   NC367763  29.877  24.450   5.555
10911POPC   PO467764  29.939  24.446   5.855
10911POPC   GL167765  29.891  24.521   6.155
10911POPC   GL267766  29.927  24.376   6.155
10911POPC   C1A67767  29.909  24.493   6.455
10911POPC   D2A67768  29.961  24.440   6.755
10911POPC   C3A67769  29.872  24.508   7.055
10911POPC   C4A67770  29.933  24.443   7.355
10911POPC   C1B67771  29.905  24.254   6.455
10911POPC   C2B67772  29.903  24.280   6.755
10911POPC   C3B67773  29.927  24.198   7.055
10911POPC   C4B67774  29.898  24.203   7.355
10912POPC   NC367775  43.930   1.191   5.555
10912POPC   PO467776  43.856   1.243   5.855
10912POPC   GL167777  43.933   1.236   6.155
10912POPC   GL267778  44.037   1.173   6.155
10912POPC   C1A67779  43.928   1.172   6.455
10912POPC   D2A67780  43.857   1.213   6.755
10912POPC   C3A67781  43.849   1.256   7.055
10912POPC   C4A67782  43.932   1.261   7.355
10912POPC   C1B67783  44.143   1.076   6.455
10912POPC   C2B67784  44.123   1.147   6.755
10912POPC   C3B67785  44.102   1.091   7.055
10912POPC   C4B67786  44.122   1.113   7.355
10913POPC   NC367787  43.145  10.525   5.555
10913POPC   PO467788  43.086  10.539   5.855
10913POPC   GL167789  43.131  10.516   6.155
10913POPC   GL267790  43.014  10.628   6.155
10913POPC   C1A67791  43.147  10.490   6.455
10913POPC   D2A67792  43.127  10.527   6.755
10913POPC   C3A67793  43.107  10.504   7.055
10913POPC   C4A67794  43.071  10.510   7.355
10913POPC   C1B67795  42.915  10.699   6.455
10913POPC   C2B67796  42.906  10.696   6.755
10913POPC   C3B67797  42.886  10.682   7.055
10913POPC   C4B67798  42.911  10.648   7.355
10914POPC   NC367799  30.689   9.002   5.555
10914POPC   PO467800  30.733   8.929   5.855
10914POPC   GL167801  30.650   8.937   6.155
10914POPC   GL267802  30.655   8.872   6.155
10914POPC   C1A67803  30.739   8.988   6.455
10914POPC   D2A67804  30.729   8.964   6.755
10914POPC   C3A67805  30.665   9.009   7.055
10914POPC   C4A67806  30.686   8.987   7.355
10914POPC   C1B67807  30.552   8.741   6.455
10914POPC   C2B67808  30.556   8.712   6.755
10914POPC   C3B67809  30.639   8.774   7.055
10914POPC   C4B67810  30.587   8.718   7.355
10915POPC   NC367811  15.946  40.018   5.555
10915POPC   PO467812  15.939  40.047   5.855
10915POPC   GL167813  15.918  39.991   6.155
10915POPC   GL267814  15.996  39.894   6.155
10915POPC   C1A67815  15.950  39.962   6.455
10915POPC   D2A67816  15.936  39.997   6.755
10915POPC   C3A67817  15.931  40.039   7.055
10915POPC   C4A67818  15.957  40.052   7.355
10915POPC   C1B67819  16.097  39.832   6.455
10915POPC   C2B67820  16.073  39.773   6.755
10915POPC   C3B67821  16.052  39.764   7.055
10915POPC   C4B67822  16.045  39.770   7.355
10916POPC   NC367823  17.468  32.255   5.555
10916POPC   PO467824  17.504  32.287   5.855
10916POPC   GL167825  17.481  32.265   6.155
10916POPC   GL267826  17.622  32.276   6.155
10916POPC   C1A67827  17.532  32.216   6.455
10916POPC   D2A67828  17.521  32.267   6.755
10916POPC   C3A67829  17.495  32.221   7.055
10916POPC   C4A67830  17.483  32.226   7.355
10916POPC   C1B67831  17.761  32.196   6.455
10916POPC   C2B67832  17.736  32.187   6.755
10916POPC   C3B67833  17.724  32.238   7.055
10916POPC   C4B67834  17.768  32.234   7.355
10917POPC   NC367835  15.962  15.944   5.555
10917POPC   PO467836  15.969  16.002   5.855
10917POPC   GL167837  15.918  15.925   6.155
10917POPC   GL267838  16.062  15.839   6.155
10917POPC   C1A67839  15.934  15.912   6.455
10917POPC   D2A67840  15.989  15.985   6.755
10917POPC   C3A67841  15.960  15.908   7.055
10917POPC   C4A67842  15.921  15.939   7.355
10917POPC   C1B67843  16.074  15.717   6.455
10917POPC   C2B67844  16.078  15.801   6.755
10917POPC   C3B67845  16.153  15.755   7.055
10917POPC   C4B67846  16.094  15.784   7.355
10918POPC   NC367847  12.093  12.074   5.555
10918POPC   PO467848  12.080  12.030   5.855
10918POPC   GL167849  12.029  12.065   6.155
10918POPC   GL267850  12.039  12.233   6.155
10918POPC   C1A67851  12.056  12.081   6.455
10918POPC   D2A67852  12.125  12.031   6.755
10918POPC   C3A67853  12.102  12.116   7.055
10918POPC   C4A67854  12.079  12.049   7.355
10918POPC   C1B67855  12.038  12.318   6.455
10918POPC   C2B67856  11.990  12.284   6.755
10918POPC   C3B67857  12.064  12.335   7.055
10918POPC   C4B67858  12.052  12.323   7.355
10919POPC   NC367859  43.153  44.683   5.555
10919POPC   PO467860  43.159  44.668   5.855
10919POPC   GL167861  43.110  44.667   6.155
10919POPC   GL267862  43.041  44.516   6.155
10919POPC   C1A67863  43.156  44.703   6.455
10919POPC   D2A67864  43.140  44.631   6.755
10919POPC   C3A67865  43.116  44.642   7.055
10919POPC   C4A67866  43.114  44.619   7.355
10919POPC   C1B67867  43.022  44.386   6.455
10919POPC   C2B67868  42.985  44.462   6.755
10919POPC   C3B67869  43.047  44.447   7.055
10919POPC   C4B67870  43.033  44.414   7.355
10920POPC   NC367871  10.548  20.623   5.555
10920POPC   PO467872  10.543  20.592   5.855
10920POPC   GL167873  10.529  20.597   6.155
10920POPC   GL267874  10.674  20.674   6.155
10920POPC   C1A67875  10.528  20.600   6.455
10920POPC   D2A67876  10.512  20.649   6.755
10920POPC   C3A67877  10.530  20.619   7.055
10920POPC   C4A67878  10.551  20.643   7.355
10920POPC   C1B67879  10.790  20.722   6.455
10920POPC   C2B67880  10.788  20.684   6.755
10920POPC   C3B67881  10.703  20.699   7.055
10920POPC   C4B67882  10.774  20.721   7.355
10921POPC   NC367883   1.977  22.159   5.555
10921POPC   PO467884   2.025  22.168   5.855
10921POPC   GL167885   1.948  22.172   6.155
10921POPC   GL267886   2.064  22.320   6.155
10921POPC   C1A67887   2.021  22.151   6.455
10921POPC   D2A67888   2.007  22.145   6.755
10921POPC   C3A67889   1.962  22.211   7.055
10921POPC   C4A67890   1.953  22.206   7.355
10921POPC   C1B67891   2.030  22.357   6.455
10921POPC   C2B67892   2.044  22.427   6.755
10921POPC   C3B67893   2.033  22.402   7.055
10921POPC   C4B67894   2.061  22.412   7.355
10922POPC   NC367895   5.891  29.877   5.555
10922POPC   PO467896   5.838  29.929   5.855
10922POPC   GL167897   5.854  29.928   6.155
10922POPC   GL267898   5.982  29.920   6.155
10922POPC   C1A67899   5.916  29.946   6.455
10922POPC   D2A67900   5.893  29.939   6.755
10922POPC   C3A67901   5.881  29.913   7.055
10922POPC   C4A67902   5.867  29.931   7.355
10922POPC   C1B67903   6.074  29.954   6.455
10922POPC   C2B67904   6.125  29.946   6.755
10922POPC   C3B67905   6.153  29.891   7.055
10922POPC   C4B67906   6.144  29.913   7.355
10923POPC   NC367907  27.592  10.499   5.555
10923POPC   PO467908  27.614  10.537   5.855
10923POPC   GL167909  27.635  10.492   6.155
10923POPC   GL267910  27.614  10.636   6.155
10923POPC   C1A67911  27.615  10.567   6.455
10923POPC   D2A67912  27.568  10.505   6.755
10923POPC   C3A67913  27.592  10.548   7.055
10923POPC   C4A67914  27.625  10.487   7.355
10923POPC   C1B67915  27.607  10.779   6.455
10923POPC   C2B67916  27.531  10.725   6.755
10923POPC   C3B67917  27.594  10.769   7.055
10923POPC   C4B67918  27.552  10.739   7.355
10924POPC   NC367919  15.175  16.747   5.555
10924POPC   PO467920  15.171  16.763   5.855
10924POPC   GL167921  15.150  16.768   6.155
10924POPC   GL267922  15.242  16.682   6.155
10924POPC   C1A67923  15.223  16.711   6.455
10924POPC   D2A67924  15.134  16.756   6.755
10924POPC   C3A67925  15.170  16.759   7.055
10924POPC   C4A67926  15.192  16.698   7.355
10924POPC   C1B67927  15.357  16.532   6.455
10924POPC   C2B67928  15.372  16.546   6.755
10924POPC   C3B67929  15.348  16.556   7.055
10924POPC   C4B67930  15.308  16.571   7.355
10925POPC   NC367931  36.148  36.900   5.555
10925POPC   PO467932  36.170  36.919   5.855
10925POPC   GL167933  36.142  36.897   6.155
10925POPC   GL267934  36.036  36.748   6.155
10925POPC   C1A67935  36.078  36.930   6.455
10925POPC   D2A67936  36.114  36.944   6.755
10925POPC   C3A67937  36.121  36.916   7.055
10925POPC   C4A67938  36.149  36.876   7.355
10925POPC   C1B67939  36.029  36.683   6.455
10925POPC   C2B67940  35.989  36.682   6.755
10925POPC   C3B67941  36.029  36.657   7.055
10925POPC   C4B67942  36.035  36.673   7.355
10926POPC   NC367943   2.722  42.348   5.555
10926POPC   PO467944   2.773  42.364   5.855
10926POPC   GL167945   2.763  42.328   6.155
10926POPC   GL267946   2.869  42.391   6.155
10926POPC   C1A67947   2.735  42.376   6.455
10926POPC   D2A67948   2.740  42.325   6.755
10926POPC   C3A67949   2.732  42.376   7.055
10926POPC   C4A67950   2.809  42.286   7.355
10926POPC   C1B67951   2.993  42.475   6.455
10926POPC   C2B67952   2.932  42.468   6.755
10926POPC   C3B67953   2.968  42.489   7.055
10926POPC   C4B67954   2.978  42.502   7.355
10927POPC   NC367955   7.396  30.672   5.555
10927POPC   PO467956   7.416  30.722   5.855
10927POPC   GL167957   7.408  30.705   6.155
10927POPC   GL267958   7.398  30.772   6.155
10927POPC   C1A67959   7.413  30.684   6.455
10927POPC   D2A67960   7.376  30.694   6.755
10927POPC   C3A67961   7.414  30.654   7.055
10927POPC   C4A67962   7.418  30.683   7.355
10927POPC   C1B67963   7.325  30.969   6.455
10927POPC   C2B67964   7.362  30.961   6.755
10927POPC   C3B67965   7.310  30.938   7.055
10927POPC   C4B67966   7.307  30.955   7.355
10928POPC   NC367967  39.957  32.289   5.555
10928POPC   PO467968  40.046  32.200   5.855
10928POPC   GL167969  39.989  32.224   6.155
10928POPC   GL267970  39.872  32.194   6.155
10928POPC   C1A67971  40.003  32.219   6.455
10928POPC   D2A67972  39.969  32.269   6.755
10928POPC   C3A67973  40.008  32.198   7.055
10928POPC   C4A67974  40.030  32.203   7.355
10928POPC   C1B67975  39.791  32.176   6.455
10928POPC   C2B67976  39.771  32.208   6.755
10928POPC   C3B67977  39.759  32.187   7.055
10928POPC   C4B67978  39.800  32.200   7.355
10929POPC   NC367979  39.198  36.086   5.555
10929POPC   PO467980  39.186  36.088   5.855
10929POPC   GL167981  39.244  36.104   6.155
10929POPC   GL267982  39.191  36.292   6.155
10929POPC   C1A67983  39.276  36.115   6.455
10929POPC   D2A67984  39.267  36.163   6.755
10929POPC   C3A67985  39.268  36.154   7.055
10929POPC   C4A67986  39.224  36.096   7.355
10929POPC   C1B67987  39.246  36.424   6.455
10929POPC   C2B67988  39.259  36.363   6.755
10929POPC   C3B67989  39.184  36.401   7.055
10929POPC   C4B67990  39.178  36.423   7.355
10930POPC   NC367991   1.207   0.407   5.555
10930POPC   PO467992   1.201   0.400   5.855
10930POPC   GL167993   1.226   0.410   6.155
10930POPC   GL267994   1.325   0.318   6.155
10930POPC   C1A67995   1.170   0.416   6.455
10930POPC   D2A67996   1.239   0.408   6.755
10930POPC   C3A67997   1.226   0.418   7.055
10930POPC   C4A67998   1.210   0.445   7.355
10930POPC   C1B67999   1.444   0.290   6.455
10930POPC   C2B68000   1.379   0.298   6.755
10930POPC   C3B68001   1.403   0.299   7.055
10930POPC   C4B68002   1.414   0.294   7.355
10931POPC   NC368003  36.945  39.974   5.555
10931POPC   PO468004  36.905  40.007   5.855
10931POPC   GL168005  36.950  39.964   6.155
10931POPC   GL268006  36.829  40.094   6.155
10931POPC   C1A68007  36.930  39.970   6.455
10931POPC   D2A68008  36.914  39.999   6.755
10931POPC   C3A68009  36.856  39.996   7.055
10931POPC   C4A68010  36.931  40.020   7.355
10931POPC   C1B68011  36.733  40.143   6.455
10931POPC   C2B68012  36.694  40.165   6.755
10931POPC   C3B68013  36.726  40.142   7.055
10931POPC   C4B68014  36.686  40.129   7.355
10932POPC   NC368015  26.059  40.026   5.555
10932POPC   PO468016  26.052  39.988   5.855
10932POPC   GL168017  26.068  40.036   6.155
10932POPC   GL268018  25.962  40.015   6.155
10932POPC   C1A68019  26.017  40.055   6.455
10932POPC   D2A68020  26.025  39.971   6.755
10932POPC   C3A68021  25.997  39.988   7.055
10932POPC   C4A68022  26.001  40.034   7.355
10932POPC   C1B68023  25.817  40.106   6.455
10932POPC   C2B68024  25.786  40.167   6.755
10932POPC   C3B68025  25.852  40.100   7.055
10932POPC   C4B68026  25.841  40.149   7.355
10933POPC   NC368027  12.075  33.068   5.555
10933POPC   PO468028  12.081  33.046   5.855
10933POPC   GL168029  12.031  33.057   6.155
10933POPC   GL268030  12.056  32.902   6.155
10933POPC   C1A68031  12.114  33.033   6.455
10933POPC   D2A68032  12.060  32.991   6.755
10933POPC   C3A68033  12.111  33.009   7.055
10933POPC   C4A68034  12.107  33.030   7.355
10933POPC   C1B68035  12.041  32.767   6.455
10933POPC   C2B68036  12.015  32.829   6.755
10933POPC   C3B68037  12.026  32.802   7.055
10933POPC   C4B68038  11.975  32.804   7.355
10934POPC   NC368039  19.883   5.079   5.555
10934POPC   PO468040  19.798   5.071   5.855
10934POPC   GL168041  19.829   5.100   6.155
10934POPC   GL268042  19.740   5.084   6.155
10934POPC   C1A68043  19.790   5.123   6.455
10934POPC   D2A68044  19.858   5.102   6.755
10934POPC   C3A68045  19.842   5.071   7.055
10934POPC   C4A68046  19.800   5.059   7.355
10934POPC   C1B68047  19.614   5.038   6.455
10934POPC   C2B68048  19.541   5.034   6.755
10934POPC   C3B68049  19.617   5.046   7.055
10934POPC   C4B68050  19.598   5.082   7.355
10935POPC   NC368051   0.467  19.819   5.555
10935POPC   PO468052   0.396  19.845   5.855
10935POPC   GL168053   0.401  19.875   6.155
10935POPC   GL268054   0.393  19.715   6.155
10935POPC   C1A68055   0.470  19.822   6.455
10935POPC   D2A68056   0.461  19.791   6.755
10935POPC   C3A68057   0.457  19.865   7.055
10935POPC   C4A68058   0.410  19.881   7.355
10935POPC   C1B68059   0.298  19.599   6.455
10935POPC   C2B68060   0.333  19.615   6.755
10935POPC   C3B68061   0.335  19.651   7.055
10935POPC   C4B68062   0.311  19.615   7.355
10936POPC   NC368063  26.830  44.635   5.555
10936POPC   PO468064  26.768  44.633   5.855
10936POPC   GL168065  26.846  44.694   6.155
10936POPC   GL268066  26.758  44.761   6.155
10936POPC   C1A68067  26.832  44.709   6.455
10936POPC   D2A68068  26.841  44.620   6.755
10936POPC   C3A68069  26.773  44.659   7.055
10936POPC   C4A68070  26.845  44.689   7.355
10936POPC   C1B68071  26.568  44.828   6.455
10936POPC   C2B68072  26.634  44.842   6.755
10936POPC   C3B68073  26.641  44.753   7.055
10936POPC   C4B68074  26.588  44.812   7.355
10937POPC   NC368075   0.435  31.519   5.555
10937POPC   PO468076   0.403  31.445   5.855
10937POPC   GL168077   0.468  31.456   6.155
10937POPC   GL268078   0.510  31.400   6.155
10937POPC   C1A68079   0.440  31.518   6.455
10937POPC   D2A68080   0.454  31.495   6.755
10937POPC   C3A68081   0.467  31.425   7.055
10937POPC   C4A68082   0.474  31.489   7.355
10937POPC   C1B68083   0.472  31.183   6.455
10937POPC   C2B68084   0.522  31.200   6.755
10937POPC   C3B68085   0.473  31.210   7.055
10937POPC   C4B68086   0.529  31.274   7.355
10938POPC   NC368087   8.149  33.762   5.555
10938POPC   PO468088   8.190  33.819   5.855
10938POPC   GL168089   8.195  33.832   6.155
10938POPC   GL268090   8.291  33.801   6.155
10938POPC   C1A68091   8.194  33.770   6.455
10938POPC   D2A68092   8.183  33.774   6.755
10938POPC   C3A68093   8.189  33.775   7.055
10938POPC   C4A68094   8.177  33.815   7.355
10938POPC   C1B68095   8.466  33.779   6.455
10938POPC   C2B68096   8.478  33.791   6.755
10938POPC   C3B68097   8.403  33.806   7.055
10938POPC   C4B68098   8.403  33.790   7.355
10939POPC   NC368099   7.408   2.005   5.555
10939POPC   PO468100   7.462   2.024   5.855
10939POPC   GL168101   7.424   2.001   6.155
10939POPC   GL268102   7.338   1.891   6.155
10939POPC   C1A68103   7.451   1.989   6.455
10939POPC   D2A68104   7.447   2.000   6.755
10939POPC   C3A68105   7.388   1.947   7.055
10939POPC   C4A68106   7.389   2.037   7.355
10939POPC   C1B68107   7.308   1.811   6.455
10939POPC   C2B68108   7.254   1.782   6.755
10939POPC   C3B68109   7.247   1.782   7.055
10939POPC   C4B68110   7.246   1.783   7.355
10940POPC   NC368111  31.445  43.146   5.555
10940POPC   PO468112  31.427  43.082   5.855
10940POPC   GL168113  31.515  43.065   6.155
10940POPC   GL268114  31.547  43.195   6.155
10940POPC   C1A68115  31.437  43.121   6.455
10940POPC   D2A68116  31.489  43.143   6.755
10940POPC   C3A68117  31.466  43.086   7.055
10940POPC   C4A68118  31.491  43.132   7.355
10940POPC   C1B68119  31.679  43.303   6.455
10940POPC   C2B68120  31.689  43.291   6.755
10940POPC   C3B68121  31.624  43.243   7.055
10940POPC   C4B68122  31.633  43.261   7.355
10941POPC   NC368123  38.466  26.796   5.555
10941POPC   PO468124  38.495  26.792   5.855
10941POPC   GL168125  38.472  26.780   6.155
10941POPC   GL268126  38.570  26.877   6.155
10941POPC   C1A68127  38.497  26.772   6.455
10941POPC   D2A68128  38.465  26.782   6.755
10941POPC   C3A68129  38.494  26.859   7.055
10941POPC   C4A68130  38.455  26.787   7.355
10941POPC   C1B68131  38.729  26.831   6.455
10941POPC   C2B68132  38.733  26.888   6.755
10941POPC   C3B68133  38.719  26.856   7.055
10941POPC   C4B68134  38.687  26.839   7.355
10942POPC   NC368135  39.260  29.115   5.555
10942POPC   PO468136  39.209  29.174   5.855
10942POPC   GL168137  39.250  29.157   6.155
10942POPC   GL268138  39.130  29.206   6.155
10942POPC   C1A68139  39.227  29.126   6.455
10942POPC   D2A68140  39.191  29.096   6.755
10942POPC   C3A68141  39.256  29.162   7.055
10942POPC   C4A68142  39.192  29.097   7.355
10942POPC   C1B68143  38.995  29.212   6.455
10942POPC   C2B68144  39.014  29.197   6.755
10942POPC   C3B68145  38.979  29.189   7.055
10942POPC   C4B68146  38.986  29.196   7.355
10943POPC   NC368147  19.805  44.703   5.555
10943POPC   PO468148  19.874  44.643   5.855
10943POPC   GL168149  19.847  44.709   6.155
10943POPC   GL268150  19.910  44.587   6.155
10943POPC   C1A68151  19.786  44.674   6.455
10943POPC   D2A68152  19.800  44.659   6.755
10943POPC   C3A68153  19.819  44.632   7.055
10943POPC   C4A68154  19.804  44.704   7.355
10943POPC   C1B68155  19.963  44.459   6.455
10943POPC   C2B68156  19.917  44.449   6.755
10943POPC   C3B68157  20.012  44.411   7.055
10943POPC   C4B68158  20.007  44.475   7.355
10944POPC   NC368159   8.977   1.250   5.555
10944POPC   PO468160   8.935   1.196   5.855
10944POPC   GL168161   8.981   1.240   6.155
10944POPC   GL268162   8.885   1.237   6.155
10944POPC   C1A68163   8.939   1.242   6.455
10944POPC   D2A68164   8.975   1.185   6.755
10944POPC   C3A68165   8.984   1.237   7.055
10944POPC   C4A68166   9.009   1.261   7.355
10944POPC   C1B68167   8.764   1.294   6.455
10944POPC   C2B68168   8.723   1.240   6.755
10944POPC   C3B68169   8.741   1.257   7.055
10944POPC   C4B68170   8.734   1.281   7.355
10945POPC   NC368171  29.144   2.750   5.555
10945POPC   PO468172  29.118   2.753   5.855
10945POPC   GL168173  29.138   2.791   6.155
10945POPC   GL268174  29.105   2.667   6.155
10945POPC   C1A68175  29.189   2.755   6.455
10945POPC   D2A68176  29.166   2.765   6.755
10945POPC   C3A68177  29.184   2.728   7.055
10945POPC   C4A68178  29.179   2.759   7.355
10945POPC   C1B68179  29.119   2.477   6.455
10945POPC   C2B68180  29.116   2.542   6.755
10945POPC   C3B68181  29.105   2.478   7.055
10945POPC   C4B68182  29.126   2.566   7.355
10946POPC   NC368183  11.289   9.007   5.555
10946POPC   PO468184  11.295   8.995   5.855
10946POPC   GL168185  11.335   8.961   6.155
10946POPC   GL268186  11.415   8.883   6.155
10946POPC   C1A68187  11.282   8.981   6.455
10946POPC   D2A68188  11.304   8.991   6.755
10946POPC   C3A68189  11.327   8.933   7.055
10946POPC   C4A68190  11.261   8.993   7.355
10946POPC   C1B68191  11.561   8.935   6.455
10946POPC   C2B68192  11.505   8.919   6.755
10946POPC   C3B68193  11.487   8.925   7.055
10946POPC   C4B68194  11.577   8.929   7.355
10947POPC   NC368195   4.291   5.861   5.555
10947POPC   PO468196   4.355   5.907   5.855
10947POPC   GL168197   4.346   5.866   6.155
10947POPC   GL268198   4.419   5.803   6.155
10947POPC   C1A68199   4.308   5.896   6.455
10947POPC   D2A68200   4.277   5.844   6.755
10947POPC   C3A68201   4.279   5.849   7.055
10947POPC   C4A68202   4.359   5.884   7.355
10947POPC   C1B68203   4.540   5.664   6.455
10947POPC   C2B68204   4.545   5.750   6.755
10947POPC   C3B68205   4.462   5.697   7.055
10947POPC   C4B68206   4.508   5.748   7.355
10948POPC   NC368207  33.766  29.149   5.555
10948POPC   PO468208  33.820  29.111   5.855
10948POPC   GL168209  33.827  29.158   6.155
10948POPC   GL268210  33.870  29.043   6.155
10948POPC   C1A68211  33.756  29.139   6.455
10948POPC   D2A68212  33.835  29.144   6.755
10948POPC   C3A68213  33.797  29.146   7.055
10948POPC   C4A68214  33.825  29.160   7.355
10948POPC   C1B68215  33.970  28.995   6.455
10948POPC   C2B68216  34.031  29.025   6.755
10948POPC   C3B68217  34.011  28.971   7.055
10948POPC   C4B68218  34.004  29.043   7.355
10949POPC   NC368219  21.361  15.224   5.555
10949POPC   PO468220  21.434  15.211   5.855
10949POPC   GL168221  21.430  15.147   6.155
10949POPC   GL268222  21.285  15.076   6.155
10949POPC   C1A68223  21.402  15.203   6.455
10949POPC   D2A68224  21.411  15.224   6.755
10949POPC   C3A68225  21.356  15.174   7.055
10949POPC   C4A68226  21.353  15.179   7.355
10949POPC   C1B68227  21.187  14.951   6.455
10949POPC   C2B68228  21.226  15.029   6.755
10949POPC   C3B68229  21.192  15.043   7.055
10949POPC   C4B68230  21.238  15.032   7.355
10950POPC   NC368231   9.778   7.445   5.555
10950POPC   PO468232   9.742   7.385   5.855
10950POPC   GL168233   9.714   7.421   6.155
10950POPC   GL268234   9.583   7.414   6.155
10950POPC   C1A68235   9.795   7.466   6.455
10950POPC   D2A68236   9.792   7.429   6.755
10950POPC   C3A68237   9.701   7.391   7.055
10950POPC   C4A68238   9.763   7.382   7.355
10950POPC   C1B68239   9.536   7.542   6.455
10950POPC   C2B68240   9.491   7.488   6.755
10950POPC   C3B68241   9.518   7.540   7.055
10950POPC   C4B68242   9.546   7.540   7.355
10951POPC   NC368243  17.535  21.418   5.555
10951POPC   PO468244  17.463  21.358   5.855
10951POPC   GL168245  17.472  21.415   6.155
10951POPC   GL268246  17.607  21.294   6.155
10951POPC   C1A68247  17.550  21.367   6.455
10951POPC   D2A68248  17.469  21.371   6.755
10951POPC   C3A68249  17.547  21.413   7.055
10951POPC   C4A68250  17.500  21.429   7.355
10951POPC   C1B68251  17.727  21.240   6.455
10951POPC   C2B68252  17.736  21.236   6.755
10951POPC   C3B68253  17.749  21.185   7.055
10951POPC   C4B68254  17.754  21.239   7.355
10952POPC   NC368255  12.084  33.760   5.555
10952POPC   PO468256  12.051  33.807   5.855
10952POPC   GL168257  12.083  33.787   6.155
10952POPC   GL268258  12.206  33.717   6.155
10952POPC   C1A68259  12.061  33.796   6.455
10952POPC   D2A68260  12.120  33.792   6.755
10952POPC   C3A68261  12.099  33.771   7.055
10952POPC   C4A68262  12.054  33.759   7.355
10952POPC   C1B68263  12.311  33.706   6.455
10952POPC   C2B68264  12.328  33.745   6.755
10952POPC   C3B68265  12.284  33.688   7.055
10952POPC   C4B68266  12.349  33.690   7.355
10953POPC   NC368267  29.937  44.654   5.555
10953POPC   PO468268  29.910  44.675   5.855
10953POPC   GL168269  29.891  44.684   6.155
10953POPC   GL268270  29.815  44.653   6.155
10953POPC   C1A68271  29.910  44.659   6.455
10953POPC   D2A68272  29.939  44.653   6.755
10953POPC   C3A68273  29.879  44.697   7.055
10953POPC   C4A68274  29.918  44.650   7.355
10953POPC   C1B68275  29.677  44.670   6.455
10953POPC   C2B68276  29.625  44.657   6.755
10953POPC   C3B68277  29.632  44.685   7.055
10953POPC   C4B68278  29.648  44.679   7.355
10954POPC   NC368279  34.568  28.412   5.555
10954POPC   PO468280  34.573  28.335   5.855
10954POPC   GL168281  34.544  28.335   6.155
10954POPC   GL268282  34.446  28.385   6.155
10954POPC   C1A68283  34.604  28.366   6.455
10954POPC   D2A68284  34.541  28.413   6.755
10954POPC   C3A68285  34.589  28.412   7.055
10954POPC   C4A68286  34.595  28.334   7.355
10954POPC   C1B68287  34.302  28.414   6.455
10954POPC   C2B68288  34.346  28.414   6.755
10954POPC   C3B68289  34.342  28.360   7.055
10954POPC   C4B68290  34.294  28.431   7.355
10955POPC   NC368291   3.560  43.111   5.555
10955POPC   PO468292   3.546  43.069   5.855
10955POPC   GL168293   3.579  43.153   6.155
10955POPC   GL268294   3.537  43.191   6.155
10955POPC   C1A68295   3.539  43.122   6.455
10955POPC   D2A68296   3.506  43.063   6.755
10955POPC   C3A68297   3.556  43.143   7.055
10955POPC   C4A68298   3.587  43.141   7.355
10955POPC   C1B68299   3.484  43.359   6.455
10955POPC   C2B68300   3.572  43.352   6.755
10955POPC   C3B68301   3.570  43.329   7.055
10955POPC   C4B68302   3.504  43.344   7.355
10956POPC   NC368303  23.732   7.469   5.555
10956POPC   PO468304  23.755   7.386   5.855
10956POPC   GL168305  23.714   7.445   6.155
10956POPC   GL268306  23.779   7.343   6.155
10956POPC   C1A68307  23.762   7.410   6.455
10956POPC   D2A68308  23.700   7.407   6.755
10956POPC   C3A68309  23.747   7.434   7.055
10956POPC   C4A68310  23.728   7.386   7.355
10956POPC   C1B68311  23.724   7.226   6.455
10956POPC   C2B68312  23.761   7.212   6.755
10956POPC   C3B68313  23.794   7.204   7.055
10956POPC   C4B68314  23.739   7.168   7.355
10957POPC   NC368315  32.260   9.794   5.555
10957POPC   PO468316  32.202   9.705   5.855
10957POPC   GL168317  32.244   9.768   6.155
10957POPC   GL268318  32.124   9.750   6.155
10957POPC   C1A68319  32.293   9.717   6.455
10957POPC   D2A68320  32.234   9.702   6.755
10957POPC   C3A68321  32.260   9.758   7.055
10957POPC   C4A68322  32.286   9.769   7.355
10957POPC   C1B68323  32.039   9.747   6.455
10957POPC   C2B68324  32.033   9.753   6.755
10957POPC   C3B68325  32.014   9.769   7.055
10957POPC   C4B68326  31.989   9.762   7.355
10958POPC   NC368327   0.406  16.698   5.555
10958POPC   PO468328   0.464  16.767   5.855
10958POPC   GL168329   0.426  16.733   6.155
10958POPC   GL268330   0.518  16.697   6.155
10958POPC   C1A68331   0.459  16.702   6.455
10958POPC   D2A68332   0.474  16.753   6.755
10958POPC   C3A68333   0.485  16.691   7.055
10958POPC   C4A68334   0.464  16.759   7.355
10958POPC   C1B68335   0.699  16.658   6.455
10958POPC   C2B68336   0.680  16.701   6.755
10958POPC   C3B68337   0.677  16.669   7.055
10958POPC   C4B68338   0.701  16.690   7.355
10959POPC   NC368339  13.597  23.668   5.555
10959POPC   PO468340  13.613  23.752   5.855
10959POPC   GL168341  13.670  23.694   6.155
10959POPC   GL268342  13.606  23.813   6.155
10959POPC   C1A68343  13.586  23.741   6.455
10959POPC   D2A68344  13.646  23.730   6.755
10959POPC   C3A68345  13.649  23.760   7.055
10959POPC   C4A68346  13.657  23.710   7.355
10959POPC   C1B68347  13.669  23.921   6.455
10959POPC   C2B68348  13.595  23.923   6.755
10959POPC   C3B68349  13.617  23.941   7.055
10959POPC   C4B68350  13.647  23.980   7.355
10960POPC   NC368351  44.664  15.955   5.555
10960POPC   PO468352  44.637  15.923   5.855
10960POPC   GL168353  44.646  16.005   6.155
10960POPC   GL268354  44.823  15.921   6.155
10960POPC   C1A68355  44.632  15.995   6.455
10960POPC   D2A68356  44.678  15.969   6.755
10960POPC   C3A68357  44.684  16.003   7.055
10960POPC   C4A68358  44.705  15.977   7.355
10960POPC   C1B68359  44.842  15.813   6.455
10960POPC   C2B68360  44.873  15.814   6.755
10960POPC   C3B68361  44.852  15.886   7.055
10960POPC   C4B68362  44.861  15.833   7.355
10961POPC   NC368363  19.823   3.547   5.555
10961POPC   PO468364  19.830   3.512   5.855
10961POPC   GL168365  19.836   3.536   6.155
10961POPC   GL268366  19.811   3.381   6.155
10961POPC   C1A68367  19.857   3.496   6.455
10961POPC   D2A68368  19.832   3.503   6.755
10961POPC   C3A68369  19.829   3.585   7.055
10961POPC   C4A68370  19.814   3.505   7.355
10961POPC   C1B68371  19.833   3.324   6.455
10961POPC   C2B68372  19.791   3.284   6.755
10961POPC   C3B68373  19.820   3.283   7.055
10961POPC   C4B68374  19.819   3.306   7.355
10962POPC   NC368375   7.460  37.723   5.555
10962POPC   PO468376   7.421  37.692   5.855
10962POPC   GL168377   7.445  37.712   6.155
10962POPC   GL268378   7.307  37.618   6.155
10962POPC   C1A68379   7.414  37.695   6.455
10962POPC   D2A68380   7.461  37.699   6.755
10962POPC   C3A68381   7.434  37.644   7.055
10962POPC   C4A68382   7.415  37.647   7.355
10962POPC   C1B68383   7.192  37.571   6.455
10962POPC   C2B68384   7.149  37.580   6.755
10962POPC   C3B68385   7.228  37.558   7.055
10962POPC   C4B68386   7.169  37.542   7.355
10963POPC   NC368387  19.830  24.461   5.555
10963POPC   PO468388  19.870  24.487   5.855
10963POPC   GL168389  19.806  24.497   6.155
10963POPC   GL268390  19.838  24.603   6.155
10963POPC   C1A68391  19.877  24.536   6.455
10963POPC   D2A68392  19.883  24.460   6.755
10963POPC   C3A68393  19.805  24.508   7.055
10963POPC   C4A68394  19.810  24.494   7.355
10963POPC   C1B68395  19.841  24.700   6.455
10963POPC   C2B68396  19.869  24.728   6.755
10963POPC   C3B68397  19.890  24.697   7.055
10963POPC   C4B68398  19.885  24.714   7.355
10964POPC   NC368399  18.276  15.912   5.555
10964POPC   PO468400  18.315  15.941   5.855
10964POPC   GL168401  18.316  15.932   6.155
10964POPC   GL268402  18.269  16.058   6.155
10964POPC   C1A68403  18.267  15.922   6.455
10964POPC   D2A68404  18.304  15.954   6.755
10964POPC   C3A68405  18.278  15.926   7.055
10964POPC   C4A68406  18.327  15.946   7.355
10964POPC   C1B68407  18.320  16.238   6.455
10964POPC   C2B68408  18.343  16.198   6.755
10964POPC   C3B68409  18.278  16.191   7.055
10964POPC   C4B68410  18.295  16.228   7.355
10965POPC   NC368411   4.365   9.710   5.555
10965POPC   PO468412   4.346   9.751   5.855
10965POPC   GL168413   4.304   9.781   6.155
10965POPC   GL268414   4.418   9.763   6.155
10965POPC   C1A68415   4.331   9.698   6.455
10965POPC   D2A68416   4.329   9.716   6.755
10965POPC   C3A68417   4.324   9.764   7.055
10965POPC   C4A68418   4.327   9.797   7.355
10965POPC   C1B68419   4.535   9.858   6.455
10965POPC   C2B68420   4.531   9.893   6.755
10965POPC   C3B68421   4.549   9.835   7.055
10965POPC   C4B68422   4.546   9.850   7.355
10966POPC   NC368423  25.270  13.671   5.555
10966POPC   PO468424  25.288  13.609   5.855
10966POPC   GL168425  25.314  13.655   6.155
10966POPC   GL268426  25.295  13.498   6.155
10966POPC   C1A68427  25.307  13.650   6.455
10966POPC   D2A68428  25.229  13.614   6.755
10966POPC   C3A68429  25.297  13.616   7.055
10966POPC   C4A68430  25.291  13.623   7.355
10966POPC   C1B68431  25.282  13.425   6.455
10966POPC   C2B68432  25.316  13.339   6.755
10966POPC   C3B68433  25.340  13.376   7.055
10966POPC   C4B68434  25.262  13.359   7.355
10967POPC   NC368435  24.473   2.759   5.555
10967POPC   PO468436  24.482   2.725   5.855
10967POPC   GL168437  24.530   2.789   6.155
10967POPC   GL268438  24.501   2.675   6.155
10967POPC   C1A68439  24.444   2.723   6.455
10967POPC   D2A68440  24.519   2.769   6.755
10967POPC   C3A68441  24.482   2.786   7.055
10967POPC   C4A68442  24.533   2.722   7.355
10967POPC   C1B68443  24.402   2.521   6.455
10967POPC   C2B68444  24.457   2.541   6.755
10967POPC   C3B68445  24.440   2.479   7.055
10967POPC   C4B68446  24.413   2.488   7.355
10968POPC   NC368447  15.192  12.038   5.555
10968POPC   PO468448  15.160  12.062   5.855
10968POPC   GL168449  15.136  12.079   6.155
10968POPC   GL268450  15.069  12.123   6.155
10968POPC   C1A68451  15.224  12.111   6.455
10968POPC   D2A68452  15.210  12.044   6.755
10968POPC   C3A68453  15.187  12.066   7.055
10968POPC   C4A68454  15.226  12.105   7.355
10968POPC   C1B68455  14.989  12.225   6.455
10968POPC   C2B68456  15.027  12.242   6.755
10968POPC   C3B68457  14.951  12.259   7.055
10968POPC   C4B68458  14.976  12.301   7.355
10969POPC   NC368459  26.792  10.501   5.555
10969POPC   PO468460  26.792  10.551   5.855
10969POPC   GL168461  26.769  10.549   6.155
10969POPC   GL268462  26.801  10.460   6.155
10969POPC   C1A68463  26.802  10.489   6.455
10969POPC   D2A68464  26.830  10.562   6.755
10969POPC   C3A68465  26.861  10.528   7.055
10969POPC   C4A68466  26.854  10.564   7.355
10969POPC   C1B68467  26.730  10.326   6.455
10969POPC   C2B68468  26.713  10.278   6.755
10969POPC   C3B68469  26.662  10.346   7.055
10969POPC   C4B68470  26.645  10.352   7.355
10970POPC   NC368471  39.994  23.733   5.555
10970POPC   PO468472  40.011  23.756   5.855
10970POPC   GL168473  40.047  23.733   6.155
10970POPC   GL268474  40.064  23.696   6.155
10970POPC   C1A68475  40.013  23.691   6.455
10970POPC   D2A68476  39.999  23.732   6.755
10970POPC   C3A68477  39.991  23.758   7.055
10970POPC   C4A68478  40.043  23.758   7.355
10970POPC   C1B68479  40.269  23.620   6.455
10970POPC   C2B68480  40.242  23.599   6.755
10970POPC   C3B68481  40.260  23.578   7.055
10970POPC   C4B68482  40.269  23.546   7.355
10971POPC   NC368483  37.645  26.016   5.555
10971POPC   PO468484  37.661  26.012   5.855
10971POPC   GL168485  37.639  26.014   6.155
10971POPC   GL268486  37.609  25.972   6.155
10971POPC   C1A68487  37.663  26.015   6.455
10971POPC   D2A68488  37.701  26.076   6.755
10971POPC   C3A68489  37.633  26.049   7.055
10971POPC   C4A68490  37.674  26.058   7.355
10971POPC   C1B68491  37.459  25.906   6.455
10971POPC   C2B68492  37.457  25.891   6.755
10971POPC   C3B68493  37.441  25.969   7.055
10971POPC   C4B68494  37.488  25.898   7.355
10972POPC   NC368495  36.127  33.759   5.555
10972POPC   PO468496  36.157  33.815   5.855
10972POPC   GL168497  36.141  33.781   6.155
10972POPC   GL268498  36.046  33.864   6.155
10972POPC   C1A68499  36.160  33.755   6.455
10972POPC   D2A68500  36.103  33.796   6.755
10972POPC   C3A68501  36.125  33.836   7.055
10972POPC   C4A68502  36.102  33.800   7.355
10972POPC   C1B68503  36.012  34.048   6.455
10972POPC   C2B68504  35.999  33.999   6.755
10972POPC   C3B68505  35.977  34.028   7.055
10972POPC   C4B68506  35.993  33.998   7.355
10973POPC   NC368507  41.512  40.774   5.555
10973POPC   PO468508  41.577  40.804   5.855
10973POPC   GL168509  41.593  40.756   6.155
10973POPC   GL268510  41.570  40.703   6.155
10973POPC   C1A68511  41.512  40.829   6.455
10973POPC   D2A68512  41.562  40.752   6.755
10973POPC   C3A68513  41.509  40.797   7.055
10973POPC   C4A68514  41.550  40.760   7.355
10973POPC   C1B68515  41.573  40.565   6.455
10973POPC   C2B68516  41.536  40.512   6.755
10973POPC   C3B68517  41.517  40.567   7.055
10973POPC   C4B68518  41.595  40.562   7.355
10974POPC   NC368519  10.483  26.073   5.555
10974POPC   PO468520  10.566  26.006   5.855
10974POPC   GL168521  10.509  26.059   6.155
10974POPC   GL268522  10.621  26.009   6.155
10974POPC   C1A68523  10.487  25.994   6.455
10974POPC   D2A68524  10.499  26.084   6.755
10974POPC   C3A68525  10.533  26.091   7.055
10974POPC   C4A68526  10.538  26.002   7.355
10974POPC   C1B68527  10.716  26.008   6.455
10974POPC   C2B68528  10.768  25.915   6.755
10974POPC   C3B68529  10.806  25.955   7.055
10974POPC   C4B68530  10.735  25.988   7.355
10975POPC   NC368531  12.039  22.936   5.555
10975POPC   PO468532  12.080  22.961   5.855
10975POPC   GL168533  12.087  22.916   6.155
10975POPC   GL268534  12.098  23.104   6.155
10975POPC   C1A68535  12.054  22.933   6.455
10975POPC   D2A68536  12.083  22.894   6.755
10975POPC   C3A68537  12.028  22.944   7.055
10975POPC   C4A68538  12.113  22.943   7.355
10975POPC   C1B68539  12.069  23.215   6.455
10975POPC   C2B68540  12.025  23.162   6.755
10975POPC   C3B68541  12.052  23.231   7.055
10975POPC   C4B68542  12.015  23.175   7.355
10976POPC   NC368543   1.940  16.753   5.555
10976POPC   PO468544   2.017  16.777   5.855
10976POPC   GL168545   1.957  16.770   6.155
10976POPC   GL268546   2.025  16.581   6.155
10976POPC   C1A68547   1.989  16.767   6.455
10976POPC   D2A68548   1.998  16.682   6.755
10976POPC   C3A68549   1.991  16.704   7.055
10976POPC   C4A68550   1.941  16.781   7.355
10976POPC   C1B68551   2.023  16.517   6.455
10976POPC   C2B68552   1.945  16.478   6.755
10976POPC   C3B68553   1.976  16.463   7.055
10976POPC   C4B68554   1.933  16.489   7.355
10977POPC   NC368555   8.161  41.588   5.555
10977POPC   PO468556   8.228  41.578   5.855
10977POPC   GL168557   8.219  41.520   6.155
10977POPC   GL268558   8.086  41.701   6.155
10977POPC   C1A68559   8.151  41.564   6.455
10977POPC   D2A68560   8.205  41.593   6.755
10977POPC   C3A68561   8.228  41.524   7.055
10977POPC   C4A68562   8.238  41.560   7.355
10977POPC   C1B68563   7.993  41.722   6.455
10977POPC   C2B68564   8.025  41.781   6.755
10977POPC   C3B68565   8.066  41.753   7.055
10977POPC   C4B68566   8.007  41.745   7.355
10978POPC   NC368567  17.503  16.746   5.555
10978POPC   PO468568  17.475  16.770   5.855
10978POPC   GL168569  17.484  16.726   6.155
10978POPC   GL268570  17.626  16.795   6.155
10978POPC   C1A68571  17.541  16.747   6.455
10978POPC   D2A68572  17.471  16.708   6.755
10978POPC   C3A68573  17.522  16.696   7.055
10978POPC   C4A68574  17.538  16.770   7.355
10978POPC   C1B68575  17.697  16.880   6.455
10978POPC   C2B68576  17.760  16.853   6.755
10978POPC   C3B68577  17.753  16.877   7.055
10978POPC   C4B68578  17.772  16.848   7.355
10979POPC   NC368579  29.139  43.159   5.555
10979POPC   PO468580  29.110  43.145   5.855
10979POPC   GL168581  29.171  43.078   6.155
10979POPC   GL268582  29.041  43.132   6.155
10979POPC   C1A68583  29.139  43.150   6.455
10979POPC   D2A68584  29.143  43.079   6.755
10979POPC   C3A68585  29.109  43.087   7.055
10979POPC   C4A68586  29.113  43.090   7.355
10979POPC   C1B68587  28.930  43.209   6.455
10979POPC   C2B68588  28.893  43.169   6.755
10979POPC   C3B68589  28.911  43.160   7.055
10979POPC   C4B68590  28.912  43.157   7.355
10980POPC   NC368591  29.914   2.773   5.555
10980POPC   PO468592  29.929   2.799   5.855
10980POPC   GL168593  29.893   2.803   6.155
10980POPC   GL268594  29.913   2.863   6.155
10980POPC   C1A68595  29.883   2.741   6.455
10980POPC   D2A68596  29.879   2.738   6.755
10980POPC   C3A68597  29.925   2.815   7.055
10980POPC   C4A68598  29.940   2.810   7.355
10980POPC   C1B68599  29.928   3.025   6.455
10980POPC   C2B68600  29.925   3.030   6.755
10980POPC   C3B68601  29.883   3.049   7.055
10980POPC   C4B68602  29.920   2.977   7.355
10981POPC   NC368603  23.668   8.977   5.555
10981POPC   PO468604  23.763   8.989   5.855
10981POPC   GL168605  23.703   8.928   6.155
10981POPC   GL268606  23.665   9.051   6.155
10981POPC   C1A68607  23.748   8.923   6.455
10981POPC   D2A68608  23.707   8.970   6.755
10981POPC   C3A68609  23.758   9.016   7.055
10981POPC   C4A68610  23.675   8.937   7.355
10981POPC   C1B68611  23.562   9.149   6.455
10981POPC   C2B68612  23.593   9.112   6.755
10981POPC   C3B68613  23.530   9.132   7.055
10981POPC   C4B68614  23.530   9.125   7.355
10982POPC   NC368615  38.446  18.290   5.555
10982POPC   PO468616  38.474  18.321   5.855
10982POPC   GL168617  38.418  18.315   6.155
10982POPC   GL268618  38.379  18.316   6.155
10982POPC   C1A68619  38.476  18.303   6.455
10982POPC   D2A68620  38.420  18.237   6.755
10982POPC   C3A68621  38.489  18.268   7.055
10982POPC   C4A68622  38.425  18.301   7.355
10982POPC   C1B68623  38.221  18.277   6.455
10982POPC   C2B68624  38.250  18.300   6.755
10982POPC   C3B68625  38.247  18.333   7.055
10982POPC   C4B68626  38.236  18.334   7.355
10983POPC   NC368627  13.663  43.840   5.555
10983POPC   PO468628  13.605  43.922   5.855
10983POPC   GL168629  13.582  43.896   6.155
10983POPC   GL268630  13.573  43.982   6.155
10983POPC   C1A68631  13.619  43.860   6.455
10983POPC   D2A68632  13.628  43.934   6.755
10983POPC   C3A68633  13.603  43.932   7.055
10983POPC   C4A68634  13.634  43.934   7.355
10983POPC   C1B68635  13.499  44.027   6.455
10983POPC   C2B68636  13.484  44.034   6.755
10983POPC   C3B68637  13.472  44.113   7.055
10983POPC   C4B68638  13.466  44.109   7.355
10984POPC   NC368639  42.364  19.861   5.555
10984POPC   PO468640  42.349  19.805   5.855
10984POPC   GL168641  42.374  19.803   6.155
10984POPC   GL268642  42.223  19.759   6.155
10984POPC   C1A68643  42.294  19.807   6.455
10984POPC   D2A68644  42.355  19.834   6.755
10984POPC   C3A68645  42.349  19.876   7.055
10984POPC   C4A68646  42.316  19.877   7.355
10984POPC   C1B68647  42.157  19.634   6.455
10984POPC   C2B68648  42.178  19.632   6.755
10984POPC   C3B68649  42.184  19.697   7.055
10984POPC   C4B68650  42.168  19.698   7.355
10985POPC   NC368651  29.101  22.926   5.555
10985POPC   PO468652  29.110  22.893   5.855
10985POPC   GL168653  29.193  22.981   6.155
10985POPC   GL268654  28.977  22.937   6.155
10985POPC   C1A68655  29.133  22.890   6.455
10985POPC   D2A68656  29.157  22.985   6.755
10985POPC   C3A68657  29.112  22.894   7.055
10985POPC   C4A68658  29.156  22.920   7.355
10985POPC   C1B68659  28.921  22.870   6.455
10985POPC   C2B68660  28.955  22.834   6.755
10985POPC   C3B68661  28.866  22.873   7.055
10985POPC   C4B68662  28.887  22.867   7.355
10986POPC   NC368663   5.073  16.722   5.555
10986POPC   PO468664   5.102  16.746   5.855
10986POPC   GL168665   5.093  16.707   6.155
10986POPC   GL268666   5.032  16.669   6.155
10986POPC   C1A68667   5.140  16.757   6.455
10986POPC   D2A68668   5.103  16.704   6.755
10986POPC   C3A68669   5.142  16.693   7.055
10986POPC   C4A68670   5.065  16.723   7.355
10986POPC   C1B68671   4.918  16.599   6.455
10986POPC   C2B68672   4.906  16.589   6.755
10986POPC   C3B68673   4.957  16.586   7.055
10986POPC   C4B68674   4.954  16.572   7.355
10987POPC   NC368675  32.993  41.530   5.555
10987POPC   PO468676  33.012  41.574   5.855
10987POPC   GL168677  33.009  41.522   6.155
10987POPC   GL268678  33.009  41.484   6.155
10987POPC   C1A68679  33.060  41.546   6.455
10987POPC   D2A68680  33.023  41.549   6.755
10987POPC   C3A68681  33.037  41.512   7.055
10987POPC   C4A68682  33.019  41.604   7.355
10987POPC   C1B68683  32.874  41.381   6.455
10987POPC   C2B68684  32.866  41.341   6.755
10987POPC   C3B68685  32.912  41.287   7.055
10987POPC   C4B68686  32.918  41.338   7.355
10988POPC   NC368687  26.783  23.700   5.555
10988POPC   PO468688  26.812  23.726   5.855
10988POPC   GL168689  26.799  23.681   6.155
10988POPC   GL268690  26.661  23.797   6.155
10988POPC   C1A68691  26.771  23.720   6.455
10988POPC   D2A68692  26.865  23.761   6.755
10988POPC   C3A68693  26.841  23.696   7.055
10988POPC   C4A68694  26.797  23.736   7.355
10988POPC   C1B68695  26.611  23.807   6.455
10988POPC   C2B68696  26.585  23.844   6.755
10988POPC   C3B68697  26.577  23.765   7.055
10988POPC   C4B68698  26.603  23.839   7.355
10989POPC   NC368699  44.626  37.703   5.555
10989POPC   PO468700  44.687  37.672   5.855
10989POPC   GL168701  44.643  37.676   6.155
10989POPC   GL268702  44.587  37.579   6.155
10989POPC   C1A68703  44.692  37.720   6.455
10989POPC   D2A68704  44.682  37.650   6.755
10989POPC   C3A68705  44.635  37.673   7.055
10989POPC   C4A68706  44.664  37.634   7.355
10989POPC   C1B68707  44.438  37.550   6.455
10989POPC   C2B68708  44.485  37.522   6.755
10989POPC   C3B68709  44.437  37.486   7.055
10989POPC   C4B68710  44.523  37.513   7.355
10990POPC   NC368711  36.937  22.918   5.555
10990POPC   PO468712  36.908  22.920   5.855
10990POPC   GL168713  36.947  22.948   6.155
10990POPC   GL268714  36.930  23.063   6.155
10990POPC   C1A68715  36.911  22.918   6.455
10990POPC   D2A68716  36.875  22.949   6.755
10990POPC   C3A68717  36.897  22.976   7.055
10990POPC   C4A68718  36.934  22.985   7.355
10990POPC   C1B68719  36.947  23.153   6.455
10990POPC   C2B68720  36.978  23.174   6.755
10990POPC   C3B68721  37.008  23.138   7.055
10990POPC   C4B68722  36.962  23.189   7.355
10991POPC   NC368723   2.768  18.311   5.555
10991POPC   PO468724   2.800  18.257   5.855
10991POPC   GL168725   2.765  18.324   6.155
10991POPC   GL268726   2.653  18.273   6.155
10991POPC   C1A68727   2.753  18.273   6.455
10991POPC   D2A68728   2.798  18.312   6.755
10991POPC   C3A68729   2.762  18.274   7.055
10991POPC   C4A68730   2.724  18.246   7.355
10991POPC   C1B68731   2.508  18.131   6.455
10991POPC   C2B68732   2.540  18.153   6.755
10991POPC   C3B68733   2.499  18.196   7.055
10991POPC   C4B68734   2.568  18.217   7.355
10992POPC   NC368735  29.131  16.719   5.555
10992POPC   PO468736  29.120  16.769   5.855
10992POPC   GL168737  29.185  16.753   6.155
10992POPC   GL268738  29.094  16.636   6.155
10992POPC   C1A68739  29.170  16.720   6.455
10992POPC   D2A68740  29.112  16.703   6.755
10992POPC   C3A68741  29.170  16.780   7.055
10992POPC   C4A68742  29.112  16.759   7.355
10992POPC   C1B68743  28.934  16.617   6.455
10992POPC   C2B68744  28.898  16.587   6.755
10992POPC   C3B68745  28.951  16.592   7.055
10992POPC   C4B68746  28.983  16.593   7.355
10993POPC   NC368747  15.941  13.603   5.555
10993POPC   PO468748  15.937  13.636   5.855
10993POPC   GL168749  15.910  13.588   6.155
10993POPC   GL268750  16.087  13.566   6.155
10993POPC   C1A68751  15.916  13.591   6.455
10993POPC   D2A68752  16.000  13.588   6.755
10993POPC   C3A68753  15.965  13.652   7.055
10993POPC   C4A68754  15.958  13.635   7.355
10993POPC   C1B68755  16.168  13.518   6.455
10993POPC   C2B68756  16.174  13.560   6.755
10993POPC   C3B68757  16.179  13.512   7.055
10993POPC   C4B68758  16.194  13.596   7.355
10994POPC   NC368759   3.492  10.482   5.555
10994POPC   PO468760   3.584  10.475   5.855
10994POPC   GL168761   3.534  10.512   6.155
10994POPC   GL268762   3.705  10.466   6.155
10994POPC   C1A68763   3.561  10.485   6.455
10994POPC   D2A68764   3.503  10.502   6.755
10994POPC   C3A68765   3.568  10.501   7.055
10994POPC   C4A68766   3.553  10.524   7.355
10994POPC   C1B68767   3.794  10.495   6.455
10994POPC   C2B68768   3.782  10.502   6.755
10994POPC   C3B68769   3.822  10.426   7.055
10994POPC   C4B68770   3.804  10.473   7.355
10995POPC   NC368771   4.342  12.030   5.555
10995POPC   PO468772   4.272  12.035   5.855
10995POPC   GL168773   4.269  12.090   6.155
10995POPC   GL268774   4.410  12.141   6.155
10995POPC   C1A68775   4.273  12.029   6.455
10995POPC   D2A68776   4.338  12.058   6.755
10995POPC   C3A68777   4.298  12.027   7.055
10995POPC   C4A68778   4.343  12.087   7.355
10995POPC   C1B68779   4.484  12.288   6.455
10995POPC   C2B68780   4.499  12.229   6.755
10995POPC   C3B68781   4.514  12.282   7.055
10995POPC   C4B68782   4.451  12.298   7.355
10996POPC   NC368783  44.670  38.431   5.555
10996POPC   PO468784  44.711  38.501   5.855
10996POPC   GL168785  44.659  38.422   6.155
10996POPC   GL268786  44.614  38.600   6.155
10996POPC   C1A68787  44.633  38.418   6.455
10996POPC   D2A68788  44.619  38.483   6.755
10996POPC   C3A68789  44.637  38.437   7.055
10996POPC   C4A68790  44.621  38.417   7.355
10996POPC   C1B68791  44.581  38.707   6.455
10996POPC   C2B68792  44.575  38.650   6.755
10996POPC   C3B68793  44.574  38.727   7.055
10996POPC   C4B68794  44.561  38.672   7.355
10997POPC   NC368795   0.429  15.997   5.555
10997POPC   PO468796   0.435  15.987   5.855
10997POPC   GL168797   0.433  15.929   6.155
10997POPC   GL268798   0.552  16.001   6.155
10997POPC   C1A68799   0.450  15.950   6.455
10997POPC   D2A68800   0.485  15.970   6.755
10997POPC   C3A68801   0.388  15.995   7.055
10997POPC   C4A68802   0.453  15.955   7.355
10997POPC   C1B68803   0.638  16.004   6.455
10997POPC   C2B68804   0.662  15.929   6.755
10997POPC   C3B68805   0.677  15.934   7.055
10997POPC   C4B68806   0.688  15.973   7.355
10998POPC   NC368807  18.252  21.380   5.555
10998POPC   PO468808  18.240  21.381   5.855
10998POPC   GL168809  18.275  21.428   6.155
10998POPC   GL268810  18.171  21.441   6.155
10998POPC   C1A68811  18.237  21.416   6.455
10998POPC   D2A68812  18.248  21.413   6.755
10998POPC   C3A68813  18.298  21.405   7.055
10998POPC   C4A68814  18.273  21.378   7.355
10998POPC   C1B68815  18.056  21.539   6.455
10998POPC   C2B68816  18.073  21.535   6.755
10998POPC   C3B68817  18.056  21.454   7.055
10998POPC   C4B68818  18.091  21.534   7.355
10999POPC   NC368819  14.441  22.175   5.555
10999POPC   PO468820  14.439  22.179   5.855
10999POPC   GL168821  14.404  22.157   6.155
10999POPC   GL268822  14.555  22.214   6.155
10999POPC   C1A68823  14.398  22.212   6.455
10999POPC   D2A68824  14.387  22.197   6.755
10999POPC   C3A68825  14.399  22.174   7.055
10999POPC   C4A68826  14.375  22.171   7.355
10999POPC   C1B68827  14.621  22.338   6.455
10999POPC   C2B68828  14.581  22.283   6.755
10999POPC   C3B68829  14.619  22.280   7.055
10999POPC   C4B68830  14.649  22.290   7.355
11000POPC   NC368831  29.172  42.323   5.555
11000POPC   PO468832  29.163  42.306   5.855
11000POPC   GL168833  29.184  42.292   6.155
11000POPC   GL268834  29.253  42.400   6.155
11000POPC   C1A68835  29.136  42.384   6.455
11000POPC   D2A68836  29.104  42.321   6.755
11000POPC   C3A68837  29.194  42.380   7.055
11000POPC   C4A68838  29.120  42.348   7.355
11000POPC   C1B68839  29.320  42.540   6.455
11000POPC   C2B68840  29.357  42.543   6.755
11000POPC   C3B68841  29.335  42.557   7.055
11000POPC   C4B68842  29.281  42.546   7.355
11001POPC   NC368843   8.941   5.128   5.555
11001POPC   PO468844   8.995   5.063   5.855
11001POPC   GL168845   9.000   5.090   6.155
11001POPC   GL268846   9.091   5.105   6.155
11001POPC   C1A68847   8.968   5.078   6.455
11001POPC   D2A68848   9.001   5.083   6.755
11001POPC   C3A68849   9.004   5.051   7.055
11001POPC   C4A68850   9.000   5.124   7.355
11001POPC   C1B68851   9.218   5.057   6.455
11001POPC   C2B68852   9.253   5.001   6.755
11001POPC   C3B68853   9.200   5.062   7.055
11001POPC   C4B68854   9.180   5.009   7.355
11002POPC   NC368855  39.251  30.722   5.555
11002POPC   PO468856  39.260  30.703   5.855
11002POPC   GL168857  39.250  30.719   6.155
11002POPC   GL268858  39.137  30.554   6.155
11002POPC   C1A68859  39.227  30.694   6.455
11002POPC   D2A68860  39.182  30.719   6.755
11002POPC   C3A68861  39.215  30.652   7.055
11002POPC   C4A68862  39.250  30.697   7.355
11002POPC   C1B68863  39.103  30.455   6.455
11002POPC   C2B68864  39.062  30.450   6.755
11002POPC   C3B68865  39.082  30.534   7.055
11002POPC   C4B68866  39.130  30.489   7.355
11003POPC   NC368867  32.250   2.009   5.555
11003POPC   PO468868  32.265   1.957   5.855
11003POPC   GL168869  32.282   1.969   6.155
11003POPC   GL268870  32.381   2.036   6.155
11003POPC   C1A68871  32.295   1.943   6.455
11003POPC   D2A68872  32.267   2.006   6.755
11003POPC   C3A68873  32.230   1.992   7.055
11003POPC   C4A68874  32.245   1.965   7.355
11003POPC   C1B68875  32.445   2.072   6.455
11003POPC   C2B68876  32.455   2.062   6.755
11003POPC   C3B68877  32.469   2.120   7.055
11003POPC   C4B68878  32.518   2.140   7.355
11004POPC   NC368879  21.371  23.737   5.555
11004POPC   PO468880  21.355  23.758   5.855
11004POPC   GL168881  21.412  23.716   6.155
11004POPC   GL268882  21.416  23.810   6.155
11004POPC   C1A68883  21.406  23.666   6.455
11004POPC   D2A68884  21.428  23.671   6.755
11004POPC   C3A68885  21.373  23.691   7.055
11004POPC   C4A68886  21.378  23.759   7.355
11004POPC   C1B68887  21.449  23.931   6.455
11004POPC   C2B68888  21.449  23.965   6.755
11004POPC   C3B68889  21.476  23.913   7.055
11004POPC   C4B68890  21.386  23.957   7.355
11005POPC   NC368891  31.465   2.771   5.555
11005POPC   PO468892  31.460   2.757   5.855
11005POPC   GL168893  31.476   2.793   6.155
11005POPC   GL268894  31.524   2.842   6.155
11005POPC   C1A68895  31.489   2.747   6.455
11005POPC   D2A68896  31.453   2.729   6.755
11005POPC   C3A68897  31.476   2.723   7.055
11005POPC   C4A68898  31.433   2.758   7.355
11005POPC   C1B68899  31.610   3.018   6.455
11005POPC   C2B68900  31.635   3.017   6.755
11005POPC   C3B68901  31.653   2.994   7.055
11005POPC   C4B68902  31.561   2.930   7.355
11006POPC   NC368903   3.496  32.222   5.555
11006POPC   PO468904   3.525  32.251   5.855
11006POPC   GL168905   3.501  32.246   6.155
11006POPC   GL268906   3.510  32.151   6.155
11006POPC   C1A68907   3.566  32.291   6.455
11006POPC   D2A68908   3.492  32.245   6.755
11006POPC   C3A68909   3.520  32.273   7.055
11006POPC   C4A68910   3.500  32.234   7.355
11006POPC   C1B68911   3.496  31.975   6.455
11006POPC   C2B68912   3.565  31.973   6.755
11006POPC   C3B68913   3.511  32.041   7.055
11006POPC   C4B68914   3.502  32.040   7.355
11007POPC   NC368915  14.402  41.552   5.555
11007POPC   PO468916  14.425  41.585   5.855
11007POPC   GL168917  14.359  41.523   6.155
11007POPC   GL268918  14.272  41.599   6.155
11007POPC   C1A68919  14.367  41.536   6.455
11007POPC   D2A68920  14.369  41.519   6.755
11007POPC   C3A68921  14.428  41.561   7.055
11007POPC   C4A68922  14.370  41.524   7.355
11007POPC   C1B68923  14.228  41.742   6.455
11007POPC   C2B68924  14.229  41.768   6.755
11007POPC   C3B68925  14.192  41.769   7.055
11007POPC   C4B68926  14.192  41.689   7.355
11008POPC   NC368927  25.994  26.862   5.555
11008POPC   PO468928  26.004  26.822   5.855
11008POPC   GL168929  26.020  26.791   6.155
11008POPC   GL268930  26.200  26.713   6.155
11008POPC   C1A68931  26.038  26.784   6.455
11008POPC   D2A68932  26.078  26.798   6.755
11008POPC   C3A68933  26.044  26.796   7.055
11008POPC   C4A68934  26.027  26.845   7.355
11008POPC   C1B68935  26.222  26.725   6.455
11008POPC   C2B68936  26.269  26.670   6.755
11008POPC   C3B68937  26.280  26.698   7.055
11008POPC   C4B68938  26.280  26.662   7.355
11009POPC   NC368939  12.116   9.003   5.555
11009POPC   PO468940  12.092   8.938   5.855
11009POPC   GL168941  12.097   8.923   6.155
11009POPC   GL268942  11.943   8.894   6.155
11009POPC   C1A68943  12.036   8.967   6.455
11009POPC   D2A68944  12.097   8.980   6.755
11009POPC   C3A68945  12.045   9.021   7.055
11009POPC   C4A68946  12.098   8.969   7.355
11009POPC   C1B68947  11.928   8.761   6.455
11009POPC   C2B68948  11.914   8.748   6.755
11009POPC   C3B68949  11.909   8.772   7.055
11009POPC   C4B68950  11.875   8.802   7.355
11010POPC   NC368951   7.405  20.649   5.555
11010POPC   PO468952   7.453  20.579   5.855
11010POPC   GL168953   7.454  20.646   6.155
11010POPC   GL268954   7.539  20.554   6.155
11010POPC   C1A68955   7.385  20.649   6.455
11010POPC   D2A68956   7.420  20.626   6.755
11010POPC   C3A68957   7.399  20.592   7.055
11010POPC   C4A68958   7.459  20.588   7.355
11010POPC   C1B68959   7.528  20.367   6.455
11010POPC   C2B68960   7.610  20.395   6.755
11010POPC   C3B68961   7.541  20.373   7.055
11010POPC   C4B68962   7.584  20.412   7.355
11011POPC   NC368963  14.371   5.890   5.555
11011POPC   PO468964  14.420   5.874   5.855
11011POPC   GL168965  14.370   5.890   6.155
11011POPC   GL268966  14.334   5.797   6.155
11011POPC   C1A68967  14.381   5.840   6.455
11011POPC   D2A68968  14.436   5.835   6.755
11011POPC   C3A68969  14.403   5.846   7.055
11011POPC   C4A68970  14.436   5.854   7.355
11011POPC   C1B68971  14.191   5.751   6.455
11011POPC   C2B68972  14.181   5.718   6.755
11011POPC   C3B68973  14.168   5.706   7.055
11011POPC   C4B68974  14.186   5.723   7.355
11012POPC   NC368975  12.044  42.290   5.555
11012POPC   PO468976  12.107  42.336   5.855
11012POPC   GL168977  12.084  42.326   6.155
11012POPC   GL268978  12.082  42.247   6.155
11012POPC   C1A68979  12.048  42.307   6.455
11012POPC   D2A68980  12.047  42.356   6.755
11012POPC   C3A68981  12.066  42.311   7.055
11012POPC   C4A68982  12.111  42.334   7.355
11012POPC   C1B68983  12.136  42.108   6.455
11012POPC   C2B68984  12.088  42.100   6.755
11012POPC   C3B68985  12.075  42.090   7.055
11012POPC   C4B68986  12.085  42.134   7.355
11013POPC   NC368987  35.325   7.470   5.555
11013POPC   PO468988  35.372   7.384   5.855
11013POPC   GL168989  35.308   7.396   6.155
11013POPC   GL268990  35.401   7.457   6.155
11013POPC   C1A68991  35.305   7.418   6.455
11013POPC   D2A68992  35.355   7.374   6.755
11013POPC   C3A68993  35.400   7.453   7.055
11013POPC   C4A68994  35.333   7.445   7.355
11013POPC   C1B68995  35.556   7.571   6.455
11013POPC   C2B68996  35.564   7.564   6.755
11013POPC   C3B68997  35.512   7.625   7.055
11013POPC   C4B68998  35.590   7.542   7.355
11014POPC   NC368999   9.718  26.814   5.555
11014POPC   PO469000   9.743  26.849   5.855
11014POPC   GL169001   9.762  26.851   6.155
11014POPC   GL269002   9.757  26.701   6.155
11014POPC   C1A69003   9.746  26.804   6.455
11014POPC   D2A69004   9.718  26.846   6.755
11014POPC   C3A69005   9.725  26.799   7.055
11014POPC   C4A69006   9.733  26.861   7.355
11014POPC   C1B69007   9.645  26.569   6.455
11014POPC   C2B69008   9.673  26.600   6.755
11014POPC   C3B69009   9.720  26.626   7.055
11014POPC   C4B69010   9.706  26.571   7.355
11015POPC   NC369011  44.648  26.851   5.555
11015POPC   PO469012  44.658  26.782   5.855
11015POPC   GL169013  44.682  26.835   6.155
11015POPC   GL269014  44.559  26.788   6.155
11015POPC   C1A69015  44.690  26.821   6.455
11015POPC   D2A69016  44.677  26.864   6.755
11015POPC   C3A69017  44.708  26.842   7.055
11015POPC   C4A69018  44.666  26.781   7.355
11015POPC   C1B69019  44.455  26.859   6.455
11015POPC   C2B69020  44.366  26.784   6.755
11015POPC   C3B69021  44.385  26.822   7.055
11015POPC   C4B69022  44.459  26.855   7.355
11016POPC   NC369023  38.503  25.314   5.555
11016POPC   PO469024  38.426  25.270   5.855
11016POPC   GL169025  38.492  25.218   6.155
11016POPC   GL269026  38.347  25.317   6.155
11016POPC   C1A69027  38.458  25.288   6.455
11016POPC   D2A69028  38.406  25.279   6.755
11016POPC   C3A69029  38.503  25.279   7.055
11016POPC   C4A69030  38.405  25.251   7.355
11016POPC   C1B69031  38.311  25.432   6.455
11016POPC   C2B69032  38.287  25.453   6.755
11016POPC   C3B69033  38.242  25.492   7.055
11016POPC   C4B69034  38.313  25.481   7.355
11017POPC   NC369035  22.146  18.251   5.555
11017POPC   PO469036  22.204  18.333   5.855
11017POPC   GL169037  22.198  18.271   6.155
11017POPC   GL269038  22.112  18.225   6.155
11017POPC   C1A69039  22.199  18.291   6.455
11017POPC   D2A69040  22.183  18.330   6.755
11017POPC   C3A69041  22.156  18.283   7.055
11017POPC   C4A69042  22.186  18.250   7.355
11017POPC   C1B69043  22.026  18.051   6.455
11017POPC   C2B69044  21.953  18.056   6.755
11017POPC   C3B69045  22.010  18.112   7.055
11017POPC   C4B69046  22.019  18.133   7.355
11018POPC   NC369047  36.086   2.742   5.555
11018POPC   PO469048  36.090   2.755   5.855
11018POPC   GL169049  36.118   2.738   6.155
11018POPC   GL269050  36.164   2.870   6.155
11018POPC   C1A69051  36.096   2.734   6.455
11018POPC   D2A69052  36.168   2.737   6.755
11018POPC   C3A69053  36.091   2.759   7.055
11018POPC   C4A69054  36.105   2.812   7.355
11018POPC   C1B69055  36.095   3.039   6.455
11018POPC   C2B69056  36.107   2.995   6.755
11018POPC   C3B69057  36.119   3.032   7.055
11018POPC   C4B69058  36.160   3.056   7.355
11019POPC   NC369059  41.571  19.853   5.555
11019POPC   PO469060  41.554  19.803   5.855
11019POPC   GL169061  41.603  19.883   6.155
11019POPC   GL269062  41.444  19.796   6.155
11019POPC   C1A69063  41.580  19.841   6.455
11019POPC   D2A69064  41.532  19.834   6.755
11019POPC   C3A69065  41.562  19.878   7.055
11019POPC   C4A69066  41.526  19.801   7.355
11019POPC   C1B69067  41.352  19.716   6.455
11019POPC   C2B69068  41.332  19.746   6.755
11019POPC   C3B69069  41.383  19.680   7.055
11019POPC   C4B69070  41.349  19.688   7.355
11020POPC   NC369071  44.642  33.054   5.555
11020POPC   PO469072  44.685  33.033   5.855
11020POPC   GL169073  44.621  33.029   6.155
11020POPC   GL269074  44.539  32.988   6.155
11020POPC   C1A69075  44.625  33.021   6.455
11020POPC   D2A69076  44.628  32.979   6.755
11020POPC   C3A69077  44.641  33.025   7.055
11020POPC   C4A69078  44.640  32.990   7.355
11020POPC   C1B69079  44.455  32.974   6.455
11020POPC   C2B69080  44.457  33.045   6.755
11020POPC   C3B69081  44.397  33.034   7.055
11020POPC   C4B69082  44.422  33.043   7.355
11021POPC   NC369083  25.248   9.717   5.555
11021POPC   PO469084  25.259   9.756   5.855
11021POPC   GL169085  25.280   9.745   6.155
11021POPC   GL269086  25.328   9.667   6.155
11021POPC   C1A69087  25.268   9.719   6.455
11021POPC   D2A69088  25.229   9.771   6.755
11021POPC   C3A69089  25.251   9.702   7.055
11021POPC   C4A69090  25.298   9.707   7.355
11021POPC   C1B69091  25.444   9.499   6.455
11021POPC   C2B69092  25.447   9.560   6.755
11021POPC   C3B69093  25.379   9.588   7.055
11021POPC   C4B69094  25.392   9.573   7.355
11022POPC   NC369095  36.871  34.609   5.555
11022POPC   PO469096  36.932  34.588   5.855
11022POPC   GL169097  36.878  34.569   6.155
11022POPC   GL269098  36.980  34.487   6.155
11022POPC   C1A69099  36.936  34.606   6.455
11022POPC   D2A69100  36.885  34.620   6.755
11022POPC   C3A69101  36.949  34.612   7.055
11022POPC   C4A69102  36.912  34.591   7.355
11022POPC   C1B69103  37.025  34.365   6.455
11022POPC   C2B69104  37.004  34.355   6.755
11022POPC   C3B69105  36.990  34.366   7.055
11022POPC   C4B69106  37.004  34.344   7.355
11023POPC   NC369107  24.443  23.681   5.555
11023POPC   PO469108  24.479  23.665   5.855
11023POPC   GL169109  24.459  23.694   6.155
11023POPC   GL269110  24.428  23.797   6.155
11023POPC   C1A69111  24.528  23.748   6.455
11023POPC   D2A69112  24.459  23.665   6.755
11023POPC   C3A69113  24.441  23.763   7.055
11023POPC   C4A69114  24.447  23.678   7.355
11023POPC   C1B69115  24.464  23.981   6.455
11023POPC   C2B69116  24.395  24.002   6.755
11023POPC   C3B69117  24.459  23.912   7.055
11023POPC   C4B69118  24.408  23.995   7.355
11024POPC   NC369119   8.958  41.589   5.555
11024POPC   PO469120   8.948  41.512   5.855
11024POPC   GL169121   9.007  41.521   6.155
11024POPC   GL269122   8.860  41.682   6.155
11024POPC   C1A69123   8.989  41.554   6.455
11024POPC   D2A69124   8.948  41.584   6.755
11024POPC   C3A69125   8.929  41.588   7.055
11024POPC   C4A69126   8.961  41.590   7.355
11024POPC   C1B69127   8.825  41.815   6.455
11024POPC   C2B69128   8.829  41.757   6.755
11024POPC   C3B69129   8.849  41.762   7.055
11024POPC   C4B69130   8.890  41.821   7.355
11025POPC   NC369131  43.929  37.674   5.555
11025POPC   PO469132  43.885  37.716   5.855
11025POPC   GL169133  43.886  37.673   6.155
11025POPC   GL269134  43.952  37.619   6.155
11025POPC   C1A69135  43.910  37.704   6.455
11025POPC   D2A69136  43.881  37.697   6.755
11025POPC   C3A69137  43.911  37.698   7.055
11025POPC   C4A69138  43.896  37.636   7.355
11025POPC   C1B69139  44.059  37.532   6.455
11025POPC   C2B69140  44.073  37.568   6.755
11025POPC   C3B69141  44.094  37.515   7.055
11025POPC   C4B69142  44.064  37.556   7.355
11026POPC   NC369143  30.724  26.775   5.555
11026POPC   PO469144  30.696  26.821   5.855
11026POPC   GL169145  30.710  26.820   6.155
11026POPC   GL269146  30.733  26.963   6.155
11026POPC   C1A69147  30.731  26.810   6.455
11026POPC   D2A69148  30.712  26.805   6.755
11026POPC   C3A69149  30.657  26.786   7.055
11026POPC   C4A69150  30.667  26.786   7.355
11026POPC   C1B69151  30.844  27.049   6.455
11026POPC   C2B69152  30.836  27.014   6.755
11026POPC   C3B69153  30.897  27.029   7.055
11026POPC   C4B69154  30.886  27.065   7.355
11027POPC   NC369155  43.926  20.599   5.555
11027POPC   PO469156  43.873  20.622   5.855
11027POPC   GL169157  43.910  20.574   6.155
11027POPC   GL269158  43.920  20.737   6.155
11027POPC   C1A69159  43.904  20.602   6.455
11027POPC   D2A69160  43.895  20.617   6.755
11027POPC   C3A69161  43.921  20.650   7.055
11027POPC   C4A69162  43.886  20.573   7.355
11027POPC   C1B69163  43.829  20.852   6.455
11027POPC   C2B69164  43.845  20.850   6.755
11027POPC   C3B69165  43.888  20.906   7.055
11027POPC   C4B69166  43.890  20.827   7.355
11028POPC   NC369167  34.574  32.975   5.555
11028POPC   PO469168  34.578  32.985   5.855
11028POPC   GL169169  34.545  33.072   6.155
11028POPC   GL269170  34.487  32.894   6.155
11028POPC   C1A69171  34.556  33.046   6.455
11028POPC   D2A69172  34.533  33.042   6.755
11028POPC   C3A69173  34.580  32.980   7.055
11028POPC   C4A69174  34.587  33.034   7.355
11028POPC   C1B69175  34.469  32.806   6.455
11028POPC   C2B69176  34.519  32.782   6.755
11028POPC   C3B69177  34.487  32.789   7.055
11028POPC   C4B69178  34.479  32.814   7.355
11029POPC   NC369179   8.966  30.725   5.555
11029POPC   PO469180   8.955  30.680   5.855
11029POPC   GL169181   8.982  30.724   6.155
11029POPC   GL269182   9.042  30.659   6.155
11029POPC   C1A69183   8.933  30.720   6.455
11029POPC   D2A69184   8.948  30.672   6.755
11029POPC   C3A69185   9.005  30.672   7.055
11029POPC   C4A69186   9.008  30.679   7.355
11029POPC   C1B69187   9.202  30.556   6.455
11029POPC   C2B69188   9.240  30.595   6.755
11029POPC   C3B69189   9.227  30.542   7.055
11029POPC   C4B69190   9.177  30.623   7.355
11030POPC   NC369191  27.547   4.292   5.555
11030POPC   PO469192  27.637   4.308   5.855
11030POPC   GL169193  27.616   4.355   6.155
11030POPC   GL269194  27.636   4.492   6.155
11030POPC   C1A69195  27.567   4.276   6.455
11030POPC   D2A69196  27.565   4.327   6.755
11030POPC   C3A69197  27.634   4.341   7.055
11030POPC   C4A69198  27.604   4.308   7.355
11030POPC   C1B69199  27.588   4.543   6.455
11030POPC   C2B69200  27.595   4.528   6.755
11030POPC   C3B69201  27.619   4.591   7.055
11030POPC   C4B69202  27.576   4.614   7.355
11031POPC   NC369203  36.949  30.662   5.555
11031POPC   PO469204  36.949  30.670   5.855
11031POPC   GL169205  36.860  30.703   6.155
11031POPC   GL269206  37.056  30.629   6.155
11031POPC   C1A69207  36.861  30.686   6.455
11031POPC   D2A69208  36.870  30.665   6.755
11031POPC   C3A69209  36.938  30.667   7.055
11031POPC   C4A69210  36.868  30.662   7.355
11031POPC   C1B69211  37.089  30.610   6.455
11031POPC   C2B69212  37.124  30.597   6.755
11031POPC   C3B69213  37.099  30.637   7.055
11031POPC   C4B69214  37.094  30.642   7.355
11032POPC   NC369215  22.911   5.135   5.555
11032POPC   PO469216  22.973   5.088   5.855
11032POPC   GL169217  22.980   5.073   6.155
11032POPC   GL269218  22.825   5.048   6.155
11032POPC   C1A69219  22.960   5.094   6.455
11032POPC   D2A69220  22.924   5.075   6.755
11032POPC   C3A69221  22.917   5.142   7.055
11032POPC   C4A69222  22.975   5.104   7.355
11032POPC   C1B69223  22.715   4.932   6.455
11032POPC   C2B69224  22.691   4.944   6.755
11032POPC   C3B69225  22.720   4.903   7.055
11032POPC   C4B69226  22.775   4.996   7.355
11033POPC   NC369227  23.745  34.575   5.555
11033POPC   PO469228  23.738  34.597   5.855
11033POPC   GL169229  23.732  34.542   6.155
11033POPC   GL269230  23.734  34.488   6.155
11033POPC   C1A69231  23.739  34.619   6.455
11033POPC   D2A69232  23.707  34.583   6.755
11033POPC   C3A69233  23.731  34.606   7.055
11033POPC   C4A69234  23.738  34.541   7.355
11033POPC   C1B69235  23.676  34.363   6.455
11033POPC   C2B69236  23.697  34.374   6.755
11033POPC   C3B69237  23.685  34.312   7.055
11033POPC   C4B69238  23.701  34.355   7.355
11034POPC   NC369239  26.809  43.920   5.555
11034POPC   PO469240  26.788  43.890   5.855
11034POPC   GL169241  26.827  43.847   6.155
11034POPC   GL269242  26.889  43.869   6.155
11034POPC   C1A69243  26.838  43.878   6.455
11034POPC   D2A69244  26.817  43.838   6.755
11034POPC   C3A69245  26.785  43.913   7.055
11034POPC   C4A69246  26.813  43.916   7.355
11034POPC   C1B69247  27.057  43.840   6.455
11034POPC   C2B69248  27.006  43.840   6.755
11034POPC   C3B69249  27.022  43.791   7.055
11034POPC   C4B69250  27.026  43.778   7.355
11035POPC   NC369251  36.125  42.357   5.555
11035POPC   PO469252  36.125  42.367   5.855
11035POPC   GL169253  36.107  42.327   6.155
11035POPC   GL269254  35.980  42.255   6.155
11035POPC   C1A69255  36.132  42.349   6.455
11035POPC   D2A69256  36.080  42.344   6.755
11035POPC   C3A69257  36.136  42.358   7.055
11035POPC   C4A69258  36.129  42.355   7.355
11035POPC   C1B69259  35.921  42.174   6.455
11035POPC   C2B69260  35.953  42.200   6.755
11035POPC   C3B69261  35.922  42.260   7.055
11035POPC   C4B69262  35.909  42.271   7.355
11036POPC   NC369263   0.421  40.780   5.555
11036POPC   PO469264   0.452  40.817   5.855
11036POPC   GL169265   0.389  40.742   6.155
11036POPC   GL269266   0.338  40.808   6.155
11036POPC   C1A69267   0.455  40.774   6.455
11036POPC   D2A69268   0.408  40.782   6.755
11036POPC   C3A69269   0.414  40.756   7.055
11036POPC   C4A69270   0.389  40.831   7.355
11036POPC   C1B69271   0.238  40.878   6.455
11036POPC   C2B69272   0.223  40.909   6.755
11036POPC   C3B69273   0.218  40.955   7.055
11036POPC   C4B69274   0.186  40.936   7.355
11037POPC   NC369275   5.135  13.622   5.555
11037POPC   PO469276   5.121  13.644   5.855
11037POPC   GL169277   5.076  13.592   6.155
11037POPC   GL269278   4.967  13.681   6.155
11037POPC   C1A69279   5.116  13.663   6.455
11037POPC   D2A69280   5.073  13.672   6.755
11037POPC   C3A69281   5.094  13.592   7.055
11037POPC   C4A69282   5.096  13.587   7.355
11037POPC   C1B69283   4.881  13.659   6.455
11037POPC   C2B69284   4.877  13.650   6.755
11037POPC   C3B69285   4.859  13.630   7.055
11037POPC   C4B69286   4.800  13.675   7.355
11038POPC   NC369287  42.306  20.651   5.555
11038POPC   PO469288  42.310  20.608   5.855
11038POPC   GL169289  42.377  20.626   6.155
11038POPC   GL269290  42.427  20.640   6.155
11038POPC   C1A69291  42.306  20.598   6.455
11038POPC   D2A69292  42.383  20.564   6.755
11038POPC   C3A69293  42.299  20.659   7.055
11038POPC   C4A69294  42.288  20.656   7.355
11038POPC   C1B69295  42.548  20.754   6.455
11038POPC   C2B69296  42.521  20.769   6.755
11038POPC   C3B69297  42.589  20.717   7.055
11038POPC   C4B69298  42.501  20.793   7.355
11039POPC   NC369299  11.317  10.509   5.555
11039POPC   PO469300  11.325  10.476   5.855
11039POPC   GL169301  11.254  10.477   6.155
11039POPC   GL269302  11.139  10.560   6.155
11039POPC   C1A69303  11.348  10.509   6.455
11039POPC   D2A69304  11.252  10.566   6.755
11039POPC   C3A69305  11.314  10.475   7.055
11039POPC   C4A69306  11.336  10.564   7.355
11039POPC   C1B69307  11.076  10.608   6.455
11039POPC   C2B69308  11.065  10.520   6.755
11039POPC   C3B69309  11.016  10.615   7.055
11039POPC   C4B69310  11.079  10.580   7.355
11040POPC   NC369311  17.517  31.518   5.555
11040POPC   PO469312  17.533  31.425   5.855
11040POPC   GL169313  17.534  31.522   6.155
11040POPC   GL269314  17.631  31.456   6.155
11040POPC   C1A69315  17.478  31.472   6.455
11040POPC   D2A69316  17.511  31.471   6.755
11040POPC   C3A69317  17.490  31.462   7.055
11040POPC   C4A69318  17.514  31.439   7.355
11040POPC   C1B69319  17.738  31.483   6.455
11040POPC   C2B69320  17.794  31.455   6.755
11040POPC   C3B69321  17.731  31.452   7.055
11040POPC   C4B69322  17.784  31.499   7.355
11041POPC   NC369323   0.465  34.617   5.555
11041POPC   PO469324   0.390  34.588   5.855
11041POPC   GL169325   0.454  34.526   6.155
11041POPC   GL269326   0.489  34.715   6.155
11041POPC   C1A69327   0.459  34.600   6.455
11041POPC   D2A69328   0.430  34.586   6.755
11041POPC   C3A69329   0.428  34.620   7.055
11041POPC   C4A69330   0.440  34.565   7.355
11041POPC   C1B69331   0.577  34.805   6.455
11041POPC   C2B69332   0.491  34.765   6.755
11041POPC   C3B69333   0.539  34.831   7.055
11041POPC   C4B69334   0.524  34.807   7.355
11042POPC   NC369335   6.635  43.075   5.555
11042POPC   PO469336   6.615  43.104   5.855
11042POPC   GL169337   6.617  43.136   6.155
11042POPC   GL269338   6.734  43.106   6.155
11042POPC   C1A69339   6.621  43.154   6.455
11042POPC   D2A69340   6.685  43.155   6.755
11042POPC   C3A69341   6.661  43.147   7.055
11042POPC   C4A69342   6.676  43.122   7.355
11042POPC   C1B69343   6.879  43.227   6.455
11042POPC   C2B69344   6.926  43.164   6.755
11042POPC   C3B69345   6.925  43.200   7.055
11042POPC   C4B69346   6.863  43.194   7.355
11043POPC   NC369347  19.792  32.236   5.555
11043POPC   PO469348  19.873  32.235   5.855
11043POPC   GL169349  19.807  32.254   6.155
11043POPC   GL269350  19.723  32.187   6.155
11043POPC   C1A69351  19.862  32.268   6.455
11043POPC   D2A69352  19.795  32.212   6.755
11043POPC   C3A69353  19.860  32.288   7.055
11043POPC   C4A69354  19.848  32.283   7.355
11043POPC   C1B69355  19.637  32.105   6.455
11043POPC   C2B69356  19.628  32.105   6.755
11043POPC   C3B69357  19.645  32.156   7.055
11043POPC   C4B69358  19.611  32.138   7.355
11044POPC   NC369359  19.806  18.302   5.555
11044POPC   PO469360  19.806  18.314   5.855
11044POPC   GL169361  19.868  18.249   6.155
11044POPC   GL269362  19.778  18.359   6.155
11044POPC   C1A69363  19.873  18.287   6.455
11044POPC   D2A69364  19.866  18.298   6.755
11044POPC   C3A69365  19.810  18.281   7.055
11044POPC   C4A69366  19.843  18.329   7.355
11044POPC   C1B69367  19.664  18.479   6.455
11044POPC   C2B69368  19.718  18.509   6.755
11044POPC   C3B69369  19.665  18.481   7.055
11044POPC   C4B69370  19.708  18.458   7.355
11045POPC   NC369371   2.022  25.228   5.555
11045POPC   PO469372   1.974  25.270   5.855
11045POPC   GL169373   1.965  25.232   6.155
11045POPC   GL269374   2.079  25.194   6.155
11045POPC   C1A69375   2.012  25.278   6.455
11045POPC   D2A69376   2.003  25.226   6.755
11045POPC   C3A69377   2.032  25.265   7.055
11045POPC   C4A69378   1.965  25.235   7.355
11045POPC   C1B69379   2.127  25.058   6.455
11045POPC   C2B69380   2.122  25.057   6.755
11045POPC   C3B69381   2.082  25.097   7.055
11045POPC   C4B69382   2.072  25.080   7.355
11046POPC   NC369383  29.878   0.479   5.555
11046POPC   PO469384  29.950   0.439   5.855
11046POPC   GL169385  29.955   0.464   6.155
11046POPC   GL269386  29.752   0.396   6.155
11046POPC   C1A69387  29.889   0.464   6.455
11046POPC   D2A69388  29.893   0.447   6.755
11046POPC   C3A69389  29.873   0.408   7.055
11046POPC   C4A69390  29.921   0.420   7.355
11046POPC   C1B69391  29.697   0.419   6.455
11046POPC   C2B69392  29.699   0.391   6.755
11046POPC   C3B69393  29.659   0.398   7.055
11046POPC   C4B69394  29.640   0.405   7.355
11047POPC   NC369395  25.277  26.844   5.555
11047POPC   PO469396  25.259  26.799   5.855
11047POPC   GL169397  25.274  26.790   6.155
11047POPC   GL269398  25.266  26.890   6.155
11047POPC   C1A69399  25.297  26.807   6.455
11047POPC   D2A69400  25.312  26.818   6.755
11047POPC   C3A69401  25.238  26.834   7.055
11047POPC   C4A69402  25.249  26.772   7.355
11047POPC   C1B69403  25.221  27.005   6.455
11047POPC   C2B69404  25.215  27.002   6.755
11047POPC   C3B69405  25.213  27.023   7.055
11047POPC   C4B69406  25.128  27.070   7.355
11048POPC   NC369407  13.649  26.813   5.555
11048POPC   PO469408  13.589  26.780   5.855
11048POPC   GL169409  13.667  26.832   6.155
11048POPC   GL269410  13.763  26.806   6.155
11048POPC   C1A69411  13.581  26.843   6.455
11048POPC   D2A69412  13.583  26.859   6.755
11048POPC   C3A69413  13.663  26.794   7.055
11048POPC   C4A69414  13.605  26.825   7.355
11048POPC   C1B69415  13.849  26.874   6.455
11048POPC   C2B69416  13.856  26.864   6.755
11048POPC   C3B69417  13.922  26.891   7.055
11048POPC   C4B69418  13.868  26.858   7.355
11049POPC   NC369419  33.795  43.908   5.555
11049POPC   PO469420  33.847  43.935   5.855
11049POPC   GL169421  33.833  43.893   6.155
11049POPC   GL269422  33.744  43.811   6.155
11049POPC   C1A69423  33.793  43.884   6.455
11049POPC   D2A69424  33.823  43.837   6.755
11049POPC   C3A69425  33.794  43.889   7.055
11049POPC   C4A69426  33.791  43.933   7.355
11049POPC   C1B69427  33.673  43.711   6.455
11049POPC   C2B69428  33.622  43.715   6.755
11049POPC   C3B69429  33.583  43.706   7.055
11049POPC   C4B69430  33.673  43.726   7.355
11050POPC   NC369431  22.926  33.060   5.555
11050POPC   PO469432  22.915  33.014   5.855
11050POPC   GL169433  22.927  33.045   6.155
11050POPC   GL269434  22.977  33.135   6.155
11050POPC   C1A69435  22.895  32.987   6.455
11050POPC   D2A69436  22.937  33.040   6.755
11050POPC   C3A69437  22.985  33.001   7.055
11050POPC   C4A69438  22.954  33.029   7.355
11050POPC   C1B69439  23.016  33.291   6.455
11050POPC   C2B69440  23.030  33.262   6.755
11050POPC   C3B69441  23.001  33.278   7.055
11050POPC   C4B69442  22.963  33.249   7.355
11051POPC   NC369443  26.852  30.701   5.555
11051POPC   PO469444  26.851  30.673   5.855
11051POPC   GL169445  26.797  30.659   6.155
11051POPC   GL269446  26.892  30.808   6.155
11051POPC   C1A69447  26.789  30.669   6.455
11051POPC   D2A69448  26.865  30.722   6.755
11051POPC   C3A69449  26.785  30.652   7.055
11051POPC   C4A69450  26.828  30.709   7.355
11051POPC   C1B69451  26.986  30.865   6.455
11051POPC   C2B69452  26.961  30.853   6.755
11051POPC   C3B69453  27.007  30.922   7.055
11051POPC   C4B69454  26.975  30.894   7.355
11052POPC   NC369455  43.887   0.394   5.555
11052POPC   PO469456  43.873   0.466   5.855
11052POPC   GL169457  43.840   0.476   6.155
11052POPC   GL269458  43.927   0.321   6.155
11052POPC   C1A69459  43.847   0.484   6.455
11052POPC   D2A69460  43.866   0.414   6.755
11052POPC   C3A69461  43.903   0.457   7.055
11052POPC   C4A69462  43.893   0.463   7.355
11052POPC   C1B69463  43.935   0.232   6.455
11052POPC   C2B69464  43.862   0.234   6.755
11052POPC   C3B69465  43.890   0.208   7.055
11052POPC   C4B69466  43.869   0.191   7.355
11053POPC   NC369467  27.622  43.097   5.555
11053POPC   PO469468  27.575  43.072   5.855
11053POPC   GL169469  27.570  43.063   6.155
11053POPC   GL269470  27.514  43.193   6.155
11053POPC   C1A69471  27.631  43.135   6.455
11053POPC   D2A69472  27.593  43.067   6.755
11053POPC   C3A69473  27.627  43.067   7.055
11053POPC   C4A69474  27.591  43.066   7.355
11053POPC   C1B69475  27.402  43.280   6.455
11053POPC   C2B69476  27.354  43.295   6.755
11053POPC   C3B69477  27.419  43.249   7.055
11053POPC   C4B69478  27.410  43.265   7.355
11054POPC   NC369479  15.961   2.720   5.555
11054POPC   PO469480  15.959   2.770   5.855
11054POPC   GL169481  15.910   2.730   6.155
11054POPC   GL269482  16.045   2.791   6.155
11054POPC   C1A69483  15.990   2.792   6.455
11054POPC   D2A69484  15.932   2.777   6.755
11054POPC   C3A69485  15.982   2.792   7.055
11054POPC   C4A69486  15.916   2.754   7.355
11054POPC   C1B69487  16.191   2.751   6.455
11054POPC   C2B69488  16.236   2.727   6.755
11054POPC   C3B69489  16.235   2.787   7.055
11054POPC   C4B69490  16.191   2.792   7.355
11055POPC   NC369491  38.453  39.259   5.555
11055POPC   PO469492  38.466  39.267   5.855
11055POPC   GL169493  38.453  39.244   6.155
11055POPC   GL269494  38.415  39.134   6.155
11055POPC   C1A69495  38.434  39.236   6.455
11055POPC   D2A69496  38.418  39.224   6.755
11055POPC   C3A69497  38.466  39.248   7.055
11055POPC   C4A69498  38.425  39.215   7.355
11055POPC   C1B69499  38.449  38.967   6.455
11055POPC   C2B69500  38.435  38.976   6.755
11055POPC   C3B69501  38.390  38.942   7.055
11055POPC   C4B69502  38.438  38.945   7.355
11056POPC   NC369503  42.294  12.112   5.555
11056POPC   PO469504  42.316  12.100   5.855
11056POPC   GL169505  42.291  12.031   6.155
11056POPC   GL269506  42.410  12.175   6.155
11056POPC   C1A69507  42.359  12.109   6.455
11056POPC   D2A69508  42.308  12.050   6.755
11056POPC   C3A69509  42.309  12.122   7.055
11056POPC   C4A69510  42.327  12.120   7.355
11056POPC   C1B69511  42.545  12.263   6.455
11056POPC   C2B69512  42.543  12.198   6.755
11056POPC   C3B69513  42.498  12.199   7.055
11056POPC   C4B69514  42.518  12.280   7.355
11057POPC   NC369515  29.182   1.943   5.555
11057POPC   PO469516  29.187   1.963   5.855
11057POPC   GL169517  29.099   1.977   6.155
11057POPC   GL269518  29.182   2.102   6.155
11057POPC   C1A69519  29.145   2.029   6.455
11057POPC   D2A69520  29.190   2.002   6.755
11057POPC   C3A69521  29.168   1.987   7.055
11057POPC   C4A69522  29.155   2.035   7.355
11057POPC   C1B69523  29.181   2.192   6.455
11057POPC   C2B69524  29.165   2.258   6.755
11057POPC   C3B69525  29.143   2.212   7.055
11057POPC   C4B69526  29.108   2.230   7.355
11058POPC   NC369527  33.792   8.940   5.555
11058POPC   PO469528  33.796   8.974   5.855
11058POPC   GL169529  33.799   8.957   6.155
11058POPC   GL269530  33.642   9.041   6.155
11058POPC   C1A69531  33.770   9.022   6.455
11058POPC   D2A69532  33.837   8.975   6.755
11058POPC   C3A69533  33.816   9.013   7.055
11058POPC   C4A69534  33.779   8.949   7.355
11058POPC   C1B69535  33.531   9.044   6.455
11058POPC   C2B69536  33.532   9.045   6.755
11058POPC   C3B69537  33.580   9.109   7.055
11058POPC   C4B69538  33.585   9.114   7.355
11059POPC   NC369539  28.360  11.334   5.555
11059POPC   PO469540  28.364  11.276   5.855
11059POPC   GL169541  28.375  11.297   6.155
11059POPC   GL269542  28.385  11.179   6.155
11059POPC   C1A69543  28.372  11.348   6.455
11059POPC   D2A69544  28.409  11.270   6.755
11059POPC   C3A69545  28.409  11.253   7.055
11059POPC   C4A69546  28.412  11.270   7.355
11059POPC   C1B69547  28.363  11.079   6.455
11059POPC   C2B69548  28.391  11.010   6.755
11059POPC   C3B69549  28.342  11.080   7.055
11059POPC   C4B69550  28.394  11.028   7.355
11060POPC   NC369551  21.359  29.896   5.555
11060POPC   PO469552  21.362  29.946   5.855
11060POPC   GL169553  21.416  29.969   6.155
11060POPC   GL269554  21.336  29.787   6.155
11060POPC   C1A69555  21.377  29.964   6.455
11060POPC   D2A69556  21.378  29.947   6.755
11060POPC   C3A69557  21.392  29.963   7.055
11060POPC   C4A69558  21.419  29.909   7.355
11060POPC   C1B69559  21.210  29.744   6.455
11060POPC   C2B69560  21.268  29.674   6.755
11060POPC   C3B69561  21.299  29.690   7.055
11060POPC   C4B69562  21.297  29.748   7.355
11061POPC   NC369563  23.675  13.581   5.555
11061POPC   PO469564  23.731  13.640   5.855
11061POPC   GL169565  23.729  13.667   6.155
11061POPC   GL269566  23.584  13.689   6.155
11061POPC   C1A69567  23.694  13.600   6.455
11061POPC   D2A69568  23.741  13.648   6.755
11061POPC   C3A69569  23.731  13.596   7.055
11061POPC   C4A69570  23.761  13.662   7.355
11061POPC   C1B69571  23.501  13.759   6.455
11061POPC   C2B69572  23.511  13.733   6.755
11061POPC   C3B69573  23.534  13.783   7.055
11061POPC   C4B69574  23.491  13.751   7.355
11062POPC   NC369575   2.741  30.651   5.555
11062POPC   PO469576   2.749  30.710   5.855
11062POPC   GL169577   2.803  30.662   6.155
11062POPC   GL269578   2.861  30.753   6.155
11062POPC   C1A69579   2.767  30.742   6.455
11062POPC   D2A69580   2.766  30.661   6.755
11062POPC   C3A69581   2.745  30.745   7.055
11062POPC   C4A69582   2.801  30.681   7.355
11062POPC   C1B69583   3.030  30.797   6.455
11062POPC   C2B69584   2.980  30.736   6.755
11062POPC   C3B69585   2.982  30.797   7.055
11062POPC   C4B69586   2.984  30.795   7.355
11063POPC   NC369587  36.108  28.364   5.555
11063POPC   PO469588  36.100  28.332   5.855
11063POPC   GL169589  36.130  28.337   6.155
11063POPC   GL269590  36.278  28.386   6.155
11063POPC   C1A69591  36.153  28.380   6.455
11063POPC   D2A69592  36.167  28.414   6.755
11063POPC   C3A69593  36.125  28.379   7.055
11063POPC   C4A69594  36.147  28.322   7.355
11063POPC   C1B69595  36.339  28.437   6.455
11063POPC   C2B69596  36.355  28.424   6.755
11063POPC   C3B69597  36.391  28.454   7.055
11063POPC   C4B69598  36.412  28.486   7.355
11064POPC   NC369599  32.980  37.719   5.555
11064POPC   PO469600  33.051  37.692   5.855
11064POPC   GL169601  33.018  37.654   6.155
11064POPC   GL269602  32.940  37.627   6.155
11064POPC   C1A69603  33.037  37.662   6.455
11064POPC   D2A69604  33.028  37.722   6.755
11064POPC   C3A69605  32.983  37.678   7.055
11064POPC   C4A69606  33.047  37.670   7.355
11064POPC   C1B69607  32.818  37.494   6.455
11064POPC   C2B69608  32.840  37.531   6.755
11064POPC   C3B69609  32.856  37.516   7.055
11064POPC   C4B69610  32.811  37.510   7.355
11065POPC   NC369611  16.736  27.631   5.555
11065POPC   PO469612  16.754  27.574   5.855
11065POPC   GL169613  16.698  27.551   6.155
11065POPC   GL269614  16.609  27.534   6.155
11065POPC   C1A69615  16.726  27.633   6.455
11065POPC   D2A69616  16.774  27.621   6.755
11065POPC   C3A69617  16.751  27.599   7.055
11065POPC   C4A69618  16.696  27.546   7.355
11065POPC   C1B69619  16.507  27.482   6.455
11065POPC   C2B69620  16.534  27.410   6.755
11065POPC   C3B69621  16.541  27.413   7.055
11065POPC   C4B69622  16.532  27.431   7.355
11066POPC   NC369623  23.667  39.216   5.555
11066POPC   PO469624  23.760  39.215   5.855
11066POPC   GL169625  23.736  39.218   6.155
11066POPC   GL269626  23.606  39.313   6.155
11066POPC   C1A69627  23.696  39.250   6.455
11066POPC   D2A69628  23.698  39.208   6.755
11066POPC   C3A69629  23.715  39.189   7.055
11066POPC   C4A69630  23.722  39.197   7.355
11066POPC   C1B69631  23.517  39.340   6.455
11066POPC   C2B69632  23.479  39.299   6.755
11066POPC   C3B69633  23.527  39.300   7.055
11066POPC   C4B69634  23.464  39.347   7.355
11067POPC   NC369635  25.314  12.849   5.555
11067POPC   PO469636  25.299  12.847   5.855
11067POPC   GL169637  25.259  12.833   6.155
11067POPC   GL269638  25.411  12.876   6.155
11067POPC   C1A69639  25.250  12.820   6.455
11067POPC   D2A69640  25.276  12.900   6.755
11067POPC   C3A69641  25.222  12.862   7.055
11067POPC   C4A69642  25.296  12.880   7.355
11067POPC   C1B69643  25.517  12.817   6.455
11067POPC   C2B69644  25.478  12.874   6.755
11067POPC   C3B69645  25.531  12.827   7.055
11067POPC   C4B69646  25.481  12.861   7.355
11068POPC   NC369647  36.108  35.390   5.555
11068POPC   PO469648  36.084  35.375   5.855
11068POPC   GL169649  36.159  35.321   6.155
11068POPC   GL269650  36.023  35.379   6.155
11068POPC   C1A69651  36.140  35.389   6.455
11068POPC   D2A69652  36.160  35.341   6.755
11068POPC   C3A69653  36.157  35.322   7.055
11068POPC   C4A69654  36.162  35.317   7.355
11068POPC   C1B69655  35.903  35.518   6.455
11068POPC   C2B69656  35.909  35.456   6.755
11068POPC   C3B69657  35.871  35.438   7.055
11068POPC   C4B69658  35.883  35.451   7.355
11069POPC   NC369659  41.551   3.495   5.555
11069POPC   PO469660  41.520   3.578   5.855
11069POPC   GL169661  41.598   3.576   6.155
11069POPC   GL269662  41.503   3.665   6.155
11069POPC   C1A69663  41.519   3.577   6.455
11069POPC   D2A69664  41.602   3.559   6.755
11069POPC   C3A69665  41.550   3.537   7.055
11069POPC   C4A69666  41.575   3.522   7.355
11069POPC   C1B69667  41.437   3.752   6.455
11069POPC   C2B69668  41.441   3.734   6.755
11069POPC   C3B69669  41.499   3.803   7.055
11069POPC   C4B69670  41.437   3.735   7.355
11070POPC   NC369671  28.406  43.904   5.555
11070POPC   PO469672  28.395  43.911   5.855
11070POPC   GL169673  28.418  43.861   6.155
11070POPC   GL269674  28.217  43.857   6.155
11070POPC   C1A69675  28.332  43.935   6.455
11070POPC   D2A69676  28.339  43.898   6.755
11070POPC   C3A69677  28.411  43.924   7.055
11070POPC   C4A69678  28.369  43.890   7.355
11070POPC   C1B69679  28.121  43.921   6.455
11070POPC   C2B69680  28.073  43.904   6.755
11070POPC   C3B69681  28.128  43.873   7.055
11070POPC   C4B69682  28.119  43.895   7.355
11071POPC   NC369683  24.460   1.940   5.555
11071POPC   PO469684  24.481   1.945   5.855
11071POPC   GL169685  24.446   1.948   6.155
11071POPC   GL269686  24.539   1.891   6.155
11071POPC   C1A69687  24.539   1.977   6.455
11071POPC   D2A69688  24.478   2.015   6.755
11071POPC   C3A69689  24.473   2.015   7.055
11071POPC   C4A69690  24.458   2.031   7.355
11071POPC   C1B69691  24.487   1.759   6.455
11071POPC   C2B69692  24.477   1.738   6.755
11071POPC   C3B69693  24.441   1.722   7.055
11071POPC   C4B69694  24.475   1.721   7.355
11072POPC   NC369695   7.389   8.148   5.555
11072POPC   PO469696   7.447   8.202   5.855
11072POPC   GL169697   7.403   8.206   6.155
11072POPC   GL269698   7.332   8.141   6.155
11072POPC   C1A69699   7.435   8.171   6.455
11072POPC   D2A69700   7.432   8.205   6.755
11072POPC   C3A69701   7.376   8.215   7.055
11072POPC   C4A69702   7.436   8.170   7.355
11072POPC   C1B69703   7.148   8.111   6.455
11072POPC   C2B69704   7.157   8.104   6.755
11072POPC   C3B69705   7.224   8.095   7.055
11072POPC   C4B69706   7.181   8.135   7.355
11073POPC   NC369707  29.943  35.358   5.555
11073POPC   PO469708  29.910  35.352   5.855
11073POPC   GL169709  29.965  35.365   6.155
11073POPC   GL269710  30.018  35.272   6.155
11073POPC   C1A69711  29.884  35.312   6.455
11073POPC   D2A69712  29.960  35.352   6.755
11073POPC   C3A69713  29.918  35.392   7.055
11073POPC   C4A69714  29.962  35.332   7.355
11073POPC   C1B69715  30.157  35.172   6.455
11073POPC   C2B69716  30.127  35.229   6.755
11073POPC   C3B69717  30.099  35.218   7.055
11073POPC   C4B69718  30.105  35.166   7.355
11074POPC   NC369719  22.929  43.918   5.555
11074POPC   PO469720  22.896  43.869   5.855
11074POPC   GL169721  22.915  43.934   6.155
11074POPC   GL269722  22.919  43.805   6.155
11074POPC   C1A69723  22.904  43.918   6.455
11074POPC   D2A69724  22.940  43.885   6.755
11074POPC   C3A69725  22.956  43.874   7.055
11074POPC   C4A69726  22.893  43.918   7.355
11074POPC   C1B69727  22.844  43.672   6.455
11074POPC   C2B69728  22.869  43.628   6.755
11074POPC   C3B69729  22.852  43.619   7.055
11074POPC   C4B69730  22.858  43.607   7.355
11075POPC   NC369731   4.342   4.344   5.555
11075POPC   PO469732   4.284   4.357   5.855
11075POPC   GL169733   4.277   4.323   6.155
11075POPC   GL269734   4.266   4.409   6.155
11075POPC   C1A69735   4.299   4.308   6.455
11075POPC   D2A69736   4.283   4.330   6.755
11075POPC   C3A69737   4.353   4.293   7.055
11075POPC   C4A69738   4.278   4.353   7.355
11075POPC   C1B69739   4.293   4.510   6.455
11075POPC   C2B69740   4.271   4.533   6.755
11075POPC   C3B69741   4.218   4.573   7.055
11075POPC   C4B69742   4.256   4.592   7.355
11076POPC   NC369743   8.182  22.190   5.555
11076POPC   PO469744   8.237  22.201   5.855
11076POPC   GL169745   8.176  22.199   6.155
11076POPC   GL269746   8.137  22.072   6.155
11076POPC   C1A69747   8.165  22.199   6.455
11076POPC   D2A69748   8.154  22.184   6.755
11076POPC   C3A69749   8.239  22.136   7.055
11076POPC   C4A69750   8.171  22.197   7.355
11076POPC   C1B69751   7.952  22.027   6.455
11076POPC   C2B69752   7.964  22.062   6.755
11076POPC   C3B69753   7.967  22.030   7.055
11076POPC   C4B69754   8.008  21.987   7.355
11077POPC   NC369755  41.543  43.136   5.555
11077POPC   PO469756  41.519  43.153   5.855
11077POPC   GL169757  41.574  43.115   6.155
11077POPC   GL269758  41.635  43.056   6.155
11077POPC   C1A69759  41.537  43.122   6.455
11077POPC   D2A69760  41.522  43.140   6.755
11077POPC   C3A69761  41.577  43.090   7.055
11077POPC   C4A69762  41.517  43.114   7.355
11077POPC   C1B69763  41.693  42.959   6.455
11077POPC   C2B69764  41.701  42.878   6.755
11077POPC   C3B69765  41.693  42.947   7.055
11077POPC   C4B69766  41.682  42.968   7.355
11078POPC   NC369767  32.250  18.233   5.555
11078POPC   PO469768  32.284  18.253   5.855
11078POPC   GL169769  32.277  18.315   6.155
11078POPC   GL269770  32.256  18.149   6.155
11078POPC   C1A69771  32.236  18.257   6.455
11078POPC   D2A69772  32.292  18.271   6.755
11078POPC   C3A69773  32.276  18.285   7.055
11078POPC   C4A69774  32.263  18.323   7.355
11078POPC   C1B69775  32.208  18.052   6.455
11078POPC   C2B69776  32.171  17.991   6.755
11078POPC   C3B69777  32.147  18.020   7.055
11078POPC   C4B69778  32.201  18.070   7.355
11079POPC   NC369779  44.622   1.980   5.555
11079POPC   PO469780  44.707   2.003   5.855
11079POPC   GL169781  44.697   1.978   6.155
11079POPC   GL269782  44.713   2.068   6.155
11079POPC   C1A69783  44.627   1.968   6.455
11079POPC   D2A69784  44.630   1.960   6.755
11079POPC   C3A69785  44.689   1.953   7.055
11079POPC   C4A69786  44.707   2.039   7.355
11079POPC   C1B69787  44.910   2.150   6.455
11079POPC   C2B69788  44.862   2.142   6.755
11079POPC   C3B69789  44.843   2.094   7.055
11079POPC   C4B69790  44.908   2.187   7.355
11080POPC   NC369791  15.153   1.188   5.555
11080POPC   PO469792  15.149   1.225   5.855
11080POPC   GL169793  15.223   1.215   6.155
11080POPC   GL269794  15.257   1.066   6.155
11080POPC   C1A69795  15.163   1.260   6.455
11080POPC   D2A69796  15.179   1.220   6.755
11080POPC   C3A69797  15.189   1.212   7.055
11080POPC   C4A69798  15.212   1.192   7.355
11080POPC   C1B69799  15.214   0.943   6.455
11080POPC   C2B69800  15.205   0.966   6.755
11080POPC   C3B69801  15.199   0.953   7.055
11080POPC   C4B69802  15.269   0.975   7.355
11081POPC   NC369803   5.133   5.100   5.555
11081POPC   PO469804   5.078   5.044   5.855
11081POPC   GL169805   5.086   5.067   6.155
11081POPC   GL269806   4.936   5.080   6.155
11081POPC   C1A69807   5.130   5.127   6.455
11081POPC   D2A69808   5.060   5.109   6.755
11081POPC   C3A69809   5.088   5.093   7.055
11081POPC   C4A69810   5.067   5.117   7.355
11081POPC   C1B69811   4.872   5.106   6.455
11081POPC   C2B69812   4.807   5.139   6.755
11081POPC   C3B69813   4.888   5.134   7.055
11081POPC   C4B69814   4.879   5.160   7.355
11082POPC   NC369815  13.666   1.181   5.555
11082POPC   PO469816  13.676   1.230   5.855
11082POPC   GL169817  13.677   1.183   6.155
11082POPC   GL269818  13.540   1.113   6.155
11082POPC   C1A69819  13.654   1.171   6.455
11082POPC   D2A69820  13.591   1.180   6.755
11082POPC   C3A69821  13.641   1.175   7.055
11082POPC   C4A69822  13.599   1.248   7.355
11082POPC   C1B69823  13.531   0.934   6.455
11082POPC   C2B69824  13.488   0.948   6.755
11082POPC   C3B69825  13.497   0.971   7.055
11082POPC   C4B69826  13.579   1.019   7.355
11083POPC   NC369827   2.814   5.877   5.555
11083POPC   PO469828   2.742   5.876   5.855
11083POPC   GL169829   2.769   5.885   6.155
11083POPC   GL269830   2.675   5.963   6.155
11083POPC   C1A69831   2.809   5.862   6.455
11083POPC   D2A69832   2.731   5.888   6.755
11083POPC   C3A69833   2.751   5.878   7.055
11083POPC   C4A69834   2.766   5.858   7.355
11083POPC   C1B69835   2.607   5.973   6.455
11083POPC   C2B69836   2.548   5.981   6.755
11083POPC   C3B69837   2.517   6.042   7.055
11083POPC   C4B69838   2.599   6.005   7.355
11084POPC   NC369839  15.985   8.942   5.555
11084POPC   PO469840  15.965   8.979   5.855
11084POPC   GL169841  15.998   8.950   6.155
11084POPC   GL269842  15.997   8.904   6.155
11084POPC   C1A69843  15.987   8.984   6.455
11084POPC   D2A69844  15.916   8.991   6.755
11084POPC   C3A69845  15.977   8.973   7.055
11084POPC   C4A69846  15.961   9.010   7.355
11084POPC   C1B69847  16.088   8.796   6.455
11084POPC   C2B69848  16.128   8.761   6.755
11084POPC   C3B69849  16.089   8.775   7.055
11084POPC   C4B69850  16.081   8.777   7.355
11085POPC   NC369851   8.197  13.669   5.555
11085POPC   PO469852   8.235  13.609   5.855
11085POPC   GL169853   8.211  13.643   6.155
11085POPC   GL269854   8.093  13.526   6.155
11085POPC   C1A69855   8.161  13.592   6.455
11085POPC   D2A69856   8.244  13.611   6.755
11085POPC   C3A69857   8.243  13.658   7.055
11085POPC   C4A69858   8.186  13.630   7.355
11085POPC   C1B69859   8.027  13.469   6.455
11085POPC   C2B69860   8.052  13.441   6.755
11085POPC   C3B69861   8.084  13.484   7.055
11085POPC   C4B69862   8.072  13.444   7.355
11086POPC   NC369863   8.995  19.790   5.555
11086POPC   PO469864   9.019  19.801   5.855
11086POPC   GL169865   8.954  19.879   6.155
11086POPC   GL269866   9.039  19.728   6.155
11086POPC   C1A69867   8.980  19.873   6.455
11086POPC   D2A69868   9.001  19.846   6.755
11086POPC   C3A69869   9.015  19.839   7.055
11086POPC   C4A69870   9.021  19.880   7.355
11086POPC   C1B69871   9.116  19.609   6.455
11086POPC   C2B69872   9.070  19.580   6.755
11086POPC   C3B69873   9.093  19.568   7.055
11086POPC   C4B69874   9.132  19.574   7.355
11087POPC   NC369875  33.825  33.063   5.555
11087POPC   PO469876  33.783  33.017   5.855
11087POPC   GL169877  33.827  32.978   6.155
11087POPC   GL269878  33.925  33.062   6.155
11087POPC   C1A69879  33.801  32.994   6.455
11087POPC   D2A69880  33.837  32.995   6.755
11087POPC   C3A69881  33.771  32.983   7.055
11087POPC   C4A69882  33.788  33.017   7.355
11087POPC   C1B69883  34.059  33.097   6.455
11087POPC   C2B69884  34.051  33.140   6.755
11087POPC   C3B69885  34.038  33.078   7.055
11087POPC   C4B69886  34.056  33.148   7.355
11088POPC   NC369887  14.422  44.681   5.555
11088POPC   PO469888  14.393  44.691   5.855
11088POPC   GL169889  14.380  44.652   6.155
11088POPC   GL269890  14.291  44.585   6.155
11088POPC   C1A69891  14.378  44.697   6.455
11088POPC   D2A69892  14.398  44.690   6.755
11088POPC   C3A69893  14.428  44.621   7.055
11088POPC   C4A69894  14.453  44.620   7.355
11088POPC   C1B69895  14.150  44.594   6.455
11088POPC   C2B69896  14.147  44.544   6.755
11088POPC   C3B69897  14.143  44.565   7.055
11088POPC   C4B69898  14.177  44.625   7.355
11089POPC   NC369899  26.020  39.252   5.555
11089POPC   PO469900  26.030  39.181   5.855
11089POPC   GL169901  26.019  39.253   6.155
11089POPC   GL269902  25.961  39.280   6.155
11089POPC   C1A69903  26.075  39.247   6.455
11089POPC   D2A69904  26.058  39.237   6.755
11089POPC   C3A69905  26.064  39.276   7.055
11089POPC   C4A69906  26.007  39.239   7.355
11089POPC   C1B69907  25.822  39.238   6.455
11089POPC   C2B69908  25.819  39.276   6.755
11089POPC   C3B69909  25.791  39.201   7.055
11089POPC   C4B69910  25.777  39.262   7.355
11090POPC   NC369911  16.682  22.157   5.555
11090POPC   PO469912  16.687  22.125   5.855
11090POPC   GL169913  16.770  22.119   6.155
11090POPC   GL269914  16.880  22.130   6.155
11090POPC   C1A69915  16.704  22.154   6.455
11090POPC   D2A69916  16.697  22.160   6.755
11090POPC   C3A69917  16.713  22.169   7.055
11090POPC   C4A69918  16.695  22.122   7.355
11090POPC   C1B69919  16.952  22.092   6.455
11090POPC   C2B69920  17.017  22.173   6.755
11090POPC   C3B69921  16.954  22.136   7.055
11090POPC   C4B69922  16.935  22.173   7.355
11091POPC   NC369923  33.799   7.468   5.555
11091POPC   PO469924  33.823   7.391   5.855
11091POPC   GL169925  33.812   7.418   6.155
11091POPC   GL269926  33.964   7.503   6.155
11091POPC   C1A69927  33.793   7.396   6.455
11091POPC   D2A69928  33.806   7.437   6.755
11091POPC   C3A69929  33.800   7.442   7.055
11091POPC   C4A69930  33.799   7.402   7.355
11091POPC   C1B69931  33.997   7.518   6.455
11091POPC   C2B69932  34.004   7.483   6.755
11091POPC   C3B69933  34.022   7.529   7.055
11091POPC   C4B69934  34.002   7.528   7.355
11092POPC   NC369935  23.666  41.521   5.555
11092POPC   PO469936  23.694  41.519   5.855
11092POPC   GL169937  23.708  41.553   6.155
11092POPC   GL269938  23.885  41.558   6.155
11092POPC   C1A69939  23.732  41.530   6.455
11092POPC   D2A69940  23.730  41.588   6.755
11092POPC   C3A69941  23.712  41.537   7.055
11092POPC   C4A69942  23.682  41.547   7.355
11092POPC   C1B69943  23.931  41.544   6.455
11092POPC   C2B69944  23.996  41.578   6.755
11092POPC   C3B69945  23.951  41.593   7.055
11092POPC   C4B69946  23.953  41.603   7.355
11093POPC   NC369947  12.833   3.585   5.555
11093POPC   PO469948  12.901   3.499   5.855
11093POPC   GL169949  12.812   3.584   6.155
11093POPC   GL269950  12.896   3.676   6.155
11093POPC   C1A69951  12.848   3.504   6.455
11093POPC   D2A69952  12.886   3.533   6.755
11093POPC   C3A69953  12.844   3.586   7.055
11093POPC   C4A69954  12.820   3.582   7.355
11093POPC   C1B69955  12.979   3.752   6.455
11093POPC   C2B69956  12.997   3.800   6.755
11093POPC   C3B69957  12.913   3.807   7.055
11093POPC   C4B69958  12.933   3.777   7.355
11094POPC   NC369959  42.344  27.569   5.555
11094POPC   PO469960  42.337  27.595   5.855
11094POPC   GL169961  42.293  27.569   6.155
11094POPC   GL269962  42.363  27.454   6.155
11094POPC   C1A69963  42.352  27.571   6.455
11094POPC   D2A69964  42.290  27.613   6.755
11094POPC   C3A69965  42.340  27.619   7.055
11094POPC   C4A69966  42.338  27.632   7.355
11094POPC   C1B69967  42.461  27.369   6.455
11094POPC   C2B69968  42.516  27.416   6.755
11094POPC   C3B69969  42.496  27.409   7.055
11094POPC   C4B69970  42.534  27.428   7.355
11095POPC   NC369971  43.861  36.899   5.555
11095POPC   PO469972  43.840  36.946   5.855
11095POPC   GL169973  43.908  36.875   6.155
11095POPC   GL269974  44.014  36.807   6.155
11095POPC   C1A69975  43.928  36.902   6.455
11095POPC   D2A69976  43.931  36.943   6.755
11095POPC   C3A69977  43.927  36.900   7.055
11095POPC   C4A69978  43.841  36.867   7.355
11095POPC   C1B69979  44.148  36.765   6.455
11095POPC   C2B69980  44.133  36.793   6.755
11095POPC   C3B69981  44.082  36.815   7.055
11095POPC   C4B69982  44.101  36.774   7.355
11096POPC   NC369983  31.460   5.901   5.555
11096POPC   PO469984  31.454   5.918   5.855
11096POPC   GL169985  31.435   5.851   6.155
11096POPC   GL269986  31.575   6.004   6.155
11096POPC   C1A69987  31.452   5.875   6.455
11096POPC   D2A69988  31.439   5.917   6.755
11096POPC   C3A69989  31.434   5.865   7.055
11096POPC   C4A69990  31.508   5.838   7.355
11096POPC   C1B69991  31.665   6.041   6.455
11096POPC   C2B69992  31.634   6.024   6.755
11096POPC   C3B69993  31.584   6.064   7.055
11096POPC   C4B69994  31.632   6.043   7.355
11097POPC   NC369995  10.541   8.192   5.555
11097POPC   PO469996  10.558   8.210   5.855
11097POPC   GL169997  10.525   8.156   6.155
11097POPC   GL269998  10.371   8.119   6.155
11097POPC   C1A69999  10.476   8.230   6.455
11097POPC   D2A70000  10.560   8.169   6.755
11097POPC   C3A70001  10.517   8.171   7.055
11097POPC   C4A70002  10.556   8.225   7.355
11097POPC   C1B70003  10.279   8.092   6.455
11097POPC   C2B70004  10.351   8.016   6.755
11097POPC   C3B70005  10.279   8.067   7.055
11097POPC   C4B70006  10.310   8.101   7.355
11098POPC   NC370007  39.199  37.691   5.555
11098POPC   PO470008  39.187  37.675   5.855
11098POPC   GL170009  39.246  37.715   6.155
11098POPC   GL270010  39.172  37.596   6.155
11098POPC   C1A70011  39.273  37.653   6.455
11098POPC   D2A70012  39.211  37.699   6.755
11098POPC   C3A70013  39.257  37.712   7.055
11098POPC   C4A70014  39.212  37.726   7.355
11098POPC   C1B70015  39.052  37.504   6.455
11098POPC   C2B70016  39.075  37.496   6.755
11098POPC   C3B70017  39.085  37.483   7.055
11098POPC   C4B70018  39.057  37.486   7.355
11099POPC   NC370019   0.424  17.467   5.555
11099POPC   PO470020   0.408  17.548   5.855
11099POPC   GL170021   0.465  17.457   6.155
11099POPC   GL270022   0.473  17.377   6.155
11099POPC   C1A70023   0.405  17.507   6.455
11099POPC   D2A70024   0.409  17.523   6.755
11099POPC   C3A70025   0.435  17.535   7.055
11099POPC   C4A70026   0.432  17.522   7.355
11099POPC   C1B70027   0.434  17.259   6.455
11099POPC   C2B70028   0.416  17.295   6.755
11099POPC   C3B70029   0.493  17.292   7.055
11099POPC   C4B70030   0.416  17.264   7.355
11100POPC   NC370031   1.252  36.080   5.555
11100POPC   PO470032   1.196  36.121   5.855
11100POPC   GL170033   1.258  36.160   6.155
11100POPC   GL270034   1.224  36.275   6.155
11100POPC   C1A70035   1.214  36.107   6.455
11100POPC   D2A70036   1.203  36.105   6.755
11100POPC   C3A70037   1.217  36.133   7.055
11100POPC   C4A70038   1.228  36.089   7.355
11100POPC   C1B70039   1.281  36.351   6.455
11100POPC   C2B70040   1.291  36.338   6.755
11100POPC   C3B70041   1.207  36.353   7.055
11100POPC   C4B70042   1.272  36.400   7.355
11101POPC   NC370043   9.017  36.909   5.555
11101POPC   PO470044   8.981  36.869   5.855
11101POPC   GL170045   9.011  36.934   6.155
11101POPC   GL270046   8.979  36.754   6.155
11101POPC   C1A70047   8.924  36.937   6.455
11101POPC   D2A70048   8.979  36.946   6.755
11101POPC   C3A70049   8.966  36.873   7.055
11101POPC   C4A70050   8.979  36.922   7.355
11101POPC   C1B70051   8.923  36.700   6.455
11101POPC   C2B70052   8.931  36.703   6.755
11101POPC   C3B70053   8.919  36.669   7.055
11101POPC   C4B70054   8.901  36.624   7.355
11102POPC   NC370055  35.345   3.588   5.555
11102POPC   PO470056  35.323   3.542   5.855
11102POPC   GL170057  35.347   3.537   6.155
11102POPC   GL270058  35.296   3.631   6.155
11102POPC   C1A70059  35.379   3.539   6.455
11102POPC   D2A70060  35.317   3.499   6.755
11102POPC   C3A70061  35.356   3.551   7.055
11102POPC   C4A70062  35.353   3.567   7.355
11102POPC   C1B70063  35.275   3.745   6.455
11102POPC   C2B70064  35.289   3.801   6.755
11102POPC   C3B70065  35.210   3.751   7.055
11102POPC   C4B70066  35.289   3.746   7.355
11103POPC   NC370067  29.175  15.927   5.555
11103POPC   PO470068  29.168  15.934   5.855
11103POPC   GL170069  29.152  15.920   6.155
11103POPC   GL270070  29.251  15.996   6.155
11103POPC   C1A70071  29.158  15.920   6.455
11103POPC   D2A70072  29.097  16.000   6.755
11103POPC   C3A70073  29.107  15.981   7.055
11103POPC   C4A70074  29.185  15.960   7.355
11103POPC   C1B70075  29.344  16.026   6.455
11103POPC   C2B70076  29.400  16.015   6.755
11103POPC   C3B70077  29.410  16.001   7.055
11103POPC   C4B70078  29.398  15.991   7.355
11104POPC   NC370079   5.908  21.397   5.555
11104POPC   PO470080   5.876  21.405   5.855
11104POPC   GL170081   5.843  21.402   6.155
11104POPC   GL270082   5.835  21.246   6.155
11104POPC   C1A70083   5.880  21.408   6.455
11104POPC   D2A70084   5.903  21.427   6.755
11104POPC   C3A70085   5.900  21.346   7.055
11104POPC   C4A70086   5.908  21.357   7.355
11104POPC   C1B70087   5.803  21.150   6.455
11104POPC   C2B70088   5.788  21.144   6.755
11104POPC   C3B70089   5.852  21.171   7.055
11104POPC   C4B70090   5.802  21.184   7.355
11105POPC   NC370091   9.766   9.732   5.555
11105POPC   PO470092   9.760   9.731   5.855
11105POPC   GL170093   9.730   9.756   6.155
11105POPC   GL270094   9.680   9.831   6.155
11105POPC   C1A70095   9.704   9.762   6.455
11105POPC   D2A70096   9.793   9.795   6.755
11105POPC   C3A70097   9.793   9.783   7.055
11105POPC   C4A70098   9.720   9.718   7.355
11105POPC   C1B70099   9.581   9.872   6.455
11105POPC   C2B70100   9.520   9.854   6.755
11105POPC   C3B70101   9.537   9.898   7.055
11105POPC   C4B70102   9.516   9.926   7.355
11106POPC   NC370103  17.547   6.636   5.555
11106POPC   PO470104  17.461   6.677   5.855
11106POPC   GL170105  17.534   6.659   6.155
11106POPC   GL270106  17.534   6.495   6.155
11106POPC   C1A70107  17.513   6.623   6.455
11106POPC   D2A70108  17.477   6.693   6.755
11106POPC   C3A70109  17.554   6.608   7.055
11106POPC   C4A70110  17.526   6.644   7.355
11106POPC   C1B70111  17.555   6.401   6.455
11106POPC   C2B70112  17.488   6.377   6.755
11106POPC   C3B70113  17.490   6.436   7.055
11106POPC   C4B70114  17.541   6.370   7.355
11107POPC   NC370115   8.207   5.864   5.555
11107POPC   PO470116   8.168   5.907   5.855
11107POPC   GL170117   8.170   5.897   6.155
11107POPC   GL270118   8.233   6.037   6.155
11107POPC   C1A70119   8.202   5.914   6.455
11107POPC   D2A70120   8.230   5.893   6.755
11107POPC   C3A70121   8.163   5.861   7.055
11107POPC   C4A70122   8.225   5.835   7.355
11107POPC   C1B70123   8.204   6.121   6.455
11107POPC   C2B70124   8.253   6.087   6.755
11107POPC   C3B70125   8.264   6.157   7.055
11107POPC   C4B70126   8.277   6.071   7.355
11108POPC   NC370127   5.118  40.047   5.555
11108POPC   PO470128   5.077  40.001   5.855
11108POPC   GL170129   5.090  40.011   6.155
11108POPC   GL270130   5.062  39.926   6.155
11108POPC   C1A70131   5.076  39.980   6.455
11108POPC   D2A70132   5.106  39.997   6.755
11108POPC   C3A70133   5.088  40.052   7.055
11108POPC   C4A70134   5.087  39.966   7.355
11108POPC   C1B70135   4.941  39.758   6.455
11108POPC   C2B70136   4.965  39.852   6.755
11108POPC   C3B70137   4.993  39.779   7.055
11108POPC   C4B70138   4.992  39.784   7.355
11109POPC   NC370139  39.242  22.182   5.555
11109POPC   PO470140  39.263  22.117   5.855
11109POPC   GL170141  39.211  22.184   6.155
11109POPC   GL270142  39.165  22.030   6.155
11109POPC   C1A70143  39.232  22.134   6.455
11109POPC   D2A70144  39.254  22.128   6.755
11109POPC   C3A70145  39.217  22.169   7.055
11109POPC   C4A70146  39.251  22.117   7.355
11109POPC   C1B70147  39.054  21.950   6.455
11109POPC   C2B70148  39.098  21.931   6.755
11109POPC   C3B70149  39.080  21.991   7.055
11109POPC   C4B70150  39.063  21.960   7.355
11110POPC   NC370151  34.611  21.415   5.555
11110POPC   PO470152  34.552  21.434   5.855
11110POPC   GL170153  34.529  21.405   6.155
11110POPC   GL270154  34.689  21.443   6.155
11110POPC   C1A70155  34.535  21.400   6.455
11110POPC   D2A70156  34.552  21.390   6.755
11110POPC   C3A70157  34.612  21.405   7.055
11110POPC   C4A70158  34.566  21.391   7.355
11110POPC   C1B70159  34.805  21.490   6.455
11110POPC   C2B70160  34.844  21.474   6.755
11110POPC   C3B70161  34.841  21.491   7.055
11110POPC   C4B70162  34.800  21.437   7.355
11111POPC   NC370163  31.521  32.279   5.555
11111POPC   PO470164  31.480  32.254   5.855
11111POPC   GL170165  31.430  32.199   6.155
11111POPC   GL270166  31.428  32.148   6.155
11111POPC   C1A70167  31.440  32.215   6.455
11111POPC   D2A70168  31.427  32.276   6.755
11111POPC   C3A70169  31.429  32.198   7.055
11111POPC   C4A70170  31.442  32.249   7.355
11111POPC   C1B70171  31.505  32.019   6.455
11111POPC   C2B70172  31.456  32.028   6.755
11111POPC   C3B70173  31.463  31.951   7.055
11111POPC   C4B70174  31.448  31.992   7.355
11112POPC   NC370175  13.599  11.305   5.555
11112POPC   PO470176  13.601  11.266   5.855
11112POPC   GL170177  13.627  11.296   6.155
11112POPC   GL270178  13.649  11.161   6.155
11112POPC   C1A70179  13.605  11.269   6.455
11112POPC   D2A70180  13.591  11.342   6.755
11112POPC   C3A70181  13.627  11.340   7.055
11112POPC   C4A70182  13.580  11.254   7.355
11112POPC   C1B70183  13.758  11.084   6.455
11112POPC   C2B70184  13.666  11.065   6.755
11112POPC   C3B70185  13.664  11.050   7.055
11112POPC   C4B70186  13.759  11.084   7.355
11113POPC   NC370187  20.649  29.147   5.555
11113POPC   PO470188  20.573  29.108   5.855
11113POPC   GL170189  20.565  29.109   6.155
11113POPC   GL270190  20.643  29.201   6.155
11113POPC   C1A70191  20.601  29.157   6.455
11113POPC   D2A70192  20.604  29.111   6.755
11113POPC   C3A70193  20.561  29.155   7.055
11113POPC   C4A70194  20.656  29.126   7.355
11113POPC   C1B70195  20.751  29.332   6.455
11113POPC   C2B70196  20.798  29.340   6.755
11113POPC   C3B70197  20.809  29.346   7.055
11113POPC   C4B70198  20.794  29.345   7.355
11114POPC   NC370199  30.689  16.737   5.555
11114POPC   PO470200  30.743  16.706   5.855
11114POPC   GL170201  30.680  16.708   6.155
11114POPC   GL270202  30.625  16.714   6.155
11114POPC   C1A70203  30.733  16.778   6.455
11114POPC   D2A70204  30.694  16.701   6.755
11114POPC   C3A70205  30.651  16.724   7.055
11114POPC   C4A70206  30.704  16.713   7.355
11114POPC   C1B70207  30.504  16.601   6.455
11114POPC   C2B70208  30.427  16.671   6.755
11114POPC   C3B70209  30.497  16.654   7.055
11114POPC   C4B70210  30.455  16.606   7.355
11115W        W70211  44.852  19.723   4.689
11116W        W70212  26.152  32.602  13.997
11117W        W70213  10.734  33.477   2.330
11118W        W70214  40.545  38.955  11.121
11119W        W70215  40.950  22.701  13.942
11120W        W70216   1.948  29.125  10.540
11121W        W70217  19.284  27.587  12.554
11122W        W70218  21.170  32.510  12.526
11123W        W70219  43.975  19.646   4.138
11124W        W70220  15.666   8.330  13.934
11125W        W70221  21.214  14.604   0.309
11126W        W70222  24.066  40.855   1.355
11127W        W70223  14.643   2.830  12.880
11128W        W70224   3.424  16.577   1.404
11129W        W70225  24.500  22.611  13.804
11130W        W70226  18.289  30.068   3.257
11131W        W70227   8.714  28.629  10.492
11132W        W70228  17.156  18.738   2.320
11133W        W70229  33.603   5.365  11.558
11134W        W70230  16.256  12.678  12.010
11135W        W70231  32.060  11.752   2.807
11136W        W70232  41.879  29.059   4.646
11137W        W70233  17.085  21.153  10.982
11138W        W70234   1.910  42.331  11.460
11139W        W70235  11.229  25.598   2.208
11140W        W70236  36.514   1.962  14.865
11141W        W70237  22.024  22.173   0.859
11142W        W70238  21.183  44.784   3.695
11143W        W70239  26.676  11.824  13.377
11144W        W70240  13.606  27.942   1.451
11145W        W70241  14.281   3.234   4.771
11146W        W70242  19.124   7.217  12.885
11147W        W70243   9.384   6.401  11.905
11148W        W70244  33.068  19.090   1.895
11149W        W70245  44.790   7.909  12.580
11150W        W70246   5.909  39.534   3.799
11151W        W70247  37.073  28.631   1.422
11152W        W70248  29.459   7.341   1.381
11153W        W70249  11.848   9.331  11.056
11154W        W70250  21.661  12.612  14.304
11155W        W70251  27.993  38.916  12.986
11156W        W70252  31.568  33.551   3.198
11157W        W70253   3.836  29.541   2.332
11158W        W70254  29.100  41.823  12.371
11159W        W70255  17.783  18.192   2.362
11160W        W70256  39.823  35.936  12.387
11161W        W70257  21.517  26.630  13.332
11162W        W70258  29.071  41.947  10.527
11163W        W70259   8.284  24.221  13.391
11164W        W70260  31.546  14.613  14.429
11165W        W70261  31.075  16.799   0.773
11166W        W70262   8.837  22.529   3.666
11167W        W70263  26.471  14.101  10.455
11168W        W70264  22.585   4.291   0.399
11169W        W70265  16.307  40.463  12.419
11170W        W70266  22.630  14.184   5.242
11171W        W70267  13.786  41.986  11.374
11172W        W70268  29.518  35.858  10.128
11173W        W70269  18.103   0.440  10.971
11174W        W70270  36.863  16.148   0.839
11175W        W70271   0.489  24.104   1.740
11176W        W70272  12.346   6.298   2.390
11177W        W70273  32.458  26.138  12.032
11178W        W70274   3.254   2.826  13.988
11179W        W70275  32.485  29.540  14.367
11180W        W70276  26.121  15.679   3.746
11181W        W70277  27.957  19.257   5.671
11182W        W70278  39.999   0.311  11.037
11183W        W70279  37.993  18.208  12.461
11184W        W70280  28.488  23.073  14.809
11185W        W70281  10.259  31.093  11.089
11186W        W70282  39.517   8.765   4.351
11187W        W70283   5.688   2.828   4.807
11188W        W70284  11.136  18.105   1.420
11189W        W70285  38.986  15.094   1.916
11190W        W70286  10.155   7.281  14.334
11191W        W70287  40.442   4.923   1.429
11192W        W70288  32.392   9.150  13.377
11193W        W70289  12.164   0.466  11.485
11194W        W70290  26.998  28.940  14.901
11195W        W70291  35.083   2.894  13.817
11196W        W70292  32.019  31.989   0.279
11197W        W70293   9.276  41.961   1.262
11198W        W70294  12.723  12.271   0.815
11199W        W70295  33.465   8.675   2.801
11200W        W70296  40.929  19.170   4.684
11201W        W70297  44.432  16.667   0.774
11202W        W70298  26.103  31.487  10.490
11203W        W70299  33.546   7.354   1.210
11204W        W70300  42.807  41.963  12.458
11205W        W70301  40.002  41.891   3.374
11206W        W70302  27.460  10.263  11.575
11207W        W70303  40.409  28.570  11.517
11208W        W70304  29.441  41.794  11.091
11209W        W70305   2.793  42.456   1.854
11210W        W70306   3.789   5.899   3.834
11211W        W70307   0.459  22.163   4.731
11212W        W70308  32.123  43.967  12.950
11213W        W70309  33.947  17.086  10.635
11214W        W70310   5.734  39.847   3.354
11215W        W70311  20.058   1.260   0.953
11216W        W70312  23.198   1.751  14.383
11217W        W70313  39.863  41.823  13.793
11218W        W70314  15.154  17.581   2.763
11219W        W70315  39.888  33.624   0.334
11220W        W70316  13.613   5.292   2.260
11221W        W70317  22.063  42.284  13.016
11222W        W70318  27.499  18.258   1.271
11223W        W70319   6.220  18.736  10.090
11224W        W70320   5.804  41.363  11.384
11225W        W70321  36.054  29.431   2.897
11226W        W70322  19.157  37.461  12.037
11227W        W70323  40.495  44.481   0.907
11228W        W70324  17.255   2.375  12.423
11229W        W70325  31.041  27.630  10.112
11230W        W70326  36.455   4.774   3.701
11231W        W70327  18.292  33.875   4.644
11232W        W70328  19.637  29.153   0.966
11233W        W70329   4.725  34.063   1.707
11234W        W70330  36.885  43.837  10.427
11235W        W70331  30.151  16.735   0.308
11236W        W70332  11.335   3.308   2.377
11237W        W70333  27.047  25.558   1.913
11238W        W70334   6.763  43.865  13.924
11239W        W70335  11.839  33.606   1.287
11240W        W70336  24.626  10.358   0.791
11241W        W70337  20.646  36.096   1.899
11242W        W70338   3.267  24.481   0.927
11243W        W70339  11.673   4.746  10.029
11244W        W70340   0.303   6.844  11.523
11245W        W70341  27.603   3.229   2.253
11246W        W70342  26.009  12.762  10.536
11247W        W70343  27.046  34.563  13.402
11248W        W70344   1.459   4.743   2.798
11249W        W70345   2.781  29.148   1.242
11250W        W70346   4.847   0.357  11.400
11251W        W70347  28.481   1.349   1.451
11252W        W70348   7.910  33.478  12.409
11253W        W70349  17.230   4.800   0.947
11254W        W70350   7.184  12.256  13.982
11255W        W70351  12.237   2.948   0.374
11256W        W70352  38.532  18.078  14.393
11257W        W70353   6.815  37.012  11.893
11258W        W70354  40.408  41.459   4.734
11259W        W70355  42.439  10.797   1.870
11260W        W70356  42.382   6.403   4.241
11261W        W70357  43.393  31.898  10.543
11262W        W70358  30.968  18.260  13.986
11263W        W70359   5.193  19.682  11.445
11264W        W70360  17.599  41.792   0.865
11265W        W70361   9.716  23.012   2.762
11266W        W70362  19.156   6.860  12.896
11267W        W70363   6.329  28.994  12.843
11268W        W70364  14.275  28.550   3.720
11269W        W70365  38.989  33.446   3.183
11270W        W70366  35.990  30.594  12.943
11271W        W70367  12.224   4.870   4.821
11272W        W70368   2.416  23.516  12.028
11273W        W70369  29.057  41.521  12.824
11274W        W70370   1.909   4.431   1.849
11275W        W70371  16.780   9.731   1.233
11276W        W70372  36.436  10.758  13.896
11277W        W70373  24.608  11.674  14.851
11278W        W70374  29.485   5.874  11.924
11279W        W70375   5.727  42.286  13.874
11280W        W70376  33.929  39.030  13.020
11281W        W70377  30.640  23.704   2.220
11282W        W70378  13.225  31.088  14.027
11283W        W70379  34.587  42.012  10.413
11284W        W70380   6.785  26.114   1.903
11285W        W70381   0.848  19.059  14.970
11286W        W70382  34.479  14.692   4.817
11287W        W70383  24.580   8.187   2.886
11288W        W70384  27.605  21.597  11.575
11289W        W70385  20.235  43.010   3.867
11290W        W70386  36.417   2.903  11.554
11291W        W70387  33.004   1.244   2.824
11292W        W70388  30.566  16.696   1.263
11293W        W70389  32.469  44.365  10.943
11294W        W70390  13.285  10.364  14.791
11295W        W70391  27.630   4.721   1.931
11296W        W70392  44.441  26.154   0.798
11297W        W70393  40.400  25.176  14.848
11298W        W70394  33.976  27.091   2.815
11299W        W70395  25.142  30.139   4.830
11300W        W70396   8.720  31.418   3.192
11301W        W70397  14.274  32.983  10.443
11302W        W70398  14.685  13.744   0.348
11303W        W70399   9.833  15.305   0.464
11304W        W70400  16.310  13.326   1.351
11305W        W70401  42.881  34.092   2.741
11306W        W70402  35.449  10.782   0.930
11307W        W70403  39.462   6.721   4.136
11308W        W70404  43.440  16.811   4.194
11309W        W70405  38.837  27.130  11.001
11310W        W70406  16.585   3.887   4.141
11311W        W70407   9.859  31.021  14.502
11312W        W70408  12.856  40.358  10.477
11313W        W70409  10.248  43.968   4.836
11314W        W70410  42.930  10.263  11.893
11315W        W70411  16.124   9.155  12.842
11316W        W70412   5.345  42.977  14.274
11317W        W70413  41.377   6.915   3.681
11318W        W70414  24.131  41.376   1.882
11319W        W70415  26.044  23.626   2.697
11320W        W70416  24.714   1.790   3.151
11321W        W70417   0.806  10.338   1.820
11322W        W70418  26.011  28.004   3.761
11323W        W70419  35.514  13.828  10.145
11324W        W70420   2.908   5.693   0.907
11325W        W70421  11.232  37.860  10.529
11326W        W70422  32.947  21.228   0.248
11327W        W70423   6.820  15.736  12.454
11328W        W70424   1.768   4.811   2.275
11329W        W70425  19.233  13.271  12.955
11330W        W70426  41.348  20.030  14.390
11331W        W70427  18.103  24.180  10.472
11332W        W70428  41.039  16.782  10.428
11333W        W70429  27.565   5.837  14.471
11334W        W70430  32.532  40.464  10.930
11335W        W70431  29.034  38.844   5.127
11336W        W70432  26.148  28.186  13.384
11337W        W70433  41.453   6.306   0.745
11338W        W70434  14.302  37.510   0.467
11339W        W70435  21.017   7.306  11.940
11340W        W70436  31.497  32.897   3.334
11341W        W70437   5.749  22.557  10.159
11342W        W70438  28.154  29.973  11.993
11343W        W70439  10.765  29.471   3.147
11344W        W70440   7.694  23.236  11.996
11345W        W70441  32.969  28.469  10.923
11346W        W70442   0.348  41.374  13.473
11347W        W70443   1.258  38.982  14.331
11348W        W70444  19.686   0.888  10.527
11349W        W70445  33.404  29.972  13.903
11350W        W70446  10.221   0.790   4.619
11351W        W70447  24.716  14.263  13.383
11352W        W70448  17.178   5.250  13.022
11353W        W70449   5.819  28.613   0.412
11354W        W70450  28.472  19.586  12.849
11355W        W70451  43.418  27.130   0.382
11356W        W70452  43.433  23.524  11.399
11357W        W70453  33.459  37.948  12.849
11358W        W70454  34.093   1.316  13.467
11359W        W70455  35.545  42.405  11.392
11360W        W70456   0.283   1.888   1.292
11361W        W70457  40.364  40.954   2.755
11362W        W70458  12.124  34.518   2.265
11363W        W70459  14.785  28.534   3.675
11364W        W70460  29.573   3.345  11.100
11365W        W70461  17.241  27.526  14.005
11366W        W70462   8.878  19.584   4.330
11367W        W70463  42.880  35.556  10.499
11368W        W70464   9.221  27.525  11.455
11369W        W70465   9.685   3.847  14.282
11370W        W70466  19.609  12.652  12.932
11371W        W70467   8.764  28.439   3.725
11372W        W70468  17.581  31.034   4.286
11373W        W70469  21.155  37.842   2.802
11374W        W70470  17.182  43.790   1.311
11375W        W70471  32.459   3.815  13.478
11376W        W70472  35.518  26.637   2.752
11377W        W70473  10.273   4.815   4.137
11378W        W70474   8.161  10.758   1.843
11379W        W70475  20.611  39.033   3.286
11380W        W70476  40.837  36.891  14.280
11381W        W70477  21.033  40.944  14.909
11382W        W70478  43.452  14.741   3.198
11383W        W70479  18.226  34.099  10.452
11384W        W70480  28.007  43.851  12.544
11385W        W70481  11.666  42.921   1.279
11386W        W70482  39.501  42.901  13.870
11387W        W70483  27.988  28.127   2.737
11388W        W70484  36.860   8.753   5.098
11389W        W70485  15.248  25.713  11.049
11390W        W70486   4.796  31.977   0.940
11391W        W70487  23.692  25.679   2.289
11392W        W70488  29.079  24.105   5.216
11393W        W70489  11.260  22.126  12.933
11394W        W70490  10.859   1.781   4.194
11395W        W70491  16.784  14.108   4.338
11396W        W70492  35.030   2.267   1.387
11397W        W70493   0.465   8.656   3.264
11398W        W70494   8.292  35.572   2.231
11399W        W70495  44.941  30.590  14.787
11400W        W70496  43.984  25.642  14.843
11401W        W70497  44.797  24.641  13.037
11402W        W70498  12.222   7.772   3.732
11403W        W70499  26.488  24.174  11.373
11404W        W70500  19.660   7.205   4.735
11405W        W70501   4.871   9.734  12.550
11406W        W70502  27.033  15.274  12.570
11407W        W70503  40.353  44.878   3.197
11408W        W70504  11.791   6.712  13.399
11409W        W70505  44.308  10.229   2.809
11410W        W70506  34.561  10.139  11.537
11411W        W70507   6.786  40.365   4.150
11412W        W70508  34.025  44.292   9.985
11413W        W70509  21.555  27.592  12.826
11414W        W70510  18.232  14.224   2.864
11415W        W70511   1.403  12.807   2.818
11416W        W70512  41.869  16.807   3.355
11417W        W70513  14.827  21.262   2.387
11418W        W70514  12.171  40.358   2.724
11419W        W70515  17.757  42.398   0.910
11420W        W70516  25.602  11.370  12.354
11421W        W70517  36.571  37.409   0.803
11422W        W70518  15.753  13.110   0.938
11423W        W70519  24.670   6.428  10.889
11424W        W70520   1.867  11.820  10.595
11425W        W70521  14.713  37.528  13.936
11426W        W70522  24.114  36.919   9.450
11427W        W70523  42.949  23.183   3.205
11428W        W70524   8.667  10.688   0.744
11429W        W70525  21.174  13.636  14.920
11430W        W70526  16.771  32.453  12.404
11431W        W70527  33.580  27.492   1.909
11432W        W70528  27.147  34.561  10.085
11433W        W70529  20.154   5.869   2.374
11434W        W70530   9.865  41.357   2.286
11435W        W70531  33.984  11.713   1.899
11436W        W70532  13.253  37.551   1.310
11437W        W70533  36.963  12.141   2.746
11438W        W70534  42.452  38.904   0.416
11439W        W70535  13.613  15.690  14.296
11440W        W70536  25.021  25.498   4.269
11441W        W70537   8.834   2.961   3.370
11442W        W70538   6.301  40.946  12.383
11443W        W70539  29.553  17.197   0.747
11444W        W70540  34.571  34.430  13.979
11445W        W70541   8.861  21.547   3.645
11446W        W70542  43.419  26.616  12.027
11447W        W70543  25.577   5.698  14.492
11448W        W70544  20.037  18.698  11.856
11449W        W70545  44.867  14.196  13.534
11450W        W70546   9.662  23.106  13.057
11451W        W70547  37.358  21.706  11.075
11452W        W70548  30.982  29.989   3.228
11453W        W70549   1.835  26.616   4.686
11454W        W70550   4.751  34.611  12.388
11455W        W70551  28.137   9.358  13.941
11456W        W70552  18.095   0.291   1.430
11457W        W70553  22.527  10.327   3.279
11458W        W70554  36.408  18.662   3.232
11459W        W70555  35.535  38.983   1.303
11460W        W70556  39.010  44.312  14.900
11461W        W70557  23.683  34.415  14.980
11462W        W70558   6.182  11.168  14.481
11463W        W70559  10.155   6.915  13.484
11464W        W70560  26.193  42.811   0.764
11465W        W70561  41.874  15.203   2.265
11466W        W70562  36.543  21.629  12.493
11467W        W70563   6.712  30.625   4.745
11468W        W70564  26.168  10.848   4.602
11469W        W70565  22.212   7.797   4.279
11470W        W70566  32.527  36.582  10.473
11471W        W70567  44.938  42.901  14.363
11472W        W70568   4.346   6.283   4.334
11473W        W70569  41.013  36.531  10.445
11474W        W70570  35.077   6.703   3.176
11475W        W70571  28.072  40.930  12.904
11476W        W70572   6.227  42.921   4.823
11477W        W70573  39.479  28.045  10.475
11478W        W70574  25.037  42.351   2.227
11479W        W70575  36.398  17.661  14.376
11480W        W70576  17.767   8.842   2.309
11481W        W70577   8.876  24.705  10.464
11482W        W70578  38.882  44.363  12.843
11483W        W70579   1.782  31.637  11.581
11484W        W70580  17.125   8.277   4.714
11485W        W70581  41.351  36.445  14.292
11486W        W70582  20.667   8.362   4.819
11487W        W70583  15.691   2.858  14.461
11488W        W70584   8.283   7.729   1.257
11489W        W70585   5.705   6.421  11.929
11490W        W70586   4.377  15.152   3.709
11491W        W70587  15.755  39.447   2.419
11492W        W70588  29.636  39.412  12.504
11493W        W70589  37.919  37.394   1.705
11494W        W70590  43.420  32.478  12.486
11495W        W70591  40.309   0.426   2.228
11496W        W70592  16.668  37.415   0.953
11497W        W70593  39.323   5.213   2.872
11498W        W70594  15.264  24.132  11.474
11499W        W70595  21.534   1.396   4.724
11500W        W70596   7.677  40.418  13.457
11501W        W70597  39.967  20.554  10.993
11502W        W70598  26.172  21.657  13.057
11503W        W70599  28.514  42.413  10.958
11504W        W70600  21.558  25.628  14.769
11505W        W70601  26.682  10.814   2.188
11506W        W70602  26.026  21.141  14.759
11507W        W70603  22.731  38.332  12.400
11508W        W70604  42.840  19.209  12.844
11509W        W70605  28.611  40.387  11.917
11510W        W70606  28.963   2.261  13.949
11511W        W70607  34.439  38.839   4.778
11512W        W70608  37.065  44.776  14.457
11513W        W70609  28.559  17.564  14.806
11514W        W70610  13.608  34.567  12.426
11515W        W70611  37.862  42.946  12.092
11516W        W70612  33.564  16.313  11.407
11517W        W70613  38.836  29.582   2.418
11518W        W70614  14.734  40.047   0.352
11519W        W70615   1.825  36.851  14.826
11520W        W70616  10.872  27.527  14.365
11521W        W70617  39.432  23.619   4.619
11522W        W70618  10.238  28.677   1.791
11523W        W70619  25.598  25.526  11.532
11524W        W70620  21.663  25.619  12.906
11525W        W70621   3.839  40.349   2.751
11526W        W70622  35.443  17.192  12.427
11527W        W70623  39.545  20.181   4.216
11528W        W70624   9.695  11.183  12.971
11529W        W70625  13.245  20.102   3.342
11530W        W70626   6.408  21.239   2.316
11531W        W70627  16.091  40.002   1.309
11532W        W70628  37.379  27.649  12.864
11533W        W70629  17.160  44.492   5.147
11534W        W70630  23.678  11.782  11.956
11535W        W70631   6.782  40.543   0.733
11536W        W70632  23.118  19.755   1.803
11537W        W70633  28.671   1.253  14.935
11538W        W70634  34.926   9.336   3.344
11539W        W70635  24.518  30.532   2.782
11540W        W70636  21.107  30.502   4.630
11541W        W70637  36.899  11.679   0.814
11542W        W70638  17.105  12.646  12.065
11543W        W70639  32.515  25.138   2.182
11544W        W70640  39.992  37.405  14.027
11545W        W70641  38.340  30.952   0.935
11546W        W70642   9.289  31.493  14.456
11547W        W70643   8.184  39.979  10.599
11548W        W70644  30.009  29.559  11.490
11549W        W70645  25.577   0.411  10.469
11550W        W70646  39.519  27.628  13.918
11551W        W70647  11.316  34.496   2.884
11552W        W70648  13.157  15.297   3.323
11553W        W70649  17.557  22.577  13.987
11554W        W70650  39.468  32.401  11.547
11555W        W70651   5.302  19.130  11.504
11556W        W70652  19.726  24.542  12.437
11557W        W70653  38.423   3.312  12.515
11558W        W70654   0.819  13.794   0.447
11559W        W70655  34.491  13.765  11.591
11560W        W70656  21.521  40.310  12.910
11561W        W70657   2.765  21.532   1.353
11562W        W70658   0.756  12.292  13.045
11563W        W70659  38.565  14.788  10.896
11564W        W70660  32.048  10.301   0.831
11565W        W70661  10.773   4.776   3.726
11566W        W70662   2.833  14.163   4.769
11567W        W70663  10.640   0.791  13.501
11568W        W70664   3.884  35.072  12.549
11569W        W70665  38.060  22.566   2.761
11570W        W70666  18.146  36.976  12.407
11571W        W70667   2.434   1.255   3.195
11572W        W70668  18.228  40.328   1.706
11573W        W70669  22.125  40.533   0.361
11574W        W70670  23.987  27.943   5.316
11575W        W70671  39.963  44.402   0.327
11576W        W70672   5.709  35.564   2.318
11577W        W70673  42.326  27.063  13.383
11578W        W70674   3.928  38.351   3.809
11579W        W70675  11.670  14.764   5.280
11580W        W70676  25.129  40.541   2.683
11581W        W70677  19.184  27.490  13.866
11582W        W70678  42.428   2.790   0.804
11583W        W70679  25.030  29.967   0.479
11584W        W70680  30.984   3.955   3.669
11585W        W70681  34.481  18.273  14.288
11586W        W70682   6.349  29.511   1.230
11587W        W70683   6.796  14.095   2.376
11588W        W70684  14.167  18.764  14.867
11589W        W70685  36.943  23.052  10.508
11590W        W70686  31.456   5.428   4.682
11591W        W70687  17.203  35.081   9.454
11592W        W70688  21.228  37.347   1.760
11593W        W70689  14.206   8.845  14.016
11594W        W70690   4.698  35.047   2.798
11595W        W70691  16.646  11.715   0.377
11596W        W70692   5.269  17.282   3.275
11597W        W70693  18.699  14.161  12.060
11598W        W70694  15.634  43.789  13.357
11599W        W70695  18.132   5.842  11.553
11600W        W70696  30.948  19.779   1.797
11601W        W70697  14.290  23.043  12.030
11602W        W70698  16.232   0.295   4.616
11603W        W70699  39.940  11.621   4.306
11604W        W70700   5.340  43.908  12.438
11605W        W70701   8.754  32.967  10.408
11606W        W70702  38.057  31.140   3.695
11607W        W70703  27.575  44.812  11.124
11608W        W70704   0.278  40.044   2.364
11609W        W70705  36.971  35.511   3.720
11610W        W70706  35.959  21.217  13.440
11611W        W70707  22.249  30.989  13.541
11612W        W70708  13.224  10.272   0.736
11613W        W70709  36.479   4.382  10.567
11614W        W70710  35.498  24.573  13.044
11615W        W70711  38.850  17.120  14.797
11616W        W70712   4.318  43.441  14.838
11617W        W70713  28.005  12.268   0.859
11618W        W70714   6.834  23.046   3.310
11619W        W70715  37.535  17.184  12.958
11620W        W70716  29.129  11.372   3.825
11621W        W70717  24.524  25.992  14.822
11622W        W70718  44.328  31.573   1.301
11623W        W70719  42.408   2.409   2.351
11624W        W70720  25.512   7.188  13.981
11625W        W70721   5.275  30.045   0.402
11626W        W70722  19.610   0.979   4.351
11627W        W70723  43.989  11.823  14.942
11628W        W70724  37.503  34.597   1.255
11629W        W70725   0.933  44.364   3.345
11630W        W70726  23.019  32.064  12.523
11631W        W70727  43.391  40.329   4.286
11632W        W70728  16.272  25.606   3.305
11633W        W70729  32.968  15.214   5.730
11634W        W70730  17.278  12.285   1.402
11635W        W70731  27.540  19.207   4.235
11636W        W70732  34.112   8.207   3.184
11637W        W70733  26.689   9.677   2.308
11638W        W70734  39.373   0.915  14.823
11639W        W70735  28.093  24.206  13.941
11640W        W70736  12.760  19.588   1.319
11641W        W70737  33.625  26.474   0.412
11642W        W70738   7.711  20.127  11.520
11643W        W70739  15.297   9.210  13.355
11644W        W70740  26.630   8.378  14.332
11645W        W70741  40.938  11.326   5.290
11646W        W70742  10.303  17.660  13.435
11647W        W70743   4.312  38.408  10.983
11648W        W70744  42.301  21.669  14.021
11649W        W70745  40.930  22.216  14.895
11650W        W70746  28.463  18.159   0.259
11651W        W70747  36.415  43.460   1.211
11652W        W70748   0.850   8.357  12.479
11653W        W70749   7.888  30.596   2.835
11654W        W70750  12.285  41.031  12.836
11655W        W70751  33.117  44.768  14.989
11656W        W70752  19.653  22.099  12.349
11657W        W70753  11.279   5.781   0.828
11658W        W70754   5.309  13.693   4.140
11659W        W70755  15.697  42.966  14.772
11660W        W70756  11.282  42.823  11.920
11661W        W70757  37.057  34.535  11.390
11662W        W70758  13.250  16.734   1.316
11663W        W70759  13.293  44.758  14.401
11664W        W70760   7.699  20.609   4.163
11665W        W70761   4.302  24.028  11.031
11666W        W70762  25.022   0.396   3.287
11667W        W70763  29.156  44.992  14.796
11668W        W70764  22.618   6.723   3.177
11669W        W70765  35.443  27.150   4.825
11670W        W70766  13.172  28.520  13.049
11671W        W70767   4.885  26.691   2.396
11672W        W70768  23.156  10.368  10.611
11673W        W70769  34.938  14.629   0.304
11674W        W70770  41.400  39.908  14.786
11675W        W70771  36.438   3.890   3.315
11676W        W70772   5.870  31.043  13.494
11677W        W70773  32.887   6.413  10.619
11678W        W70774  22.726   3.379  11.403
11679W        W70775  38.035  35.102   0.748
11680W        W70776  15.734  42.362   9.988
11681W        W70777  20.198  12.166   3.792
11682W        W70778  21.554  39.050  14.792
11683W        W70779  31.973  10.320   2.304
11684W        W70780  16.188  32.935   2.343
11685W        W70781  30.564  11.640  14.912
11686W        W70782  34.966  37.842  12.412
11687W        W70783   0.987  25.495   0.471
11688W        W70784   1.298  12.293   0.781
11689W        W70785  26.495  14.312   0.316
11690W        W70786  42.383  20.184  13.064
11691W        W70787  14.339  22.521  11.475
11692W        W70788  12.776  36.844  10.412
11693W        W70789   6.341  19.681  14.514
11694W        W70790  27.112  32.615  13.028
11695W        W70791   9.270  26.675   4.792
11696W        W70792  41.420   5.352   2.821
11697W        W70793  17.755  33.593  12.001
11698W        W70794  36.409  34.399   3.190
11699W        W70795   5.336   0.789  11.881
11700W        W70796   5.307   0.840  13.532
11701W        W70797  15.688   6.351   5.311
11702W        W70798  38.965  22.207   3.814
11703W        W70799   0.412  12.153  14.923
11704W        W70800  22.062  25.485  10.504
11705W        W70801   4.734  33.416  14.854
11706W        W70802  18.105   3.438  11.573
11707W        W70803  43.361  44.818  14.277
11708W        W70804   1.253  13.350   3.855
11709W        W70805  26.483  13.176   1.246
11710W        W70806  14.814  24.165  14.380
11711W        W70807   3.360  32.995   0.254
11712W        W70808  35.078   3.911   0.436
11713W        W70809  42.890  38.431   3.158
11714W        W70810  25.061   3.790  13.833
11715W        W70811  41.474  17.210   1.804
11716W        W70812  26.631  37.572  14.368
11717W        W70813   6.416  14.704   3.670
11718W        W70814   2.895  24.565   0.345
11719W        W70815  31.005   6.856   1.864
11720W        W70816  43.488   1.802   4.220
11721W        W70817  34.033  29.476  11.042
11722W        W70818   6.743  21.222   0.403
11723W        W70819   5.803  27.686   4.709
11724W        W70820   1.442  21.586  10.965
11725W        W70821  37.915  31.647  12.436
11726W        W70822  27.181   6.808  10.632
11727W        W70823  30.963  17.737  11.026
11728W        W70824  43.914  29.060   1.336
11729W        W70825  22.198  28.037   3.702
11730W        W70826  41.948   3.816  13.457
11731W        W70827  15.791  31.549   1.747
11732W        W70828  23.616  30.940   2.776
11733W        W70829  24.724  10.151  11.405
11734W        W70830  33.399  41.855  10.480
11735W        W70831  20.624   4.814  12.996
11736W        W70832  33.594  33.557  13.025
11737W        W70833   1.915  43.280   2.865
11738W        W70834  15.239  36.093  12.554
11739W        W70835  12.709  33.620   3.257
11740W        W70836  40.347  15.808   3.206
11741W        W70837  22.738  32.098   0.737
11742W        W70838   0.892   0.278  10.559
11743W        W70839  18.716  40.018   3.308
11744W        W70840  13.204   7.237  14.894
11745W        W70841  27.450  18.671   4.795
11746W        W70842  13.820  20.255   3.235
11747W        W70843  36.896  13.350  13.332
11748W        W70844  42.927  11.790   0.866
11749W        W70845   2.739  24.077  12.046
11750W        W70846  38.980  13.331   3.326
11751W        W70847  35.052   5.423  10.470
11752W        W70848  29.564  35.100   3.672
11753W        W70849   9.376   4.770  10.897
11754W        W70850  33.505  13.808   1.928
11755W        W70851  38.329  33.099  12.990
11756W        W70852  17.783   3.385   1.805
11757W        W70853   7.181  14.643   0.827
11758W        W70854  31.599   7.182   0.436
11759W        W70855   7.817  40.430   4.692
11760W        W70856  16.246   4.872   1.924
11761W        W70857  24.029  16.276  10.605
11762W        W70858  39.006  23.078   4.168
11763W        W70859  25.187   3.231  13.326
11764W        W70860  37.027   0.762  11.398
11765W        W70861  18.591  14.744   3.776
11766W        W70862  29.983  13.814   0.911
11767W        W70863  23.500  34.050   3.837
11768W        W70864  18.689  34.574  12.501
11769W        W70865   6.849  37.476   4.670
11770W        W70866  36.972  36.020  10.890
11771W        W70867  27.948  43.770  10.551
11772W        W70868   2.354   3.417   4.236
11773W        W70869  43.288  19.566   0.963
11774W        W70870  10.837   3.860   1.252
11775W        W70871  29.144  42.896  10.638
11776W        W70872  18.689  36.409   1.297
11777W        W70873  27.100  33.387  12.453
11778W        W70874  12.188   9.781   0.875
11779W        W70875  38.911  17.089  11.462
11780W        W70876  13.125  30.135  11.084
11781W        W70877  22.157  37.494   3.745
11782W        W70878  39.456  14.777  10.633
11783W        W70879   7.397  16.233   4.169
11784W        W70880  31.131   5.924  11.977
11785W        W70881  31.420  14.818  12.495
11786W        W70882   1.854  16.292  10.409
11787W        W70883  37.947  14.730   4.315
11788W        W70884   6.722  20.085   2.322
11789W        W70885  41.962  32.534   3.213
11790W        W70886  35.855  41.845  11.007
11791W        W70887  40.031  27.999   0.915
11792W        W70888  10.218  20.730   0.352
11793W        W70889  19.257  33.588   2.761
11794W        W70890   0.479  25.519  12.860
11795W        W70891   6.919   6.812   4.217
11796W        W70892  17.181  15.261   2.345
11797W        W70893  42.974   8.657  10.502
11798W        W70894  11.325  36.877  12.457
11799W        W70895  34.562  17.569   4.754
11800W        W70896  28.014  37.912  13.963
11801W        W70897  15.582  29.507   2.737
11802W        W70898   5.853  25.117   2.413
11803W        W70899  37.542   6.336  13.903
11804W        W70900  15.623  19.155  14.827
11805W        W70901  25.208  41.028  12.360
11806W        W70902  23.596  23.523   2.184
11807W        W70903  24.725  18.233   5.592
11808W        W70904   4.815  26.066   0.782
11809W        W70905  39.993  37.031  13.902
11810W        W70906  23.565  30.152  12.842
11811W        W70907  13.734  20.596  10.595
11812W        W70908  22.129   2.762   4.236
11813W        W70909  42.841   4.291  11.939
11814W        W70910  37.369  42.495   2.787
11815W        W70911   5.699  27.665  10.432
11816W        W70912   4.257  31.643  14.784
11817W        W70913  10.150  28.013  13.905
11818W        W70914  40.343  41.311   9.954
11819W        W70915  42.390  21.741   4.613
11820W        W70916  10.762  20.756   1.424
11821W        W70917   9.728  29.633   1.703
11822W        W70918   5.409   7.258  13.489
11823W        W70919  42.312   0.856  12.511
11824W        W70920  36.034  13.627   5.240
11825W        W70921   7.172  21.690   0.274
11826W        W70922  26.083  39.057  13.818
11827W        W70923  29.470  12.330   4.669
11828W        W70924  21.581  34.907   3.631
11829W        W70925   8.844  18.050  12.050
11830W        W70926  16.251   1.336   3.849
11831W        W70927  33.063  43.007   3.679
11832W        W70928  27.184  31.598   1.850
11833W        W70929   1.433  39.930   1.324
11834W        W70930  34.402  31.480  13.913
11835W        W70931  31.507   4.326  13.336
11836W        W70932   0.302  16.253  12.896
11837W        W70933  29.008   7.228  10.617
11838W        W70934  32.887   0.329   1.935
11839W        W70935  15.738  20.265  12.958
11840W        W70936  19.769  27.519   3.836
11841W        W70937  29.973  34.580  13.790
11842W        W70938  31.491  11.671  11.457
11843W        W70939   4.718   0.751  12.565
11844W        W70940  14.337   1.413  13.346
11845W        W70941  36.363  41.850  14.822
11846W        W70942  44.403  14.773   1.342
11847W        W70943  21.235  29.154  12.501
11848W        W70944  26.542  40.327   3.654
11849W        W70945   4.254   3.875  10.535
11850W        W70946   3.406  10.701   3.165
11851W        W70947   8.334  23.998  14.421
11852W        W70948   0.905   6.816  12.446
11853W        W70949  16.756  30.627   0.930
11854W        W70950   1.814   9.265   2.293
11855W        W70951  20.568  16.102   1.396
11856W        W70952   8.751   3.239   1.714
11857W        W70953  26.647   6.237   2.806
11858W        W70954   6.297  36.092  13.946
11859W        W70955  20.101  39.876  11.129
11860W        W70956  14.797  24.537   2.358
11861W        W70957  17.632   6.184   1.893
11862W        W70958  12.664   2.878   0.449
11863W        W70959  23.167   4.917   4.238
11864W        W70960  38.063  29.545  14.445
11865W        W70961  24.679   5.780   1.411
11866W        W70962  27.462  29.576   1.352
11867W        W70963  43.851  24.612  12.966
11868W        W70964   6.227   0.370   3.156
11869W        W70965  44.794  40.897   0.329
11870W        W70966  26.994  28.649   0.743
11871W        W70967   5.865  15.093   2.265
11872W        W70968  16.788  32.518  13.409
11873W        W70969  38.877  29.516  14.000
11874W        W70970  36.909  32.063  14.830
11875W        W70971   7.749  12.173   1.262
11876W        W70972   8.371  30.123   2.318
11877W        W70973   3.381   8.326  11.118
11878W        W70974  29.550  32.570  12.017
11879W        W70975  36.554  33.383   2.790
11880W        W70976   6.293   6.365   3.836
11881W        W70977  10.664  13.710   9.932
11882W        W70978  29.612  35.873   0.827
11883W        W70979  39.063   3.813   2.755
11884W        W70980   7.802  29.496  13.495
11885W        W70981  30.604   6.346  13.806
11886W        W70982  18.085  29.617  13.851
11887W        W70983  23.217  16.255  13.023
11888W        W70984   8.716  14.719  12.944
11889W        W70985  17.222   6.330   1.723
11890W        W70986   3.390  22.631   4.716
11891W        W70987  41.916   3.226   3.340
11892W        W70988  41.802  12.751   1.920
11893W        W70989  44.490  40.870   4.276
11894W        W70990  42.941  35.095  10.640
11895W        W70991  27.644  28.471   2.377
11896W        W70992  14.668   3.793   3.232
11897W        W70993  24.491  10.277   2.308
11898W        W70994  15.171  16.661  13.792
11899W        W70995  35.879  40.506   1.439
11900W        W70996  30.063  28.068  12.423
11901W        W70997   8.268  41.303   4.819
11902W        W70998   9.711  23.215  11.537
11903W        W70999  13.220  40.864  13.365
11904W        W71000  16.716  28.663  12.829
11905W        W71001  24.650   1.936  14.955
11906W        W71002  14.809  39.966   3.385
11907W        W71003  39.953  10.715  13.852
11908W        W71004   7.355   0.489   4.129
11909W        W71005  40.874  32.050  12.558
11910W        W71006  43.474   6.880  13.952
11911W        W71007   4.388  20.168  13.835
11912W        W71008  32.597   6.370   1.273
11913W        W71009   0.771   9.158  11.547
11914W        W71010  39.822  26.670  14.890
11915W        W71011  42.912  42.327   3.787
11916W        W71012  39.334  33.913  11.604
11917W        W71013  21.225   6.756  11.118
11918W        W71014  30.483  33.451  11.019
11919W        W71015   3.353  37.917   1.268
11920W        W71016  18.778  11.257  12.548
11921W        W71017  44.295  39.337   1.385
11922W        W71018  34.414  25.131  10.916
11923W        W71019  40.857  17.662   0.260
11924W        W71020   7.230  21.037  10.611
11925W        W71021  40.926  23.997   4.127
11926W        W71022  27.030   0.303   4.245
11927W        W71023  42.346  23.190   1.334
11928W        W71024   2.434  40.404  12.874
11929W        W71025   0.440  32.433   2.184
11930W        W71026  18.179  24.989   0.964
11931W        W71027   2.889  37.042   3.857
11932W        W71028  29.083  25.484  13.377
11933W        W71029  29.060   2.908   4.190
11934W        W71030  31.582   1.364   4.804
11935W        W71031   2.720  12.242  14.502
11936W        W71032   2.412   4.768   3.304
11937W        W71033  15.702  35.934  13.905
11938W        W71034  22.109  26.671   4.134
11939W        W71035  44.349   6.369  14.355
11940W        W71036   4.394  19.665  11.459
11941W        W71037  13.166  24.654   4.807
11942W        W71038  21.146  23.542  10.125
11943W        W71039  41.534   1.397   0.960
11944W        W71040  18.650   9.767  14.896
11945W        W71041   4.736  37.371   0.864
11946W        W71042  16.784  15.115   4.808
11947W        W71043  13.252  14.771  10.406
11948W        W71044  42.378  31.074  11.561
11949W        W71045  42.824  40.394  14.916
11950W        W71046  19.201   7.404  11.933
11951W        W71047  39.868  30.111   3.709
11952W        W71048  21.725  25.552   0.478
11953W        W71049  16.577  36.437  12.078
11954W        W71050   9.303  12.164  11.589
11955W        W71051   8.851   2.472  13.902
11956W        W71052  17.100   8.257  14.973
11957W        W71053  37.956  41.909  14.918
11958W        W71054  24.533  14.241  12.955
11959W        W71055  12.299  28.094   9.460
11960W        W71056  16.695  27.997  11.376
11961W        W71057  20.727  31.923   3.841
11962W        W71058  28.006  33.101   1.695
11963W        W71059   5.380  11.818   4.786
11964W        W71060  27.008  11.221  14.502
11965W        W71061   1.436  15.269   3.746
11966W        W71062  16.707   2.299   1.267
11967W        W71063   4.267  42.004   0.255
11968W        W71064  22.152  15.107  10.571
11969W        W71065   5.236  19.209   1.300
11970W        W71066  41.464  35.019  13.852
11971W        W71067  29.538   6.822  12.383
11972W        W71068   6.678  36.563   3.759
11973W        W71069   1.460  22.234  11.996
11974W        W71070  21.246   0.983  11.053
11975W        W71071  40.394  22.680   1.779
11976W        W71072  11.268  19.247   2.693
11977W        W71073  16.748   6.754   3.225
11978W        W71074  32.512  44.957   1.261
11979W        W71075   1.930  29.000   4.163
11980W        W71076  19.067  39.402   3.759
11981W        W71077   0.450  10.681   2.194
11982W        W71078   1.318  40.502   3.374
11983W        W71079  42.794  10.356  11.374
11984W        W71080  28.564  40.402  14.481
11985W        W71081  11.802  34.518   1.369
11986W        W71082  25.678  11.780   4.617
11987W        W71083  29.109  22.530  11.063
11988W        W71084   2.963  31.023  13.036
11989W        W71085   7.776  32.928   3.225
11990W        W71086   2.803  22.558   3.759
11991W        W71087   5.740   9.282   4.195
11992W        W71088  43.336   4.845   0.379
11993W        W71089   0.789  18.717  10.512
11994W        W71090   5.732  30.512   2.725
11995W        W71091  25.989   1.911   1.742
11996W        W71092  21.082  14.309  11.950
11997W        W71093  27.055  14.792   2.383
11998W        W71094  10.214  10.192   5.288
11999W        W71095  21.148  24.506  12.993
12000W        W71096   3.855  25.536   2.720
12001W        W71097  18.791  24.015  14.373
12002W        W71098   9.188  11.653  10.467
12003W        W71099  36.579   1.260   1.312
12004W        W71100  30.040  21.196  12.923
12005W        W71101   2.957  20.723  14.299
12006W        W71102   2.766  44.314  11.078
12007W        W71103   0.757  18.132  14.328
12008W        W71104  14.806  32.536  13.427
12009W        W71105  21.144  17.684  14.419
12010W        W71106   1.910  24.221   1.823
12011W        W71107  16.756  13.314   0.376
12012W        W71108  42.824  17.074  13.853
12013W        W71109   1.401  38.370  12.040
12014W        W71110   8.258  28.623  12.487
12015W        W71111  39.368  27.168   0.342
12016W        W71112  36.444   1.846  14.506
12017W        W71113  19.599  24.649  13.871
12018W        W71114  20.754  17.703  12.458
12019W        W71115   9.841  40.399   0.316
12020W        W71116  37.344  30.933   0.253
12021W        W71117   1.813   6.686  10.976
12022W        W71118  29.442   1.240  14.357
12023W        W71119  19.222  36.098   1.215
12024W        W71120  22.604  41.406  11.035
12025W        W71121  40.471  43.910  13.910
12026W        W71122  34.519   1.958   0.245
12027W        W71123   6.750  33.615  14.348
12028W        W71124  27.159  15.201   1.285
12029W        W71125  20.575  11.850  13.389
12030W        W71126  40.327  26.585  12.420
12031W        W71127  25.974   8.728   3.742
12032W        W71128  32.997  42.344  13.961
12033W        W71129  12.256  25.118  13.309
12034W        W71130  13.723   4.725  12.487
12035W        W71131  17.307  16.728   4.253
12036W        W71132  31.071  34.994   1.214
12037W        W71133   8.254   5.374   1.895
12038W        W71134   4.916   6.810  12.981
12039W        W71135   1.388  36.011   4.320
12040W        W71136  25.576  27.569  12.980
12041W        W71137   6.190   4.700  12.519
12042W        W71138  16.281   5.931   0.877
12043W        W71139  31.413  36.077  12.040
12044W        W71140  33.932  32.130   0.908
12045W        W71141  27.572  32.081  13.524
12046W        W71142   2.226   5.826  10.617
12047W        W71143  14.826  10.813  12.975
12048W        W71144  23.548  17.651  13.025
12049W        W71145  30.924  18.262   0.439
12050W        W71146   5.350   7.727   0.836
12051W        W71147  25.201   7.379  13.908
12052W        W71148  29.441   5.879   0.383
12053W        W71149  38.494  10.245  12.962
12054W        W71150  11.140  35.104   0.414
12055W        W71151  26.097  16.609   3.367
12056W        W71152  13.258   8.205   1.433
12057W        W71153  38.430  19.082   0.895
12058W        W71154  25.645  37.934   1.262
12059W        W71155  25.627  36.390  12.935
12060W        W71156   4.407  39.408   2.399
12061W        W71157  26.060  21.718  12.016
12062W        W71158  44.928   5.288   3.678
12063W        W71159  40.512  34.541  11.095
12064W        W71160   0.986  25.125   4.161
12065W        W71161  34.961   5.691  14.410
12066W        W71162  32.564  21.737   0.410
12067W        W71163  32.951  15.266   0.457
12068W        W71164  18.752  11.166  14.946
12069W        W71165  41.450  42.443   1.305
12070W        W71166  26.616  12.716  12.502
12071W        W71167  23.660   7.669  13.846
12072W        W71168  32.063   7.184  11.376
12073W        W71169  12.130  18.734  13.457
12074W        W71170  25.689  37.473   0.279
12075W        W71171   9.202  43.944   0.318
12076W        W71172  21.746   5.403  13.481
12077W        W71173   2.353   6.827  14.974
12078W        W71174  20.193  16.119   3.274
12079W        W71175  34.956  17.564   2.870
12080W        W71176  42.890  44.272  13.433
12081W        W71177  25.052   2.824  13.888
12082W        W71178   7.748  42.911  11.371
12083W        W71179  26.617  37.565  13.501
12084W        W71180  42.314   0.286  11.424
12085W        W71181  40.384  34.870   1.413
12086W        W71182  44.282  31.433  10.508
12087W        W71183  43.772   6.737  13.056
12088W        W71184  39.945  40.334  12.428
12089W        W71185  10.689  39.039  12.982
12090W        W71186  22.212  18.115  11.046
12091W        W71187  32.408  20.029  10.615
12092W        W71188  25.011  37.345   3.331
12093W        W71189   0.891  24.177   1.810
12094W        W71190  26.130  37.036   2.707
12095W        W71191  35.427  40.408   4.698
12096W        W71192  38.885  23.985  11.095
12097W        W71193  37.434  28.973   4.714
12098W        W71194  40.460   7.378  14.855
12099W        W71195   9.386   9.175   4.755
12100W        W71196  13.799  19.278   4.837
12101W        W71197  22.159  36.550  12.371
12102W        W71198  38.973  21.259   1.832
12103W        W71199   0.482  14.231   0.848
12104W        W71200  23.690  27.514  11.586
12105W        W71201  28.593  42.366   3.342
12106W        W71202   7.247  27.565   3.784
12107W        W71203   1.756   6.707  10.622
12108W        W71204  39.880   5.923   4.251
12109W        W71205  40.470  44.336   3.644
12110W        W71206   5.393  12.276   0.757
12111W        W71207  28.521  16.599   2.409
12112W        W71208   0.308  35.412  12.898
12113W        W71209   2.951   2.463   1.853
12114W        W71210  13.831  33.023  10.080
12115W        W71211  23.575  26.508  10.488
12116W        W71212  33.031  15.270  13.835
12117W        W71213  35.997  38.389  14.957
12118W        W71214  42.996  38.985  11.425
12119W        W71215  13.671  43.971  14.817
12120W        W71216  28.169  40.426   4.343
12121W        W71217  42.996  12.217   1.908
12122W        W71218  21.227  24.545  14.471
12123W        W71219  27.667  44.503   4.733
12124W        W71220  28.604  37.989  13.819
12125W        W71221  17.757  21.230   2.182
12126W        W71222  31.089  43.932  11.472
12127W        W71223   4.699  40.380   3.839
12128W        W71224  37.490  27.129   0.957
12129W        W71225  29.083  35.599   0.414
12130W        W71226   8.855  39.399  11.470
12131W        W71227  14.117  10.154  12.077
12132W        W71228  21.522  14.186   1.444
12133W        W71229   5.791  39.430   4.767
12134W        W71230  21.119  29.454  11.037
12135W        W71231  10.309  39.503  13.005
12136W        W71232   9.387   0.407   4.233
12137W        W71233  37.537  19.715   4.745
12138W        W71234  31.524  39.497  10.640
12139W        W71235  39.528   3.276   3.796
12140W        W71236   6.761  29.546   4.723
12141W        W71237  23.195  23.643   0.351
12142W        W71238  31.081  29.924  13.407
12143W        W71239  29.137  33.009   1.212
12144W        W71240  10.814   3.891   4.251
12145W        W71241  16.678  22.186  10.599
12146W        W71242  15.252  25.555   2.745
12147W        W71243  15.094   4.333   2.219
12148W        W71244  18.670   6.869  11.523
12149W        W71245  33.981   8.350   4.344
12150W        W71246  17.581  15.248   2.799
12151W        W71247  40.000  37.548   0.872
12152W        W71248  20.526  38.945  14.311
12153W        W71249   1.397  21.734  10.580
12154W        W71250  19.237  33.928  10.584
12155W        W71251  16.177  30.103  10.934
12156W        W71252   5.723   2.245   1.821
12157W        W71253  41.807  14.270  12.500
12158W        W71254  24.053  26.203   1.236
12159W        W71255  42.834  31.924  11.907
12160W        W71256   7.329  29.597   1.818
12161W        W71257  29.493  22.173  11.906
12162W        W71258  41.965  24.719   3.346
12163W        W71259   2.883  18.742   3.302
12164W        W71260   5.208   0.266   0.448
12165W        W71261  42.488  26.634  13.814
12166W        W71262  11.701  25.077   0.362
12167W        W71263  44.343  14.791   2.785
12168W        W71264  38.034  41.476  10.408
12169W        W71265  39.983  14.729  14.887
12170W        W71266  14.618   7.312  13.034
12171W        W71267   5.355   6.210   0.435
12172W        W71268  42.415  43.856   1.744
12173W        W71269  10.279  39.353  12.572
12174W        W71270  37.853  23.582   2.257
12175W        W71271   9.804  43.345   1.812
12176W        W71272  27.630  37.085  13.898
12177W        W71273  14.686  29.001  10.909
12178W        W71274  15.231   9.308   0.444
12179W        W71275  17.616  37.541   1.864
12180W        W71276   3.386   9.201   1.782
12181W        W71277   0.381  40.841  13.989
12182W        W71278  41.855  17.662  12.467
12183W        W71279   8.849  14.169   0.405
12184W        W71280  15.722  38.471   3.204
12185W        W71281  15.261  20.108   2.789
12186W        W71282  26.052  41.884  10.606
12187W        W71283  14.702  15.582  11.037
12188W        W71284   9.244  37.412  11.954
12189W        W71285   0.793   4.334  10.923
12190W        W71286   2.739   9.773   3.666
12191W        W71287  33.477   8.832  13.793
12192W        W71288  25.480  33.508  10.958
12193W        W71289  16.274   7.294  12.478
12194W        W71290  43.802  16.232   4.290
12195W        W71291  28.488  27.185   3.377
12196W        W71292  31.605  16.089   3.324
12197W        W71293  30.529  31.938  11.525
12198W        W71294  25.480  16.615   0.244
12199W        W71295  21.021  23.144  13.915
12200W        W71296   8.808  38.937   2.712
12201W        W71297  26.198  14.667   3.190
12202W        W71298  18.558  41.960   0.765
12203W        W71299   2.349  29.149   0.457
12204W        W71300  29.069   8.300   2.829
12205W        W71301  21.698  11.708   0.356
12206W        W71302   7.825   9.337  12.017
12207W        W71303  35.019  42.862  10.622
12208W        W71304  39.352  17.781  11.073
12209W        W71305  35.936  36.413  10.967
12210W        W71306  20.212  25.020   3.832
12211W        W71307  16.147  35.070  11.068
12212W        W71308  14.291   5.803   4.767
12213W        W71309  29.081  11.720   0.325
12214W        W71310  23.015  20.038   9.589
12215W        W71311   5.790  37.080   3.672
12216W        W71312   3.347  15.753  13.849
12217W        W71313  30.647  27.948   2.313
12218W        W71314  40.842  31.134   2.282
12219W        W71315   8.772   1.795   2.714
12220W        W71316  40.916  44.470   4.120
12221W        W71317  39.533  16.263   4.828
12222W        W71318  29.067  20.159  11.014
12223W        W71319  31.125  43.311  13.842
12224W        W71320  31.060  35.577  14.360
12225W        W71321   2.932  12.180  12.985
12226W        W71322   4.887  17.270   0.903
12227W        W71323  36.592  39.314  13.351
12228W        W71324   5.902  21.651   1.264
12229W        W71325  18.068  21.746  12.355
12230W        W71326   5.379   6.366   2.745
12231W        W71327   7.743  20.111   3.195
12232W        W71328  38.959  25.563  14.930
12233W        W71329  30.077  17.682   4.299
12234W        W71330   8.260  35.065   2.670
12235W        W71331  28.950  21.232  11.119
12236W        W71332   9.672  14.764  13.834
12237W        W71333   1.977  38.900   2.304
12238W        W71334  13.287  43.286  12.874
12239W        W71335  41.894  27.478   2.244
12240W        W71336  17.180  37.918  14.926
12241W        W71337  27.462   1.331  11.537
12242W        W71338  37.965  14.227   4.737
12243W        W71339  31.472  31.046   3.349
12244W        W71340   1.924  28.638   2.305
12245W        W71341  25.670   7.779  10.408
12246W        W71342   2.287   7.889  12.864
12247W        W71343  27.607  39.825  13.892
12248W        W71344  12.134  37.475   0.874
12249W        W71345  30.540  33.888   4.174
12250W        W71346  26.123  18.217   5.305
12251W        W71347  25.579  18.643  14.768
12252W        W71348   3.948  37.887  13.467
12253W        W71349  27.627  15.318   3.362
12254W        W71350  16.225  32.531   2.183
12255W        W71351  32.505  20.231  11.598
12256W        W71352  29.164   9.216   2.334
12257W        W71353   3.455  18.687   1.889
12258W        W71354   2.874  21.526  11.991
12259W        W71355   0.261  40.311  13.872
12260W        W71356  42.956   6.319   5.275
12261W        W71357   5.270   1.273   0.255
12262W        W71358  33.506   2.256   4.325
12263W        W71359  35.445   2.782   0.899
12264W        W71360   0.936  40.815   3.341
12265W        W71361   6.874  12.618   3.178
12266W        W71362  15.594   3.264  11.075
12267W        W71363  38.928  37.891  12.860
12268W        W71364  10.317  22.021   1.278
12269W        W71365  30.449   9.714  11.026
12270W        W71366  35.499  26.609  14.353
12271W        W71367  23.633   1.381   2.665
12272W        W71368   3.382  26.616   2.328
12273W        W71369  34.395  28.571  12.957
12274W        W71370  16.781  41.971   1.395
12275W        W71371  11.787   6.791   4.120
12276W        W71372  20.747   3.312  14.502
12277W        W71373   5.274   9.285   2.400
12278W        W71374  22.638   4.783   3.203
12279W        W71375   0.485   4.233  10.906
12280W        W71376  18.621  38.385   5.286
12281W        W71377  44.298  13.224   4.206
12282W        W71378   4.869  21.612  13.531
12283W        W71379  35.551  41.386  12.512
12284W        W71380  26.957  10.350   4.701
12285W        W71381  16.133  19.219  12.997
12286W        W71382   4.304  44.503  12.342
12287W        W71383  34.491  16.709   9.549
12288W        W71384  26.066   2.428   4.224
12289W        W71385  37.469  38.506   0.817
12290W        W71386   7.833  41.859   2.705
12291W        W71387  11.621  10.309  10.406
12292W        W71388  37.551  41.306   9.931
12293W        W71389  15.808  24.164   3.768
12294W        W71390   7.790   6.342   2.833
12295W        W71391   4.860  20.751  11.556
12296W        W71392  40.335  34.391   4.796
12297W        W71393   9.214  31.479  12.355
12298W        W71394  34.560  33.992  11.598
12299W        W71395  20.672  34.495  13.386
12300W        W71396   8.168  13.213  14.425
12301W        W71397  20.256   0.961   3.308
12302W        W71398  39.965  27.689  10.525
12303W        W71399  21.517  42.362   4.819
12304W        W71400   0.395  42.358   1.375
12305W        W71401  29.556  17.157   2.725
12306W        W71402  23.610  10.340   9.544
12307W        W71403  32.585  41.982   0.473
12308W        W71404  29.553  33.387   1.439
12309W        W71405  16.155  26.150  11.094
12310W        W71406  10.259   6.352  10.892
12311W        W71407  12.765  13.127   3.291
12312W        W71408  28.546  34.943   3.757
12313W        W71409   4.816  38.013  14.025
12314W        W71410  31.071  35.872  10.924
12315W        W71411  38.912   8.874   3.861
12316W        W71412  34.412  18.253   4.323
12317W        W71413   7.336  42.381   1.755
12318W        W71414  11.324  38.530   4.732
12319W        W71415  15.087  12.166   4.333
12320W        W71416  10.730  23.689   3.682
12321W        W71417  43.952  22.516   3.339
12322W        W71418  10.673   8.879  12.882
12323W        W71419  39.820  21.197   1.749
12324W        W71420  15.724  38.043   2.270
12325W        W71421  17.119  31.145   0.467
12326W        W71422  30.013   7.795   1.870
12327W        W71423  33.097  38.512   0.401
12328W        W71424  33.622   2.412   1.829
12329W        W71425  15.806  20.225   1.433
12330W        W71426  33.053  37.482  14.430
12331W        W71427  31.599   4.804  12.515
12332W        W71428  14.119  38.820   1.356
12333W        W71429  20.028   9.735   0.299
12334W        W71430  18.584  24.544  13.043
12335W        W71431  42.316  26.189  10.467
12336W        W71432  29.071   7.780  14.972
12337W        W71433  10.744   5.785   3.190
12338W        W71434   7.361  15.685   1.424
12339W        W71435  18.766  35.051   2.250
12340W        W71436  18.625  22.563  12.952
12341W        W71437   9.732  28.947  10.157
12342W        W71438   7.204  29.121   2.675
12343W        W71439   1.977  31.570  10.934
12344W        W71440   8.773  41.508  10.076
12345W        W71441  22.629  28.042   2.676
12346W        W71442  35.471  41.965   4.809
12347W        W71443  41.043  13.618   4.777
12348W        W71444   2.780  27.625   1.413
12349W        W71445  27.995   9.677  14.292
12350W        W71446  16.740  14.632   2.276
12351W        W71447  37.980  16.246   2.809
12352W        W71448   6.874  14.165   1.263
12353W        W71449   7.775  21.728  13.998
12354W        W71450  33.536  18.132   3.160
12355W        W71451  40.039  19.626  10.585
12356W        W71452  27.477  18.640   1.427
12357W        W71453  41.033  25.656   0.752
12358W        W71454  32.013  34.969  10.903
12359W        W71455  33.043  36.479   3.721
12360W        W71456   8.173  16.217   4.641
12361W        W71457  36.455  14.128   0.755
12362W        W71458   2.874   1.897  12.041
12363W        W71459  22.120  33.459   4.242
12364W        W71460   9.797  25.969  11.097
12365W        W71461  36.962  17.234  11.377
12366W        W71462  31.481  11.653   3.800
12367W        W71463  34.925   7.747  13.840
12368W        W71464   9.174  12.783  14.316
12369W        W71465   6.295  38.039   4.352
12370W        W71466  14.327  23.145   4.686
12371W        W71467   2.310  28.174  13.538
12372W        W71468  44.965   2.827   2.396
12373W        W71469  32.563  21.667  11.899
12374W        W71470  26.499   5.708  10.934
12375W        W71471  39.000  29.441  13.473
12376W        W71472  34.520  22.613   1.819
12377W        W71473  41.930  13.301  14.000
12378W        W71474  37.073  17.585   2.215
12379W        W71475  27.587  17.144  14.352
12380W        W71476  27.165  15.177  11.069
12381W        W71477  26.067  16.797  10.037
12382W        W71478  20.202   7.231   5.654
12383W        W71479  17.684  44.459  12.935
12384W        W71480   4.304  27.450   3.687
12385W        W71481  41.305   5.929   3.706
12386W        W71482   6.914  43.898  11.973
12387W        W71483   0.443  32.634  12.462
12388W        W71484   8.268  28.953  11.421
12389W        W71485  17.253  39.980   0.444
12390W        W71486  35.096   3.795  12.870
12391W        W71487   0.881  35.917   5.203
12392W        W71488  19.184  31.134  12.893
12393W        W71489   7.403  20.752  12.350
12394W        W71490   4.899  23.588   1.370
12395W        W71491   0.793   7.313   3.723
12396W        W71492  28.595  32.407   1.862
12397W        W71493  15.250  14.102  10.552
12398W        W71494   1.921  29.550  11.544
12399W        W71495  33.095  25.637   5.216
12400W        W71496   7.883  44.975   0.760
12401W        W71497   7.867  24.652   0.806
12402W        W71498  39.556   1.966   4.772
12403W        W71499  29.564  39.867   2.715
12404W        W71500   9.304  40.513   2.224
12405W        W71501   1.897  28.464  11.065
12406W        W71502  18.716  39.447   1.273
12407W        W71503  44.339  13.281   1.804
12408W        W71504  10.273   0.900   0.750
12409W        W71505  19.092  12.850  11.474
12410W        W71506  14.801  15.328   9.997
12411W        W71507  19.190  27.038  13.346
12412W        W71508  21.739  24.203  14.927
12413W        W71509   3.794  25.612   0.270
12414W        W71510  42.960  35.001   2.716
12415W        W71511   7.870  11.677  13.532
12416W        W71512  34.509  40.447   3.805
12417W        W71513  15.240  24.645   3.658
12418W        W71514  36.912  35.391   0.798
12419W        W71515  26.633   8.234  13.332
12420W        W71516  37.832   4.922  10.041
12421W        W71517  35.076  16.588  13.923
12422W        W71518  15.195  31.540  13.411
12423W        W71519  29.148   4.390  14.404
12424W        W71520  19.115  32.094  12.886
12425W        W71521  28.979   8.271   3.762
12426W        W71522  44.863  38.426   3.348
12427W        W71523  32.105  44.892  14.341
12428W        W71524  31.994  42.821  14.852
12429W        W71525  38.897  24.681  13.374
12430W        W71526   2.362   4.332  10.934
12431W        W71527  21.134  43.494   0.941
12432W        W71528  34.004  23.165  14.283
12433W        W71529  35.425  24.032  12.572
12434W        W71530  28.562  16.688   1.355
12435W        W71531  16.665   6.911   4.330
12436W        W71532   4.269  25.480   5.173
12437W        W71533   7.220  22.729  13.021
12438W        W71534  24.051  24.551   2.859
12439W        W71535  23.557  36.952   5.622
12440W        W71536  16.098   1.470  12.059
12441W        W71537   9.866  43.286   3.751
12442W        W71538  40.375  24.130   3.724
12443W        W71539  20.536   9.713  11.533
12444W        W71540  41.307  38.885  14.992
12445W        W71541  20.093  14.100  10.964
12446W        W71542  41.032  21.646   1.298
12447W        W71543  42.918  18.213   0.392
12448W        W71544  43.492  44.378   4.342
12449W        W71545  15.158  39.050  11.600
12450W        W71546   2.898  10.352   4.292
12451W        W71547  39.332  39.360   1.904
12452W        W71548  25.609  26.693  11.610
12453W        W71549  35.602  44.322   4.160
12454W        W71550  23.676  44.000  12.995
12455W        W71551  34.029  27.498   5.291
12456W        W71552  26.548  11.836  12.003
12457W        W71553   5.403  12.847   0.440
12458W        W71554  21.224  24.526   1.268
12459W        W71555  20.567  42.778  13.055
12460W        W71556  27.103  31.645   0.936
12461W        W71557   3.264  39.468   0.342
12462W        W71558  28.986  26.036   5.253
12463W        W71559  34.411  32.101  14.803
12464W        W71560  40.341  30.049   0.359
12465W        W71561  28.165  39.907  14.296
12466W        W71562  36.984   3.744   1.350
12467W        W71563  22.631  21.732   2.693
12468W        W71564   0.786   0.972   2.856
12469W        W71565   7.672  44.317  13.408
12470W        W71566  36.918  25.031   2.662
12471W        W71567  43.487   8.282  14.782
12472W        W71568  35.461  26.010  14.770
12473W        W71569  10.680  35.875   4.678
12474W        W71570  25.058   9.691   3.212
12475W        W71571  10.693  33.906   4.671
12476W        W71572  43.423  19.167  11.996
12477W        W71573  38.557   1.267   1.429
12478W        W71574  44.906   9.748  10.906
12479W        W71575  41.473  19.648   3.722
12480W        W71576  40.887  22.613  12.846
12481W        W71577  39.491  41.483  14.287
12482W        W71578  31.999  21.235  12.910
12483W        W71579  40.348  31.437  13.531
12484W        W71580  20.208  22.631   1.819
12485W        W71581   3.456  15.606  13.000
12486W        W71582  42.495   5.800  10.560
12487W        W71583  37.958  21.534  14.935
12488W        W71584  18.664  43.861  14.807
12489W        W71585  37.023   1.332   4.129
12490W        W71586  33.078  40.447  11.076
12491W        W71587  23.702  23.056  12.004
12492W        W71588  36.904  20.112   0.895
12493W        W71589  24.534  37.974   3.747
12494W        W71590   9.378   9.338   1.846
12495W        W71591  21.650  40.538   2.843
12496W        W71592  22.549  40.047   2.796
12497W        W71593   5.687  34.538   0.474
12498W        W71594  15.615   7.870   4.600
12499W        W71595  10.338   3.335  13.841
12500W        W71596  18.084  27.596  12.009
12501W        W71597  13.249   3.750   3.646
12502W        W71598   1.899  11.370  11.989
12503W        W71599  34.934  30.482  14.812
12504W        W71600   2.894   6.709  10.623
12505W        W71601  19.136  13.189  12.357
12506W        W71602  24.090   4.804  13.896
12507W        W71603  24.605  18.099   0.964
12508W        W71604  29.049  14.170   1.332
12509W        W71605  43.919  22.134  14.475
12510W        W71606  40.445  42.425  14.024
12511W        W71607   2.331   3.254   1.392
12512W        W71608  21.209  43.459   2.751
12513W        W71609  11.216  16.312  13.387
12514W        W71610  27.576  22.622   0.931
12515W        W71611  13.247  14.221   1.868
12516W        W71612  19.653  42.942  10.441
12517W        W71613   1.252  42.413  13.538
12518W        W71614  11.727   1.408  13.941
12519W        W71615  23.078  30.921  11.464
12520W        W71616  26.653   6.751  11.922
12521W        W71617  42.890  32.047   5.223
12522W        W71618   5.712  40.819  13.346
12523W        W71619  22.711  43.003  14.325
12524W        W71620  24.482  41.307   2.807
12525W        W71621  29.507  17.757   3.689
12526W        W71622  15.701  16.619   4.336
12527W        W71623   8.390   6.839   1.785
12528W        W71624   8.877  17.777   1.398
12529W        W71625  42.400  31.403   1.303
12530W        W71626  30.994  31.974  11.530
12531W        W71627  14.285  21.715   0.964
12532W        W71628  43.990   8.864   0.761
12533W        W71629  16.210  31.509  14.915
12534W        W71630  27.516  15.621   2.679
12535W        W71631  40.463  36.911   1.856
12536W        W71632  39.436  35.406  13.527
12537W        W71633  29.062  39.494  13.947
12538W        W71634  21.056  32.459   1.902
12539W        W71635  20.590  17.087  12.897
12540W        W71636  17.094  21.234   0.736
12541W        W71637   9.174  31.018  13.342
12542W        W71638   1.460  37.398   4.811
12543W        W71639  43.930   9.160  10.975
12544W        W71640  32.076  43.932   3.182
12545W        W71641  29.492   1.930   3.798
12546W        W71642   9.294  20.261  11.086
12547W        W71643  16.287   6.838   1.798
12548W        W71644  14.648  15.239   2.253
12549W        W71645  12.143  41.411   1.728
12550W        W71646   9.712  35.949   4.153
12551W        W71647   9.265  18.135  13.405
12552W        W71648  27.132  41.990   4.639
12553W        W71649  17.695  31.503   4.633
12554W        W71650  35.967   6.776  12.552
12555W        W71651  17.123  33.420  10.592
12556W        W71652  31.626  40.306   1.710
12557W        W71653  10.857   7.718  11.500
12558W        W71654  16.802  15.125  10.432
12559W        W71655  37.070   0.796   0.947
12560W        W71656  44.969  19.577   2.229
12561W        W71657  42.430  32.456  14.932
12562W        W71658  14.333  14.301  11.441
12563W        W71659  21.740  16.204  12.556
12564W        W71660  41.883   1.945   1.251
12565W        W71661  32.099  22.096  13.388
12566W        W71662   5.396  35.511   0.750
12567W        W71663  26.538  27.954   0.898
12568W        W71664   9.354  17.615  11.562
12569W        W71665  34.419  30.639   1.214
12570W        W71666  15.253  24.596   0.314
12571W        W71667   9.392  33.430  10.484
12572W        W71668  35.544  31.467  11.533
12573W        W71669  20.046  37.028   5.753
12574W        W71670  27.198  14.296   3.182
12575W        W71671   4.744  38.884  13.858
12576W        W71672  33.569  17.729  11.558
12577W        W71673   8.242  26.113  13.972
12578W        W71674  40.812  21.756  13.386
12579W        W71675   8.690  13.836   2.848
12580W        W71676  26.953  16.620  11.993
12581W        W71677   1.469   9.262   2.248
12582W        W71678  26.980   1.889   1.448
12583W        W71679  18.750  32.022  13.336
12584W        W71680  38.913  13.247   0.841
12585W        W71681  25.597   0.355   4.134
12586W        W71682  16.572  21.218   4.312
12587W        W71683  29.919  19.170  12.895
12588W        W71684   1.323  31.942  11.586
12589W        W71685   7.210  44.006   0.350
12590W        W71686   7.771  21.566   3.795
12591W        W71687  35.107  30.486   1.745
12592W        W71688  31.070   4.329   0.291
12593W        W71689  43.440  36.918   2.777
12594W        W71690   2.911  43.801   1.827
12595W        W71691  33.540  11.733   3.769
12596W        W71692  32.051  29.997   1.758
12597W        W71693   7.768  31.899  14.289
12598W        W71694  18.775  28.032   1.723
12599W        W71695   0.420   4.242   4.612
12600W        W71696   1.295  28.537  12.384
12601W        W71697   4.781   2.436   3.192
12602W        W71698  11.761   3.389  14.936
12603W        W71699  35.043  29.473   4.216
12604W        W71700   0.883  25.071  14.342
12605W        W71701  38.980   4.856   0.899
12606W        W71702   7.692  26.510   3.351
12607W        W71703   2.724  36.082  11.938
12608W        W71704  39.934  11.230  14.970
12609W        W71705  13.192   4.733  11.554
12610W        W71706  16.584  18.627  14.376
12611W        W71707  42.354  27.454  12.526
12612W        W71708  42.997   0.903  13.930
12613W        W71709  32.068   5.753   1.752
12614W        W71710  12.252   7.183  10.572
12615W        W71711  18.775  28.168   4.719
12616W        W71712  17.642   0.326  11.586
12617W        W71713  13.238  41.818  13.373
12618W        W71714   1.846  23.612  12.923
12619W        W71715  33.402  16.810   2.238
12620W        W71716  39.975  41.800   0.795
12621W        W71717   6.877  18.251   3.732
12622W        W71718   2.415  19.197  13.800
12623W        W71719  13.313  31.028   1.875
12624W        W71720  43.796  36.542  10.456
12625W        W71721  32.925  26.675   3.646
12626W        W71722   8.795  28.096   4.633
12627W        W71723   2.851  39.519  10.453
12628W        W71724   7.346  42.327  12.415
12629W        W71725  28.147  37.492   3.347
12630W        W71726  20.547  41.906   3.170
12631W        W71727  12.637  28.035   3.235
12632W        W71728  29.037   7.723   0.967
12633W        W71729  16.680  14.338  14.936
12634W        W71730  43.512  33.968   1.274
12635W        W71731  29.921  34.424   4.287
12636W        W71732  16.251  32.571   1.274
12637W        W71733  37.502  25.631  14.884
12638W        W71734   5.774   7.200  11.888
12639W        W71735  40.949   8.304   1.722
12640W        W71736   8.297  30.038   0.955
12641W        W71737  39.897  28.560   2.191
12642W        W71738  35.010  19.253   5.229
12643W        W71739   0.833  11.365  11.043
12644W        W71740  38.845  35.067   2.873
12645W        W71741  42.481   4.930  13.819
12646W        W71742  16.221  23.587   4.776
12647W        W71743  44.466   4.726  12.401
12648W        W71744  44.429  44.781  14.837
12649W        W71745  11.853   9.234   0.742
12650W        W71746  23.077   7.724  11.525
12651W        W71747   6.786   1.766  10.584
12652W        W71748  43.300  37.831  10.548
12653W        W71749  28.438  19.164  12.005
12654W        W71750  12.614  39.393  13.805
12655W        W71751  17.180  13.301   1.240
12656W        W71752  32.481  10.319   4.315
12657W        W71753   2.466  17.266  13.953
12658W        W71754  19.254   3.830   4.302
12659W        W71755   3.901  13.161  13.029
12660W        W71756   3.756  43.393  12.441
12661W        W71757   0.973  17.125  11.552
12662W        W71758  25.121  18.721  10.079
12663W        W71759   4.871  22.712   3.248
12664W        W71760  39.867  38.974   2.252
12665W        W71761   8.214  23.688   1.325
12666W        W71762  13.201  29.581   4.688
12667W        W71763   0.492   3.243   4.601
12668W        W71764  35.922  29.504  12.848
12669W        W71765  26.682  34.614   2.764
12670W        W71766  11.183  42.404   4.283
12671W        W71767  20.609  32.037  12.411
12672W        W71768  30.025   3.389   1.737
12673W        W71769  24.489  31.554   2.781
12674W        W71770  22.648  38.877   9.980
12675W        W71771  34.954  44.858   2.818
12676W        W71772  44.503  26.583   2.285
12677W        W71773  34.415  40.315   2.894
12678W        W71774  12.330  23.584  11.996
12679W        W71775  33.531  22.659   9.930
12680W        W71776  44.433  15.648  12.979
12681W        W71777  39.938  42.481  11.543
12682W        W71778  12.696  39.380   0.892
12683W        W71779   6.686  41.849  14.448
12684W        W71780   3.937  26.572   4.762
12685W        W71781   8.272  43.516  13.543
12686W        W71782  20.577  42.460  12.348
12687W        W71783  22.519  25.013  12.447
12688W        W71784  15.209  19.123  12.434
12689W        W71785  37.572  41.326   1.211
12690W        W71786   6.732  23.616  14.893
12691W        W71787   4.240   7.401   2.701
12692W        W71788  31.942  35.507   0.820
12693W        W71789  25.979   3.369  12.064
12694W        W71790  25.138  19.610  12.975
12695W        W71791   4.385  25.067  11.860
12696W        W71792   8.225   1.799  10.487
12697W        W71793   5.234  28.008   2.373
12698W        W71794  18.067  16.727  14.787
12699W        W71795  21.702  11.845  10.441
12700W        W71796  36.444  13.687   4.192
12701W        W71797  40.920  40.318  14.493
12702W        W71798  24.149  17.251   1.379
12703W        W71799  30.449  29.036  10.944
12704W        W71800  30.537   2.246   4.646
12705W        W71801  11.176  14.125   5.588
12706W        W71802  13.169  12.208   1.820
12707W        W71803   7.669  14.159  12.892
12708W        W71804  31.109   1.778  11.559
12709W        W71805  13.148  10.836  11.868
12710W        W71806  39.507  32.591  14.935
12711W        W71807  41.016  31.549  12.438
12712W        W71808  13.601  30.522  13.404
12713W        W71809   1.470   7.402   1.244
12714W        W71810  24.525  24.574   4.163
12715W        W71811  35.589  13.151  12.452
12716W        W71812  42.879   2.937   4.312
12717W        W71813   3.238  21.093   3.282
12718W        W71814  34.994  44.771   3.352
12719W        W71815  23.018  11.717  12.579
12720W        W71816  40.471  21.526  14.310
12721W        W71817   4.792  15.188  10.063
12722W        W71818  16.612   9.768  14.786
12723W        W71819  43.970  37.427  13.334
12724W        W71820  35.562  37.025   4.203
12725W        W71821  17.295   1.279   0.297
12726W        W71822   9.851  10.185  14.359
12727W        W71823  37.400  28.463   2.194
12728W        W71824   0.818  36.522   4.665
12729W        W71825   6.706   8.756  11.997
12730W        W71826  29.492  37.919  11.085
12731W        W71827  12.763  27.678   1.790
12732W        W71828  14.281  43.021   4.711
12733W        W71829   4.324   5.807   4.129
12734W        W71830  23.524  40.403  13.480
12735W        W71831   5.870  43.840   1.925
12736W        W71832  29.564  41.786   3.196
12737W        W71833  35.045  18.645   2.323
12738W        W71834  29.543   9.274   0.310
12739W        W71835  15.165  28.437   2.340
12740W        W71836  40.409  26.998   2.363
12741W        W71837  19.600  35.411  12.952
12742W        W71838  22.547  24.562  10.418
12743W        W71839   7.770  28.480   4.817
12744W        W71840  30.505  39.808  11.007
12745W        W71841  20.162  11.130   3.665
12746W        W71842   1.326   3.822   0.255
12747W        W71843   4.219   8.660  11.443
12748W        W71844  23.003  31.489   0.776
12749W        W71845  38.833  14.173   0.344
12750W        W71846  23.712  35.530   2.374
12751W        W71847  16.578  27.950   4.315
12752W        W71848  23.049  10.636  12.939
12753W        W71849  33.391  22.019   5.140
12754W        W71850  39.010  24.689   3.774
12755W        W71851  35.062   7.230   0.881
12756W        W71852  24.493  15.673   1.265
12757W        W71853   5.766  14.766  13.957
12758W        W71854   2.378  22.102   4.813
12759W        W71855  43.475  35.028  14.318
12760W        W71856   6.825  39.394   0.366
12761W        W71857   9.796  39.495  12.851
12762W        W71858  42.447  24.627  13.998
12763W        W71859  29.528   2.396  10.894
12764W        W71860  17.645  11.230   1.881
12765W        W71861  10.222  18.586  12.535
12766W        W71862  18.053   9.716   2.259
12767W        W71863  32.084  24.646   3.737
12768W        W71864  18.559  42.293   4.132
12769W        W71865  14.155  18.588   9.978
12770W        W71866  15.601  36.905   9.947
12771W        W71867  20.720  34.615   1.935
12772W        W71868  35.877  33.983  10.947
12773W        W71869  44.902  38.824   4.705
12774W        W71870  39.324  42.961  14.404
12775W        W71871  17.101  15.228  14.507
12776W        W71872  16.254   8.825  13.964
12777W        W71873   7.371  11.359   4.693
12778W        W71874   7.898  36.385   2.371
12779W        W71875   7.361  42.838  13.923
12780W        W71876   5.381  37.532   3.260
12781W        W71877  43.401  17.101   2.247
12782W        W71878  10.738  44.457   4.753
12783W        W71879  39.341  12.292   4.291
12784W        W71880  20.712  16.783  13.487
12785W        W71881  27.613  24.022  13.382
12786W        W71882  37.396  42.487  11.966
12787W        W71883   9.783  23.995   1.889
12788W        W71884  11.694   7.787   1.365
12789W        W71885   0.269  36.485  12.876
12790W        W71886  26.115  40.928   0.372
12791W        W71887  18.563   7.673   2.787
12792W        W71888  29.537  13.217   1.816
12793W        W71889  36.528  30.979  13.357
12794W        W71890  31.115  14.759  14.373
12795W        W71891  44.808  10.834  12.025
12796W        W71892   9.359   9.322   2.203
12797W        W71893  37.976  11.716   2.878
12798W        W71894  44.760  17.178   1.426
12799W        W71895  29.577   0.943  10.497
12800W        W71896   8.863  33.041  14.844
12801W        W71897  44.940   4.240  10.892
12802W        W71898  21.040  18.620   5.274
12803W        W71899  16.292  38.050  11.430
12804W        W71900   6.424   4.872   1.716
12805W        W71901  23.678  37.530   9.946
12806W        W71902  17.141  33.438   4.609
12807W        W71903  28.580  36.905   2.671
12808W        W71904  17.679  39.512  13.982
12809W        W71905  30.557  36.950  11.027
12810W        W71906  37.530  44.901   3.792
12811W        W71907  38.921   3.377   3.651
12812W        W71908  24.698  24.502   0.926
12813W        W71909  28.574  20.689  14.851
12814W        W71910   4.725   9.190   1.381
12815W        W71911  37.886  34.099   4.621
12816W        W71912   3.352  21.252  10.620
12817W        W71913  19.088  19.772  12.374
12818W        W71914   2.244   1.935  13.396
12819W        W71915  17.265  18.242   4.317
12820W        W71916   2.933  14.213   3.309
12821W        W71917  30.138  34.887   4.761
12822W        W71918  21.141   1.254  13.435
12823W        W71919  31.109  32.548   3.372
12824W        W71920  40.906   6.790   3.297
12825W        W71921   5.396  16.139   0.246
12826W        W71922   4.752  30.630   3.319
12827W        W71923  41.895  22.624   4.288
12828W        W71924  10.353  21.106  10.948
12829W        W71925  27.104  37.522   9.531
12830W        W71926   3.830  23.499   3.376
12831W        W71927  27.161  42.009   4.296
12832W        W71928  43.805   5.846   2.280
12833W        W71929   1.272  36.573  13.863
12834W        W71930  40.798  20.725  11.084
12835W        W71931  41.924  28.090  12.474
12836W        W71932  30.054  11.372  11.996
12837W        W71933  30.563  36.042   1.833
12838W        W71934   4.764  30.465  12.071
12839W        W71935  35.868  16.094  12.428
12840W        W71936  32.912  27.489   0.329
12841W        W71937  16.175  41.828  13.989
12842W        W71938  10.864  14.126   2.770
12843W        W71939  12.217  19.078  10.032
12844W        W71940  16.798  17.742   4.347
12845W        W71941  31.132  34.476   4.115
12846W        W71942  44.998  29.425   4.608
12847W        W71943  27.647  40.308  10.926
12848W        W71944  10.243   5.423   2.890
12849W        W71945   5.844  29.926  12.528
12850W        W71946  33.457  19.624   4.187
12851W        W71947  17.682  14.718   0.438
12852W        W71948  21.051  21.153   3.697
12853W        W71949  30.984  30.608   3.786
12854W        W71950  44.824   2.747  11.878
12855W        W71951   4.758  39.498   1.906
12856W        W71952  41.335  24.603  14.988
12857W        W71953  25.164  12.337   4.833
12858W        W71954  15.805  29.585  11.485
12859W        W71955  26.038  26.951   4.598
12860W        W71956  19.064   3.441   1.750
12861W        W71957  44.399  30.921   3.762
12862W        W71958  37.529  24.077   4.164
12863W        W71959   5.342  18.273  14.301
12864W        W71960  36.027  42.960  10.609
12865W        W71961  33.893  43.982  12.561
12866W        W71962  22.525  12.798   2.845
12867W        W71963  40.880   6.197   1.399
12868W        W71964  26.470  32.637  12.900
12869W        W71965  35.031  23.076   3.157
12870W        W71966   5.914  14.184  14.300
12871W        W71967  36.536  19.169   4.245
12872W        W71968  10.855  36.887  13.334
12873W        W71969  26.508  24.079   3.798
12874W        W71970   8.888  19.042  12.427
12875W        W71971  19.084   3.455   0.823
12876W        W71972   7.771   3.893  14.506
12877W        W71973   1.452  42.841  14.367
12878W        W71974   1.444   1.455   3.159
12879W        W71975  10.376  27.013   1.239
12880W        W71976  26.166   3.276   2.369
12881W        W71977  10.722   3.426  12.061
12882W        W71978  43.383  40.422   0.897
12883W        W71979  28.078  22.127   1.842
12884W        W71980  11.787  15.764   0.455
12885W        W71981   4.914  21.153  14.308
12886W        W71982   0.252   1.395  13.962
12887W        W71983  32.594  30.552  12.948
12888W        W71984  32.102  14.692  12.455
12889W        W71985  26.015  13.284   1.444
12890W        W71986  34.085  37.469  11.928
12891W        W71987  34.073  32.000   3.337
12892W        W71988  38.940  29.488   1.379
12893W        W71989  21.636  38.983  10.643
12894W        W71990  37.377  26.132   0.359
12895W        W71991  29.152  28.031   2.330
12896W        W71992  31.452  44.890  12.363
12897W        W71993  26.963  35.532   3.352
12898W        W71994  11.726  33.003  11.565
12899W        W71995   4.258  32.509   2.379
12900W        W71996  18.750   4.306   4.259
12901W        W71997  26.694   9.690  11.036
12902W        W71998  42.893  33.131   2.871
12903W        W71999  34.530   3.228  11.036
12904W        W72000   6.228  33.504  10.589
12905W        W72001   6.421  27.561   3.190
12906W        W72002  20.175  19.629   5.259
12907W        W72003  18.074  23.570   1.228
12908W        W72004  43.297  32.886   2.228
12909W        W72005  11.704   9.798   1.376
12910W        W72006  16.129  22.700  13.832
12911W        W72007   7.238  34.042  11.460
12912W        W72008  41.308   9.191  11.372
12913W        W72009  37.358  40.863   2.249
12914W        W72010  36.869  11.625  11.487
12915W        W72011  39.955  33.616   3.181
12916W        W72012  26.131  11.751   3.693
12917W        W72013  21.229  23.672  10.585
12918W        W72014  22.211   0.314   0.440
12919W        W72015  22.172   2.258   3.654
12920W        W72016  11.860   2.389  14.400
12921W        W72017  29.646   7.715   1.751
12922W        W72018  10.222   3.234   1.928
12923W        W72019  28.126   7.323   1.869
12924W        W72020  24.043  43.001   5.157
12925W        W72021  42.019  18.071   1.914
12926W        W72022  34.396  34.059  13.919
12927W        W72023  24.097  19.659   3.236
12928W        W72024  32.057  42.301  11.606
12929W        W72025  26.998  37.507   4.340
12930W        W72026  14.763  36.974  14.898
12931W        W72027  41.939   3.334  11.061
12932W        W72028  12.790  42.829  12.873
12933W        W72029  39.032  22.669  10.524
12934W        W72030  13.619   1.895  12.939
12935W        W72031   7.256  27.092   2.824
12936W        W72032  36.395  18.247  10.527
12937W        W72033  16.677  43.296  11.531
12938W        W72034   1.803   9.260  10.555
12939W        W72035  25.976  24.665  13.492
12940W        W72036   1.778   1.837   4.800
12941W        W72037  16.155  29.532   2.704
12942W        W72038  38.557  21.254   2.756
12943W        W72039  24.022  39.014   0.336
12944W        W72040  43.361  23.224  10.521
12945W        W72041  38.880  38.345  10.560
12946W        W72042  18.067   0.477   4.202
12947W        W72043  30.642  18.089   2.278
12948W        W72044   3.934  37.558   0.338
12949W        W72045   0.879  44.266  13.327
12950W        W72046  43.279  22.247  12.065
12951W        W72047  15.742  37.912  14.318
12952W        W72048  38.379  33.455  12.955
12953W        W72049  29.000  22.103  14.803
12954W        W72050   9.822  12.252  14.479
12955W        W72051  21.238   6.219   5.320
12956W        W72052  36.348   6.250  11.929
12957W        W72053  16.812  39.869   2.762
12958W        W72054  40.827  34.083  10.498
12959W        W72055  21.179  28.972  14.417
12960W        W72056  28.626  16.318   1.432
12961W        W72057   1.880  39.004   3.199
12962W        W72058  42.809  13.124   1.399
12963W        W72059  15.310   1.357  11.088
12964W        W72060  25.122  34.497   2.390
12965W        W72061  20.083  19.548   4.290
12966W        W72062  24.052  42.479  12.577
12967W        W72063  32.398  31.624   0.856
12968W        W72064  20.037  33.498  10.413
12969W        W72065  39.968   4.727  12.045
12970W        W72066  25.179  28.167  11.437
12971W        W72067  12.684  14.756   0.330
12972W        W72068   9.167  21.154  10.569
12973W        W72069  26.599  24.691   1.256
12974W        W72070  42.512  43.968  10.946
12975W        W72071  31.426  20.529   3.170
12976W        W72072  22.225  41.983  14.353
12977W        W72073  26.618  32.488   2.729
12978W        W72074  12.663  30.911   1.328
12979W        W72075  23.195   8.820  10.955
12980W        W72076  42.854  34.071  13.797
12981W        W72077  19.108  21.038  13.917
12982W        W72078   9.730  17.704   4.616
12983W        W72079  12.221  14.124   2.731
12984W        W72080  31.503  11.204   2.679
12985W        W72081  13.337  29.923  14.007
12986W        W72082  38.519  40.447  13.991
12987W        W72083  19.147   8.815   2.782
12988W        W72084  17.121  22.502   1.446
12989W        W72085  38.947  40.836   4.258
12990W        W72086  22.544   1.975   2.415
12991W        W72087  10.222   8.169  13.921
12992W        W72088  25.128  36.049   5.593
12993W        W72089   0.866   7.678   4.237
12994W        W72090   5.196  13.744   0.785
12995W        W72091   1.259  35.560   3.153
12996W        W72092  43.427  16.180   4.643
12997W        W72093   7.853  13.678   3.797
12998W        W72094  11.863  11.165  11.047
12999W        W72095   1.365  44.391   2.704
13000W        W72096   6.684  12.821   2.273
13001W        W72097  21.638  13.823   9.467
13002W        W72098   5.804   1.890  14.321
13003W        W72099  37.908  35.966   3.784
13004W        W72100  35.416   3.916   0.811
13005W        W72101  30.014   7.237  13.455
13006W        W72102  43.323  13.287  11.419
13007W        W72103  12.737  39.847  11.552
13008W        W72104  30.431  44.270  14.801
13009W        W72105  40.872  44.845  11.036
13010W        W72106   8.173  30.950   0.243
13011W        W72107   8.314  17.788   0.803
13012W        W72108  10.262   7.708  14.947
13013W        W72109  30.462  28.500  13.465
13014W        W72110  34.592  21.199  12.908
13015W        W72111  34.873  42.307  13.034
13016W        W72112   4.768  34.526   1.328
13017W        W72113  42.952   4.446  10.908
13018W        W72114  27.062   9.693   1.447
13019W        W72115  25.992  20.722  13.487
13020W        W72116  22.560   7.410  14.927
13021W        W72117  11.725  13.155   3.336
13022W        W72118  42.420  32.624   3.325
13023W        W72119  19.214  44.344   1.757
13024W        W72120  14.234  19.595   4.689
13025W        W72121  34.864  37.470   2.709
13026W        W72122   2.410  12.829   5.132
13027W        W72123  23.095   1.316   1.320
13028W        W72124  24.011  44.300  14.910
13029W        W72125  18.218   2.899  11.385
13030W        W72126  41.959  25.185   5.165
13031W        W72127   5.767  38.481  14.009
13032W        W72128  29.030  19.566  10.943
13033W        W72129  21.738   4.766   4.187
13034W        W72130  42.386  34.007   2.838
13035W        W72131  10.367   3.366   5.284
13036W        W72132  36.935  17.066   9.562
13037W        W72133  24.102   6.901   3.647
13038W        W72134  17.671  25.167  13.881
13039W        W72135  19.624  40.336   0.330
13040W        W72136  27.965   9.315  11.587
13041W        W72137  37.374  43.286  13.990
13042W        W72138  13.653  44.381   3.270
13043W        W72139  15.746  23.152   0.816
13044W        W72140  12.786  27.012  11.597
13045W        W72141  20.635  12.618   2.728
13046W        W72142  34.594   0.862   4.347
13047W        W72143   5.250  27.630  14.907
13048W        W72144  37.384  36.486   3.760
13049W        W72145  19.134  25.588   0.776
13050W        W72146  29.649  24.606   0.879
13051W        W72147  10.166  24.081   0.896
13052W        W72148  16.782   1.787   3.158
13053W        W72149  13.667  12.681  10.888
13054W        W72150   2.458   3.756  11.539
13055W        W72151  34.484   2.926   3.759
13056W        W72152  24.001  25.531  11.983
13057W        W72153  28.974  28.164   4.149
13058W        W72154  29.624  13.734  12.417
13059W        W72155   8.850  15.586  13.867
13060W        W72156   8.849  26.642   2.266
13061W        W72157   6.698  24.621   3.196
13062W        W72158   5.271  39.838  12.464
13063W        W72159  10.698   0.457  13.322
13064W        W72160  42.013   9.375   1.281
13065W        W72161  21.216  24.618   1.766
13066W        W72162  17.610  35.571   1.439
13067W        W72163  29.509  33.605   3.734
13068W        W72164  20.048  23.656   0.923
13069W        W72165   5.377  24.133   1.886
13070W        W72166   0.451   0.945   4.114
13071W        W72167  28.588  37.966  12.082
13072W        W72168  34.004  28.515   9.644
13073W        W72169  10.141  34.885  13.511
13074W        W72170  39.473  27.593  13.412
13075W        W72171  40.348   7.272   1.375
13076W        W72172   1.732  31.963  12.094
13077W        W72173  32.550   0.382  14.458
13078W        W72174  40.375  35.479   0.826
13079W        W72175   5.721  25.176  13.489
13080W        W72176  29.477   3.758  10.613
13081W        W72177   0.978  40.405  13.346
13082W        W72178  28.437  31.492  13.868
13083W        W72179  15.684   1.405  12.351
13084W        W72180  30.631   7.329  12.356
13085W        W72181  24.064  18.720  14.955
13086W        W72182  15.819  41.994   3.746
13087W        W72183   2.753  19.122   0.749
13088W        W72184  24.045   1.895  13.053
13089W        W72185  22.603   3.837   4.775
13090W        W72186  43.850  39.907  14.846
13091W        W72187  29.479  22.028   1.897
13092W        W72188  32.473  44.335   0.879
13093W        W72189  42.376   8.301  12.977
13094W        W72190  24.646  20.092  14.515
13095W        W72191  13.185  29.008  11.476
13096W        W72192  21.577  40.853  12.470
13097W        W72193   0.413  15.662   2.865
13098W        W72194   2.384  21.651   2.389
13099W        W72195  35.585  27.077   0.760
13100W        W72196  22.591  34.531   2.319
13101W        W72197  32.979  41.348  14.023
13102W        W72198  32.544  31.543   3.262
13103W        W72199  44.446   7.176  14.351
13104W        W72200  29.077   0.792  13.038
13105W        W72201   1.734  25.697   1.402
13106W        W72202  24.070   6.305  10.421
13107W        W72203   9.784   5.224   2.218
13108W        W72204  16.141   9.150   3.165
13109W        W72205  37.483  40.797  12.381
13110W        W72206  28.184  29.060   4.284
13111W        W72207  29.565   7.414  12.058
13112W        W72208  14.127  42.830  10.511
13113W        W72209   1.756  20.685   1.265
13114W        W72210  29.634  43.424   1.235
13115W        W72211   7.785  40.357   1.778
13116W        W72212  19.625  11.862  14.026
13117W        W72213  18.147  22.249  12.031
13118W        W72214  39.897  39.036   0.393
13119W        W72215  23.231  26.617   1.838
13120W        W72216  44.815  15.212   4.746
13121W        W72217   3.304   2.348  10.448
13122W        W72218  11.677  33.596  11.471
13123W        W72219  36.927  18.707   4.302
13124W        W72220  10.752  17.615   3.324
13125W        W72221  31.062  24.159   9.439
13126W        W72222  30.073   3.396  11.607
13127W        W72223  10.384  29.959  12.038
13128W        W72224  14.217  42.917   2.766
13129W        W72225  22.222   1.469  13.045
13130W        W72226  33.512  23.687  14.995
13131W        W72227  24.487  14.815  13.442
13132W        W72228  43.905   6.376  13.476
13133W        W72229   8.889   0.461  13.859
13134W        W72230  13.215   5.895   2.407
13135W        W72231  24.023   4.426   0.873
13136W        W72232  10.809  12.728  14.367
13137W        W72233  26.658   8.266   0.443
13138W        W72234   1.402  16.692   2.793
13139W        W72235  21.697   4.366   1.279
13140W        W72236  16.674  29.096   5.312
13141W        W72237  41.037   4.918  10.420
13142W        W72238  37.383  20.274  13.444
13143W        W72239   7.889  32.467  13.314
13144W        W72240   8.794  12.122  10.578
13145W        W72241  37.462  34.540  10.059
13146W        W72242   0.449  17.109  12.448
13147W        W72243  42.803  35.461  12.959
13148W        W72244  39.880  42.796  12.901
13149W        W72245  30.051  37.565   2.834
13150W        W72246  42.313   0.750   4.737
13151W        W72247  23.598   0.790   0.845
13152W        W72248  10.743   9.656  10.641
13153W        W72249   2.288  10.728   4.835
13154W        W72250   9.882  29.097  13.922
13155W        W72251  24.081   8.730   2.821
13156W        W72252  39.052  35.499   3.672
13157W        W72253  19.779  17.560  12.962
13158W        W72254  30.479   6.692   3.693
13159W        W72255  21.555  10.328   2.834
13160W        W72256  41.430  10.357   2.248
13161W        W72257   6.399  21.679   1.705
13162W        W72258  43.866   2.304  10.936
13163W        W72259  17.721  33.445   1.835
13164W        W72260   5.831  28.449   9.437
13165W        W72261  31.511  26.588  14.484
13166W        W72262  12.118   2.272  14.510
13167W        W72263  15.221  14.668   4.349
13168W        W72264  24.001  32.960  12.520
13169W        W72265   7.815   3.913   1.776
13170W        W72266  26.604  41.820  14.301
13171W        W72267  14.228  25.691  14.910
13172W        W72268  31.617  20.040  12.034
13173W        W72269  17.620   8.366  11.442
13174W        W72270  11.190  10.255  10.635
13175W        W72271  25.093  38.414  12.052
13176W        W72272  17.230   6.901  14.355
13177W        W72273  13.763  27.049   3.173
13178W        W72274  22.033  31.967   0.308
13179W        W72275  33.012   1.849   4.263
13180W        W72276  44.888   8.779  11.572
13181W        W72277   4.319  10.315   1.720
13182W        W72278   1.752   0.298   0.248
13183W        W72279  44.414  14.314   5.139
13184W        W72280  17.609  30.643  10.936
13185W        W72281   7.334  31.138   3.217
13186W        W72282  25.606  42.883  14.926
13187W        W72283   0.854  35.493  10.904
13188W        W72284   3.721  21.194   1.215
13189W        W72285  10.295  25.664   4.707
13190W        W72286  28.485  19.120   3.306
13191W        W72287  30.521  17.076   1.434
13192W        W72288  25.552  19.246  12.938
13193W        W72289   2.359   4.823   2.349
13194W        W72290  42.820  40.899  12.484
13195W        W72291  23.996  17.237   2.292
13196W        W72292  27.503  21.172   0.251
13197W        W72293  27.099  34.023  13.381
13198W        W72294  27.090  40.010   2.747
13199W        W72295   4.422  38.854  11.389
13200W        W72296  39.036  30.477  11.928
13201W        W72297  11.332  16.582   2.337
13202W        W72298  30.051  28.462   0.416
13203W        W72299  40.335   9.832   0.785
13204W        W72300   0.303   9.706   2.194
13205W        W72301  21.572  35.968   4.216
13206W        W72302  33.423  26.475  14.972
13207W        W72303  31.539  31.046  13.385
13208W        W72304  38.061  16.127   0.783
13209W        W72305  28.029  36.350   5.165
13210W        W72306  42.841  35.902   9.964
13211W        W72307   7.205  15.250  11.481
13212W        W72308  33.427  36.374  12.461
13213W        W72309  19.225  26.187  13.802
13214W        W72310   9.656  27.943  12.956
13215W        W72311  18.176  19.655  14.898
13216W        W72312  19.174  40.320  13.342
13217W        W72313  23.683   2.385  11.396
13218W        W72314  32.059   6.291   2.751
13219W        W72315  16.199  21.727  14.790
13220W        W72316  14.234  33.515  12.453
13221W        W72317   9.757  31.581  12.412
13222W        W72318  40.994   0.314  12.923
13223W        W72319   4.325  16.216  14.790
13224W        W72320  14.306  38.837  13.834
13225W        W72321  30.567  43.909   4.140
13226W        W72322   0.752  25.144   2.249
13227W        W72323   7.410  11.756   2.196
13228W        W72324  29.118  10.200   2.868
13229W        W72325   2.423  11.800  10.914
13230W        W72326  41.980  29.438  14.893
13231W        W72327   9.730   2.278  12.524
13232W        W72328  19.737   7.212   0.818
13233W        W72329   8.840  25.592   3.370
13234W        W72330   9.709  37.858   0.256
13235W        W72331  20.556  44.850   3.651
13236W        W72332  42.326  14.723  13.007
13237W        W72333  35.074  36.587   4.240
13238W        W72334  11.182   0.250   2.202
13239W        W72335  25.111  30.976   3.241
13240W        W72336  43.867  33.879  14.498
13241W        W72337   1.367  24.598   1.360
13242W        W72338  26.577  28.176   1.430
13243W        W72339  42.371  27.125   2.265
13244W        W72340  40.548  15.274  12.888
13245W        W72341   6.728  13.202   3.671
13246W        W72342  16.798  44.829   4.630
13247W        W72343  30.415   8.228  11.426
13248W        W72344  21.682   4.342   4.253
13249W        W72345  10.177  14.220   4.677
13250W        W72346  33.884  13.166  10.456
13251W        W72347   6.706   7.363   4.267
13252W        W72348  43.929  22.041  14.806
13253W        W72349  26.585  21.718   2.750
13254W        W72350  14.617  26.075  14.898
13255W        W72351  28.435  24.140   1.822
13256W        W72352  11.839  44.894  10.896
13257W        W72353   7.695   2.893   0.827
13258W        W72354  38.027  25.677   1.383
13259W        W72355   9.270  30.585   4.786
13260W        W72356  18.661   8.800   9.441
13261W        W72357  22.142  19.140   2.389
13262W        W72358  37.033  20.193  13.968
13263W        W72359  27.985  25.205  12.433
13264W        W72360  14.239  34.418  12.972
13265W        W72361  22.702   1.400  12.573
13266W        W72362   6.417  24.143  11.904
13267W        W72363  29.498  37.517   1.414
13268W        W72364  30.083  33.932  14.980
13269W        W72365  22.658   2.901   3.820
13270W        W72366  37.898   8.219   1.827
13271W        W72367  29.087  16.596   0.252
13272W        W72368  11.367   5.341  13.415
13273W        W72369  18.103  19.659   0.430
13274W        W72370  18.572  10.186  12.887
13275W        W72371  39.487  19.752  14.469
13276W        W72372  38.881  24.505   1.248
13277W        W72373   3.339  15.653  11.042
13278W        W72374  14.105  16.810   9.552
13279W        W72375   8.780  40.938   4.200
13280W        W72376  34.913   0.835  14.759
13281W        W72377   8.732  33.621  11.380
13282W        W72378  40.428  29.079   1.415
13283W        W72379  32.444  33.539   0.827
13284W        W72380  18.266  11.751   2.774
13285W        W72381  14.601  10.667   1.253
13286W        W72382  18.769   7.805   3.350
13287W        W72383  20.713   7.832  11.492
13288W        W72384  28.649   9.359   3.165
13289W        W72385  12.684  10.138  14.958
13290W        W72386  30.067   5.760  11.419
13291W        W72387  13.246  26.598  14.336
13292W        W72388  30.494  16.255  11.990
13293W        W72389  11.704  24.983  12.956
13294W        W72390   4.359  25.038  12.845
13295W        W72391  29.003  11.348  10.628
13296W        W72392   3.332  19.642  12.021
13297W        W72393   6.836  28.009   2.697
13298W        W72394  40.507  20.618  14.833
13299W        W72395  44.432  37.889  10.977
13300W        W72396  19.672  38.998  11.941
13301W        W72397  10.725  15.275   3.290
13302W        W72398   8.820  11.814   3.287
13303W        W72399  16.680  29.620  11.563
13304W        W72400  18.689   1.349   0.298
13305W        W72401  29.504   5.739  13.418
13306W        W72402  27.170  31.515   2.721
13307W        W72403  31.927  42.299  14.278
13308W        W72404  21.017  36.081  10.589
13309W        W72405  36.377  28.546   3.158
13310W        W72406  12.790  39.489   3.183
13311W        W72407  16.733  37.085  14.397
13312W        W72408  40.537   1.353   3.235
13313W        W72409  29.919  43.502   1.357
13314W        W72410  22.659  38.353   4.158
13315W        W72411  17.640  24.616  11.476
13316W        W72412  19.178  33.607  10.420
13317W        W72413  21.229  33.981   0.422
13318W        W72414  10.686  40.341  13.894
13319W        W72415  13.694  42.885   1.738
13320W        W72416  37.858  22.571  10.039
13321W        W72417  17.153  14.805  13.328
13322W        W72418  34.996  22.027   0.916
13323W        W72419  37.416  34.865   0.852
13324W        W72420  14.617  28.964   0.737
13325W        W72421  21.102  14.670   4.671
13326W        W72422  34.396  30.971   0.344
13327W        W72423   6.236  31.537   3.668
13328W        W72424  44.426   2.295  12.095
13329W        W72425   5.415  21.543  13.363
13330W        W72426  19.616  19.664  12.515
13331W        W72427  26.632  11.838   1.767
13332W        W72428  21.191  10.720   5.128
13333W        W72429  26.667   4.297  14.363
13334W        W72430  40.007   8.662   2.350
13335W        W72431   3.296  10.342  13.840
13336W        W72432  38.843  20.677   0.805
13337W        W72433  18.253  13.296  14.498
13338W        W72434  44.332  26.460  11.046
13339W        W72435  31.121  17.101   0.260
13340W        W72436   0.942  12.800   0.477
13341W        W72437  13.140   3.718   1.323
13342W        W72438  25.965  17.171  10.913
13343W        W72439  36.911  22.652   4.803
13344W        W72440   1.814  12.151  10.962
13345W        W72441   5.690  38.068   0.401
13346W        W72442  33.918  31.460  10.540
13347W        W72443  12.746  41.928  14.434
13348W        W72444   1.335   3.382  11.537
13349W        W72445  11.198   1.851   1.398
13350W        W72446   4.260  23.702   3.702
13351W        W72447  22.066  41.043   1.451
13352W        W72448  18.745   7.832  11.387
13353W        W72449   0.455  36.512   0.849
13354W        W72450  27.669  25.692   4.297
13355W        W72451   6.891  11.779   1.354
13356W        W72452   2.285  28.456   1.248
13357W        W72453  11.639  20.727  12.378
13358W        W72454  21.558   3.216  13.418
13359W        W72455  24.068  14.279  12.533
13360W        W72456  24.126   5.308  14.763
13361W        W72457  44.850   7.316   0.247
13362W        W72458  30.453   8.879   3.195
13363W        W72459   1.275  43.312  10.509
13364W        W72460  37.534  28.557  10.435
13365W        W72461   6.304  20.541   0.891
13366W        W72462   4.786  32.426  14.918
13367W        W72463   1.761  41.396  11.944
13368W        W72464  41.863   0.767  10.949
13369W        W72465  33.965  35.963   1.446
13370W        W72466  15.623  28.495  13.014
13371W        W72467  30.043  15.252   4.146
13372W        W72468   8.383  21.244  11.050
13373W        W72469  42.334   3.300  12.036
13374W        W72470  27.083  27.194   0.967
13375W        W72471  37.507  34.877   1.429
13376W        W72472  25.693  13.689  14.367
13377W        W72473  25.487  25.176  11.577
13378W        W72474   7.851  43.992   2.682
13379W        W72475   5.271  21.118  11.592
13380W        W72476  26.685  36.429   0.368
13381W        W72477  28.519   9.287   1.709
13382W        W72478  22.668  21.061   3.148
13383W        W72479  18.120  22.212   0.465
13384W        W72480  21.725  27.105   1.444
13385W        W72481  20.653  30.130  11.397
13386W        W72482  33.452  31.932   4.288
13387W        W72483  30.065  41.952   1.698
13388W        W72484  39.931   6.308   4.777
13389W        W72485  27.008  18.654  11.946
13390W        W72486  43.492   2.296  14.772
13391W        W72487   8.661  36.922  12.850
13392W        W72488  14.696  23.141   1.302
13393W        W72489   8.330  14.113   0.767
13394W        W72490  14.303  36.921   0.752
13395W        W72491   1.907  25.054  11.093
13396W        W72492   4.877   0.748   4.667
13397W        W72493  35.906  11.330  14.369
13398W        W72494  43.357  19.634   4.736
13399W        W72495  34.877  23.706  12.001
13400W        W72496  31.478  16.192  11.461
13401W        W72497  41.913  35.444   1.362
13402W        W72498  15.154  20.046  10.527
13403W        W72499   4.414  19.596   1.789
13404W        W72500  35.048  21.261  13.976
13405W        W72501  28.483   1.750  12.536
13406W        W72502   8.816  32.472   1.434
13407W        W72503  12.263  37.504  12.940
13408W        W72504  40.828  18.200   0.812
13409W        W72505  16.126  27.578   4.766
13410W        W72506  35.089  37.366  13.925
13411W        W72507  13.777  14.268  11.086
13412W        W72508  27.150  21.585  14.993
13413W        W72509  24.694  28.464  12.348
13414W        W72510  35.047  39.329  11.428
13415W        W72511   3.723   4.718   0.341
13416W        W72512  22.645  31.428   3.264
13417W        W72513  25.976  38.053  14.021
13418W        W72514  43.918  24.647   2.309
13419W        W72515   3.827  38.331  10.426
13420W        W72516  23.728  36.437   3.684
13421W        W72517  26.108  28.681  14.499
13422W        W72518  22.136  12.828  10.585
13423W        W72519  28.178  21.259   1.808
13424W        W72520  32.011   6.726  11.485
13425W        W72521  43.496  41.308  10.094
13426W        W72522  35.886  44.401   4.637
13427W        W72523  12.778   2.860  13.461
13428W        W72524  20.531  13.765  10.634
13429W        W72525  40.440   7.413   1.715
13430W        W72526  10.684  20.088   0.365
13431W        W72527   7.187  43.775   1.324
13432W        W72528  25.067   0.794  13.041
13433W        W72529  36.994  22.547   1.826
13434W        W72530  33.446  23.137   3.386
13435W        W72531  41.983  41.884   1.743
13436W        W72532  25.564  16.190   3.345
13437W        W72533   8.318  33.883  13.837
13438W        W72534  12.835  35.413   4.190
13439W        W72535  25.693   5.701   0.466
13440W        W72536  21.526  11.300  12.395
13441W        W72537  30.603  15.782   3.357
13442W        W72538   9.304   8.233   1.252
13443W        W72539  39.048  23.217  11.937
13444W        W72540  38.569  32.458  13.048
13445W        W72541   6.298   3.712   0.318
13446W        W72542  18.145  12.289   0.410
13447W        W72543  41.441   2.238  12.958
13448W        W72544  41.957  26.991  10.640
13449W        W72545  29.954  32.093   4.338
13450W        W72546  10.759  15.662   2.265
13451W        W72547  37.017  40.387  13.365
13452W        W72548  26.612  18.747  13.001
13453W        W72549  21.722  38.834   2.339
13454W        W72550  40.481  32.088   1.798
13455W        W72551  32.437  14.651  12.461
13456W        W72552   6.845  17.791   1.861
13457W        W72553  33.024  36.944   4.325
13458W        W72554  10.771  16.706   1.351
13459W        W72555  16.707  39.395   1.772
13460W        W72556  10.382  14.140   3.859
13461W        W72557   3.819  36.082   1.744
13462W        W72558   1.483  31.126   3.815
13463W        W72559  19.598   7.693   1.270
13464W        W72560  40.856  21.229   2.253
13465W        W72561  44.392   5.409  12.904
13466W        W72562   6.710  33.054  13.365
13467W        W72563  32.940  21.111  13.848
13468W        W72564  19.690   2.307   1.219
13469W        W72565  42.374  16.811   0.883
13470W        W72566  24.223   5.763   2.857
13471W        W72567  12.776  30.486  14.509
13472W        W72568  33.604   0.830  11.506
13473W        W72569   9.749  31.594   0.421
13474W        W72570   0.396  14.685   2.330
13475W        W72571  22.169  33.619   1.771
13476W        W72572  40.361  13.122  10.001
13477W        W72573  35.974  16.800  14.930
13478W        W72574  23.569  31.471   2.360
13479W        W72575  35.568  42.941   0.947
13480W        W72576  37.535   6.309   1.749
13481W        W72577  36.496  36.537  11.869
13482W        W72578   7.244  12.702   4.151
13483W        W72579  24.563  33.957   2.791
13484W        W72580   0.849  27.079  12.343
13485W        W72581  41.799  21.189  13.873
13486W        W72582  37.871   6.686   4.760
13487W        W72583  14.755  19.247   0.393
13488W        W72584  15.127  29.593  11.467
13489W        W72585  40.391  22.699  14.475
13490W        W72586  42.969   7.898  11.048
13491W        W72587  31.148  36.091   4.200
13492W        W72588   6.287  11.289  10.565
13493W        W72589   6.733  40.885   4.133
13494W        W72590  21.113  33.570  12.567
13495W        W72591  37.859  20.138  11.565
13496W        W72592  44.366   9.375   0.942
13497W        W72593   4.819  30.068  11.430
13498W        W72594  24.514  40.406   0.832
13499W        W72595   9.828   6.765   4.657
13500W        W72596  30.080  30.055   2.218
13501W        W72597  39.445   6.851  13.059
13502W        W72598   6.741  20.713   3.845
13503W        W72599  34.480  17.666   5.256
13504W        W72600  24.132  28.451   1.421
13505W        W72601  39.873  32.923   2.685
13506W        W72602  29.956  38.997   1.890
13507W        W72603  11.718  36.845   0.418
13508W        W72604  36.048   5.819  11.857
13509W        W72605  11.801  17.208  14.878
13510W        W72606  20.648  21.594  12.079
13511W        W72607  20.056   1.914  10.126
13512W        W72608  40.485   8.367   2.253
13513W        W72609   7.846  18.655   1.240
13514W        W72610  22.112  23.195  12.090
13515W        W72611  15.100  26.475   3.367
13516W        W72612   6.323   8.656   0.261
13517W        W72613  35.586  18.741  12.388
13518W        W72614  18.091   0.359  11.915
13519W        W72615  25.028  22.567  11.491
13520W        W72616  38.567  13.715   1.701
13521W        W72617  15.615  44.978   2.759
13522W        W72618  38.073  36.490  11.990
13523W        W72619  18.161   9.321  12.526
13524W        W72620  27.948  30.473  13.380
13525W        W72621  34.010  10.187   2.415
13526W        W72622  33.078  40.816  13.338
13527W        W72623  20.679   6.425  10.980
13528W        W72624  26.156  40.421  12.403
13529W        W72625   0.404  12.166   0.932
13530W        W72626  43.924  21.223  14.775
13531W        W72627   8.285  36.593   1.319
13532W        W72628  32.084   3.247  14.400
13533W        W72629  21.519  25.098   0.817
13534W        W72630  26.574  15.288   0.834
13535W        W72631  19.651  39.905  12.555
13536W        W72632  40.034  33.931   0.765
13537W        W72633  34.029  19.604  12.067
13538W        W72634   2.333  13.744  14.471
13539W        W72635  27.466  32.005  11.560
13540W        W72636   6.685  39.870   3.354
13541W        W72637  24.211  41.874  11.414
13542W        W72638  29.929  21.702   1.263
13543W        W72639  12.630   4.234  13.964
13544W        W72640  32.055   0.787  14.397
13545W        W72641  31.592   2.860   1.383
13546W        W72642  24.007  11.354  14.988
13547W        W72643  41.933  22.100  10.998
13548W        W72644  12.633  33.886   3.218
13549W        W72645  43.867  40.476   0.829
13550W        W72646  28.473   8.695  10.953
13551W        W72647  34.059  12.245  11.883
13552W        W72648   9.246   0.807  11.389
13553W        W72649   1.307  15.160   0.825
13554W        W72650  39.957   3.357  12.993
13555W        W72651  30.102  42.337   4.199
13556W        W72652  27.570  31.906   5.085
13557W        W72653   5.882   9.165   0.739
13558W        W72654  38.499  41.973   3.864
13559W        W72655   0.445  17.721  10.445
13560W        W72656   3.733   3.247   2.291
13561W        W72657  43.015   9.352   1.859
13562W        W72658   5.825   7.802   4.114
13563W        W72659  19.667  36.428   1.705
13564W        W72660   7.253   2.301  14.919
13565W        W72661  33.892  35.881   4.303
13566W        W72662  30.625  37.028   9.500
13567W        W72663  11.358  10.284   2.712
13568W        W72664  44.858  20.702   2.209
13569W        W72665  10.645  13.704   4.235
13570W        W72666   8.295  25.972   4.708
13571W        W72667   6.379   5.690  12.846
13572W        W72668  33.407  18.230   2.774
13573W        W72669  23.696  26.460  12.866
13574W        W72670  28.102  21.661  12.345
13575W        W72671  41.357   6.182  14.811
13576W        W72672   5.298  21.587   2.354
13577W        W72673   2.241  20.679  11.118
13578W        W72674  41.352  44.780  13.342
13579W        W72675  32.089  44.798   2.788
13580W        W72676  11.684  15.182   2.691
13581W        W72677  23.047   3.900   4.226
13582W        W72678  26.597  32.491   1.784
13583W        W72679  19.536   4.876  12.431
13584W        W72680  31.590   2.844   2.667
13585W        W72681  43.871   6.358   0.248
13586W        W72682  18.112  42.894   3.252
13587W        W72683  10.687  40.418  11.452
13588W        W72684  30.112  13.615   3.285
13589W        W72685  18.180   8.708  14.346
13590W        W72686  14.728  11.164   3.190
13591W        W72687  44.753  40.335   3.712
13592W        W72688  37.409   7.859  14.313
13593W        W72689   8.230  42.837  10.888
13594W        W72690  19.233  33.983  11.488
13595W        W72691  43.961  38.399   0.278
13596W        W72692  39.501   1.363  12.056
13597W        W72693  17.267  16.594  13.957
13598W        W72694  26.186  31.975   2.189
13599W        W72695  39.471  36.431  12.406
13600W        W72696   7.239  30.136  11.552
13601W        W72697  26.098  14.253   3.271
13602W        W72698  19.106  21.610  11.514
13603W        W72699  25.171  25.567  13.361
13604W        W72700  24.000  34.486   3.252
13605W        W72701  24.226   9.307  10.559
13606W        W72702  27.677  20.581   5.271
13607W        W72703   1.874  31.587  11.933
13608W        W72704  32.057  32.006   2.840
13609W        W72705  14.631  43.946  14.871
13610W        W72706   9.165  21.222  13.813
13611W        W72707  20.238  36.890  13.976
13612W        W72708  22.527  14.315  13.343
13613W        W72709  38.417  32.946   4.815
13614W        W72710  34.092  36.950  10.631
13615W        W72711  17.074   9.663  11.100
13616W        W72712  16.215  40.892  11.990
13617W        W72713   6.242  23.538   1.271
13618W        W72714  13.775  38.326   1.808
13619W        W72715   6.227  29.567   2.773
13620W        W72716  11.735  44.388   2.261
13621W        W72717  15.329  40.397   0.940
13622W        W72718  12.136  38.997   1.746
13623W        W72719  42.322  26.020  14.770
13624W        W72720  29.538   8.190  11.441
13625W        W72721  41.349  23.540  13.380
13626W        W72722  18.613  30.010  11.998
13627W        W72723  39.448  31.141  11.397
13628W        W72724   9.824  26.964   1.396
13629W        W72725  19.683  32.613   4.350
13630W        W72726  38.347  42.860  11.037
13631W        W72727  42.894  12.251  13.465
13632W        W72728  43.413  32.044   0.757
13633W        W72729  24.561  39.344  10.628
13634W        W72730  10.731  23.597   3.223
13635W        W72731  41.836  44.428   4.310
13636W        W72732  29.522  19.074  10.572
13637W        W72733  11.727  14.828   2.668
13638W        W72734  28.003  40.418  14.776
13639W        W72735  26.996  41.804   1.305
13640W        W72736  14.126  10.676   1.859
13641W        W72737  20.615  36.029  12.567
13642W        W72738  21.612  26.004   3.827
13643W        W72739   9.308   7.240  14.276
13644W        W72740  35.427   9.348  10.600
13645W        W72741  38.962  32.940   0.290
13646W        W72742  39.062   9.391   1.824
13647W        W72743   4.901  42.837   1.210
13648W        W72744   1.308   0.815  12.974
13649W        W72745  36.877  12.241   2.398
13650W        W72746  17.621  35.580   1.884
13651W        W72747  25.978  12.722   3.792
13652W        W72748  21.513  31.545   2.269
13653W        W72749   9.697  21.080  11.497
13654W        W72750  10.719  17.592   0.315
13655W        W72751  43.979  12.287  11.012
13656W        W72752  36.017  18.546   0.268
13657W        W72753  39.502  19.590   0.331
13658W        W72754  12.720   8.729   4.332
13659W        W72755   0.320   2.443   4.142
13660W        W72756  16.777  27.181   2.228
13661W        W72757  10.679  12.133   0.729
13662W        W72758  14.620  16.653  12.397
13663W        W72759  20.180  24.722   2.707
13664W        W72760   2.237  42.783   2.404
13665W        W72761  25.163  27.479   4.132
13666W        W72762  23.987  25.504   1.286
13667W        W72763  28.054  26.481   0.336
13668W        W72764  29.071  42.491   2.733
13669W        W72765  16.159   6.194  13.490
13670W        W72766  24.033  31.416  12.386
13671W        W72767  30.575  30.448   1.830
13672W        W72768  33.621  26.661   4.623
13673W        W72769  37.386  21.225  11.482
13674W        W72770  33.921  42.789   2.846
13675W        W72771  29.989   6.268  11.459
13676W        W72772  44.413  31.489   1.714
13677W        W72773  23.604  34.497   1.818
13678W        W72774  13.295  38.067  11.517
13679W        W72775  23.568   5.262   0.893
13680W        W72776  35.603  43.893   3.171
13681W        W72777  39.856  16.576  13.847
13682W        W72778  14.173   6.863   0.894
13683W        W72779  21.652  29.554   4.777
13684W        W72780   4.939  12.752   0.397
13685W        W72781  29.494  43.493  14.858
13686W        W72782  33.005  43.940   1.405
13687W        W72783  28.545   6.792  10.409
13688W        W72784  24.098  30.532   3.250
13689W        W72785   4.408  11.278   2.256
13690W        W72786  31.596   5.787  13.459
13691W        W72787  19.127  12.328  11.893
13692W        W72788   0.289  31.912   3.319
13693W        W72789  17.796   7.321   1.226
13694W        W72790  37.549  34.417   1.728
13695W        W72791  38.437  14.741  13.903
13696W        W72792  38.964   9.853  13.872
13697W        W72793  24.121  40.029  14.938
13698W        W72794  43.802   4.433   0.421
13699W        W72795  33.560  43.817   4.241
13700W        W72796  44.849  27.645   3.294
13701W        W72797  36.014  42.400  11.968
13702W        W72798  37.878  33.617  13.815
13703W        W72799  17.618   9.828   0.294
13704W        W72800  39.947  16.676   4.338
13705W        W72801  22.712  14.590  12.579
13706W        W72802  31.984  39.864  11.926
13707W        W72803  43.843   2.290  10.640
13708W        W72804  20.243  31.609  13.414
13709W        W72805  43.319   3.768  11.952
13710W        W72806  18.644  33.914  11.976
13711W        W72807  19.071   4.713  11.061
13712W        W72808  13.712  27.145  13.007
13713W        W72809  42.413  25.569  14.416
13714W        W72810  20.668  10.845  10.120
13715W        W72811   2.890  32.957  13.437
13716W        W72812  21.655  40.305  10.962
13717W        W72813  26.476  25.204   0.295
13718W        W72814  16.652  25.011  13.928
13719W        W72815  37.478   8.684   2.830
13720W        W72816  38.870  28.153  11.865
13721W        W72817  32.545  34.556   0.413
13722W        W72818  28.489   2.756   2.357
13723W        W72819   1.386  39.432   4.177
13724W        W72820  10.749  12.145  13.339
13725W        W72821  27.943  36.022   0.380
13726W        W72822  31.585  25.189   4.658
13727W        W72823  29.142   8.388  13.962
13728W        W72824  10.369   9.669   3.647
13729W        W72825  18.740   5.848   1.231
13730W        W72826  38.399  24.507  12.984
13731W        W72827  22.503  18.281   4.316
13732W        W72828  14.700  34.551  12.002
13733W        W72829   3.828   9.387  14.782
13734W        W72830  31.608   0.469  11.124
13735W        W72831  18.182  11.134   1.387
13736W        W72832  19.581  29.619   0.854
13737W        W72833   2.885  36.414  12.944
13738W        W72834  17.560  15.629  13.976
13739W        W72835  13.334   0.765   0.796
13740W        W72836  12.294   9.218   1.439
13741W        W72837  16.638  34.603   4.748
13742W        W72838  10.787  31.481  11.013
13743W        W72839   5.780  12.243   2.373
13744W        W72840  17.273  28.434  10.964
13745W        W72841  31.965  43.422   1.817
13746W        W72842  41.044  34.065   0.837
13747W        W72843  29.648  44.422   3.238
13748W        W72844  13.824  21.232  13.540
13749W        W72845   9.384  40.431  11.411
13750W        W72846   5.274  42.292  12.078
13751W        W72847  19.106  33.622  12.954
13752W        W72848  28.581  12.131  12.004
13753W        W72849  29.020   0.429   0.814
13754W        W72850  25.670  18.782  11.914
13755W        W72851  41.981  43.935  14.925
13756W        W72852  34.440  27.106   0.289
13757W        W72853  11.194  30.997  13.821
13758W        W72854  33.443  24.210   1.701
13759W        W72855  21.216   7.853  14.407
13760W        W72856  28.037  25.007   3.358
13761W        W72857  25.193  40.813  14.901
13762W        W72858  29.019  19.752  13.946
13763W        W72859  35.915  10.756  12.018
13764W        W72860  15.680  22.655  13.415
13765W        W72861  22.651  30.121   2.819
13766W        W72862   9.246  22.043  11.485
13767W        W72863  27.448  26.059  14.421
13768W        W72864  13.188   9.170  10.547
13769W        W72865   4.875  11.171  14.403
13770W        W72866   2.230  27.995  13.942
13771W        W72867  10.816  35.462  12.470
13772W        W72868  34.460   9.719   2.411
13773W        W72869  14.609  12.802   9.950
13774W        W72870  37.044  41.886  10.644
13775W        W72871  13.789  41.360   4.810
13776W        W72872  10.140   7.882  11.399
13777W        W72873  34.582   7.234   1.342
13778W        W72874   3.715  33.453  14.426
13779W        W72875  11.742  39.856  13.808
13780W        W72876   2.366  28.675  14.924
13781W        W72877   5.405  38.976  14.969
13782W        W72878  15.170  37.874  11.986
13783W        W72879  11.683  27.062  12.831
13784W        W72880   4.802  23.548  12.826
13785W        W72881  17.306   5.906  13.011
13786W        W72882  22.643  19.048   4.151
13787W        W72883   3.785  14.174  10.583
13788W        W72884  40.362  30.036   4.616
13789W        W72885  41.408   2.867   3.219
13790W        W72886  43.504  37.986   4.652
13791W        W72887   5.416   0.465   3.725
13792W        W72888   2.280  27.990  11.020
13793W        W72889  39.508  12.160   2.696
13794W        W72890  36.418  44.865  14.956
13795W        W72891   6.679   0.746   3.661
13796W        W72892  11.341  44.899  10.602
13797W        W72893  35.060  38.552   0.739
13798W        W72894  40.511  37.494  11.908
13799W        W72895  30.044   1.878  14.416
13800W        W72896  27.124  12.185  14.963
13801W        W72897  16.683   9.297  10.516
13802W        W72898  37.039  39.985  11.107
13803W        W72899  18.719  24.605   0.791
13804W        W72900   9.343  23.051   2.251
13805W        W72901  27.632  11.197  12.403
13806W        W72902   5.344  44.454   1.271
13807W        W72903  43.910  17.781  12.465
13808W        W72904   2.837   2.436  14.819
13809W        W72905  43.312   1.403  12.955
13810W        W72906  22.728  14.305  13.898
13811W        W72907   2.847  42.309  14.452
13812W        W72908  40.804   3.753   4.245
13813W        W72909  44.791   4.754   4.202
13814W        W72910  28.959  21.698  10.926
13815W        W72911  43.909  15.093  10.443
13816W        W72912  40.428  27.030  14.996
13817W        W72913  21.168  37.893  12.875
13818W        W72914  12.258  44.905   4.252
13819W        W72915   6.830  43.431   3.781
13820W        W72916  42.868  44.974  12.932
13821W        W72917   3.845  14.835   1.704
13822W        W72918   4.753  29.461  13.799
13823W        W72919  33.002  34.952   1.401
13824W        W72920  42.839  13.221   4.199
13825W        W72921  30.950  40.364  13.371
13826W        W72922  33.006   8.685  14.456
13827W        W72923  16.256  18.249   1.393
13828W        W72924  25.185  30.593  10.986
13829W        W72925  37.867   0.981   1.747
13830W        W72926  30.910  12.239   2.287
13831W        W72927  12.748   3.406  10.941
13832W        W72928  33.528  44.823   1.404
13833W        W72929   6.301   4.367   4.249
13834W        W72930  40.424  43.947   4.642
13835W        W72931  20.210  29.115   2.730
13836W        W72932  30.568  13.217   1.278
13837W        W72933   0.429  33.611   0.468
13838W        W72934  34.022  34.938   1.277
13839W        W72935  42.869  35.402  14.459
13840W        W72936   2.248  17.271  11.889
13841W        W72937  43.337  13.683  12.898
13842W        W72938  31.560  34.937  13.940
13843W        W72939  13.741  25.519   0.856
13844W        W72940  27.473  31.101  14.012
13845W        W72941   2.421   5.360  12.880
13846W        W72942   0.796   9.743  11.937
13847W        W72943  22.064  15.179   2.315
13848W        W72944   1.862   7.351  12.824
13849W        W72945  30.639  43.502  11.539
13850W        W72946   6.833  11.307  12.354
13851W        W72947  18.230  37.582   3.207
13852W        W72948  39.460  28.476  12.568
13853W        W72949  39.850  17.152  14.506
13854W        W72950  15.687   0.353   3.215
13855W        W72951  21.163  33.446  13.852
13856W        W72952  21.673   4.232   2.418
13857W        W72953  36.493  25.968  12.029
13858W        W72954  39.333  31.929  14.803
13859W        W72955  18.228  15.271  11.551
13860W        W72956  34.085  28.070   9.467
13861W        W72957  19.089  33.912   4.791
13862W        W72958  27.455  31.576  14.430
13863W        W72959  13.755  19.253  14.512
13864W        W72960  42.422  24.223   4.644
13865W        W72961  27.461  41.994  11.552
13866W        W72962  11.231  22.042   4.772
13867W        W72963   9.735  13.159  10.940
13868W        W72964  43.943  34.540   0.884
13869W        W72965   7.667  15.174   3.675
13870W        W72966  13.744  10.858   1.933
13871W        W72967  44.470  17.297  12.360
13872W        W72968  27.576  27.529  13.820
13873W        W72969  18.653  23.685  13.052
13874W        W72970  36.049  13.225   1.740
13875W        W72971   1.799  16.601   2.817
13876W        W72972  22.155   0.775  13.325
13877W        W72973  43.406  11.144  14.379
13878W        W72974  27.550  17.559   1.904
13879W        W72975  40.387  34.508  14.513
13880W        W72976   5.783  35.511   3.816
13881W        W72977  15.628  10.301  11.539
13882W        W72978  33.119  44.940   1.722
13883W        W72979  32.107  19.663   1.930
13884W        W72980  29.644   6.356  13.476
13885W        W72981   6.898   8.305  11.971
13886W        W72982  44.347  41.997  14.426
13887W        W72983  43.406   6.315  13.001
13888W        W72984  37.445  15.680  11.470
13889W        W72985  23.111  27.641  13.461
13890W        W72986   9.669   1.866  11.039
13891W        W72987  31.962  44.917  10.989
13892W        W72988  44.830  29.524  13.482
13893W        W72989   0.336   9.739   1.861
13894W        W72990  25.108  10.809  12.544
13895W        W72991   7.714  17.287  11.537
13896W        W72992  25.577  18.093  12.919
13897W        W72993  23.563  28.503   4.213
13898W        W72994  15.094  21.139  10.946
13899W        W72995  43.350  13.665  11.899
13900W        W72996  22.667  24.993  12.913
13901W        W72997   1.861  39.987   4.250
13902W        W72998  29.965  18.595  11.924
13903W        W72999  23.616  25.525  14.769
13904W        W73000   5.235  27.510   2.344
13905W        W73001   8.734  11.866   1.816
13906W        W73002  25.195  30.049   1.883
13907W        W73003  29.114  27.621  12.404
13908W        W73004  12.324  12.145  11.976
13909W        W73005  35.067  35.927  13.390
13910W        W73006  25.499  34.606   0.402
13911W        W73007  22.109  14.832  12.424
13912W        W73008  12.156  43.278  10.483
13913W        W73009  41.369  12.229   1.311
13914W        W73010  38.379  20.117   2.709
13915W        W73011   6.271  30.072   4.827
13916W        W73012   7.304  35.530  13.427
13917W        W73013   8.869   7.355   3.147
13918W        W73014  24.660  43.877  12.902
13919W        W73015  25.981  19.703  14.013
13920W        W73016  33.023   0.373  14.466
13921W        W73017  29.922   4.245  13.050
13922W        W73018   9.299  31.614  11.552
13923W        W73019  28.989  11.670  11.981
13924W        W73020  11.286  41.442  11.971
13925W        W73021  28.031  36.513   0.773
13926W        W73022  16.295   3.948  10.640
13927W        W73023  39.886   4.724  12.875
13928W        W73024  34.963  27.139  12.074
13929W        W73025  30.435  18.102  14.014
13930W        W73026  42.949  14.818   2.666
13931W        W73027   1.296  21.230   1.448
13932W        W73028  38.960  32.135   3.327
13933W        W73029  22.132   4.861  11.020
13934W        W73030   7.246  34.891  10.926
13935W        W73031  42.938  34.516   2.210
13936W        W73032  33.125  11.698   0.389
13937W        W73033  36.049  23.540   0.930
13938W        W73034  23.617  27.980  11.493
13939W        W73035  19.705  15.766   1.743
13940W        W73036  22.602  11.301  13.024
13941W        W73037  11.188  42.965  11.499
13942W        W73038  23.050  37.556  14.466
13943W        W73039  43.914  17.634   1.410
13944W        W73040  17.193  17.602  14.831
13945W        W73041  42.471   8.701  13.479
13946W        W73042  34.543  38.974  11.438
13947W        W73043   7.873  29.612   2.899
13948W        W73044  12.790  27.619   4.733
13949W        W73045  35.547  41.296  11.374
13950W        W73046  14.149   0.269  12.011
13951W        W73047   8.371  26.577  12.097
13952W        W73048  21.532  40.934  11.026
13953W        W73049   3.217   6.752   1.339
13954W        W73050  14.141   9.711  11.580
13955W        W73051  43.286  15.813   3.795
13956W        W73052  20.252  12.177  13.362
13957W        W73053  10.340  37.384   4.277
13958W        W73054  15.647  14.227   0.774
13959W        W73055  20.593  29.030   2.666
13960W        W73056   7.752   6.308  11.979
13961W        W73057  14.186  20.098  13.921
13962W        W73058  35.430   3.278  14.981
13963W        W73059   0.870   2.918   4.764
13964W        W73060  31.497  27.019   2.258
13965W        W73061  41.000  18.550  13.397
13966W        W73062  32.098  30.585   1.910
13967W        W73063   8.751  34.373   1.923
13968W        W73064  42.898   2.432  14.506
13969W        W73065  11.215   6.421   1.917
13970W        W73066  38.898   6.276  14.909
13971W        W73067  31.899   9.235   1.410
13972W        W73068  10.846   5.217  11.442
13973W        W73069  29.497  20.115  13.835
13974W        W73070  34.066  15.291   1.371
13975W        W73071  28.180  18.626   1.748
13976W        W73072  11.324  21.659   0.893
13977W        W73073  21.661  37.369  11.580
13978W        W73074  30.518  42.847   0.258
13979W        W73075  33.382  10.155   4.672
13980W        W73076   6.688  44.501   1.717
13981W        W73077  27.450   7.364  13.921
13982W        W73078  21.694  15.731   3.785
13983W        W73079  19.550   4.702  13.308
13984W        W73080   0.846  35.913  14.988
13985W        W73081  12.314  33.495  13.003
13986W        W73082  13.117  30.025   2.788
13987W        W73083  15.225   9.825  13.845
13988W        W73084  39.812  20.134  13.027
13989W        W73085  21.231  42.430  14.900
13990W        W73086  42.804  39.058  10.996
13991W        W73087  11.802  12.716  10.411
13992W        W73088  21.738  37.855   4.720
13993W        W73089  17.229  10.728   5.263
13994W        W73090  23.679  35.032  11.589
13995W        W73091  35.590  42.291   3.712
13996W        W73092  32.594  38.992  11.523
13997W        W73093  40.880  26.614   0.812
13998W        W73094  17.173  29.021  10.436
13999W        W73095  30.089  36.479   4.183
14000W        W73096  33.620  40.434  13.509
14001W        W73097   3.249   0.754  10.483
14002W        W73098  10.157  41.408  14.939
14003W        W73099  22.098  21.514  13.323
14004W        W73100  21.731  19.276   5.152
14005W        W73101  29.955  20.602   4.829
14006W        W73102  23.492   0.249   2.401
14007W        W73103  15.111   2.236  12.922
14008W        W73104  21.032  34.957   4.222
14009W        W73105  36.390  27.979  13.371
14010W        W73106  32.392  12.783   0.267
14011W        W73107  28.552  27.039  12.436
14012W        W73108  43.429  19.057  13.413
14013W        W73109  32.556  28.127   3.270
14014W        W73110  21.676  42.383   0.874
14015W        W73111  27.086  21.261  14.328
14016W        W73112  40.944  35.481  12.427
14017W        W73113  24.559  36.906   0.406
14018W        W73114  28.661   0.975   3.187
14019W        W73115  25.132  43.384   1.431
14020W        W73116  26.572  24.615   4.799
14021W        W73117  28.934   7.677   1.354
14022W        W73118  40.830  41.844   3.156
14023W        W73119  36.477  25.534  13.802
14024W        W73120  14.656  31.596  14.828
14025W        W73121  31.495  33.494  14.000
14026W        W73122  37.954   0.904  13.321
14027W        W73123  34.536  32.926  14.941
14028W        W73124  41.787   9.278  13.062
14029W        W73125   8.783  35.407   0.959
14030W        W73126  21.040  44.861  14.001
14031W        W73127  24.521  22.014   3.173
14032W        W73128  43.406  40.415  14.881
14033W        W73129  36.006   6.868   2.185
14034W        W73130  26.006  17.208   3.848
14035W        W73131  42.894  31.987   0.778
14036W        W73132  16.761  42.464   2.805
14037W        W73133  34.907  24.607  11.958
14038W        W73134   7.720  21.611  14.400
14039W        W73135   9.216  18.673  11.388
14040W        W73136  22.651  42.012   1.388
14041W        W73137  42.333  40.392  11.057
14042W        W73138   3.363  18.781   3.866
14043W        W73139  10.140  42.018  11.005
14044W        W73140  25.508  37.959   3.275
14045W        W73141  12.683  34.389  13.867
14046W        W73142  37.930  31.085  11.112
14047W        W73143   6.793  28.011  12.373
14048W        W73144  26.115  36.970   2.209
14049W        W73145  13.665  11.316   2.804
14050W        W73146  27.675   8.737   3.338
14051W        W73147  34.588  15.311  12.075
14052W        W73148  12.287   9.179   2.303
14053W        W73149  37.934  37.039  14.008
14054W        W73150  41.995  26.493  12.564
14055W        W73151  19.271  38.855   2.196
14056W        W73152  29.102  37.864   0.818
14057W        W73153  35.022  15.624  14.871
14058W        W73154  13.719  32.101  10.558
14059W        W73155  19.729  31.934   2.881
14060W        W73156  22.517  17.633   0.917
14061W        W73157  20.262   6.877   4.214
14062W        W73158  26.637  24.069  11.956
14063W        W73159   4.912  21.668  12.919
14064W        W73160   8.708  19.695   1.726
14065W        W73161  21.720  23.609   0.822
14066W        W73162  35.016  38.848  11.397
14067W        W73163  28.541  24.667  11.913
14068W        W73164  36.962   2.913   0.306
14069W        W73165  11.823  11.301  12.026
14070W        W73166  31.949   9.342  12.970
14071W        W73167  18.668  29.605   0.349
14072W        W73168  20.055  19.632  12.006
14073W        W73169  19.124  31.593  13.475
14074W        W73170  15.288  37.068  11.502
14075W        W73171  38.376  38.964   4.747
14076W        W73172  39.889  43.298   4.701
14077W        W73173  39.387  17.287   4.119
14078W        W73174  14.608  29.086  10.103
14079W        W73175  26.204  24.200   2.831
14080W        W73176  26.071   2.951   4.712
14081W        W73177  28.623  28.657  11.499
14082W        W73178  36.491  44.472  13.022
14083W        W73179  42.496   0.317  11.859
14084W        W73180  27.019  15.813   1.408
14085W        W73181   8.263  42.327   2.791
14086W        W73182  14.712   8.833   1.315
14087W        W73183  30.054  33.085   3.262
14088W        W73184  44.934   8.213   1.295
14089W        W73185   3.737  43.926  14.017
14090W        W73186   5.766  16.662  13.995
14091W        W73187   7.331  20.655   3.709
14092W        W73188  39.377  36.936  14.989
14093W        W73189  29.580  32.551   1.935
14094W        W73190  40.997  23.076  10.558
14095W        W73191  36.060  17.600   4.792
14096W        W73192  18.667  31.536  13.044
14097W        W73193  26.551  14.721  14.891
14098W        W73194   6.745  34.983  13.982
14099W        W73195  28.617  42.983  11.001
14100W        W73196  25.574   2.738  14.819
14101W        W73197   1.768   1.826  12.936
14102W        W73198  43.423  19.533  13.327
14103W        W73199   6.342   4.313   2.746
14104W        W73200   4.419  19.755  14.882
14105W        W73201  34.490  33.579   2.797
14106W        W73202   5.204  34.583  12.013
14107W        W73203  18.713  36.455  12.997
14108W        W73204  34.977  28.639  11.877
14109W        W73205  14.808  23.047  12.409
14110W        W73206  10.869   1.270  13.403
14111W        W73207  33.578  11.701  12.863
14112W        W73208  42.443  28.997   2.900
14113W        W73209  33.922  44.437  13.840
14114W        W73210  39.544  27.471  10.456
14115W        W73211  22.639   3.407  13.040
14116W        W73212  15.806  16.750  14.366
14117W        W73213  32.527  12.821   0.948
14118W        W73214   6.316  42.363  11.097
14119W        W73215  39.858  36.036   2.884
14120W        W73216  36.938   5.393  10.589
14121W        W73217  13.808  41.425   2.323
14122W        W73218  18.196   3.427  13.021
14123W        W73219  20.049  28.571   4.726
14124W        W73220  11.183  41.397   0.872
14125W        W73221  18.061  20.251   2.356
14126W        W73222  19.556  30.427  13.380
14127W        W73223  40.975  41.036   2.675
14128W        W73224  36.078  12.184   2.705
14129W        W73225  24.037  24.116  11.577
14130W        W73226  13.662  36.981   1.782
14131W        W73227  18.243  35.925   2.345
14132W        W73228  43.474  19.665  11.856
14133W        W73229  44.419  37.037   2.216
14134W        W73230  13.623  14.207  13.457
14135W        W73231   8.218   2.730  12.095
14136W        W73232   8.669  33.497   1.713
14137W        W73233  32.956  37.502   1.735
14138W        W73234  14.711  16.721  12.876
14139W        W73235  42.406  15.732   1.301
14140W        W73236  29.115  24.004   1.450
14141W        W73237  15.277  37.891  11.440
14142W        W73238   0.256  23.543   2.228
14143W        W73239  27.968  30.641   5.100
14144W        W73240  39.831  16.214   1.267
14145W        W73241  17.183  10.680   0.894
14146W        W73242  22.099  42.510  11.527
14147W        W73243   9.771  17.221  12.823
14148W        W73244  29.965  21.550  14.402
14149W        W73245  30.506  16.720  11.489
14150W        W73246  30.077  37.059   0.777
14151W        W73247   1.887  24.206  11.519
14152W        W73248   7.413  12.144   1.720
14153W        W73249  44.462  40.851  11.468
14154W        W73250  14.650  33.988   3.810
14155W        W73251  22.232  31.428   2.687
14156W        W73252  27.528  22.726  14.306
14157W        W73253  25.164   8.829  14.344
14158W        W73254  24.576  43.450  10.488
14159W        W73255   8.816  14.305  10.504
14160W        W73256  30.026  20.091   3.231
14161W        W73257  15.680  29.115   4.644
14162W        W73258  40.839   8.404   3.741
14163W        W73259  13.754  35.981   1.797
14164W        W73260  34.900  24.209   0.371
14165W        W73261  40.498  30.544  13.858
14166W        W73262  23.158  11.868  14.427
14167W        W73263  28.019  20.258   3.240
14168W        W73264   6.389  11.733  10.057
14169W        W73265   8.679  18.715  14.394
14170W        W73266  14.335  18.140   3.232
14171W        W73267  33.405  34.438  11.372
14172W        W73268  41.336  17.591   3.653
14173W        W73269  21.672   4.300   4.694
14174W        W73270  43.308  37.868  11.544
14175W        W73271  26.148  36.477  14.304
14176W        W73272  21.597  11.657  12.430
14177W        W73273  32.627  39.411  13.917
14178W        W73274  28.999  11.638  12.437
14179W        W73275  42.891  27.072   1.337
14180W        W73276   0.821  14.204   0.961
14181W        W73277  34.961  29.045  10.072
14182W        W73278  42.456   8.787   3.867
14183W        W73279  38.468  14.720   3.698
14184W        W73280  18.180   2.338   1.211
14185W        W73281  21.665   8.352   5.731
14186W        W73282  31.007   2.836   4.219
14187W        W73283  18.649  30.566   5.091
14188W        W73284   8.255  36.057   1.284
14189W        W73285  42.917  33.017   4.132
14190W        W73286  43.278  31.084   1.437
14191W        W73287  10.699  14.181   2.294
14192W        W73288  17.250  30.944   4.144
14193W        W73289  24.641  26.164  12.893
14194W        W73290  34.393  25.635  13.044
14195W        W73291   1.818  23.204  14.338
14196W        W73292  22.046   8.236   0.255
14197W        W73293  28.937   0.895   2.855
14198W        W73294  41.369  26.190  14.440
14199W        W73295   0.309  18.226  13.542
14200W        W73296  18.129  21.217  13.920
14201W        W73297  18.578  28.524   3.830
14202W        W73298   0.400   4.238  10.639
14203W        W73299  23.142  10.786  13.823
14204W        W73300  29.043  13.726  10.950
14205W        W73301  28.165  28.160   1.879
14206W        W73302   6.186  35.472  12.890
14207W        W73303   8.863  30.515   1.774
14208W        W73304  15.594  21.240   2.359
14209W        W73305  21.226  18.642   0.272
14210W        W73306   6.281   6.808   2.346
14211W        W73307   9.206  13.774   0.306
14212W        W73308   8.249  42.347  10.919
14213W        W73309  23.239  32.567  10.485
14214W        W73310  25.559  20.256   9.562
14215W        W73311   0.752  22.568   4.213
14216W        W73312  19.051  19.706   0.283
14217W        W73313  36.938  16.776  11.978
14218W        W73314  43.395  18.742  14.436
14219W        W73315  13.667  34.120   3.805
14220W        W73316  39.966  34.457   2.688
14221W        W73317  32.941  33.454   4.787
14222W        W73318  27.656  39.499   3.314
14223W        W73319  28.462  18.750   1.379
14224W        W73320  41.842  23.139   4.267
14225W        W73321  33.095  11.623  10.459
14226W        W73322  20.711  24.017   2.314
14227W        W73323  23.716  35.987  11.508
14228W        W73324  23.162  17.168  12.829
14229W        W73325  29.097  14.733   3.710
14230W        W73326  39.026   5.397  13.887
14231W        W73327   6.755  44.270  13.455
14232W        W73328  43.458  27.968  11.446
14233W        W73329   0.970  41.899  11.588
14234W        W73330   5.786   2.905  14.990
14235W        W73331  26.646   4.728   5.140
14236W        W73332  25.469  12.197   3.725
14237W        W73333  24.479  36.382   0.396
14238W        W73334  27.062   1.471  14.801
14239W        W73335  42.907  28.535   2.207
14240W        W73336  12.161  37.857  13.394
14241W        W73337   5.422   6.864   0.881
14242W        W73338  19.629   1.865  10.526
14243W        W73339  27.183   6.190  11.128
14244W        W73340  17.205   0.310  14.891
14245W        W73341  39.818   1.429  14.424
14246W        W73342  22.069  40.021  12.339
14247W        W73343  36.040  42.823  12.032
14248W        W73344  34.440   4.344  13.494
14249W        W73345  27.967   3.849  12.449
14250W        W73346  30.115   5.918   4.793
14251W        W73347  42.911   0.986  13.419
14252W        W73348   6.187  16.729   4.646
14253W        W73349  22.506  25.701   2.302
14254W        W73350  20.560  32.035   0.367
14255W        W73351  19.663  27.514   1.749
14256W        W73352  11.140  24.210  11.940
14257W        W73353  12.185   7.792   4.746
14258W        W73354  44.452  36.527   1.781
14259W        W73355  27.588   0.355   2.696
14260W        W73356  20.098   7.404  11.566
14261W        W73357   3.842  22.612   4.820
14262W        W73358  43.819   6.366  11.085
14263W        W73359  22.125  19.561  10.957
14264W        W73360  44.405  15.213  11.578
14265W        W73361  43.778  21.546   0.443
14266W        W73362  44.315  35.053   5.149
14267W        W73363  26.611   7.280   4.653
14268W        W73364   1.812   3.255  14.410
14269W        W73365  19.671  42.476   3.640
14270W        W73366   8.312  11.310  11.994
14271W        W73367  40.477  27.013   2.851
14272W        W73368  17.799  32.598   2.805
14273W        W73369  44.779  25.096  12.466
14274W        W73370  39.860  43.859  13.061
14275W        W73371  18.674  10.204  14.943
14276W        W73372  23.222  20.563   4.279
14277W        W73373  14.272   3.325   5.145
14278W        W73374  20.255  21.029  14.883
14279W        W73375  22.610  35.439   1.434
14280W        W73376  23.174  25.111  13.355
14281W        W73377  17.292   8.893   5.141
14282W        W73378  43.403  13.351   2.778
14283W        W73379  44.338  24.590   2.342
14284W        W73380  10.688  27.545   3.207
14285W        W73381  15.792  18.654  14.786
14286W        W73382  44.344  15.262   3.829
14287W        W73383  15.700   5.718  12.077
14288W        W73384  26.085  33.453  14.951
14289W        W73385  43.430  38.443   2.254
14290W        W73386   9.259  30.609  13.042
14291W        W73387  40.384   4.857  12.944
14292W        W73388  16.130  17.207  13.361
14293W        W73389  20.054   3.941  13.433
14294W        W73390   9.172  22.517   0.939
14295W        W73391   1.930  32.453  12.046
14296W        W73392   7.852   1.381   2.753
14297W        W73393  44.474   6.813   2.258
14298W        W73394  11.307   7.885  13.847
14299W        W73395  11.857   3.905   4.759
14300W        W73396   3.428  14.300   5.222
14301W        W73397  12.699  24.622   0.340
14302W        W73398  36.515  38.821  14.978
14303W        W73399  31.131  43.785  14.781
14304W        W73400  44.386  40.307  13.529
14305W        W73401  38.567  25.605  10.484
14306W        W73402   8.258  26.595   3.808
14307W        W73403  31.018  16.253   2.406
14308W        W73404  22.043  36.006  12.561
14309W        W73405  33.954   1.932   1.824
14310W        W73406   1.482   2.851   2.667
14311W        W73407  37.548  25.215  11.117
14312W        W73408   6.811   9.856   2.417
14313W        W73409   2.379  13.344  12.571
14314W        W73410  38.935  18.068  14.423
14315W        W73411  36.463  32.394  14.481
14316W        W73412  35.364  27.648   2.214
14317W        W73413  24.709  11.812   2.901
14318W        W73414   2.761  36.586  13.930
14319W        W73415  20.035  28.056  10.524
14320W        W73416  15.158   7.753   1.853
14321W        W73417  11.786  26.462   1.317
14322W        W73418  39.830  31.551   2.316
14323W        W73419  17.608  41.465   2.185
14324W        W73420  19.257  42.801  11.066
14325W        W73421  29.493   8.318   0.788
14326W        W73422  23.557  31.595  12.396
14327W        W73423   8.377   6.271  12.955
14328W        W73424  34.520   8.793   2.764
14329W        W73425  35.416  19.281   3.354
14330W        W73426  36.567  31.572   2.410
14331W        W73427  32.462   3.269   2.689
14332W        W73428  20.526   7.882  13.992
14333W        W73429  17.619  41.414  13.821
14334W        W73430  11.740  28.087   3.375
14335W        W73431  41.882  40.357  13.378
14336W        W73432  16.290   4.793  12.573
14337W        W73433  31.016  42.511   0.904
14338W        W73434  12.794   9.798   2.220
14339W        W73435  32.562   6.206   0.405
14340W        W73436  41.979  22.040   4.616
14341W        W73437  17.150  26.173   1.387
14342W        W73438  34.120   0.906  10.505
14343W        W73439  25.501   7.699  11.944
14344W        W73440  30.144  23.163  13.410
14345W        W73441   9.156  42.784   2.341
14346W        W73442  15.154   6.731   4.330
14347W        W73443  38.464   0.899  13.363
14348W        W73444  34.898  44.754  14.957
14349W        W73445   6.354  22.546  12.988
14350W        W73446  30.993  31.905  14.433
14351W        W73447  19.208  18.082  10.982
14352W        W73448  18.670  14.653  14.000
14353W        W73449  40.017  13.341   0.453
14354W        W73450  13.269  25.002   3.161
14355W        W73451  13.207  39.397  12.946
14356W        W73452  28.014  29.611   4.611
14357W        W73453   2.316   1.867  10.609
14358W        W73454   5.738  38.398   3.325
14359W        W73455  30.133  23.105  12.837
14360W        W73456  36.882  42.440  12.001
14361W        W73457  31.088  10.713   4.294
14362W        W73458  10.149   8.163   1.918
14363W        W73459  17.748  14.708   1.734
14364W        W73460   4.296  17.700   2.248
14365W        W73461  34.016  29.940   1.710
14366W        W73462  15.312  12.728  13.906
14367W        W73463  25.159   2.911   4.705
14368W        W73464  34.096  16.659  11.035
14369W        W73465  29.441  23.642   1.395
14370W        W73466  16.301  11.203  12.515
14371W        W73467   5.241  31.644   2.876
14372W        W73468  28.617  22.083  13.008
14373W        W73469  37.493  26.985   3.706
14374W        W73470  22.643   8.814   3.206
14375W        W73471  25.469  25.701   4.286
14376W        W73472  27.198  35.012   0.917
14377W        W73473  19.070  27.016  11.502
14378W        W73474  40.950  20.713  12.470
14379W        W73475  29.128  10.712  11.980
14380W        W73476  16.178  14.313  11.597
14381W        W73477  32.522   1.256  14.414
14382W        W73478  25.043  17.139   4.237
14383W        W73479   1.912  26.184  12.054
14384W        W73480  27.517   9.160  11.585
14385W        W73481  35.538  21.048  13.006
14386W        W73482  19.193  32.895  14.484
14387W        W73483   7.198  35.586   2.382
14388W        W73484  14.226  27.150   4.136
14389W        W73485   8.806  14.177   1.837
14390W        W73486   5.394  23.631   0.853
14391W        W73487  16.750   1.353  13.033
14392W        W73488   1.858  16.727  13.503
14393W        W73489   0.493   7.843   3.757
14394W        W73490  22.056  23.131   4.314
14395W        W73491  17.098  17.594  10.965
14396W        W73492  24.144  19.712  14.401
14397W        W73493  41.406  15.645   2.348
14398W        W73494   9.188  31.523  14.891
14399W        W73495  17.724  15.167   1.379
14400W        W73496  30.492  32.406   0.405
14401W        W73497  13.678  28.470  14.006
14402W        W73498  19.756  20.215  11.498
14403W        W73499  26.660  19.711   0.865
14404W        W73500  15.257   7.290   2.825
14405W        W73501  26.671  21.081   2.716
14406W        W73502  11.686  30.508  13.027
14407W        W73503   9.784  23.092  11.115
14408W        W73504   1.374  12.757   4.290
14409W        W73505  10.746  18.739   0.930
14410W        W73506  26.038   6.912  10.957
14411W        W73507  23.151  11.635  11.470
14412W        W73508   5.687  36.096   2.349
14413W        W73509  20.576   8.769   5.275
14414W        W73510  32.553   3.717   3.315
14415W        W73511   3.251   8.238   3.346
14416W        W73512  24.694   7.382  12.536
14417W        W73513  20.569  16.101  11.517
14418W        W73514   4.709   6.772   0.265
14419W        W73515   7.896   4.900   2.321
14420W        W73516   2.306  30.420   4.116
14421W        W73517  35.063   8.893  13.338
14422W        W73518  10.156  15.232  13.503
14423W        W73519  11.370  20.683   5.210
14424W        W73520  12.274  44.821  12.349
14425W        W73521  32.509  22.184  10.591
14426W        W73522   8.678  20.602   3.683
14427W        W73523   7.417  13.220  13.927
14428W        W73524  24.499  41.833   0.248
14429W        W73525  16.091  15.639   0.782
14430W        W73526  24.144  33.926  12.420
14431W        W73527  24.096  25.512  14.899
14432W        W73528  13.788  21.551  11.908
14433W        W73529  14.764  12.232  10.577
14434W        W73530   6.915  17.797   4.321
14435W        W73531  21.541  43.808  14.901
14436W        W73532   2.368  33.585  14.967
14437W        W73533  16.665  38.349  11.907
14438W        W73534  20.103  39.830   2.684
14439W        W73535  21.254  42.325  10.430
14440W        W73536  17.131  31.595  11.126
14441W        W73537  32.937   7.379   1.805
14442W        W73538  21.686  23.656  14.480
14443W        W73539  39.477  16.238  14.494
14444W        W73540   6.824   0.783  13.893
14445W        W73541  15.225  18.214   4.349
14446W        W73542   6.422   3.764  10.915
14447W        W73543  44.473  42.464  14.319
14448W        W73544  12.700  27.503   0.435
14449W        W73545  20.636   7.278   0.891
14450W        W73546  23.072  28.509   0.842
14451W        W73547  27.606  20.653   2.362
14452W        W73548  44.328   9.645   0.834
14453W        W73549   5.687   1.330  14.281
14454W        W73550  14.269  34.420   4.622
14455W        W73551  17.599  35.921   1.344
14456W        W73552  27.031  37.855   0.818
14457W        W73553  18.694  41.015  13.030
14458W        W73554  15.325   3.218  12.425
14459W        W73555  16.100  17.671   4.648
14460W        W73556   2.833  11.675   4.814
14461W        W73557  19.561  37.967   1.387
14462W        W73558  30.051  21.643  11.463
14463W        W73559  19.107   5.762   3.858
14464W        W73560  32.459  10.254  12.523
14465W        W73561   7.404  29.100   4.836
14466W        W73562  14.222  41.438  10.971
14467W        W73563  21.531  43.769   0.853
14468W        W73564  40.824  29.508   3.795
14469W        W73565  11.734  14.640   1.722
14470W        W73566  42.462  36.902   3.730
14471W        W73567  18.726  31.907  11.869
14472W        W73568  39.921  38.553  12.402
14473W        W73569   2.900  30.630  12.026
14474W        W73570  15.113  11.745   0.916
14475W        W73571  34.943  37.832   2.202
14476W        W73572   1.237  31.645  10.474
14477W        W73573  37.968  26.677   1.838
14478W        W73574  18.657  38.947  12.566
14479W        W73575  21.643  24.132   2.814
14480W        W73576  25.213  11.215   0.857
14481W        W73577  34.523  36.908   2.762
14482W        W73578  24.038  21.054  12.864
14483W        W73579  42.033   3.775  11.601
14484W        W73580   8.367  13.751   4.149
14485W        W73581  25.028  25.654   1.926
14486W        W73582   1.404  30.076   0.412
14487W        W73583  26.020   3.864   1.432
14488W        W73584  16.194  36.537   2.220
14489W        W73585  38.887  38.427   1.801
14490W        W73586  20.571  36.566   3.357
14491W        W73587  16.680  26.575  12.517
14492W        W73588  29.047  20.728  10.041
14493W        W73589  31.515  19.548  10.142
14494W        W73590   4.282  42.432   1.300
14495W        W73591   7.883  25.070  11.384
14496W        W73592   6.201   5.310  11.970
14497W        W73593  21.115   4.719   4.806
14498W        W73594  23.547  37.987  14.386
14499W        W73595  42.873  29.467   4.601
14500W        W73596  17.201  37.341   3.191
14501W        W73597   1.317   5.765  10.592
14502W        W73598  23.490  43.992   1.326
14503W        W73599  42.371  43.477   3.691
14504W        W73600   1.458  27.944   3.195
14505W        W73601   9.186  19.182   4.754
14506W        W73602  30.016  40.022   3.632
14507W        W73603  44.857  17.301   0.763
14508W        W73604  11.298  33.419   2.222
14509W        W73605  36.912  37.877   1.846
14510W        W73606  14.141   2.233  14.985
14511W        W73607  29.540  15.735  14.762
14512W        W73608  17.186  39.929   2.229
14513W        W73609  19.260  43.981   2.725
14514W        W73610  22.133   4.446   1.268
14515W        W73611  11.819  31.930  11.001
14516W        W73612  33.076  22.031  12.376
14517W        W73613   9.324  16.159  13.506
14518W        W73614  17.779  20.087   1.343
14519W        W73615   0.847  41.399   4.818
14520W        W73616  26.612   0.459   4.800
14521W        W73617  33.593  34.523  10.405
14522W        W73618  39.405  23.013   4.771
14523W        W73619  22.640   0.462   1.392
14524W        W73620  10.369   5.784  12.023
14525W        W73621  40.997  41.438   1.359
14526W        W73622  33.487  37.499   4.624
14527W        W73623  28.483   6.733   1.262
14528W        W73624  22.649  27.993  13.414
14529W        W73625  12.717   5.758  13.020
14530W        W73626  44.310  33.409   1.706
14531W        W73627  22.724   8.178   4.770
14532W        W73628  20.653   0.424   3.346
14533W        W73629  39.026  41.312  10.422
14534W        W73630  29.034   9.855  12.989
14535W        W73631  16.607  34.488  11.071
14536W        W73632  40.890  25.470   3.706
14537W        W73633   6.271  17.150   2.760
14538W        W73634   3.894  32.121  11.402
14539W        W73635  16.145  20.765   1.404
14540W        W73636  40.023  38.907  14.479
14541W        W73637  34.611  33.616  10.515
14542W        W73638  37.925  42.392   3.247
14543W        W73639  34.425  10.649  10.434
14544W        W73640  41.471  42.294   2.351
14545W        W73641  31.995  43.312   4.745
14546W        W73642  40.830  11.835  10.047
14547W        W73643  37.027  42.483   4.793
14548W        W73644   6.891   7.185   2.685
14549W        W73645  34.506  28.013  12.418
14550W        W73646  18.221  13.135  13.431
14551W        W73647   9.678   1.297   1.799
14552W        W73648  18.226  14.247   4.237
14553W        W73649  15.613  43.970  14.500
14554W        W73650   0.494  44.344   4.663
14555W        W73651  14.242  19.715   5.087
14556W        W73652  13.134  28.962   4.341
14557W        W73653  11.835   4.872   0.734
14558W        W73654   7.758  15.179   0.264
14559W        W73655  40.462  39.985  10.579
14560W        W73656  35.599   8.233   2.306
14561W        W73657  42.330  36.502  11.466
14562W        W73658   6.346  19.712   3.357
14563W        W73659  14.595  36.881   3.383
14564W        W73660  21.206  21.194   2.758
14565W        W73661   2.846  36.063  14.844
14566W        W73662  16.638  20.689  13.485
14567W        W73663  16.637  43.972  10.490
14568W        W73664  40.449  36.554   1.281
14569W        W73665  19.594  19.677   3.739
14570W        W73666  31.478   2.728   0.409
14571W        W73667  31.133  16.599   4.742
14572W        W73668   6.840  23.173   4.608
14573W        W73669  25.584  18.767  10.611
14574W        W73670  34.043   2.927  14.436
14575W        W73671   1.754  42.838   3.828
14576W        W73672  41.867  10.377  11.457
14577W        W73673  14.619  42.467  14.785
14578W        W73674  27.673  19.269  14.465
14579W        W73675   0.961  15.610  10.520
14580W        W73676   5.293  14.119  14.917
14581W        W73677  23.224   1.841  13.972
14582W        W73678   2.886   6.811   1.765
14583W        W73679  37.414  12.730  11.381
14584W        W73680   7.222  43.418  12.572
14585W        W73681  23.073  27.501   2.863
14586W        W73682   7.702  40.425   0.965
14587W        W73683  11.252   5.209   3.831
14588W        W73684   7.246  40.493  11.116
14589W        W73685  15.727  41.968   0.927
14590W        W73686  33.888  17.157   5.640
14591W        W73687  42.821  43.886  10.920
14592W        W73688  14.315  28.977  12.555
14593W        W73689  27.583  12.269  12.064
14594W        W73690   2.848   5.388  14.460
14595W        W73691   2.722  40.801  12.884
14596W        W73692  26.547  12.248   0.317
14597W        W73693  12.789  25.646   4.250
14598W        W73694  36.444  37.571  12.084
14599W        W73695  19.072  44.925   2.248
14600W        W73696  14.141  23.134   2.196
14601W        W73697  34.883   6.419  11.579
14602W        W73698  40.331  29.946   4.138
14603W        W73699   6.837   3.274  12.887
14604W        W73700  39.065   4.848   1.807
14605W        W73701  22.212   0.926   3.170
14606W        W73702   0.291  35.401  12.555
14607W        W73703  15.251  40.532  10.537
14608W        W73704  19.081  43.398  11.465
14609W        W73705   4.349  33.064  12.921
14610W        W73706  17.257  12.732  10.087
14611W        W73707  19.599  15.177  12.431
14612W        W73708   5.767  29.150  12.396
14613W        W73709  34.590  30.132   1.830
14614W        W73710  21.135  41.819   1.701
14615W        W73711  36.945  28.623  13.424
14616W        W73712  20.646  37.040  14.972
14617W        W73713  18.210   2.247   0.799
14618W        W73714  12.258  43.373   4.599
14619W        W73715  31.644  17.605  13.845
14620W        W73716  43.019  36.562   5.235
14621W        W73717  10.337  13.814  13.474
14622W        W73718  44.388   8.714  11.601
14623W        W73719  11.664  42.007  11.900
14624W        W73720  37.576  38.561   1.355
14625W        W73721  33.014  28.029  14.365
14626W        W73722  13.606   2.767  14.380
14627W        W73723  21.210   0.416   1.721
14628W        W73724  35.591  23.587  12.009
14629W        W73725  17.784   4.716   0.330
14630W        W73726   6.237  15.774  10.100
14631W        W73727  41.367  24.495   2.797
14632W        W73728  11.149   8.883   1.738
14633W        W73729   1.889  40.947   0.275
14634W        W73730  16.165  39.360   4.337
14635W        W73731   1.380  32.015  14.511
14636W        W73732  26.690  29.131  14.978
14637W        W73733  43.398  22.509  12.440
14638W        W73734  10.370   6.389   3.256
14639W        W73735  26.510   8.844   3.304
14640W        W73736  11.793  44.887  13.808
14641W        W73737  43.326  37.448   0.267
14642W        W73738   9.835  43.317   0.404
14643W        W73739  17.249   2.857  10.600
14644W        W73740  36.843  19.606   3.176
14645W        W73741  37.924   2.902  12.516
14646W        W73742  23.509  37.054   4.805
14647W        W73743  31.969  40.015  13.966
14648W        W73744   0.419  19.128   0.829
14649W        W73745  10.777  41.978  11.080
14650W        W73746  43.932  19.122   4.742
14651W        W73747  11.860   5.723  13.941
14652W        W73748  34.481  21.678  14.427
14653W        W73749  42.306  24.593   3.865
14654W        W73750   8.837  12.810   3.744
14655W        W73751  12.272  15.146   2.744
14656W        W73752  37.574   2.747  12.058
14657W        W73753  42.520  42.450  12.531
14658W        W73754  31.042  40.380  10.575
14659W        W73755  24.565  41.846   4.730
14660W        W73756  39.834  13.313   4.298
14661W        W73757  32.949  36.902  14.765
14662W        W73758  19.700  23.199   1.895
14663W        W73759  39.992  15.702   2.715
14664W        W73760  41.925  20.251  14.020
14665W        W73761   7.287  22.671  13.343
14666W        W73762  14.656  21.619  11.887
14667W        W73763   1.810  36.942  11.994
14668W        W73764   0.957  32.995   2.193
14669W        W73765   6.894  23.728   5.294
14670W        W73766   1.967  43.353   4.769
14671W        W73767  44.484  34.951   4.127
14672W        W73768   0.864   7.315  10.532
14673W        W73769   2.924  24.974   1.268
14674W        W73770  35.361  15.675   2.249
14675W        W73771  31.099  43.316  12.562
14676W        W73772  33.046  18.736  12.866
14677W        W73773  33.514  35.967   5.214
14678W        W73774  11.703  38.493   2.669
14679W        W73775  42.011   8.328   0.873
14680W        W73776   9.369  31.107  10.505
14681W        W73777  32.966  38.416   3.717
14682W        W73778  29.967  31.575   0.773
14683W        W73779   9.244   1.945   3.748
14684W        W73780  41.420  18.235  13.836
14685W        W73781  16.079  35.998   1.418
14686W        W73782  13.619  43.402  13.471
14687W        W73783   4.377  18.587   4.764
14688W        W73784  27.638   5.263  11.529
14689W        W73785  44.970  33.439   0.903
14690W        W73786   0.355  21.516  12.474
14691W        W73787  40.429   9.725  10.544
14692W        W73788  10.288  16.740   5.261
14693W        W73789  30.908  40.348  13.010
14694W        W73790   9.664  34.083   4.289
14695W        W73791  21.576  13.638   0.933
14696W        W73792  16.217  28.656  13.887
14697W        W73793  37.879  17.771  11.520
14698W        W73794  29.550  26.189   1.758
14699W        W73795  38.557  25.562   0.843
14700W        W73796  24.112  33.557  11.957
14701W        W73797  39.409  30.486   4.659
14702W        W73798   1.373   5.749   0.913
14703W        W73799  15.701  35.077   4.249
14704W        W73800  28.050  14.142  12.477
14705W        W73801   2.425  38.957   1.742
14706W        W73802   2.343  39.505   1.789
14707W        W73803  15.705  20.699  14.312
14708W        W73804  35.018  18.257   1.406
14709W        W73805  38.944  32.454   3.374
14710W        W73806  39.326  29.972   4.296
14711W        W73807   1.861  13.300  10.925
14712W        W73808   9.387   5.290   3.661
14713W        W73809  37.477  37.408  11.089
14714W        W73810  10.633  34.369  12.557
14715W        W73811  37.343  24.610   2.247
14716W        W73812  19.721  31.112   2.272
14717W        W73813  39.056   6.911  10.061
14718W        W73814  41.469   3.358   0.746
14719W        W73815  25.647  14.792   4.353
14720W        W73816  17.212  30.980   2.239
14721W        W73817  15.683   4.893  12.401
14722W        W73818  27.942  17.801   3.361
14723W        W73819  14.276  14.613  14.764
14724W        W73820  32.012  24.102  12.890
14725W        W73821   4.381  12.262  13.818
14726W        W73822   9.887   0.441   0.886
14727W        W73823   7.862  16.230  12.445
14728W        W73824  18.680  33.096   2.851
14729W        W73825  26.588  33.944  13.056
14730W        W73826  32.428  19.701  14.861
14731W        W73827  33.005   0.258  11.517
14732W        W73828  39.487  27.556  12.995
14733W        W73829  28.032   1.919  10.554
14734W        W73830  30.952  24.179  13.314
14735W        W73831  37.994  12.196  13.454
14736W        W73832   4.223  35.878   4.347
14737W        W73833  10.792   9.351  11.961
14738W        W73834  37.066  19.537  13.381
14739W        W73835  14.221  16.197  14.934
14740W        W73836  22.506   8.715  14.423
14741W        W73837  38.857  34.520  12.505
14742W        W73838   1.892  22.044   4.774
14743W        W73839  42.502  43.002  10.467
14744W        W73840   8.365  21.056   0.833
14745W        W73841  24.074  12.151   4.224
14746W        W73842  10.812   4.314  14.290
14747W        W73843  14.328   1.283   2.863
14748W        W73844  15.757  19.663   2.688
14749W        W73845   0.367   2.228   2.355
14750W        W73846  10.299  30.131   2.850
14751W        W73847  30.507  11.665  13.438
14752W        W73848  20.142  39.991   2.374
14753W        W73849  15.781  21.527  12.910
14754W        W73850  25.138  13.255   1.295
14755W        W73851  42.365   8.377   0.369
14756W        W73852  38.869  27.665   1.315
14757W        W73853  24.013  28.509  13.986
14758W        W73854  11.744  36.903   3.277
14759W        W73855  10.754  21.207  14.006
14760W        W73856  26.673  24.520   3.655
14761W        W73857  14.731  10.182  14.018
14762W        W73858  44.505  39.936   3.253
14763W        W73859   0.472  38.508   2.350
14764W        W73860  19.167  36.374  14.018
14765W        W73861  29.514  11.743  12.523
14766W        W73862  42.526  21.531   3.744
14767W        W73863  23.598  19.278  14.338
14768W        W73864  22.547  27.659  11.080
14769W        W73865  15.273  40.947   0.302
14770W        W73866  23.576  13.737   4.811
14771W        W73867  34.526  35.076  11.940
14772W        W73868   5.264  11.855   3.220
14773W        W73869   8.283  37.869  12.388
14774W        W73870  43.892   2.437  13.316
14775W        W73871  43.413  40.815   0.855
14776W        W73872  40.524  32.986   2.810
14777W        W73873  33.473  28.570  14.936
14778W        W73874  35.390  34.499  12.095
14779W        W73875   6.805  33.561  11.909
14780W        W73876  30.113  31.626  13.927
14781W        W73877  38.553  19.745  10.972
14782W        W73878  39.957  44.273  13.391
14783W        W73879  34.908  31.919   3.364
14784W        W73880   4.756  13.208  13.483
14785W        W73881  14.127  15.301  10.612
14786W        W73882  39.440  37.349   1.331
14787W        W73883   7.368  32.905   3.818
14788W        W73884  37.937  44.495   2.771
14789W        W73885   0.812   3.222  12.844
14790W        W73886  28.524  13.170   4.702
14791W        W73887  19.240  18.614  11.107
14792W        W73888  31.990  39.860   0.394
14793W        W73889  18.283  24.556   2.685
14794W        W73890  38.411  39.358   1.725
14795W        W73891  10.834  28.983  13.425
14796W        W73892  16.242  31.954   4.813
14797W        W73893  38.388  41.366  12.045
14798W        W73894  32.043  24.696   0.421
14799W        W73895  26.498  28.571   3.679
14800W        W73896  26.969  37.974  10.451
14801W        W73897  14.818  13.286  10.593
14802W        W73898  29.075   6.415   1.393
14803W        W73899  14.670   0.945  11.058
14804W        W73900  31.937  14.613   2.751
14805W        W73901  37.008   6.350  13.457
14806W        W73902  32.129  32.593  13.489
14807W        W73903  34.541   2.329   1.847
14808W        W73904  10.313  36.446  12.029
14809W        W73905   2.236  18.134   0.944
14810W        W73906  32.999  41.479  13.444
14811W        W73907  43.979  16.669   1.356
14812W        W73908   1.909  27.155   1.711
14813W        W73909  16.754  30.644  14.879
14814W        W73910  40.442  15.711   4.773
14815W        W73911   9.756  13.112  14.767
14816W        W73912  14.145  13.211  14.316
14817W        W73913  19.575  21.661  14.276
14818W        W73914  40.363  11.704  13.526
14819W        W73915   5.852  11.348   3.718
14820W        W73916  27.964  43.313   3.744
14821W        W73917  21.613  15.088   1.771
14822W        W73918  10.276   8.210   3.276
14823W        W73919  22.562   5.203   2.716
14824W        W73920  32.463  17.069   2.815
14825W        W73921  12.175  37.070  11.442
14826W        W73922  18.270  15.804  11.944
14827W        W73923  25.987   5.698  12.444
14828W        W73924  23.620  37.010   3.156
14829W        W73925   9.818   9.649   2.684
14830W        W73926  40.953  14.824   2.316
14831W        W73927  13.664  12.198  10.555
14832W        W73928  35.857  17.089  14.400
14833W        W73929  17.748  38.542   3.790
14834W        W73930  23.626  35.386  13.488
14835W        W73931  13.753  34.979  14.979
14836W        W73932  27.639   5.761  14.025
14837W        W73933  27.507  24.616   2.683
14838W        W73934  17.282  13.129  12.924
14839W        W73935   2.456  37.406  13.360
14840W        W73936  31.606   4.256   1.932
14841W        W73937   1.891  29.565  14.296
14842W        W73938  19.674  26.100   2.713
14843W        W73939  29.652  25.637   1.797
14844W        W73940   5.396  10.797   0.349
14845W        W73941  26.070  11.283  13.454
14846W        W73942   8.194  15.226   2.371
14847W        W73943  43.428  31.515  13.839
14848W        W73944  42.971  37.023   1.764
14849W        W73945  21.063   9.369  13.483
14850W        W73946   2.456  29.077   1.273
14851W        W73947  33.432  28.559   2.866
14852W        W73948  25.589  30.570   1.694
14853W        W73949  22.672  15.699  12.467
14854W        W73950  32.033  12.617   1.805
14855W        W73951  39.926  38.061   0.370
14856W        W73952  38.383  38.977  13.806
14857W        W73953   7.270   9.281   0.752
14858W        W73954  25.695   6.739   3.246
14859W        W73955   8.712  41.917   4.189
14860W        W73956   9.184   0.981   4.299
14861W        W73957  10.140  32.900  10.131
14862W        W73958   2.400  35.531  12.449
14863W        W73959  29.449  42.963   0.938
14864W        W73960   3.243  10.341   3.212
14865W        W73961  13.794  15.640  13.797
14866W        W73962  35.929  27.688   4.689
14867W        W73963   1.969  14.155  14.777
14868W        W73964   0.355   2.232  12.823
14869W        W73965  39.398  28.029  11.987
14870W        W73966   5.780  12.648  14.432
14871W        W73967  27.669  20.070   5.615
14872W        W73968  41.316   2.849  12.396
14873W        W73969   3.924  36.912   1.353
14874W        W73970   6.275  38.478   0.458
14875W        W73971  24.479  12.160  11.930
14876W        W73972  30.445  17.646   3.770
14877W        W73973   6.677  16.752  13.454
14878W        W73974  16.129  18.552  13.998
14879W        W73975  28.479  39.410   3.757
14880W        W73976  12.854  36.072   3.374
14881W        W73977  40.815  10.370   0.304
14882W        W73978  39.953  26.584   1.413
14883W        W73979  20.131  26.605   4.192
14884W        W73980   2.865  34.490   2.851
14885W        W73981   3.895  20.755  11.941
14886W        W73982  32.538  43.301  14.847
14887W        W73983  17.162  27.168  12.944
14888W        W73984  10.785  10.288  13.794
14889W        W73985   6.210   6.774   3.830
14890W        W73986  27.084  30.098   2.697
14891W        W73987  43.021   0.287   3.203
14892W        W73988  22.557   3.773   2.417
14893W        W73989  10.651  42.966   4.682
14894W        W73990  13.824  27.099  13.929
14895W        W73991  41.961  41.982  10.561
14896W        W73992  35.405  35.032   2.307
14897W        W73993  37.003   5.275   2.274
14898W        W73994  14.733  14.637  11.563
14899W        W73995  12.170   5.254   4.778
14900W        W73996   0.813  33.594   0.330
14901W        W73997  38.998  15.712   1.742
14902W        W73998   4.755  31.597   4.730
14903W        W73999  28.142  38.055  10.057
14904W        W74000  40.002  32.886   0.440
14905W        W74001  41.868  43.984   4.193
14906W        W74002  39.900  43.804   3.373
14907W        W74003  27.977  42.444  11.946
14908W        W74004  14.185  37.904   0.463
14909W        W74005  33.557   6.719   0.268
14910W        W74006  40.540  22.684   5.225
14911W        W74007  38.002   9.182   3.268
14912W        W74008   2.730   0.315   3.790
14913W        W74009   5.433  30.156  11.473
14914W        W74010  11.336  34.025   4.337
14915W        W74011  33.110   1.791   3.865
14916W        W74012  38.888   3.377  10.032
14917W        W74013  44.465  29.529   1.867
14918W        W74014  40.917   7.867  12.015
14919W        W74015  10.672  15.182  14.926
14920W        W74016  25.516  14.227  14.023
14921W        W74017  41.908  41.381  10.969
14922W        W74018   8.241  37.991   2.389
14923W        W74019  42.359  10.775   1.212
14924W        W74020  43.000  12.186  14.294
14925W        W74021  18.568   9.708   1.401
14926W        W74022   0.458  20.731  13.394
14927W        W74023  33.608   1.259  10.976
14928W        W74024  11.262   5.930  11.882
14929W        W74025  13.197  44.953  11.992
14930W        W74026  38.952  13.285  11.080
14931W        W74027  31.138   0.970  11.948
14932W        W74028  33.405  24.988  14.841
14933W        W74029   9.676  10.225  11.425
14934W        W74030   0.841  25.674  13.793
14935W        W74031  23.692  43.369  11.909
14936W        W74032  21.543  20.269  10.472
14937W        W74033  17.092  23.706   0.424
14938W        W74034   7.171  20.183  10.609
14939W        W74035  23.669   8.798  10.547
14940W        W74036  29.080  35.395  13.925
14941W        W74037  31.572  14.590   2.730
14942W        W74038  15.188  31.440   2.791
14943W        W74039  13.736  23.696  12.051
14944W        W74040  39.978  35.473  13.837
14945W        W74041  38.387  38.371   0.443
14946W        W74042  17.665  24.663  14.796
14947W        W74043   3.324  14.333  13.061
14948W        W74044   2.250  37.067  12.865
14949W        W74045  13.746   6.883   2.402
14950W        W74046   4.754  29.142   4.633
14951W        W74047  15.150  15.618  14.342
14952W        W74048  27.133  24.671  13.965
14953W        W74049  30.956  44.846  10.920
14954W        W74050  39.560  25.096  14.337
14955W        W74051   5.757  42.343  13.542
14956W        W74052  10.715  23.661  11.530
14957W        W74053   0.977  43.309   4.638
14958W        W74054   0.936  20.715   1.848
14959W        W74055  29.589  42.839  12.352
14960W        W74056  36.858  11.697   0.432
14961W        W74057   0.309  44.943  11.068
14962W        W74058  22.674  30.011  13.893
14963W        W74059   7.299   1.860  11.607
14964W        W74060  12.695   6.374  11.111
14965W        W74061  21.647  27.172   1.852
14966W        W74062  22.502   3.797   1.267
14967W        W74063  35.926   6.216  14.980
14968W        W74064  15.579  17.298   3.210
14969W        W74065  18.654  16.224  10.963
14970W        W74066  30.089  30.502  10.440
14971W        W74067   7.333  42.993  11.506
14972W        W74068  18.559   9.272   3.221
14973W        W74069  34.473  33.880  12.923
14974W        W74070  32.426  21.658   0.922
14975W        W74071   0.268  26.648  13.877
14976W        W74072   2.766  35.405  11.505
14977W        W74073  38.401  29.441  11.587
14978W        W74074  39.520  16.273   4.342
14979W        W74075  27.997  27.522   4.664
14980W        W74076  39.344  33.479  14.807
14981W        W74077  19.120  13.775   0.328
14982W        W74078  23.555  27.483   3.697
14983W        W74079  40.313   6.280  14.821
14984W        W74080  30.994   6.732   0.337
14985W        W74081  31.471  13.312   1.842
14986W        W74082  17.747  44.964  10.410
14987W        W74083  11.302  18.249   3.800
14988W        W74084  14.271  41.921   3.312
14989W        W74085  18.563   5.439   1.862
14990W        W74086  21.532  10.642  13.334
14991W        W74087   6.865   1.340   3.870
14992W        W74088   1.318   7.807   1.335
14993W        W74089  12.799  19.622  11.942
14994W        W74090   2.948  38.510   0.803
14995W        W74091  37.908   5.869  10.890
14996W        W74092   3.891  14.824  13.908
14997W        W74093  28.017  12.255   1.214
14998W        W74094  24.615  29.921   1.861
14999W        W74095  17.123   6.296   0.255
15000W        W74096  30.640  24.581   9.496
15001W        W74097   0.466  24.576  10.485
15002W        W74098   8.332  22.512   3.645
15003W        W74099   2.243   4.341   3.191
15004W        W74100  12.286  36.864   2.848
15005W        W74101  44.304   4.401   1.926
15006W        W74102  37.031  27.114  14.341
15007W        W74103  12.848   5.917  13.915
15008W        W74104  37.046  22.198  12.366
15009W        W74105  13.106  16.789  14.360
15010W        W74106  21.205  14.201   3.642
15011W        W74107  21.569   5.824   2.868
15012W        W74108  27.012   9.861   4.654
15013W        W74109  23.072  35.035   0.855
15014W        W74110  27.538   0.937  12.053
15015W        W74111   5.341  39.503   4.727
15016W        W74112  10.788  41.926   1.932
15017W        W74113   8.894  35.867  10.901
15018W        W74114  35.029   3.790  13.888
15019W        W74115  41.489   6.203   3.349
15020W        W74116   6.680   0.768  11.031
15021W        W74117  24.089  32.435   1.755
15022W        W74118  26.012  31.931   3.645
15023W        W74119  15.128  36.456   0.960
15024W        W74120   5.405  41.375  11.499
15025W        W74121  30.490   9.374  11.953
15026W        W74122  28.010  10.145   3.635
15027W        W74123   7.853  34.470   0.813
15028W        W74124  21.143  35.965   2.419
15029W        W74125   8.351  20.132  14.859
15030W        W74126  10.737  32.914  10.589
15031W        W74127  15.605  42.381   2.232
15032W        W74128  44.294  33.908  11.602
15033W        W74129   4.786  42.844   0.792
15034W        W74130  33.114   3.238   3.770
15035W        W74131   3.764  35.859   5.149
15036W        W74132  43.293  15.703  13.047
15037W        W74133  26.006   4.763  13.327
15038W        W74134  21.082  22.586  14.820
15039W        W74135   2.422   2.906   2.803
15040W        W74136  44.773  23.599  14.321
15041W        W74137  19.231   4.740   4.273
15042W        W74138  43.925  17.793  11.409
15043W        W74139  33.472  42.295   0.786
15044W        W74140   9.237  31.925  13.911
15045W        W74141  21.033  27.121   2.180
15046W        W74142  15.776  41.790   1.798
15047W        W74143   0.275  22.198  11.547
15048W        W74144   4.871  38.491  12.077
15049W        W74145   2.783  36.051  11.011
15050W        W74146  44.360  15.661  14.515
15051W        W74147  14.151  24.635  14.441
15052W        W74148  30.926   7.179   4.325
15053W        W74149   4.819  14.261   3.682
15054W        W74150  32.598  16.687  10.894
15055W        W74151   8.768  42.321   0.289
15056W        W74152  44.995  28.536  14.835
15057W        W74153   8.323  34.422   2.298
15058W        W74154  11.836  20.697   1.214
15059W        W74155  15.164  11.659  11.920
15060W        W74156  22.042  17.741   3.310
15061W        W74157  23.670   7.315  12.983
15062W        W74158  23.675   9.666  13.521
15063W        W74159  10.279   7.693   4.317
15064W        W74160  27.471  13.331  10.465
15065W        W74161  35.565  15.767   5.724
15066W        W74162   4.372   2.463   4.300
15067W        W74163   2.895  12.724   4.757
15068W        W74164  31.622   9.358  10.509
15069W        W74165  36.856  24.622  12.824
15070W        W74166  28.028   4.220  13.496
15071W        W74167  41.009  31.568  12.014
15072W        W74168  43.347  23.492   5.171
15073W        W74169  15.683   8.345   3.356
15074W        W74170  25.100  38.444  11.545
15075W        W74171   2.770  27.055   4.711
15076W        W74172  17.249  24.597   3.254
15077W        W74173   3.451  20.642   3.858
15078W        W74174  14.734  25.579   2.278
15079W        W74175   1.412  33.123   0.422
15080W        W74176  28.107  42.816  13.816
15081W        W74177  13.235  11.807  11.546
15082W        W74178  18.701  33.613   2.185
15083W        W74179   8.690  17.072  14.963
15084W        W74180  24.514  14.160  14.995
15085W        W74181  39.424  11.652  12.448
15086W        W74182  28.118  11.283  12.500
15087W        W74183  39.870  20.681  14.804
15088W        W74184  36.069  18.647   0.865
15089W        W74185  44.963   9.338   0.351
15090W        W74186  25.532  27.632   0.811
15091W        W74187  29.016  10.786  10.907
15092W        W74188   7.362  27.500  10.057
15093W        W74189  33.401  34.574  14.352
15094W        W74190  42.375   5.196  13.351
15095W        W74191  18.098  44.857   1.805
15096W        W74192  12.232  22.562  12.935
15097W        W74193  37.540  16.276   3.790
15098W        W74194  14.314  37.481  10.922
15099W        W74195  24.653  23.569  11.583
15100W        W74196   3.831   8.168  10.608
15101W        W74197   4.419  27.606  11.481
15102W        W74198  35.007   8.683   1.709
15103W        W74199  25.515  19.275  14.021
15104W        W74200  38.402  22.008   2.899
15105W        W74201   7.365  42.309  13.467
15106W        W74202  26.477  41.524  10.546
15107W        W74203  12.794  32.482  13.499
15108W        W74204  28.987  41.863  14.323
15109W        W74205  37.860  18.236   4.781
15110W        W74206  27.461  25.183   4.769
15111W        W74207  14.294  29.920   0.822
15112W        W74208   0.374   7.316   0.858
15113W        W74209  40.429  40.370   0.886
15114W        W74210   5.430  38.061  14.511
15115W        W74211  41.450   9.801   2.257
15116W        W74212  26.475  31.965  10.029
15117W        W74213  26.701   3.444   1.429
15118W        W74214   1.273   5.720   4.182
15119W        W74215  40.901  15.213   2.392
15120W        W74216  23.084  20.202   3.196
15121W        W74217  26.680  36.525  10.952
15122W        W74218  43.880   9.238  13.454
15123W        W74219   9.870  29.161  14.422
15124W        W74220  13.795   5.890   4.291
15125W        W74221  40.515  10.746   4.610
15126W        W74222  43.433  38.560  10.449
15127W        W74223  36.865  23.554   0.831
15128W        W74224  30.464  38.913   4.154
15129W        W74225  12.330  15.262   5.639
15130W        W74226   7.218  20.114   2.309
15131W        W74227  31.007  26.993  13.313
15132W        W74228  27.449  42.869  14.011
15133W        W74229  32.123  28.456  12.580
15134W        W74230  33.128  28.442   0.307
15135W        W74231  40.405  41.435  14.840
15136W        W74232   0.861  19.778  10.492
15137W        W74233  27.558   8.382  14.769
15138W        W74234  30.147  23.169   0.450
15139W        W74235  33.572  35.557  13.039
15140W        W74236  22.590  33.495  14.811
15141W        W74237   0.428  26.673   1.807
15142W        W74238  13.665   8.790  12.519
15143W        W74239   8.165  29.144  14.890
15144W        W74240  19.245  26.014  10.498
15145W        W74241   5.292   4.786   3.255
15146W        W74242   6.701   3.737  10.524
15147W        W74243  44.985  20.767  11.984
15148W        W74244  38.457  40.811   3.813
15149W        W74245  32.432  12.311  10.596
15150W        W74246  11.732   8.178  10.523
15151W        W74247  20.114  20.654   4.139
15152W        W74248   3.787  29.655   1.449
15153W        W74249  10.149   4.401   2.813
15154W        W74250  24.228  11.799   3.737
15155W        W74251   5.915  36.589  10.922
15156W        W74252   2.752  16.164   2.881
15157W        W74253  33.444  20.536  13.892
15158W        W74254  25.488  30.455   4.726
15159W        W74255  14.339   6.791   0.251
15160W        W74256   8.265  25.083   2.667
15161W        W74257  42.917  38.553  14.506
15162W        W74258   4.237  23.714  11.005
15163W        W74259   6.913  34.017  13.922
15164W        W74260  23.626   4.893   1.266
15165W        W74261  10.736  25.500   2.285
15166W        W74262  41.818  36.969  14.324
15167W        W74263  30.572  23.539  13.343
15168W        W74264  44.435  16.093  13.812
15169W        W74265  43.503  41.986  11.935
15170W        W74266  41.400  36.388  11.073
15171W        W74267  15.626  41.520  12.092
15172W        W74268   2.257  17.122   4.288
15173W        W74269  34.579  35.528   4.784
15174W        W74270  13.200  24.607  12.524
15175W        W74271  15.256  29.108   3.725
15176W        W74272  14.170  19.232   2.792
15177W        W74273  32.548   5.357  14.308
15178W        W74274   7.677  44.779  11.435
15179W        W74275   4.803  40.028   4.273
15180W        W74276  19.592   9.806  13.954
15181W        W74277  21.148  39.402   3.635
15182W        W74278   5.336  20.117   0.731
15183W        W74279  24.672  21.034   3.236
15184W        W74280  15.800  37.410  14.000
15185W        W74281  41.801  31.466  13.547
15186W        W74282  11.662  36.065  14.903
15187W        W74283  31.633  27.950   2.182
15188W        W74284   9.255   8.300  14.318
15189W        W74285   8.269   2.389   0.890
15190W        W74286  30.583  32.576   2.878
15191W        W74287  22.683  27.181  14.801
15192W        W74288   9.769  14.763   1.342
15193W        W74289  11.833  37.031   4.353
15194W        W74290  21.047  44.433  12.886
15195W        W74291  42.834  18.602  14.026
15196W        W74292  43.499  37.481   3.301
15197W        W74293  25.044   6.776  11.452
15198W        W74294  33.003  29.576  12.831
15199W        W74295  19.236  29.932   1.447
15200W        W74296  36.442  13.714  10.632
15201W        W74297  32.108   9.228   0.327
15202W        W74298   0.863  39.560  13.508
15203W        W74299  12.678   9.662  12.393
15204W        W74300  35.470  30.016  11.500
15205W        W74301  11.704  41.841   1.325
15206W        W74302   4.292   9.395   3.650
15207W        W74303  14.292  40.819   3.737
15208W        W74304  13.795  25.084  11.434
15209W        W74305   1.422  35.893   2.283
15210W        W74306  36.452  41.516   0.294
15211W        W74307  22.698  39.052   5.300
15212W        W74308  16.106  11.850   4.228
15213W        W74309   1.446  34.068  11.930
15214W        W74310   0.479   6.694   2.682
15215W        W74311  19.590  40.371   1.239
15216W        W74312  24.478  12.717   4.294
15217W        W74313  27.178  12.206   4.713
15218W        W74314  12.119  35.994  12.343
15219W        W74315   5.929   4.350  14.821
15220W        W74316  30.966  15.171   1.826
15221W        W74317  20.683  12.297  13.850
15222W        W74318  36.972  21.163   1.268
15223W        W74319  33.391  18.767  13.006
15224W        W74320  18.239   6.277  14.842
15225W        W74321  32.039  12.742   3.223
15226W        W74322  36.469  41.809  12.448
15227W        W74323  31.591  29.966   3.266
15228W        W74324  38.385  17.690  13.455
15229W        W74325  17.178  35.381   0.847
15230W        W74326  41.009  44.811  14.475
15231W        W74327  21.254  12.786   4.834
15232W        W74328   7.212  28.654  11.491
15233W        W74329  39.056  28.584  12.866
15234W        W74330   9.272  31.610  10.947
15235W        W74331  36.012  43.770  14.967
15236W        W74332  39.908  33.067   1.763
15237W        W74333  35.594  42.917   2.384
15238W        W74334  38.861  42.342  11.857
15239W        W74335  37.411  17.118  11.904
15240W        W74336  26.079   8.864   4.242
15241W        W74337  21.576  22.034   2.665
15242W        W74338  32.422  23.148   9.555
15243W        W74339  43.773   5.352  14.760
15244W        W74340  17.577  24.012  11.918
15245W        W74341  39.465  18.776   1.298
15246W        W74342   4.878  24.687   3.181
15247W        W74343  44.347   3.873  11.418
15248W        W74344  41.444  35.515  13.334
15249W        W74345  37.420  15.299  11.598
15250W        W74346  30.510   5.757   4.602
15251W        W74347  43.784  25.202  11.429
15252W        W74348  14.730  10.138  11.079
15253W        W74349  37.512  19.543   3.193
15254W        W74350  10.845  26.953   3.264
15255W        W74351   3.797  31.103   1.772
15256W        W74352  18.128  20.707   0.351
15257W        W74353  42.295  40.023  12.894
15258W        W74354  40.343  26.532  14.509
15259W        W74355  15.788  33.013  12.088
15260W        W74356  27.640  10.204   1.239
15261W        W74357  27.015  33.453  11.002
15262W        W74358   0.975  37.478  11.905
15263W        W74359  32.059  26.584  12.442
15264W        W74360  14.610  40.872  10.612
15265W        W74361  31.425  37.441   4.254
15266W        W74362  11.706   6.203   2.399
15267W        W74363   7.227  42.966  14.980
15268W        W74364  13.115  33.479   1.253
15269W        W74365  24.045   3.710   4.119
15270W        W74366  27.482  23.123  14.306
15271W        W74367  13.328  16.676  14.819
15272W        W74368  32.069  33.540  14.854
15273W        W74369  24.136  15.613   1.233
15274W        W74370   1.443  17.285  10.577
15275W        W74371   3.434   1.774   2.729
15276W        W74372  38.418  30.120  12.405
15277W        W74373   3.890   6.765   1.367
15278W        W74374  34.435  40.992   4.155
15279W        W74375  19.134  34.597  10.914
15280W        W74376  28.997  33.982  12.031
15281W        W74377   7.851  20.539  11.879
15282W        W74378   4.913  26.487  12.530
15283W        W74379   0.981  15.711  10.070
15284W        W74380  28.970  22.165   9.948
15285W        W74381  29.067  32.099  11.865
15286W        W74382  31.041  34.497  11.422
15287W        W74383   2.962   6.843   4.260
15288W        W74384   1.961  34.904   3.386
15289W        W74385   7.777  31.487   4.303
15290W        W74386  36.985   1.353   2.691
15291W        W74387  37.999  19.206  13.940
15292W        W74388  13.200  24.597   2.368
15293W        W74389  30.985  36.534  12.050
15294W        W74390  11.855  42.780  13.354
15295W        W74391  11.166  41.357  11.017
15296W        W74392   9.807  39.992   2.358
15297W        W74393  44.361   4.940  13.865
15298W        W74394  30.562  40.313   2.808
15299W        W74395  34.876  11.306  12.935
15300W        W74396  16.793   2.825   0.249
15301W        W74397  35.091  35.054   2.210
15302W        W74398  38.347  34.415   0.870
15303W        W74399  39.335  42.781  10.564
15304W        W74400   9.797  16.777   1.439
15305W        W74401  21.075  16.811   1.432
15306W        W74402  15.103  25.684  12.423
15307W        W74403  31.063  38.024  13.045
15308W        W74404  15.311   9.226  12.019
15309W        W74405  29.504  27.186   2.878
15310W        W74406  41.296  34.117  12.880
15311W        W74407   5.205   6.304   2.321
15312W        W74408   4.799  36.032  14.014
15313W        W74409  24.503   1.876   4.776
15314W        W74410   2.466  41.810   2.761
15315W        W74411  44.356  38.923   4.230
15316W        W74412  24.107  38.485  12.515
15317W        W74413   3.780   1.911   1.706
15318W        W74414  33.098  25.524  13.944
15319W        W74415  38.537   9.305   3.207
15320W        W74416  14.793  36.845  12.459
15321W        W74417  24.616   9.271   2.215
15322W        W74418  17.089   2.743  12.843
15323W        W74419  43.941  23.496  12.349
15324W        W74420   8.730   1.851   9.977
15325W        W74421  21.046   1.916  13.817
15326W        W74422   8.340  23.664   2.355
15327W        W74423  37.906  37.339   4.302
15328W        W74424   9.327   4.751  13.444
15329W        W74425  19.189   1.807   1.320
15330W        W74426  33.968   9.197   4.704
15331W        W74427  28.485  12.231   1.830
15332W        W74428  34.409  39.508  12.507
15333W        W74429  37.043  20.734   1.377
15334W        W74430  35.018  33.434  12.437
15335W        W74431  26.663   9.765  10.567
15336W        W74432  12.338  31.412   1.884
15337W        W74433  20.168   7.805  10.894
15338W        W74434  10.858  25.976   2.845
15339W        W74435  24.204  44.482  14.030
15340W        W74436  33.517  12.784   2.725
15341W        W74437   3.256  20.212   4.818
15342W        W74438  17.287  36.467   3.343
15343W        W74439  20.644  28.077  13.431
15344W        W74440  33.111  30.440   1.407
15345W        W74441  12.657  16.714  13.535
15346W        W74442   7.386  14.119   4.216
15347W        W74443  24.690  36.380  13.505
15348W        W74444   1.917  12.174   0.419
15349W        W74445   6.870  41.930  12.921
15350W        W74446   1.840  23.213   4.346
15351W        W74447  11.323  21.587  10.438
15352W        W74448   7.292   7.324  13.857
15353W        W74449  21.668   6.826   0.473
15354W        W74450  42.015   6.853   2.331
15355W        W74451  41.883  37.013  10.919
15356W        W74452  35.871  31.115   0.380
15357W        W74453  26.641  35.040  11.121
15358W        W74454  35.575  31.059  14.440
15359W        W74455  27.176   3.301   5.165
15360W        W74456   9.646  15.796   0.780
15361W        W74457   9.291   2.730  11.858
15362W        W74458   3.262  14.682   0.948
15363W        W74459  35.495  23.078  12.470
15364W        W74460  38.524  15.789   2.883
15365W        W74461  17.243  12.807   2.674
15366W        W74462  10.341  36.040   2.204
15367W        W74463  27.139  44.859   4.268
15368W        W74464  37.477   8.214   5.321
15369W        W74465  42.471  17.096  10.462
15370W        W74466  23.239  33.089   3.300
15371W        W74467  20.158  24.533  11.420
15372W        W74468   2.859  41.909   0.734
15373W        W74469  34.887  43.455  11.382
15374W        W74470  41.364  40.004  10.535
15375W        W74471  24.134  32.433  13.003
15376W        W74472   1.754   3.354  10.537
15377W        W74473  21.693  31.547   4.601
15378W        W74474   5.217  13.696   2.706
15379W        W74475   6.219   8.242  13.890
15380W        W74476   6.761  32.068   0.921
15381W        W74477  15.704  40.399  10.569
15382W        W74478  10.187  25.086  14.978
15383W        W74479   9.235  16.596  14.003
15384W        W74480  25.162  16.715  14.032
15385W        W74481  13.653   9.285  11.120
15386W        W74482  13.341   1.862   3.272
15387W        W74483  10.293  28.929  14.321
15388W        W74484  33.423  30.633  10.613
15389W        W74485   9.311  12.684   2.770
15390W        W74486   1.814  30.150  14.514
15391W        W74487   7.315  29.005  11.040
15392W        W74488  40.392  39.522  10.555
15393W        W74489   8.740  31.912  11.571
15394W        W74490   1.740   7.823   0.743
15395W        W74491  14.167  32.033  14.958
15396W        W74492   5.269  30.440   4.136
15397W        W74493  20.173  16.171  12.546
15398W        W74494  43.459  39.934   4.738
15399W        W74495  39.518   9.847  10.953
15400W        W74496  31.413  27.056   0.331
15401W        W74497  32.504  15.129   2.248
15402W        W74498  34.960  18.061  13.494
15403W        W74499  19.579  35.481   4.678
15404W        W74500   6.206  17.224  11.481
15405W        W74501  41.016   4.394  14.875
15406W        W74502  40.836  11.231  14.819
15407W        W74503  29.548  42.784   3.681
15408W        W74504   1.893  15.107   3.213
15409W        W74505  35.375   0.925   3.166
15410W        W74506   5.724  38.029   2.232
15411W        W74507  11.230  19.260  10.888
15412W        W74508   8.893   6.827   3.720
15413W        W74509  41.481  29.497  13.984
15414W        W74510  40.843  22.092  10.998
15415W        W74511  25.014  18.106   2.359
15416W        W74512   3.243   1.265  14.011
15417W        W74513   7.837  30.651  10.027
15418W        W74514  39.362  41.809  11.565
15419W        W74515   0.756  39.053   2.876
15420W        W74516  15.688  25.175   3.354
15421W        W74517  38.864  35.988   4.644
15422W        W74518  21.665  30.622  14.923
15423W        W74519   6.881   6.286  10.486
15424W        W74520   7.376  24.673   1.337
15425W        W74521  32.989   9.275  11.014
15426W        W74522   9.808  39.996   1.815
15427W        W74523   1.423  20.106  14.787
15428W        W74524  21.227   2.820   0.481
15429W        W74525  25.142   1.417  13.384
15430W        W74526  27.134  36.079   0.841
15431W        W74527  36.034  32.002   1.265
15432W        W74528  14.626  23.564   4.297
15433W        W74529  27.181   6.412   2.351
15434W        W74530  29.511  27.119  14.809
15435W        W74531  12.632  23.167   1.799
15436W        W74532  20.769   3.813   0.893
15437W        W74533  38.923  38.950   2.181
15438W        W74534  10.876   1.410  14.405
15439W        W74535  34.558  36.851   4.766
15440W        W74536  42.010  43.478   2.400
15441W        W74537   0.349  37.953  12.465
15442W        W74538  32.970   5.738   1.908
15443W        W74539  21.591   8.848  14.487
15444W        W74540  11.325  27.689   2.831
15445W        W74541  33.035  38.495  14.865
15446W        W74542  22.577   1.890   2.852
15447W        W74543  25.603  13.689   4.698
15448W        W74544  33.597   7.874  12.463
15449W        W74545   9.150  11.277   0.741
15450W        W74546   8.705  38.875  14.982
15451W        W74547   9.364  26.534  12.853
15452W        W74548  19.725   9.190   3.199
15453W        W74549  44.405  18.217   0.286
15454W        W74550  19.105  31.556  13.969
15455W        W74551  41.469  40.967  13.917
15456W        W74552   6.408  40.518   1.264
15457W        W74553  17.133  39.555  10.946
15458W        W74554  10.343   0.395  13.459
15459W        W74555   9.330   5.374   1.213
15460W        W74556  43.980  31.628   1.343
15461W        W74557  18.076  18.675  11.460
15462W        W74558  33.050   4.232  14.848
15463W        W74559  29.569   0.416  13.803
15464W        W74560  37.858  33.880   2.699
15465W        W74561   8.817  35.920  12.054
15466W        W74562  20.705  29.437  10.487
15467W        W74563  32.040   5.336   0.309
15468W        W74564  16.644   3.241   0.795
15469W        W74565  27.590   3.831   0.887
15470W        W74566  11.665  26.682   3.352
15471W        W74567  15.745  30.428   0.897
15472W        W74568   0.355  21.062   1.428
15473W        W74569  36.561   6.680   1.365
15474W        W74570  36.061  22.042  12.907
15475W        W74571  18.181  32.629  11.963
15476W        W74572  24.698   9.870  13.442
15477W        W74573  21.602  10.733   3.157
15478W        W74574  13.217  41.849   0.243
15479W        W74575  16.164  12.187   4.218
15480W        W74576  42.387  31.562   3.685
15481W        W74577  37.463  24.201  14.334
15482W        W74578  42.966  30.159   3.233
15483W        W74579  44.461  16.595  13.887
15484W        W74580  40.049  28.047  11.891
15485W        W74581  12.691  41.375   4.268
15486W        W74582  32.930  23.673  13.371
15487W        W74583   6.409  18.653   0.369
15488W        W74584  16.109  20.636   2.388
15489W        W74585  32.885  32.089   0.816
15490W        W74586   3.382  24.176   2.879
15491W        W74587  35.462  39.559  14.856
15492W        W74588  27.991  12.350  11.544
15493W        W74589  24.693  16.175  14.799
15494W        W74590  20.522  19.134  11.436
15495W        W74591  39.958  40.881   2.811
15496W        W74592  40.969  41.493   4.327
15497W        W74593  20.533  25.063  11.456
15498W        W74594  25.195  29.150  14.892
15499W        W74595  22.631  25.074   5.265
15500W        W74596  17.070  34.928  11.491
15501W        W74597   4.920  35.935  14.454
15502W        W74598   6.842  29.424  12.973
15503W        W74599   6.324  37.074  12.905
15504W        W74600  27.687   1.965   0.962
15505W        W74601   0.874  29.564  11.973
15506W        W74602  20.593   8.777  11.553
15507W        W74603  29.100  23.190   0.287
15508W        W74604  13.285  24.720  12.056
15509W        W74605  33.405   3.942  11.439
15510W        W74606   3.858  16.739  13.841
15511W        W74607  33.055  22.140   3.304
15512W        W74608  16.151  10.369  11.485
15513W        W74609  21.124   9.733   1.227
15514W        W74610  40.453  36.942   3.228
15515W        W74611  20.177  34.878  13.899
15516W        W74612  36.515  31.117  12.852
15517W        W74613  36.880  21.550  14.358
15518W        W74614  25.986  43.984   3.709
15519W        W74615  38.017  43.944  10.985
15520W        W74616  20.619  38.059  13.956
15521W        W74617  19.686   0.415   4.169
15522W        W74618  17.739   1.852  12.507
15523W        W74619   1.787  23.666   0.475
15524W        W74620  20.178  32.033   4.262
15525W        W74621   3.273  37.510   2.255
15526W        W74622   1.246  28.024  10.438
15527W        W74623  33.460  32.991   4.355
15528W        W74624  22.716   3.323  15.000
15529W        W74625  12.360   3.910  13.872
15530W        W74626  14.313  27.004   0.482
15531W        W74627  20.083  25.172  13.378
15532W        W74628  23.711   2.247  10.561
15533W        W74629  40.518  35.417   3.674
15534W        W74630  29.581  35.900  12.380
15535W        W74631  34.393  24.641  13.501
15536W        W74632  44.775  40.980   3.734
15537W        W74633  20.038  14.161   3.278
15538W        W74634  23.527  17.653   1.732
15539W        W74635  20.578  36.949  13.406
15540W        W74636  35.586   9.852   4.311
15541W        W74637  43.302  15.588  13.450
15542W        W74638   9.234  31.487   1.350
15543W        W74639  21.119  43.399   3.835
15544W        W74640  13.686  12.183   3.340
15545W        W74641   4.840  37.461  11.110
15546W        W74642  39.462  29.159   2.706
15547W        W74643  28.481  15.111   4.817
15548W        W74644   4.749  10.768   4.295
15549W        W74645  25.023  28.023   1.739
15550W        W74646   6.769  38.479   3.255
15551W        W74647  26.603  31.979   1.774
15552W        W74648  21.146  20.659  11.104
15553W        W74649  39.919  27.663   1.718
15554W        W74650  12.243  33.465  12.522
15555W        W74651  44.959  43.508  13.917
15556W        W74652  33.391  19.051   3.772
15557W        W74653  23.229   0.423  13.897
15558W        W74654  16.143   0.414  12.848
15559W        W74655  31.055   5.271   2.809
15560W        W74656  24.166  26.157  11.999
15561W        W74657   9.712  38.364   1.780
15562W        W74658  17.173  10.336  12.553
15563W        W74659  17.607  44.909  11.561
15564W        W74660  35.854  43.375  13.814
15565W        W74661  35.548  10.722   5.742
15566W        W74662  13.781  20.582   1.768
15567W        W74663  43.834   1.877  12.446
15568W        W74664  19.045   5.275   3.818
15569W        W74665  15.264  14.797   2.223
15570W        W74666   7.292  13.297  12.845
15571W        W74667  17.264   1.300  13.425
15572W        W74668  19.719  37.847  13.545
15573W        W74669  43.423  15.132   4.233
15574W        W74670  30.101  14.829   1.414
15575W        W74671  24.533  33.103   2.676
15576W        W74672  31.512   6.752  13.490
15577W        W74673  11.736   2.732  10.529
15578W        W74674  33.969   0.800  12.457
15579W        W74675  39.952  30.500  14.392
15580W        W74676  36.583  15.585  11.997
15581W        W74677  30.944  44.350   1.904
15582W        W74678   2.937  10.293   1.238
15583W        W74679  30.599  41.339   3.799
15584W        W74680  24.127  37.865  10.979
15585W        W74681  21.200  26.476   3.209
15586W        W74682  13.251  30.527   3.662
15587W        W74683  42.025  43.306  11.032
15588W        W74684   4.807  36.058   3.146
15589W        W74685  41.296   5.369   0.872
15590W        W74686  21.628  39.321  12.885
15591W        W74687   4.761  13.295  10.446
15592W        W74688   4.249  15.720   4.702
15593W        W74689  10.193  36.864  10.003
15594W        W74690  36.522  24.600  12.063
15595W        W74691  29.652   6.914   1.769
15596W        W74692  44.403  37.008   2.842
15597W        W74693  23.680  34.961  10.567
15598W        W74694  25.637  21.103   1.389
15599W        W74695  28.571  33.626   1.352
15600W        W74696  23.170  19.201   4.133
15601W        W74697  40.466   5.884  13.335
15602W        W74698   4.847  41.389  13.989
15603W        W74699  25.057  30.515  10.528
15604W        W74700  32.473  43.402  13.395
15605W        W74701   9.365  30.113   3.177
15606W        W74702  16.092  38.859   0.401
15607W        W74703  13.309  27.520  14.374
15608W        W74704   9.800  37.877   3.281
15609W        W74705  37.474  14.252   1.873
15610W        W74706   8.294  42.365  13.353
15611W        W74707   6.411   6.221  13.965
15612W        W74708  27.056  10.271   0.359
15613W        W74709  38.059  15.636  11.534
15614W        W74710   5.811   3.863   1.395
15615W        W74711  26.596   6.828   3.329
15616W        W74712  15.611  16.635   0.921
15617W        W74713  13.189  44.943   2.240
15618W        W74714  27.589  22.653   2.880
15619W        W74715  41.405   7.321  10.543
15620W        W74716  32.994  39.491  13.385
15621W        W74717  18.699   5.426  14.450
15622W        W74718  38.945  26.556  14.835
15623W        W74719  28.953  44.992  12.916
15624W        W74720  38.561   5.223   0.273
15625W        W74721  32.523  28.023  10.508
15626W        W74722   1.389  43.431   0.896
15627W        W74723  22.116   9.685   1.818
15628W        W74724  41.386  31.120   1.267
15629W        W74725   5.406  17.266   4.176
15630W        W74726  26.517  20.080   2.405
15631W        W74727  34.896  19.722  10.004
15632W        W74728   3.853   7.677  14.350
15633W        W74729  27.598   8.237  14.414
15634W        W74730  32.013  30.464   3.806
15635W        W74731   1.831  10.843   1.831
15636W        W74732  36.573  23.717  11.049
15637W        W74733   9.285  11.242  12.345
15638W        W74734  31.089   2.805  13.834
15639W        W74735  42.299  14.263   1.356
15640W        W74736  41.872  36.441   1.292
15641W        W74737   1.323   8.303  14.487
15642W        W74738  23.084  15.111  14.866
15643W        W74739   3.867  15.273   0.394
15644W        W74740  16.619  22.596  11.009
15645W        W74741  38.834   4.894  14.012
15646W        W74742   2.888  23.681  10.440
15647W        W74743  31.434  17.235  13.863
15648W        W74744  44.839  27.190   4.720
15649W        W74745  25.651  35.028  12.989
15650W        W74746  13.713  13.648  12.344
15651W        W74747  41.408   1.820  11.511
15652W        W74748   5.400   2.390  13.902
15653W        W74749  15.630  12.630   3.281
15654W        W74750   5.902  44.300  11.097
15655W        W74751   2.721  40.926  14.335
15656W        W74752  29.024  17.669   3.324
15657W        W74753  39.966  22.019   4.833
15658W        W74754  20.036  18.082  14.868
15659W        W74755   6.765  12.320  10.901
15660W        W74756  27.986   9.373  13.388
15661W        W74757  13.749  17.226   0.831
15662W        W74758  22.105   9.310  12.897
15663W        W74759   3.823  41.853   4.130
15664W        W74760  38.975  37.512   2.335
15665W        W74761  31.146  11.310  11.945
15666W        W74762  24.591   8.706   4.302
15667W        W74763  37.430  14.759   2.696
15668W        W74764   0.353  29.018  13.035
15669W        W74765   0.963  10.658   0.961
15670W        W74766  21.639   3.216  14.789
15671W        W74767   3.749  34.915   2.786
15672W        W74768  40.834  24.013   3.756
15673W        W74769  20.612  16.094  10.561
15674W        W74770   1.299   7.177  10.640
15675W        W74771  16.780   7.768  12.975
15676W        W74772   8.282  42.778  11.856
15677W        W74773  14.831  24.708  13.045
15678W        W74774  20.716  31.402   0.891
15679W        W74775  40.872   8.791  12.082
15680W        W74776  18.234   1.839  11.470
15681W        W74777  30.995  20.163   3.317
15682W        W74778  39.494  17.749   4.832
15683W        W74779  17.262  42.983   5.316
15684W        W74780  22.596  18.545   2.203
15685W        W74781  35.852  27.683   2.818
15686W        W74782   5.301   3.766   4.346
15687W        W74783  15.640  34.571   2.265
15688W        W74784  33.058  12.144   1.779
15689W        W74785  17.625   1.874  12.077
15690W        W74786  44.867  23.991  14.452
15691W        W74787   4.867  42.885  12.413
15692W        W74788  12.780  12.152  11.421
15693W        W74789  40.469  15.638  10.039
15694W        W74790  16.779  24.032   4.818
15695W        W74791  22.706   0.786  12.534
15696W        W74792  20.740   9.186   1.709
15697W        W74793  26.512  30.433   4.634
15698W        W74794  40.864  35.972   3.210
15699W        W74795  17.216  29.131  12.519
15700W        W74796   3.748   2.451  14.916
15701W        W74797  41.415  25.676  13.509
15702W        W74798  18.602  40.315  10.119
15703W        W74799  38.348  29.098  10.522
15704W        W74800  21.525   6.699  12.073
15705W        W74801  35.577  38.392  14.431
15706W        W74802  36.358  43.421  11.436
15707W        W74803  39.328  33.954  14.469
15708W        W74804  17.781   6.234  11.910
15709W        W74805  22.009  23.241   1.912
15710W        W74806  16.609   4.419   0.430
15711W        W74807  14.651  24.662  13.874
15712W        W74808  17.654  40.402  11.976
15713W        W74809  26.990  11.793  13.798
15714W        W74810  39.505   3.825   1.906
15715W        W74811   4.253  26.674  11.110
15716W        W74812   2.284  13.229  14.861
15717W        W74813  25.168  44.381  10.056
15718W        W74814  12.767  30.014  12.361
15719W        W74815  19.096  36.353   1.767
15720W        W74816  30.466  16.255   1.709
15721W        W74817   3.309   2.245   3.854
15722W        W74818  21.671  37.445   3.650
15723W        W74819  44.341  41.954   0.369
15724W        W74820  16.759  28.561   0.848
15725W        W74821  43.996  41.921  14.805
15726W        W74822   3.262   2.461   4.135
15727W        W74823   8.815  11.838  13.951
15728W        W74824  26.585  33.947   5.582
15729W        W74825  25.671  35.602   2.695
15730W        W74826   2.292  35.449   0.942
15731W        W74827  20.125  18.296   0.761
15732W        W74828  18.696  25.139  11.501
15733W        W74829  32.129  39.839   1.294
15734W        W74830  37.839  29.098  13.535
15735W        W74831   7.190  31.999  10.978
15736W        W74832  25.676  15.625  13.930
15737W        W74833  35.554   9.378   2.896
15738W        W74834  44.318  30.546  10.121
15739W        W74835  44.404  25.085   0.945
15740W        W74836  35.556  25.038  10.643
15741W        W74837   8.744  10.662  13.440
15742W        W74838  17.171  44.378   4.139
15743W        W74839  26.533  38.907  13.545
15744W        W74840  26.545  31.947   0.481
15745W        W74841  44.370  30.990   3.280
15746W        W74842  20.188  19.599  12.484
15747W        W74843  40.415  19.593  11.110
15748W        W74844  17.724   4.293  12.830
15749W        W74845  24.693  22.560   2.819
15750W        W74846  44.947  30.066   0.883
15751W        W74847  19.747  42.504  11.394
15752W        W74848  29.587  14.102  10.511
15753W        W74849  34.989  10.876  10.604
15754W        W74850  18.638  35.527   1.795
15755W        W74851  39.955  20.062   1.226
15756W        W74852  11.282  41.416  13.888
15757W        W74853  12.722  10.849  13.965
15758W        W74854  40.510  18.606   2.701
15759W        W74855   0.349   6.299  12.958
15760W        W74856  28.178  36.544  13.053
15761W        W74857  36.422  20.131   2.695
15762W        W74858  30.020  16.174   0.895
15763W        W74859  10.740  13.828   4.696
15764W        W74860  29.540  21.235   5.118
15765W        W74861  20.161   5.386  11.401
15766W        W74862  40.532  24.153  11.599
15767W        W74863  23.608  29.139  12.419
15768W        W74864   7.763  40.510  10.135
15769W        W74865  16.656   8.303   2.772
15770W        W74866   8.307   9.735  12.393
15771W        W74867  32.611  31.029  14.857
15772W        W74868  41.357   7.189  14.875
15773W        W74869  35.444  37.046  14.760
15774W        W74870  40.861  21.738  12.018
15775W        W74871  31.996  41.016   1.826
15776W        W74872  21.724  43.514  11.961
15777W        W74873  29.021  18.158   3.815
15778W        W74874  44.001  33.938  14.780
15779W        W74875  32.013  39.316   4.703
15780W        W74876  44.766  37.943   2.240
15781W        W74877  10.167  26.132  14.979
15782W        W74878  22.204  20.700   2.858
15783W        W74879   6.295  43.908   0.451
15784W        W74880  18.599  30.161  10.449
15785W        W74881  27.135  14.307  11.597
15786W        W74882  19.639  11.262  14.515
15787W        W74883   6.191   0.484   1.791
15788W        W74884  16.803  40.837  13.399
15789W        W74885  35.021   0.949   1.427
15790W        W74886  37.563  44.892   1.698
15791W        W74887  35.383  20.528  12.890
15792W        W74888  41.950   3.810   4.311
15793W        W74889  30.629  12.777   1.719
15794W        W74890  28.149  26.635   2.202
15795W        W74891   6.252  29.978   3.386
15796W        W74892  40.853  25.194  12.455
15797W        W74893  26.171  25.094  12.564
15798W        W74894  30.561  43.917  10.891
15799W        W74895  21.576  31.056  14.909
15800W        W74896  24.033  21.258  13.990
15801W        W74897  36.361  40.041  10.120
15802W        W74898   6.914  11.137   4.326
15803W        W74899  37.853  19.147   2.663
15804W        W74900  22.234   6.194  11.416
15805W        W74901  22.538  35.410   2.804
15806W        W74902  36.004  32.581  11.903
15807W        W74903  33.602  10.795   2.709
15808W        W74904  16.680  23.509  13.345
15809W        W74905  43.276  44.294  11.992
15810W        W74906  24.587   9.719   0.364
15811W        W74907  20.549  22.656  14.003
15812W        W74908  29.484  11.733   1.257
15813W        W74909  34.547   3.308   4.251
15814W        W74910  16.773  23.168   3.856
15815W        W74911  14.734   4.216  12.837
15816W        W74912   9.353   2.878  12.831
15817W        W74913  25.080  28.511  11.479
15818W        W74914  41.859  18.729   3.799
15819W        W74915  20.734  39.064   2.784
15820W        W74916  18.286   6.227  14.352
15821W        W74917  15.156  40.806  13.984
15822W        W74918  10.187  18.614   1.815
15823W        W74919  41.296   0.878   2.815
15824W        W74920  14.230  16.653   4.619
15825W        W74921   6.333  38.520   2.901
15826W        W74922  44.307  11.150  13.857
15827W        W74923  19.719  40.898  14.972
15828W        W74924   3.890  25.150  12.989
15829W        W74925   7.854  38.992   4.309
15830W        W74926  12.184  42.406   4.833
15831W        W74927  10.653  34.386  10.451
15832W        W74928  21.131  13.143  12.006
15833W        W74929  27.567  28.661  10.473
15834W        W74930  42.965  38.823  11.925
15835W        W74931  20.692  43.982   0.781
15836W        W74932  29.092   4.373   2.860
15837W        W74933  32.055  36.891  13.436
15838W        W74934   7.261  36.038   0.752
15839W        W74935  16.257   0.458  11.591
15840W        W74936  41.308   0.809  13.382
15841W        W74937  40.511  42.022   4.283
15842W        W74938  23.713   9.723  12.980
15843W        W74939  40.352   5.784   0.902
15844W        W74940  17.643  20.524   3.831
15845W        W74941  16.619  34.614  11.556
15846W        W74942  41.312  39.400   4.272
15847W        W74943  37.052  37.996  14.381
15848W        W74944  10.213  26.647  10.565
15849W        W74945  12.716  27.979  13.997
15850W        W74946  35.932  25.039   2.179
15851W        W74947  24.086  36.023  13.325
15852W        W74948   2.890  30.013  13.902
15853W        W74949  22.696  44.008   1.444
15854W        W74950  42.902   7.271  10.625
15855W        W74951   7.876  25.588   9.518
15856W        W74952  35.491  40.861   1.873
15857W        W74953  33.575  18.780  11.876
15858W        W74954  37.962  18.224  13.336
15859W        W74955  15.716  29.158   3.676
15860W        W74956  23.622  28.504   0.796
15861W        W74957  39.438   5.739   4.229
15862W        W74958  27.049  13.309   1.933
15863W        W74959  16.582   8.657   2.211
15864W        W74960  18.740  34.504   3.722
15865W        W74961  21.693  44.503   9.952
15866W        W74962  10.364  10.144   4.760
15867W        W74963  26.559  39.021  11.942
15868W        W74964  19.586  36.015  11.422
15869W        W74965  12.276  28.650  11.383
15870W        W74966  41.026  14.315   4.648
15871W        W74967  12.676  13.346   1.771
15872W        W74968   7.211  12.221   1.290
15873W        W74969  38.477  37.940  11.008
15874W        W74970   3.936   6.390  13.940
15875W        W74971  27.966  14.279   2.403
15876W        W74972   7.854  33.005  12.005
15877W        W74973  20.633  39.994  12.853
15878W        W74974  42.429  11.779   0.795
15879W        W74975  31.471   2.963  14.935
15880W        W74976  11.646  22.693  10.961
15881W        W74977  33.086  43.802  10.543
15882W        W74978  10.876  10.731   1.720
15883W        W74979  29.979   1.394   1.375
15884W        W74980   1.464  33.047   3.199
15885W        W74981  18.281   3.753  10.429
15886W        W74982  11.789  16.635  13.886
15887W        W74983  37.877  30.583  14.790
15888W        W74984  31.565   9.817   0.360
15889W        W74985  16.655  40.353  10.966
15890W        W74986   5.904  17.289  10.947
15891W        W74987  39.515  37.848   3.756
15892W        W74988  15.102  13.696   1.897
15893W        W74989  27.449   1.781   4.164
15894W        W74990   7.242  14.801  14.020
15895W        W74991  42.526   9.877   1.828
15896W        W74992  27.964  34.456  12.917
15897W        W74993  27.145  29.135  12.988
15898W        W74994  15.690  14.770  13.441
15899W        W74995  43.936  20.610  10.932
15900W        W74996  27.197  25.049   4.352
15901W        W74997   2.908  24.511  14.018
15902W        W74998  31.612  16.619  14.773
15903W        W74999  40.907  40.306  10.936
15904W        W75000  29.561  26.506  11.384
15905W        W75001  35.367  29.604  10.451
15906W        W75002   2.328  23.657   2.869
15907W        W75003  29.953  10.212  10.041
15908W        W75004  42.795  26.525   0.296
15909W        W75005   6.716  29.504   0.358
15910W        W75006  39.549  41.525  10.979
15911W        W75007  14.199  40.488  11.955
15912W        W75008   7.862  10.293   2.267
15913W        W75009  23.560  22.183  13.505
15914W        W75010  40.962  40.359   0.278
15915W        W75011   9.671  43.864   3.687
15916W        W75012  38.977   7.195  11.387
15917W        W75013  30.456  10.679   0.326
15918W        W75014   8.679  20.687  10.064
15919W        W75015   0.427  35.568   2.183
15920W        W75016   3.914  42.926  10.005
15921W        W75017  22.110  16.638   0.482
15922W        W75018  33.448  36.003   3.868
15923W        W75019  20.670  36.009  11.526
15924W        W75020  15.585  10.694  14.765
15925W        W75021  13.167  12.197  14.410
15926W        W75022  40.498  36.588   4.679
15927W        W75023  35.975  24.041   9.984
15928W        W75024  11.351  44.422  12.514
15929W        W75025  10.820  13.256   3.258
15930W        W75026  12.674   9.886   0.430
15931W        W75027   0.843  35.025   3.763
15932W        W75028   0.394   5.257  12.447
15933W        W75029  26.524  40.436  10.600
15934W        W75030   7.197  24.009  13.006
15935W        W75031  14.601   4.887   4.724
15936W        W75032  11.369  23.730  10.499
15937W        W75033   0.846  30.427  11.035
15938W        W75034   5.341  21.047   2.821
15939W        W75035  23.583  15.141   1.855
15940W        W75036  20.630  14.276   1.381
15941W        W75037  27.067  19.220  14.318
15942W        W75038  24.628  38.542  13.343
15943W        W75039   6.747  37.844   1.720
15944W        W75040   7.314  27.659  10.584
15945W        W75041   4.895   2.952  13.993
15946W        W75042  37.837   1.733  14.872
15947W        W75043  12.688  36.884   2.875
15948W        W75044  29.082  44.988   1.748
15949W        W75045   3.276   2.291   0.798
15950W        W75046  30.989  22.570  14.811
15951W        W75047  36.443   7.301  10.523
15952W        W75048  32.103  14.683  12.026
15953W        W75049   3.889  44.011   1.226
15954W        W75050  30.607   5.306  10.954
15955W        W75051   7.272   9.257  11.375
15956W        W75052   3.869  12.116   0.427
15957W        W75053  14.727   3.235   3.855
15958W        W75054  42.423  36.482   3.261
15959W        W75055   8.312  15.661  12.431
15960W        W75056   2.926  26.558  11.441
15961W        W75057  16.687  43.982   3.634
15962W        W75058  16.652  23.658  12.880
15963W        W75059  12.847  33.072  11.517
15964W        W75060   0.870  23.669  12.426
15965W        W75061  24.125  19.601   0.300
15966W        W75062  33.891  16.102   1.748
15967W        W75063   7.296   7.740  10.979
15968W        W75064   3.920  29.125   1.725
15969W        W75065  21.105  13.611   3.652
15970W        W75066  22.202   3.276   3.334
15971W        W75067  20.267   5.280  13.929
15972W        W75068  23.558  13.141  13.000
15973W        W75069  13.308   7.685   2.814
15974W        W75070  34.572  37.413   3.702
15975W        W75071  38.985  37.427  13.331
15976W        W75072  35.445  33.429  12.391
15977W        W75073  10.682  15.725  12.456
15978W        W75074   9.158  32.091   3.761
15979W        W75075  12.656  26.666   3.697
15980W        W75076  43.801  18.270  13.518
15981W        W75077  19.101  32.523   1.865
15982W        W75078  31.947   9.774   4.355
15983W        W75079   2.343  43.355   2.325
15984W        W75080   3.257   3.332  11.382
15985W        W75081   0.972  20.189   1.316
15986W        W75082  36.903  38.073   2.728
15987W        W75083  18.240  19.538  11.471
15988W        W75084  14.603  15.646   0.789
15989W        W75085  44.434   7.831  11.574
15990W        W75086  19.750  17.120   2.268
15991W        W75087  14.254  11.192  12.000
15992W        W75088  25.148   8.405  14.886
15993W        W75089  39.933   8.782  14.404
15994W        W75090  13.196  31.950   3.850
15995W        W75091  13.696  20.223  11.974
15996W        W75092   4.204  24.034   1.318
15997W        W75093   0.974  15.162  12.881
15998W        W75094  17.704  31.981  13.045
15999W        W75095   0.787   3.790   1.286
16000W        W75096  31.018  23.240   5.130
16001W        W75097  35.093  39.867  10.551
16002W        W75098  17.119  16.124  14.862
16003W        W75099  23.575  25.164  12.977
16004W        W75100   5.865  40.368  10.451
16005W        W75101  32.553  23.079  12.849
16006W        W75102  44.436  34.592  13.339
16007W        W75103  42.852  12.649   3.386
16008W        W75104  22.185  41.347  11.957
16009W        W75105   4.848  33.944   5.256
16010W        W75106  36.421   6.415   2.858
16011W        W75107  25.575  39.347   2.696
16012W        W75108  29.468  37.357  14.437
16013W        W75109  42.987  13.202   1.848
16014W        W75110  25.176  21.577  11.939
16015W        W75111  29.000   1.369  11.066
16016W        W75112  21.623  12.856  11.373
16017W        W75113   7.856  15.679   1.431
16018W        W75114  34.955  11.676  10.627
16019W        W75115  18.091   8.806   5.108
16020W        W75116  12.205  37.906   2.818
16021W        W75117  32.932  22.571  14.491
16022W        W75118   7.283  23.177  14.760
16023W        W75119   8.248  32.502  11.099
16024W        W75120  14.673  34.491  14.769
16025W        W75121  19.041  14.704   3.826
16026W        W75122  23.125  23.133   3.349
16027W        W75123  29.646  29.053   4.187
16028W        W75124  21.057  29.921  12.060
16029W        W75125  43.279  43.004   4.755
16030W        W75126   9.774  17.241   3.190
16031W        W75127  13.112  32.512   4.355
16032W        W75128  33.928  33.530   1.282
16033W        W75129   0.941  43.330   3.802
16034W        W75130   0.471  20.751   4.697
16035W        W75131  22.667  15.715   3.189
16036W        W75132  43.002  12.299   2.353
16037W        W75133  44.465  29.509   2.721
16038W        W75134   6.181  33.119   2.893
16039W        W75135   2.750  17.663   2.728
16040W        W75136   2.438  13.628   2.189
16041W        W75137  40.851  12.768   1.762
16042W        W75138  44.794  24.500  10.431
16043W        W75139  18.545  41.946   1.774
16044W        W75140   1.250   2.245  13.810
16045W        W75141  32.534  44.887   0.873
16046W        W75142  33.084  41.822  12.056
16047W        W75143  18.548  29.099  11.527
16048W        W75144   2.314  41.878   4.282
16049W        W75145  44.450  24.990  14.824
16050W        W75146  15.314  42.385  14.864
16051W        W75147  31.937  43.899  14.301
16052W        W75148   2.943  41.919  14.400
16053W        W75149  42.920  38.378  13.330
16054W        W75150   8.771  33.603  11.985
16055W        W75151  20.059  10.236   3.241
16056W        W75152   3.922  38.066   2.745
16057W        W75153  43.426  21.228   0.916
16058W        W75154   4.786  27.133  14.878
16059W        W75155   8.795  22.608  12.426
16060W        W75156   8.894  21.542  14.859
16061W        W75157  30.551  25.646   5.597
16062W        W75158  33.981  22.642  10.556
16063W        W75159  35.553  11.683  11.498
16064W        W75160  31.896  20.074   0.926
16065W        W75161  24.982   1.330  12.943
16066W        W75162  38.029  27.577  12.436
16067W        W75163  23.696   5.346  11.071
16068W        W75164  25.054   6.724  12.937
16069W        W75165  44.301  39.344  12.837
16070W        W75166   4.315  22.564   0.388
16071W        W75167  36.033  34.000   3.148
16072W        W75168  22.187  20.261   3.351
16073W        W75169  17.190  30.135  13.937
16074W        W75170   2.743  32.516   0.790
16075W        W75171   4.941  21.038   4.729
16076W        W75172  23.074  43.418   4.303
16077W        W75173  36.084  34.110  11.611
16078W        W75174  25.471  35.451   0.427
16079W        W75175  17.750   3.287  10.633
16080W        W75176  42.453  14.607   2.240
16081W        W75177  20.643  28.640  10.442
16082W        W75178  34.020  13.749   0.783
16083W        W75179  30.030  39.901  10.439
16084W        W75180  12.700  14.603   2.290
16085W        W75181  33.478   7.712   5.220
16086W        W75182  42.323  30.058   0.357
16087W        W75183   7.172  19.613   4.663
16088W        W75184  31.094   0.441  11.441
16089W        W75185  34.496  21.102  14.956
16090W        W75186   3.886  27.998   4.697
16091W        W75187  28.627  12.782  13.827
16092W        W75188  26.598  26.064   1.254
16093W        W75189  44.386  34.021  12.885
16094W        W75190  37.524   1.802  12.003
16095W        W75191  36.077  31.916   4.254
16096W        W75192   7.873  14.319  12.518
16097W        W75193  41.958  17.272  13.339
16098W        W75194  12.765  33.054   1.861
16099W        W75195   3.273  12.153  12.993
16100W        W75196  11.692  36.563   1.741
16101W        W75197  32.980  20.226  11.122
16102W        W75198  35.572  17.206  14.344
16103W        W75199  27.040   8.388  14.907
16104W        W75200   1.749  27.967   4.603
16105W        W75201  29.986  29.026   1.776
16106W        W75202   0.475  15.711   5.181
16107W        W75203  12.855   7.180   0.426
16108W        W75204   1.329  41.794  14.466
16109W        W75205  44.396  43.836   3.371
16110W        W75206  19.075  18.721  12.928
16111W        W75207  36.044  15.096   2.396
16112W        W75208  18.255   8.308   2.189
16113W        W75209  22.148  21.583   1.705
16114W        W75210  42.398   8.340  14.295
16115W        W75211  23.652  38.380   2.733
16116W        W75212  37.083   6.213  10.497
16117W        W75213  14.816  13.190  14.833
16118W        W75214  43.973  35.065   2.310
16119W        W75215  11.144  36.081  14.812
16120W        W75216  41.014   6.801   1.371
16121W        W75217  19.562   5.335  10.988
16122W        W75218  26.970   6.684  14.029
16123W        W75219  23.990  35.433  13.506
16124W        W75220  24.227  16.569   4.692
16125W        W75221  16.110  36.022   4.639
16126W        W75222   6.418   9.649  13.847
16127W        W75223   3.406  24.019  14.832
16128W        W75224  30.621  36.989   0.771
16129W        W75225  12.783  15.278  11.123
16130W        W75226  40.547   1.781  12.383
16131W        W75227  17.268  27.006  13.992
16132W        W75228  12.324  28.475  14.471
16133W        W75229  28.504   7.724  11.085
16134W        W75230  26.062   6.258  10.498
16135W        W75231  39.509  24.101   2.673
16136W        W75232  20.660   7.788   5.767
16137W        W75233  19.567  26.152   0.243
16138W        W75234  12.229  19.720  14.322
16139W        W75235  44.895   1.248  10.534
16140W        W75236  13.654  31.031   5.174
16141W        W75237  39.542  35.044  12.825
16142W        W75238  14.811  22.653   1.776
16143W        W75239  31.429  29.175   3.658
16144W        W75240  28.471  15.712  12.417
16145W        W75241  16.739  42.983   2.902
16146W        W75242  25.030  37.956  14.277
16147W        W75243  29.919  33.623  11.575
16148W        W75244   3.792  36.020  10.899
16149W        W75245  44.823  25.068  13.031
16150W        W75246  16.137  37.901  12.458
16151W        W75247  22.637  15.604   4.139
16152W        W75248  38.058   3.824  11.550
16153W        W75249  32.934   7.888  10.409
16154W        W75250  27.452   4.372   1.285
16155W        W75251  11.830  18.212  14.983
16156W        W75252   8.668  38.008   0.831
16157W        W75253  25.072  20.268  14.409
16158W        W75254   3.899  32.921  12.459
16159W        W75255  34.993  27.460  14.786
16160W        W75256  29.493   5.358  11.377
16161W        W75257  36.468  22.178   9.998
16162W        W75258  42.422  41.887   3.847
16163W        W75259  38.325  15.693  13.526
16164W        W75260  38.946  25.706  14.473
16165W        W75261  30.464   4.413   2.293
16166W        W75262  41.536  30.647  13.487
16167W        W75263  44.765   4.232   1.889
16168W        W75264  22.172  40.508   1.918
16169W        W75265  28.079  36.393   4.706
16170W        W75266  37.442  11.355  10.907
16171W        W75267  30.929  11.827   2.845
16172W        W75268   3.756   6.873  12.376
16173W        W75269  25.098  24.190  12.517
16174W        W75270  33.408  39.839  10.006
16175W        W75271   6.361   2.257  11.102
16176W        W75272  11.316  21.082   4.725
16177W        W75273  16.622  32.511  13.943
16178W        W75274  34.029  16.098   4.696
16179W        W75275  24.064  41.028  11.530
16180W        W75276  44.474  31.504  14.982
16181W        W75277   1.423  22.010  10.933
16182W        W75278  19.579  20.612  11.919
16183W        W75279  34.448   2.914   0.374
16184W        W75280   6.681  22.699  13.407
16185W        W75281  23.584   2.389  11.968
16186W        W75282  39.817   4.809   1.329
16187W        W75283  24.023  29.545   1.884
16188W        W75284   7.736  29.665   0.352
16189W        W75285  30.938   6.229  12.851
16190W        W75286   4.892  33.458   1.806
16191W        W75287   6.807   6.883  14.342
16192W        W75288  22.500   2.800  10.560
16193W        W75289  25.084   9.344   1.925
16194W        W75290  38.407   2.311   2.258
16195W        W75291  22.643   6.342   3.292
16196W        W75292   9.275  25.140   4.737
16197W        W75293  30.114   9.800  15.000
16198W        W75294  15.259  39.809   0.744
16199W        W75295  26.516  15.685   3.696
16200W        W75296   1.424  37.513  10.582
16201W        W75297  38.519  31.045  14.988
16202W        W75298   9.161  40.473  14.473
16203W        W75299   5.195  24.719   2.670
16204W        W75300  10.377  26.084  12.826
16205W        W75301  41.032  15.320  14.006
16206W        W75302  28.059  15.143   2.775
16207W        W75303   5.382   5.909   3.273
16208W        W75304  18.656  17.766  12.573
16209W        W75305  14.126  39.855  13.367
16210W        W75306  43.904  19.137  14.775
16211W        W75307  13.764  32.006  11.982
16212W        W75308  15.160  34.077   1.359
16213W        W75309   0.370  34.546  14.980
16214W        W75310   2.233  38.071  11.886
16215W        W75311  39.837   9.741  14.301
16216W        W75312  42.423  16.648   2.716
16217W        W75313  43.330   6.262   1.739
16218W        W75314  24.131  26.470   4.830
16219W        W75315  34.990  24.559   0.430
16220W        W75316  41.839  41.826   2.286
16221W        W75317  17.717  32.898  10.507
16222W        W75318  12.345   2.729   2.851
16223W        W75319  19.619  35.495   4.149
16224W        W75320  40.997  17.561  12.856
16225W        W75321   8.750  34.509   0.878
16226W        W75322   5.727   8.709   4.771
16227W        W75323  15.824  30.637  13.392
16228W        W75324  21.609  37.989   3.672
16229W        W75325  31.062  42.896   3.761
16230W        W75326  34.407  16.191  13.796
16231W        W75327  30.470   7.209  11.907
16232W        W75328  20.085  33.112   4.685
16233W        W75329  28.558   2.324   0.477
16234W        W75330   5.883  33.491  12.052
16235W        W75331  18.661  23.061   3.756
16236W        W75332  30.519  40.876   3.764
16237W        W75333  41.526  10.766   1.737
16238W        W75334  12.662   6.208   2.729
16239W        W75335  34.985  35.918  11.061
16240W        W75336  33.499  34.537  13.823
16241W        W75337  44.301  30.945  10.118
16242W        W75338  13.799  15.222   0.856
16243W        W75339   8.753  17.749  11.114
16244W        W75340  31.999   3.869   4.804
16245W        W75341   8.248  41.038   2.857
16246W        W75342  18.710  36.563  14.299
16247W        W75343   0.841  26.552  12.902
16248W        W75344   2.923  34.474   4.234
16249W        W75345   9.256  31.130  12.521
16250W        W75346   9.217   6.253  13.475
16251W        W75347  40.996   8.375   2.328
16252W        W75348  39.010  19.621  14.811
16253W        W75349  39.523  24.551  13.022
16254W        W75350  11.371   7.783   0.851
16255W        W75351  11.774  11.631  13.450
16256W        W75352  44.931   1.349   3.785
16257W        W75353  28.960  17.679  14.939
16258W        W75354  24.131  14.296   2.388
16259W        W75355  16.073   1.381   4.331
16260W        W75356  32.922   8.843  10.521
16261W        W75357  10.339  41.020   2.352
16262W        W75358  24.626  22.136  12.348
16263W        W75359   2.884   6.858  14.341
16264W        W75360  14.792  23.040  12.923
16265W        W75361  29.161  14.279   3.215
16266W        W75362   7.739  12.183  12.386
16267W        W75363  15.209   9.264   4.205
16268W        W75364  24.207   6.199   3.211
16269W        W75365  16.103  39.444  11.519
16270W        W75366  11.816  12.140   3.361
16271W        W75367  23.575  35.566  14.846
16272W        W75368  43.775   7.741  10.895
16273W        W75369  21.137  44.901  13.000
16274W        W75370  41.314  25.548   0.315
16275W        W75371   5.851  11.854   3.197
16276W        W75372  14.787  25.607  14.923
16277W        W75373  14.147  44.006   0.385
16278W        W75374  19.148  21.559   1.822
16279W        W75375  30.073   9.324  14.795
16280W        W75376  16.286   9.246  13.903
16281W        W75377  31.974  40.045   1.804
16282W        W75378  12.665  26.983   4.250
16283W        W75379   6.271  40.508  11.373
16284W        W75380  12.331  44.796   0.801
16285W        W75381  12.196  35.904   1.356
16286W        W75382   0.851  29.659  14.286
16287W        W75383  20.076  43.795  10.577
16288W        W75384  19.657  28.570   2.666
16289W        W75385  41.472  27.606   1.359
16290W        W75386  15.203   2.967   2.858
16291W        W75387   3.804  13.843  12.845
16292W        W75388   6.313  30.135   0.740
16293W        W75389  36.979  22.242   0.747
16294W        W75390  20.705  44.344   2.733
16295W        W75391  26.654  24.628  14.300
16296W        W75392  29.483  22.244  11.599
16297W        W75393   7.251   8.853  14.345
16298W        W75394  22.599  14.145   2.303
16299W        W75395  32.969   1.793   0.452
16300W        W75396  12.189  41.931  12.378
16301W        W75397  31.536   5.327   0.251
16302W        W75398  17.656  36.028   2.684
16303W        W75399  25.067  34.102  14.942
16304W        W75400  38.819  20.202  12.967
16305W        W75401  22.728  42.816  11.050
16306W        W75402  26.204  34.936   1.837
16307W        W75403  21.233  36.514  10.488
16308W        W75404  27.678   8.368   1.868
16309W        W75405  28.585   8.670   2.899
16310W        W75406   4.424  43.013  12.085
16311W        W75407  31.586  43.910  12.375
16312W        W75408  24.486  24.991   0.460
16313W        W75409  25.982  21.648   2.825
16314W        W75410   6.408   4.778   4.638
16315W        W75411   6.197  26.060   2.216
16316W        W75412  23.152  21.122  12.377
16317W        W75413  23.056  37.384  13.923
16318W        W75414   9.713  37.973   2.780
16319W        W75415  20.095  12.831   0.849
16320W        W75416  11.244  17.777   2.810
16321W        W75417  27.034  42.323  14.763
16322W        W75418   8.812   8.691   0.787
16323W        W75419  42.304  24.637  12.434
16324W        W75420   9.832  26.583  14.849
16325W        W75421  22.609  11.683   1.876
16326W        W75422   8.298   0.825   0.731
16327W        W75423  15.281  42.948  13.000
16328W        W75424   1.961  25.003  12.019
16329W        W75425  30.926  16.627  11.087
16330W        W75426  12.734  23.628   0.331
16331W        W75427  42.953   1.414  12.008
16332W        W75428  27.480   0.895   2.762
16333W        W75429  19.134  38.995   4.216
16334W        W75430  42.466   3.455  12.580
16335W        W75431  42.916  35.864  11.478
16336W        W75432  16.775  16.813  13.439
16337W        W75433   4.855  41.843   3.870
16338W        W75434   1.798  41.345   4.764
16339W        W75435  31.631  10.286   1.335
16340W        W75436  30.640   3.773  13.017
16341W        W75437  10.833  24.677   2.765
16342W        W75438  23.073  30.160  10.427
16343W        W75439  29.051  18.744   4.705
16344W        W75440  43.993  38.528   3.833
16345W        W75441  20.579   2.797  14.374
16346W        W75442   0.451  39.357   1.741
16347W        W75443  31.995  18.730   1.837
16348W        W75444  42.944  40.020  11.514
16349W        W75445  17.632   5.875   4.309
16350W        W75446  12.774  27.088  14.778
16351W        W75447  30.126  37.364   1.314
16352W        W75448  12.804   6.373   0.268
16353W        W75449  28.948   9.316  13.437
16354W        W75450  36.971  42.909   4.836
16355W        W75451  26.486  10.351   4.258
16356W        W75452  35.002   1.257   4.770
16357W        W75453  28.126  32.478   3.381
16358W        W75454  44.367   9.370  14.857
16359W        W75455  30.596  29.575  12.515
16360W        W75456  21.733  12.690  12.523
16361W        W75457   9.802  27.990  11.875
16362W        W75458  20.107   4.348  10.917
16363W        W75459   4.219  25.055   2.900
16364W        W75460   8.788  44.366   3.731
16365W        W75461  14.604  28.464  13.793
16366W        W75462  31.627  18.215   3.264
16367W        W75463  23.014  10.654   1.708
16368W        W75464   4.766  43.980  13.362
16369W        W75465   1.448  41.493  13.357
16370W        W75466  36.970  25.035   2.218
16371W        W75467  24.127  23.531   0.312
16372W        W75468  37.957  22.541  13.861
16373W        W75469  15.328   6.732  13.473
16374W        W75470  43.293  30.112   2.683
16375W        W75471  32.473   0.875  12.416
16376W        W75472  19.733  13.680  12.957
16377W        W75473  24.655   1.809  14.436
16378W        W75474  13.623  31.097   2.324
16379W        W75475  31.900  17.159  10.464
16380W        W75476  22.607  32.549  11.074
16381W        W75477  14.313   4.767   0.730
16382W        W75478   0.451  40.918  10.640
16383W        W75479  30.082  10.811   2.334
16384W        W75480   3.730  31.616  10.422
16385W        W75481  20.672  44.822  14.967
16386W        W75482  21.100  37.052  10.954
16387W        W75483  40.900   7.185  11.884
16388W        W75484  38.429  43.293  14.423
16389W        W75485  27.496  38.376   2.857
16390W        W75486   1.885   7.329  14.865
16391W        W75487  43.998   7.291   0.458
16392W        W75488  26.984  39.010  13.939
16393W        W75489  30.450  10.290  12.056
16394W        W75490  13.255  24.493   4.322
16395W        W75491  43.857  44.008  10.584
16396W        W75492  44.953  13.757   0.369
16397W        W75493  12.853  32.968  13.476
16398W        W75494  15.712  17.651   4.263
16399W        W75495  28.665  13.324   1.734
16400W        W75496  43.947   1.833   1.822
16401W        W75497   8.337  38.899  12.015
16402W        W75498  23.563  35.983  14.819
16403W        W75499  16.606   9.255   5.298
16404W        W75500  36.054  11.698  10.975
16405W        W75501  22.165  36.474   3.301
16406W        W75502  40.323  17.176   2.834
16407W        W75503   7.711  38.345  14.277
16408W        W75504  34.042  29.580  13.427
16409W        W75505  17.285   8.387  12.549
16410W        W75506  14.334  44.943   3.325
16411W        W75507  19.688  34.103  12.505
16412W        W75508  32.006  16.217   3.664
16413W        W75509  19.671  43.306   2.847
16414W        W75510  28.042  28.160   5.165
16415W        W75511  36.431  16.195  10.910
16416W        W75512  14.254   7.872   0.905
16417W        W75513  43.294  29.995  10.994
16418W        W75514   8.734   4.350   0.287
16419W        W75515  30.949  19.258   1.248
16420W        W75516  11.757   8.222   0.759
16421W        W75517  30.641  23.630  12.046
16422W        W75518  23.071  40.936   3.860
16423W        W75519  30.017  44.453   0.938
16424W        W75520  42.464  34.451  11.509
16425W        W75521  10.851   8.860   4.713
16426W        W75522   4.736   4.296   4.614
16427W        W75523  12.775  27.609   5.088
16428W        W75524  25.126  20.642  14.287
16429W        W75525  38.470  38.021  13.807
16430W        W75526  11.298  18.269  14.316
16431W        W75527   9.749   9.242   4.162
16432W        W75528   0.902  15.744  13.338
16433W        W75529  29.008  11.219  13.894
16434W        W75530   9.794  39.935   3.246
16435W        W75531   8.700   8.658   3.206
16436W        W75532  15.192   1.933  11.880
16437W        W75533  37.039  20.044   1.228
16438W        W75534  13.124  19.249  10.974
16439W        W75535  10.719  41.821   3.175
16440W        W75536  35.958  33.997   1.228
16441W        W75537  11.339  42.427  11.499
16442W        W75538  23.557   7.221   2.790
16443W        W75539  37.550  37.062   2.827
16444W        W75540  36.476  24.212   2.206
16445W        W75541  24.093  10.818   2.337
16446W        W75542  12.138   5.897   1.214
16447W        W75543  42.776  30.986  14.298
16448W        W75544  37.449  28.184   5.125
16449W        W75545  17.276  31.514   4.767
16450W        W75546   9.351  32.510  11.419
16451W        W75547  43.379  42.873  10.571
16452W        W75548  12.644  32.616   4.766
16453W        W75549  34.920   2.784  11.120
16454W        W75550  44.348  22.252   1.404
16455W        W75551   7.315  11.805  10.522
16456W        W75552  25.068  43.971   3.162
16457W        W75553  25.474   1.415  14.855
16458W        W75554  36.064  25.635   0.771
16459W        W75555   3.315  36.377   1.284
16460W        W75556   2.846  25.493   0.359
16461W        W75557  16.181  25.483  14.003
16462W        W75558   5.872  32.589  14.939
16463W        W75559  41.485  39.055   3.837
16464W        W75560  39.935  20.079  12.507
16465W        W75561  15.711   5.893  12.838
16466W        W75562   7.297  14.726  12.823
16467W        W75563   2.371  20.707   4.235
16468W        W75564   7.333  29.615   4.778
16469W        W75565   4.924  28.972   4.194
16470W        W75566  17.752  28.569  10.536
16471W        W75567  20.586  13.119   0.307
16472W        W75568  27.182  37.839  13.454
16473W        W75569   9.185  20.067   0.860
16474W        W75570  44.261  39.033   2.870
16475W        W75571  36.882   3.924   1.877
16476W        W75572   6.705  19.568  13.795
16477W        W75573  18.224  23.544   2.769
16478W        W75574  31.991  34.882   4.646
16479W        W75575  27.453  31.450  13.358
16480W        W75576   9.839  38.350   4.135
16481W        W75577   9.152  44.389  13.854
16482W        W75578  22.995  13.789  10.949
16483W        W75579  14.121   7.771   3.361
16484W        W75580  27.959  22.586   3.773
16485W        W75581  22.512   3.815   0.352
16486W        W75582   6.693  39.965  10.497
16487W        W75583  11.643  32.942  12.075
16488W        W75584   7.252  19.168   1.282
16489W        W75585   5.313   8.889  11.080
16490W        W75586  15.614  44.819  14.772
16491W        W75587  37.449   8.265  14.865
16492W        W75588  37.378  29.576   1.403
16493W        W75589   9.753   5.243   4.834
16494W        W75590   4.853  42.006   1.313
16495W        W75591  26.981  10.258   9.933
16496W        W75592  34.557  11.763  12.569
16497W        W75593  15.629  12.311   3.818
16498W        W75594  30.531  36.945   0.413
16499W        W75595   2.318   7.294   2.787
16500W        W75596  32.573  18.110   4.708
16501W        W75597  20.221  15.128  13.329
16502W        W75598   3.922  15.589   2.341
16503W        W75599   0.388  33.520   2.340
16504W        W75600  19.600   1.882  11.985
16505W        W75601  19.230  10.251   4.650
16506W        W75602  30.480  25.048  13.512
16507W        W75603  31.021   0.437  11.096
16508W        W75604  23.713  25.052  11.106
16509W        W75605  10.857  32.046   0.885
16510W        W75606  19.690   5.287  13.889
16511W        W75607   4.900   8.741   4.758
16512W        W75608  26.655  37.505  12.561
16513W        W75609  15.145   0.962   2.716
16514W        W75610   9.843  38.545  14.001
16515W        W75611  27.495   5.895   0.769
16516W        W75612  17.235  23.636   3.756
16517W        W75613  44.841  30.092   4.809
16518W        W75614  18.157  27.101   1.867
16519W        W75615  19.194  22.537   1.800
16520W        W75616  17.103   1.912  13.059
16521W        W75617  44.870   2.866  11.093
16522W        W75618  29.163  42.527  14.283
16523W        W75619   5.221   9.318  14.965
16524W        W75620  20.175  14.330   4.627
16525W        W75621  16.286  42.505  13.482
16526W        W75622  13.681   8.889  13.868
16527W        W75623  41.976  21.583  12.971
16528W        W75624  43.495  25.508  12.887
16529W        W75625  28.958   8.777  12.902
16530W        W75626   1.454  41.519   1.809
16531W        W75627  37.910  24.714  11.122
16532W        W75628  39.013  43.451   1.245
16533W        W75629  28.552  14.739   2.804
16534W        W75630  43.012  19.202   3.797
16535W        W75631  26.128  34.548   1.702
16536W        W75632  12.844   1.826  13.424
16537W        W75633  40.376  14.702   3.183
16538W        W75634  37.422  26.701   1.922
16539W        W75635  26.109  31.094  11.496
16540W        W75636  36.982  21.628   2.767
16541W        W75637   8.381  29.039   0.391
16542W        W75638  24.056   6.788   3.299
16543W        W75639   1.915  27.976  12.462
16544W        W75640   6.333  25.692  10.981
16545W        W75641  12.127  27.503   1.430
16546W        W75642  36.053   6.314   3.841
16547W        W75643  44.985   8.741  10.625
16548W        W75644  16.752  16.126  12.846
16549W        W75645  44.860   7.272   3.318
16550W        W75646  31.001  35.090   4.600
16551W        W75647  27.976   7.749   0.805
16552W        W75648  12.290   4.868   1.367
16553W        W75649   3.908  29.626   4.178
16554W        W75650  34.524  28.444   4.137
16555W        W75651   7.782  39.058  10.061
16556W        W75652  17.212  15.602   4.205
16557W        W75653  43.805  41.413  11.011
16558W        W75654   8.302  36.456   2.826
16559W        W75655   4.215   5.777  11.112
16560W        W75656  15.299  33.459   5.312
16561W        W75657  29.026  43.935   3.868
16562W        W75658  31.990  11.287  12.950
16563W        W75659  29.482  15.754   0.420
16564W        W75660  43.312   8.222   0.425
16565W        W75661  32.963  24.639  14.356
16566W        W75662  24.172  21.194  13.377
16567W        W75663  22.038  15.805  12.931
16568W        W75664  33.952  27.682   2.210
16569W        W75665  31.409  40.395  10.934
16570W        W75666  27.145  39.388  14.992
16571W        W75667  27.998  29.152   2.381
16572W        W75668  27.096   0.819  13.521
16573W        W75669  40.801  21.648   4.639
16574W        W75670  12.634   3.374   3.766
16575W        W75671  29.077   8.307   4.728
16576W        W75672  12.137  21.034  10.453
16577W        W75673  28.092  33.554  12.893
16578W        W75674  42.412  23.530   1.440
16579W        W75675  41.031  44.810  11.376
16580W        W75676  21.755  35.523  11.530
16581W        W75677  17.238  25.093   0.749
16582W        W75678   5.761  19.717  13.445
16583W        W75679   1.792  24.591  13.929
16584W        W75680  37.480  21.595   0.881
16585W        W75681  32.986   5.735  11.446
16586W        W75682  10.190  44.003  14.923
16587W        W75683  26.486  22.727   4.828
16588W        W75684  30.423  29.155  10.498
16589W        W75685   0.260  36.548   2.808
16590W        W75686  15.699  14.787  11.457
16591W        W75687  31.518  39.869   3.214
16592W        W75688  32.090  10.354   3.149
16593W        W75689  40.428   6.333   5.277
16594W        W75690   3.814   8.260   3.858
16595W        W75691  31.071  42.367  14.954
16596W        W75692  24.550   1.800  11.052
16597W        W75693  17.737  10.774   4.242
16598W        W75694  35.020  42.301   3.316
16599W        W75695  43.782   7.341  12.969
16600W        W75696  19.046  31.043   3.637
16601W        W75697  40.476   0.788  14.837
16602W        W75698   3.733  39.352  10.449
16603W        W75699   9.809  21.159   1.760
16604W        W75700   1.921  26.483  12.389
16605W        W75701  31.600   6.781  11.104
16606W        W75702  41.420  16.665  11.015
16607W        W75703  40.477  12.773  14.976
16608W        W75704  40.948  40.842  13.461
16609W        W75705  24.678  38.462   0.285
16610W        W75706  31.574   7.843   0.798
16611W        W75707   4.893  17.586  14.810
16612W        W75708  13.761  23.726   4.775
16613W        W75709  22.623  10.772   3.683
16614W        W75710   0.784   5.197   0.942
16615W        W75711  43.340  19.263  12.877
16616W        W75712  27.535  21.235  14.278
16617W        W75713  30.462  39.956   1.903
16618W        W75714   0.428  42.330   0.900
16619W        W75715   1.924  23.115   1.397
16620W        W75716  44.265  38.929   0.321
16621W        W75717  40.323  42.905   4.148
16622W        W75718   9.301  25.514  11.067
16623W        W75719  25.070   2.235  11.425
16624W        W75720  38.019  28.612  11.858
16625W        W75721  14.718   0.867  12.981
16626W        W75722  32.472  27.665   3.817
16627W        W75723  12.619  31.099  14.027
16628W        W75724   0.882  24.706   4.281
16629W        W75725  12.631   6.260  13.038
16630W        W75726  28.498  18.550   2.250
16631W        W75727  23.511  22.082   1.842
16632W        W75728   3.228  12.842   1.387
16633W        W75729  12.232  39.367   2.201
16634W        W75730  29.099  26.107  14.307
16635W        W75731   4.335  34.559  14.783
16636W        W75732  39.894  23.581   1.803
16637W        W75733  33.942  22.733  13.021
16638W        W75734  17.256  12.620   3.248
16639W        W75735  16.115   4.755   2.301
16640W        W75736   7.670  29.432   2.331
16641W        W75737  16.118  11.677  11.919
16642W        W75738  21.746  16.629  14.315
16643W        W75739  15.083   0.489  14.967
16644W        W75740   6.226  44.949   2.852
16645W        W75741  13.699  19.082   2.319
16646W        W75742  42.907   1.850  10.538
16647W        W75743  37.352  26.484   2.870
16648W        W75744   4.927   6.404   2.750
16649W        W75745  21.670   2.257   2.751
16650W        W75746   8.229   5.391  10.903
16651W        W75747  43.483  38.987   1.915
16652W        W75748  44.484  25.994  12.500
16653W        W75749  11.273  32.615  13.805
16654W        W75750  40.341   1.894  13.476
16655W        W75751  10.679  37.897   1.385
16656W        W75752  34.510  42.428  13.406
16657W        W75753  25.539  37.362   0.809
16658W        W75754   2.818   4.844   0.363
16659W        W75755  11.850  18.256  11.498
16660W        W75756  18.193  39.054  10.994
16661W        W75757   3.910  42.865  13.547
16662W        W75758  24.548  34.048   0.857
16663W        W75759  31.552  21.100  12.907
16664W        W75760  18.186  24.714  12.370
16665W        W75761  40.976   7.666   2.685
16666W        W75762  32.403  36.877   0.243
16667W        W75763  30.467   1.293  13.477
16668W        W75764  39.380  11.722  11.067
16669W        W75765   9.292   5.855   0.249
16670W        W75766  34.500  14.772  11.859
16671W        W75767  16.743  27.552   4.612
16672W        W75768  29.574  34.885   4.306
16673W        W75769  28.024  24.075  14.781
16674W        W75770   1.845  35.372  14.829
16675W        W75771  43.800  30.481  11.033
16676W        W75772  17.061   1.893   1.743
16677W        W75773  44.324  20.171  11.515
16678W        W75774  28.538  23.589  13.051
16679W        W75775  11.683  21.211   1.287
16680W        W75776   0.338  18.604   4.186
16681W        W75777   0.305  21.101   4.206
16682W        W75778   1.924  17.193   2.675
16683W        W75779  13.654  13.730  14.385
16684W        W75780  10.846  29.642   3.781
16685W        W75781  24.571  11.824  12.573
16686W        W75782  18.771  36.932  11.454
16687W        W75783  30.004  13.609  13.329
16688W        W75784  39.328   1.404  14.779
16689W        W75785  35.913  27.456  10.927
16690W        W75786   9.752   8.301  13.945
16691W        W75787  10.356   0.924  10.094
16692W        W75788  35.984  44.874   0.738
16693W        W75789   2.459  38.446  13.856
16694W        W75790   1.769  22.237  13.048
16695W        W75791  33.131  28.452   0.814
16696W        W75792  28.445  19.068   1.858
16697W        W75793  38.902   4.892   4.197
16698W        W75794  31.562  41.001  14.868
16699W        W75795   2.444  37.088  14.986
16700W        W75796  22.511  10.834   0.353
16701W        W75797   9.867  17.776   4.264
16702W        W75798   2.905  38.385   4.333
16703W        W75799  38.912  39.445  14.449
16704W        W75800  10.733  38.503   0.768
16705W        W75801  31.103  29.993  12.542
16706W        W75802  22.110  34.865  10.926
16707W        W75803   3.310   9.797   3.677
16708W        W75804  22.080  11.763  13.810
16709W        W75805  26.117  33.895   2.832
16710W        W75806  42.892   1.944   3.760
16711W        W75807  41.420  38.442   0.390
16712W        W75808  44.879  16.219  11.877
16713W        W75809  42.900  11.257   4.676
16714W        W75810  44.456   4.340   2.739
16715W        W75811  23.687  29.570   4.681
16716W        W75812   8.835  24.062   2.719
16717W        W75813  43.766  36.522   4.778
16718W        W75814  10.177   1.882   1.708
16719W        W75815  44.819  43.782   1.852
16720W        W75816  42.835  27.069  11.876
16721W        W75817  31.117  14.742   3.195
16722W        W75818  44.473  12.842   1.714
16723W        W75819  29.429  22.102   0.408
16724W        W75820  19.247  38.979  14.350
16725W        W75821  36.568  19.090  10.594
16726W        W75822   1.257  43.837  11.923
16727W        W75823  22.010  13.691  13.492
16728W        W75824  17.610  11.227  14.884
16729W        W75825  21.528  22.610  14.285
16730W        W75826  14.224  34.560  10.433
16731W        W75827  28.081  32.122  10.591
16732W        W75828   3.753  28.132   0.373
16733W        W75829  18.596  37.841  14.867
16734W        W75830  44.440  16.684   3.816
16735W        W75831   9.705  29.528   9.542
16736W        W75832  15.723  31.095  13.954
16737W        W75833   0.926  37.350  13.040
16738W        W75834  25.987  18.271   2.713
16739W        W75835  40.910  11.348  11.028
16740W        W75836  31.419  32.889  10.452
16741W        W75837  16.671   8.373   1.861
16742W        W75838  19.134  39.018  11.417
16743W        W75839  16.270  36.082   9.935
16744W        W75840   6.356  15.665  14.494
16745W        W75841   8.182  41.477   0.743
16746W        W75842  25.158  33.597   1.238
16747W        W75843  28.517  10.737  13.478
16748W        W75844  29.665  19.573   0.374
16749W        W75845  39.404  32.059  11.566
16750W        W75846  12.221   7.890  13.494
16751W        W75847  29.456   4.428  14.894
16752W        W75848  40.861   9.187   1.815
16753W        W75849  36.498   3.784  11.496
16754W        W75850  37.489  41.520   0.737
16755W        W75851  30.414   0.863  11.426
16756W        W75852  40.927  40.472  13.325
16757W        W75853  26.184  24.643   2.285
16758W        W75854  41.845  29.504   0.296
16759W        W75855  31.014   0.988  12.901
16760W        W75856  24.031  14.126   4.779
16761W        W75857  11.721  32.561   1.230
16762W        W75858  23.204  23.001   3.775
16763W        W75859   4.398  34.082  11.009
16764W        W75860  20.639   1.781  14.425
16765W        W75861   9.276   3.289  13.311
16766W        W75862  29.028  42.315  12.966
16767W        W75863  16.285  12.783  13.811
16768W        W75864  42.323  15.094   1.866
16769W        W75865  14.322   6.792   4.756
16770W        W75866  22.689  31.424   3.763
16771W        W75867  15.696  23.517  13.941
16772W        W75868   5.697  14.094  11.508
16773W        W75869  20.074  27.046  13.312
16774W        W75870  16.697  21.630  14.021
16775W        W75871  33.426  11.271   1.344
16776W        W75872  30.481  42.836   5.087
16777W        W75873  20.555  33.114  13.977
16778W        W75874  44.440  40.981  10.547
16779W        W75875  24.179  13.699   3.632
16780W        W75876   5.788   3.461  13.526
16781W        W75877  18.675  30.130   4.682
16782W        W75878  40.404  13.794  14.870
16783W        W75879  23.585  37.080  12.534
16784W        W75880  33.439  27.502  10.407
16785W        W75881  26.066   7.173  11.997
16786W        W75882  30.031  16.756  11.095
16787W        W75883  30.486  12.831   4.681
16788W        W75884  38.981   5.729  13.476
16789W        W75885  17.695  35.412  13.938
16790W        W75886   8.248  14.623  10.404
16791W        W75887  23.670   1.862   0.895
16792W        W75888   3.854  32.949   3.312
16793W        W75889  19.635  29.963  13.960
16794W        W75890   1.761  15.641   4.354
16795W        W75891  17.118  23.032  10.525
16796W        W75892   7.405  33.075   0.866
16797W        W75893  34.110  22.563  11.576
16798W        W75894   1.451  42.881  14.785
16799W        W75895   9.219  26.545  14.927
16800W        W75896  10.781  28.954  10.570
16801W        W75897  15.783  42.878  11.598
16802W        W75898  29.951  38.988  11.118
16803W        W75899  18.615  20.105  12.388
16804W        W75900  38.419  39.412   0.870
16805W        W75901  17.177  21.705  14.859
16806W        W75902   0.282  18.689   1.749
16807W        W75903  15.268  35.503  10.914
16808W        W75904  44.810  22.093   0.942
16809W        W75905  13.659  29.980  14.281
16810W        W75906  36.406  17.112   1.812
16811W        W75907  42.980  11.755   3.185
16812W        W75908   2.964  33.625  12.556
16813W        W75909  39.897   0.947  14.018
16814W        W75910  24.983  21.675   4.742
16815W        W75911  14.127   5.355   0.870
16816W        W75912  18.265  44.270  14.855
16817W        W75913  30.158  25.524  13.046
16818W        W75914   6.333  34.021  12.448
16819W        W75915  41.373  35.950   1.295
16820W        W75916   9.379   7.720   4.621
16821W        W75917  13.839  37.510  13.873
16822W        W75918  18.224  31.048  14.317
16823W        W75919  20.173  18.245  11.994
16824W        W75920  27.145  11.864  10.602
16825W        W75921  25.691  42.906  12.999
16826W        W75922   3.949  37.835  14.479
16827W        W75923  23.119  44.475   1.285
16828W        W75924  38.959  13.624  11.558
16829W        W75925   7.835  23.136   0.430
16830W        W75926  44.324  11.160   4.704
16831W        W75927  13.740  21.185  12.916
16832W        W75928  26.458   5.314   1.832
16833W        W75929  44.380   0.888   3.702
16834W        W75930  20.635  24.073   2.855
16835W        W75931  32.987   3.810  12.072
16836W        W75932  26.073  38.362   3.378
16837W        W75933  25.587  33.129   3.221
16838W        W75934  14.221  14.276  12.505
16839W        W75935   8.846  41.917   0.762
16840W        W75936   2.272   5.727  14.784
16841W        W75937  16.084  18.650   0.729
16842W        W75938  13.326  10.232   3.795
16843W        W75939   2.954  44.830  14.005
16844W        W75940  38.505  39.326   2.690
16845W        W75941  21.026  12.224  12.894
16846W        W75942   2.261  43.783  11.541
16847W        W75943  26.989  17.750  13.496
16848W        W75944  36.982  36.588  14.012
16849W        W75945  14.106   3.807   1.865
16850W        W75946  15.085   3.899  11.573
16851W        W75947  33.890  31.424  13.809
16852W        W75948  34.399  26.665   2.826
16853W        W75949  37.951   8.877   1.272
16854W        W75950  34.614  35.532  14.324
16855W        W75951  42.992  28.461   0.401
16856W        W75952  14.107  41.527   4.313
16857W        W75953  12.739  21.753   0.334
16858W        W75954  10.162   8.352  10.123
16859W        W75955  20.178  19.266  12.882
16860W        W75956  25.578  10.138  10.955
16861W        W75957  26.968   8.256  11.069
16862W        W75958  32.489  32.136  12.488
16863W        W75959  24.663  28.143  10.893
16864W        W75960  25.566  31.558  11.375
16865W        W75961  14.697  11.723  12.565
16866W        W75962  32.906  21.654   1.852
16867W        W75963  25.704  19.090   2.880
16868W        W75964   3.932   0.410   3.688
16869W        W75965  29.051   1.452  12.944
16870W        W75966  20.564  11.249  12.970
16871W        W75967  31.594  18.594   2.713
16872W        W75968   5.834   9.345   0.397
16873W        W75969  31.577  30.938  14.782
16874W        W75970  37.051  20.195  13.029
16875W        W75971   2.918  20.179   0.854
16876W        W75972   4.862   8.164  12.025
16877W        W75973  37.955  37.525   2.247
16878W        W75974   7.721  13.337  11.023
16879W        W75975  18.238   6.802  11.374
16880W        W75976  28.579  27.066  13.940
16881W        W75977  11.368  13.619   3.178
16882W        W75978  12.684   4.844  14.427
16883W        W75979   5.851  29.572  14.893
16884W        W75980  19.682  12.630  12.362
16885W        W75981   4.324  31.061  12.539
16886W        W75982  16.319  33.450   3.319
16887W        W75983  12.754  17.698   1.844
16888W        W75984  25.199  38.913  14.986
16889W        W75985  43.008  15.630   2.273
16890W        W75986  13.203  44.362   5.310
16891W        W75987  43.459   3.867   3.672
16892W        W75988  29.625  28.534  11.437
16893W        W75989  27.662   3.442  13.473
16894W        W75990  44.754  36.535   3.205
16895W        W75991  15.729  23.680  11.397
16896W        W75992  43.364  44.813  14.767
16897W        W75993   6.258  43.892   0.910
16898W        W75994  14.320   9.678  13.420
16899W        W75995  26.518  38.062   2.723
16900W        W75996  14.747  17.129   1.344
16901W        W75997   8.323  10.693  14.461
16902W        W75998  41.335  12.166   4.308
16903W        W75999  32.991  33.959   1.245
16904W        W76000  18.785   2.360  14.493
16905W        W76001  19.654  10.207  14.913
16906W        W76002   0.825  33.530  14.494
16907W        W76003  17.634  34.902   2.702
16908W        W76004  40.814  40.544  10.595
16909W        W76005  18.594  17.625   1.778
16910W        W76006  10.693  24.006   3.786
16911W        W76007   2.277   2.388  14.444
16912W        W76008  27.571  42.294  12.443
16913W        W76009  41.996  16.214   1.857
16914W        W76010  22.538  36.873   3.360
16915W        W76011   3.725  10.665   3.270
16916W        W76012  21.263  12.170   1.695
16917W        W76013  22.567  29.521  14.960
16918W        W76014  44.328  12.330   0.743
16919W        W76015   4.240  18.764  13.978
16920W        W76016  32.464   2.878  12.059
16921W        W76017  40.993  20.689  11.548
16922W        W76018   9.208  19.570  11.036
16923W        W76019   7.858  30.548   1.735
16924W        W76020  38.522  13.213  12.401
16925W        W76021  29.479   2.887   2.325
16926W        W76022   4.243   8.186  13.359
16927W        W76023   7.307  26.101  14.467
16928W        W76024  40.933  29.620  11.488
16929W        W76025   9.249  25.101  14.311
16930W        W76026   8.696  37.878   0.267
16931W        W76027   6.406  40.527   2.331
16932W        W76028   4.885  13.260   0.804
16933W        W76029  28.588  11.724  14.491
16934W        W76030  32.983  28.959   0.907
16935W        W76031  26.955  42.007   2.359
16936W        W76032   5.438  37.520   4.313
16937W        W76033  17.600   2.779   2.777
16938W        W76034  22.020  12.122  12.459
16939W        W76035  31.911  14.340   2.330
16940W        W76036  25.204  42.967   4.302
16941W        W76037  32.434  18.772  11.048
16942W        W76038  23.132  12.272  12.930
16943W        W76039  20.069   4.247  11.981
16944W        W76040  42.294  15.668  12.375
16945W        W76041  14.775  44.424   0.766
16946W        W76042   4.240   7.665   0.869
16947W        W76043  30.069  43.897  14.394
16948W        W76044   5.700   7.894   1.449
16949W        W76045   2.850  13.664   0.376
16950W        W76046  19.728  25.146  13.489
16951W        W76047  33.971   3.847   3.768
16952W        W76048  38.557  14.606  12.932
16953W        W76049  11.364  38.554   3.159
16954W        W76050  22.152  40.943  11.439
16955W        W76051  34.408  24.162   1.866
16956W        W76052  30.505  41.296   0.955
16957W        W76053  36.349  14.779   0.745
16958W        W76054  26.059  38.550   1.876
16959W        W76055  21.677  31.092   2.851
16960W        W76056   6.686  15.584   2.691
16961W        W76057  23.539  25.561   3.864
16962W        W76058  25.125  33.493  11.484
16963W        W76059  24.974   2.896   0.366
16964W        W76060  31.896  37.002  11.551
16965W        W76061   7.316  25.076  14.783
16966W        W76062  19.772  14.165   4.260
16967W        W76063  31.101  18.204  12.563
16968W        W76064  23.160  40.887   4.812
16969W        W76065  37.036  26.026   2.847
16970W        W76066  15.611   9.228   3.765
16971W        W76067  14.171  20.230   4.786
16972W        W76068  34.369  27.514   2.673
16973W        W76069  13.637  33.065   3.752
16974W        W76070  31.599   7.280  12.490
16975W        W76071  35.404   6.328  13.842
16976W        W76072   8.702  37.047   4.807
16977W        W76073  13.655  28.457   2.373
16978W        W76074  38.524  32.492   4.742
16979W        W76075  35.038   9.738   2.396
16980W        W76076  32.631   7.860  10.411
16981W        W76077  42.405  36.567   2.343
16982W        W76078   2.364   8.847  13.936
16983W        W76079  44.859  15.677   4.196
16984W        W76080  38.506  36.980  12.855
16985W        W76081  40.831   5.787  12.466
16986W        W76082  35.877  33.933   0.956
16987W        W76083  29.071  30.928  14.925
16988W        W76084   6.815  30.505   0.925
16989W        W76085  10.838  13.676  10.592
16990W        W76086  13.663   8.337  10.419
16991W        W76087  18.206  39.319  11.607
16992W        W76088  18.757  42.822  11.029
16993W        W76089  29.598  26.972   0.368
16994W        W76090  15.764   7.901  11.474
16995W        W76091   6.916  18.780   3.381
16996W        W76092   5.251  39.537   0.823
16997W        W76093  15.248  32.111   2.190
16998W        W76094  15.305  16.302  13.875
16999W        W76095  40.888  32.610   2.740
17000W        W76096  24.005  11.799   1.723
17001W        W76097  26.013  32.601   1.789
17002W        W76098   0.857  14.336  12.979
17003W        W76099  29.437   2.821  10.997
17004W        W76100  23.587  19.206   1.336
17005W        W76101   0.801  29.022  11.008
17006W        W76102  14.661   9.871   4.299
17007W        W76103   7.321  29.961   2.663
17008W        W76104  14.301  22.210  14.841
17009W        W76105  31.071  31.490  14.321
17010W        W76106  37.346  37.537   1.436
17011W        W76107  19.222  22.592  13.402
17012W        W76108  21.119  35.985   1.858
17013W        W76109  42.847  17.705   1.824
17014W        W76110  38.525  39.534  13.415
17015W        W76111  35.534  22.602   3.243
17016W        W76112   9.727   4.274  14.773
17017W        W76113  12.633   3.873   1.321
17018W        W76114  20.674  31.639  13.054
17019W        W76115  32.426  18.714  12.559
17020W        W76116  20.242  41.895  12.892
17021W        W76117  17.065  25.588   2.778
17022W        W76118  16.162  14.655  14.857
17023W        W76119  25.083  34.562   1.699
17024W        W76120  38.438   9.189  13.444
17025W        W76121   4.860  28.650   0.481
17026W        W76122   0.276  24.041   0.965
17027W        W76123  11.828   8.659   5.219
17028W        W76124  24.655  18.592  12.469
17029W        W76125  35.987  37.485  14.922
17030W        W76126  20.635  13.665   4.284
17031W        W76127  17.793   2.864   1.892
17032W        W76128  25.137  14.821  12.904
17033W        W76129  32.415  17.106   0.404
17034W        W76130  23.116  33.091  11.983
17035W        W76131  35.421  27.485  11.067
17036W        W76132  15.175   8.249   3.264
17037W        W76133  36.463  41.426  12.845
17038W        W76134  34.973  30.084   4.177
17039W        W76135  27.189  10.276  14.294
17040W        W76136   1.441  20.207   0.772
17041W        W76137  15.167  18.641   2.272
17042W        W76138  17.713  15.599   2.723
17043W        W76139  10.661  43.451   0.387
17044W        W76140  13.112  21.654   2.271
17045W        W76141   7.730  32.416   4.831
17046W        W76142   5.217  11.812  12.865
17047W        W76143  10.856  33.930   3.737
17048W        W76144  26.165  33.493  10.910
17049W        W76145  28.573  16.212   3.794
17050W        W76146  34.067  15.090   4.313
17051W        W76147  14.721   2.234  10.462
17052W        W76148  29.918  37.413   4.717
17053W        W76149  24.662  21.121  10.452
17054W        W76150  31.936  36.025   9.941
17055W        W76151   0.872   1.863  10.058
17056W        W76152  10.852  31.515   2.679
17057W        W76153  23.522   2.282  10.973
17058W        W76154  32.480  32.111   1.314
17059W        W76155  27.473  30.052   3.248
17060W        W76156   7.226  20.086  13.332
17061W        W76157   7.789  35.939  11.991
17062W        W76158  42.896  35.431   0.807
17063W        W76159  36.507  17.081   1.343
17064W        W76160  34.974  41.538  13.482
17065W        W76161  42.413  40.027  12.527
17066W        W76162  17.590   4.750  13.042
17067W        W76163  37.023   4.434  13.003
17068W        W76164  31.578  36.464   1.827
17069W        W76165  16.753  22.199  12.365
17070W        W76166  21.571  34.989   2.356
17071W        W76167  21.698  14.295  11.469
17072W        W76168   3.942  14.663   3.149
17073W        W76169  40.322   6.706   4.714
17074W        W76170   2.446  31.582   3.730
17075W        W76171  15.785   2.225   4.172
17076W        W76172  17.158  41.441  12.464
17077W        W76173   4.926   7.361  14.954
17078W        W76174  12.218   9.347  14.955
17079W        W76175   4.928  38.950  13.476
17080W        W76176   5.910  21.625  13.060
17081W        W76177   2.373  37.967   0.889
17082W        W76178  24.708  44.472  11.962
17083W        W76179  16.146  44.471   1.856
17084W        W76180   1.841  24.543   3.721
17085W        W76181  22.618  34.003   3.819
17086W        W76182   2.282  19.275   4.197
17087W        W76183   2.272  32.023  13.329
17088W        W76184  44.351  14.319  13.028
17089W        W76185  16.093   9.875   3.355
17090W        W76186  23.687   3.359   2.203
17091W        W76187  21.557  42.905   2.769
17092W        W76188   4.927   2.730  11.995
17093W        W76189  11.194  36.870   4.779
17094W        W76190  15.096   7.817  10.989
17095W        W76191   5.232  14.239  10.901
17096W        W76192   6.776   9.772  13.835
17097W        W76193  33.439  10.223   3.728
17098W        W76194  33.582   7.279  11.995
17099W        W76195  32.470   8.743   1.876
17100W        W76196   4.324  39.514   1.215
17101W        W76197  20.586  18.721  14.854
17102W        W76198  25.004   8.308  12.868
17103W        W76199  26.470  16.776  13.367
17104W        W76200  37.520  40.513  14.294
17105W        W76201  29.649   8.176   0.463
17106W        W76202  19.048  33.615  11.962
17107W        W76203  13.722   6.428  11.916
17108W        W76204  20.205   6.261   3.257
17109W        W76205  21.030  25.062  13.414
17110W        W76206   6.349  17.692   0.260
17111W        W76207  14.104  16.572  12.351
17112W        W76208  30.085  36.505   1.261
17113W        W76209   7.711  40.995   3.632
17114W        W76210  44.367  35.878  13.929
17115W        W76211   7.215  25.983   1.313
17116W        W76212  11.150  40.327   1.431
17117W        W76213  42.322  31.580   4.631
17118W        W76214   3.327  35.911   4.605
17119W        W76215  23.132  26.109   1.327
17120W        W76216  37.975   2.240   3.175
17121W        W76217  12.132  18.565  13.934
17122W        W76218  32.919   1.742   1.297
17123W        W76219  31.974  42.350  12.352
17124W        W76220  23.627  18.738   4.642
17125W        W76221  34.459  11.145   4.702
17126W        W76222  31.108  43.842  11.117
17127W        W76223  37.883  44.350   3.288
17128W        W76224  22.625  24.592  14.480
17129W        W76225   9.313   5.421   1.798
17130W        W76226   8.264  11.219  10.943
17131W        W76227   0.391   4.281   3.776
17132W        W76228  38.555   6.227  10.898
17133W        W76229  20.100  26.119   0.810
17134W        W76230  33.486   7.276   2.288
17135W        W76231   9.708  26.583   4.142
17136W        W76232  31.529  14.202   0.813
17137W        W76233  20.123  21.018   0.805
17138W        W76234  30.644  39.815   3.334
17139W        W76235  24.598  11.663  12.071
17140W        W76236  28.085  25.520   2.408
17141W        W76237   8.300  23.598   0.469
17142W        W76238  22.253   8.246   0.782
17143W        W76239  31.584  10.692   4.274
17144W        W76240   6.710  28.537   2.292
17145W        W76241  28.472  21.632  14.018
17146W        W76242  29.971  23.227   1.355
17147W        W76243  24.113  12.224  13.388
17148W        W76244  34.045  41.847   1.314
17149W        W76245  35.520   0.461   2.881
17150W        W76246  32.943  26.045  14.427
17151W        W76247  19.744  29.542  10.620
17152W        W76248  18.095   5.228  11.909
17153W        W76249  35.515  18.622  12.055
17154W        W76250  30.497  22.233   0.439
17155W        W76251  24.716  15.100  11.086
17156W        W76252  21.029  38.943   1.329
17157W        W76253  40.955   5.272  12.375
17158W        W76254  27.101   0.430  13.489
17159W        W76255  31.021   4.350  13.953
17160W        W76256  44.904  22.014   3.649
17161W        W76257  38.064  22.555   1.745
17162W        W76258  28.136  25.711  11.881
17163W        W76259  39.888  39.061  14.855
17164W        W76260  44.457  27.571   0.901
17165W        W76261  43.975  24.594  11.582
17166W        W76262   8.730  29.659   4.820
17167W        W76263  43.392  42.963   1.227
17168W        W76264  11.262   5.289  12.948
17169W        W76265  10.176  19.536  10.978
17170W        W76266  27.543  11.323  11.605
17171W        W76267  32.437  41.031   1.916
17172W        W76268  25.064  29.638  11.040
17173W        W76269  25.099  34.578   3.366
17174W        W76270  28.104  16.595   0.806
17175W        W76271   5.332  27.961  13.337
17176W        W76272  10.166  21.163   0.792
17177W        W76273  37.026  34.484  14.848
17178W        W76274  41.942  44.300   0.293
17179W        W76275   0.799  31.420   4.146
17180W        W76276  26.191   6.333  11.555
17181W        W76277   1.782   6.892   4.154
17182W        W76278  27.981  26.588   3.276
17183W        W76279  34.606   9.865  13.327
17184W        W76280   4.871  28.484   4.710
17185W        W76281   9.702  19.249   3.763
17186W        W76282  20.153  22.517   0.911
17187W        W76283   9.359  44.771  14.007
17188W        W76284  11.829  19.087  12.415
17189W        W76285  28.654  28.581   3.252
17190W        W76286  14.652  35.360   2.269
17191W        W76287  28.574  41.880   3.336
17192W        W76288  17.724  39.959  12.001
17193W        W76289  33.957  33.036   1.321
17194W        W76290  25.469  12.759   3.842
17195W        W76291  25.582  18.546   3.340
17196W        W76292  25.680  37.470  11.383
17197W        W76293  36.895  30.515  14.398
17198W        W76294  42.296  43.427  13.455
17199W        W76295  13.619  41.939   4.345
17200W        W76296  29.657   7.900   5.111
17201W        W76297   4.412   8.860  12.538
17202W        W76298  31.969  20.150  12.063
17203W        W76299  43.935  18.071  13.812
17204W        W76300  12.344   2.437  12.369
17205W        W76301  15.291   9.246   3.651
17206W        W76302  17.102  41.006   1.715
17207W        W76303  39.852  12.189  12.377
17208W        W76304  42.414  15.208  12.058
17209W        W76305  32.525  13.160   1.399
17210W        W76306  19.609  32.021  10.892
17211W        W76307  20.625  24.001  14.344
17212W        W76308  15.630  34.931   3.783
17213W        W76309  42.387   4.897   0.966
17214W        W76310  24.060  27.625  11.520
17215W        W76311  24.006  15.653   3.712
17216W        W76312  21.191  12.223   0.374
17217W        W76313  26.002  42.381   4.804
17218W        W76314  24.092  44.842  12.944
17219W        W76315   3.753  25.598  12.378
17220W        W76316  41.787  42.946  13.048
17221W        W76317   2.466  22.550  12.826
17222W        W76318   0.954  22.625  11.880
17223W        W76319  40.904  15.711  12.435
17224W        W76320  41.837  10.726  14.383
17225W        W76321   8.717  38.998   2.362
17226W        W76322  44.492  14.696   0.403
17227W        W76323   5.801   4.698   4.188
17228W        W76324   3.807   2.773  11.114
17229W        W76325  12.215  35.471   0.802
17230W        W76326  22.111  13.742  11.525
17231W        W76327  30.131  22.745  13.313
17232W        W76328  32.498  11.212  10.501
17233W        W76329  24.155  44.772   0.892
17234W        W76330  16.217  30.614   5.097
17235W        W76331   8.309  19.681  11.856
17236W        W76332  18.200   0.444   4.824
17237W        W76333   5.403  37.446   3.705
17238W        W76334  31.570  24.640  13.875
17239W        W76335  41.841  15.111  10.481
17240W        W76336  16.634  42.813   2.269
17241W        W76337  29.159   4.241   1.880
17242W        W76338  29.468  41.968   1.425
17243W        W76339  29.532   9.773  10.522
17244W        W76340  18.722  24.147   2.300
17245W        W76341  36.082  13.166  11.993
17246W        W76342   8.195  35.556  11.993
17247W        W76343  28.144  35.582  14.973
17248W        W76344   1.409   5.407   0.838
17249W        W76345  23.643   0.330   1.886
17250W        W76346   0.914  21.690   1.798
17251W        W76347  22.071  44.499   4.701
17252W        W76348  13.229  27.560  10.907
17253W        W76349  10.878  22.167   0.820
17254W        W76350  16.296  28.979   4.196
17255W        W76351  36.552  42.474  14.964
17256W        W76352  30.578  33.946   1.354
17257W        W76353  22.703  27.090  11.879
17258W        W76354   1.795  33.384   1.913
17259W        W76355  35.417  39.825   2.731
17260W        W76356  26.155  28.679  10.929
17261W        W76357  17.746  19.216  13.062
17262W        W76358   2.379  36.862  11.598
17263W        W76359  17.178  22.744  14.911
17264W        W76360  43.360  23.547   2.410
17265W        W76361  40.982  14.692  13.985
17266W        W76362   6.827  26.663  14.841
17267W        W76363  43.900  27.991   4.747
17268W        W76364  37.931  26.112   4.129
17269W        W76365   4.817  37.341  11.418
17270W        W76366  26.628  27.954   2.856
17271W        W76367  13.665   5.211   3.205
17272W        W76368  42.941   4.362   2.271
17273W        W76369   3.332  23.047  13.855
17274W        W76370  35.918  16.711   0.767
17275W        W76371  41.517   0.982  14.852
17276W        W76372  43.894  20.590   1.422
17277W        W76373  39.833   9.230   3.248
17278W        W76374  33.977   1.449   3.244
17279W        W76375   6.757   6.870   1.924
17280W        W76376  41.858  25.677   4.732
17281W        W76377  29.426  13.202   2.291
17282W        W76378  43.916  38.529   4.157
17283W        W76379  17.236  35.525  13.329
17284W        W76380  39.825  25.045   2.244
17285W        W76381  29.964  33.510   0.426
17286W        W76382  25.111   0.450   4.761
17287W        W76383  25.699   2.833   2.736
17288W        W76384  33.044  39.817  10.907
17289W        W76385   2.827  29.926   3.279
17290W        W76386  22.684   6.883  14.848
17291W        W76387   1.408  27.948  12.557
17292W        W76388   1.357  39.437  11.470
17293W        W76389  34.054  37.859  10.442
17294W        W76390  20.187   0.478   0.753
17295W        W76391   5.819   2.359   3.148
17296W        W76392  43.999  43.509  10.436
17297W        W76393  36.853  24.053  12.016
17298W        W76394  31.054  16.300  14.371
17299W        W76395  14.207   8.243   4.836
17300W        W76396  24.607  24.109  11.599
17301W        W76397  44.309  18.065  10.453
17302W        W76398   3.298  24.659  11.600
17303W        W76399   4.392  40.546  11.096
17304W        W76400  38.556  27.061  14.927
17305W        W76401  40.380  30.119   3.752
17306W        W76402  44.764  35.951  12.933
17307W        W76403  23.694  13.679  12.361
17308W        W76404  10.658   2.251   3.150
17309W        W76405  35.082  24.597   3.636
17310W        W76406  35.373  20.081  10.459
17311W        W76407  33.986  42.305  14.030
17312W        W76408  30.920   0.488   1.420
17313W        W76409   4.783  11.263   3.191
17314W        W76410  25.541  44.929   0.347
17315W        W76411   1.240  28.613  14.896
17316W        W76412  26.529  41.865   3.233
17317W        W76413  28.989  26.548   3.648
17318W        W76414  35.433   6.411  14.899
17319W        W76415  41.330  24.101  10.586
17320W        W76416  42.382  19.239  13.881
17321W        W76417  40.945  20.744  14.285
17322W        W76418  23.718   6.679  11.037
17323W        W76419  21.065  37.076   4.695
17324W        W76420  18.743  18.268  10.622
17325W        W76421  34.073   2.269  11.586
17326W        W76422  39.049  16.700   1.903
17327W        W76423  34.877  13.828  12.060
17328W        W76424  44.472  35.023   3.340
17329W        W76425  19.051  32.403   2.754
17330W        W76426  43.818  22.038  12.351
17331W        W76427  16.097  31.490  11.477
17332W        W76428  24.646  43.950  11.929
17333W        W76429   3.289   6.400   3.659
17334W        W76430  30.150  39.019   0.961
17335W        W76431  31.533  21.744   4.135
17336W        W76432  11.831  10.738   3.221
17337W        W76433   1.394   9.884  11.482
17338W        W76434  37.841  21.258   3.711
17339W        W76435  19.653  34.428  11.375
17340W        W76436  24.700  43.449   0.267
17341W        W76437   1.941  33.599   0.481
17342W        W76438  43.489   0.347  13.973
17343W        W76439   7.334  19.226  11.934
17344W        W76440  16.581  30.940  10.435
17345W        W76441  20.069  12.694  10.449
17346W        W76442   5.312  26.642   1.701
17347W        W76443  21.619  12.676  13.518
17348W        W76444  28.615  13.658   3.231
17349W        W76445  10.786   1.791  12.435
17350W        W76446  28.583  27.139   1.369
17351W        W76447  29.009  41.523   0.405
17352W        W76448  21.130  12.213  11.458
17353W        W76449  19.689  18.093   1.699
17354W        W76450  24.028  43.472  14.792
17355W        W76451  20.253  43.272   2.198
17356W        W76452  14.671  21.733   2.767
17357W        W76453  43.914  27.619  13.496
17358W        W76454  36.419  21.177  12.894
17359W        W76455  34.473  38.981   3.366
17360W        W76456  15.215  31.567  14.917
17361W        W76457   6.362   0.388   3.864
17362W        W76458   4.767  29.004  12.405
17363W        W76459  22.252  27.101  10.440
17364W        W76460  22.212   9.239  13.457
17365W        W76461  21.524  12.343  14.476
17366W        W76462  39.832  14.265  13.361
17367W        W76463  44.953  38.067  11.883
17368W        W76464  37.994  23.177   3.271
17369W        W76465  34.119  40.415  11.934
17370W        W76466  20.129  21.633  10.547
17371W        W76467   4.849   0.904   4.176
17372W        W76468  36.079  27.616  14.775
17373W        W76469  30.910   3.237   4.315
17374W        W76470  29.559   8.275   1.342
17375W        W76471  18.253  37.958  11.385
17376W        W76472   5.690  13.623   0.382
17377W        W76473   6.737  30.610  14.899
17378W        W76474  27.039  28.043   1.862
17379W        W76475   0.299  35.994   1.883
17380W        W76476  36.484  44.400   0.912
17381W        W76477  33.986  37.964  12.397
17382W        W76478  41.405   4.751   2.902
17383W        W76479   1.253  26.627  12.502
17384W        W76480  40.362  39.994  12.463
17385W        W76481  26.550  18.173  14.505
17386W        W76482   5.703  37.382  14.895
17387W        W76483  43.312   8.686   1.881
17388W        W76484  44.408  18.207  12.935
17389W        W76485  15.822  38.487   0.821
17390W        W76486  25.638  43.859   2.181
17391W        W76487  19.185   3.386  12.043
17392W        W76488   5.847  25.008  14.324
17393W        W76489  29.163  21.734   0.777
17394W        W76490   5.785  44.345   4.736
17395W        W76491  41.459  19.254   2.818
17396W        W76492  38.394  21.031  14.996
17397W        W76493   9.737  19.580  13.347
17398W        W76494   9.259  32.000   1.256
17399W        W76495  43.450  44.757   4.177
17400W        W76496  25.216  25.621  12.348
17401W        W76497   6.688  33.000  14.413
17402W        W76498  40.438   5.216  12.870
17403W        W76499  39.517  34.474  13.516
17404W        W76500   9.289  35.048  11.949
17405W        W76501  18.123   7.756  10.887
17406W        W76502  35.585  33.568   3.322
17407W        W76503  36.392  14.211  11.996
17408W        W76504  12.248  32.449   4.648
17409W        W76505  21.229  19.683  13.949
17410W        W76506   3.950   1.762  11.055
17411W        W76507  19.712  40.400  14.812
17412W        W76508  33.907  22.712  14.833
17413W        W76509  11.847  19.280   3.852
17414W        W76510  38.567  38.837   0.856
17415W        W76511   8.213   2.314  14.782
17416W        W76512  34.871   6.688   1.274
17417W        W76513  17.126   9.648  10.064
17418W        W76514  44.278  31.508   5.089
17419W        W76515  33.404  35.071  13.993
17420W        W76516  12.741  25.063  12.841
17421W        W76517   3.288  35.405  12.888
17422W        W76518  12.263  20.128   3.349
17423W        W76519  12.119  36.421  13.884
17424W        W76520  33.558  43.284   4.146
17425W        W76521  31.520  43.001   4.620
17426W        W76522  33.578  40.047   4.172
17427W        W76523  20.644   6.376  11.372
17428W        W76524  28.075  32.471  13.348
17429W        W76525  28.470  41.371  14.454
17430W        W76526  17.672  24.100   1.325
17431W        W76527  42.304   6.856   1.730
17432W        W76528  16.798  40.405  14.472
17433W        W76529  15.279  25.030  12.032
17434W        W76530  27.519  36.561   1.259
17435W        W76531  43.007   0.362   3.804
17436W        W76532  42.370  33.484   4.705
17437W        W76533  20.687  24.003  12.403
17438W        W76534  10.142  26.989   2.725
17439W        W76535  25.007  11.229   3.687
17440W        W76536  15.775  40.421  12.543
17441W        W76537   1.333  27.471   4.244
17442W        W76538  41.533  30.562   1.283
17443W        W76539  20.572   2.857   2.286
17444W        W76540  33.935  35.071  10.483
17445W        W76541  30.980   1.277  12.514
17446W        W76542  14.331  20.261   2.200
17447W        W76543  29.030  44.000   2.190
17448W        W76544  43.919   4.382   2.365
17449W        W76545  24.503  42.282  13.963
17450W        W76546  24.497   1.884   2.377
17451W        W76547  42.907  19.251  10.622
17452W        W76548  33.565   9.339  13.058
17453W        W76549  43.881  19.066   3.664
17454W        W76550  16.758  43.819   2.319
17455W        W76551  23.542   0.418  13.996
17456W        W76552  27.535   8.388  13.322
17457W        W76553  16.753   6.257   0.875
17458W        W76554   6.304  40.359  13.346
17459W        W76555  24.043  26.687  12.038
17460W        W76556  25.685   6.867   2.397
17461W        W76557  34.511   8.374  14.371
17462W        W76558  40.325   4.699  10.516
17463W        W76559  23.123  24.130   0.762
17464W        W76560  30.929  34.111  13.396
17465W        W76561  17.105   1.385  14.287
17466W        W76562  19.262  43.766  12.893
17467W        W76563  27.177  36.068   2.844
17468W        W76564  37.477  27.593   3.380
17469W        W76565  35.358   1.321  10.917
17470W        W76566  30.436  41.415   4.614
17471W        W76567  24.655  32.116   3.323
17472W        W76568  41.021  17.219  14.289
17473W        W76569  17.248   2.301   1.296
17474W        W76570  18.229   6.881   3.712
17475W        W76571   4.247  12.788   4.726
17476W        W76572  40.371   8.283  13.376
17477W        W76573  15.311  27.182  13.987
17478W        W76574  28.436   8.284   2.216
17479W        W76575  40.046  17.306   4.610
17480W        W76576   7.182  15.820  12.397
17481W        W76577  10.275  19.115  14.918
17482W        W76578   5.688  35.859   3.727
17483W        W76579  20.651  31.051   3.205
17484W        W76580  10.368  19.194  12.957
17485W        W76581   3.220  40.517  13.397
17486W        W76582  13.780  27.657   2.890
17487W        W76583  42.327  22.633   0.906
17488W        W76584  13.747  21.105   3.257
17489W        W76585  10.160  24.505  13.038
17490W        W76586  41.319   1.880   3.712
17491W        W76587  23.224   0.421   3.851
17492W        W76588  15.719  14.622  11.091
17493W        W76589  30.520  35.556  10.483
17494W        W76590  18.238  15.642   3.287
17495W        W76591  36.925   1.818  13.480
17496W        W76592  16.665  37.968  12.911
17497W        W76593  35.954  36.428   0.880
17498W        W76594  39.892  20.105  10.433
17499W        W76595  12.266  31.548   4.265
17500W        W76596  24.678  21.624  10.952
17501W        W76597  23.005  34.951   2.288
17502W        W76598   5.861  35.974   4.163
17503W        W76599  26.010  31.581   0.884
17504W        W76600   9.652  41.986   4.233
17505W        W76601  31.114  13.686  11.057
17506W        W76602  44.448   6.692   2.709
17507W        W76603  21.150  31.125  10.539
17508W        W76604  12.270  24.635  10.480
17509W        W76605  27.608   4.736  14.502
17510W        W76606  35.989   4.918  10.930
17511W        W76607  41.326   1.384  10.956
17512W        W76608   8.375  35.980  11.972
17513W        W76609  17.167  35.423  14.360
17514W        W76610  37.946   2.849  11.086
17515W        W76611  25.662  21.019  11.112
17516W        W76612  38.908  14.291  11.917
17517W        W76613  39.356  16.744  14.357
17518W        W76614  33.382  14.743   2.872
17519W        W76615   5.770  43.871  13.980
17520W        W76616  31.036   6.874   3.227
17521W        W76617  43.317   4.348   4.236
17522W        W76618  21.220  34.914   3.286
17523W        W76619  12.316  19.236   2.740
17524W        W76620   0.987  38.027   3.302
17525W        W76621   2.350  27.134  14.819
17526W        W76622  22.695  33.583  13.445
17527W        W76623   4.749   8.215   1.907
17528W        W76624  20.173  32.006  14.017
17529W        W76625   5.889   7.345   3.847
17530W        W76626  41.297  32.119  10.455
17531W        W76627  35.445  25.672   1.804
17532W        W76628  32.137  41.937   1.718
17533W        W76629  19.117  17.652   0.246
17534W        W76630  14.830   3.377   5.313
17535W        W76631  10.157   6.315   2.407
17536W        W76632   2.801  44.372   3.158
17537W        W76633  15.646   9.247  14.459
17538W        W76634  20.046  17.786  12.025
17539W        W76635  43.898  43.986   4.202
17540W        W76636  11.751  38.327   0.908
17541W        W76637  26.517  42.802  12.435
17542W        W76638  39.016  26.658  12.041
17543W        W76639  23.502   6.843   1.788
17544W        W76640  32.963  16.581   0.776
17545W        W76641   4.344  20.604   4.628
17546W        W76642  12.693   1.922   1.863
17547W        W76643  31.614  19.757  14.911
17548W        W76644  27.036   2.807  10.489
17549W        W76645  27.154  20.706   4.186
17550W        W76646  40.318  25.508  12.462
17551W        W76647   2.956  26.190  12.380
17552W        W76648  27.167  30.614   0.464
17553W        W76649  40.339  22.599   1.296
17554W        W76650   4.855  31.600  10.008
17555W        W76651  32.932  43.764  14.413
17556W        W76652  25.535   2.460   1.919
17557W        W76653  29.114  25.643   4.168
17558W        W76654   9.797  10.805   3.192
17559W        W76655  25.172  34.486   5.313
17560W        W76656   2.315  22.531   0.280
17561W        W76657   2.856  42.390   3.190
17562W        W76658  33.012  14.733  14.429
17563W        W76659  31.462  40.996  10.498
17564W        W76660  11.209  16.603   3.775
17565W        W76661  19.646   3.387   2.246
17566W        W76662  26.676  18.214  14.767
17567W        W76663  19.688  27.115  13.430
17568W        W76664  19.632   4.328   3.853
17569W        W76665   0.911  42.320  11.977
17570W        W76666   9.733  22.548  14.817
17571W        W76667  20.268  28.020  13.379
17572W        W76668   9.247  24.675   3.826
17573W        W76669   3.804  29.088   4.673
17574W        W76670  14.115  42.013   4.305
17575W        W76671  43.432  14.224   3.729
17576W        W76672   4.889   8.673   3.640
17577W        W76673  25.010  17.774   0.418
17578W        W76674  10.376  27.615  14.487
17579W        W76675   0.370   1.735  13.336
17580W        W76676  34.549   1.427   4.257
17581W        W76677   8.303  21.064  13.401
17582W        W76678  15.288  19.075   3.192
17583W        W76679   6.415  18.066  12.509
17584W        W76680  26.954  39.914  11.573
17585W        W76681  28.056  19.680   4.342
17586W        W76682  38.568  13.201  13.374
17587W        W76683  35.403  40.875   4.183
17588W        W76684  35.883   2.381   2.209
17589W        W76685   3.253   3.461  14.509
17590W        W76686   6.797   6.816   0.863
17591W        W76687   5.256  16.702  11.004
17592W        W76688  35.869  20.082  11.062
17593W        W76689  14.597  11.633  14.435
17594W        W76690  11.225  25.704   4.837
17595W        W76691  10.653   9.734   2.694
17596W        W76692   5.881  41.333   2.797
17597W        W76693  22.615  28.112  11.054
17598W        W76694   0.797  39.315   1.923
17599W        W76695  37.440  35.886   1.926
17600W        W76696  38.534  35.479  14.366
17601W        W76697  14.208  43.282   2.417
17602W        W76698  34.546  30.422  10.966
17603W        W76699  28.458  42.298   3.851
17604W        W76700  29.043   5.894  11.012
17605W        W76701  24.071  10.162   2.662
17606W        W76702  43.813   8.723   1.824
17607W        W76703  27.513  37.021   2.807
17608W        W76704   8.727  44.312  11.456
17609W        W76705  24.228  41.339   0.907
17610W        W76706  30.024  19.703  14.857
17611W        W76707   8.715  31.920   2.223
17612W        W76708  16.231  38.488  13.884
17613W        W76709  43.947  33.938  13.358
17614W        W76710  21.634  22.669   3.800
17615W        W76711  31.950  21.027   4.837
17616W        W76712  33.454  26.087  12.974
17617W        W76713  44.346  26.087  14.366
17618W        W76714  31.934  21.575   2.769
17619W        W76715  20.225   8.266  14.010
17620W        W76716  25.140  42.812   1.849
17621W        W76717   5.754   0.263   4.233
17622W        W76718  23.720  28.041  14.796
17623W        W76719  15.250  10.159  12.408
17624W        W76720   2.768  30.070  13.522
17625W        W76721  15.132  37.038   1.857
17626W        W76722  28.172  25.706   1.840
17627W        W76723  29.142  29.524  14.778
17628W        W76724  11.322   1.930  13.849
17629W        W76725  26.504   2.411   4.325
17630W        W76726  35.034  18.587  13.792
17631W        W76727   6.239  17.676  11.484
17632W        W76728  12.855  14.252   3.150
17633W        W76729  42.923  43.434   1.237
17634W        W76730   8.366  21.038  12.447
17635W        W76731  11.807  12.126   3.810
17636W        W76732  36.492  29.508  14.464
17637W        W76733  44.943   6.693   1.759
17638W        W76734  13.323  38.511  11.911
17639W        W76735  41.996  24.986   9.929
17640W        W76736  39.944  37.953  12.536
17641W        W76737   4.817   0.294  13.397
17642W        W76738  22.091  27.027  11.542
17643W        W76739  27.963  34.942  13.990
17644W        W76740  28.650  14.596  13.405
17645W        W76741  20.117   9.843   2.266
17646W        W76742  39.542   9.223   2.870
17647W        W76743  31.622  14.235  14.433
17648W        W76744   7.392   0.786   0.947
17649W        W76745   6.762  16.166   3.794
17650W        W76746  15.112   4.894  11.587
17651W        W76747   2.774   9.346   4.221
17652W        W76748  36.882  26.002  12.965
17653W        W76749  37.574  12.312  13.919
17654W        W76750   9.822  30.927   1.341
17655W        W76751  33.492   6.716   2.816
17656W        W76752  23.177  21.105   2.764
17657W        W76753  12.827  40.806  11.487
17658W        W76754  33.930  22.555   3.255
17659W        W76755  12.203  36.470   0.273
17660W        W76756  30.458  44.928   4.597
17661W        W76757  43.290  35.866  10.548
17662W        W76758  37.867  42.428  11.942
17663W        W76759  25.980  35.085  11.903
17664W        W76760  10.157   2.279  12.872
17665W        W76761  33.001  40.982   4.202
17666W        W76762   2.388  40.394  10.610
17667W        W76763  33.477  29.598  13.432
17668W        W76764  15.093  42.979  13.815
17669W        W76765  26.013  21.093   0.908
17670W        W76766   0.967  18.249   0.782
17671W        W76767   2.783   5.692  13.845
17672W        W76768  21.571  31.955   1.695
17673W        W76769  17.699  19.587   4.636
17674W        W76770  10.145  34.391   3.257
17675W        W76771  12.847   7.786  11.869
17676W        W76772  34.900  42.998   2.728
17677W        W76773  26.703  24.713  12.369
17678W        W76774  27.187  26.694   3.286
17679W        W76775  13.703   7.380   0.263
17680W        W76776  16.568  13.770   4.643
17681W        W76777  36.070   6.224   2.685
17682W        W76778  11.182  20.583  12.028
17683W        W76779   9.837  14.770  13.528
17684W        W76780  28.952  23.509  11.579
17685W        W76781  30.587  38.540  13.037
17686W        W76782  41.857  23.088  14.490
17687W        W76783  30.552  41.922   2.195
17688W        W76784  20.128   7.794  11.382
17689W        W76785  10.868  24.995   1.436
17690W        W76786  41.861  28.437  10.644
17691W        W76787  15.209  19.585   3.167
17692W        W76788  13.738  43.947   2.310
17693W        W76789  24.479   0.857  11.880
17694W        W76790  20.031  14.250  12.834
17695W        W76791  10.245  13.844   2.320
17696W        W76792  31.018  12.616   0.341
17697W        W76793  11.214  24.214  10.555
17698W        W76794  43.361   2.237   2.707
17699W        W76795  31.011  24.216  11.915
17700W        W76796  41.487  41.845  14.830
17701W        W76797  30.510   2.926   3.741
17702W        W76798  27.979  38.437   3.654
17703W        W76799   3.943   4.317   2.404
17704W        W76800  14.626  39.833  12.885
17705W        W76801   6.679  44.761   4.612
17706W        W76802  41.341  29.521   0.414
17707W        W76803  40.463  13.667   4.758
17708W        W76804  27.663  22.218  11.553
17709W        W76805  23.535  34.496  12.512
17710W        W76806  37.833  24.183   4.817
17711W        W76807  42.027  35.030   1.232
17712W        W76808  32.023  13.602   4.221
17713W        W76809   0.820  43.007   1.814
17714W        W76810  14.593   1.836  12.389
17715W        W76811  12.344  36.855  12.373
17716W        W76812   7.321  15.261   3.317
17717W        W76813  34.398  26.001  10.915
17718W        W76814  39.872  24.215   3.272
17719W        W76815  12.616  21.575   1.270
17720W        W76816  26.025  32.620  11.110
17721W        W76817  44.803  22.116  12.878
17722W        W76818  44.333  20.588   1.756
17723W        W76819  25.077  27.593  12.439
17724W        W76820  28.469  21.048  14.854
17725W        W76821  28.477  22.017   2.230
17726W        W76822  32.560  39.483  12.046
17727W        W76823  15.703   2.444  12.853
17728W        W76824  29.448  14.324   3.360
17729W        W76825  27.171  13.737  12.072
17730W        W76826  40.931  17.121   2.834
17731W        W76827  18.578  40.305  10.608
17732W        W76828  12.723  40.930  13.955
17733W        W76829  41.848   2.302  14.891
17734W        W76830  19.201  26.510  12.999
17735W        W76831   9.818  21.687   3.194
17736W        W76832  12.309   3.340   4.743
17737W        W76833  32.043  39.002   2.770
17738W        W76834  36.421  30.518   0.430
17739W        W76835  21.641  14.749   4.711
17740W        W76836  37.018  17.235  13.437
17741W        W76837   5.302  23.158  13.328
17742W        W76838  10.707   9.683  11.383
17743W        W76839  41.953  20.577  14.935
17744W        W76840  24.533  34.088  11.464
17745W        W76841  26.596  38.375   2.248
17746W        W76842  13.203  44.866  12.957
17747W        W76843  42.359   5.339  14.472
17748W        W76844   8.237  43.939  10.476
17749W        W76845   5.252  23.241  11.970
17750W        W76846   1.911  20.673  12.391
17751W        W76847  38.936  15.625  10.062
17752W        W76848  35.084   0.974   3.208
17753W        W76849  36.985  20.114   2.800
17754W        W76850  13.619  24.536  14.349
17755W        W76851   2.436  18.738  10.623
17756W        W76852  14.282   9.670  12.059
17757W        W76853  31.504   3.218   1.425
17758W        W76854  31.118   0.925   5.156
17759W        W76855  33.045  40.046   3.281
17760W        W76856  37.991   5.396  13.499
17761W        W76857  37.888  12.843  11.950
17762W        W76858  37.357   8.866  10.118
17763W        W76859   2.351  27.559  11.070
17764W        W76860  39.976  41.322   0.257
17765W        W76861  40.544   0.318   3.862
17766W        W76862   3.239  31.989   3.841
17767W        W76863  32.544  24.541   1.773
17768W        W76864  43.798  29.097  10.597
17769W        W76865  26.513  21.226  14.820
17770W        W76866   5.333  12.350  10.549
17771W        W76867  11.706  10.823   1.445
17772W        W76868   1.323  35.878   1.276
17773W        W76869  12.697  43.843  12.958
17774W        W76870  43.794   1.784  13.372
17775W        W76871   5.862  25.589  14.436
17776W        W76872  20.629  22.740   3.786
17777W        W76873   6.827  27.646   2.669
17778W        W76874  12.291   7.284  11.092
17779W        W76875  27.108  36.456  14.811
17780W        W76876  14.742  25.042  13.818
17781W        W76877  12.794  23.736  12.880
17782W        W76878   2.363  25.148  12.067
17783W        W76879  19.640  13.107  11.992
17784W        W76880  37.366  23.558  13.862
17785W        W76881  32.569  18.731   3.356
17786W        W76882  38.061  27.025   4.251
17787W        W76883  44.902  23.599   3.805
17788W        W76884  28.439  15.737  14.315
17789W        W76885  37.527  12.619  13.044
17790W        W76886  17.723  20.081  11.084
17791W        W76887  33.565   2.353   1.331
17792W        W76888  32.028  20.044   1.357
17793W        W76889  21.196   7.876  10.529
17794W        W76890  27.448   6.200   0.829
17795W        W76891  32.038   3.403   1.874
17796W        W76892  31.639  22.589  14.451
17797W        W76893  29.151  33.120  14.847
17798W        W76894   8.679  18.136   1.720
17799W        W76895  13.764   1.425  12.546
17800W        W76896  27.638  25.664   3.668
17801W        W76897   9.871   0.900   1.875
17802W        W76898  27.590  41.004  11.092
17803W        W76899   7.267  14.699  14.423
17804W        W76900  32.081  41.874   3.656
17805W        W76901  40.003  31.060   3.867
17806W        W76902  28.652  20.220  10.559
17807W        W76903  16.691  35.400  11.932
17808W        W76904  44.786  37.399   2.887
17809W        W76905  35.416  41.522   2.235
17810W        W76906  13.772  40.972   2.333
17811W        W76907  18.583  32.536   2.225
17812W        W76908  18.598  20.094   2.321
17813W        W76909  12.334  20.631   4.341
17814W        W76910   9.691   6.243   3.843
17815W        W76911  39.541  24.995  10.934
17816W        W76912  17.588   4.216  11.960
17817W        W76913  32.421  29.475  11.016
17818W        W76914  25.611  12.262  12.498
17819W        W76915  32.394  44.797   4.289
17820W        W76916  14.687   8.863   3.336
17821W        W76917   8.231   8.717   5.230
17822W        W76918   7.758  18.583   2.366
17823W        W76919   1.779   5.325  12.980
17824W        W76920  38.848   7.893  11.378
17825W        W76921  35.936  15.637   5.744
17826W        W76922  33.958  26.959  12.839
17827W        W76923  22.719  25.124  10.138
17828W        W76924  15.300  31.128  14.900
17829W        W76925  17.101  14.123   1.277
17830W        W76926   0.975  31.464   1.883
17831W        W76927  39.524  19.248   0.793
17832W        W76928  24.564   6.826  12.952
17833W        W76929  22.241  35.365  10.598
17834W        W76930  14.179  26.040  13.533
17835W        W76931  35.940  16.737   9.533
17836W        W76932  42.521  24.131   0.470
17837W        W76933  24.044  11.662   4.309
17838W        W76934  15.104  30.139   1.428
17839W        W76935  35.956   2.938   0.913
17840W        W76936  40.492   8.734  14.331
17841W        W76937  35.015  23.195  13.926
17842W        W76938  14.716  17.703  12.407
17843W        W76939  32.509  18.235   3.319
17844W        W76940   9.646  10.355   2.816
17845W        W76941  23.046  20.531   4.664
17846W        W76942  19.740  27.594  11.962
17847W        W76943  40.903  32.475  11.594
17848W        W76944  11.294  22.573   4.174
17849W        W76945  30.942  12.155   2.822
17850W        W76946  37.436   5.320   3.164
17851W        W76947  42.866  37.043  12.527
17852W        W76948  11.816   9.751  14.830
17853W        W76949  29.528  34.043   1.353
17854W        W76950  14.134  21.709   3.865
17855W        W76951  22.623  16.777  12.830
17856W        W76952  41.961  25.673   0.756
17857W        W76953  29.533  16.096  11.075
17858W        W76954  10.170  34.897  10.626
17859W        W76955  28.145  17.190   1.812
17860W        W76956   0.352  44.390   3.200
17861W        W76957   4.227  17.246   3.633
17862W        W76958  42.482   6.407   3.726
17863W        W76959  42.806  33.131   9.921
17864W        W76960  34.392  31.122  13.420
17865W        W76961  34.048   4.304  13.907
17866W        W76962   5.695   4.380  11.590
17867W        W76963  12.614   8.320  13.323
17868W        W76964  23.079  13.334   0.403
17869W        W76965   7.896  25.708  14.401
17870W        W76966  11.700  33.619  10.421
17871W        W76967  43.302   3.268  10.528
17872W        W76968  35.053   9.791   3.659
17873W        W76969   2.463  11.743   4.770
17874W        W76970  30.422   3.948  12.358
17875W        W76971  40.549  28.015   4.199
17876W        W76972  32.622   3.752  14.845
17877W        W76973  26.484   9.870   3.682
17878W        W76974  31.138  24.070  11.604
17879W        W76975  32.409  43.872   0.280
17880W        W76976  43.496   4.913  10.588
17881W        W76977  33.398  13.282   3.327
17882W        W76978  43.459  42.826   3.318
17883W        W76979  37.498  28.118  13.452
17884W        W76980  20.178  11.181   4.119
17885W        W76981  15.141  12.236   0.339
17886W        W76982  27.502   5.313   4.141
17887W        W76983  17.572  39.947   1.919
17888W        W76984  43.416  14.179  11.016
17889W        W76985  39.517   7.755  11.976
17890W        W76986  41.470   0.349   3.795
17891W        W76987  44.498  23.687  13.382
17892W        W76988   7.402   0.314   4.659
17893W        W76989  26.092  33.407  10.572
17894W        W76990  28.649  23.200   2.415
17895W        W76991   4.931  24.562  12.832
17896W        W76992  31.604   0.873  12.451
17897W        W76993   0.932  25.051   3.231
17898W        W76994   5.252  43.906  11.519
17899W        W76995   4.287   9.339   0.903
17900W        W76996   5.384  32.632   1.296
17901W        W76997  37.481  13.111  13.824
17902W        W76998  13.772   0.884  10.964
17903W        W76999  40.424   2.734   3.244
17904W        W77000  44.440  41.505   4.203
17905W        W77001  22.539  22.643   1.297
17906W        W77002  24.485  22.649  10.644
17907W        W77003  20.051  41.423  10.079
17908W        W77004  28.658  31.541   3.365
17909W        W77005  14.150  24.714   4.300
17910W        W77006  43.364  11.257   0.310
17911W        W77007  18.255  31.463   3.386
17912W        W77008  30.147  26.564  12.536
17913W        W77009   8.309  44.347  11.069
17914W        W77010   9.332  42.347  13.028
17915W        W77011  29.933  26.203   0.415
17916W        W77012   1.919  40.430   0.880
17917W        W77013  37.850   3.393   4.182
17918W        W77014  29.516  38.536   0.298
17919W        W77015  35.897   7.846   4.621
17920W        W77016  17.721  14.106   4.696
17921W        W77017  29.169  26.033   4.835
17922W        W77018   8.810   9.860  11.952
17923W        W77019  22.192  26.687  13.369
17924W        W77020  43.466  38.041   4.113
17925W        W77021  18.269  30.416   3.360
17926W        W77022  13.711  12.295   0.943
17927W        W77023   7.895   3.434  12.515
17928W        W77024  24.162   0.790  10.005
17929W        W77025  11.180   6.310  14.923
17930W        W77026  29.641   2.308   1.794
17931W        W77027  21.725  39.900   0.814
17932W        W77028  39.956  41.496  11.976
17933W        W77029  35.523  13.676  12.026
17934W        W77030  38.354   1.883   4.142
17935W        W77031  10.738  17.186   3.166
17936W        W77032  24.681  11.236  12.095
17937W        W77033  39.467  35.868  14.014
17938W        W77034  28.036  28.489   2.839
17939W        W77035  26.632  16.761   1.839
17940W        W77036  21.029   6.295   0.274
17941W        W77037  24.202  25.582  14.464
17942W        W77038  37.873  31.630   3.849
17943W        W77039  37.893   0.291  12.339
17944W        W77040  44.476  20.667  12.905
17945W        W77041  10.147  44.853  12.877
17946W        W77042  21.043  42.996   2.284
17947W        W77043  24.505  19.770  12.480
17948W        W77044  12.362  40.410  13.310
17949W        W77045  13.317  14.101  11.550
17950W        W77046  19.127  20.117  14.925
17951W        W77047  41.935  18.082  10.008
17952W        W77048  44.387  29.646  13.497
17953W        W77049  22.094   4.859   2.689
17954W        W77050   5.785  44.769   1.792
17955W        W77051  15.270  34.030  14.866
17956W        W77052  34.614  10.248   0.277
17957W        W77053  30.930  30.505  13.470
17958W        W77054  29.659  30.011   3.364
17959W        W77055  18.250  41.019   3.819
17960W        W77056  16.654  25.048  13.360
17961W        W77057   5.744  33.021   4.350
17962W        W77058  20.181  44.489  13.404
17963W        W77059   8.870   2.437   4.225
17964W        W77060  14.135  33.469  11.547
17965W        W77061  41.979  10.650   2.847
17966W        W77062  42.386  17.089  14.469
17967W        W77063  14.701   2.786  14.947
17968W        W77064  15.122   6.918   0.459
17969W        W77065  10.753  41.026  11.496
17970W        W77066  30.428  34.589   5.299
17971W        W77067  27.555   7.856  12.484
17972W        W77068  19.201  22.709   1.218
17973W        W77069  40.426  24.556   2.851
17974W        W77070   8.859  36.355  12.987
17975W        W77071  12.710  35.540  12.460
17976W        W77072  16.272  28.034  13.983
17977W        W77073  10.292  29.971  14.013
17978W        W77074  41.310  12.789   1.277
17979W        W77075  23.080  15.303   4.296
17980W        W77076  29.090  35.911  12.889
17981W        W77077  22.732  42.916   4.776
17982W        W77078   3.954  41.990  13.003
17983W        W77079  26.623  29.521   2.339
17984W        W77080  27.631   6.350   4.601
17985W        W77081   2.427  28.551   2.827
17986W        W77082  39.030  16.077  11.024
17987W        W77083  41.869  35.028   3.839
17988W        W77084  18.232  27.139   3.705
17989W        W77085  36.095   8.716   2.765
17990W        W77086  28.451  22.662  11.598
17991W        W77087  17.229  34.401   4.275
17992W        W77088  31.504  33.991  11.455
17993W        W77089  43.357   3.458  13.052
17994W        W77090  13.307  38.909  14.990
17995W        W77091  14.276  42.374  13.418
17996W        W77092  10.207  39.917   0.759
17997W        W77093  30.629  21.164  14.431
17998W        W77094  22.663  12.287   4.202
17999W        W77095   8.314  27.952   3.362
18000W        W77096   7.407  29.593   0.945
18001W        W77097  23.985   3.852   4.647
18002W        W77098  32.020  36.953  13.927
18003W        W77099  10.724  11.692  10.606
18004W        W77100  43.931  10.304  11.050
18005W        W77101  30.508  40.798   3.150
18006W        W77102  26.098  24.009   0.795
18007W        W77103  43.824  30.911  13.894
18008W        W77104   4.226  10.748  12.561
18009W        W77105  29.110   1.405   0.949
18010W        W77106  20.038  25.088   3.334
18011W        W77107  13.758  43.985  12.910
18012W        W77108  28.166  41.427  12.973
18013W        W77109  26.538  24.139   3.237
18014W        W77110  39.839  38.415  13.321
18015W        W77111  15.130  20.097   1.867
18016W        W77112  12.747  16.632   2.766
18017W        W77113  30.638  20.092   3.698
18018W        W77114  35.932  24.671  14.373
18019W        W77115  10.187  37.475  11.560
18020W        W77116  35.881  13.812  13.445
18021W        W77117  17.612  43.892   0.934
18022W        W77118  19.598  27.008  13.822
18023W        W77119  34.918  29.548   1.792
18024W        W77120  29.512  41.456   0.325
18025W        W77121   5.745  44.309  13.889
18026W        W77122  14.657  27.624  14.495
18027W        W77123   3.220   8.838  12.923
18028W        W77124  25.972  32.065  14.931
18029W        W77125   3.870  30.164  13.539
18030W        W77126  42.984  39.351  13.977
18031W        W77127  38.543  40.835  13.459
18032W        W77128  30.133  37.863   4.338
18033W        W77129  36.940  42.332  11.038
18034W        W77130  17.187  28.659  10.415
18035W        W77131  34.412   8.385   0.473
18036W        W77132  16.156  28.176  12.080
18037W        W77133   2.844  38.882   3.785
18038W        W77134   6.716  16.093   1.729
18039W        W77135  10.356   9.655  14.420
18040W        W77136  26.014  34.982   3.343
18041W        W77137  17.191  18.597  12.451
18042W        W77138  11.280   8.271  14.348
18043W        W77139  29.985  42.355   4.688
18044W        W77140  15.713  24.577  14.419
18045W        W77141   1.256  19.117   0.916
18046W        W77142  11.153   7.385  11.393
18047W        W77143  38.539   5.384  14.835
18048W        W77144   4.783   5.704  13.859
18049W        W77145  33.489   7.897  10.987
18050W        W77146   8.743  24.192  14.499
18051W        W77147   1.748   7.386  12.499
18052W        W77148  40.319  25.077   2.801
18053W        W77149   2.839  34.003   2.812
18054W        W77150  16.283  12.229  10.411
18055W        W77151  25.612  33.539   2.875
18056W        W77152   6.847   3.375   1.449
18057W        W77153  10.699   0.464   0.430
18058W        W77154  33.953   9.345  11.045
18059W        W77155  41.895  15.661   5.139
18060W        W77156  31.631  17.660   3.292
18061W        W77157  21.643  19.703  10.584
18062W        W77158  19.597  27.560  11.064
18063W        W77159  31.450   2.737   1.745
18064W        W77160   4.282  44.432  11.509
18065W        W77161   8.193  30.610   2.869
18066W        W77162  32.004  33.471   5.306
18067W        W77163  44.478  41.508  12.090
18068W        W77164  24.541  44.358  13.881
18069W        W77165  29.986  38.025  10.427
18070W        W77166   4.228  43.481  14.031
18071W        W77167  17.237  12.219  10.636
18072W        W77168  38.477  44.349  14.843
18073W        W77169  44.969   8.168   0.775
18074W        W77170  38.559  27.970  14.487
18075W        W77171  15.676  38.417   2.334
18076W        W77172   8.329  11.339   3.750
18077W        W77173  37.550   1.778  10.590
18078W        W77174  39.466  34.006  11.022
18079W        W77175  26.510  35.997  11.452
18080W        W77176  17.750  35.576  14.973
18081W        W77177   1.969   5.314   3.156
18082W        W77178  26.542  44.320  13.938
18083W        W77179  42.889  24.027   5.083
18084W        W77180   7.758  21.263   4.783
18085W        W77181  20.087  21.635  12.001
18086W        W77182  26.067  34.415  11.950
18087W        W77183   8.209  13.782   1.307
18088W        W77184   5.437  28.494  13.534
18089W        W77185  16.569  20.716  11.901
18090W        W77186  16.604  29.069  14.925
18091W        W77187  37.072  16.701  14.884
18092W        W77188   9.852  24.720   4.796
18093W        W77189  13.829  38.032  14.914
18094W        W77190  35.044  11.165  10.987
18095W        W77191  22.209  14.275   5.250
18096W        W77192   7.875  23.201   1.708
18097W        W77193  37.975  30.603  12.872
18098W        W77194   2.471  41.370   1.886
18099W        W77195  24.103   2.961  12.491
18100W        W77196  20.247  39.409   0.833
18101W        W77197  18.786  20.242   1.387
18102W        W77198   5.734  37.034   1.429
18103W        W77199  43.939  32.907  14.414
18104W        W77200  27.174  14.253   5.094
18105W        W77201  33.964  29.562   4.179
18106W        W77202  33.420  16.620   2.802
18107W        W77203  36.565  16.654   9.473
18108W        W77204  40.325  17.062  14.896
18109W        W77205  41.329   4.836   0.346
18110W        W77206  26.045  23.520  12.364
18111W        W77207  15.817  19.089  12.874
18112W        W77208  33.522  41.955  12.065
18113W        W77209   5.872  18.153   3.370
18114W        W77210  38.499  15.284  11.928
18115W        W77211  14.817  40.540  14.294
18116W        W77212  23.617  13.787   0.801
18117W        W77213  36.568  33.124   3.159
18118W        W77214   3.320  26.098  12.086
18119W        W77215  28.550   2.874   3.283
18120W        W77216  29.077  20.541   2.870
18121W        W77217  23.720  21.248  14.956
18122W        W77218  37.836   8.399   3.817
18123W        W77219   9.865  30.006   2.337
18124W        W77220  36.464  39.416  12.053
18125W        W77221  13.772  10.850   4.655
18126W        W77222  38.829  17.730   3.635
18127W        W77223  12.148  34.933  10.609
18128W        W77224  18.190  39.042   3.780
18129W        W77225  30.025   2.412   4.814
18130W        W77226   7.855  15.112   1.370
18131W        W77227  12.685  21.565   3.637
18132W        W77228   3.860  25.561   5.785
18133W        W77229   8.851   4.306   1.344
18134W        W77230  42.430  11.175  13.519
18135W        W77231  12.310  21.744  11.543
18136W        W77232  24.107  27.003   3.728
18137W        W77233   9.378   5.783   3.327
18138W        W77234  42.902  26.204   4.119
18139W        W77235  39.453  23.680   1.850
18140W        W77236  32.942  33.419   2.767
18141W        W77237   0.974  16.175   4.642
18142W        W77238  11.192  26.524   2.177
18143W        W77239  19.104  26.044   0.757
18144W        W77240  19.565  21.671  11.877
18145W        W77241  42.364  18.646  14.963
18146W        W77242  17.083  15.617  14.030
18147W        W77243  36.361   4.219   3.186
18148W        W77244  13.823  34.093   2.272
18149W        W77245  17.192  40.347  14.833
18150W        W77246  25.527  14.695  10.609
18151W        W77247  25.559  26.047   1.451
18152W        W77248   9.650  18.212   0.258
18153W        W77249  25.015  23.207   2.324
18154W        W77250  26.987  23.040   2.380
18155W        W77251  26.574  11.211  14.348
18156W        W77252  43.281  12.361  11.076
18157W        W77253  31.555  41.018   3.304
18158W        W77254  19.639  43.780   2.409
18159W        W77255  19.766  35.892   3.365
18160W        W77256  32.103  43.322  13.953
18161W        W77257  10.632  43.329   2.391
18162W        W77258   6.401  29.135  11.573
18163W        W77259  44.856   9.245   2.385
18164W        W77260  37.011   7.272  12.522
18165W        W77261  35.583  43.508   0.461
18166W        W77262  35.000  32.945   3.168
18167W        W77263  34.116   9.731  13.966
18168W        W77264  32.440   9.352   1.868
18169W        W77265  27.144  33.587  12.075
18170W        W77266   0.391  14.210   2.271
18171W        W77267  16.130   7.865   3.819
18172W        W77268  39.411  15.645  12.084
18173W        W77269  40.798  13.244  11.091
18174W        W77270  44.891   3.258  11.971
18175W        W77271  36.553  34.421   2.885
18176W        W77272  12.818  14.229  10.912
18177W        W77273  43.904  39.373  10.888
18178W        W77274   7.215  29.939   0.811
18179W        W77275  12.740  16.183  13.847
18180W        W77276   0.468  18.103  14.506
18181W        W77277  36.525   7.212   5.321
18182W        W77278  38.974  32.930  10.559
18183W        W77279  17.780   5.758   1.719
18184W        W77280  43.850   7.667  10.414
18185W        W77281  16.693  32.597  14.349
18186W        W77282  17.302  15.596   1.233
18187W        W77283  35.894   0.318   3.198
18188W        W77284   3.411  33.924  11.492
18189W        W77285  41.471  22.998  14.354
18190W        W77286  19.582  22.126   4.709
18191W        W77287  19.577  18.136   3.704
18192W        W77288  21.603  35.958  13.511
18193W        W77289  17.279   8.677  14.278
18194W        W77290  36.048  11.713   2.797
18195W        W77291   3.771  30.133   4.226
18196W        W77292  42.906  18.197  11.910
18197W        W77293  29.440  30.153   4.253
18198W        W77294  30.528  24.047   3.709
18199W        W77295   9.393  33.469   2.699
18200W        W77296  32.917  33.616  10.570
18201W        W77297  40.484  26.491   4.349
18202W        W77298   8.709  20.580  14.377
18203W        W77299  39.535  13.844   1.808
18204W        W77300  42.013  42.481   4.625
18205W        W77301  21.158  29.933   0.308
18206W        W77302   8.788  44.007  12.835
18207W        W77303  22.103  40.365  14.379
18208W        W77304  14.763  21.052  11.023
18209W        W77305   1.277  15.147  13.817
18210W        W77306   0.428  29.423   3.736
18211W        W77307  14.219  30.435  12.485
18212W        W77308  38.057  14.230  14.799
18213W        W77309  31.996  14.814   3.151
18214W        W77310  33.958  24.613   2.848
18215W        W77311   0.391  30.603   3.856
18216W        W77312   7.695  29.497  12.453
18217W        W77313  40.382  21.027  13.823
18218W        W77314  20.081   2.758  13.479
18219W        W77315   1.957   9.832  13.844
18220W        W77316  38.010   3.394   5.303
18221W        W77317  15.716  19.249   4.780
18222W        W77318  24.041  26.547   2.181
18223W        W77319  21.194  33.534  10.592
18224W        W77320   6.719  35.590   2.817
18225W        W77321   8.686  43.767   4.619
18226W        W77322  42.881   1.466  10.551
18227W        W77323  14.610  25.600  13.861
18228W        W77324  35.418  24.101   0.877
18229W        W77325  39.051  10.842   1.845
18230W        W77326   9.385  27.605  12.016
18231W        W77327  29.923   9.339  10.957
18232W        W77328  10.794   4.793  11.518
18233W        W77329  17.691  42.329   3.315
18234W        W77330  32.561   3.449   3.861
18235W        W77331  37.906  42.415   0.857
18236W        W77332  12.349  42.023   2.207
18237W        W77333  34.392  23.627   3.707
18238W        W77334  27.097  37.005  14.514
18239W        W77335  10.274  20.113  14.410
18240W        W77336   1.415  12.138   3.185
18241W        W77337   0.833  19.645   2.209
18242W        W77338  11.160  44.324  10.006
18243W        W77339  25.704  29.443   1.212
18244W        W77340  10.160  43.300   0.962
18245W        W77341  39.408  43.433  11.089
18246W        W77342  44.950  13.717  13.434
18247W        W77343  34.089  14.153   0.362
18248W        W77344  43.323  43.820  12.970
18249W        W77345  26.652  15.653  14.498
18250W        W77346   2.240  44.441   0.466
18251W        W77347   0.765  33.020   4.187
18252W        W77348  18.079   1.468  11.585
18253W        W77349  13.633  35.081   3.381
18254W        W77350  10.230  29.480   5.238
18255W        W77351  15.180  36.554  13.827
18256W        W77352  23.149  23.156   1.270
18257W        W77353   4.921  42.887   4.348
18258W        W77354  38.906  41.395   3.306
18259W        W77355  39.371  10.384  14.328
18260W        W77356  27.665  27.679   2.894
18261W        W77357  19.079   4.357  10.500
18262W        W77358  34.108   0.435   3.212
18263W        W77359   5.268   6.781   0.475
18264W        W77360  37.377   0.968  11.414
18265W        W77361  13.313   4.887  10.612
18266W        W77362  41.522  21.617  13.363
18267W        W77363  11.780   2.291   0.770
18268W        W77364  19.560  32.628   0.834
18269W        W77365  24.169  25.196  12.517
18270W        W77366  41.909  35.542  14.304
18271W        W77367  10.703  12.152   1.931
18272W        W77368  36.572  26.203   3.644
18273W        W77369  11.206  14.145   3.242
18274W        W77370  24.147  37.912  12.486
18275W        W77371  20.192   6.329   1.772
18276W        W77372  18.570  37.916   3.293
18277W        W77373  25.589   7.371   5.224
18278W        W77374  36.472  19.657  12.969
18279W        W77375  38.494   1.349  11.889
18280W        W77376  33.567  28.481   3.367
18281W        W77377  30.468  14.665  14.505
18282W        W77378  24.716  15.138  10.455
18283W        W77379   3.446  31.509  12.978
18284W        W77380  15.583  23.025   4.619
18285W        W77381  28.934   6.384   3.803
18286W        W77382  23.205  42.516  13.030
18287W        W77383  37.965   2.330  10.589
18288W        W77384  13.286  12.658  12.868
18289W        W77385  38.391  44.852  12.527
18290W        W77386  32.549  41.839  11.386
18291W        W77387  41.819   2.421   0.435
18292W        W77388  43.009  28.991  10.422
18293W        W77389  18.592  29.975  12.466
18294W        W77390  12.720  35.575  13.521
18295W        W77391  29.966  25.654  13.350
18296W        W77392   0.381  29.105   0.379
18297W        W77393  38.330  31.625  12.936
18298W        W77394  32.985  24.507   0.793
18299W        W77395  37.445  23.635  11.984
18300W        W77396   9.203  39.373  10.486
18301W        W77397  12.665  11.217   0.423
18302W        W77398  15.800  36.011   3.232
18303W        W77399  22.645  24.722   3.757
18304W        W77400  42.422  42.377   1.413
18305W        W77401  21.626  23.193  11.503
18306W        W77402  42.366  29.588  12.983
18307W        W77403  35.887  23.597  14.458
18308W        W77404  13.285  20.105  11.857
18309W        W77405  16.107  43.011  11.406
18310W        W77406  31.920  24.653  14.340
18311W        W77407   3.373   7.383  14.786
18312W        W77408  10.787  40.901  12.924
18313W        W77409  27.080  15.651   3.699
18314W        W77410   2.393  21.180  14.303
18315W        W77411  38.505  37.521  12.913
18316W        W77412  15.806  41.840  13.999
18317W        W77413  18.741  10.764   4.205
18318W        W77414  41.853  15.731   4.150
18319W        W77415  22.607  15.120  11.541
18320W        W77416  22.008  30.572   3.341
18321W        W77417  26.201   0.387  10.628
18322W        W77418   8.682  11.239   1.298
18323W        W77419  39.359  12.170   1.320
18324W        W77420  40.470  44.786   0.793
18325W        W77421  10.159  29.970  14.513
18326W        W77422  23.695  17.755   0.877
18327W        W77423   5.688  44.774  14.401
18328W        W77424  42.400  23.154   0.845
18329W        W77425  21.709  20.696  14.284
18330W        W77426  11.344  22.029   3.783
18331W        W77427   0.476  37.024  10.634
18332W        W77428   5.257  23.593  14.402
18333W        W77429  33.106  26.671   4.306
18334W        W77430  22.007  27.541   3.808
18335W        W77431  18.777  19.622   1.698
18336W        W77432  36.866  12.122  11.940
18337W        W77433   3.834  32.052   2.198
18338W        W77434  32.544   2.945  10.405
18339W        W77435   3.788  37.919  12.477
18340W        W77436   9.703  36.025  14.976
18341W        W77437  43.332   3.224  13.357
18342W        W77438  25.169   7.173  14.369
18343W        W77439   4.810  22.681  11.582
18344W        W77440  22.176   2.278  11.574
18345W        W77441   7.687   8.674   0.368
18346W        W77442  11.339  20.179   1.897
18347W        W77443  20.761  43.949  13.922
18348W        W77444  36.433   4.218   4.178
18349W        W77445  18.089   3.451  14.005
18350W        W77446  38.568  14.802  14.420
18351W        W77447   4.742  39.835  10.020
18352W        W77448  24.618  26.503   2.900
18353W        W77449  33.603  13.646   2.867
18354W        W77450   3.231  32.538   1.903
18355W        W77451  22.667  10.142  14.830
18356W        W77452  30.459  42.436   1.256
18357W        W77453  20.767  18.610  13.531
18358W        W77454  41.864  34.896   4.768
18359W        W77455  21.639  12.133   1.441
18360W        W77456  10.301   3.943  12.075
18361W        W77457  17.600   9.394  14.395
18362W        W77458  20.205  31.546  14.452
18363W        W77459  36.874  11.142  14.455
18364W        W77460  15.305   4.204   0.776
18365W        W77461  30.492  38.530  13.410
18366W        W77462   8.169  40.935  14.976
18367W        W77463  15.749  34.380  10.920
18368W        W77464  37.574  15.285  13.966
18369W        W77465  42.021   9.367  11.477
18370W        W77466  31.502  15.126   2.320
18371W        W77467  28.655  23.691   4.801
18372W        W77468  39.388  25.512   0.941
18373W        W77469  41.042   1.751   2.394
18374W        W77470  17.718  16.243   0.961
18375W        W77471  32.111  24.166  14.507
18376W        W77472  43.423  38.953  12.965
18377W        W77473   6.848  35.983   1.258
18378W        W77474  25.475  43.833  10.986
18379W        W77475  42.371  19.539  13.317
18380W        W77476  36.353   9.256  10.521
18381W        W77477  20.076   1.961   1.723
18382W        W77478   7.216  31.970  13.829
18383W        W77479  27.554  44.314   1.347
18384W        W77480   6.311  15.650  13.919
18385W        W77481  37.528  14.604   0.832
18386W        W77482   2.818   2.916   2.235
18387W        W77483  18.717  29.635  12.995
18388W        W77484  18.096   2.445  12.973
18389W        W77485  24.227  10.795   3.249
18390W        W77486   4.393  14.248  10.557
18391W        W77487  33.513   6.185   4.653
18392W        W77488  36.043  28.130   4.210
18393W        W77489  10.647  16.658   1.708
18394W        W77490  23.548   5.306  14.781
18395W        W77491  19.733  31.615   1.854
18396W        W77492  13.844  14.738  12.411
18397W        W77493  36.564  26.060   2.713
18398W        W77494  25.033  36.431  10.917
18399W        W77495  36.540  20.549   2.816
18400W        W77496  21.583  26.047   4.236
18401W        W77497  21.203   5.787  13.953
18402W        W77498  42.789  43.897  13.881
18403W        W77499  33.573  36.952   0.876
18404W        W77500  14.338  34.061  12.422
18405W        W77501  12.854  34.100  14.994
18406W        W77502   5.813  11.773  13.408
18407W        W77503  41.522   6.230  11.055
18408W        W77504  41.496  44.416   0.959
18409W        W77505  12.748   4.262   0.804
18410W        W77506  18.066  11.865   3.174
18411W        W77507  19.587   4.397   9.987
18412W        W77508  31.439  44.377  12.997
18413W        W77509   7.374  19.044  10.460
18414W        W77510  10.813  26.676   3.789
18415W        W77511  39.810  43.813  11.560
18416W        W77512   3.287  17.675   2.389
18417W        W77513  16.150  14.824   4.262
18418W        W77514  28.146  37.940   2.729
18419W        W77515  12.733  42.857   2.822
18420W        W77516  36.981  44.403  12.535
18421W        W77517  36.445  38.355  10.499
18422W        W77518  32.885   1.956  13.893
18423W        W77519   9.692  26.582   5.093
18424W        W77520  18.260  26.130  12.985
18425W        W77521   0.456  33.088   0.919
18426W        W77522  35.597  13.213  13.436
18427W        W77523  16.648  12.181   0.368
18428W        W77524   2.882  21.184  12.540
18429W        W77525  33.524  17.701   4.774
18430W        W77526   0.829  26.514  10.432
18431W        W77527  14.828  14.814   1.706
18432W        W77528   8.900  42.989   1.212
18433W        W77529  35.893   9.214  14.433
18434W        W77530  18.226  14.134  10.641
18435W        W77531  33.907   4.261   1.868
18436W        W77532   9.745  26.505  10.581
18437W        W77533   3.804   0.355  12.075
18438W        W77534  43.930   6.803   3.224
18439W        W77535  34.974  19.128  12.372
18440W        W77536  38.404  11.805   0.382
18441W        W77537  28.164  29.060   0.735
18442W        W77538  26.644  18.741   3.148
18443W        W77539  43.284  41.486   1.825
18444W        W77540  11.693  18.580  13.910
18445W        W77541  34.611  35.450  12.862
18446W        W77542  37.908  10.269   3.632
18447W        W77543  15.631  25.633  13.920
18448W        W77544  21.106  41.421   0.439
18449W        W77545  16.624  22.072   3.188
18450W        W77546  20.624  17.680   1.407
18451W        W77547   3.443  42.977   1.348
18452W        W77548   6.386   6.367   1.348
18453W        W77549   4.930  28.434  11.515
18454W        W77550   4.440  28.482   1.244
18455W        W77551  14.260   9.371  13.487
18456W        W77552  10.670  29.019  14.416
18457W        W77553  22.601  17.129  11.973
18458W        W77554  19.245  18.750  14.015
18459W        W77555  36.541   0.882  12.351
18460W        W77556   8.172  31.103  12.444
18461W        W77557  17.195  21.197  11.473
18462W        W77558  30.950   0.426   0.397
18463W        W77559  36.051  17.722   4.277
18464W        W77560  32.910   3.280  13.018
18465W        W77561   9.247   7.379   2.321
18466W        W77562  18.731  15.200  14.894
18467W        W77563  33.916  10.739   2.249
18468W        W77564  17.165   5.428   1.402
18469W        W77565   7.864  18.235  12.867
18470W        W77566  12.166  10.178   4.753
18471W        W77567  15.714  30.067  13.812
18472W        W77568  16.732  42.908  11.445
18473W        W77569  39.822   3.746   2.895
18474W        W77570  34.613   9.151  13.922
18475W        W77571   2.253  13.619   4.602
18476W        W77572  19.084  16.103   4.237
18477W        W77573  15.715   5.241   3.198
18478W        W77574  15.259  20.627  13.016
18479W        W77575  40.482   7.819   2.758
18480W        W77576  42.946  23.521   4.181
18481W        W77577  15.310   5.333  12.041
18482W        W77578  44.873  10.147  11.977
18483W        W77579  31.429  32.430   4.286
18484W        W77580  44.396  39.911   4.193
18485W        W77581  16.745   1.886   1.394
18486W        W77582  40.386   2.412  14.991
18487W        W77583   3.758  35.462   2.743
18488W        W77584  25.504  34.000   1.418
18489W        W77585  16.243  15.815   4.778
18490W        W77586   4.252  28.115  12.878
18491W        W77587  41.403  15.784   3.814
18492W        W77588  43.977  25.164   0.948
18493W        W77589  12.640  15.315  14.364
18494W        W77590  26.040  38.856  14.955
18495W        W77591  33.960   8.802  10.485
18496W        W77592  18.598  33.565  12.456
18497W        W77593  14.664   3.333  14.477
18498W        W77594  23.160   7.372  14.495
18499W        W77595  18.187   7.351   4.684
18500W        W77596   7.341  21.069   2.206
18501W        W77597  31.629  39.476  11.455
18502W        W77598  22.622  38.416   1.319
18503W        W77599  33.404  36.489   3.356
18504W        W77600  29.041  42.489   3.173
18505W        W77601  25.219  36.375   0.346
18506W        W77602  27.636   6.812  12.966
18507W        W77603  34.109  12.288   5.795
18508W        W77604  25.085  21.732  10.089
18509W        W77605  21.606   9.840  14.923
18510W        W77606   5.753   9.193  14.793
18511W        W77607  14.635  35.548  11.427
18512W        W77608  23.578  34.918   0.814
18513W        W77609  42.869   1.807   4.262
18514W        W77610  16.655  36.988   3.227
18515W        W77611  23.122  10.143  14.968
18516W        W77612   9.646   7.316   4.136
18517W        W77613  21.545  44.392  13.021
18518W        W77614  19.679  14.640  12.914
18519W        W77615  32.063  23.628   2.304
18520W        W77616  32.602  44.844   2.671
18521W        W77617  17.684  22.153   1.321
18522W        W77618  25.973  21.659   4.184
18523W        W77619  30.533  14.812  14.871
18524W        W77620   4.283  25.204   1.774
18525W        W77621  43.788  21.625  14.490
18526W        W77622  23.038  24.051   1.905
18527W        W77623  32.955  42.366   2.365
18528W        W77624  20.763  44.467   3.654
18529W        W77625  28.101   4.418   4.820
18530W        W77626  12.203  35.928  10.630
18531W        W77627   2.802  19.049  12.030
18532W        W77628  44.331  11.638   9.969
18533W        W77629  21.571  32.580  12.091
18534W        W77630  35.101  40.012  13.979
18535W        W77631  31.618  33.575   4.774
18536W        W77632   8.268  39.894   3.742
18537W        W77633   5.252  42.346  10.948
18538W        W77634  25.676  24.199  10.957
18539W        W77635  44.487  15.110  14.481
18540W        W77636  43.381  15.752   0.460
18541W        W77637  36.903  44.976  12.032
18542W        W77638  20.260  21.134  12.555
18543W        W77639  23.126  14.602   3.318
18544W        W77640  10.867  27.056  10.994
18545W        W77641  42.316  11.725  13.500
18546W        W77642  40.797  16.800  11.013
18547W        W77643  13.316  17.067  10.071
18548W        W77644  23.712   2.951   2.248
18549W        W77645   8.773  28.464   2.839
18550W        W77646  44.457  14.275   3.829
18551W        W77647  43.981   9.175  14.310
18552W        W77648  40.027  32.465  12.985
18553W        W77649  43.934  20.701  13.367
18554W        W77650   5.833  19.711  14.819
18555W        W77651   2.265  31.616  12.471
18556W        W77652   0.375  34.578  13.376
18557W        W77653  30.464  23.577   3.722
18558W        W77654   7.719  31.456  10.415
18559W        W77655   1.315  29.528  13.367
18560W        W77656  30.121  16.738  11.429
18561W        W77657  20.206  24.148  14.788
18562W        W77658   8.397  19.720  11.398
18563W        W77659  17.081  21.620  14.012
18564W        W77660  34.901  22.571   4.287
18565W        W77661  39.466   9.311   4.145
18566W        W77662  10.344  40.470   2.245
18567W        W77663  10.653  37.541  14.293
18568W        W77664  39.411  28.142   3.641
18569W        W77665  23.604   1.336  12.894
18570W        W77666   9.723   2.869   2.373
18571W        W77667  15.275  18.650   1.239
18572W        W77668  40.874  41.025  10.439
18573W        W77669  35.599   5.434   2.268
18574W        W77670  42.384   4.384  14.475
18575W        W77671  23.203  25.079   1.737
18576W        W77672  14.332  13.320  11.994
18577W        W77673  41.862  14.143  10.918
18578W        W77674  27.045   5.375   4.346
18579W        W77675  20.115  33.001  12.964
18580W        W77676   3.410   3.953  14.944
18581W        W77677  13.315  30.069  14.979
18582W        W77678  26.975  32.548   2.412
18583W        W77679  21.725  43.481  13.509
18584W        W77680  38.886   2.796  10.567
18585W        W77681  36.033  15.679   1.331
18586W        W77682  17.131  22.182   4.316
18587W        W77683  25.087  37.049  11.056
18588W        W77684  27.496  39.043  11.867
18589W        W77685  41.999   9.659   0.828
18590W        W77686  32.088  15.263  14.489
18591W        W77687  21.706  14.726   3.266
18592W        W77688  36.363  18.643   2.762
18593W        W77689   2.795   9.802  13.939
18594W        W77690  26.477  23.150   3.686
18595W        W77691  14.296  11.827   2.224
18596W        W77692  16.184   7.253   1.738
18597W        W77693  35.084  10.231   3.816
18598W        W77694  12.643  28.140  10.099
18599W        W77695  21.173  20.076   3.717
18600W        W77696  36.929  24.625  13.420
18601W        W77697  38.954  44.910  13.906
18602W        W77698   3.456  25.992   1.224
18603W        W77699   0.438  19.042  11.062
18604W        W77700  23.984   5.384   4.193
18605W        W77701  37.840  24.056   0.315
18606W        W77702  13.335  10.744   3.310
18607W        W77703  34.595  43.864  13.012
18608W        W77704  33.539  31.473   2.376
18609W        W77705  31.138   1.267   3.269
18610W        W77706   7.904  18.078  13.887
18611W        W77707  37.965  22.641  10.992
18612W        W77708  26.100  21.666   0.271
18613W        W77709  14.224  17.162   4.121
18614W        W77710  33.093  20.256  11.937
18615W        W77711  31.633  25.517   3.282
18616W        W77712  20.087  40.541   3.716
18617W        W77713   1.890   7.209   1.901
18618W        W77714  32.544  11.338   2.200
18619W        W77715  31.983  24.663   2.418
18620W        W77716  34.399  12.759   3.173
18621W        W77717  14.602  28.453   0.768
18622W        W77718   2.786  35.914   1.257
18623W        W77719   4.899  38.870   3.766
18624W        W77720   4.401   0.366   0.851
18625W        W77721   1.390  23.722  13.328
18626W        W77722  18.674   8.404   2.851
18627W        W77723   8.843  17.701  11.993
18628W        W77724  19.596  27.977   5.247
18629W        W77725   3.941  43.509  14.988
18630W        W77726  29.457   3.264  13.005
18631W        W77727  27.682  10.709  13.418
18632W        W77728   5.374  26.511  13.431
18633W        W77729  35.374  17.270   2.681
18634W        W77730  32.451  37.408  10.976
18635W        W77731  26.011   7.850  11.126
18636W        W77732  42.511  14.635  14.804
18637W        W77733   2.912  15.264  13.951
18638W        W77734  32.108  24.156   2.277
18639W        W77735  35.581   9.822  10.070
18640W        W77736  22.644   2.817   2.405
18641W        W77737  13.828  33.125  11.095
18642W        W77738  20.059  21.054  10.969
18643W        W77739  14.182  11.747   3.153
18644W        W77740   5.234  24.593   0.278
18645W        W77741  11.238  23.595   3.323
18646W        W77742   1.394  35.378   0.870
18647W        W77743  44.807  13.657   3.327
18648W        W77744   2.910   2.872  12.418
18649W        W77745  23.649  15.819  10.409
18650W        W77746  22.015  30.980   4.791
18651W        W77747  44.865  33.507   1.370
18652W        W77748  10.641  10.194  14.412
18653W        W77749  43.388  41.373  11.994
18654W        W77750  18.698   4.720   2.805
18655W        W77751   7.740  42.427   2.413
18656W        W77752  35.016  22.521  10.603
18657W        W77753  12.182  36.907  14.821
18658W        W77754   8.666   4.816  10.933
18659W        W77755  12.327  25.683  14.025
18660W        W77756  43.837  37.438   4.825
18661W        W77757  27.958  11.218  12.040
18662W        W77758  36.426  14.826  13.795
18663W        W77759  34.927  39.383   3.296
18664W        W77760  38.544  35.891   4.780
18665W        W77761  35.550  27.018   4.320
18666W        W77762   9.766  31.514   0.954
18667W        W77763  17.665  27.152   1.831
18668W        W77764  20.698   0.814  13.828
18669W        W77765  39.994   7.321  10.091
18670W        W77766  43.270  34.510   3.653
18671W        W77767  35.046  14.165   3.637
18672W        W77768  11.272  34.919  10.509
18673W        W77769   6.798  36.997   3.371
18674W        W77770  16.136  14.205  10.473
18675W        W77771  44.000  38.507  13.389
18676W        W77772  28.492  31.482  13.382
18677W        W77773  41.485   2.847  10.527
18678W        W77774  34.062  37.938   2.875
18679W        W77775  26.982  37.454   5.254
18680W        W77776  43.345  26.994   0.893
18681W        W77777  37.488  33.069  14.023
18682W        W77778  26.529  13.731  11.964
18683W        W77779  12.241  13.350   2.850
18684W        W77780  28.471  14.697   4.834
18685W        W77781  17.191  14.630  14.926
18686W        W77782  23.055  20.557  10.454
18687W        W77783  36.457  37.346   3.785
18688W        W77784  26.197  17.171  13.470
18689W        W77785  25.678  31.937  10.084
18690W        W77786  35.406  44.925  12.091
18691W        W77787  30.478  27.673   9.975
18692W        W77788  41.979  27.615  11.403
18693W        W77789  16.282  26.175  14.278
18694W        W77790  21.605  30.131   0.754
18695W        W77791  19.715  39.438  13.017
18696W        W77792   1.347  13.648   4.699
18697W        W77793  32.060   3.305  12.900
18698W        W77794  15.806  30.656   2.812
18699W        W77795  31.151  38.849   3.306
18700W        W77796   6.245  22.085  12.970
18701W        W77797  30.082  40.331  12.064
18702W        W77798  33.899  13.311  11.582
18703W        W77799  25.639   3.829   3.220
18704W        W77800   9.828  27.457  14.477
18705W        W77801   7.265   6.310   4.244
18706W        W77802  11.212  14.657   1.210
18707W        W77803  21.061  33.039  12.395
18708W        W77804  40.305  30.415   2.301
18709W        W77805   2.942   4.912  14.895
18710W        W77806  28.090  25.093   1.398
18711W        W77807  10.191  34.587  11.927
18712W        W77808  31.024  28.579   1.920
18713W        W77809  36.431  33.385   1.340
18714W        W77810   9.352  33.419   3.695
18715W        W77811  42.497  11.860  12.825
18716W        W77812  35.378  41.348  13.015
18717W        W77813   3.259  26.178  11.069
18718W        W77814  19.594  19.217   0.294
18719W        W77815  17.110  38.859  10.436
18720W        W77816  18.212  10.719   1.435
18721W        W77817  31.999  13.241   4.205
18722W        W77818   5.751  12.838  12.903
18723W        W77819  25.593  24.621   2.883
18724W        W77820  20.036  42.292  12.840
18725W        W77821  37.881  23.725  11.432
18726W        W77822   5.768  26.104   3.807
18727W        W77823  37.549   2.251  11.589
18728W        W77824  43.921  29.451  12.995
18729W        W77825   5.788  23.136  11.039
18730W        W77826  37.394  26.114   2.672
18731W        W77827   2.326   7.760   3.766
18732W        W77828  20.264  41.011  10.528
18733W        W77829  34.472   0.892   3.362
18734W        W77830   0.289  17.801  13.926
18735W        W77831   0.371   2.956   3.645
18736W        W77832  34.492  41.533   3.276
18737W        W77833  33.559  24.537   0.799
18738W        W77834  34.982  24.224  12.437
18739W        W77835  40.417   7.733   3.156
18740W        W77836  13.830  25.035  14.892
18741W        W77837   2.729  21.070   1.330
18742W        W77838  33.024  41.976  14.302
18743W        W77839   0.806   8.183   2.682
18744W        W77840  24.976  28.552  12.926
18745W        W77841  11.200  31.576   0.888
18746W        W77842   7.219  18.111   0.467
18747W        W77843  44.831  44.888   4.138
18748W        W77844   7.775   5.898   0.726
18749W        W77845  14.738  22.111  13.976
18750W        W77846  44.433   0.859   0.859
18751W        W77847  40.816  28.985   2.404
18752W        W77848  26.076   8.171   4.807
18753W        W77849  15.684  43.454  13.982
18754W        W77850   0.325  21.170   3.322
18755W        W77851  19.078   1.739  13.396
18756W        W77852  19.542  39.498  13.435
18757W        W77853  14.268  34.942  13.975
18758W        W77854  10.263  18.111   0.806
18759W        W77855  11.825  41.413  12.073
18760W        W77856  30.629  32.515  11.585
18761W        W77857   2.866  29.445  13.900
18762W        W77858   0.371  43.884   2.786
18763W        W77859  30.658  26.576   9.513
18764W        W77860  18.745   2.923   4.688
18765W        W77861  24.177  20.100   0.903
18766W        W77862  32.416   9.752   1.737
18767W        W77863  11.365  19.666   0.851
18768W        W77864   7.718  19.709   2.899
18769W        W77865   3.241  20.668   1.221
18770W        W77866   1.871  21.149  10.446
18771W        W77867  29.155  32.021   2.240
18772W        W77868   9.785  25.518   4.197
18773W        W77869   3.363  31.033   2.182
18774W        W77870  20.231   3.225   4.780
18775W        W77871  36.492  10.315  14.416
18776W        W77872  14.784  18.567  10.464
18777W        W77873  16.312  43.485   0.293
18778W        W77874  33.530  25.500   3.693
18779W        W77875  18.760  25.013  11.117
18780W        W77876  14.671  23.713   2.671
18781W        W77877  41.827   6.752  14.488
18782W        W77878  29.171  42.314  12.350
18783W        W77879  33.399  23.005   3.770
18784W        W77880   7.788  32.497  11.049
18785W        W77881  28.520  42.849  10.484
18786W        W77882  37.981  38.936  14.427
18787W        W77883  36.571  13.816  11.576
18788W        W77884  18.193  40.922  13.009
18789W        W77885  16.596  21.548   0.408
18790W        W77886  22.601  18.571   1.842
18791W        W77887   3.445  10.296   3.632
18792W        W77888  41.509   1.251   0.431
18793W        W77889  36.421  23.184  11.861
18794W        W77890   9.672  40.022  14.964
18795W        W77891  32.991  17.171   0.391
18796W        W77892  16.739  26.631  13.518
18797W        W77893  44.814  19.628   3.176
18798W        W77894  34.903   9.875   0.408
18799W        W77895  38.450  24.658   1.263
18800W        W77896  23.237   6.336   0.952
18801W        W77897  14.677  10.377  10.040
18802W        W77898   4.761  40.358  10.442
18803W        W77899  34.116  26.621  14.953
18804W        W77900  32.481  21.189  13.421
18805W        W77901   7.730  37.392  10.995
18806W        W77902  35.533  29.545   1.753
18807W        W77903   6.404  11.162  12.497
18808W        W77904  29.151  43.825   1.785
18809W        W77905   0.774   2.916   3.268
18810W        W77906   1.929  19.112   4.308
18811W        W77907  30.140   3.723   1.324
18812W        W77908  17.271  44.332   3.367
18813W        W77909   9.676  28.130   2.398
18814W        W77910  35.981  11.319   0.926
18815W        W77911  12.631  36.924  12.942
18816W        W77912  40.920   4.212   4.198
18817W        W77913  12.657  34.922  10.480
18818W        W77914  26.616   3.428  11.484
18819W        W77915   2.394   6.816   4.772
18820W        W77916  44.420  30.643   2.836
18821W        W77917  22.104  14.229   2.346
18822W        W77918  38.851  42.421   3.243
18823W        W77919   6.228  14.728   4.181
18824W        W77920  17.144  16.235   2.710
18825W        W77921   8.291   1.448   2.678
18826W        W77922  36.031  13.163   2.668
18827W        W77923  37.991   2.762  10.532
18828W        W77924  16.089  11.168  11.545
18829W        W77925  18.093  26.045   1.291
18830W        W77926   8.878  11.303   1.734
18831W        W77927  44.324  41.443  14.505
18832W        W77928   8.255  25.983   4.151
18833W        W77929   0.776  41.948  14.778
18834W        W77930  16.072  32.489  12.048
18835W        W77931  32.135  37.961   3.833
18836W        W77932  36.535  35.506   0.383
18837W        W77933  41.974   0.423  11.576
18838W        W77934  31.646  14.264   3.305
18839W        W77935  29.940  25.645   3.668
18840W        W77936  13.665  32.955  11.866
18841W        W77937  23.543  33.105   1.776
18842W        W77938  34.588   9.861   2.766
18843W        W77939  11.273  41.043  11.433
18844W        W77940   8.377   9.149   3.298
18845W        W77941  26.096  23.627  14.852
18846W        W77942  34.477  37.927  11.509
18847W        W77943  35.029  33.026  10.404
18848W        W77944  32.628  39.042  14.996
18849W        W77945  28.586  19.223  10.500
18850W        W77946  23.074  33.029   4.625
18851W        W77947  15.327  34.575  13.858
18852W        W77948  42.398  37.525  12.424
18853W        W77949  14.731  44.303  10.119
18854W        W77950   4.882   7.738  14.481
18855W        W77951  10.372  31.568  13.504
18856W        W77952  32.618  19.762   2.284
18857W        W77953  34.913   5.247   0.247
18858W        W77954  44.786  37.348  11.091
18859W        W77955  33.044  19.229   0.949
18860W        W77956  20.604  21.700   3.664
18861W        W77957  38.473   8.377   3.672
18862W        W77958   6.680   4.431   4.631
18863W        W77959  30.578   3.800  14.800
18864W        W77960  18.577   6.769   2.869
18865W        W77961  14.807  24.218  13.045
18866W        W77962  10.856  19.741  11.954
18867W        W77963  28.026  10.316   2.853
18868W        W77964  26.013  39.904   0.257
18869W        W77965  33.887  18.649   1.913
18870W        W77966  16.606   9.731  13.516
18871W        W77967  15.639  25.624   1.432
18872W        W77968  29.468  39.333   0.431
18873W        W77969  14.792  27.966  14.318
18874W        W77970  40.334  42.323   0.936
18875W        W77971  19.766  18.605   2.880
18876W        W77972  36.062  19.070  11.936
18877W        W77973   4.409   0.780   2.233
18878W        W77974  27.190  30.946   4.658
18879W        W77975  43.823   2.781  12.068
18880W        W77976   4.312  41.826  11.105
18881W        W77977   3.853  37.871  13.918
18882W        W77978  24.995  17.077   4.621
18883W        W77979  35.386  25.550   3.284
18884W        W77980  16.152  39.934  14.028
18885W        W77981  43.784  10.719  14.388
18886W        W77982  24.987  18.738   5.681
18887W        W77983  18.636  19.190   2.813
18888W        W77984  36.571  29.467   4.816
18889W        W77985   5.313  15.187   2.801
18890W        W77986  22.226  23.593   0.318
18891W        W77987  20.152  21.263   1.418
18892W        W77988  26.978  16.169   0.337
18893W        W77989  16.653  31.954   0.801
18894W        W77990  34.882   1.771  12.419
18895W        W77991   2.925  32.127  11.427
18896W        W77992  13.846  34.878  11.432
18897W        W77993  34.393  30.636   5.170
18898W        W77994   6.286  44.425  14.431
18899W        W77995  31.992  40.380  10.473
18900W        W77996  13.267  19.229   2.859
18901W        W77997  13.245  23.629   1.342
18902W        W77998  16.197  28.995   9.968
18903W        W77999  20.073   6.282   0.408
18904W        W78000  19.567  12.194  14.955
18905W        W78001   2.945  20.259   2.707
18906W        W78002  12.249   5.777  13.954
18907W        W78003   2.313   7.264   4.733
18908W        W78004  20.688  13.707   3.179
18909W        W78005  38.880  25.484  11.381
18910W        W78006  43.402  35.859   5.081
18911W        W78007  17.745  18.682  11.086
18912W        W78008   5.408  35.374  12.464
18913W        W78009  41.492  38.427  13.963
18914W        W78010  15.675  30.948   3.686
18915W        W78011   8.734  32.464  11.606
18916W        W78012  26.045   3.739   2.361
18917W        W78013  20.252   6.747  10.151
18918W        W78014  12.618  36.515   4.326
18919W        W78015  29.560   8.234  12.039
18920W        W78016   7.893  22.208   4.172
18921W        W78017   2.460  28.631  10.506
18922W        W78018  31.960  17.250   3.715
18923W        W78019  28.005  15.313   4.283
18924W        W78020   4.917  13.810  10.444
18925W        W78021   0.818  44.498   1.705
18926W        W78022  40.838  10.256   1.738
18927W        W78023   9.182  43.463   4.176
18928W        W78024   5.876  22.220   4.728
18929W        W78025  17.582   9.866   4.619
18930W        W78026  37.388  37.573  13.829
18931W        W78027  12.353  21.616   1.385
18932W        W78028  28.471  14.672  14.805
18933W        W78029  43.444  18.676   4.728
18934W        W78030   5.283  20.248  11.443
18935W        W78031   2.824  40.971  10.968
18936W        W78032   9.666  31.964  10.974
18937W        W78033  29.632  17.602   3.183
18938W        W78034  26.472  25.156   2.881
18939W        W78035   3.919  11.195  12.520
18940W        W78036  26.565   1.901   3.707
18941W        W78037  43.012  21.104   4.153
18942W        W78038  23.169  42.414   0.280
18943W        W78039  12.723  44.913  12.048
18944W        W78040  28.984  39.324  11.597
18945W        W78041   1.378  32.082  13.058
18946W        W78042  37.492  32.046   0.337
18947W        W78043  14.201  13.271   0.779
18948W        W78044  21.113  29.147  10.888
18949W        W78045  14.735   1.385  11.105
18950W        W78046  37.374  10.193  11.600
18951W        W78047  16.273   3.851   2.274
18952W        W78048  12.304  36.856   4.270
18953W        W78049   0.488  44.904   0.445
18954W        W78050  39.338  18.615  12.977
18955W        W78051  19.221  23.033   0.911
18956W        W78052   8.806  18.259   4.265
18957W        W78053  34.017   4.851   2.701
18958W        W78054  20.597  34.388  13.862
18959W        W78055   6.857  38.460   4.642
18960W        W78056  14.633  12.704  12.874
18961W        W78057  43.848  39.428  11.560
18962W        W78058  35.067  20.240  10.608
18963W        W78059   2.741  14.637   4.326
18964W        W78060   7.205  21.156   1.787
18965W        W78061   5.694   1.864  11.398
18966W        W78062  11.683  14.306  14.502
18967W        W78063  12.705  29.149  10.968
18968W        W78064  10.303  34.073  13.457
18969W        W78065   9.363  21.565  12.009
18970W        W78066   9.275   7.698  12.072
18971W        W78067   0.478   0.779   3.167
18972W        W78068  11.365  26.582  14.846
18973W        W78069  29.079  17.169   4.792
18974W        W78070  11.817  28.511  10.093
18975W        W78071   2.246  13.667   0.352
18976W        W78072   6.356   9.864   1.816
18977W        W78073  20.588  14.190  11.994
18978W        W78074  23.021  23.207   0.845
18979W        W78075   6.248  37.939   0.759
18980W        W78076  13.739  32.596  14.986
18981W        W78077   7.375  20.576   2.319
18982W        W78078  38.892  11.720  12.882
18983W        W78079   7.222  23.493  14.460
18984W        W78080   4.355  42.484  12.975
18985W        W78081   4.745  31.623  11.387
18986W        W78082  13.813   9.820   3.844
18987W        W78083  20.111  43.390   1.424
18988W        W78084   0.293  11.817  12.052
18989W        W78085   7.394  21.083  11.029
18990W        W78086  41.007  40.888   4.757
18991W        W78087  23.118  34.416   4.257
18992W        W78088   9.743  43.830  11.112
18993W        W78089  31.056  26.071  11.884
18994W        W78090  36.585  38.495  13.528
18995W        W78091  42.348  26.164   0.751
18996W        W78092  25.076  38.011   3.371
18997W        W78093  43.459   3.410   4.329
18998W        W78094  15.297   3.352   4.162
18999W        W78095  31.496   6.307   0.786
19000W        W78096  14.243  11.246   2.317
19001W        W78097  17.113  27.650   0.825
19002W        W78098  13.836  10.643  13.508
19003W        W78099  32.426  37.474  11.867
19004W        W78100  24.718   9.308  13.863
19005W        W78101  44.452  43.405   0.849
19006W        W78102   1.884   9.855  10.426
19007W        W78103  39.004  30.942  14.290
19008W        W78104  13.831  34.074   5.780
19009W        W78105  28.060  43.434  13.959
19010W        W78106  10.374  13.328   3.785
19011W        W78107  33.472  42.020  14.406
19012W        W78108   8.270  32.928  10.405
19013W        W78109  34.077   1.392  14.972
19014W        W78110  23.580  32.538   2.686
19015W        W78111   0.443  33.934   4.804
19016W        W78112  44.337  26.685  13.802
19017W        W78113  35.399   6.724  10.978
19018W        W78114  30.419  41.992   0.735
19019W        W78115  28.173  39.916   2.229
19020W        W78116  14.167  32.905   1.782
19021W        W78117  39.315  23.534   0.767
19022W        W78118   3.826  20.633  11.581
19023W        W78119  20.080  39.880   3.807
19024W        W78120   7.303  29.551   2.198
19025W        W78121  40.996  38.507   0.291
19026W        W78122  29.554  23.158  12.011
19027W        W78123  15.315  38.916  13.417
19028W        W78124  12.722  39.479   3.786
19029W        W78125  32.523  41.961  14.332
19030W        W78126  22.676  19.618   5.272
19031W        W78127  17.624  38.918  11.040
19032W        W78128  21.516   9.379  12.932
19033W        W78129  20.083   2.355   4.643
19034W        W78130  21.047   6.726   3.859
19035W        W78131  40.441  18.571  12.572
19036W        W78132   8.239  31.594   0.907
19037W        W78133  44.462  28.566   4.155
19038W        W78134  21.136  29.591   2.417
19039W        W78135  42.033  34.505  13.024
19040W        W78136  27.944  39.826   1.393
19041W        W78137  39.927  28.088  11.500
19042W        W78138  19.206  17.148  13.311
19043W        W78139  30.435  44.374   1.310
19044W        W78140  32.565  32.894  10.481
19045W        W78141  33.957  18.120   1.233
19046W        W78142  24.658  38.074   4.131
19047W        W78143  19.701  33.101   3.856
19048W        W78144  43.802   9.686   3.849
19049W        W78145  24.479  40.896  14.947
19050W        W78146  32.929  30.023   3.690
19051W        W78147  36.394  39.857   2.358
19052W        W78148   7.907  36.545  12.946
19053W        W78149   7.350   0.435   0.817
19054W        W78150  20.595   2.364  13.903
19055W        W78151   3.923  26.686   0.260
19056W        W78152  28.538   9.734  14.284
19057W        W78153   3.302  15.739   3.751
19058W        W78154  29.092  35.416  14.961
19059W        W78155  31.906  26.678   3.802
19060W        W78156  26.557  15.263  10.956
19061W        W78157  29.620  22.031  12.464
19062W        W78158   8.869  35.044  11.904
19063W        W78159   0.786  27.690  12.573
19064W        W78160  24.124  33.878   1.791
19065W        W78161   7.690  25.586  14.851
19066W        W78162  44.899  42.976  13.385
19067W        W78163  11.638   8.776  12.484
19068W        W78164  22.562  18.779  14.859
19069W        W78165  33.439  22.547  12.840
19070W        W78166   3.731  32.021  11.972
19071W        W78167  36.052  42.381  10.961
19072W        W78168  36.848  35.079  11.481
19073W        W78169  37.837   5.798  11.423
19074W        W78170  29.989   6.347   4.694
19075W        W78171  30.565   5.765   1.766
19076W        W78172  33.388  41.308   4.798
19077W        W78173  15.184  44.859  14.793
19078W        W78174  32.620  42.985  12.407
19079W        W78175   9.364  16.279   1.868
19080W        W78176  38.427  28.656  14.988
19081W        W78177  26.597  20.737  10.454
19082W        W78178  28.014  11.636   4.153
19083W        W78179  40.520  21.601  12.556
19084W        W78180  43.921  31.529   3.850
19085W        W78181  11.834   0.475  13.928
19086W        W78182   9.214  14.723  14.459
19087W        W78183  32.071  37.356   2.231
19088W        W78184  36.907  26.106  10.445
19089W        W78185  26.075   3.397  14.480
19090W        W78186  10.287  27.993   3.720
19091W        W78187  39.434  13.350   1.741
19092W        W78188  26.200  23.102  11.879
19093W        W78189  18.573  15.157  14.323
19094W        W78190  34.917   4.902  11.879
19095W        W78191  18.693  29.660   2.248
19096W        W78192  26.653  39.934  10.481
19097W        W78193  27.035  37.543  14.887
19098W        W78194  39.435  39.517  14.940
19099W        W78195  15.790   8.360   2.795
19100W        W78196  27.968  18.558  11.035
19101W        W78197  42.467   9.796  13.526
19102W        W78198  40.406  17.724   2.393
19103W        W78199  16.745  29.600   2.408
19104W        W78200  21.116   0.351   4.166
19105W        W78201  44.420   1.943   0.821
19106W        W78202  31.926  26.178   3.681
19107W        W78203   5.269   2.892  14.476
19108W        W78204  12.636  13.215   3.781
19109W        W78205  14.177  31.079   4.814
19110W        W78206  10.839  33.038  14.498
19111W        W78207  32.496  14.235   1.336
19112W        W78208  38.568  41.028   2.781
19113W        W78209   5.924  15.608   1.786
19114W        W78210   9.681   9.774  10.434
19115W        W78211  17.109  43.910   0.744
19116W        W78212  15.596  40.421  13.483
19117W        W78213  20.579  29.924  14.356
19118W        W78214  23.699  44.962   3.748
19119W        W78215  42.498  29.139  12.068
19120W        W78216  24.633  37.909  11.524
19121W        W78217  34.058  14.097  14.491
19122W        W78218  32.602  14.739  14.010
19123W        W78219   2.435  34.980   1.807
19124W        W78220  28.075   1.379  13.363
19125W        W78221  19.163  35.855   5.758
19126W        W78222  22.644  36.451  10.037
19127W        W78223  21.686  13.121   1.787
19128W        W78224  42.992  13.729  13.032
19129W        W78225  29.094  14.257  11.870
19130W        W78226  17.623  44.274  14.896
19131W        W78227   4.898  28.050   1.713
19132W        W78228  30.527  26.000  11.472
19133W        W78229  28.609  23.500  13.892
19134W        W78230  43.286  44.894   4.812
19135W        W78231   4.368  36.427   2.668
19136W        W78232  13.708  14.736   2.873
19137W        W78233  44.458  30.945   4.303
19138W        W78234  40.953   4.396   0.802
19139W        W78235   8.170  26.697  11.445
19140W        W78236  31.943   9.649  11.567
19141W        W78237  36.430   3.434  10.057
19142W        W78238  34.575   0.909  12.496
19143W        W78239  44.443   8.657   3.764
19144W        W78240  22.168  31.923   2.403
19145W        W78241  40.972  27.030   2.864
19146W        W78242  24.578  22.595  12.477
19147W        W78243  13.137  37.451   3.758
19148W        W78244  10.703  10.710  14.839
19149W        W78245  43.855  37.423  14.473
19150W        W78246   2.909  22.093  12.887
19151W        W78247  42.315  13.818  12.461
19152W        W78248   6.837  34.475   3.684
19153W        W78249  38.389  40.338  12.004
19154W        W78250  33.092  10.329   2.753
19155W        W78251  20.054  34.376  12.504
19156W        W78252  39.358  17.145  11.899
19157W        W78253  16.632  16.249   3.864
19158W        W78254   2.260  32.016   4.236
19159W        W78255  13.215   8.196  13.448
19160W        W78256  43.300   8.381  11.476
19161W        W78257  18.286  20.041  14.352
19162W        W78258  24.223  14.318   3.381
19163W        W78259  41.967  26.069   4.752
19164W        W78260  33.959   9.156   3.745
19165W        W78261  16.295  43.444   2.272
19166W        W78262  39.028  38.067   2.211
19167W        W78263   6.816  21.049  11.120
19168W        W78264  28.105  12.713  14.847
19169W        W78265   0.427  32.043  14.391
19170W        W78266  23.159  21.695   2.179
19171W        W78267  29.632  27.083   1.783
19172W        W78268  15.582   2.836   1.734
19173W        W78269  14.813  41.479  11.979
19174W        W78270  15.177  36.010  11.029
19175W        W78271  42.817   3.215  11.001
19176W        W78272   8.246  38.544  10.427
19177W        W78273  12.721  37.995   3.219
19178W        W78274  10.323   7.293  10.961
19179W        W78275  30.981  30.980  13.826
19180W        W78276   1.834  22.611   4.222
19181W        W78277  39.472  39.410   4.336
19182W        W78278   3.323  29.082   2.197
19183W        W78279  17.703  35.072  14.495
19184W        W78280  10.740  39.439  11.092
19185W        W78281  22.189  16.090   3.242
19186W        W78282   2.450   7.242  11.424
19187W        W78283  16.715  35.395  12.578
19188W        W78284  22.582  13.769   1.863
19189W        W78285  16.703   1.753  10.912
19190W        W78286  31.430  20.174   2.202
19191W        W78287  22.535  21.228   1.866
19192W        W78288  31.452  37.546  14.472
19193W        W78289  18.234   4.838  12.346
19194W        W78290  33.105  11.321  10.558
19195W        W78291  34.921  21.182  11.116
19196W        W78292   6.316  16.737   1.380
19197W        W78293  35.891  29.538   4.152
19198W        W78294  39.927  40.364   4.625
19199W        W78295  33.013  10.247   0.830
19200W        W78296  38.431  27.109   3.369
19201W        W78297  39.038  41.958  13.408
19202W        W78298  18.636  17.793  14.949
19203W        W78299  29.601   0.844   2.251
19204W        W78300   3.747  20.636   2.898
19205W        W78301  28.672  41.396  14.014
19206W        W78302   2.826  15.241  11.102
19207W        W78303  34.963  20.592   1.813
19208W        W78304  18.645   8.797   0.900
19209W        W78305  13.607  25.619   2.858
19210W        W78306  21.628  38.019   0.424
19211W        W78307  41.028  17.776   3.814
19212W        W78308   8.321  20.576   3.673
19213W        W78309  29.456  15.245  13.038
19214W        W78310  38.477  16.568  12.943
19215W        W78311   1.336   6.773   2.366
19216W        W78312   5.865   1.350   2.324
19217W        W78313  29.659   6.368  12.079
19218W        W78314  28.092  26.169   2.870
19219W        W78315  10.183  17.796  11.393
19220W        W78316  15.209  14.145  12.861
19221W        W78317  10.217  32.479  10.952
19222W        W78318  20.759  36.427  11.083
19223W        W78319  13.769  20.265   0.924
19224W        W78320  43.796  18.250   3.642
19225W        W78321  27.186   2.875  12.448
19226W        W78322   8.901  14.695  13.372
19227W        W78323  10.877  25.575   0.252
19228W        W78324   8.185  42.859   5.198
19229W        W78325  22.606  41.377   2.288
19230W        W78326  29.495   0.907   3.646
19231W        W78327  35.884  31.069   2.278
19232W        W78328  43.840  16.312   1.359
19233W        W78329  21.185  39.833   0.395
19234W        W78330   8.860  43.279  12.035
19235W        W78331  21.115  40.045   4.665
19236W        W78332   5.771   2.419  14.427
19237W        W78333  35.016  40.407  10.461
19238W        W78334  23.040  36.370  12.005
19239W        W78335  31.451  19.686  11.969
19240W        W78336   5.428  29.443  10.927
19241W        W78337  32.606  35.527   0.313
19242W        W78338   4.427   0.854  11.962
19243W        W78339  29.094   7.755   2.687
19244W        W78340  31.596  37.395  13.941
19245W        W78341  17.213  41.790   2.860
19246W        W78342  23.608  44.858  12.069
19247W        W78343  17.732  26.110   2.873
19248W        W78344  30.429  32.594   4.651
19249W        W78345  34.101  22.043  14.347
19250W        W78346   1.323   1.382  10.905
19251W        W78347  35.525  18.645  13.854
19252W        W78348  44.495  37.345   1.815
19253W        W78349   2.817  23.231  13.919
19254W        W78350  41.979  20.706  14.478
19255W        W78351  16.766   3.347   3.305
19256W        W78352  24.118   2.749  14.986
19257W        W78353   8.394   4.441   4.754
19258W        W78354  17.225  35.967  13.883
19259W        W78355  38.408  37.061   2.773
19260W        W78356   7.873  44.769  12.054
19261W        W78357  24.627   8.901  10.965
19262W        W78358  35.443   9.706  10.967
19263W        W78359  22.995  30.909   0.903
19264W        W78360   2.313   9.171   4.680
19265W        W78361   4.713  40.467  10.987
19266W        W78362  13.241  20.143   0.361
19267W        W78363  41.412   8.731   0.297
19268W        W78364  14.812  11.301  11.874
19269W        W78365  11.828  39.366   0.730
19270W        W78366   8.233  33.447   1.912
19271W        W78367  29.601  25.576  14.026
19272W        W78368   4.231  13.234   0.476
19273W        W78369   5.401  44.777   4.708
19274W        W78370  22.115  35.931  12.009
19275W        W78371   9.393  29.661   1.866
19276W        W78372  20.653  41.888  13.515
19277W        W78373  21.229  18.766   4.620
19278W        W78374  37.919  18.151  14.943
19279W        W78375  15.199   6.409   2.189
19280W        W78376  14.830   4.352   4.169
19281W        W78377  32.040  43.772   3.711
19282W        W78378  25.476  42.829   4.315
19283W        W78379  19.582  21.632   2.687
19284W        W78380  35.444  14.716  11.062
19285W        W78381  11.800   0.446   4.605
19286W        W78382   4.929  21.163  13.465
19287W        W78383  39.062  14.824   0.917
19288W        W78384  32.902  17.768   3.221
19289W        W78385   0.959  16.126  13.429
19290W        W78386  34.615  39.448  11.486
19291W        W78387  13.757  20.573   3.178
19292W        W78388   1.356  13.675   1.891
19293W        W78389   2.809  32.421  12.070
19294W        W78390  25.127  19.657   2.736
19295W        W78391  43.877  37.935  10.408
19296W        W78392   1.913  38.569  13.839
19297W        W78393  39.825   0.863   4.647
19298W        W78394  22.609  32.136   4.801
19299W        W78395  11.175  39.487  11.483
19300W        W78396  36.902   6.768  13.414
19301W        W78397  37.926  38.443   3.219
19302W        W78398  15.643  23.578   0.289
19303W        W78399  13.267  16.150  12.352
19304W        W78400  38.012  17.292   1.749
19305W        W78401  24.720  38.945   5.310
19306W        W78402  29.058  28.565   0.918
19307W        W78403  25.068  30.527   4.261
19308W        W78404  24.574   5.411  13.928
19309W        W78405   3.393  30.130   3.789
19310W        W78406  16.641  26.144  14.365
19311W        W78407  23.603  20.627   1.287
19312W        W78408  32.424  19.190  13.982
19313W        W78409  28.178  17.768  12.865
19314W        W78410  39.811  44.458  14.799
19315W        W78411   0.355  24.523   0.936
19316W        W78412  13.310  40.401  10.905
19317W        W78413   4.837  14.213  12.010
19318W        W78414  35.070   9.215   4.214
19319W        W78415  15.205   8.332  14.027
19320W        W78416  32.438  13.295   0.439
19321W        W78417  15.644  43.994  10.488
19322W        W78418   7.876  15.631  11.105
19323W        W78419   6.688   1.942   2.380
19324W        W78420   0.447  24.700   0.343
19325W        W78421  41.397  37.343  14.377
19326W        W78422   6.410  22.159  11.414
19327W        W78423  12.712   6.683   1.301
19328W        W78424  25.510   5.869  13.430
19329W        W78425  43.823  34.015   1.769
19330W        W78426  12.726   6.289  13.904
19331W        W78427   6.382  37.501  13.842
19332W        W78428  11.335  34.499   1.216
19333W        W78429  35.397  42.441  13.064
19334W        W78430  19.262  10.230  11.100
19335W        W78431  13.245  36.028   0.344
19336W        W78432  37.839  42.282   4.227
19337W        W78433  19.104  28.939  12.513
19338W        W78434  27.101  35.406  12.868
19339W        W78435  16.081   9.870  12.538
19340W        W78436   4.393   7.776  10.607
19341W        W78437  26.487  33.097  14.378
19342W        W78438  13.295  27.145  14.870
19343W        W78439   7.705   9.380  11.514
19344W        W78440  35.562  26.017   4.749
19345W        W78441  42.954  27.478  13.028
19346W        W78442  17.670   1.434   2.737
19347W        W78443  16.185  36.542  13.050
19348W        W78444  35.532   1.756   4.170
19349W        W78445  29.953  29.561  13.952
19350W        W78446  44.381  28.497   4.623
19351W        W78447  14.312   4.701  11.940
19352W        W78448   5.893   3.865  12.873
19353W        W78449  19.150  13.330  11.564
19354W        W78450   6.815  10.358  12.565
19355W        W78451  38.009  16.598  11.506
19356W        W78452  30.642  22.168  13.988
19357W        W78453  43.316  39.886   3.711
19358W        W78454  14.589  12.346   3.170
19359W        W78455  11.795  26.554  11.046
19360W        W78456   3.788  17.236   1.724
19361W        W78457  24.977  22.537   0.876
19362W        W78458  21.627  28.102   4.291
19363W        W78459   2.288  42.002   1.918
19364W        W78460  10.746  43.295  13.935
19365W        W78461   5.230  21.562   3.338
19366W        W78462   6.879   7.184  13.894
19367W        W78463  12.641  29.489  11.086
19368W        W78464  36.994  18.096   2.384
19369W        W78465  43.301  31.039  10.439
19370W        W78466  18.669  36.926   0.327
19371W        W78467  34.999  41.981   4.350
19372W        W78468  32.442  37.959  11.494
19373W        W78469  27.943   4.798  10.509
19374W        W78470   2.242  44.844   1.784
19375W        W78471  25.583  22.654   2.760
19376W        W78472  21.109  43.987   3.255
19377W        W78473  13.311   8.168  12.984
19378W        W78474  24.717   8.272  12.380
19379W        W78475   9.684   7.225   4.793
19380W        W78476  43.975   0.353   3.334
19381W        W78477  14.155  15.153   3.798
19382W        W78478  37.992  15.609   1.767
19383W        W78479  32.932  14.684   3.255
19384W        W78480  21.515  17.650   1.388
19385W        W78481  25.118   5.303  13.813
19386W        W78482  32.015  19.086   1.281
19387W        W78483  34.103  19.129   9.981
19388W        W78484   9.836  19.724  11.958
19389W        W78485  26.531  32.040   4.179
19390W        W78486  13.612  15.658   0.870
19391W        W78487  44.976  10.364  12.518
19392W        W78488   2.898  24.003   3.379
19393W        W78489  21.595  15.259   1.280
19394W        W78490   4.215  28.628  14.508
19395W        W78491  13.700   9.665   2.662
19396W        W78492  29.642  44.413  13.890
19397W        W78493  21.196  13.791  12.836
19398W        W78494  30.991  31.046   4.130
19399W        W78495  21.709  31.930  11.981
19400W        W78496  22.676  41.313  11.985
19401W        W78497  30.956  40.855   0.891
19402W        W78498   3.254   8.861  13.996
19403W        W78499  40.824   4.836   2.832
19404W        W78500  16.285  41.400  10.409
19405W        W78501  24.026  39.037  13.425
19406W        W78502  27.663   5.417  11.030
19407W        W78503  26.630  28.612   0.752
19408W        W78504  30.446  21.171   2.234
19409W        W78505  30.999  17.293   2.781
19410W        W78506   5.780  21.558  10.486
19411W        W78507  13.835  30.580  10.574
19412W        W78508  12.360  22.029  12.854
19413W        W78509  19.562   3.393   4.233
19414W        W78510  38.507  11.720  13.963
19415W        W78511  44.462  16.734  14.423
19416W        W78512  19.128   1.301   1.328
19417W        W78513   4.283  13.612  11.992
19418W        W78514  42.900  11.775  11.573
19419W        W78515  41.923  44.337   3.382
19420W        W78516  37.003   5.869   0.484
19421W        W78517  36.510  24.573  14.819
19422W        W78518  35.983  44.932  10.576
19423W        W78519  25.008  39.966  11.445
19424W        W78520   9.171  21.535  12.392
19425W        W78521  42.483  42.448   2.707
19426W        W78522   2.762  15.657  14.500
19427W        W78523  34.935  21.249  12.530
19428W        W78524  21.561  38.487   0.923
19429W        W78525   2.233  41.925   3.795
19430W        W78526  12.746  31.993  12.863
19431W        W78527  26.581   7.222  11.561
19432W        W78528  26.626  29.984  14.280
19433W        W78529  23.512  17.680  14.466
19434W        W78530  17.195  35.599  12.569
19435W        W78531   0.484  39.821  12.940
19436W        W78532  23.540  20.066   0.931
19437W        W78533  32.446  33.428   1.347
19438W        W78534  43.947  30.624   2.265
19439W        W78535  22.191  27.185   1.247
19440W        W78536  38.389  41.041  11.545
19441W        W78537  25.098  34.494   2.784
19442W        W78538  34.573  35.403   2.894
19443W        W78539  43.990  33.062  11.507
19444W        W78540  42.441  25.218  14.436
19445W        W78541  22.634   8.382   3.691
19446W        W78542  14.106  23.524  10.142
19447W        W78543  26.191  23.011   3.171
19448W        W78544  44.944  15.162  12.969
19449W        W78545  36.492  23.003   3.710
19450W        W78546  29.069  23.529   0.848
19451W        W78547  24.022  22.654   1.333
19452W        W78548  39.868  36.552  14.763
19453W        W78549  12.242  40.344  11.513
19454W        W78550   5.895   6.847   2.727
19455W        W78551   0.957  42.380  13.399
19456W        W78552  21.102  12.241   1.242
19457W        W78553  42.413  44.768   2.824
19458W        W78554   6.291   5.906  13.434
19459W        W78555  32.919  28.007   3.734
19460W        W78556   6.757   7.248  10.409
19461W        W78557  13.135   6.327   4.289
19462W        W78558   7.399  30.470  12.007
19463W        W78559  23.090  31.618   4.629
19464W        W78560  17.620  10.854   0.904
19465W        W78561  31.415  15.802  12.039
19466W        W78562  23.082   9.766   5.744
19467W        W78563  36.880  42.891   2.370
19468W        W78564  37.424  33.405   0.815
19469W        W78565  30.052  18.280   1.372
19470W        W78566  27.180   0.842   1.421
19471W        W78567  11.297  24.187   2.407
19472W        W78568   3.432   6.750  11.011
19473W        W78569  28.004   4.365   3.275
19474W        W78570  40.928  38.328  11.495
19475W        W78571  14.261  10.250   1.331
19476W        W78572   9.863  37.053  13.893
19477W        W78573  39.892  12.638  13.475
19478W        W78574  33.428  14.749   3.737
19479W        W78575  16.224   1.299  13.987
19480W        W78576   1.477  16.128  14.310
19481W        W78577   8.760  17.109   4.611
19482W        W78578  16.318   7.795   1.234
19483W        W78579  15.630   6.412   4.183
19484W        W78580  14.797  30.525  10.612
19485W        W78581  31.468  30.599   4.765
19486W        W78582  17.118  39.450  12.904
19487W        W78583  40.887   2.336  11.560
19488W        W78584   7.768  31.412  13.943
19489W        W78585  15.139  21.139  10.616
19490W        W78586  37.857   1.375   0.825
19491W        W78587  37.936  20.167   2.827
19492W        W78588  36.935  13.115   2.818
19493W        W78589  30.126  32.567  11.077
19494W        W78590  16.150   5.273  11.961
19495W        W78591   0.917   6.872  12.076
19496W        W78592  42.001  23.610   4.172
19497W        W78593   1.970   5.343   4.735
19498W        W78594  39.939   7.753   1.767
19499W        W78595  27.557   2.811   1.369
19500W        W78596  41.035  31.106  14.905
19501W        W78597  32.988  27.653   1.300
19502W        W78598  14.130  36.424   3.241
19503W        W78599  36.043   0.337  12.528
19504W        W78600   0.755  10.873  12.025
19505W        W78601   6.400  40.934  10.556
19506W        W78602  19.232  35.568  12.386
19507W        W78603   3.947  28.524   0.339
19508W        W78604  11.652  34.984   2.188
19509W        W78605  26.113  31.927  13.011
19510W        W78606  44.292  12.348   4.189
19511W        W78607  32.920  39.390   2.688
19512W        W78608   7.319  36.911   4.703
19513W        W78609  43.939  19.079   1.369
19514W        W78610  10.839   8.187  10.629
19515W        W78611  21.755  15.640  13.813
19516W        W78612  14.322  22.541  12.526
19517W        W78613   3.388  29.135  13.034
19518W        W78614  23.177   2.289   3.347
19519W        W78615  34.483   9.673  10.624
19520W        W78616  10.363  39.919   2.742
19521W        W78617   6.768   2.734  12.515
19522W        W78618   7.796  22.536  13.843
19523W        W78619   9.861  14.613  12.394
19524W        W78620  20.570   9.338   4.701
19525W        W78621   4.864  24.099   5.261
19526W        W78622   9.815  11.732  12.496
19527W        W78623   9.329   8.223  10.506
19528W        W78624  33.463  10.781   0.813
19529W        W78625  34.087  39.970  10.576
19530W        W78626  42.840  25.544  11.882
19531W        W78627  10.144  24.571  12.086
19532W        W78628  34.086  10.175   4.246
19533W        W78629  33.562   6.896   3.690
19534W        W78630  31.600  12.294   0.334
19535W        W78631  44.938  25.645  14.793
19536W        W78632   7.781   0.852   3.766
19537W        W78633  32.476  32.630   1.360
19538W        W78634  17.072  39.378  10.016
19539W        W78635  41.843  35.406  11.560
19540W        W78636  26.976  16.176  14.348
19541W        W78637  41.308  38.490  14.781
19542W        W78638  41.465  12.356  13.451
19543W        W78639  22.088  20.157   9.618
19544W        W78640  39.923  40.409  13.998
19545W        W78641  28.012  38.869  13.900
19546W        W78642  39.921  42.323   2.822
19547W        W78643  18.087  13.273   0.424
19548W        W78644   7.699  42.452   4.775
19549W        W78645  37.406  43.950  10.020
19550W        W78646  25.675  12.616  13.008
19551W        W78647  27.588  30.585  10.568
19552W        W78648  35.048  25.080  11.880
19553W        W78649  41.471  38.864   2.200
19554W        W78650  37.568  15.160   3.718
19555W        W78651  18.163   6.690  12.398
19556W        W78652  30.946   6.325   3.673
19557W        W78653   6.393   8.676   3.371
19558W        W78654  44.836  42.013   1.310
19559W        W78655  18.184  32.137  14.463
19560W        W78656   8.177  23.144   0.311
19561W        W78657  22.703   9.276   3.296
19562W        W78658  10.215  18.591   3.693
19563W        W78659  30.955  22.104  14.854
19564W        W78660  35.603  10.143   3.862
19565W        W78661  27.131  18.292  13.794
19566W        W78662  20.268  23.202   0.479
19567W        W78663  20.692   4.850   1.882
19568W        W78664  43.874  16.188   4.706
19569W        W78665   3.802   3.784  11.561
19570W        W78666  26.032  12.168   0.773
19571W        W78667  36.001  43.922   2.201
19572W        W78668  26.085  36.991  13.912
19573W        W78669   4.708   0.823  12.886
19574W        W78670  27.580  15.817   0.293
19575W        W78671   0.801  19.163   3.317
19576W        W78672  11.312  27.110   1.406
19577W        W78673   5.783  19.077  10.503
19578W        W78674  17.254  15.663   0.244
19579W        W78675  24.106  26.560   1.868
19580W        W78676  27.528   0.755   4.274
19581W        W78677  28.084  33.924   0.401
19582W        W78678   7.898  40.941   1.834
19583W        W78679  18.147  40.891  14.773
19584W        W78680  44.426  22.635   2.399
19585W        W78681  22.073  18.783   3.765
19586W        W78682  33.958  28.650   0.940
19587W        W78683  32.975  21.263   4.116
19588W        W78684  44.951  37.895   0.965
19589W        W78685  25.189  39.961   4.790
19590W        W78686  19.158  42.022   0.753
19591W        W78687  15.205   1.801  14.999
19592W        W78688  13.786  19.616   2.396
19593W        W78689  20.680  36.910   4.771
19594W        W78690  42.510  33.000  11.599
19595W        W78691  44.905  11.733  10.582
19596W        W78692  44.445  35.099  11.463
19597W        W78693  41.329  27.033   1.927
19598W        W78694  16.760  16.136  14.310
19599W        W78695   4.816  15.792  12.361
19600W        W78696  44.877  40.002  11.389
19601W        W78697  19.759  32.532   0.340
19602W        W78698   8.860  36.466   2.233
19603W        W78699  24.694  22.655   5.241
19604W        W78700  36.995  37.414   0.273
19605W        W78701  38.414  13.702   3.296
19606W        W78702  21.204   5.790  12.477
19607W        W78703   4.801  15.813  11.568
19608W        W78704  29.619   5.924  14.378
19609W        W78705   9.182   6.785  10.903
19610W        W78706  28.063  13.112  14.502
19611W        W78707  31.616  38.929  13.886
19612W        W78708  28.030  18.625  12.028
19613W        W78709  40.432  11.243   0.884
19614W        W78710  38.884  15.263   0.947
19615W        W78711  31.559  18.284   1.385
19616W        W78712  12.716  22.528  10.518
19617W        W78713  33.419  42.895   0.801
19618W        W78714   0.295   3.884  13.929
19619W        W78715   4.396  42.319   3.306
19620W        W78716   0.760  30.016  13.803
19621W        W78717  36.007   9.722   4.210
19622W        W78718  42.796  27.616   4.744
19623W        W78719  26.074   2.736  13.446
19624W        W78720  42.901  19.085   2.291
19625W        W78721  33.592   6.342   5.182
19626W        W78722  36.089  34.545  14.950
19627W        W78723  41.973   9.169   0.373
19628W        W78724   0.820   5.748   3.630
19629W        W78725  30.157  19.086   3.292
19630W        W78726  19.160   5.828  10.544
19631W        W78727   3.366  22.536  12.425
19632W        W78728  26.650  16.610   3.663
19633W        W78729  35.434  32.544  11.476
19634W        W78730  44.767  42.003  11.971
19635W        W78731  35.914  31.418   4.774
19636W        W78732  21.161   4.296   1.278
19637W        W78733  41.326  12.273   2.668
19638W        W78734  29.542  29.628   0.345
19639W        W78735  14.831   0.972  13.482
19640W        W78736  34.939  28.187  10.958
19641W        W78737  15.703   6.223   2.731
19642W        W78738  37.916  30.107   1.770
19643W        W78739  35.565  28.104   1.694
19644W        W78740  26.656  10.205   0.467
19645W        W78741   1.859  30.446  14.344
19646W        W78742  33.986  20.585   0.262
19647W        W78743  38.335  42.930   0.351
19648W        W78744  15.763   6.391   1.224
19649W        W78745  18.569   5.730  10.953
19650W        W78746  16.160  28.022   1.825
19651W        W78747  41.422  13.219   0.412
19652W        W78748   2.752   3.245  14.367
19653W        W78749  14.338   1.262  11.403
19654W        W78750  15.194   8.281   3.731
19655W        W78751  17.140  25.560   3.382
19656W        W78752  20.734  35.027   1.355
19657W        W78753  34.599  16.744  11.042
19658W        W78754  26.574  18.065  12.075
19659W        W78755  22.223   1.427  11.092
19660W        W78756  27.677   7.744   3.254
19661W        W78757  42.794  15.759  13.540
19662W        W78758  41.911  43.374  13.920
19663W        W78759  29.041  29.126  12.571
19664W        W78760  11.626  43.400  11.571
19665W        W78761  13.702  31.522  12.031
19666W        W78762  26.666  39.340  13.805
19667W        W78763  26.164  44.497  13.880
19668W        W78764  36.546  37.849   1.253
19669W        W78765   7.215  38.922   1.379
19670W        W78766  30.587  21.175   3.228
19671W        W78767  13.163  11.734  13.312
19672W        W78768  37.925  37.877  14.885
19673W        W78769  14.217  12.121  13.013
19674W        W78770  43.513  15.191   3.201
19675W        W78771  27.648  15.246  14.293
19676W        W78772  35.417  38.350  13.955
19677W        W78773  31.135  27.614   3.777
19678W        W78774  33.939  11.858  13.467
19679W        W78775  32.436  13.820   1.763
19680W        W78776  14.663   6.264  11.038
19681W        W78777  27.502  33.606   1.808
19682W        W78778  22.211   7.902  12.558
19683W        W78779  21.607  32.889   0.729
19684W        W78780  21.201   9.740  14.971
19685W        W78781   1.780  37.355   4.616
19686W        W78782  18.293  34.421   2.749
19687W        W78783  35.460  44.995  12.538
19688W        W78784  32.568  42.350  13.379
19689W        W78785  19.164  12.152  14.927
19690W        W78786  24.065  28.635   4.697
19691W        W78787  39.384   8.857  11.484
19692W        W78788  24.984  12.769   3.214
19693W        W78789  40.012  20.660   2.387
19694W        W78790   1.425  33.428   2.361
19695W        W78791  43.401  24.676  13.507
19696W        W78792   4.722  11.372  10.988
19697W        W78793   7.807  14.212   4.219
19698W        W78794  44.478  29.030   2.856
19699W        W78795  30.435  17.210   4.692
19700W        W78796   6.730   5.243  13.880
19701W        W78797  36.935  41.360  14.323
19702W        W78798   7.872  39.034  12.417
19703W        W78799  38.054  17.764  14.404
19704W        W78800  34.059  23.669  14.916
19705W        W78801   5.335   5.924  14.966
19706W        W78802  44.915   5.368   0.932
19707W        W78803  26.979  12.743   2.761
19708W        W78804  12.804  17.664   0.260
19709W        W78805  32.511  23.225  13.875
19710W        W78806  36.574  11.639   0.831
19711W        W78807   0.296  38.334   0.428
19712W        W78808  10.384  20.652  10.409
19713W        W78809  22.032  19.584  12.541
19714W        W78810  11.203  26.013   0.483
19715W        W78811  44.482  18.275   3.296
19716W        W78812  31.429  27.466  10.943
19717W        W78813  14.321  22.234   4.650
19718W        W78814   8.733  15.167   2.705
19719W        W78815  28.464   0.286   3.356
19720W        W78816  33.401  15.246   1.222
19721W        W78817  32.531  28.492   4.777
19722W        W78818  43.398  27.496  12.923
19723W        W78819  26.006  32.481   0.324
19724W        W78820   5.708  14.828   0.321
19725W        W78821  11.783  26.546  11.595
19726W        W78822  28.070  32.507  10.941
19727W        W78823  33.907  31.597   1.826
19728W        W78824  40.342  29.164  12.059
19729W        W78825  21.678  22.241   3.682
19730W        W78826  20.089  32.077   1.418
19731W        W78827  29.985  18.270  11.482
19732W        W78828  31.027   6.263   1.881
19733W        W78829  32.125  16.245   1.754
19734W        W78830  33.591  21.511  10.034
19735W        W78831  24.681  30.505   3.289
19736W        W78832  19.089  28.149  14.799
19737W        W78833  25.520   3.360   2.825
19738W        W78834  26.028  26.627  14.498
19739W        W78835  26.526  12.642   9.968
19740W        W78836  35.038  12.628  14.909
19741W        W78837  40.471  27.589  11.940
19742W        W78838  38.053  25.140   1.715
19743W        W78839  11.365  19.146   0.851
19744W        W78840  11.737  18.734   2.738
19745W        W78841  14.160  20.720  13.858
19746W        W78842  19.087  35.517   0.820
19747W        W78843  36.875  44.379   3.796
19748W        W78844  42.912  30.634  13.901
19749W        W78845  35.081   6.209  14.333
19750W        W78846  12.307  37.532  12.575
19751W        W78847  24.481  30.656  13.415
19752W        W78848   9.168  40.950   0.329
19753W        W78849  20.270   5.393  10.915
19754W        W78850  43.482  29.626   4.222
19755W        W78851  26.700   7.719  10.493
19756W        W78852  41.864  41.301  12.560
19757W        W78853  26.686  41.468  11.886
19758W        W78854  28.450  43.809   1.752
19759W        W78855   6.232   8.831   4.177
19760W        W78856  35.530  18.117  12.364
19761W        W78857   3.725  34.581  12.423
19762W        W78858  25.572  15.794   2.802
19763W        W78859  26.637   5.719  13.990
19764W        W78860  33.607   2.721  12.406
19765W        W78861  25.678   6.682  11.491
19766W        W78862  29.581  16.806  14.001
19767W        W78863  40.942  39.877   3.314
19768W        W78864  34.454  30.501   1.780
19769W        W78865  10.658  29.075  12.390
19770W        W78866  44.460  32.481  14.408
19771W        W78867   8.299   2.912   2.840
19772W        W78868  29.010  14.671   4.715
19773W        W78869  17.609  38.489   0.896
19774W        W78870  43.290  31.455   3.298
19775W        W78871   0.355   4.431   2.723
19776W        W78872  12.780  26.127  14.964
19777W        W78873   1.392  22.186   3.819
19778W        W78874  14.171  38.059  11.465
19779W        W78875  10.780  42.376   1.827
19780W        W78876  34.882  23.492  13.928
19781W        W78877  44.379  36.491  12.421
19782W        W78878  14.757  20.124  14.981
19783W        W78879  10.152  11.210  10.898
19784W        W78880  25.149  25.521   3.187
19785W        W78881  34.921  37.954  10.533
19786W        W78882  14.628  28.129  13.335
19787W        W78883  36.043   1.334   2.287
19788W        W78884  38.391  26.150  10.979
19789W        W78885   7.293  38.382   4.224
19790W        W78886  15.751   3.759  13.058
19791W        W78887  35.466  15.818  13.900
19792W        W78888  31.906  24.116  14.761
19793W        W78889  37.906  41.334  11.527
19794W        W78890  38.343  30.605   4.811
19795W        W78891  11.638  25.154   0.910
19796W        W78892   2.838  13.169   2.872
19797W        W78893  31.140   8.175  13.808
19798W        W78894  23.012  42.825  10.974
19799W        W78895   0.282  41.491  12.548
19800W        W78896  36.491  13.345   2.396
19801W        W78897  16.220  14.251   4.765
19802W        W78898   2.291   4.710  11.371
19803W        W78899  14.225  23.162  12.537
19804W        W78900   1.274  38.825  13.948
19805W        W78901   4.872   1.823  12.867
19806W        W78902  13.724  16.705  10.429
19807W        W78903   4.721   6.859  10.069
19808W        W78904  18.759  44.374   3.758
19809W        W78905  43.372   1.389   1.359
19810W        W78906  34.984   4.812   5.314
19811W        W78907  42.972  37.073   2.736
19812W        W78908  28.641  40.913  10.937
19813W        W78909  24.044  23.014   0.310
19814W        W78910  15.279  17.235   0.347
19815W        W78911  22.074  31.907   4.245
19816W        W78912  30.024  24.182  13.433
19817W        W78913  44.374  37.966   3.324
19818W        W78914   4.855   0.746  11.943
19819W        W78915  16.781  42.469   3.839
19820W        W78916  12.273  42.844   1.761
19821W        W78917  22.040  16.115  12.493
19822W        W78918  43.008  44.900  10.976
19823W        W78919  36.508   0.283   0.346
19824W        W78920  28.497  11.661   0.729
19825W        W78921  21.648  39.854   0.347
19826W        W78922  31.958  41.799  14.361
19827W        W78923  21.138  16.294   4.696
19828W        W78924   3.287  35.900  10.916
19829W        W78925  25.654   5.367  10.989
19830W        W78926  35.007  36.960  10.951
19831W        W78927  37.543  36.477   4.189
19832W        W78928   9.756  30.469  12.093
19833W        W78929   4.781  10.370  12.926
19834W        W78930  25.510  19.231  11.522
19835W        W78931  17.153  23.102   0.873
19836W        W78932  22.690  44.461  14.483
19837W        W78933   5.199  26.644  10.922
19838W        W78934  13.706  24.602   1.760
19839W        W78935  37.026  31.564  12.383
19840W        W78936  26.985   1.949  10.599
19841W        W78937  30.053  37.987   3.349
19842W        W78938  14.593   5.400   1.402
19843W        W78939  36.389  32.566   0.867
19844W        W78940   3.715  35.078  11.396
19845W        W78941  11.337   5.875  14.834
19846W        W78942  22.667  35.106  14.864
19847W        W78943  24.046  15.814   5.155
19848W        W78944  15.208  16.612   2.402
19849W        W78945  34.919  19.590  13.977
19850W        W78946  41.791  10.873   4.668
19851W        W78947  18.702  31.546   4.735
19852W        W78948  36.589  38.349   3.344
19853W        W78949   8.190  34.490  12.494
19854W        W78950  37.044  38.845   3.804
19855W        W78951   7.863   8.196  11.114
19856W        W78952  13.837   4.370  11.053
19857W        W78953  43.435  29.001   5.210
19858W        W78954   3.330  38.379  12.995
19859W        W78955   8.740  17.736   5.571
19860W        W78956  29.061  18.248   1.707
19861W        W78957  10.211  33.054  14.414
19862W        W78958  28.021   3.363  12.087
19863W        W78959  42.788   6.913  10.487
19864W        W78960  39.834  29.129   0.849
19865W        W78961   2.949   2.851  10.631
19866W        W78962  25.693  10.328   4.138
19867W        W78963  44.329   3.330   0.855
19868W        W78964  20.553   1.855   4.602
19869W        W78965  29.646  42.497   3.367
19870W        W78966  11.360  43.991  10.574
19871W        W78967  20.616  40.974  12.854
19872W        W78968  32.427   0.280   0.771
19873W        W78969  39.885   4.422   2.807
19874W        W78970  14.786  39.418   3.264
19875W        W78971  23.175  37.501  11.992
19876W        W78972  39.861   2.251  11.004
19877W        W78973  38.823   4.319   0.281
19878W        W78974  22.164  12.832   1.804
19879W        W78975  16.275   7.754  13.943
19880W        W78976  10.699  21.616   3.739
19881W        W78977  27.990  40.996   4.686
19882W        W78978   1.792  38.546   1.268
19883W        W78979  31.540  11.212  11.004
19884W        W78980  32.079  34.921   0.829
19885W        W78981   6.747  40.977   0.836
19886W        W78982  14.203  35.459   2.901
19887W        W78983  34.874  11.346  14.301
19888W        W78984  38.440  12.774  12.075
19889W        W78985   8.799   7.667  12.476
19890W        W78986  28.129  33.433   4.147
19891W        W78987  23.691  36.395   0.745
19892W        W78988   0.457  27.075  11.981
19893W        W78989  36.520   7.763   4.292
19894W        W78990  40.025  28.510  14.949
19895W        W78991   3.382   3.260   4.130
19896W        W78992  13.795   4.890  12.025
19897W        W78993  30.158  35.541   1.709
19898W        W78994  36.070  13.137  12.564
19899W        W78995  22.062   7.744  10.966
19900W        W78996   6.383   0.259  14.774
19901W        W78997   5.242  18.649  10.613
19902W        W78998  37.549  38.929   0.914
19903W        W78999  37.882  12.294  12.067
19904W        W79000   3.855  32.447  12.897
19905W        W79001  10.306  37.437  10.442
19906W        W79002   8.845  28.978   4.132
19907W        W79003  28.620  17.273  11.920
19908W        W79004   0.768  18.134  11.580
19909W        W79005  27.573  40.020  13.327
19910W        W79006  26.638  30.994  12.344
19911W        W79007   8.838  24.070   0.374
19912W        W79008  26.121  34.978   2.309
19913W        W79009  20.540  11.130   3.731
19914W        W79010  18.243  30.459  11.930
19915W        W79011  22.566   0.881  13.489
19916W        W79012   3.216  32.930   3.743
19917W        W79013  26.475  10.344  12.578
19918W        W79014  40.490  36.885  10.984
19919W        W79015   1.416  27.601   3.725
19920W        W79016   6.241   0.443  14.405
19921W        W79017  37.920  30.529   0.839
19922W        W79018  23.501  43.432   0.428
19923W        W79019  31.057  33.605  12.449
19924W        W79020  26.128  32.012  12.339
19925W        W79021  36.477   7.796  10.999
19926W        W79022  26.462  12.666  13.506
19927W        W79023  14.647  43.458   0.771
19928W        W79024  23.707  28.156   4.597
19929W        W79025  16.111  32.914  10.949
19930W        W79026  18.775  38.373   4.680
19931W        W79027  15.309   0.842   0.913
19932W        W79028  38.023   0.258   1.377
19933W        W79029  14.609   8.187   2.896
19934W        W79030  16.263  33.936  12.870
19935W        W79031  18.574  33.394   5.274
19936W        W79032  42.893  23.615  12.090
19937W        W79033   5.711   7.403  12.844
19938W        W79034  22.640  25.566  12.840
19939W        W79035  30.941  12.136   0.856
19940W        W79036  42.363  36.077  14.318
19941W        W79037   2.345  39.980   1.302
19942W        W79038  16.098  18.724   4.745
19943W        W79039  13.672  35.092   4.726
19944W        W79040  17.177  39.907   4.643
19945W        W79041  33.611  34.383   0.435
19946W        W79042   4.351   3.262   1.390
19947W        W79043   7.276   3.944   1.256
19948W        W79044  27.561  20.569  11.946
19949W        W79045   9.374  30.521   1.867
19950W        W79046  18.131  40.002  14.779
19951W        W79047  13.835  19.723   0.483
19952W        W79048  37.460   7.865  10.608
19953W        W79049   0.312  44.869  14.282
19954W        W79050  16.253   4.910  14.472
19955W        W79051  32.007  17.603  13.846
19956W        W79052  42.876  13.247  13.431
19957W        W79053  13.114  13.347  14.785
19958W        W79054  42.289   0.461   1.377
19959W        W79055  17.127   8.780   1.719
19960W        W79056   2.895  43.435  11.106
19961W        W79057  27.130  20.149  12.459
19962W        W79058  22.509  37.879   3.635
19963W        W79059  28.044  28.070  13.892
19964W        W79060  12.770  21.062  13.516
19965W        W79061  17.586  36.425   2.670
19966W        W79062  34.563  40.022   4.779
19967W        W79063  13.186  18.711  13.531
19968W        W79064  11.357  29.039  14.404
19969W        W79065  40.909  13.790  12.410
19970W        W79066  34.596  34.579   1.404
19971W        W79067  33.449  36.941  11.955
19972W        W79068  13.757  10.276   0.938
19973W        W79069  30.486  15.807  10.094
19974W        W79070   6.287  41.301   0.953
19975W        W79071  14.266  11.706   4.604
19976W        W79072  16.591   9.373   9.499
19977W        W79073  36.003  28.469  11.980
19978W        W79074  21.626  43.873   3.213
19979W        W79075   5.850  20.750  11.108
19980W        W79076  12.658  40.919  14.969
19981W        W79077  21.248  11.722   2.849
19982W        W79078   0.468  15.206   0.952
19983W        W79079  29.996  31.041   3.262
19984W        W79080  15.803  42.452  11.461
19985W        W79081  21.141  29.428   3.699
19986W        W79082  18.059   3.425   2.857
19987W        W79083  11.323  35.041  14.334
19988W        W79084  12.833  11.857  11.601
19989W        W79085  24.520  17.165  11.381
19990W        W79086  25.039   8.195   2.715
19991W        W79087   7.216  42.827  10.919
19992W        W79088  43.822  37.892  13.978
19993W        W79089   2.409  21.126  10.894
19994W        W79090  32.927  43.282   4.279
19995W        W79091  38.068   7.340  12.578
19996W        W79092  20.767   9.327   1.235
19997W        W79093  38.834  22.739   1.246
19998W        W79094  24.071  29.060   9.944
19999W        W79095  42.952  31.948   9.999
20000W        W79096   3.901   0.483   4.345
20001W        W79097   3.390  21.065   0.879
20002W        W79098  40.438  27.467  13.889
20003W        W79099  40.827  32.041  14.406
20004W        W79100  16.087  16.248   3.219
20005W        W79101  37.414  20.059   1.870
20006W        W79102  35.584  34.465  14.427
20007W        W79103  25.142   5.897   3.304
20008W        W79104  16.108  25.071   2.291
20009W        W79105  13.698  27.069   4.609
20010W        W79106   4.848   3.352  11.439
20011W        W79107  41.389  20.174  13.333
20012W        W79108  35.506  33.016   3.809
20013W        W79109   0.319   7.416   3.764
20014W        W79110  37.011  14.151   3.283
20015W        W79111  26.040  23.516   0.449
20016W        W79112  11.758  28.068   1.297
20017W        W79113  18.615  37.367   9.661
20018W        W79114  11.141  33.481  12.497
20019W        W79115   7.688  17.681   1.299
20020W        W79116  24.214  37.935   0.423
20021W        W79117  21.241   0.426   3.697
20022W        W79118  36.896  23.058   1.274
20023W        W79119   9.367  18.158   2.367
20024W        W79120   1.466   0.260   4.633
20025W        W79121  44.466  44.833   0.769
20026W        W79122  38.007  43.882   0.433
20027W        W79123  41.885  17.108   2.827
20028W        W79124  40.372   9.775   2.794
20029W        W79125  15.582  15.590   1.896
20030W        W79126  35.926   0.448  10.445
20031W        W79127  30.073  12.803   3.373
20032W        W79128  24.000  19.200   2.215
20033W        W79129  37.865  41.799   2.332
20034W        W79130  15.096   0.400  13.046
20035W        W79131   3.437  44.477   4.776
20036W        W79132  22.228   2.463   0.460
20037W        W79133  42.818  34.901   1.713
20038W        W79134  25.182  30.042  10.425
20039W        W79135   9.745   8.690   3.334
20040W        W79136   7.397  12.327   0.440
20041W        W79137  40.020   9.830   2.385
20042W        W79138  43.483  32.536   0.358
20043W        W79139  42.288  31.111  12.486
20044W        W79140  25.025   5.926  14.913
20045W        W79141  27.091  13.618   2.710
20046W        W79142  14.255  31.107   5.137
20047W        W79143   7.912  30.592  11.111
20048W        W79144  22.716  20.117   1.765
20049W        W79145  36.038  36.937  14.363
20050W        W79146  35.039   1.805   4.284
20051W        W79147  35.010   1.898   0.854
20052W        W79148   7.284  43.840  13.859
20053W        W79149  27.524  37.371   1.332
20054W        W79150  40.406   7.744   5.124
20055W        W79151  16.283  29.514  10.158
20056W        W79152  42.309  21.259   2.884
20057W        W79153  16.635  18.238  14.839
20058W        W79154   1.854  38.517  11.389
20059W        W79155  24.033   1.312  14.873
20060W        W79156  26.695  23.624  13.836
20061W        W79157   0.462  33.922  11.483
20062W        W79158  11.324  31.999  12.985
20063W        W79159  16.606  29.487   0.248
20064W        W79160  43.995  44.306  11.405
20065W        W79161   3.300  21.136   2.242
20066W        W79162   9.211  28.937   1.306
20067W        W79163  12.349  25.044  14.363
20068W        W79164  42.452  36.586  14.002
20069W        W79165  34.456  28.523   1.852
20070W        W79166  23.076  42.424  10.581
20071W        W79167  33.889  23.588  13.390
20072W        W79168  23.667  44.299  11.918
20073W        W79169  19.177  40.819   2.351
20074W        W79170  18.265   2.282   4.682
20075W        W79171   8.202  19.198  11.084
20076W        W79172  10.208  42.521   1.384
20077W        W79173   9.839  39.819   4.698
20078W        W79174   3.358  37.903   0.456
20079W        W79175  29.057  30.998  11.440
20080W        W79176   0.987  29.961   0.276
20081W        W79177  26.613  16.284   1.759
20082W        W79178  37.373  16.151  12.867
20083W        W79179  44.898  26.161   2.238
20084W        W79180  32.474  22.587   1.250
20085W        W79181  10.634  10.849  11.895
20086W        W79182  42.451  32.128   3.281
20087W        W79183  15.772  26.054  14.361
20088W        W79184  11.204  36.991  14.287
20089W        W79185  14.770   8.302  12.376
20090W        W79186  32.461  23.067  11.860
20091W        W79187  14.786  28.653  14.855
20092W        W79188   3.243  21.160  11.538
20093W        W79189  43.981  40.945  14.780
20094W        W79190  31.477  24.593   0.745
20095W        W79191  22.655  21.035   5.277
20096W        W79192  17.138  41.863  12.924
20097W        W79193  28.626   8.797   0.393
20098W        W79194  24.569  10.718   1.764
20099W        W79195  19.163  39.512   0.925
20100W        W79196   6.758  33.535  12.420
20101W        W79197  40.992  19.766   0.734
20102W        W79198  23.606  41.987   1.429
20103W        W79199   3.368  36.958   3.858
20104W        W79200  20.644   9.271  13.340
20105W        W79201  32.036  44.498   0.295
20106W        W79202  41.337  18.692   0.770
20107W        W79203  20.065  10.337   1.322
20108W        W79204  28.521  16.629   0.293
20109W        W79205  43.010  16.794   3.679
20110W        W79206  27.989  26.468   2.884
20111W        W79207  41.400  20.766   4.601
20112W        W79208  30.139  12.335   0.810
20113W        W79209  14.288  36.946   4.219
20114W        W79210  21.059  43.489  11.926
20115W        W79211   1.273   2.288   2.837
20116W        W79212  40.914   8.751  13.959
20117W        W79213  35.457  37.366  14.974
20118W        W79214  37.045   7.693   3.630
20119W        W79215  14.735  26.642  13.874
20120W        W79216  23.119  17.137  14.964
20121W        W79217  27.090  33.062  14.953
20122W        W79218   0.759  31.927   2.696
20123W        W79219  36.427  18.688  11.950
20124W        W79220  43.297  42.467   1.877
20125W        W79221   3.925   6.314  12.531
20126W        W79222  32.088  30.545  14.881
20127W        W79223  38.882  28.502  13.921
20128W        W79224  27.180  40.365  14.767
20129W        W79225  32.039  33.112   2.396
20130W        W79226  19.264  16.599  10.951
20131W        W79227  15.586  44.427   0.953
20132W        W79228   0.270  13.230   0.385
20133W        W79229  14.289  33.613   1.409
20134W        W79230  43.864  40.949  11.950
20135W        W79231  21.728  21.647   2.696
20136W        W79232  13.764  31.464   2.734
20137W        W79233  15.629  44.983  12.985
20138W        W79234  20.174  19.703   1.739
20139W        W79235   1.285   4.436  13.797
20140W        W79236   2.411  43.502   4.328
20141W        W79237  26.130  19.175  14.826
20142W        W79238  34.427  34.529   4.124
20143W        W79239  17.165  17.246  14.491
20144W        W79240  29.601  42.426  13.023
20145W        W79241  36.975   8.879   0.316
20146W        W79242  44.823  20.143  14.402
20147W        W79243  33.035  12.335  13.441
20148W        W79244   2.345   0.403   9.988
20149W        W79245  42.820  34.561  10.565
20150W        W79246  28.545  37.971   0.360
20151W        W79247  28.671  35.089   1.298
20152W        W79248  17.307  14.823  13.947
20153W        W79249  36.889  13.620   4.750
20154W        W79250  33.129  35.082   4.640
20155W        W79251  30.086  43.860   1.329
20156W        W79252  23.547  33.119   0.474
20157W        W79253  22.054  44.861  13.341
20158W        W79254  41.950  10.221  12.906
20159W        W79255  36.348  26.561   9.660
20160W        W79256  16.186  33.919   1.262
20161W        W79257  30.553  40.990  12.530
20162W        W79258  14.615  20.033   3.262
20163W        W79259   9.858  15.748  13.873
20164W        W79260  20.759  36.965  11.380
20165W        W79261  30.547  36.879  10.421
20166W        W79262  21.549  17.737   3.300
20167W        W79263  18.644  24.107   4.200
20168W        W79264  24.177  10.750  14.511
20169W        W79265  14.663  14.759  14.864
20170W        W79266  26.078   0.877  12.397
20171W        W79267  37.454  23.999  11.378
20172W        W79268  17.777  16.736  11.879
20173W        W79269  36.983  18.147  14.861
20174W        W79270  43.994   8.160  13.469
20175W        W79271  18.735  18.710   2.236
20176W        W79272   2.305   6.308   3.197
20177W        W79273  19.063  25.580   2.742
20178W        W79274  40.878  21.733   0.323
20179W        W79275   3.947  23.576   1.288
20180W        W79276   6.831  28.045   3.848
20181W        W79277  44.818  22.527   2.894
20182W        W79278  44.928  22.097   2.815
20183W        W79279  31.566  19.195  12.976
20184W        W79280  19.109  39.419   2.278
20185W        W79281  40.970  40.903  12.091
20186W        W79282  20.663   8.689   1.332
20187W        W79283  34.094  40.838  10.932
20188W        W79284   9.384  32.071  10.592
20189W        W79285  28.186  27.974  14.511
20190W        W79286  40.868  41.038   0.267
20191W        W79287  38.549   3.951   2.756
20192W        W79288  35.102   4.825   3.381
20193W        W79289  33.407  15.601   1.834
20194W        W79290  36.350   2.929  14.017
20195W        W79291  20.078  31.600  14.836
20196W        W79292  34.074  38.555   0.835
20197W        W79293   7.400  33.962  14.336
20198W        W79294  40.985  26.987   4.160
20199W        W79295  32.406   6.874   3.336
20200W        W79296  27.508  17.135  13.955
20201W        W79297   1.432   9.212   4.752
20202W        W79298  40.457  38.382   4.681
20203W        W79299  18.240   3.855   1.333
20204W        W79300   4.450  15.813  14.008
20205W        W79301  42.352  39.384   4.779
20206W        W79302  14.315   1.279   4.244
20207W        W79303  20.592  30.026   3.676
20208W        W79304  32.472  43.998  12.362
20209W        W79305  19.186  24.604  14.309
20210W        W79306  16.128  28.571   4.267
20211W        W79307  33.123   9.283  13.026
20212W        W79308  42.839   5.793  13.810
20213W        W79309  31.624  40.527  13.309
20214W        W79310  30.540  17.726   2.319
20215W        W79311   7.785  39.948  12.825
20216W        W79312   6.267  33.106   4.326
20217W        W79313  27.943  27.470   2.844
20218W        W79314  42.473  30.140  12.547
20219W        W79315  26.659  26.498   3.748
20220W        W79316  40.304   0.382  10.433
20221W        W79317  38.504  11.754  14.444
20222W        W79318  37.002   8.720   4.206
20223W        W79319  33.580   6.259   2.901
20224W        W79320  10.160  22.026   1.891
20225W        W79321  24.505  15.199   2.837
20226W        W79322  31.086  42.373  11.426
20227W        W79323   6.879  24.116   2.336
20228W        W79324  12.679  25.091   4.294
20229W        W79325  11.738  18.271   2.277
20230W        W79326  14.676  27.129   2.665
20231W        W79327  22.173  11.756  14.860
20232W        W79328   3.342  14.255   3.373
20233W        W79329   3.721  19.190   2.404
20234W        W79330   0.250  30.578   1.930
20235W        W79331  12.361   9.727   4.599
20236W        W79332  38.361   6.752   5.696
20237W        W79333  36.535  12.316  14.360
20238W        W79334   6.229  24.625  12.343
20239W        W79335  20.142  16.296  12.961
20240W        W79336  14.281  11.138  12.443
20241W        W79337  11.837  38.516   3.697
20242W        W79338  28.554   4.386   0.377
20243W        W79339   0.872   8.201   2.368
20244W        W79340  24.108  13.274  14.843
20245W        W79341  16.209  43.305  11.058
20246W        W79342  30.120   7.875   0.405
20247W        W79343  10.808   7.818  12.019
20248W        W79344   9.308  32.493   4.676
20249W        W79345  43.017  39.368  10.414
20250W        W79346  30.601  16.596   3.196
20251W        W79347  23.622  21.554   3.677
20252W        W79348   6.302  16.209  13.490
20253W        W79349   1.868   4.417  13.397
20254W        W79350  19.775  24.502   2.711
20255W        W79351  21.247  27.690  10.923
20256W        W79352  13.180  22.513   3.278
20257W        W79353  19.682  39.895  14.930
20258W        W79354   0.788  11.796   0.316
20259W        W79355  10.762  20.255   1.694
20260W        W79356   8.852  29.012   0.927
20261W        W79357  33.932  11.673   2.378
20262W        W79358  18.768   6.734  14.320
20263W        W79359   2.435  22.689  10.497
20264W        W79360   1.769  13.199   2.740
20265W        W79361  32.111  11.766   5.123
20266W        W79362  20.139  27.556   3.637
20267W        W79363  23.587   8.816   1.698
20268W        W79364   3.870  41.472   4.349
20269W        W79365   5.814  44.330  11.399
20270W        W79366  21.597  24.653   1.264
20271W        W79367  10.267  37.375   4.757
20272W        W79368  16.592  34.059   0.471
20273W        W79369  18.164  29.108   2.812
20274W        W79370  38.833  15.585   0.389
20275W        W79371  27.941   2.472   3.842
20276W        W79372  13.321  14.340   3.385
20277W        W79373  33.482  42.833   4.144
20278W        W79374   5.745  20.115  12.453
20279W        W79375  38.553   3.863  13.868
20280W        W79376   1.831  25.587   3.768
20281W        W79377   5.347  43.845   3.710
20282W        W79378  43.390  16.280   0.784
20283W        W79379  10.361  32.624  14.794
20284W        W79380   7.382   8.202  11.406
20285W        W79381  10.197  14.632   5.106
20286W        W79382  28.034   8.664  12.503
20287W        W79383   2.235   8.373  11.467
20288W        W79384   9.700  29.155  10.962
20289W        W79385  42.420  26.681   2.242
20290W        W79386  33.416  28.092   3.679
20291W        W79387  42.456   5.839  14.915
20292W        W79388  37.472  11.367   1.917
20293W        W79389  30.144  24.540  12.918
20294W        W79390  37.033   3.785   0.953
20295W        W79391   0.331  35.085  11.521
20296W        W79392  25.200  11.707  13.437
20297W        W79393  37.352  24.189  12.373
20298W        W79394  34.976  14.126   4.186
20299W        W79395  34.026   6.378   4.289
20300W        W79396   9.702   1.955   2.215
20301W        W79397  11.230  43.944  14.869
20302W        W79398  22.159  23.577  13.444
20303W        W79399   8.268  37.843   2.774
20304W        W79400  27.643  12.681   2.384
20305W        W79401   1.943  42.026  10.900
20306W        W79402  38.513  21.694   1.808
20307W        W79403   7.752  23.009  12.835
20308W        W79404  16.136  42.453   3.837
20309W        W79405  25.006   0.295   4.300
20310W        W79406  31.107  34.075   0.347
20311W        W79407  21.676  32.472   4.281
20312W        W79408  38.363  14.203   1.928
20313W        W79409  10.640  35.462  14.022
20314W        W79410  25.582   9.766  10.459
20315W        W79411  44.872  33.617   3.222
20316W        W79412  17.776   7.392   4.343
20317W        W79413  20.536  12.276   2.682
20318W        W79414  30.463  11.181   0.860
20319W        W79415   4.211  10.820  12.044
20320W        W79416  35.957   1.426   4.835
20321W        W79417   4.915  44.479   1.224
20322W        W79418   7.873  33.003  13.002
20323W        W79419   3.781   2.870   0.900
20324W        W79420  21.537   2.305  14.850
20325W        W79421  34.939  15.605  13.939
20326W        W79422  24.107  13.617  12.547
20327W        W79423  23.075  10.769   0.906
20328W        W79424   8.383  11.221   0.863
20329W        W79425  27.633  13.845  11.862
20330W        W79426  40.455  39.491  14.762
20331W        W79427  29.580  31.452  12.390
20332W        W79428  35.397  18.561   3.681
20333W        W79429  31.510  23.163  12.861
20334W        W79430   9.255  43.474   1.718
20335W        W79431  12.708   7.197  11.098
20336W        W79432  34.984   9.837   5.104
20337W        W79433  32.027   6.858  12.844
20338W        W79434  31.947   8.402  10.410
20339W        W79435  12.217  27.198   1.315
20340W        W79436  38.860   9.698  13.330
20341W        W79437  21.546  43.442   1.929
20342W        W79438   2.876  33.886   0.872
20343W        W79439  44.808  44.377   1.896
20344W        W79440   5.355  16.291   1.700
20345W        W79441  25.474  29.039  10.003
20346W        W79442  16.652  32.991   0.842
20347W        W79443  35.880  22.730   1.868
20348W        W79444  14.669  31.135   0.849
20349W        W79445  23.650  22.653   3.734
20350W        W79446   2.905  19.632   1.902
20351W        W79447  29.555  29.058   4.757
20352W        W79448   8.207  40.925   1.739
20353W        W79449  32.412  11.322  11.542
20354W        W79450  29.564  11.824  11.583
20355W        W79451  22.599  28.549  12.963
20356W        W79452   4.271   7.912  13.960
20357W        W79453  14.283  13.752   0.798
20358W        W79454   4.259  42.424   0.959
20359W        W79455  15.293  40.884   0.890
20360W        W79456  27.453  11.837  13.833
20361W        W79457   3.882   8.315   2.306
20362W        W79458  13.831  20.080   2.884
20363W        W79459  31.998  43.770   4.713
20364W        W79460  39.908  27.957  12.892
20365W        W79461   2.805  12.353   0.419
20366W        W79462   0.841  20.073  14.970
20367W        W79463  30.127  14.735   4.313
20368W        W79464  18.633  21.132   4.153
20369W        W79465  31.079  25.701   1.934
20370W        W79466  25.126  15.699  12.477
20371W        W79467  13.684   0.327   2.793
20372W        W79468  18.579   0.885   3.203
20373W        W79469  25.477  14.126   3.746
20374W        W79470   3.763   2.901  12.891
20375W        W79471  19.263  19.554  11.029
20376W        W79472  32.015  29.002  13.413
20377W        W79473  37.367  26.621  12.467
20378W        W79474  29.970  25.610   4.167
20379W        W79475  33.464  27.604  13.461
20380W        W79476  25.965  32.986   9.575
20381W        W79477   3.327  26.144   4.746
20382W        W79478  21.061  14.236   1.286
20383W        W79479   1.416  37.956   1.918
20384W        W79480   8.736   9.249  14.759
20385W        W79481   8.301  16.283  10.011
20386W        W79482  26.107  29.022   3.837
20387W        W79483  16.122  41.941   4.260
20388W        W79484   6.246   3.417  13.320
20389W        W79485  11.688   1.469  14.982
20390W        W79486  37.953  26.037  12.421
20391W        W79487  25.970   6.390  14.867
20392W        W79488  26.695  44.914  11.961
20393W        W79489  41.912  16.766   1.737
20394W        W79490  32.426  19.187   2.382
20395W        W79491  28.159  30.961   4.715
20396W        W79492  14.112   3.711   2.706
20397W        W79493  25.521  26.589   2.391
20398W        W79494  12.788   5.283   4.663
20399W        W79495  40.393   3.436   3.311
20400W        W79496   4.243  32.950   3.240
20401W        W79497   8.310  42.940  10.619
20402W        W79498  35.923  20.034  10.479
20403W        W79499   8.714  39.872   4.745
20404W        W79500  42.021   8.755  10.161
20405W        W79501  28.521   8.361  11.526
20406W        W79502   1.942  18.251  10.896
20407W        W79503  44.900  18.646  10.626
20408W        W79504   4.390  24.018  13.380
20409W        W79505  35.998  10.661   3.267
20410W        W79506  31.148  14.212  12.566
20411W        W79507  29.129   6.690  12.341
20412W        W79508  14.715  21.752   2.299
20413W        W79509   5.854  23.567   1.427
20414W        W79510  15.697  31.629  13.520
20415W        W79511  33.059  15.088   9.459
20416W        W79512  11.310  41.958  12.498
20417W        W79513  27.545  40.923   2.776
20418W        W79514  31.031  23.061  13.885
20419W        W79515  11.164  25.029   4.255
20420W        W79516  37.912  26.013  13.979
20421W        W79517  32.033  38.950  11.856
20422W        W79518  18.227  17.707  10.469
20423W        W79519   8.763   6.923   0.480
20424W        W79520   7.724  21.636  12.052
20425W        W79521  32.107  32.999  14.878
20426W        W79522  12.291   6.321  11.392
20427W        W79523   8.676  28.503   0.279
20428W        W79524  43.834  27.661   0.776
20429W        W79525   3.256  13.117  10.537
20430W        W79526  35.937  20.562  12.900
20431W        W79527  43.814   9.216   1.447
20432W        W79528  27.026   6.786  12.014
20433W        W79529  15.813   8.267  11.030
20434W        W79530   4.407   8.343   0.901
20435W        W79531  24.055  23.675   3.227
20436W        W79532   4.361   9.686  10.913
20437W        W79533  23.091  14.619  14.446
20438W        W79534   7.237  41.329  14.938
20439W        W79535   3.219  38.343  14.852
20440W        W79536   9.395  12.258  14.022
20441W        W79537  29.134   5.248   4.255
20442W        W79538  21.053  25.560   4.341
20443W        W79539  13.175  28.489   2.712
20444W        W79540  34.452  19.663  13.359
20445W        W79541  27.036  43.965   4.153
20446W        W79542  21.574  29.068   3.188
20447W        W79543  35.865  39.957   3.210
20448W        W79544   0.879  43.882   0.305
20449W        W79545  30.090  12.301  11.588
20450W        W79546  10.312   0.357   1.404
20451W        W79547  10.793  42.439  12.048
20452W        W79548  29.172   5.854   0.355
20453W        W79549  38.850  29.592   3.270
20454W        W79550  35.595  22.140  14.322
20455W        W79551   1.767   4.798   0.948
20456W        W79552   8.684  30.011  11.535
20457W        W79553  35.057  40.873   0.816
20458W        W79554  31.036  28.100   5.138
20459W        W79555   1.744   4.309  12.426
20460W        W79556   5.238  40.822  12.407
20461W        W79557  35.604  27.073  13.856
20462W        W79558  42.951  37.030  14.770
20463W        W79559   7.749  40.449   5.241
20464W        W79560   2.271  10.793   2.346
20465W        W79561  17.167   5.756   0.924
20466W        W79562  27.016   6.357   1.445
20467W        W79563  42.283  29.079   3.272
20468W        W79564  21.044  41.532  12.433
20469W        W79565  19.616   2.388   0.894
20470W        W79566  34.085   0.368   4.612
20471W        W79567   5.858  36.480   2.821
20472W        W79568  42.477  35.927  12.993
20473W        W79569  36.518  40.460   1.294
20474W        W79570  42.942  38.407  10.452
20475W        W79571  24.575  13.615   3.757
20476W        W79572   7.845  17.588  14.283
20477W        W79573  22.610  44.813  14.403
20478W        W79574  37.372  10.658   4.278
20479W        W79575  12.631  43.440   1.428
20480W        W79576  12.202  35.406  13.400
20481W        W79577  44.892  25.174   2.216
20482W        W79578   9.169  16.309   2.673
20483W        W79579   1.894  39.536  12.383
20484W        W79580   1.823   5.820   2.223
20485W        W79581  33.469  26.677  13.815
20486W        W79582  18.077  22.109   3.260
20487W        W79583  20.563  13.758  11.011
20488W        W79584  28.939  13.691   3.740
20489W        W79585  19.659   5.929  10.057
20490W        W79586  17.215  43.869   1.822
20491W        W79587   1.292   4.935   3.161
20492W        W79588  11.816   6.383   0.950
20493W        W79589  33.103  23.060  14.342
20494W        W79590  31.933  37.914  10.639
20495W        W79591   4.739  18.768   4.674
20496W        W79592  34.068  36.946   1.879
20497W        W79593  13.791  18.091  12.458
20498W        W79594  14.311  27.485   2.890
20499W        W79595  19.285  37.561   2.277
20500W        W79596  20.623  32.033  12.913
20501W        W79597  23.638  26.131  11.951
20502W        W79598   5.400  22.698   5.636
20503W        W79599  10.856  25.059  12.893
20504W        W79600  22.652  30.477  10.937
20505W        W79601  34.934  30.093  14.448
20506W        W79602   4.330  22.145   4.223
20507W        W79603  38.821  29.471  14.912
20508W        W79604  13.693  37.348  14.409
20509W        W79605   1.917  20.740   2.698
20510W        W79606   2.306  12.345  12.889
20511W        W79607  13.637  14.661   3.272
20512W        W79608  21.088  13.657   5.144
20513W        W79609   4.898  39.439  12.357
20514W        W79610  13.749  33.417   2.870
20515W        W79611  41.301  25.013  13.317
20516W        W79612   3.913  17.151   2.199
20517W        W79613   6.780  24.506   0.813
20518W        W79614  44.478  24.181  10.491
20519W        W79615  38.960  10.814   9.650
20520W        W79616  31.897  22.201  11.077
20521W        W79617  13.680  21.197   4.796
20522W        W79618  15.150  26.193  12.386
20523W        W79619  32.071  39.921   3.649
20524W        W79620   9.876  16.126   0.292
20525W        W79621  34.959  43.279  13.532
20526W        W79622  18.136  23.007  14.851
20527W        W79623  15.107  28.011  14.965
20528W        W79624  14.799  16.733  13.443
20529W        W79625  21.257  14.703  14.972
20530W        W79626  44.315  32.546   4.139
20531W        W79627  18.588  44.774  11.901
20532W        W79628   6.279   7.387   2.796
20533W        W79629   2.267  32.493  14.889
20534W        W79630  14.661  36.087   4.330
20535W        W79631  24.988   7.222   1.422
20536W        W79632  14.102   8.376   2.712
20537W        W79633  24.643   7.708   0.420
20538W        W79634  14.589  21.661   3.252
20539W        W79635  14.639  37.535  12.382
20540W        W79636   5.770  40.851  11.389
20541W        W79637   2.324  42.461   3.209
20542W        W79638  31.037  15.222  13.855
20543W        W79639   1.775   8.306   0.883
20544W        W79640   2.943  11.169   0.826
20545W        W79641  39.380  29.927  13.023
20546W        W79642   0.253   2.365  10.528
20547W        W79643  20.619   6.331  14.031
20548W        W79644   8.821  11.676   1.439
20549W        W79645  27.610  38.340   2.365
20550W        W79646   6.222   4.268   2.353
20551W        W79647  26.031   1.946  11.126
20552W        W79648   6.262  42.882  14.377
20553W        W79649  39.941  13.773  11.990
20554W        W79650  21.141  12.665  12.346
20555W        W79651   3.866   8.778   1.394
20556W        W79652  21.157  14.653   3.772
20557W        W79653  26.668   7.891   4.326
20558W        W79654  42.332   8.699  12.951
20559W        W79655  40.348  11.839   1.873
20560W        W79656  20.656  36.890   3.678
20561W        W79657  25.468  20.544   0.429
20562W        W79658   3.837   4.326   2.890
20563W        W79659  28.076  26.564   5.239
20564W        W79660  28.499  23.567  14.485
20565W        W79661  30.563  11.335  12.832
20566W        W79662  23.231  13.324  13.473
20567W        W79663  21.612  16.169   4.281
20568W        W79664  25.078  33.544  12.526
20569W        W79665  31.900  36.501  13.042
20570W        W79666  39.549  17.688   1.359
20571W        W79667  33.623  34.017   0.731
20572W        W79668  29.162  23.160  14.432
20573W        W79669   6.840  28.546   1.712
20574W        W79670  29.447  22.094   2.398
20575W        W79671   2.845  23.701  13.924
20576W        W79672  33.452  20.167  11.907
20577W        W79673  42.392   4.423  14.012
20578W        W79674   8.662  35.055   0.781
20579W        W79675   5.885  27.603  12.049
20580W        W79676  26.536   3.820  11.972
20581W        W79677  28.985  11.721  12.874
20582W        W79678  15.246  18.085   1.377
20583W        W79679  26.522  28.640  11.603
20584W        W79680   2.345  32.005   2.415
20585W        W79681  37.355   7.199   1.929
20586W        W79682  33.121  17.307   1.794
20587W        W79683   1.864  11.794  12.373
20588W        W79684  36.894  25.630  11.075
20589W        W79685  16.106  30.498   1.377
20590W        W79686  23.699   1.268  10.578
20591W        W79687  13.671  11.266  11.386
20592W        W79688  35.472  33.516   4.320
20593W        W79689  24.982  34.470   4.804
20594W        W79690  40.332   2.834   1.375
20595W        W79691  34.466  35.435  13.471
20596W        W79692   6.810  23.231   1.413
20597W        W79693   8.195  44.814  12.388
20598W        W79694  20.739  44.367  12.904
20599W        W79695   4.365  33.560   2.388
20600W        W79696  40.810  22.584   0.742
20601W        W79697   4.297  31.967  11.909
20602W        W79698  33.955  20.069   3.667
20603W        W79699   3.894  42.000  14.804
20604W        W79700  11.165  12.117   4.622
20605W        W79701  25.667  44.409   4.231
20606W        W79702  44.299   6.383  12.383
20607W        W79703  35.896  29.008   0.955
20608W        W79704   5.355  27.177   4.162
20609W        W79705  16.223  22.196  10.483
20610W        W79706  43.804  28.496   3.779
20611W        W79707  39.369  35.876   0.293
20612W        W79708  36.464  42.812   1.321
20613W        W79709  41.859  29.653  10.909
20614W        W79710   7.206  17.259  12.912
20615W        W79711  38.857  16.165  12.983
20616W        W79712   5.330  13.132  11.385
20617W        W79713   7.869  22.237   0.312
20618W        W79714  38.958  39.860  10.139
20619W        W79715   1.312  43.456  14.812
20620W        W79716  16.719  25.144   0.462
20621W        W79717  10.737  20.648  11.613
20622W        W79718  31.967  22.192   4.714
20623W        W79719  36.001  44.301  13.947
20624W        W79720  30.482   3.857  14.313
20625W        W79721  29.928  29.034  14.016
20626W        W79722   8.297  13.697  12.001
20627W        W79723  32.952  40.480   1.798
20628W        W79724  24.037  31.971  11.029
20629W        W79725   0.890  25.013  11.892
20630W        W79726   9.754  19.582   4.238
20631W        W79727  39.882   8.807  13.330
20632W        W79728  13.110  30.071   0.412
20633W        W79729  44.280   7.847   0.420
20634W        W79730  21.752  17.657   1.824
20635W        W79731  36.373  40.380   0.380
20636W        W79732  32.942  33.017   0.837
20637W        W79733  18.662   1.441   2.756
20638W        W79734  10.270  44.796  14.424
20639W        W79735   0.378  22.693   3.780
20640W        W79736   7.896  10.209  12.562
20641W        W79737  41.798   3.439  14.420
20642W        W79738  19.765   1.756  14.471
20643W        W79739  15.323  41.965  12.394
20644W        W79740   2.425  10.802  11.987
20645W        W79741  37.981  25.095  10.480
20646W        W79742   4.248  37.041   2.751
20647W        W79743  35.452  38.902  10.550
20648W        W79744  12.627  15.754   2.192
20649W        W79745   1.364  37.442   4.339
20650W        W79746   1.889  27.598   3.822
20651W        W79747  16.165  30.071   1.211
20652W        W79748  22.198  34.991  14.008
20653W        W79749  16.237  35.404   5.279
20654W        W79750  29.664   9.756   4.288
20655W        W79751   2.393  22.672  13.522
20656W        W79752  41.947   1.813  12.038
20657W        W79753   0.858  44.880   4.733
20658W        W79754  41.964   8.783   0.427
20659W        W79755   8.714  25.036   4.692
20660W        W79756  11.297   3.948   3.632
20661W        W79757  27.477  13.127  13.334
20662W        W79758   6.372  44.332  11.996
20663W        W79759  38.550  19.220   4.115
20664W        W79760   1.374  22.216  14.832
20665W        W79761  13.162  36.949  11.870
20666W        W79762   8.350  35.966   0.412
20667W        W79763  43.311   2.357  13.046
20668W        W79764  16.703  33.010   0.476
20669W        W79765  13.806  23.107  14.828
20670W        W79766   7.342   8.695  12.362
20671W        W79767  15.733   1.409   2.708
20672W        W79768  21.067  41.960  11.589
20673W        W79769  19.699  35.910  10.920
20674W        W79770   4.745  20.253  11.948
20675W        W79771  31.092  30.581  12.843
20676W        W79772  26.566  19.272   2.381
20677W        W79773  19.280  21.570  14.856
20678W        W79774  29.009  10.650  14.963
20679W        W79775  36.560   7.693  13.522
20680W        W79776  39.494  43.456  10.520
20681W        W79777  38.441  23.496   4.267
20682W        W79778  25.195   8.353   0.824
20683W        W79779  40.999  40.538  13.013
20684W        W79780  25.132  34.469   0.465
20685W        W79781  10.272  35.559  14.874
20686W        W79782  20.669  30.510   3.849
20687W        W79783  16.090   1.256   1.415
20688W        W79784  12.128  11.867  12.530
20689W        W79785  31.027  28.131   2.322
20690W        W79786  19.099  25.588   1.846
20691W        W79787  27.596  29.075  11.859
20692W        W79788  13.764  35.947   1.295
20693W        W79789  15.089  41.870  13.390
20694W        W79790  30.510  43.497   2.744
20695W        W79791  24.534  22.161   4.218
20696W        W79792   2.965  27.007   2.321
20697W        W79793  13.780   9.274  12.055
20698W        W79794  34.412  18.136   0.400
20699W        W79795   3.368  38.562  13.308
20700W        W79796  36.579   8.857  13.382
20701W        W79797  39.917   5.768  13.435
20702W        W79798  40.477   3.299  13.797
20703W        W79799  20.534   0.386  12.914
20704W        W79800  10.305  13.255  14.342
20705W        W79801  31.145   8.311  14.928
20706W        W79802   6.733  33.425   0.761
20707W        W79803  44.851   2.958   0.908
20708W        W79804  21.196   1.889  13.404
20709W        W79805  38.324  22.519   4.667
20710W        W79806  15.653  37.002  13.505
20711W        W79807  31.572   7.200  11.463
20712W        W79808  25.031  17.213  10.954
20713W        W79809  15.770  14.636  12.069
20714W        W79810   0.791  26.031  12.408
20715W        W79811  43.297  33.082   0.927
20716W        W79812  32.921   9.690   0.785
20717W        W79813  25.104  32.418  12.430
20718W        W79814   6.691  13.731   2.287
20719W        W79815  20.215  19.603  11.439
20720W        W79816  43.829  31.124   2.266
20721W        W79817  11.299  42.426  12.934
20722W        W79818  27.953   2.752  13.867
20723W        W79819  19.636   2.911  10.440
20724W        W79820   2.397  43.919  13.900
20725W        W79821  43.318  11.766   4.297
20726W        W79822  15.600  24.670   2.682
20727W        W79823  27.675  37.339  11.594
20728W        W79824  17.752  29.071   4.350
20729W        W79825  32.967   6.318   3.219
20730W        W79826   9.257  11.348   1.442
20731W        W79827  32.920  27.621  11.892
20732W        W79828  32.076  37.936  12.364
20733W        W79829  12.661  43.834  11.866
20734W        W79830  43.491  27.160  13.021
20735W        W79831  39.497  32.994  12.839
20736W        W79832  38.457  39.020   1.711
20737W        W79833  15.743   3.942  13.418
20738W        W79834   7.706  31.006  12.361
20739W        W79835  13.701  40.539  14.846
20740W        W79836  34.496  11.688  14.450
20741W        W79837   6.373   1.317   2.289
20742W        W79838  20.733  33.932   0.311
20743W        W79839  22.163   6.784  13.484
20744W        W79840  17.558  42.408  12.932
20745W        W79841   7.265   2.870   2.209
20746W        W79842  43.924  18.056  12.538
20747W        W79843   0.761  22.040  13.433
20748W        W79844  40.875  24.508  10.420
20749W        W79845   8.760  16.193   1.714
20750W        W79846  41.521  16.704   2.403
20751W        W79847  24.114   7.298   3.330
20752W        W79848  30.000  35.965  14.466
20753W        W79849  16.671  28.610  10.457
20754W        W79850  35.989   7.901  11.092
20755W        W79851   5.711   3.402   2.377
20756W        W79852  10.711  35.528   0.885
20757W        W79853  29.589   3.753   1.755
20758W        W79854   1.961  16.159   3.256
20759W        W79855  36.381  20.676   2.178
20760W        W79856  22.184  30.578  11.962
20761W        W79857  30.926  38.341  13.012
20762W        W79858   8.720  20.576  13.522
20763W        W79859  44.374  14.306  13.826
20764W        W79860  16.211  37.025  12.904
20765W        W79861  31.503   1.288   1.327
20766W        W79862  37.485  39.983   3.680
20767W        W79863  27.496   6.803   4.739
20768W        W79864   6.266  30.474   3.373
20769W        W79865   9.666   5.887  12.352
20770W        W79866   5.219   3.442   4.176
20771W        W79867  42.016  11.289   3.370
20772W        W79868  14.243  36.967   3.702
20773W        W79869  32.407  16.314  13.876
20774W        W79870  20.242  32.435   3.238
20775W        W79871   9.705  30.544   2.830
20776W        W79872  23.662   7.321   4.304
20777W        W79873  12.249   0.915  14.798
20778W        W79874  34.489   2.323  13.515
20779W        W79875  41.415  43.818   2.206
20780W        W79876   9.199  34.474   1.810
20781W        W79877  36.017  32.017  12.830
20782W        W79878   6.850  17.140  10.993
20783W        W79879  25.967  37.077   4.128
20784W        W79880   0.261  37.478  14.881
20785W        W79881  33.439  31.144   3.212
20786W        W79882  30.465   3.254   0.394
20787W        W79883   7.359   3.292  13.063
20788W        W79884  39.409  35.505  11.076
20789W        W79885  32.890  21.559  10.554
20790W        W79886   1.842  36.380  14.392
20791W        W79887  28.513  36.874  10.464
20792W        W79888  18.260  31.908  10.973
20793W        W79889  23.601  32.624  10.512
20794W        W79890  13.798  37.069  12.342
20795W        W79891  13.621  21.682   0.286
20796W        W79892  17.187  11.643  10.577
20797W        W79893  22.197  21.064  12.900
20798W        W79894  29.981  18.741   4.290
20799W        W79895   2.354  33.103  14.480
20800W        W79896   0.834  31.926   0.391
20801W        W79897  30.092  27.062   0.438
20802W        W79898  10.665  36.518   3.194
20803W        W79899  37.857   6.736  11.883
20804W        W79900  24.600  20.265   0.808
20805W        W79901  21.173  15.270   0.901
20806W        W79902   7.667  19.045   1.395
20807W        W79903  12.217  36.922   1.792
20808W        W79904  39.836  16.140  12.906
20809W        W79905  23.685   7.757   3.371
20810W        W79906  23.680  17.620  11.941
20811W        W79907   5.825  19.592   2.682
20812W        W79908  27.504  38.471   0.932
20813W        W79909  42.390  35.049  12.837
20814W        W79910  44.847  42.945   0.938
20815W        W79911  30.103  41.966  12.361
20816W        W79912  15.802  10.669  10.455
20817W        W79913   9.203  22.111   0.902
20818W        W79914   6.381  11.849   1.322
20819W        W79915   3.297  28.521   1.398
20820W        W79916  27.489   8.688  14.845
20821W        W79917  36.450  39.817  11.408
20822W        W79918  27.488  30.933  14.950
20823W        W79919  43.912  38.865   2.758
20824W        W79920  22.133  35.993   0.460
20825W        W79921   7.408   6.912  12.906
20826W        W79922  10.861  19.687   4.251
20827W        W79923  18.137  30.085  13.418
20828W        W79924  12.828  35.907  14.341
20829W        W79925  16.239  10.233  11.951
20830W        W79926   4.253  41.435  10.965
20831W        W79927  41.399  37.876   3.847
20832W        W79928  20.656  43.393   1.451
20833W        W79929   5.424  28.134  11.034
20834W        W79930  31.005  44.331   3.789
20835W        W79931  16.747  36.012   1.290
20836W        W79932  24.698  40.454   2.366
20837W        W79933  10.767  17.225  13.345
20838W        W79934  28.530  15.764   2.340
20839W        W79935   3.409   7.873  12.974
20840W        W79936   8.686  43.445   1.926
20841W        W79937   9.238  28.504  12.435
20842W        W79938  14.824  38.523   4.769
20843W        W79939  23.077   9.647  12.877
20844W        W79940  44.800  20.200   1.371
20845W        W79941   9.276  17.678   3.187
20846W        W79942   0.757   5.894  12.464
20847W        W79943  29.464  34.534  11.472
20848W        W79944  27.466  32.936   2.216
20849W        W79945   0.294   2.408  14.488
20850W        W79946  35.504   2.757   2.737
20851W        W79947  24.975  26.639  14.770
20852W        W79948  44.453  17.652  13.337
20853W        W79949  12.724   4.412   4.143
20854W        W79950  39.478   1.944   2.832
20855W        W79951   3.892  18.067   3.157
20856W        W79952  28.466  16.225  10.474
20857W        W79953  41.804   5.233  14.926
20858W        W79954  38.977  17.689   4.826
20859W        W79955  38.943   7.383   2.361
20860W        W79956   3.844  16.114   3.295
20861W        W79957  24.002  29.050   4.779
20862W        W79958  42.850  11.369  14.813
20863W        W79959  30.585   0.310  11.051
20864W        W79960  38.851  10.726  11.539
20865W        W79961  38.865  24.716   1.893
20866W        W79962  38.931  31.147   2.214
20867W        W79963  28.101  32.624  14.828
20868W        W79964   5.264  18.724   3.764
20869W        W79965   2.283  11.857   2.824
20870W        W79966  17.293  17.209  10.132
20871W        W79967  37.449  19.587  11.394
20872W        W79968  11.372  19.101   1.874
20873W        W79969   7.248   7.324  10.427
20874W        W79970  16.087  27.132  11.416
20875W        W79971  28.580   8.852  12.931
20876W        W79972   6.882  25.011   0.926
20877W        W79973  30.100   3.223  13.894
20878W        W79974  35.987   1.429   1.338
20879W        W79975   4.233  44.954   1.445
20880W        W79976   3.337  15.796   1.906
20881W        W79977  25.643  35.864   9.618
20882W        W79978  12.300  28.478   2.702
20883W        W79979  26.057  12.787  14.927
20884W        W79980  32.616  27.632   2.186
20885W        W79981  10.873   4.823   4.162
20886W        W79982  24.539  23.084   1.803
20887W        W79983  10.719  36.584   3.862
20888W        W79984  38.048  39.896   2.810
20889W        W79985  42.925  21.034   3.752
20890W        W79986   2.846  22.648   4.288
20891W        W79987  43.847  14.226  10.488
20892W        W79988  13.300  20.664  13.407
20893W        W79989  22.725  15.625  12.063
20894W        W79990  39.854  22.652  13.342
20895W        W79991  30.080  26.537   3.672
20896W        W79992  31.473  16.296   0.895
20897W        W79993  16.779  20.692  12.423
20898W        W79994   3.355  44.910  12.990
20899W        W79995   0.846  15.654  14.908
20900W        W79996  41.947  40.875   3.798
20901W        W79997  35.420  38.956  11.865
20902W        W79998   6.743  40.336   1.323
20903W        W79999   0.987  35.940   4.799
20904W        W80000  16.587  10.286  12.010
20905W        W80001  43.777  39.460   1.341
20906W        W80002  15.640  42.957   3.215
20907W        W80003  12.679  29.057  12.446
20908W        W80004  21.550  37.468   2.676
20909W        W80005  39.480  44.457   1.883
20910W        W80006  38.397   0.471   2.344
20911W        W80007   5.841  23.518  13.884
20912W        W80008  39.923  25.636  13.018
20913W        W80009   6.333   7.839   4.237
20914W        W80010  43.279   5.701   1.928
20915W        W80011  20.535  38.911  14.794
20916W        W80012  40.863  24.554   3.680
20917W        W80013   6.865   7.732  10.411
20918W        W80014  38.551  42.913   1.803
20919W        W80015  25.582   4.351   1.432
20920W        W80016   3.799  26.981   4.196
20921W        W80017   9.389  21.251  13.536
20922W        W80018  43.359  41.946   3.177
20923W        W80019  32.949  39.465  12.485
20924W        W80020  36.038   0.793   2.826
20925W        W80021   8.768  22.199  12.961
20926W        W80022  34.505   7.246  13.880
20927W        W80023  12.678  38.548   2.751
20928W        W80024   3.800  21.127   3.857
20929W        W80025  17.745  20.166   3.210
20930W        W80026  34.523  19.756   1.779
20931W        W80027  26.597   5.317   0.876
20932W        W80028  28.585  10.687  11.997
20933W        W80029  13.296   3.331   4.693
20934W        W80030  11.302  34.006  14.880
20935W        W80031  28.964  13.140   1.916
20936W        W80032  32.492  11.862   2.831
20937W        W80033   0.768  10.231  10.011
20938W        W80034   7.398  38.451  13.524
20939W        W80035  37.497   3.852  13.533
20940W        W80036  25.667   6.830   4.230
20941W        W80037  16.636  25.615  10.542
20942W        W80038   6.836  23.173  10.581
20943W        W80039  28.539  25.621  14.405
20944W        W80040  39.894  31.406   0.843
20945W        W80041  30.421  34.931   4.285
20946W        W80042  41.345  30.129  14.320
20947W        W80043  27.066  33.999   3.279
20948W        W80044  13.754  15.270   3.319
20949W        W80045   3.742  42.311   4.219
20950W        W80046  35.572   1.844  13.548
20951W        W80047  17.756  18.201  12.903
20952W        W80048  17.776  19.101   3.707
20953W        W80049   6.358  22.542   0.955
20954W        W80050  44.918  40.317  14.855
20955W        W80051  41.532  35.477   1.299
20956W        W80052  20.751  17.305  10.494
20957W        W80053  32.954  32.971   2.760
20958W        W80054  35.854  37.516   1.340
20959W        W80055  11.783  28.145  13.380
20960W        W80056  35.514   2.421  12.535
20961W        W80057  40.823  27.585  13.318
20962W        W80058  44.306  29.103  10.464
20963W        W80059   9.837  41.533  14.856
20964W        W80060  36.085  11.362   2.847
20965W        W80061   1.374  22.638  11.899
20966W        W80062  27.142  29.001   4.634
20967W        W80063   1.915  14.144  11.391
20968W        W80064   6.881  38.486  12.827
20969W        W80065  16.287  39.483  11.876
20970W        W80066  36.921  25.109   1.923
20971W        W80067  15.206  20.764  11.968
20972W        W80068  22.557  19.624   0.950
20973W        W80069  13.632  27.521   0.915
20974W        W80070  33.625  17.770   1.356
20975W        W80071  26.524  30.447   3.272
20976W        W80072  40.936  31.562   3.804
20977W        W80073  19.711   7.269  11.957
20978W        W80074  43.822  41.304   3.820
20979W        W80075  18.073  29.555   2.245
20980W        W80076  25.648  30.480  11.118
20981W        W80077  12.694   1.245  13.337
20982W        W80078  10.144  29.970  10.080
20983W        W80079  38.049   4.301  12.045
20984W        W80080   9.317  38.564  11.597
20985W        W80081  37.408  34.946  12.092
20986W        W80082  43.808  24.540  12.396
20987W        W80083  44.414   4.782  14.394
20988W        W80084  36.554  13.222  12.378
20989W        W80085  11.205  23.222   4.742
20990W        W80086  19.281  10.846   3.772
20991W        W80087  40.831   0.398   3.374
20992W        W80088   7.718   6.694  12.450
20993W        W80089  21.640  22.702   0.941
20994W        W80090   2.231  13.708   4.280
20995W        W80091  15.661  37.913   0.281
20996W        W80092  30.008  36.003   5.312
20997W        W80093  11.221  20.578  14.997
20998W        W80094  24.219  29.567  10.527
20999W        W80095  42.406  26.619   4.787
21000W        W80096  39.401  26.534   1.406
21001W        W80097  32.985  39.399  14.882
21002W        W80098  19.692  16.781  12.867
21003W        W80099  16.741   0.377   4.275
21004W        W80100  21.651  22.606   2.858
21005W        W80101   8.815  35.061  12.524
21006W        W80102   3.275  33.040  12.386
21007W        W80103  23.180  36.017   1.226
21008W        W80104  16.755  28.130  11.928
21009W        W80105  13.814  16.579  12.856
21010W        W80106  22.053  24.070   0.753
21011W        W80107  33.960  43.311  12.925
21012W        W80108  13.167  44.829   0.447
21013W        W80109  17.082  22.038  13.819
21014W        W80110   8.163  42.899  13.976
21015W        W80111   7.676  39.016   0.419
21016W        W80112  25.483  32.943  12.454
21017W        W80113   4.209  32.966  11.994
21018W        W80114  43.455  28.466  11.939
21019W        W80115  24.080  17.298  14.471
21020W        W80116  25.994  26.507   4.255
21021W        W80117  13.605  10.266   5.297
21022W        W80118   3.302   9.852  11.544
21023W        W80119  44.864  24.143   4.175
21024W        W80120  41.510   9.673  11.859
21025W        W80121  11.254  22.568  14.447
21026W        W80122  33.606  21.625  10.971
21027W        W80123   7.336  44.287   3.153
21028W        W80124  17.583   5.863  14.437
21029W        W80125  21.513  30.641   3.305
21030W        W80126  20.759  25.982   4.706
21031W        W80127  21.029  38.559  13.056
21032W        W80128  12.819  44.405   4.247
21033W        W80129  37.507  22.149  12.825
21034W        W80130  37.402   8.276   1.409
21035W        W80131  44.377  30.007  12.449
21036W        W80132  23.490  33.023   4.283
21037W        W80133  23.236  21.579  11.937
21038W        W80134  12.844   1.398   0.941
21039W        W80135  26.018  20.573   0.866
21040W        W80136  16.158  31.108   2.708
21041W        W80137  41.330   7.689   3.382
21042W        W80138   1.937   0.355  10.447
21043W        W80139  22.044   0.367  12.364
21044W        W80140  41.481   8.677  11.505
21045W        W80141  33.549  25.191  11.504
21046W        W80142  27.449  37.978   1.908
21047W        W80143  32.986  31.147  11.002
21048W        W80144  33.093  10.870  10.511
21049W        W80145  11.280   4.435   3.649
21050W        W80146  34.067  44.322   3.853
21051W        W80147   3.442  32.054   2.233
21052W        W80148  11.154  31.898  12.468
21053W        W80149  23.085  28.440   4.175
21054W        W80150   9.381   9.734  14.949
21055W        W80151  24.684  24.011  10.478
21056W        W80152  18.654  38.477  13.477
21057W        W80153  16.307   5.808   3.237
21058W        W80154  34.492  12.313   3.220
21059W        W80155  11.293   5.392   4.716
21060W        W80156  37.425  29.618  10.986
21061W        W80157  30.993  23.645   0.257
21062W        W80158  20.056  15.267  10.976
21063W        W80159  20.550  18.704   3.315
21064W        W80160  38.439   6.377  13.451
21065W        W80161  21.754  26.019   1.434
21066W        W80162  12.331  27.094   0.365
21067W        W80163  30.046   3.861  12.886
21068W        W80164  17.627   7.300  14.408
21069W        W80165  16.703  32.597  10.892
21070W        W80166  34.584   1.745  12.471
21071W        W80167   3.817   0.742   0.894
21072W        W80168  28.092   1.796  12.004
21073W        W80169   8.816  44.916   0.755
21074W        W80170  13.224  32.470   1.740
21075W        W80171   6.366  25.639   0.460
21076W        W80172  10.215  31.511  11.587
21077W        W80173   6.700  22.507  12.528
21078W        W80174  11.358  37.882   0.838
21079W        W80175  10.250  37.918   4.282
21080W        W80176  40.864  19.590   1.908
21081W        W80177  37.854  12.322  13.974
21082W        W80178   0.445   1.820  10.569
21083W        W80179  39.532  32.136   3.838
21084W        W80180  34.490  24.602   0.818
21085W        W80181  42.868  18.558  13.353
21086W        W80182  27.004  12.740  13.924
21087W        W80183   8.163  41.965  11.106
21088W        W80184  43.822  38.038  12.954
21089W        W80185   6.398   9.191   4.793
21090W        W80186  22.108  39.829   3.820
21091W        W80187  21.608  18.758  14.366
21092W        W80188   3.280  42.441   1.267
21093W        W80189  25.620  35.982   5.175
21094W        W80190  29.948  11.833   0.327
21095W        W80191  41.428  23.692   4.698
21096W        W80192  27.086  38.026  11.467
21097W        W80193  41.371  29.951  11.973
21098W        W80194  12.660  43.491   0.937
21099W        W80195  26.556  43.829   4.281
21100W        W80196   9.358  33.473   4.124
21101W        W80197  39.426  22.575   1.365
21102W        W80198  16.618  28.157   2.305
21103W        W80199  27.650   9.669   4.256
21104W        W80200  40.483  14.116   1.255
21105W        W80201  27.023  17.297   1.812
21106W        W80202  12.730  12.777  14.447
21107W        W80203  31.622   6.339  12.398
21108W        W80204  35.999  35.463   1.386
21109W        W80205  18.282  22.169  13.022
21110W        W80206  12.138  23.042   4.653
21111W        W80207   5.303  26.577   2.385
21112W        W80208  31.148  36.980  10.968
21113W        W80209  11.298   3.369  12.506
21114W        W80210  44.500  37.937  10.527
21115W        W80211  43.361  27.995  13.038
21116W        W80212  20.202  20.563   2.843
21117W        W80213   6.317  25.668   3.151
21118W        W80214  36.079  29.048  14.340
21119W        W80215  26.189  24.500  14.992
21120W        W80216  22.693  37.988   2.794
21121W        W80217   2.373  11.343   2.219
21122W        W80218  32.949  35.940  12.352
21123W        W80219  31.535  41.465  11.467
21124W        W80220  11.183  44.819   0.743
21125W        W80221   5.391  14.761  13.367
21126W        W80222  12.261   1.839  10.902
21127W        W80223  24.640  33.979  10.894
21128W        W80224   9.293   0.971  12.026
21129W        W80225  21.143  13.323   4.754
21130W        W80226  43.298  26.962   4.288
21131W        W80227  10.151  18.727  12.019
21132W        W80228   8.230   5.861  12.078
21133W        W80229  13.235  42.850  10.038
21134W        W80230  13.269  41.929  12.525
21135W        W80231  19.253  14.598  11.466
21136W        W80232   8.237  35.869  11.452
21137W        W80233  23.096  39.484  14.398
21138W        W80234  43.503  15.166  12.860
21139W        W80235  34.975   7.665  11.982
21140W        W80236  25.201   9.177   4.712
21141W        W80237  27.538  11.631  12.893
21142W        W80238  38.054  25.664   2.687
21143W        W80239  44.791  40.956   2.726
21144W        W80240  39.557   9.175   5.100
21145W        W80241  11.778  32.027   3.852
21146W        W80242  17.232  34.549  11.460
21147W        W80243  28.992  18.096   4.255
21148W        W80244   8.346  31.407  12.068
21149W        W80245  41.310  28.668  10.919
21150W        W80246  29.159  20.103  13.443
21151W        W80247  15.683  22.556  11.603
21152W        W80248  21.515  12.613   2.327
21153W        W80249   9.741  18.642  14.480
21154W        W80250   7.763  40.825   1.293
21155W        W80251  13.133  28.556   5.211
21156W        W80252  31.896  14.624   1.410
21157W        W80253  37.074  29.485  11.542
21158W        W80254  42.011   8.226  12.557
21159W        W80255  16.080   2.447  12.836
21160W        W80256  31.015  32.958  13.907
21161W        W80257  30.591  28.096   0.755
21162W        W80258  26.505  25.110  12.410
21163W        W80259  33.087  34.914  12.495
21164W        W80260  20.637  18.559  11.892
21165W        W80261  32.536  30.518  11.012
21166W        W80262  17.275   2.319  10.955
21167W        W80263  22.092   0.970  14.363
21168W        W80264   9.711   7.746   0.772
21169W        W80265  29.483  33.533  13.956
21170W        W80266  13.716  17.665  10.965
21171W        W80267  12.201   6.284  14.312
21172W        W80268  33.405   4.837   4.802
21173W        W80269  13.237  23.552  10.446
21174W        W80270  35.998  29.549  11.047
21175W        W80271  12.159  18.637   2.811
21176W        W80272   8.740  13.335   0.418
21177W        W80273  24.119  26.518  12.841
21178W        W80274  28.611  31.518  11.971
21179W        W80275   7.750  44.477  14.762
21180W        W80276  40.348  10.175  14.377
21181W        W80277   9.864   6.280  11.924
21182W        W80278  27.566  17.748   5.121
21183W        W80279   0.358  12.172   3.152
21184W        W80280  34.466  33.963   0.838
21185W        W80281   5.415   3.841   3.630
21186W        W80282  39.812   3.228  10.933
21187W        W80283  22.515  11.735   0.420
21188W        W80284  39.043  13.730   0.769
21189W        W80285  13.730  20.209  13.376
21190W        W80286  27.153   9.215   2.899
21191W        W80287  14.237  42.289   0.308
21192W        W80288  31.972  13.678  11.511
21193W        W80289   6.682  26.521   3.854
21194W        W80290  36.537   8.755   5.198
21195W        W80291  38.440  14.726   2.358
21196W        W80292   1.808   7.391  14.385
21197W        W80293  28.054  43.396  12.513
21198W        W80294  33.897  17.294   5.156
21199W        W80295  37.502   1.835   4.722
21200W        W80296  24.016  28.104   2.861
21201W        W80297  10.291   2.453   0.482
21202W        W80298  41.856   9.688  13.889
21203W        W80299  20.074   2.428  14.785
21204W        W80300   0.922   4.210  12.037
21205W        W80301   8.276   1.933  13.435
21206W        W80302  31.091  17.232   5.085
21207W        W80303   6.222  15.726  13.351
21208W        W80304  20.561  26.602   1.248
21209W        W80305  38.355  22.687  14.375
21210W        W80306  28.142   8.197   4.818
21211W        W80307   3.793  23.532  11.043
21212W        W80308  23.106   6.415   1.822
21213W        W80309  39.411  33.395  10.929
21214W        W80310  20.767  34.044   1.402
21215W        W80311  25.601  16.612  14.281
21216W        W80312  40.818  32.989  11.943
21217W        W80313   8.775  39.879  14.842
21218W        W80314  41.036   8.209   9.468
21219W        W80315  18.186  44.389  12.505
21220W        W80316  37.543  42.003   1.806
21221W        W80317  26.646  38.539   0.336
21222W        W80318  32.626  32.419  12.371
21223W        W80319  40.460  10.280   2.222
21224W        W80320  16.284  26.046  12.541
21225W        W80321   7.288  15.207  14.780
21226W        W80322   7.308  14.769   1.220
21227W        W80323  21.513  27.947  11.008
21228W        W80324   1.929  11.204   1.859
21229W        W80325  14.111  37.375  10.438
21230W        W80326   0.947  16.639  10.431
21231W        W80327  10.218  32.426  12.439
21232W        W80328  18.183   8.374  13.053
21233W        W80329   4.316  20.525   2.248
21234W        W80330   3.822  32.465   1.317
21235W        W80331  36.973  40.917  10.986
21236W        W80332   2.457  14.164   2.250
21237W        W80333  10.235  41.039  11.434
21238W        W80334  30.462   7.668  14.852
21239W        W80335  16.300  29.087  14.467
21240W        W80336  39.483  29.670  13.465
21241W        W80337  29.571  23.177   2.665
21242W        W80338  44.272  14.336   4.260
21243W        W80339  36.370  17.590   1.267
21244W        W80340  27.033  36.476  10.904
21245W        W80341  43.940  41.406  12.869
21246W        W80342  30.036  35.507  14.298
21247W        W80343  35.008  40.374  12.457
21248W        W80344  41.306   4.308   3.690
21249W        W80345  22.595  39.477   3.331
21250W        W80346   9.365  37.344  12.858
21251W        W80347   9.741  19.264  13.379
21252W        W80348  19.252   1.835   0.863
21253W        W80349  39.970  16.169   4.135
21254W        W80350  41.975   0.838  11.549
21255W        W80351  21.186   2.411   0.807
21256W        W80352   9.165  39.351  14.513
21257W        W80353   7.296   3.886   4.801
21258W        W80354  43.837   9.258   2.747
21259W        W80355  27.973   9.261   2.275
21260W        W80356  24.051  22.689   0.915
21261W        W80357  13.794  18.609   3.722
21262W        W80358  42.025  28.563   2.727
21263W        W80359  26.567  14.203  11.856
21264W        W80360   5.777  22.652   0.414
21265W        W80361  12.639   2.272  12.879
21266W        W80362  23.704  22.679  12.897
21267W        W80363   9.368  40.851  14.842
21268W        W80364  11.240  29.117   1.725
21269W        W80365  16.179  25.500  10.547
21270W        W80366  14.154  12.766   0.858
21271W        W80367  13.657  35.451   3.293
21272W        W80368  28.627   1.748   3.858
21273W        W80369   9.205  40.346  10.050
21274W        W80370  10.270  14.215   5.194
21275W        W80371   7.763  31.964  14.822
21276W        W80372   8.307  31.139   4.838
21277W        W80373  40.481  18.181   5.181
21278W        W80374   0.839  41.038  12.980
21279W        W80375  26.575  15.244   4.317
21280W        W80376   0.771  37.545   1.245
21281W        W80377   6.306   1.802   1.365
21282W        W80378   1.405  12.669  10.940
21283W        W80379   2.461   2.788  12.000
21284W        W80380  13.827  18.225  13.822
21285W        W80381   1.311  14.683   3.796
21286W        W80382   4.289  29.583   1.396
21287W        W80383  44.893  13.808  13.989
21288W        W80384   7.807  14.791  10.975
21289W        W80385  20.200  17.243  13.808
21290W        W80386   0.476  11.622  14.018
21291W        W80387   2.432  23.672  12.451
21292W        W80388  39.001  10.774  14.761
21293W        W80389  16.638   2.850  10.966
21294W        W80390  14.102  24.570   4.725
21295W        W80391  42.358  40.500   0.746
21296W        W80392   7.878  21.262   2.844
21297W        W80393  31.541  27.174   0.863
21298W        W80394  44.812  41.407  14.000
21299W        W80395  13.804   8.358  14.836
21300W        W80396  29.467  43.982  14.927
21301W        W80397   8.194  39.810  13.471
21302W        W80398   0.367  28.628   4.765
21303W        W80399   0.461  27.614   1.249
21304W        W80400   7.879  14.834  12.908
21305W        W80401   4.912  31.128   0.905
21306W        W80402  35.397  37.007   1.440
21307W        W80403   0.452  17.659   0.803
21308W        W80404  27.515  21.033   4.731
21309W        W80405  44.975  40.025  12.946
21310W        W80406  27.682  15.622  13.363
21311W        W80407  28.515  15.753  10.968
21312W        W80408  39.333  23.629   2.787
21313W        W80409  24.516  24.722  14.855
21314W        W80410  37.493   4.884   1.803
21315W        W80411  42.990  24.016  13.343
21316W        W80412  30.008   9.709   4.625
21317W        W80413  36.990  32.517   0.788
21318W        W80414  37.927  39.834  11.465
21319W        W80415  18.744  44.391  12.874
21320W        W80416  39.490  20.052   0.384
21321W        W80417   5.194   5.328   0.313
21322W        W80418  38.025  19.668  13.362
21323W        W80419   0.335  32.563  10.486
21324W        W80420  28.670  24.594   3.279
21325W        W80421  31.129  16.093  10.900
21326W        W80422  20.736   0.272  13.310
21327W        W80423  16.096  12.772   0.734
21328W        W80424   1.943   3.372   2.678
21329W        W80425  43.827  43.438   3.847
21330W        W80426  23.565  19.168  11.916
21331W        W80427  41.528  27.188   0.878
21332W        W80428  39.439   4.213  11.061
21333W        W80429  33.419   9.740  11.467
21334W        W80430  37.449   7.319  14.921
21335W        W80431  19.070  32.405  11.110
21336W        W80432  41.302  13.801  11.457
21337W        W80433  22.031  23.559  10.436
21338W        W80434  37.385   7.410  12.011
21339W        W80435  28.935   0.892   1.247
21340W        W80436  41.843   3.897   2.800
21341W        W80437  29.634   3.391  13.462
21342W        W80438  15.214  34.930  11.882
21343W        W80439  27.083  26.008  11.385
21344W        W80440  42.295  27.138   2.754
21345W        W80441  35.571   2.373   4.276
21346W        W80442  16.198  36.049  12.037
21347W        W80443   9.225  37.356   2.365
21348W        W80444  17.701  13.739   0.408
21349W        W80445  13.217  23.149   1.912
21350W        W80446  43.377  44.402   1.451
21351W        W80447   4.862  11.135   4.140
21352W        W80448  35.441  19.107  14.327
21353W        W80449  28.649  32.553  14.325
21354W        W80450  15.692  13.182  14.840
21355W        W80451   3.245  26.122   4.116
21356W        W80452  29.602  23.169   3.655
21357W        W80453   5.700  24.006   5.105
21358W        W80454  40.319  18.639  14.326
21359W        W80455  23.597  14.608   4.298
21360W        W80456  39.425  40.480   2.713
21361W        W80457  33.908  15.751  14.986
21362W        W80458  16.251  36.417  14.782
21363W        W80459  44.796   9.243  10.927
21364W        W80460  28.985  41.291   2.237
21365W        W80461   6.806  44.404  10.637
21366W        W80462  13.245   7.389   3.706
21367W        W80463  14.715  42.372   2.234
21368W        W80464  40.409  36.416   4.302
21369W        W80465  32.430  27.621   2.702
21370W        W80466  25.695   7.781   2.307
21371W        W80467  27.604  43.776  12.394
21372W        W80468   8.192  34.434  12.955
21373W        W80469  19.103  43.766  11.961
21374W        W80470  15.719  44.315  12.904
21375W        W80471  39.367  32.917   3.247
21376W        W80472  34.982   2.320  11.579
21377W        W80473  35.462  30.045  14.998
21378W        W80474  27.942  44.978   2.390
21379W        W80475  30.562  23.515   4.638
21380W        W80476  24.132  42.295   3.211
21381W        W80477  42.416  22.219   4.210
21382W        W80478  17.144  30.040  10.634
21383W        W80479  20.083  37.358   2.668
21384W        W80480  37.402  19.074  11.594
21385W        W80481  19.660  24.490  11.984
21386W        W80482  26.699  14.598  11.986
21387W        W80483  20.662  13.651   1.227
21388W        W80484  15.298   1.339  13.515
21389W        W80485  10.771  43.368   4.609
21390W        W80486  34.467  20.231   0.869
21391W        W80487  21.038  13.230   3.821
21392W        W80488  36.394  25.073  14.799
21393W        W80489  17.280  13.324  12.486
21394W        W80490   0.869   0.813  13.986
21395W        W80491  17.214   7.879  12.499
21396W        W80492  26.558  23.578   0.890
21397W        W80493  28.116   6.754   3.330
21398W        W80494  16.305  40.369   0.382
21399W        W80495  25.078  44.947   2.760
21400W        W80496  29.537   4.789   1.762
21401W        W80497   1.358  39.048  10.918
21402W        W80498  13.618  30.106   0.831
21403W        W80499  33.073  40.376   4.785
21404W        W80500  18.175  25.217   0.291
21405W        W80501  12.755  27.969  13.489
21406W        W80502  29.519  16.761  12.513
21407W        W80503  26.585  34.516  13.799
21408W        W80504  10.378  14.116   3.306
21409W        W80505  39.830  30.053  14.926
21410W        W80506  10.320  43.399  11.433
21411W        W80507   6.883  26.108   2.353
21412W        W80508  13.310  13.121   4.759
21413W        W80509  14.740  30.996  13.899
21414W        W80510  13.328  16.693  12.942
21415W        W80511  33.513  32.955   2.821
21416W        W80512  44.864  30.126   2.245
21417W        W80513   0.440   6.850  13.060
21418W        W80514  43.363  24.724   1.909
21419W        W80515  41.337  31.965  13.791
21420W        W80516   7.824  15.163  10.564
21421W        W80517  30.467  40.045  13.405
21422W        W80518   7.232  42.793   2.265
21423W        W80519  12.725  34.926  12.951
21424W        W80520  11.298  14.696  12.888
21425W        W80521   4.401   8.842   3.714
21426W        W80522  31.014   0.854  13.992
21427W        W80523  14.316   9.850  10.974
21428W        W80524   6.884  34.580  11.988
21429W        W80525   6.277  24.212   3.243
21430W        W80526  19.599   0.965   1.822
21431W        W80527   2.788  10.170   0.829
21432W        W80528   6.428  43.766  14.424
21433W        W80529  41.881   4.326   2.409
21434W        W80530  36.041  23.658   0.413
21435W        W80531  28.518  28.981  13.855
21436W        W80532  23.682  25.055   3.740
21437W        W80533  32.551  39.392   4.312
21438W        W80534   1.843  14.710   3.298
21439W        W80535   3.889  14.131  10.093
21440W        W80536  24.541  26.049  12.467
21441W        W80537  23.539  40.961   3.210
21442W        W80538  15.609  32.581  14.948
21443W        W80539  29.068  25.040   4.682
21444W        W80540  33.874  38.482   3.153
21445W        W80541  43.375  26.981   3.247
21446W        W80542  28.609  40.965  14.971
21447W        W80543   2.460  25.006  13.044
21448W        W80544  32.067  11.782   4.268
21449W        W80545   5.253  18.723   1.906
21450W        W80546  18.620   3.771  10.974
21451W        W80547  23.653  33.019  13.365
21452W        W80548  21.136   9.667   9.671
21453W        W80549  29.057  13.656  12.875
21454W        W80550  17.212   6.782   4.694
21455W        W80551  15.184  39.864   1.217
21456W        W80552  25.532   1.423  11.428
21457W        W80553  21.118   7.812   1.779
21458W        W80554   7.734  21.255   3.236
21459W        W80555  33.965  38.472  12.503
21460W        W80556   1.733  24.573  14.761
21461W        W80557  11.291  15.307  14.301
21462W        W80558  41.981  25.114   4.326
21463W        W80559   4.717  34.082  11.506
21464W        W80560  26.669  17.193  14.328
21465W        W80561  36.484   5.423   0.877
21466W        W80562  27.584  30.043  10.473
21467W        W80563  22.136  15.124   4.784
21468W        W80564   4.920   5.319  11.085
21469W        W80565   9.690  12.163  12.975
21470W        W80566  11.846  23.192  12.849
21471W        W80567   8.802  27.100  14.324
21472W        W80568  36.034  31.486   0.800
21473W        W80569   9.857  42.787  10.406
21474W        W80570  41.890  44.839  13.340
21475W        W80571   8.848  15.642   4.302
21476W        W80572  43.338   0.392   2.338
21477W        W80573  12.209   0.894  12.884
21478W        W80574  17.644  23.580  10.892
21479W        W80575  27.678   8.712  14.384
21480W        W80576  23.085   5.196  14.840
21481W        W80577  13.708  39.915  11.503
21482W        W80578  19.201  14.635  12.056
21483W        W80579  20.560  33.045   1.735
21484W        W80580   7.331  12.321   4.763
21485W        W80581  23.656  31.485  13.919
21486W        W80582  22.737  21.573  12.414
21487W        W80583   4.745  33.897  10.634
21488W        W80584  42.893  11.729   1.901
21489W        W80585   9.772  15.176  12.465
21490W        W80586  21.719  12.710  11.098
21491W        W80587  36.580  11.623   3.740
21492W        W80588  29.174  10.664   3.786
21493W        W80589  44.351  44.910   2.368
21494W        W80590  36.953  44.430   2.200
21495W        W80591  41.975  42.435  14.926
21496W        W80592   9.249  38.843  11.018
21497W        W80593   6.769  42.361  14.423
21498W        W80594  43.388   9.194   1.726
21499W        W80595   6.751  39.927   1.225
21500W        W80596  13.747  34.070  13.828
21501W        W80597  28.144  39.404   2.248
21502W        W80598  38.872  16.195   2.197
21503W        W80599  44.892  15.694  12.078
21504W        W80600  27.632  13.707   2.276
21505W        W80601  19.762  42.390   0.734
21506W        W80602  37.029  21.123  13.365
21507W        W80603  10.215  28.555  14.931
21508W        W80604  39.408   7.754  12.539
21509W        W80605  30.553  17.798  12.530
21510W        W80606  29.507  36.872   3.721
21511W        W80607  11.803  36.044  10.477
21512W        W80608  33.936  30.474  14.433
21513W        W80609   3.427  25.522  10.137
21514W        W80610  18.770   9.658  11.997
21515W        W80611  23.123  21.657  13.941
21516W        W80612  38.934  23.573   3.235
21517W        W80613  30.463  11.361  11.431
21518W        W80614  38.840  40.875  14.853
21519W        W80615   7.374  26.552   4.306
21520W        W80616  14.747  11.683   4.703
21521W        W80617   0.319  27.047   1.797
21522W        W80618   5.381  28.994   3.369
21523W        W80619  33.094   7.904   0.727
21524W        W80620  19.071  42.353   3.758
21525W        W80621  10.817  34.974   4.204
21526W        W80622  10.652  43.870  10.566
21527W        W80623  35.473  28.000  12.953
21528W        W80624  22.075   2.907  13.790
21529W        W80625  17.560   0.322   4.727
21530W        W80626  30.161  34.055  10.443
21531W        W80627   3.252   6.689  11.424
21532W        W80628  38.563   2.387  14.435
21533W        W80629  12.227  42.524   3.347
21534W        W80630   4.810  21.602  11.446
21535W        W80631   0.301  39.326   4.352
21536W        W80632   2.365  38.370  14.874
21537W        W80633  15.588  13.178   1.338
21538W        W80634  32.993  37.467   0.760
21539W        W80635  15.307  26.543   4.212
21540W        W80636   8.389  11.702   3.863
21541W        W80637  14.693   6.775  13.808
21542W        W80638   3.394  15.136  12.028
21543W        W80639   7.272  38.424  14.866
21544W        W80640  43.407  43.354   4.641
21545W        W80641  22.119  12.128  11.000
21546W        W80642  38.958  23.200   2.236
21547W        W80643  30.604   3.712  13.382
21548W        W80644  30.957  14.324  12.907
21549W        W80645  20.078  39.937  12.971
21550W        W80646  36.474  39.976  11.051
21551W        W80647   8.196  20.132  11.885
21552W        W80648  36.481  22.171  14.870
21553W        W80649  43.423  21.246  11.990
21554W        W80650  25.029  15.711  13.414
21555W        W80651  11.857  21.129   5.103
21556W        W80652   9.717   7.771  12.956
21557W        W80653   0.800  16.615  12.925
21558W        W80654  10.171  29.603  12.026
21559W        W80655  27.015  28.061  11.969
21560W        W80656  14.283  44.831  12.443
21561W        W80657  34.942   8.198  13.411
21562W        W80658  43.374  38.024   0.727
21563W        W80659  39.404  10.796  12.560
21564W        W80660  19.695   6.231   0.860
21565W        W80661  16.749  25.696   4.770
21566W        W80662   8.817  38.482  14.812
21567W        W80663  27.559  15.704   4.217
21568W        W80664  38.025  33.386  11.397
21569W        W80665  35.889  27.070  11.411
21570W        W80666  40.010  22.087  11.390
21571W        W80667  37.846  44.004  13.322
21572W        W80668   9.232  37.407   0.795
21573W        W80669  34.064   3.453   3.825
21574W        W80670  17.651  16.203  11.419
21575W        W80671  44.778  15.293   1.400
21576W        W80672   5.691  22.654  14.961
21577W        W80673   2.780   4.733  13.350
21578W        W80674  36.899  42.783   5.156
21579W        W80675  27.586  15.644   3.387
21580W        W80676  31.622   6.417  14.286
21581W        W80677  20.173   5.868   9.472
21582W        W80678  14.609   2.965   3.341
21583W        W80679  20.072  41.465   1.308
21584W        W80680   5.807  19.219  13.839
21585W        W80681  23.118  42.350   2.235
21586W        W80682  10.704  18.580  12.505
21587W        W80683  16.202  19.076   2.670
21588W        W80684  14.666  20.272   2.278
21589W        W80685  28.524  40.476   3.215
21590W        W80686   4.352   5.241  12.527
21591W        W80687  42.015   5.274  13.447
21592W        W80688  28.183  31.019   2.353
21593W        W80689  21.552  24.587  10.459
21594W        W80690  34.395  14.785   5.175
21595W        W80691   3.431  33.558   4.319
21596W        W80692  36.895  37.048  11.436
21597W        W80693   2.904  20.223   3.687
21598W        W80694  33.484  44.887   4.654
21599W        W80695  38.399  13.795  12.842
21600W        W80696  29.507  36.589  13.005
21601W        W80697  26.484  19.573  13.338
21602W        W80698  32.409  31.502  13.347
21603W        W80699  27.967  24.043   4.691
21604W        W80700  42.940   9.297  14.433
21605W        W80701  27.550   0.873   0.343
21606W        W80702   8.325  32.525   3.219
21607W        W80703  26.024  35.883   2.294
21608W        W80704  12.692  26.022  13.037
21609W        W80705   6.201  33.516  13.364
21610W        W80706  29.154  27.496   3.309
21611W        W80707  17.275   2.956  13.905
21612W        W80708   2.955  43.455  12.539
21613W        W80709  10.176  14.284   4.230
21614W        W80710  36.908  13.179  10.999
21615W        W80711  12.273  33.387  10.918
21616W        W80712  39.818  24.020  10.960
21617W        W80713  22.519  21.644  14.850
21618W        W80714  11.353  15.821   2.407
21619W        W80715  10.335  32.405  12.902
21620W        W80716  17.070   9.346   5.166
21621W        W80717  42.888   0.775  11.861
21622W        W80718  35.996  31.445  12.460
21623W        W80719  34.106  26.028  11.867
21624W        W80720  43.788  11.179  11.909
21625W        W80721  24.018   9.886   9.924
21626W        W80722  31.473  19.621   3.284
21627W        W80723  11.189  22.539   4.793
21628W        W80724  12.287  18.178  12.078
21629W        W80725  38.944  36.469  11.938
21630W        W80726  34.431  13.714   3.812
21631W        W80727  30.927  10.814  13.063
21632W        W80728   3.758   8.367   1.849
21633W        W80729   4.382  18.261  12.552
21634W        W80730  21.520  38.541   2.876
21635W        W80731  38.543  33.037  10.472
21636W        W80732  41.358   2.447   4.620
21637W        W80733  18.146  21.566  13.890
21638W        W80734  40.876   8.823  12.844
21639W        W80735  13.738  15.600  13.456
21640W        W80736  24.662  41.881  14.501
21641W        W80737  13.140   9.315   1.716
21642W        W80738  43.293  38.414   1.262
21643W        W80739  29.022  22.575  12.891
21644W        W80740  36.919  25.000   0.818
21645W        W80741  26.186   1.971  12.553
21646W        W80742  10.336  44.334  13.052
21647W        W80743  34.380  18.052  13.828
21648W        W80744   3.936  14.683  12.068
21649W        W80745  41.523  10.310   0.881
21650W        W80746  43.401  26.983   3.834
21651W        W80747  26.128  38.979  13.547
21652W        W80748  16.137  12.726  14.289
21653W        W80749   7.722  29.079  13.358
21654W        W80750  29.507  23.701  10.087
21655W        W80751  27.944  12.787  13.847
21656W        W80752  12.698  31.104  14.914
21657W        W80753  13.654  15.148   3.629
21658W        W80754  33.617  25.540  11.972
21659W        W80755  42.021   1.372   2.816
21660W        W80756  44.929  43.827  13.517
21661W        W80757  14.735  35.583   4.323
21662W        W80758  21.170  32.969   4.830
21663W        W80759   2.230  24.030   3.155
21664W        W80760  18.761  21.049   3.798
21665W        W80761   7.779  42.505  14.004
21666W        W80762   9.260  16.572  14.412
21667W        W80763  37.016  14.783  14.383
21668W        W80764   0.940  27.620  13.926
21669W        W80765  29.670  31.951  11.585
21670W        W80766  41.916  14.798   1.340
21671W        W80767  20.636  18.293  14.890
21672W        W80768  12.328   8.261   4.758
21673W        W80769  29.091  32.524  13.541
21674W        W80770  44.997   4.390   4.819
21675W        W80771  13.804  32.021   0.842
21676W        W80772  14.312  32.569  13.474
21677W        W80773  42.342  41.901  14.469
21678W        W80774  15.634  33.926   0.350
21679W        W80775  38.953  40.817  13.548
21680W        W80776  20.633  39.434  12.492
21681W        W80777  19.268  43.765   1.334
21682W        W80778  31.108   4.916   4.261
21683W        W80779  34.556  15.801   3.224
21684W        W80780  11.734  14.205   3.336
21685W        W80781  22.124  32.092   1.387
21686W        W80782  19.250  30.117  13.879
21687W        W80783  21.032   0.827   3.758
21688W        W80784   9.307   2.720  10.542
21689W        W80785  13.346   3.775  11.932
21690W        W80786  15.595  21.088   0.310
21691W        W80787  38.353   4.373   0.915
21692W        W80788   8.190  12.803   2.856
21693W        W80789  38.952  38.558   2.315
21694W        W80790  25.630  41.825   3.807
21695W        W80791   5.803  21.533   4.129
21696W        W80792  35.913   9.765   3.320
21697W        W80793  43.455  22.238   3.799
21698W        W80794  13.729  14.309  12.494
21699W        W80795  23.652  23.644   3.265
21700W        W80796  19.750   9.330  12.479
21701W        W80797  11.641  12.772  14.838
21702W        W80798  17.724   5.378   0.270
21703W        W80799  42.995  26.678  13.467
21704W        W80800  18.547  34.078  12.889
21705W        W80801  16.661  30.489  13.984
21706W        W80802  24.697   7.736  13.063
21707W        W80803  32.068  22.136   0.876
21708W        W80804  18.782   9.761  12.965
21709W        W80805   6.864  42.878  13.950
21710W        W80806   7.227  31.491   3.686
21711W        W80807   1.338   4.765   3.749
21712W        W80808  32.107  15.819   5.188
21713W        W80809  11.773  37.570  11.473
21714W        W80810  44.789  32.482   0.271
21715W        W80811  29.664  37.919   0.475
21716W        W80812   2.386  19.052  14.291
21717W        W80813  20.656  30.968  13.376
21718W        W80814  44.400  12.720  13.003
21719W        W80815  18.750  34.451  14.455
21720W        W80816  36.857  39.916   2.709
21721W        W80817  39.369  26.986   1.364
21722W        W80818   4.878  11.653  12.473
21723W        W80819   4.406   4.208  13.468
21724W        W80820  12.707  29.109  14.849
21725W        W80821  36.871  32.536  12.362
21726W        W80822  11.797  12.795   1.713
21727W        W80823  34.462   7.681  11.498
21728W        W80824   8.380  11.677  13.865
21729W        W80825  29.597  34.937   1.310
21730W        W80826   7.287  35.019   3.244
21731W        W80827  36.548  10.156   1.909
21732W        W80828  30.129  21.090   1.773
21733W        W80829  22.252  40.810  12.422
21734W        W80830  35.061  39.384  10.444
21735W        W80831  18.667  37.403   2.394
21736W        W80832  36.942   0.834   3.870
21737W        W80833   2.443  33.884  14.357
21738W        W80834  14.218  21.124  13.426
21739W        W80835   8.687   8.186   0.319
21740W        W80836  26.991   0.255   2.229
21741W        W80837  12.172  13.180   3.330
21742W        W80838  42.463  12.783   3.150
21743W        W80839  11.261  43.328  13.852
21744W        W80840   4.386  32.014   0.811
21745W        W80841  36.462  29.532  14.903
21746W        W80842  40.909   3.381  14.854
21747W        W80843  21.042  38.840  10.502
21748W        W80844  16.190  38.045  14.276
21749W        W80845   7.373   6.877  13.439
21750W        W80846  43.783  20.672  14.320
21751W        W80847   0.296   1.732   1.928
21752W        W80848   3.926  23.645  12.846
21753W        W80849   3.398   7.370  14.028
21754W        W80850   9.784   4.782   2.346
21755W        W80851  26.498  28.464  12.430
21756W        W80852  40.838  16.639   1.321
21757W        W80853  36.982  25.561   0.406
21758W        W80854  17.705  12.205   0.287
21759W        W80855  28.049  36.848   0.906
21760W        W80856   2.431  33.103  12.499
21761W        W80857   2.815   8.689  14.313
21762W        W80858  26.671  32.511   4.726
21763W        W80859  21.124  24.166   2.890
21764W        W80860  23.728  21.690  12.531
21765W        W80861   4.845  11.646   5.293
21766W        W80862  33.477   4.839  10.475
21767W        W80863  25.670   2.458  13.981
21768W        W80864  27.559   1.278   3.716
21769W        W80865  31.009  34.983  13.495
21770W        W80866  34.476  13.346   1.366
21771W        W80867  37.864  25.642  12.988
21772W        W80868  33.491  23.219   9.969
21773W        W80869  33.060   9.342   0.747
21774W        W80870  24.110  37.916  14.328
21775W        W80871  37.043  32.516   2.786
21776W        W80872  29.005  35.978  11.993
21777W        W80873  37.040  20.579  12.544
21778W        W80874  41.918  37.037  12.030
21779W        W80875  15.323  37.582  12.544
21780W        W80876  23.617  20.641  11.088
21781W        W80877   5.228  43.487   4.766
21782W        W80878  19.187  21.074   3.233
21783W        W80879   2.867  40.955   3.781
21784W        W80880   0.416  32.553  11.469
21785W        W80881  16.769  24.717  11.440
21786W        W80882   3.758  24.628  11.521
21787W        W80883   1.952  28.174  13.427
21788W        W80884  31.023  14.278  10.511
21789W        W80885   9.254  28.957  10.974
21790W        W80886  35.964  13.733  10.590
21791W        W80887  35.573   6.694   3.663
21792W        W80888  23.716  40.535   3.649
21793W        W80889  25.135  17.173   2.297
21794W        W80890  19.752  10.753  11.594
21795W        W80891  25.683  15.119   1.232
21796W        W80892  12.838   5.300   2.214
21797W        W80893  14.613  27.118   2.215
21798W        W80894   9.393  43.509   3.840
21799W        W80895  15.263  12.299  13.846
21800W        W80896  23.090  22.999   4.803
21801W        W80897  29.448  37.048  13.985
21802W        W80898  23.625  26.164   3.375
21803W        W80899  39.363  14.827  11.377
21804W        W80900  36.964  26.491  13.894
21805W        W80901   5.865   3.385  14.447
21806W        W80902  16.779  16.714  10.606
21807W        W80903  14.250   9.789   2.316
21808W        W80904  40.970  10.318  10.120
21809W        W80905  38.424  36.061   0.298
21810W        W80906  43.378  34.031   4.305
21811W        W80907  13.693  22.208  12.080
21812W        W80908   2.798  13.148  10.619
21813W        W80909  15.679  14.113   3.352
21814W        W80910  23.526  30.500   3.751
21815W        W80911  36.897  17.076  10.143
21816W        W80912  22.745  26.097   0.442
21817W        W80913  42.487  14.220   0.283
21818W        W80914   7.900  11.235  11.390
21819W        W80915   7.743  11.841  11.868
21820W        W80916  33.900  43.870   0.257
21821W        W80917  36.584  43.317  11.117
21822W        W80918   9.187  20.598   0.387
21823W        W80919  24.984   9.777   1.736
21824W        W80920  25.078  44.278  12.002
21825W        W80921  31.938  43.862   2.668
21826W        W80922  44.849  35.544   0.731
21827W        W80923  11.173   4.417   4.762
21828W        W80924  25.607  30.659   2.196
21829W        W80925  25.999  34.597   0.858
21830W        W80926  35.011  23.173   1.754
21831W        W80927  44.916   0.844  11.442
21832W        W80928   1.321  12.270  12.081
21833W        W80929  30.523  31.404   4.312
21834W        W80930  14.808   4.323   0.246
21835W        W80931  28.132  39.858   4.346
21836W        W80932  14.717  42.314   2.862
21837W        W80933  15.139  16.307  14.942
21838W        W80934  13.203  31.117   3.359
21839W        W80935   9.302  16.598   0.790
21840W        W80936  44.883  11.155   1.921
21841W        W80937  26.059   4.749   0.867
21842W        W80938  40.053   2.455  12.534
21843W        W80939  23.496  39.531  11.604
21844W        W80940  17.673  37.015  12.414
21845W        W80941  27.555  39.859   1.423
21846W        W80942  30.612  28.031  14.486
21847W        W80943  39.383  33.440  12.377
21848W        W80944  31.514  44.462   4.762
21849W        W80945   7.182  21.525  14.760
21850W        W80946   1.805   8.729  14.008
21851W        W80947   7.911  43.425   1.899
21852W        W80948   0.401   1.919  13.817
21853W        W80949   9.230   2.378   1.862
21854W        W80950   9.775  31.581  13.054
21855W        W80951  43.999  23.590   2.826
21856W        W80952  10.651  40.803   4.604
21857W        W80953   4.908  10.214   1.767
21858W        W80954   1.339  10.149   3.781
21859W        W80955  14.203   0.369   3.810
21860W        W80956   3.874  42.790   1.436
21861W        W80957  35.085   2.781  14.797
21862W        W80958  35.919  38.945   4.162
21863W        W80959   0.767  13.277   9.947
21864W        W80960   9.222  14.191   2.236
21865W        W80961  18.614  43.821  11.565
21866W        W80962  36.881  26.628   3.165
21867W        W80963   7.815  22.222  11.518
21868W        W80964   9.282  39.989  13.025
21869W        W80965  41.899  33.035  10.613
21870W        W80966  22.545  25.980  10.925
21871W        W80967  35.504  42.460   2.704
21872W        W80968  16.089   1.908   2.744
21873W        W80969  11.219  21.119  11.889
21874W        W80970   2.809  25.068   2.783
21875W        W80971  36.841   3.860  13.344
21876W        W80972   4.397   7.398   0.257
21877W        W80973  18.735  24.021   0.249
21878W        W80974  18.741   4.317   1.725
21879W        W80975  34.907   5.909   2.844
21880W        W80976  15.594  40.415  11.583
21881W        W80977   5.393  12.239   3.826
21882W        W80978  26.684  26.167  11.609
21883W        W80979  15.791  36.954   1.318
21884W        W80980  41.020  10.765   2.816
21885W        W80981  42.828  37.954  14.441
21886W        W80982   8.358  35.454   4.824
21887W        W80983  34.490  39.490   3.346
21888W        W80984  20.595  36.471   4.751
21889W        W80985  26.542   1.337  12.988
21890W        W80986  42.989  17.726   2.387
21891W        W80987  41.982   1.750   5.281
21892W        W80988  11.189  25.132  14.988
21893W        W80989  23.067  18.646  12.074
21894W        W80990  27.451  39.008   3.845
21895W        W80991  28.101  28.443  13.402
21896W        W80992   2.447  24.002   2.848
21897W        W80993  14.127  15.210   2.781
21898W        W80994   9.722   6.349   1.216
21899W        W80995  10.685  38.535   0.403
21900W        W80996  28.953  39.922   4.141
21901W        W80997   1.873  20.133   0.412
21902W        W80998  41.307   3.840  10.521
21903W        W80999   9.883  31.947  14.308
21904W        W81000   0.339  14.121   0.340
21905W        W81001  37.962  32.929  12.849
21906W        W81002  31.584  11.753   3.289
21907W        W81003   4.742   6.424  13.030
21908W        W81004  19.213   2.463   2.303
21909W        W81005  22.699   4.445  12.029
21910W        W81006  10.199  16.206   0.908
21911W        W81007   6.346  34.506   3.345
21912W        W81008   9.675   0.791   0.343
21913W        W81009  28.545  19.279   0.895
21914W        W81010  22.035  14.269  10.904
21915W        W81011   2.434  11.808   3.239
21916W        W81012  11.149  39.968   2.307
21917W        W81013  35.109  17.777  13.529
21918W        W81014  12.751  36.580  14.415
21919W        W81015  13.166  29.555   0.430
21920W        W81016  10.282  27.582   2.226
21921W        W81017  20.531  32.398  10.423
21922W        W81018  42.972  32.461   0.312
21923W        W81019  34.065  41.525   1.851
21924W        W81020  15.138  44.776  13.450
21925W        W81021  40.027  19.725  13.395
21926W        W81022  30.611   6.808  14.004
21927W        W81023  20.031  43.809   0.899
21928W        W81024  37.407  10.641   0.336
21929W        W81025  39.439  20.232  13.828
21930W        W81026  19.136  16.567  10.408
21931W        W81027   8.213   5.730  13.853
21932W        W81028  20.207  19.679  13.378
21933W        W81029  21.589  31.439   3.714
21934W        W81030  43.938  43.965  14.506
21935W        W81031  15.729  11.773  12.340
21936W        W81032  43.976   7.850   0.457
21937W        W81033  26.144  39.544   0.411
21938W        W81034  38.842   3.428   4.736
21939W        W81035   0.368   1.240   2.372
21940W        W81036  28.649  31.537   3.637
21941W        W81037  23.006   5.765   0.758
21942W        W81038  28.489  12.627   2.869
21943W        W81039  38.970  22.647   4.623
21944W        W81040   7.284  20.523   2.691
21945W        W81041  19.754   2.790  11.613
21946W        W81042  27.595  25.127   1.414
21947W        W81043  36.440  18.115   2.693
21948W        W81044  21.680  27.547   2.245
21949W        W81045  16.601  40.311   1.343
21950W        W81046  36.550   2.811   0.947
21951W        W81047  31.096  18.277  13.406
21952W        W81048  21.620  12.805   3.183
21953W        W81049  12.349  40.510   1.432
21954W        W81050  29.646   7.773  10.625
21955W        W81051  31.567   6.752  11.979
21956W        W81052  31.132  33.029   0.757
21957W        W81053  37.006  32.432  11.503
21958W        W81054   7.705  37.459  14.028
21959W        W81055  37.066  42.851   3.165
21960W        W81056  40.480   0.296   1.275
21961W        W81057  25.190   5.794  13.804
21962W        W81058  30.495  30.129   3.763
21963W        W81059   3.863  13.771   4.758
21964W        W81060  43.818  24.089  10.543
21965W        W81061  14.736  14.707  14.490
21966W        W81062   7.351  33.481  12.894
21967W        W81063  16.214  44.434  14.925
21968W        W81064  30.921  35.950  13.021
21969W        W81065  28.020  24.051   0.278
21970W        W81066   1.468  38.018   3.688
21971W        W81067  29.566  15.325  12.417
21972W        W81068   0.815  41.980   5.185
21973W        W81069  14.655  23.632   4.754
21974W        W81070   8.304  17.084  11.388
21975W        W81071  41.537  30.126   4.309
21976W        W81072   4.317  38.478   4.141
21977W        W81073   7.212  23.540  13.545
21978W        W81074  17.603  36.592   5.194
21979W        W81075  19.156  19.269  11.865
21980W        W81076  40.055  14.158  12.096
21981W        W81077  27.985  26.572   1.800
21982W        W81078  39.992  40.313  10.467
21983W        W81079  18.711  41.802   3.218
21984W        W81080  17.267   6.880   2.205
21985W        W81081  44.501   3.309  10.965
21986W        W81082  25.139  34.522  13.446
21987W        W81083   6.317  23.701   4.147
21988W        W81084  39.552  29.919  13.378
21989W        W81085  29.959   7.247   1.858
21990W        W81086   0.464   6.358   2.809
21991W        W81087  27.621  23.160   5.161
21992W        W81088  13.714  42.406  10.524
21993W        W81089  22.624  27.680  11.383
21994W        W81090   7.678  15.685   0.444
21995W        W81091   2.842   3.375  14.017
21996W        W81092   4.262  35.412  11.077
21997W        W81093  35.565  37.438   2.828
21998W        W81094  42.994  37.562   2.865
21999W        W81095  27.981  10.335  13.459
22000W        W81096   3.836  14.617   0.407
22001W        W81097   5.329  17.663  12.010
22002W        W81098   3.754   3.292   1.799
22003W        W81099  16.610  33.973   2.774
22004W        W81100  28.480   2.887   0.480
22005W        W81101  28.156   7.761   4.700
22006W        W81102  38.457  12.677   3.825
22007W        W81103  15.255  16.285  12.993
22008W        W81104  25.579  34.533   4.803
22009W        W81105  17.654  15.160  11.547
22010W        W81106  33.109  12.763  14.306
22011W        W81107  24.599  44.926  10.556
22012W        W81108  21.171   1.775  11.988
22013W        W81109  14.789  44.922   2.184
22014W        W81110  25.604  38.958  10.614
22015W        W81111  26.951   8.863   3.808
22016W        W81112   1.877  43.295  13.816
22017W        W81113  37.023  39.376  11.438
22018W        W81114  24.219   9.859  13.953
22019W        W81115  24.143  39.018   3.270
22020W        W81116  33.505  21.583  12.494
22021W        W81117  28.981  44.308  10.458
22022W        W81118  40.435  44.808  10.989
22023W        W81119   2.875  36.569  11.034
22024W        W81120  15.696  43.849   2.332
22025W        W81121  21.118  34.871  14.511
22026W        W81122  38.064  35.408   1.286
22027W        W81123  29.970  11.852  11.420
22028W        W81124  39.453  41.977  11.871
22029W        W81125   3.314  22.055  10.501
22030W        W81126   3.412  44.500  11.471
22031W        W81127  35.498  28.082  13.849
22032W        W81128  12.147  17.792   5.286
22033W        W81129  13.632   9.368  13.805
22034W        W81130  13.210  25.469  11.568
22035W        W81131  17.151  24.998  11.855
22036W        W81132  29.001  28.512   0.408
22037W        W81133  34.033  27.150   3.754
22038W        W81134   1.766   8.685   4.675
22039W        W81135  26.015  16.648  13.511
22040W        W81136  37.349  30.093   2.838
22041W        W81137  11.182  24.601  12.996
22042W        W81138   5.391  33.489   4.687
22043W        W81139  40.427   8.394  14.297
22044W        W81140   6.209   4.431  14.503
22045W        W81141  23.131   7.745  12.478
22046W        W81142  43.794  20.105  10.591
22047W        W81143  17.623   8.838  14.780
22048W        W81144   5.384  34.466   0.378
22049W        W81145  44.889  27.952  14.025
22050W        W81146   6.900   9.737   0.450
22051W        W81147   0.776  34.552  12.071
22052W        W81148  34.559  35.886   3.352
22053W        W81149  32.447  22.545   5.220
22054W        W81150  20.673  25.113   3.198
22055W        W81151   6.829  37.983   3.217
22056W        W81152   7.751  34.989  12.545
22057W        W81153   2.851  37.514   4.606
22058W        W81154  22.514  26.139   2.821
22059W        W81155  40.851  41.336  11.459
22060W        W81156   5.806  22.593   1.727
22061W        W81157  14.634  16.169  11.128
22062W        W81158  11.705  36.954   1.384
22063W        W81159  13.844  26.510   3.658
22064W        W81160  30.002  18.265   2.896
22065W        W81161  43.995  29.940   2.285
22066W        W81162  18.603  16.783  11.010
22067W        W81163   6.900  16.638   2.869
22068W        W81164  44.280   0.320  14.316
22069W        W81165  15.177  29.131   5.607
22070W        W81166  44.796  44.311   4.814
22071W        W81167  16.791  37.847  12.552
22072W        W81168  18.110   1.254  10.443
22073W        W81169  29.668  33.563  11.869
22074W        W81170  30.524  23.221   4.338
22075W        W81171  17.230  29.531  11.013
22076W        W81172   9.354  42.981  13.362
22077W        W81173  16.722  33.910  10.440
22078W        W81174  15.812  40.974  11.494
22079W        W81175  40.044  11.833   3.852
22080W        W81176  28.030   5.911  12.399
22081W        W81177  19.244   2.452  10.979
22082W        W81178  35.489  39.550   2.199
22083W        W81179  22.051  28.475  13.413
22084W        W81180  15.189  31.998  14.392
22085W        W81181   2.919  34.057  10.439
22086W        W81182   8.220  22.629   2.855
22087W        W81183   1.965  21.051  11.969
22088W        W81184  24.116  20.096   2.230
22089W        W81185   2.934  12.649  14.795
22090W        W81186  30.475  29.432  10.552
22091W        W81187   1.959   1.302   4.696
22092W        W81188   8.874  21.585  11.017
22093W        W81189   1.461  17.102   2.847
22094W        W81190   0.891  44.445  14.918
22095W        W81191  37.422  41.377  12.971
22096W        W81192  43.318  26.699   0.481
22097W        W81193  13.265  39.953   2.286
22098W        W81194  29.468  38.335   4.217
22099W        W81195  37.476   8.227   5.605
22100W        W81196   8.222  10.805  10.547
22101W        W81197  23.233   9.889   9.569
22102W        W81198  42.516  36.026   2.306
22103W        W81199   2.256  23.711  10.092
22104W        W81200   7.722   6.247  14.359
22105W        W81201  43.795  21.727  14.939
22106W        W81202  19.280   5.274   1.736
22107W        W81203  17.738  13.833  14.454
22108W        W81204  12.328   0.332   2.817
22109W        W81205  41.788  43.312  13.471
22110W        W81206  22.073   5.288  11.423
22111W        W81207  42.367   2.900  13.485
22112W        W81208  22.227  13.737   3.277
22113W        W81209   3.747  44.872   3.826
22114W        W81210  38.853  16.638   4.298
22115W        W81211  31.914  24.130   2.764
22116W        W81212  20.643   4.395  13.958
22117W        W81213  12.360  12.843   0.835
22118W        W81214  32.460  20.208   4.159
22119W        W81215  28.622  31.964   3.820
22120W        W81216  30.010   6.865   2.681
22121W        W81217  21.693  24.696  12.835
22122W        W81218  36.360  40.943   2.402
22123W        W81219   3.937  38.386  13.807
22124W        W81220  15.657  36.018   5.682
22125W        W81221  12.142   4.251  12.409
22126W        W81222  19.068   4.355   3.213
22127W        W81223  31.935  28.479   9.979
22128W        W81224  12.614  35.478  12.849
22129W        W81225  34.383  29.971  12.525
22130W        W81226  24.140  29.090  14.325
22131W        W81227  37.048  20.613   0.279
22132W        W81228  12.631   1.416   0.328
22133W        W81229  12.305  30.629   1.784
22134W        W81230  30.918   1.776   2.233
22135W        W81231   9.862   7.332   2.889
22136W        W81232  27.010  44.800  14.871
22137W        W81233  20.238   0.259  12.411
22138W        W81234   0.413   1.463   2.802
22139W        W81235  21.248  23.673   2.787
22140W        W81236  19.279  24.226   0.939
22141W        W81237  38.411  20.176  10.594
22142W        W81238  19.648  43.937  10.147
22143W        W81239  35.035   6.727  13.954
22144W        W81240  15.138  22.596  14.313
22145W        W81241  22.108  34.892   0.926
22146W        W81242  12.827  21.636   0.924
22147W        W81243  31.145  25.517  12.038
22148W        W81244  34.435  44.308  12.359
22149W        W81245   0.970  28.555   3.764
22150W        W81246  22.738   5.428   1.267
22151W        W81247  28.617  15.158  14.859
22152W        W81248  33.880  23.494   1.704
22153W        W81249   2.347  32.886  10.525
22154W        W81250  14.292  37.042   4.625
22155W        W81251  38.462   0.782   3.338
22156W        W81252   8.820  24.073   2.402
22157W        W81253  41.519   2.953  12.953
22158W        W81254  35.918  33.531   1.409
22159W        W81255  30.027   9.765  11.060
22160W        W81256   3.420  26.013   1.797
22161W        W81257   9.768  25.512  10.465
22162W        W81258  37.485  43.835  11.020
22163W        W81259   0.345   9.342  10.538
22164W        W81260  10.307  30.158   1.885
22165W        W81261  21.592  15.289   2.821
22166W        W81262   2.888  19.270  10.900
22167W        W81263  12.723  26.575  14.927
22168W        W81264  17.773   2.402  14.998
22169W        W81265  30.543  41.464   4.354
22170W        W81266  35.917  30.516  13.308
22171W        W81267  38.842  24.525  14.961
22172W        W81268  26.029  15.637   4.749
22173W        W81269  32.129  10.821  14.030
22174W        W81270  21.656  28.053   0.808
22175W        W81271  13.179  11.239  13.953
22176W        W81272  17.273  32.052  11.059
22177W        W81273  44.314   3.878  13.361
22178W        W81274  12.635  15.223   0.272
22179W        W81275  25.707  15.754   5.085
22180W        W81276   6.217  29.169  14.952
22181W        W81277  32.993  44.382   0.845
22182W        W81278  11.192  29.162   5.568
22183W        W81279   5.779   6.281   1.717
22184W        W81280  29.082  14.739   1.235
22185W        W81281  14.282  36.003   1.446
22186W        W81282   0.291   8.262   1.443
22187W        W81283  42.411  35.540   1.828
22188W        W81284   4.807   4.248   3.219
22189W        W81285  15.202  13.134  12.079
22190W        W81286  34.962   7.711  14.892
22191W        W81287  19.183  23.565   3.155
22192W        W81288  34.045  20.604   2.815
22193W        W81289  39.008  17.705   2.841
22194W        W81290  26.958   4.262   4.661
22195W        W81291  18.122  25.085   2.309
22196W        W81292  38.940  23.093   1.740
22197W        W81293  43.916   7.279   0.901
22198W        W81294  44.343  35.904  11.088
22199W        W81295  35.450  37.412  13.922
22200W        W81296  26.204  10.813  12.899
22201W        W81297  19.661  32.505  12.083
22202W        W81298  14.591  28.061  13.865
22203W        W81299   1.978  37.374   2.335
22204W        W81300  38.517  38.506  11.474
22205W        W81301  38.869  23.497  12.572
22206W        W81302   0.263  27.640  12.447
22207W        W81303  25.623  12.223  13.390
22208W        W81304  19.733  36.879   1.716
22209W        W81305   4.908   5.813  12.840
22210W        W81306   1.380  44.920   4.141
22211W        W81307  33.501  36.903  13.392
22212W        W81308  10.174  44.392   1.917
22213W        W81309   7.837   1.418  11.967
22214W        W81310   1.824   0.324  11.612
22215W        W81311  19.152  37.359   0.760
22216W        W81312   2.803  44.384  13.026
22217W        W81313   9.233  16.727   3.336
22218W        W81314  26.556  23.992  12.367
22219W        W81315  23.548  24.596   4.315
22220W        W81316   9.167  42.316   4.347
22221W        W81317  18.176  28.988   3.831
22222W        W81318  16.108  11.209  13.529
22223W        W81319   7.751   9.254  13.820
22224W        W81320  23.015  40.500   4.269
22225W        W81321  40.034   9.731   9.477
22226W        W81322  22.122  25.605   0.884
22227W        W81323  12.272  27.450   1.849
22228W        W81324  27.662  28.936   0.277
22229W        W81325  20.658  28.016  11.607
22230W        W81326  14.266   4.755   1.914
22231W        W81327  27.956  11.265   4.353
22232W        W81328  32.891  25.165  14.976
22233W        W81329   7.797  38.876   1.419
22234W        W81330  41.536  26.082   0.901
22235W        W81331  13.724  25.141  12.518
22236W        W81332   2.370  15.791   4.605
22237W        W81333  30.948  38.010  13.534
22238W        W81334  30.020  31.119   1.790
22239W        W81335   0.760  25.648   1.406
22240W        W81336  35.910  30.163   1.303
22241W        W81337  17.186  36.087   1.408
22242W        W81338  27.987  26.096   2.373
22243W        W81339  43.439  11.799  12.035
22244W        W81340  27.498  10.173   2.722
22245W        W81341  12.340  42.816  12.074
22246W        W81342  21.706  22.040  10.114
22247W        W81343  35.947  29.428  12.560
22248W        W81344  14.678  19.095  11.376
22249W        W81345  13.323  43.986  10.455
22250W        W81346  40.385  28.508   3.267
22251W        W81347   1.918  10.369  10.620
22252W        W81348  39.441   4.375  11.571
22253W        W81349   1.929   7.749  14.489
22254W        W81350   1.465  11.834   3.766
22255W        W81351  36.936  25.549  12.510
22256W        W81352   1.780  15.167   1.746
22257W        W81353  34.028  20.749   3.695
22258W        W81354   0.368  14.602   2.789
22259W        W81355  13.174  41.001   2.285
22260W        W81356  44.919  44.482  12.462
22261W        W81357  21.616  16.151   1.371
22262W        W81358  24.016   4.273   2.691
22263W        W81359   3.438  36.972  12.341
22264W        W81360   3.955  38.939   2.375
22265W        W81361  15.294  15.268  11.998
22266W        W81362  13.311  41.529   2.301
22267W        W81363  18.685  22.641   0.361
22268W        W81364  13.652   6.792   3.816
22269W        W81365   8.751  31.043  11.060
22270W        W81366  36.012  35.013  12.880
22271W        W81367   2.382  28.018  12.415
22272W        W81368   9.714   8.225  14.904
22273W        W81369  15.108  23.613   0.838
22274W        W81370   1.282  29.064  10.991
22275W        W81371  42.291   4.420   2.196
22276W        W81372   9.723  27.600  12.081
22277W        W81373  25.075  43.500   4.602
22278W        W81374   8.222  20.142   3.746
22279W        W81375  24.589   6.830  10.474
22280W        W81376  27.497  40.543  11.598
22281W        W81377  28.027  32.973  12.480
22282W        W81378  37.839  10.710  11.581
22283W        W81379   3.793  17.083   3.160
22284W        W81380   9.294  41.813   0.404
22285W        W81381   2.312  13.822  11.505
22286W        W81382   3.323  33.072   2.871
22287W        W81383   6.301  10.179   3.250
22288W        W81384  14.337  44.350   0.905
22289W        W81385  20.616  42.362  12.048
22290W        W81386  31.555  34.009  12.368
22291W        W81387   7.711  18.113  11.094
22292W        W81388  31.405  31.613  11.984
22293W        W81389  13.730   4.895  12.924
22294W        W81390  12.842  22.641   0.432
22295W        W81391  43.353   1.392   4.818
22296W        W81392  35.461  21.022  11.053
22297W        W81393  30.502  28.485  12.961
22298W        W81394  30.622   6.891   0.317
22299W        W81395  15.173  16.751  13.309
22300W        W81396  35.465  11.353   5.208
22301W        W81397  27.520  23.618   0.887
22302W        W81398  24.604   3.242   0.365
22303W        W81399  15.090  37.498   9.445
22304W        W81400  34.111  13.339   3.277
22305W        W81401   8.302   5.326   0.295
22306W        W81402  37.933  16.094   3.163
22307W        W81403  13.347  15.137  14.779
22308W        W81404  30.124   1.399  10.586
22309W        W81405  22.160  42.822   2.872
22310W        W81406  32.907  12.611  13.507
22311W        W81407  31.576  25.633  14.408
22312W        W81408  15.666   5.707   4.257
22313W        W81409   9.646  22.030  13.524
22314W        W81410  15.640  23.575   4.317
22315W        W81411  38.415  24.136  11.007
22316W        W81412   6.380   6.759  14.001
22317W        W81413  42.496  40.470  13.035
22318W        W81414  30.032  32.627   2.229
22319W        W81415  26.479  25.045  13.962
22320W        W81416  36.510  38.942   3.166
22321W        W81417  23.725  24.130   0.791
22322W        W81418  39.401  34.910  14.491
22323W        W81419  10.273   1.286  14.846
22324W        W81420  43.498   9.254   3.295
22325W        W81421  12.185   2.759   3.791
22326W        W81422  29.948  38.549   0.279
22327W        W81423  38.895  30.018   2.754
22328W        W81424  24.110  27.135   4.817
22329W        W81425   6.203  27.082   1.442
22330W        W81426   5.224  26.105   1.925
22331W        W81427  41.293  44.916   0.734
22332W        W81428  19.129  20.728   4.118
22333W        W81429   3.854   7.906   3.323
22334W        W81430  41.393   4.761  11.467
22335W        W81431  20.207  17.575  11.586
22336W        W81432  40.349  38.435   1.923
22337W        W81433   4.400  10.710   2.763
22338W        W81434  37.519  24.211   2.712
22339W        W81435  25.500  16.290  13.988
22340W        W81436  12.634  37.360   1.904
22341W        W81437  44.894  42.908   1.400
22342W        W81438  20.194  19.286   3.671
22343W        W81439   7.311  31.464  12.419
22344W        W81440  31.494  20.203   4.308
22345W        W81441  40.504   2.254  12.881
22346W        W81442  16.628  39.950   3.195
22347W        W81443   0.914  20.074   0.434
22348W        W81444  33.401  29.670  11.460
22349W        W81445  20.195  19.602   3.349
22350W        W81446  13.709  26.576  13.848
22351W        W81447   0.360  29.512  12.921
22352W        W81448  22.621  38.906   4.246
22353W        W81449  25.211  23.604   0.851
22354W        W81450   3.730  14.138   3.711
22355W        W81451  12.188  42.404  10.577
22356W        W81452  25.081  12.303  13.007
22357W        W81453  35.367  24.502   2.762
22358W        W81454   8.320  39.551  10.550
22359W        W81455  35.043   7.232  13.859
22360W        W81456  17.657  30.473  11.940
22361W        W81457  43.295  10.353  10.989
22362W        W81458  16.078  15.724  11.921
22363W        W81459  10.876  22.161  10.479
22364W        W81460  18.085  26.104  14.393
22365W        W81461  29.002  22.577   2.266
22366W        W81462  15.759   7.878   2.255
22367W        W81463   2.964  24.080   2.236
22368W        W81464  33.924   0.373  14.905
22369W        W81465  29.938  33.398   4.780
22370W        W81466   4.314   5.847   2.268
22371W        W81467  30.650   3.347   1.245
22372W        W81468  10.360   7.302   2.356
22373W        W81469   8.382  12.790  14.399
22374W        W81470  38.852  40.440   1.222
22375W        W81471   9.194  15.213  11.508
22376W        W81472  22.600  27.180   3.326
22377W        W81473  21.215   7.794  12.477
22378W        W81474   3.284  24.187   3.841
22379W        W81475  18.107   9.870  13.817
22380W        W81476   8.339  20.228   0.474
22381W        W81477  10.689  10.661  11.070
22382W        W81478  38.504  17.282   4.676
22383W        W81479  27.047  18.550   3.369
22384W        W81480  10.322  12.303  12.566
22385W        W81481   1.370  44.458  12.037
22386W        W81482   0.911  32.998  11.876
22387W        W81483  18.655  10.253   4.658
22388W        W81484   0.798  22.521  13.460
22389W        W81485  23.609  24.041   2.196
22390W        W81486  20.606  25.621  14.782
22391W        W81487  42.333  40.928  14.804
22392W        W81488  22.145  39.384   0.767
22393W        W81489  17.792  19.083   4.792
22394W        W81490  43.903  20.745   1.726
22395W        W81491  35.533  35.509  13.796
22396W        W81492  40.900  34.414  13.810
22397W        W81493   0.309  14.701   0.960
22398W        W81494  11.323  18.589  12.339
22399W        W81495  20.274  26.472  14.994
22400W        W81496  32.614  27.571  11.965
22401W        W81497  22.045  43.870   4.703
22402W        W81498  36.556  18.582   3.774
22403W        W81499  42.801  38.493   0.930
22404W        W81500   0.776  37.902  10.959
22405W        W81501  31.557   5.814  14.768
22406W        W81502  27.607  40.325  12.887
22407W        W81503  35.452  39.872  10.413
22408W        W81504  19.535  10.790  12.523
22409W        W81505  25.034  43.912  11.529
22410W        W81506  36.564  21.664  14.024
22411W        W81507   9.705   4.327   3.278
22412W        W81508   2.318   3.371  11.963
22413W        W81509  35.588  32.527  14.907
22414W        W81510  13.747  11.804   3.701
22415W        W81511  32.553  21.249   2.262
22416W        W81512  14.791  20.045  14.392
22417W        W81513   9.780  37.423   0.342
22418W        W81514   6.833  42.334   3.826
22419W        W81515  44.470   3.292   3.172
22420W        W81516  18.701  12.180   9.974
22421W        W81517  23.206  43.774  11.021
22422W        W81518  11.127  28.445  13.062
22423W        W81519   7.286  35.909   0.401
22424W        W81520  27.953  16.295   2.787
22425W        W81521  15.101  30.911  13.435
22426W        W81522  34.573  31.078   4.779
22427W        W81523   5.411  21.161   4.712
22428W        W81524  41.431  29.014   3.303
22429W        W81525   9.851  39.317  13.411
22430W        W81526   8.164  16.122  11.883
22431W        W81527  37.025   2.773  11.993
22432W        W81528  22.605  15.193  14.956
22433W        W81529   1.890   8.742   2.203
22434W        W81530  25.018  15.083  13.008
22435W        W81531   1.783   4.828   3.235
22436W        W81532  13.193  17.639   3.261
22437W        W81533   6.813  19.625  13.463
22438W        W81534  41.823  33.598   1.300
22439W        W81535   9.643  12.163   4.327
22440W        W81536   7.367   7.398  13.325
22441W        W81537  15.581  37.532  11.445
22442W        W81538  33.925  43.475  12.029
22443W        W81539  39.876  13.233  11.896
22444W        W81540  32.943  18.111   4.272
22445W        W81541  44.435  25.147   1.929
22446W        W81542   4.234  28.496  13.491
22447W        W81543   2.931  10.347  13.465
22448W        W81544  30.160  11.212  14.945
22449W        W81545  27.973  37.932  14.276
22450W        W81546  41.433  20.133  11.125
22451W        W81547  23.577  14.197  10.962
22452W        W81548  34.966  12.824   2.192
22453W        W81549  42.003  11.167  13.850
22454W        W81550  44.776  19.672   3.867
22455W        W81551  22.744  30.106  11.026
22456W        W81552  12.141  21.153   3.298
22457W        W81553  13.703  10.284  12.405
22458W        W81554  26.048  36.406   3.231
22459W        W81555  15.230  27.643  13.867
22460W        W81556  15.153  19.734  11.491
22461W        W81557  19.085  29.608  14.984
22462W        W81558  41.813  23.651   1.865
22463W        W81559  26.957  29.604  12.399
22464W        W81560  31.076  40.524   5.305
22465W        W81561  27.578  31.066  10.924
22466W        W81562  33.558   9.162   3.178
22467W        W81563   2.393  19.611   3.724
22468W        W81564  37.488   8.337  12.003
22469W        W81565   2.933   4.844  14.439
22470W        W81566   4.233  22.557  12.050
22471W        W81567  27.445   0.826   1.907
22472W        W81568  27.629  38.403  11.004
22473W        W81569  32.077   5.198   3.358
22474W        W81570  20.738  27.164  12.369
22475W        W81571  32.078   1.732  12.860
22476W        W81572   0.323  32.615   1.376
22477W        W81573   8.807  37.456  11.428
22478W        W81574   3.818  18.668  12.522
22479W        W81575  33.938  32.125   4.230
22480W        W81576   8.385  43.514  11.506
22481W        W81577   0.358   2.377   1.871
22482W        W81578  34.104  16.315  10.523
22483W        W81579  35.856  11.848   3.386
22484W        W81580  37.506  14.732  13.449
22485W        W81581  42.332  15.249   0.448
22486W        W81582  18.638  29.529   1.254
22487W        W81583   5.363  40.010   4.269
22488W        W81584  10.192   2.946  10.983
22489W        W81585  43.836  38.350   2.828
22490W        W81586   6.875  44.995   2.328
22491W        W81587  18.568  43.819   0.382
22492W        W81588  15.311  40.425  12.833
22493W        W81589  32.629   5.243  11.868
22494W        W81590  35.395  22.680  11.087
22495W        W81591  26.042  38.054   2.336
22496W        W81592  28.594  25.074  14.423
22497W        W81593  19.758  18.560   1.321
22498W        W81594  39.412  31.582  11.970
22499W        W81595  24.700  21.042   1.820
22500W        W81596  33.920  11.197   2.890
22501W        W81597  12.213  12.160  14.935
22502W        W81598  17.766  37.496   2.200
22503W        W81599  27.106  29.613   1.745
22504W        W81600  36.887  34.586   3.338
22505W        W81601  13.145  18.073   2.341
22506W        W81602   5.231  40.974  12.085
22507W        W81603  34.914   8.887  11.946
22508W        W81604   4.348  19.096  13.486
22509W        W81605   1.465  17.283  11.579
22510W        W81606  38.921   2.887   2.365
22511W        W81607  37.955   6.286   0.345
22512W        W81608  16.219  34.039  13.406
22513W        W81609  26.116  29.104   0.273
22514W        W81610  10.857  12.833  10.506
22515W        W81611  15.114   8.663   0.473
22516W        W81612  13.696  11.697   2.898
22517W        W81613  41.302  15.674  11.398
22518W        W81614  34.061  11.695   0.359
22519W        W81615  22.684  19.259   3.269
22520W        W81616  33.980  33.127  14.941
22521W        W81617  22.648   4.861  10.548
22522W        W81618  25.166  44.967  10.623
22523W        W81619  39.036  27.165   1.822
22524W        W81620   0.324  26.562   3.789
22525W        W81621  20.610  33.093   3.186
22526W        W81622  22.246   9.685  14.970
22527W        W81623  13.770   2.754   3.365
22528W        W81624  35.436  32.977  10.895
22529W        W81625  42.418   3.849  14.781
22530W        W81626  22.719  24.629  12.467
22531W        W81627  40.538  12.771   0.452
22532W        W81628  20.610  10.162   3.234
22533W        W81629  36.526  25.609   5.300
22534W        W81630  23.223  34.919  12.488
22535W        W81631  15.114  12.358  10.468
22536W        W81632  17.797  28.086   4.347
22537W        W81633  17.218  42.856   1.361
22538W        W81634  44.760  19.663   2.768
22539W        W81635  26.543   0.988   3.315
22540W        W81636  27.609   1.454   2.395
22541W        W81637  33.903  27.639   3.264
22542W        W81638  22.189  11.844   3.181
22543W        W81639  28.523  26.477  10.925
22544W        W81640   8.847  16.599  10.538
22545W        W81641  20.052   6.745  10.986
22546W        W81642  39.420  21.247   5.218
22547W        W81643   8.184  37.973   3.363
22548W        W81644   6.312  32.584   4.690
22549W        W81645  25.011  17.263  14.843
22550W        W81646   9.679  40.862   4.301
22551W        W81647   1.375  13.809  12.513
22552W        W81648  25.125  37.890  11.020
22553W        W81649  36.432  25.980   1.246
22554W        W81650  21.067  19.193   5.272
22555W        W81651   0.456   2.789   4.734
22556W        W81652   9.356  25.119   2.379
22557W        W81653  13.647  22.039  10.578
22558W        W81654   0.318   9.686   4.621
22559W        W81655  20.164  17.099  10.015
22560W        W81656   7.791  22.710  12.555
22561W        W81657  34.602   2.959   3.359
22562W        W81658  29.988  35.890  12.579
22563W        W81659  43.804  40.873   1.723
22564W        W81660  34.396   8.306  13.497
22565W        W81661  30.049  11.725   4.229
22566W        W81662  32.489  39.056   9.962
22567W        W81663  44.940  20.609  10.554
22568W        W81664  28.035   8.740   4.346
22569W        W81665   7.201  16.288  12.364
22570W        W81666  36.411  12.128  11.118
22571W        W81667  26.094   0.458   2.717
22572W        W81668  12.680   4.718   3.159
22573W        W81669   5.922  38.439  12.340
22574W        W81670  13.677  27.137   1.756
22575W        W81671  36.498  29.038   3.328
22576W        W81672  21.084  18.701   3.690
22577W        W81673   8.839   0.879  13.525
22578W        W81674  12.796  43.998  14.920
22579W        W81675  17.645  24.543   4.670
22580W        W81676  30.563  44.951  13.484
22581W        W81677  39.030   4.424   3.350
22582W        W81678  39.064  29.117  14.466
22583W        W81679  21.250   7.882  14.995
22584W        W81680  33.555  39.362   0.767
22585W        W81681   9.334  42.509  12.576
22586W        W81682  44.358  17.292  13.466
22587W        W81683  40.534  37.527   5.303
22588W        W81684   9.364  30.497   0.274
22589W        W81685  27.464  12.813  14.880
22590W        W81686  34.553   4.431   0.962
22591W        W81687  30.972   3.432  10.074
22592W        W81688  40.335  38.995   1.825
22593W        W81689  31.904  20.522  10.983
22594W        W81690   7.813  27.186  14.786
22595W        W81691  21.233  27.089  12.053
22596W        W81692  41.378   0.380  13.417
22597W        W81693   0.770  43.478  10.526
22598W        W81694  13.209  17.306   3.386
22599W        W81695  44.504  34.509   5.185
22600W        W81696  20.212  25.621   2.309
22601W        W81697  32.091  34.385  14.999
22602W        W81698  15.782  32.021   1.882
22603W        W81699  31.613  40.549  13.904
22604W        W81700  22.625  28.079  14.763
22605W        W81701   6.682  28.149  13.451
22606W        W81702  39.850  33.406   4.188
22607W        W81703  30.436  44.953  12.420
22608W        W81704  10.156  19.609   2.345
22609W        W81705  40.303  30.020   2.758
22610W        W81706  38.859   3.347   3.363
22611W        W81707  18.194  25.062  11.487
22612W        W81708  27.039  17.688   1.260
22613W        W81709  23.658  41.840  12.993
22614W        W81710   1.409  31.610  14.417
22615W        W81711  42.393  22.567   1.932
22616W        W81712  27.463   2.911   0.753
22617W        W81713   0.938  38.485  13.058
22618W        W81714  33.065   1.967   0.728
22619W        W81715  42.937  13.685  14.024
22620W        W81716  36.984  17.796  10.976
22621W        W81717  21.214  38.898  10.151
22622W        W81718   0.301  41.867   3.777
22623W        W81719  18.187   4.828   3.351
22624W        W81720  16.287  22.601  12.840
22625W        W81721   4.212  19.722   2.338
22626W        W81722   4.255  27.947   1.266
22627W        W81723  27.986  19.620   3.750
22628W        W81724  37.850  18.548  11.422
22629W        W81725  33.958  14.146   5.295
22630W        W81726  31.109  10.325   1.397
22631W        W81727  15.674   5.425   3.793
22632W        W81728  32.614  21.645   1.334
22633W        W81729  33.384  44.863  10.115
22634W        W81730   9.266  12.644   2.332
22635W        W81731   7.225  11.329  11.001
22636W        W81732  17.581  24.591   2.211
22637W        W81733  32.066   6.696   4.327
22638W        W81734   4.294   9.779  14.861
22639W        W81735   1.978  17.083   0.261
22640W        W81736  10.261  22.597   0.316
22641W        W81737  29.089   0.980  12.508
22642W        W81738   3.219  42.797   2.395
22643W        W81739  17.188  30.439  12.415
22644W        W81740  41.422  41.824  11.448
22645W        W81741  19.126   9.843  11.513
22646W        W81742   2.453  19.229  10.439
22647W        W81743  14.108  38.873   3.740
22648W        W81744  10.796   4.869   3.204
22649W        W81745  29.467   8.761  13.499
22650W        W81746   4.376  18.122  10.556
22651W        W81747  28.947  19.566   2.719
22652W        W81748  34.602   8.698   2.259
22653W        W81749  32.127  30.922  11.386
22654W        W81750  15.751  38.872   0.418
22655W        W81751  35.011   4.332  10.456
22656W        W81752   3.814   6.754  14.904
22657W        W81753  25.487  12.786  13.858
22658W        W81754  38.914  38.031  10.481
22659W        W81755  31.950  32.569   2.707
22660W        W81756   5.342  19.610  13.429
22661W        W81757  21.604   9.865  13.327
22662W        W81758  43.412  43.874   3.230
22663W        W81759   8.883   9.242   0.409
22664W        W81760   3.276  44.309  14.779
22665W        W81761  14.268   0.824   5.227
22666W        W81762  20.768  35.591   4.196
22667W        W81763   0.979  21.077   5.167
22668W        W81764  26.656   7.289   3.738
22669W        W81765  25.044  24.225  11.062
22670W        W81766   3.834  31.143   0.425
22671W        W81767  21.738  41.925   2.662
22672W        W81768  11.184  12.693   4.779
22673W        W81769  35.995  36.409   0.250
22674W        W81770  44.847   0.908   3.303
22675W        W81771  24.073  30.633   0.728
22676W        W81772  27.968  42.024  12.455
22677W        W81773   8.814  25.518  10.445
22678W        W81774  32.484  33.487  11.916
22679W        W81775   6.766  12.219   3.261
22680W        W81776  42.898  14.627   3.810
22681W        W81777  32.486   4.820  12.544
22682W        W81778  29.058   2.260  10.561
22683W        W81779  15.787  12.635  12.059
22684W        W81780  40.438  43.326   1.698
22685W        W81781  10.796  29.449  12.000
22686W        W81782  13.627  13.176  12.022
22687W        W81783   1.966  23.641   2.247
22688W        W81784  33.892   6.785  14.779
22689W        W81785   9.179  24.640   4.782
22690W        W81786  21.097  42.321   3.189
22691W        W81787  12.706  42.330   1.878
22692W        W81788  43.921  37.356  14.967
22693W        W81789  15.199  27.061  12.831
22694W        W81790   2.956  36.570  10.609
22695W        W81791  13.631  41.498  14.866
22696W        W81792  16.220   4.791   2.702
22697W        W81793  25.631  34.099   3.634
22698W        W81794  30.122  30.978  13.544
22699W        W81795  18.605  26.512   1.900
22700W        W81796   9.730  17.268   0.944
22701W        W81797   5.710  26.020  12.857
22702W        W81798  44.493  23.517   2.317
22703W        W81799  10.188  42.909  10.902
22704W        W81800  37.579  35.095  12.916
22705W        W81801  10.829  20.188   2.329
22706W        W81802   0.980  28.002   2.319
22707W        W81803   8.784  31.403  12.086
22708W        W81804  19.705  24.697  10.558
22709W        W81805   5.203  31.497   3.650
22710W        W81806  11.354  34.455  12.006
22711W        W81807   2.889  40.492  12.990
22712W        W81808   3.874  39.344   0.784
22713W        W81809  18.191   1.966   4.137
22714W        W81810  18.596   2.326   0.911
22715W        W81811  43.399  25.573  10.534
22716W        W81812  18.217   2.457  11.025
22717W        W81813   8.212  25.618   2.712
22718W        W81814  15.771  35.383   4.599
22719W        W81815  12.844  10.193  13.496
22720W        W81816  28.487  43.826  14.472
22721W        W81817   0.800  18.652   5.323
22722W        W81818  32.102  29.962  13.377
22723W        W81819  11.190  14.252  11.460
22724W        W81820   2.419  26.673  11.052
22725W        W81821  21.104  15.674   0.800
22726W        W81822  23.036  31.462  11.430
22727W        W81823  36.414  41.471  11.492
22728W        W81824  13.623  14.179  11.448
22729W        W81825  33.617  44.342   5.289
22730W        W81826  35.908  17.612  10.640
22731W        W81827  43.989  18.709   0.842
22732W        W81828   5.341  36.559  13.496
22733W        W81829  22.734  44.963  11.975
22734W        W81830  28.525  14.781  14.274
22735W        W81831  44.857   3.921  14.998
22736W        W81832  34.878  15.622   2.412
22737W        W81833  24.027  31.953   4.252
22738W        W81834  30.935  16.800   3.259
22739W        W81835  14.194  30.160  12.893
22740W        W81836  44.871  29.641   1.724
22741W        W81837  20.075  29.079   4.810
22742W        W81838  13.347   1.912   4.304
22743W        W81839  37.991  42.399  12.888
22744W        W81840  17.175   2.833  14.784
22745W        W81841   9.739  44.397   1.385
22746W        W81842  14.319  38.074  13.001
22747W        W81843   2.443  14.794   3.312
22748W        W81844  39.380  10.851  11.931
22749W        W81845  19.672  18.646  10.566
22750W        W81846  25.544  35.020  13.931
22751W        W81847   1.970  30.147   3.308
22752W        W81848   1.950  39.016   1.721
22753W        W81849  19.114  16.584  12.417
22754W        W81850  43.462  32.997  11.560
22755W        W81851  27.553  14.314  14.861
22756W        W81852  14.643  17.299   3.739
22757W        W81853  43.913   6.890  11.064
22758W        W81854  44.973  29.429  13.030
22759W        W81855  33.095   2.789  13.536
22760W        W81856  19.071  33.440  13.518
22761W        W81857  21.187  25.115   9.953
22762W        W81858  14.177  40.845   4.709
22763W        W81859  43.957  42.963  14.911
22764W        W81860  23.703  27.456  12.384
22765W        W81861  31.113   2.357  14.913
22766W        W81862  38.446  11.302   1.323
22767W        W81863   1.268  20.179   2.418
22768W        W81864  37.400  21.039  11.887
22769W        W81865  28.592  30.533   2.891
22770W        W81866   1.419  15.808   3.722
22771W        W81867   1.250  23.993  10.446
22772W        W81868   1.413  30.510  12.456
22773W        W81869  16.696   9.765  14.395
22774W        W81870   3.286  44.890   0.813
22775W        W81871  21.154  22.561   5.318
22776W        W81872   3.823  38.441  14.399
22777W        W81873  22.691  36.031   4.828
22778W        W81874   8.376  19.635   5.136
22779W        W81875  22.728  39.327  13.457
22780W        W81876   9.680   4.909  13.036
22781W        W81877  28.010   4.313  10.939
22782W        W81878   8.172  10.310   3.793
22783W        W81879  34.508   7.831  12.941
22784W        W81880  23.638   4.365   2.351
22785W        W81881  25.984  44.398  13.472
22786W        W81882  19.670  33.076  13.393
22787W        W81883  24.520  34.016  12.348
22788W        W81884  23.704   8.695   0.313
22789W        W81885  33.422  42.793  12.546
22790W        W81886   0.868  33.436   2.268
22791W        W81887  35.930  21.244   0.401
22792W        W81888  35.893  28.630   3.859
22793W        W81889  20.205  14.702   3.326
22794W        W81890  42.904   2.261  13.514
22795W        W81891  20.554  22.999  12.998
22796W        W81892  37.528  10.194   4.185
22797W        W81893  18.701  14.273   4.338
22798W        W81894  15.667  18.701   1.754
22799W        W81895  16.802   3.401  14.925
22800W        W81896  41.928   3.732   1.271
22801W        W81897  20.667  37.370   2.333
22802W        W81898   6.856  32.102  14.809
22803W        W81899  16.607  18.653   3.214
22804W        W81900   4.801  39.494  10.579
22805W        W81901  14.102   1.792   4.806
22806W        W81902  33.383  40.360  11.386
22807W        W81903  43.346  41.489  14.398
22808W        W81904  26.991   4.284   3.383
22809W        W81905  44.874  30.944   2.709
22810W        W81906  17.634  29.161  10.957
22811W        W81907  14.632  19.755   1.773
22812W        W81908  22.224  32.494  14.830
22813W        W81909  42.376  31.536  11.532
22814W        W81910  15.104  28.437   4.161
22815W        W81911  22.709   6.379   3.691
22816W        W81912  43.862  37.080  10.931
22817W        W81913  26.951  19.248  13.923
22818W        W81914  28.438  35.035   0.868
22819W        W81915   1.762  16.280  13.838
22820W        W81916  10.832  32.550  11.496
22821W        W81917   8.166  31.921   2.776
22822W        W81918   6.720  36.975  10.519
22823W        W81919   2.797  38.012   1.365
22824W        W81920  16.115  25.999   0.948
22825W        W81921   0.789  38.055   3.725
22826W        W81922  26.593  13.197  13.930
22827W        W81923  23.704   8.873   2.743
22828W        W81924   3.763  42.518   0.325
22829W        W81925  14.273  34.112   3.851
22830W        W81926  41.874  12.730  13.379
22831W        W81927   6.229   1.256   1.229
22832W        W81928  43.776   5.373   4.764
22833W        W81929  26.490  22.655  12.087
22834W        W81930   0.267  17.134  10.977
22835W        W81931   6.324  18.642   4.267
22836W        W81932  17.686   9.674  14.497
22837W        W81933  32.103   1.787   4.212
22838W        W81934  12.207  38.490   3.649
22839W        W81935  32.135  44.942  10.576
22840W        W81936  18.554   9.281   2.252
22841W        W81937   8.894  32.998   1.433
22842W        W81938  39.926  30.589   1.295
22843W        W81939  44.429   8.310   3.166
22844W        W81940  18.220  14.260  13.868
22845W        W81941  36.020  39.922   0.412
22846W        W81942  41.803  42.348   0.392
22847W        W81943  36.911  18.053   3.214
22848W        W81944  31.610  37.068  13.800
22849W        W81945  32.084  35.892  12.028
22850W        W81946  32.477   4.328  12.948
22851W        W81947   7.195  40.399  14.471
22852W        W81948  42.842  34.450  12.840
22853W        W81949  29.122  36.401   0.812
22854W        W81950  12.849  11.643   0.854
22855W        W81951  44.802  39.875   0.913
22856W        W81952   7.815  14.190  11.990
22857W        W81953  10.681  11.312   2.815
22858W        W81954  36.000  27.966   0.323
22859W        W81955  39.989  25.573  13.493
22860W        W81956  18.056  14.104  12.863
22861W        W81957  11.739  32.132   4.347
22862W        W81958   4.909   8.815   5.120
22863W        W81959  11.691  43.344  11.856
22864W        W81960   6.882  29.958  10.630
22865W        W81961  32.490  33.881   4.662
22866W        W81962  39.965  28.535   4.313
22867W        W81963   9.812  24.208   4.225
22868W        W81964  31.557  12.268  11.993
22869W        W81965  31.640  42.823   2.324
22870W        W81966  38.869  16.808  12.491
22871W        W81967  43.878   6.396  12.437
22872W        W81968   0.285  35.360   1.932
22873W        W81969   6.263  21.163  10.423
22874W        W81970  19.158  22.545   2.853
22875W        W81971  21.667   5.879   3.297
22876W        W81972  17.116  44.919  10.645
22877W        W81973  32.620  27.021  14.904
22878W        W81974  35.549   1.447   0.776
22879W        W81975  34.564  27.489  11.047
22880W        W81976  35.559   2.332   0.917
22881W        W81977  14.171  19.696  11.418
22882W        W81978  31.515  17.164  10.521
22883W        W81979  32.514  20.618  13.346
22884W        W81980  41.865   8.202  10.998
22885W        W81981  43.373  10.832   2.831
22886W        W81982  23.210  11.852  14.957
22887W        W81983  31.504  39.474   3.359
22888W        W81984   9.763  21.108  13.811
22889W        W81985  18.146  11.788   4.612
22890W        W81986  24.566  24.034  14.028
22891W        W81987  22.648  27.615   3.680
22892W        W81988  25.185  25.604   1.445
22893W        W81989   2.866   7.903  13.511
22894W        W81990  14.179  44.980   3.704
22895W        W81991  30.128   2.761  13.457
22896W        W81992  10.729  37.416   0.337
22897W        W81993  43.298  22.691   0.352
22898W        W81994  18.625   9.392   3.837
22899W        W81995  30.916  20.652   2.288
22900W        W81996  23.052  14.280  11.571
22901W        W81997   5.375   4.385   1.314
22902W        W81998  44.789  38.968   2.866
22903W        W81999  11.737   1.406   0.257
22904W        W82000  23.061  13.810   3.337
22905W        W82001  16.212  11.749   1.299
22906W        W82002   0.405  14.195  13.492
22907W        W82003  36.478  34.963  14.967
22908W        W82004  40.844  26.123  11.391
22909W        W82005  16.108  16.700  13.807
22910W        W82006  25.119  38.894  10.469
22911W        W82007  16.183  28.178   4.281
22912W        W82008  27.512  13.270   0.428
22913W        W82009   4.449   8.333  12.369
22914W        W82010  21.126  35.860  14.821
22915W        W82011  42.313  11.143  10.595
22916W        W82012  22.666  22.697  10.459
22917W        W82013  32.123  37.458   1.719
22918W        W82014  17.208  12.801   0.342
22919W        W82015  22.586  39.047  14.025
22920W        W82016  26.108  44.898   2.672
22921W        W82017  16.269  40.812   3.755
22922W        W82018  22.997   5.793   3.848
22923W        W82019   6.235  21.117   1.216
22924W        W82020  11.827  27.636  11.443
22925W        W82021  34.098  11.210   2.408
22926W        W82022  29.629  36.022   1.797
22927W        W82023  30.084  10.209   2.847
22928W        W82024  19.657  12.727  11.378
22929W        W82025   7.293  13.824  12.426
22930W        W82026   9.347  32.016   1.915
22931W        W82027  20.229  12.157   2.404
22932W        W82028   1.787  16.143  14.940
22933W        W82029  30.615   8.725  14.885
22934W        W82030  29.132   7.345   4.614
22935W        W82031  14.796  44.935  12.059
22936W        W82032  33.415  23.735   1.812
22937W        W82033  18.628  17.751  13.322
22938W        W82034  16.639   3.387  12.449
22939W        W82035  19.591  16.077   2.852
22940W        W82036  24.228  28.050   3.268
22941W        W82037   9.862  39.525  11.890
22942W        W82038  13.202  38.822   0.441
22943W        W82039  41.414   3.352  11.499
22944W        W82040  41.464  41.370  14.425
22945W        W82041  26.065   5.247  14.833
22946W        W82042  24.691  15.659   4.249
22947W        W82043   2.904  34.992  12.001
22948W        W82044  30.527  26.132   3.259
22949W        W82045  22.738  29.585  14.478
22950W        W82046   9.282  36.931   1.757
22951W        W82047  39.367  38.890  14.483
22952W        W82048  41.980  18.556   2.360
22953W        W82049   8.359  12.821   4.801
22954W        W82050   2.434  29.538   0.267
22955W        W82051  40.318  23.068  11.472
22956W        W82052  41.905  30.412  13.852
22957W        W82053  15.243   0.981  13.867
22958W        W82054  26.476  21.096   4.286
22959W        W82055  18.117  11.248   0.322
22960W        W82056   0.429  12.125   2.203
22961W        W82057  19.726   3.923  14.763
22962W        W82058   4.872  26.154   3.162
22963W        W82059  28.519  33.944  11.542
22964W        W82060  44.342   3.318  10.628
22965W        W82061  24.018  36.513   4.787
22966W        W82062  37.990  44.294   4.815
22967W        W82063   8.205  32.928   3.800
22968W        W82064  34.399  18.761   4.769
22969W        W82065  35.944  21.583   2.318
22970W        W82066  15.615  22.134   2.674
22971W        W82067  36.852  10.348  12.056
22972W        W82068  32.999  11.156  11.372
22973W        W82069  22.102   0.367   2.337
22974W        W82070  19.625  44.964  13.927
22975W        W82071  11.194  11.142  11.075
22976W        W82072  44.289  13.186   3.636
22977W        W82073  24.533  21.033  12.825
22978W        W82074  20.067  33.555  13.818
22979W        W82075  39.397  23.192   1.215
22980W        W82076  36.985  26.680  14.980
22981W        W82077  14.595   6.245   2.751
22982W        W82078  27.660   6.898  12.573
22983W        W82079  37.076  15.298   2.371
22984W        W82080   8.712  12.293   0.929
22985W        W82081  20.223   1.284   1.771
22986W        W82082   1.479  18.566  14.811
22987W        W82083  41.875  31.412   0.874
22988W        W82084  18.680  17.101   9.955
22989W        W82085  27.536   2.959   2.179
22990W        W82086  12.689  37.073   4.175
22991W        W82087  29.592   7.382  14.374
22992W        W82088  44.374   2.965  14.282
22993W        W82089  16.677  15.146  13.493
22994W        W82090  35.534  33.921   3.716
22995W        W82091  37.381  30.531   2.810
22996W        W82092   3.425  19.091   4.833
22997W        W82093  38.993  36.380   1.805
22998W        W82094  38.844  23.118   0.336
22999W        W82095  33.040  21.200  11.870
23000W        W82096   6.303  43.888   2.694
23001W        W82097  34.608  26.966  12.365
23002W        W82098  23.545  44.890   2.744
23003W        W82099  44.309  14.721  11.937
23004W        W82100   5.245  29.989  14.415
23005W        W82101  22.653  17.745   4.623
23006W        W82102  33.456  12.310  14.955
23007W        W82103  23.498  24.514  14.841
23008W        W82104  12.723  37.562   3.870
23009W        W82105  24.655  12.799   3.859
23010W        W82106   9.393  25.021  12.051
23011W        W82107   1.977  30.457  12.488
23012W        W82108  23.994  29.966  13.402
23013W        W82109  10.318  33.496  11.923
23014W        W82110  36.354   3.426   4.233
23015W        W82111  30.590  21.082   4.138
23016W        W82112  44.407  21.534   3.700
23017W        W82113   3.401  32.616  12.927
23018W        W82114  29.924  38.372   3.187
23019W        W82115  41.881  38.929  10.598
23020W        W82116  32.434  35.962  11.058
23021W        W82117  16.300   5.886  13.870
23022W        W82118  30.654  27.030   0.778
23023W        W82119  35.538  36.995   1.882
23024W        W82120  16.784  16.777   3.641
23025W        W82121  11.163  11.200   4.812
23026W        W82122  12.779  33.589  12.989
23027W        W82123  25.107  36.870  13.863
23028W        W82124   2.887  14.809  11.454
23029W        W82125  18.597  20.537  14.306
23030W        W82126   0.475  17.204   4.668
23031W        W82127  29.623   4.844   1.222
23032W        W82128  20.764  26.193   0.443
23033W        W82129  20.062   9.247   4.182
23034W        W82130  40.944  17.580   4.328
23035W        W82131  31.555  38.043  13.831
23036W        W82132  34.089  29.101   3.843
23037W        W82133  25.981  34.392  14.014
23038W        W82134  44.296  42.359  11.568
23039W        W82135   7.209  35.507  11.379
23040W        W82136  35.058  25.031  14.514
23041W        W82137   8.330  17.111   1.412
23042W        W82138  15.135  44.824   2.338
23043W        W82139  17.652  23.664  13.384
23044W        W82140  43.323   2.825   4.265
23045W        W82141  33.441  38.867  12.907
23046W        W82142  24.177   7.686   1.921
23047W        W82143  29.159  25.084  12.916
23048W        W82144  10.786  19.190  14.013
23049W        W82145  10.346  21.656  10.422
23050W        W82146  38.034  17.573   4.300
23051W        W82147  11.289   4.773   2.335
23052W        W82148  25.127  30.095   4.255
23053W        W82149  40.468  31.637  10.539
23054W        W82150   0.288  36.366  10.577
23055W        W82151   0.283   8.885   2.313
23056W        W82152  12.140  29.020  12.449
23057W        W82153   2.284  32.405   3.821
23058W        W82154  10.222   2.898  14.897
23059W        W82155  44.445  30.525   4.613
23060W        W82156   6.901  41.808  12.451
23061W        W82157   9.853  14.171   1.377
23062W        W82158  36.988   8.877   4.794
23063W        W82159  12.238  26.077  12.081
23064W        W82160  17.105  34.539   2.871
23065W        W82161  10.768  14.307   1.285
23066W        W82162  13.777   2.843  12.908
23067W        W82163  39.056  35.397  11.400
23068W        W82164  19.719  38.562   4.229
23069W        W82165  28.175  19.719  13.871
23070W        W82166  26.637  28.999   1.292
23071W        W82167  27.475  22.559   4.144
23072W        W82168  26.672  26.968  10.911
23073W        W82169   4.864   9.755  11.613
23074W        W82170  14.319   8.717   4.641
23075W        W82171  30.096  15.246   1.226
23076W        W82172   3.859  11.308   2.382
23077W        W82173  26.612  26.140   4.202
23078W        W82174  27.941   1.303   4.827
23079W        W82175  32.928  29.615  13.870
23080W        W82176  13.254  40.478  13.018
23081W        W82177  15.746  34.083   3.161
23082W        W82178  43.391  28.937   3.747
23083W        W82179  31.602  10.170   0.458
23084W        W82180   9.172   4.818  11.520
23085W        W82181  26.085  23.500  11.911
23086W        W82182  37.427  42.470  12.434
23087W        W82183  18.562  37.434  11.904
23088W        W82184   0.834  18.731  14.395
23089W        W82185  38.849   0.378   4.157
23090W        W82186   6.350  22.222   1.355
23091W        W82187  18.078  43.326   2.306
23092W        W82188  39.836  31.569  14.950
23093W        W82189  18.716  32.978  12.010
23094W        W82190   2.831   1.743  14.278
23095W        W82191  19.549  22.023  10.971
23096W        W82192   4.254   9.841   1.278
23097W        W82193  38.346   8.208   4.727
23098W        W82194  20.051  30.928   1.368
23099W        W82195  40.968  23.076   2.828
23100W        W82196   2.328  44.468   0.918
23101W        W82197  17.239  43.959  11.496
23102W        W82198  32.905   8.756   2.852
23103W        W82199  16.604  29.618  10.642
23104W        W82200  14.695  16.248  12.862
23105W        W82201  16.706  10.268   3.727
23106W        W82202  25.586   8.727  12.946
23107W        W82203  13.699  38.482   0.444
23108W        W82204  28.667  20.573  13.977
23109W        W82205  40.975  34.594  14.981
23110W        W82206  19.684  39.883  13.064
23111W        W82207   2.792  19.595   4.275
23112W        W82208  21.109   4.940  13.819
23113W        W82209  38.329  16.260   1.398
23114W        W82210  40.537  42.481   4.811
23115W        W82211  41.523  32.525   1.290
23116W        W82212  30.949  44.400  11.060
23117W        W82213  23.076  17.775   2.295
23118W        W82214  38.029  24.088  13.362
23119W        W82215   6.875  39.445  13.321
23120W        W82216  18.119  11.821   0.395
23121W        W82217   1.825  40.533   3.824
23122W        W82218  29.117  28.109  13.855
23123W        W82219  25.591   6.696   4.758
23124W        W82220   3.222  18.071   0.759
23125W        W82221  25.535  27.091  14.356
23126W        W82222  28.507  16.713   2.713
23127W        W82223  13.281  42.369  13.011
23128W        W82224  17.129  40.517   1.441
23129W        W82225   3.363  33.472  11.089
23130W        W82226  13.349  17.679   0.390
23131W        W82227  33.041  35.506  12.349
23132W        W82228  24.580   8.693  11.511
23133W        W82229  41.536  28.557   4.203
23134W        W82230  26.695  34.400  11.926
23135W        W82231  27.495  17.238   1.715
23136W        W82232  16.656  44.845  10.413
23137W        W82233  13.122  39.466  13.988
23138W        W82234  37.567  32.390  11.876
23139W        W82235  19.092   6.887   1.404
23140W        W82236   2.338  44.298  10.614
23141W        W82237   8.827  28.510   0.954
23142W        W82238   9.356   6.282   2.292
23143W        W82239  10.138  24.044  12.040
23144W        W82240   4.815   1.310   1.280
23145W        W82241  35.920   5.788   1.915
23146W        W82242  38.542  32.513  10.967
23147W        W82243   4.796   1.459  10.033
23148W        W82244  28.050  35.390   0.742
23149W        W82245  37.417  13.244  12.372
23150W        W82246  44.260  32.583   3.163
23151W        W82247  29.164  32.113  10.627
23152W        W82248   9.800  24.597  14.880
23153W        W82249  44.341  34.425   0.466
23154W        W82250  10.652  41.448  13.461
23155W        W82251  34.496  40.876   0.795
23156W        W82252  24.569  29.156  13.482
23157W        W82253   4.747  37.863   1.362
23158W        W82254  36.523   5.387   3.819
23159W        W82255  39.975  14.103  10.509
23160W        W82256  20.234  25.034   5.293
23161W        W82257   3.299   8.696   1.909
23162W        W82258   0.940  42.321  13.027
23163W        W82259  39.409   1.733   5.111
23164W        W82260  14.278  42.459   3.741
23165W        W82261   6.732  42.875  13.006
23166W        W82262  24.218  38.557   2.769
23167W        W82263  22.531  19.175  13.990
23168W        W82264  26.116  43.880   0.861
23169W        W82265   8.851  32.573   1.898
23170W        W82266  11.726   3.923  12.350
23171W        W82267   5.786  35.377  11.376
23172W        W82268  16.735   9.197  11.863
23173W        W82269  27.035   8.365   2.404
23174W        W82270  20.105  20.068   3.317
23175W        W82271  31.547   1.837   1.385
23176W        W82272  25.643  31.023   1.288
23177W        W82273  28.561  36.037  13.343
23178W        W82274   5.222  28.115  12.030
23179W        W82275   2.747  13.752   0.803
23180W        W82276  40.528  36.467  13.878
23181W        W82277  39.052  44.305   4.231
23182W        W82278  37.017  11.680  14.846
23183W        W82279  33.915  40.362  14.022
23184W        W82280   2.902  19.133  12.431
23185W        W82281  34.983  22.501   0.920
23186W        W82282   9.661  39.484   2.663
23187W        W82283  21.537  23.158   3.746
23188W        W82284   7.864  30.436  12.957
23189W        W82285   6.279   8.747   1.806
23190W        W82286  32.102  31.089  10.468
23191W        W82287   2.445  11.334  10.516
23192W        W82288  22.563  11.233  13.477
23193W        W82289   9.835  30.107   9.544
23194W        W82290  28.492  18.739  12.341
23195W        W82291  32.516  10.367   2.752
23196W        W82292  40.362  29.632   2.396
23197W        W82293  15.726  16.084  13.954
23198W        W82294  40.865   6.299  11.406
23199W        W82295   3.795  22.647   3.369
23200W        W82296  10.801  16.294   2.828
23201W        W82297   1.737  22.220  11.118
23202W        W82298  23.035  12.284   4.151
23203W        W82299  16.235  30.130  12.943
23204W        W82300   4.295  24.092   5.183
23205W        W82301   1.927  38.362  12.001
23206W        W82302   8.753   7.328   3.774
23207W        W82303  23.110  38.339  11.888
23208W        W82304  14.211  35.867   9.450
23209W        W82305  30.923   3.830  12.363
23210W        W82306  18.169  44.272  11.033
23211W        W82307  43.354  27.074  14.421
23212W        W82308  10.657  30.101  14.355
23213W        W82309  27.162  35.515   2.813
23214W        W82310   6.187   2.244   0.483
23215W        W82311   3.293   6.741   2.328
23216W        W82312  12.300  28.531  13.047
23217W        W82313  40.364  44.832   3.772
23218W        W82314   4.765  20.564  12.838
23219W        W82315  36.924  39.901   0.398
23220W        W82316  44.270  19.618  11.078
23221W        W82317   0.795   3.883  12.347
23222W        W82318  16.604  26.105  12.850
23223W        W82319  11.774  43.863   3.801
23224W        W82320  34.559   4.824   3.711
23225W        W82321  26.127  25.122   0.813
23226W        W82322  13.298  43.776  12.057
23227W        W82323  13.112  40.544  13.336
23228W        W82324  13.232   3.392  12.458
23229W        W82325  23.727  14.774   0.299
23230W        W82326  21.018  40.962  13.006
23231W        W82327  24.608  11.151   1.436
23232W        W82328  30.527  37.878  14.858
23233W        W82329  13.605  16.776   0.736
23234W        W82330  27.958  17.138  13.465
23235W        W82331  39.955  24.210   0.267
23236W        W82332  38.368  35.548   0.779
23237W        W82333  19.654  20.527   0.793
23238W        W82334   5.859  37.440   1.327
23239W        W82335  11.852  24.541  13.850
23240W        W82336  21.235  42.498   1.734
23241W        W82337  10.851  33.895  10.529
23242W        W82338   8.308   9.164   0.399
23243W        W82339  41.498  26.662   4.688
23244W        W82340  29.518  42.390  14.939
23245W        W82341  11.839  37.520  12.094
23246W        W82342   5.838  23.595  12.357
23247W        W82343   8.688  33.529  10.559
23248W        W82344  23.050  41.349  13.002
23249W        W82345  20.715  34.093  11.088
23250W        W82346  33.513   3.452  14.821
23251W        W82347   5.262  22.584  10.564
23252W        W82348  26.666  27.571   0.413
23253W        W82349   6.202  17.749   2.770
23254W        W82350  26.079  18.216  11.876
23255W        W82351   6.701  16.580   1.719
23256W        W82352  14.202  31.124  12.548
23257W        W82353  11.218   3.350   1.217
23258W        W82354  41.346  13.831   2.789
23259W        W82355  30.923  30.012   0.398
23260W        W82356  40.338  35.426  13.041
23261W        W82357   1.383  16.276   2.249
23262W        W82358  19.662  31.071  13.972
23263W        W82359   2.351   6.865   1.827
23264W        W82360  28.056  15.585  11.929
23265W        W82361  44.857  11.629   1.935
23266W        W82362  28.469  27.979  13.488
23267W        W82363  26.960   2.245  13.998
23268W        W82364  32.636  39.928  11.539
23269W        W82365  28.598  39.941   2.756
23270W        W82366   2.931  14.831   2.751
23271W        W82367  21.647   9.207   2.261
23272W        W82368  32.044  27.175  13.986
23273W        W82369   8.365   8.370   3.164
23274W        W82370   8.684  38.419  14.491
23275W        W82371  18.614  10.160   0.857
23276W        W82372  12.676  26.017  11.861
23277W        W82373  17.171  32.422   2.693
23278W        W82374  39.818   2.826   1.704
23279W        W82375  43.882  16.092   3.254
23280W        W82376   4.928  19.184  11.047
23281W        W82377  37.048  40.435  14.909
23282W        W82378  32.066  24.218   0.795
23283W        W82379   6.413   8.278  13.389
23284W        W82380  13.621  35.891   2.391
23285W        W82381  28.175   8.282   4.306
23286W        W82382  29.019  28.656   4.340
23287W        W82383  24.665  30.933  11.881
23288W        W82384   9.269  17.567  12.471
23289W        W82385  43.462  21.041  11.607
23290W        W82386  35.070   0.410  14.794
23291W        W82387  30.952   8.724   4.138
23292W        W82388  27.455   4.787  13.360
23293W        W82389  12.334  30.516  12.968
23294W        W82390  25.175  31.951   4.614
23295W        W82391  14.786  42.974  11.060
23296W        W82392   9.684  12.726   3.163
23297W        W82393  10.679  33.468  10.094
23298W        W82394   5.385   2.231  12.930
23299W        W82395  25.115  38.874   4.746
23300W        W82396  42.841  17.599   3.216
23301W        W82397  14.794  21.121   1.873
23302W        W82398  13.776  34.559   4.194
23303W        W82399  21.619   5.206   0.403
23304W        W82400  21.643  36.363  12.059
23305W        W82401  19.224  17.298  11.026
23306W        W82402   6.758   5.888  12.884
23307W        W82403  17.120   1.932  11.505
23308W        W82404  11.219  20.665   2.401
23309W        W82405  39.808  32.026  14.320
23310W        W82406  27.082  37.458  14.421
23311W        W82407  24.165  10.371  12.957
23312W        W82408  26.511  37.849  13.507
23313W        W82409  44.488  23.517  11.981
23314W        W82410  41.431  24.048   0.897
23315W        W82411  30.532   1.379  14.800
23316W        W82412  21.634  30.093  12.064
23317W        W82413   4.858  20.188   0.945
23318W        W82414  24.088   7.204  12.362
23319W        W82415  14.728   8.674  11.401
23320W        W82416  21.203  43.961   2.718
23321W        W82417  35.011   9.818   3.194
23322W        W82418  23.228  13.728  13.999
23323W        W82419  31.045  37.415   4.276
23324W        W82420  31.936  22.508  11.405
23325W        W82421   7.876  10.232  10.049
23326W        W82422   0.410  31.908  14.829
23327W        W82423  24.207  29.156  14.003
23328W        W82424  31.971  42.001  14.831
23329W        W82425  15.326  26.002  12.967
23330W        W82426  20.635  33.892   3.658
23331W        W82427  23.986  36.426   1.811
23332W        W82428  22.230  20.603  14.445
23333W        W82429  35.971   7.342   3.845
23334W        W82430  35.021   4.336  12.882
23335W        W82431   3.408  34.392  11.049
23336W        W82432  21.625  40.973   3.345
23337W        W82433  16.572  28.069   4.712
23338W        W82434  14.664  17.655  12.838
23339W        W82435  44.006   3.225   4.318
23340W        W82436  31.080  43.966  11.971
23341W        W82437   3.897  28.184  13.511
23342W        W82438  23.236   7.689   2.732
23343W        W82439  33.540  38.409  10.431
23344W        W82440  37.936  33.489   3.677
23345W        W82441  18.133  16.119   3.232
23346W        W82442  30.019  11.189  10.407
23347W        W82443  12.838   8.667   2.802
23348W        W82444   8.277  23.634  13.425
23349W        W82445  24.128  27.028  12.567
23350W        W82446  16.278   9.732  12.006
23351W        W82447  36.857  36.008   1.729
23352W        W82448  22.556  39.859  13.465
23353W        W82449  15.164  37.536  11.121
23354W        W82450  29.989  36.477  12.931
23355W        W82451  25.649   3.449   3.656
23356W        W82452  41.994  18.290   3.831
23357W        W82453  11.762  22.077   3.673
23358W        W82454  10.668  38.054  11.605
23359W        W82455   6.921   8.729   1.893
23360W        W82456  32.636  43.415  12.090
23361W        W82457   7.741  31.956   4.161
23362W        W82458  12.700  34.004  10.547
23363W        W82459  11.786  10.681   0.733
23364W        W82460  20.604   9.260  10.914
23365W        W82461  38.876  29.982  14.818
23366W        W82462  42.287  19.148   0.793
23367W        W82463  23.597  11.698   4.350
23368W        W82464   2.737  30.014   4.229
23369W        W82465  18.611  43.368   0.771
23370W        W82466  17.561  36.865   0.748
23371W        W82467  24.630   6.768  13.849
23372W        W82468  33.916  31.589   3.237
23373W        W82469  40.331  16.273  10.636
23374W        W82470   7.851   8.704   2.312
23375W        W82471   6.889   1.273   2.396
23376W        W82472  16.616  12.718   3.691
23377W        W82473  40.375  28.679  12.048
23378W        W82474  44.271  24.643  14.029
23379W        W82475  19.087  31.068  11.577
23380W        W82476  28.088   4.926  14.467
23381W        W82477  22.679  19.092   5.311
23382W        W82478  35.076   6.224   3.847
23383W        W82479  44.815  28.149  14.845
23384W        W82480  42.786  25.052  11.596
23385W        W82481  13.154  39.544   4.671
23386W        W82482  32.434   0.342  13.986
23387W        W82483   0.309  31.063   2.328
23388W        W82484  34.528   3.837   2.704
23389W        W82485  24.594  36.589   3.254
23390W        W82486  25.013  31.953   2.806
23391W        W82487  16.777  39.421   3.631
23392W        W82488  21.643  33.898   3.739
23393W        W82489  33.893  21.718   3.870
23394W        W82490  40.977  38.893  11.089
23395W        W82491   1.773  29.633  11.968
23396W        W82492  35.542  37.556   3.813
23397W        W82493  11.242  33.478   4.615
23398W        W82494  30.982  17.681   2.764
23399W        W82495  12.201  26.017   0.359
23400W        W82496  35.363  18.677  14.924
23401W        W82497   1.306   5.334  10.409
23402W        W82498  33.603  42.001  12.970
23403W        W82499  38.023   3.387  10.413
23404W        W82500  31.029  15.668  13.840
23405W        W82501  17.131  35.358  13.938
23406W        W82502  17.158  41.031  10.944
23407W        W82503  10.710  30.987   4.606
23408W        W82504  11.820  11.243   0.855
23409W        W82505  38.831  21.230   0.418
23410W        W82506  15.684  15.210  11.542
23411W        W82507   0.339  27.691   3.353
23412W        W82508   3.802  12.715  11.029
23413W        W82509  25.606   8.711   5.303
23414W        W82510  44.792  33.393  10.487
23415W        W82511  43.019  30.991  12.518
23416W        W82512  12.763  17.160  12.360
23417W        W82513   6.287   6.360   0.437
23418W        W82514  21.116  30.984   0.352
23419W        W82515  30.159  30.145  11.488
23420W        W82516  18.701  16.582   3.815
23421W        W82517  40.530  35.407   3.168
23422W        W82518  22.175  25.534  12.507
23423W        W82519   5.200  22.633  11.055
23424W        W82520  15.297  17.203   2.738
23425W        W82521  28.601  10.219  12.360
23426W        W82522  33.429   5.197   0.475
23427W        W82523  21.073  19.279  10.906
23428W        W82524   3.775  17.763   2.743
23429W        W82525  28.004  13.627   1.221
23430W        W82526  27.470   1.263   4.831
23431W        W82527  34.026  40.348  14.484
23432W        W82528  41.988   6.798  11.525
23433W        W82529   0.796   2.323   3.323
23434W        W82530  29.459  32.099   0.805
23435W        W82531   9.190   9.261  14.804
23436W        W82532  28.991  20.062   2.726
23437W        W82533  16.597  26.035   3.279
23438W        W82534  19.260  27.457   2.667
23439W        W82535  35.491  34.014   0.876
23440W        W82536  17.304  23.995   1.424
23441W        W82537  12.642  31.483   1.783
23442W        W82538  42.854   5.748   3.266
23443W        W82539  41.374  41.040   0.945
23444W        W82540  44.260  23.210   1.403
23445W        W82541  36.098  25.641   4.147
23446W        W82542  19.611  42.466   0.329
23447W        W82543  11.683  14.662  11.917
23448W        W82544  16.669  12.856  11.087
23449W        W82545  39.506  23.132   3.786
23450W        W82546  19.061  25.964   2.332
23451W        W82547   6.374  38.442  11.541
23452W        W82548  31.434  35.920  13.829
23453W        W82549  11.780  25.977  10.530
23454W        W82550   6.381  34.092  14.351
23455W        W82551  35.468  15.084   3.650
23456W        W82552  38.875  36.034   1.861
23457W        W82553   5.931  23.664  13.008
23458W        W82554   2.790  28.570  12.553
23459W        W82555   5.197  25.588  14.808
23460W        W82556  44.940  37.032   1.920
23461W        W82557   5.283  43.806  14.933
23462W        W82558   9.347  39.917   2.185
23463W        W82559  22.705  13.762  14.816
23464W        W82560   4.238  26.021   4.265
23465W        W82561  36.966   0.845  11.912
23466W        W82562  15.754  10.790   2.360
23467W        W82563  31.605  37.850  14.976
23468W        W82564  36.465  21.215   2.723
23469W        W82565  20.631  42.457   3.778
23470W        W82566  24.072  13.195   0.476
23471W        W82567  34.990  44.946   2.355
23472W        W82568  32.110  37.338   5.167
23473W        W82569  20.699  10.636  14.980
23474W        W82570  39.956  32.006  10.433
23475W        W82571  22.151  43.765   1.322
23476W        W82572  31.000  15.649  12.561
23477W        W82573  19.280  24.688   2.267
23478W        W82574  23.124  38.934   4.791
23479W        W82575   1.866  38.531   3.161
23480W        W82576  11.812  41.462  11.378
23481W        W82577  33.019  23.028  13.028
23482W        W82578  16.717  24.047   2.758
23483W        W82579  29.577   5.327   0.387
23484W        W82580  20.627  27.597  11.081
23485W        W82581  34.449   2.742  14.315
23486W        W82582  31.928  33.946  13.942
23487W        W82583  33.096  28.985   4.836
23488W        W82584  25.074   2.347  13.830
23489W        W82585  30.029  44.445  11.509
23490W        W82586  32.394  23.507  14.942
23491W        W82587   0.422   2.419   1.357
23492W        W82588  22.202  37.569   0.876
23493W        W82589   5.299  21.653  12.388
23494W        W82590  32.434  10.265  10.468
23495W        W82591   9.670  38.916   2.284
23496W        W82592  22.640   4.926  13.916
23497W        W82593  28.451  25.493   2.711
23498W        W82594  20.079  13.169  11.524
23499W        W82595  12.747  18.601  14.012
23500W        W82596   2.423  13.175   3.679
23501W        W82597  28.625  35.443  11.950
23502W        W82598  43.334   5.355  11.517
23503W        W82599  40.357  12.232   0.850
23504W        W82600   4.825  38.442  13.999
23505W        W82601   5.416   7.702  11.072
23506W        W82602  20.225   0.415  10.988
23507W        W82603   5.429  13.251   4.147
23508W        W82604  41.464  10.248   3.677
23509W        W82605  33.435  15.722   2.668
23510W        W82606  11.370   6.724   2.688
23511W        W82607  18.707  17.170   0.867
23512W        W82608  34.386   6.780   0.273
23513W        W82609  12.682  26.130   4.129
23514W        W82610  28.578  25.588   3.816
23515W        W82611   5.823  10.196   2.887
23516W        W82612   6.399  15.798  12.452
23517W        W82613  42.979   2.358   2.891
23518W        W82614   8.342  11.324   3.347
23519W        W82615  15.108  42.350   3.637
23520W        W82616  11.128  40.540  10.615
23521W        W82617  30.450   8.773   2.260
23522W        W82618  12.805  39.917   1.876
23523W        W82619  17.664   3.925   3.730
23524W        W82620  10.166  24.009   4.756
23525W        W82621  31.977   6.396  12.050
23526W        W82622  12.697  29.636   1.746
23527W        W82623  25.171  25.488  14.027
23528W        W82624  33.607  21.168   3.707
23529W        W82625  15.205  42.985  12.527
23530W        W82626  13.794  31.470  12.344
23531W        W82627   0.305  16.703   3.869
23532W        W82628   8.287  39.055   4.762
23533W        W82629  41.314  14.265  13.904
23534W        W82630   8.826  10.174   0.921
23535W        W82631  12.334  43.512  11.475
23536W        W82632  28.537  39.937   1.224
23537W        W82633  25.075  11.281  11.943
23538W        W82634  27.952   7.209  13.474
23539W        W82635  11.239   6.684   3.298
23540W        W82636  32.129  28.441  14.967
23541W        W82637  22.222  37.999   1.747
23542W        W82638  15.276  19.694  12.888
23543W        W82639  23.117  21.746  11.053
23544W        W82640  13.772  38.510   3.785
23545W        W82641  12.782  18.245  11.928
23546W        W82642  25.154   2.856   4.120
23547W        W82643  28.540  34.520   0.801
23548W        W82644  23.060  41.475  13.987
23549W        W82645  34.372   5.267  14.440
23550W        W82646  37.366   7.195  11.597
23551W        W82647  25.485   7.325   4.294
23552W        W82648  20.624   1.793   2.407
23553W        W82649  15.610   5.867   1.801
23554W        W82650  37.501  41.472  10.906
23555W        W82651  25.678   4.276   1.750
23556W        W82652   0.483  35.458   3.741
23557W        W82653  21.584  18.585  11.944
23558W        W82654  33.031  37.960   0.425
23559W        W82655  29.519   4.719   2.251
23560W        W82656  25.069  10.655  11.050
23561W        W82657  42.889  19.778  14.469
23562W        W82658  39.382  14.662  13.445
23563W        W82659   7.251  17.600   5.155
23564W        W82660  39.522  33.915   1.312
23565W        W82661   0.928  35.911  13.343
23566W        W82662  30.528   6.397   1.437
23567W        W82663  21.054  33.388   5.127
23568W        W82664  27.190  34.461  11.993
23569W        W82665  25.535  32.420   0.248
23570W        W82666  29.636  44.326   2.319
23571W        W82667  21.135  24.175   0.748
23572W        W82668  20.207   2.867   1.259
23573W        W82669  32.102  10.252  14.949
23574W        W82670  16.259   2.357  11.403
23575W        W82671  19.108  27.077   1.741
23576W        W82672  44.963  39.411  14.786
23577W        W82673  19.710   2.438   3.689
23578W        W82674  15.649  43.513   1.399
23579W        W82675  35.041  44.261   1.383
23580W        W82676  37.919  24.616   4.599
23581W        W82677  12.190  43.795   1.776
23582W        W82678  34.448  24.058   1.391
23583W        W82679  27.537  15.115   2.345
23584W        W82680  14.121  41.937   1.881
23585W        W82681  21.536  20.732   1.737
23586W        W82682  13.642  38.353  11.521
23587W        W82683  37.498   8.377   2.314
23588W        W82684  15.251  20.079  12.468
23589W        W82685  20.715  32.131   2.280
23590W        W82686  31.108  32.501  12.880
23591W        W82687  21.651  34.569  14.392
23592W        W82688  16.688  39.869  10.478
23593W        W82689  42.404  35.893   1.794
23594W        W82690  22.104  35.581  14.979
23595W        W82691   7.897  38.911  10.570
23596W        W82692  43.355  28.503  14.825
23597W        W82693  17.569  13.810  12.972
23598W        W82694   1.295  27.083  10.930
23599W        W82695   9.660  38.071  14.382
23600W        W82696  42.515  15.110  14.453
23601W        W82697  28.983  31.646   4.836
23602W        W82698  13.343  22.237   3.657
23603W        W82699  20.593  11.237   3.172
23604W        W82700  30.584  16.276  14.446
23605W        W82701   8.688  16.764  13.406
23606W        W82702  17.610   3.895   1.229
23607W        W82703  33.104  33.498   2.408
23608W        W82704   1.439   7.407   4.743
23609W        W82705  41.905  28.630   0.767
23610W        W82706  43.846  26.582   4.248
23611W        W82707   0.890   7.197   0.751
23612W        W82708  35.443  41.000  11.095
23613W        W82709  26.197  31.625   3.190
23614W        W82710   3.273   0.848   2.267
23615W        W82711  33.567  34.396   4.248
23616W        W82712  20.621  22.076  12.970
23617W        W82713  43.841  21.687   2.328
23618W        W82714  21.662  17.121   3.632
23619W        W82715  36.517  43.347   3.787
23620W        W82716  33.898   6.209  13.460
23621W        W82717  35.381  41.990  11.064
23622W        W82718   5.355   9.226  10.910
23623W        W82719  14.794  23.034  13.863
23624W        W82720  40.859  16.248   0.919
23625W        W82721  40.411  42.816  10.079
23626W        W82722   8.300  13.285   4.232
23627W        W82723  40.397   5.327  14.945
23628W        W82724  39.030   0.435   1.449
23629W        W82725  20.053  31.117   4.772
23630W        W82726  25.017  17.746   2.718
23631W        W82727  18.788   4.281   2.773
23632W        W82728  31.095   7.672   4.266
23633W        W82729  21.675   5.782  11.607
23634W        W82730  29.466  14.230   5.221
23635W        W82731  41.028  31.646  13.873
23636W        W82732  36.386  11.770  14.459
23637W        W82733  28.082   9.658   3.753
23638W        W82734  13.313  44.863   4.804
23639W        W82735  37.851  16.284   1.769
23640W        W82736  18.682  32.074  14.312
23641W        W82737  13.268  24.547  14.865
23642W        W82738   0.399  10.784  14.022
23643W        W82739  29.960  37.924   2.764
23644W        W82740   1.956  31.147  13.431
23645W        W82741  36.987  36.929   0.259
23646W        W82742  14.263  16.798   4.264
23647W        W82743  23.499  15.120   2.241
23648W        W82744  19.646  11.160  13.802
23649W        W82745   0.753  20.549  12.976
23650W        W82746  38.491  17.621   0.429
23651W        W82747  15.804   8.166  13.375
23652W        W82748  25.147  41.295   4.769
23653W        W82749  30.991   2.807   0.351
23654W        W82750   9.692  22.035  14.030
23655W        W82751  36.403  31.499  10.624
23656W        W82752  30.092  12.787  10.951
23657W        W82753  29.095  32.117   0.965
23658W        W82754   7.794  37.575   1.848
23659W        W82755  33.104  35.095   2.731
23660W        W82756  18.661  35.008  10.633
23661W        W82757  32.537  26.575  13.944
23662W        W82758  17.556  26.975   4.698
23663W        W82759  11.274  13.633   0.772
23664W        W82760   5.349  38.439  10.586
23665W        W82761  36.084  34.045   3.795
23666W        W82762   2.468  38.827  11.023
23667W        W82763  22.512  10.288  13.374
23668W        W82764  32.968  28.029  11.011
23669W        W82765  20.685  18.193  10.420
23670W        W82766   1.403  44.426   3.333
23671W        W82767  15.780  15.103   4.649
23672W        W82768  12.349  18.547  12.063
23673W        W82769   0.381  23.636   1.750
23674W        W82770  43.333   6.806   0.921
23675W        W82771   5.887  13.263   4.659
23676W        W82772  22.006  10.291   0.762
23677W        W82773  42.882   9.330  14.866
23678W        W82774  24.626  38.020   3.364
23679W        W82775   8.347  16.270   0.407
23680W        W82776  26.649  20.669   2.841
23681W        W82777  12.244  36.973   0.896
23682W        W82778  17.703  23.057  10.622
23683W        W82779   3.934   2.244  10.423
23684W        W82780  42.989  35.972  10.474
23685W        W82781   3.227  20.706  11.493
23686W        W82782   3.446   8.392  13.414
23687W        W82783  39.847  37.010   2.206
23688W        W82784  41.955  13.664   3.311
23689W        W82785  25.507  15.291  14.325
23690W        W82786  13.319  11.759  10.947
23691W        W82787  31.063  28.140   1.716
23692W        W82788   1.935  42.830   1.741
23693W        W82789  28.083  18.151   4.650
23694W        W82790  22.236  16.286   3.685
23695W        W82791  43.509  15.251  13.311
23696W        W82792  18.675   8.799  13.530
23697W        W82793  17.655  11.183   0.309
23698W        W82794   8.821  34.101   2.752
23699W        W82795  18.787  12.624   2.368
23700W        W82796  26.618  23.709   3.338
23701W        W82797  24.485   5.202   3.857
23702W        W82798  11.317  32.975   2.322
23703W        W82799  31.964  28.463  13.851
23704W        W82800  26.561   4.880  12.907
23705W        W82801  10.819  35.895   3.709
23706W        W82802  16.213  10.320  13.965
23707W        W82803  14.640  28.675   4.297
23708W        W82804  39.064  25.207  13.884
23709W        W82805  36.486  42.957  13.514
23710W        W82806  42.493   0.876  14.395
23711W        W82807   9.316   0.264  11.548
23712W        W82808  20.570  29.124  10.421
23713W        W82809   4.297  39.060   4.176
23714W        W82810   5.886  29.046  13.796
23715W        W82811  43.309  22.164  13.336
23716W        W82812   3.266  41.021  12.005
23717W        W82813  43.780  31.466   3.226
23718W        W82814  31.524  38.913   4.696
23719W        W82815  22.168  41.832  11.107
23720W        W82816  21.647  13.118   3.345
23721W        W82817  39.406  16.583  10.949
23722W        W82818  17.132  35.420   5.308
23723W        W82819  23.689   3.420  14.956
23724W        W82820  31.958  20.752   0.286
23725W        W82821  35.385  29.131   0.869
23726W        W82822  31.448  26.643   2.273
23727W        W82823  29.003  27.103   0.291
23728W        W82824  11.670   0.908   5.223
23729W        W82825  42.956   2.917  11.503
23730W        W82826  29.642  15.642  12.578
23731W        W82827  15.140   2.836   1.401
23732W        W82828  34.066   7.225  11.105
23733W        W82829  20.551  40.546   4.643
23734W        W82830  43.881  13.274   4.181
23735W        W82831  23.200  23.102   5.093
23736W        W82832  44.320   4.867   0.742
23737W        W82833  15.310  40.048   5.305
23738W        W82834   4.840  10.221   3.663
23739W        W82835  44.432  29.108  12.417
23740W        W82836  40.536  29.168  12.870
23741W        W82837  39.917  13.317   0.751
23742W        W82838  18.614   8.367  12.537
23743W        W82839  14.134  21.679   2.843
23744W        W82840  39.826  11.846  12.377
23745W        W82841  31.516   9.747  12.570
23746W        W82842  10.191  17.597  12.389
23747W        W82843  24.101  41.041   1.935
23748W        W82844  41.402  12.673   3.704
23749W        W82845  39.015  18.123  13.860
23750W        W82846  28.562  23.555   0.283
23751W        W82847  10.763  17.781   3.830
23752W        W82848   2.450  26.651  14.409
23753W        W82849   1.957  38.021  12.433
23754W        W82850  37.441  44.764  14.322
23755W        W82851  12.649   4.325  12.851
23756W        W82852   7.884   5.349   3.646
23757W        W82853  20.565  23.575   0.902
23758W        W82854  14.148  13.317  11.570
23759W        W82855  26.530  27.670  11.547
23760W        W82856  40.522  17.702  14.356
23761W        W82857   0.329  39.560   3.261
23762W        W82858  38.821  25.083   3.817
23763W        W82859   1.359  42.468  11.992
23764W        W82860   5.860   6.820  13.985
23765W        W82861  14.220  37.003  10.602
23766W        W82862  18.574  32.901   4.625
23767W        W82863  38.994  39.903  14.805
23768W        W82864  14.829   3.330  12.863
23769W        W82865  19.713   5.915   0.916
23770W        W82866  40.373  25.515   4.242
23771W        W82867  31.550  20.751   4.277
23772W        W82868  24.598  39.429   4.243
23773W        W82869  10.835  13.207  12.910
23774W        W82870  42.462  40.852   1.807
23775W        W82871   4.704  17.560   2.815
23776W        W82872  21.714  35.482   2.787
23777W        W82873  25.647   1.275   4.775
23778W        W82874  40.454  35.494  14.821
23779W        W82875  39.532   2.386  12.481
23780W        W82876   3.944  14.705   1.244
23781W        W82877  38.846   0.340   2.837
23782W        W82878  11.768  37.006   1.885
23783W        W82879   9.217  10.644  12.502
23784W        W82880  10.842  44.922  10.616
23785W        W82881  29.584  28.175   2.295
23786W        W82882  12.809   5.346   2.902
23787W        W82883  11.699  30.923   5.234
23788W        W82884  20.751  41.867  10.539
23789W        W82885  21.539  41.340   4.124
23790W        W82886  31.439  32.468   4.619
23791W        W82887   9.219   9.821   2.876
23792W        W82888  33.503  20.111  11.468
23793W        W82889   0.862  28.131  12.952
23794W        W82890  12.131  43.010   4.734
23795W        W82891   6.778   2.818  13.987
23796W        W82892  21.616   4.218   3.701
23797W        W82893  19.544  10.144   2.874
23798W        W82894   7.337   7.894   0.284
23799W        W82895  32.928  10.801   2.783
23800W        W82896  41.818   8.680   4.188
23801W        W82897  38.829  11.808   4.254
23802W        W82898  25.060  40.040  11.967
23803W        W82899  25.521   0.440   2.716
23804W        W82900   0.868  18.156   0.363
23805W        W82901   4.376  18.267  13.523
23806W        W82902  41.944  21.057  10.414
23807W        W82903   1.342  22.538  11.445
23808W        W82904  16.248  25.991   4.753
23809W        W82905  37.998  27.998   4.275
23810W        W82906   7.216  44.477  13.814
23811W        W82907  13.132  32.533   3.215
23812W        W82908   4.878  37.549   2.415
23813W        W82909  19.690  41.491  12.945
23814W        W82910  42.862   2.931  12.538
23815W        W82911   3.219  10.633  14.929
23816W        W82912  26.477  31.932   5.231
23817W        W82913  29.971  31.631  11.901
23818W        W82914  25.203  26.542  11.488
23819W        W82915  20.664  14.590   4.708
23820W        W82916  23.003  34.409  14.794
23821W        W82917  25.020  25.089  10.642
23822W        W82918  26.062  18.719  11.909
23823W        W82919   2.789   7.272  14.896
23824W        W82920  32.596   6.883  14.434
23825W        W82921  10.745   5.780  10.469
23826W        W82922  34.990   7.703  11.452
23827W        W82923  22.608  42.407   1.791
23828W        W82924  25.139  19.183   1.865
23829W        W82925  24.171  37.553   3.718
23830W        W82926  15.188  29.646   1.450
23831W        W82927   9.870  28.560  14.378
23832W        W82928  44.879  19.600  11.910
23833W        W82929  33.503  31.417   3.814
23834W        W82930  32.887   9.685  11.882
23835W        W82931  19.079  23.199  11.545
23836W        W82932   6.343  30.560  10.013
23837W        W82933   2.226  27.054   1.404
23838W        W82934   7.786  23.653   3.812
23839W        W82935   9.214  24.576  11.566
23840W        W82936  42.380  12.634   3.805
23841W        W82937   4.337  23.107  12.448
23842W        W82938  32.571  24.191  12.368
23843W        W82939   2.831  14.678   1.794
23844W        W82940  15.691   2.355   0.265
23845W        W82941  41.924   8.741  11.933
23846W        W82942  12.285   6.281   0.311
23847W        W82943   4.359  12.309   2.262
23848W        W82944  25.662  19.249   1.811
23849W        W82945  37.866  39.922  10.914
23850W        W82946  28.056  11.356   4.784
23851W        W82947  25.136   0.385  14.447
23852W        W82948  42.969  16.588  11.100
23853W        W82949  11.721  30.635  10.465
23854W        W82950  38.035  17.775   2.716
23855W        W82951  26.981  15.727   4.799
23856W        W82952  28.483  26.031  11.080
23857W        W82953  41.982  26.042   4.295
23858W        W82954  35.890  22.135  12.493
23859W        W82955  28.506  25.994   2.381
23860W        W82956  38.471  38.878   2.663
23861W        W82957  15.677   3.275  10.624
23862W        W82958  33.538  11.276  11.107
23863W        W82959  36.019  17.725   0.791
23864W        W82960  15.785   6.739  10.598
23865W        W82961  32.952  17.253   3.221
23866W        W82962  44.304  41.961   1.282
23867W        W82963  36.495   9.192  14.817
23868W        W82964  21.672  21.600  14.416
23869W        W82965   2.472  10.228   4.264
23870W        W82966  17.793  41.405  12.387
23871W        W82967  14.793  19.096   1.725
23872W        W82968  34.445  44.876   2.220
23873W        W82969   2.919  40.872  12.508
23874W        W82970   9.301  33.124   2.824
23875W        W82971  43.006  29.087   1.783
23876W        W82972  21.199   7.855   9.941
23877W        W82973  16.217  28.177   0.268
23878W        W82974  27.977  38.837   1.359
23879W        W82975  25.064  16.307   0.935
23880W        W82976  42.471   2.465  14.394
23881W        W82977   9.677  43.392   4.297
23882W        W82978  18.756  28.454  13.844
23883W        W82979   3.337   1.884   0.931
23884W        W82980   5.393   1.366   2.873
23885W        W82981  42.412   5.321   4.160
23886W        W82982  37.488  10.748   2.861
23887W        W82983  41.877  37.955  13.443
23888W        W82984  26.620  35.967   1.724
23889W        W82985  30.534  13.833  14.846
23890W        W82986  37.907  14.280   2.873
23891W        W82987  22.514  38.528  13.497
23892W        W82988   6.192   6.283   5.244
23893W        W82989  18.215  18.132  11.472
23894W        W82990  25.968  35.504  14.828
23895W        W82991  35.097  21.535  10.622
23896W        W82992  32.553  25.011  11.987
23897W        W82993  21.029   2.828   2.221
23898W        W82994   5.257  44.335   0.303
23899W        W82995   2.400  38.031   3.755
23900W        W82996  12.771  14.318   3.766
23901W        W82997  23.708   1.949   2.664
23902W        W82998  16.640  43.284   0.447
23903W        W82999  21.261  26.511   4.806
23904W        W83000  32.885  37.998   3.813
23905W        W83001  12.172   6.780   1.321
23906W        W83002   0.792  31.051  12.941
23907W        W83003  33.565  38.969   2.876
23908W        W83004   3.818   3.860   2.387
23909W        W83005  29.941   3.246   2.282
23910W        W83006  43.839  30.556   0.889
23911W        W83007   2.761  16.656   0.794
23912W        W83008  16.595  14.166   3.235
23913W        W83009  32.449  22.590  10.115
23914W        W83010   5.321   6.390  11.409
23915W        W83011  25.085  42.987  10.949
23916W        W83012  31.123  40.385   0.447
23917W        W83013  11.825  42.370  11.885
23918W        W83014  37.040  16.632   3.337
23919W        W83015  16.782  27.060   4.309
23920W        W83016  38.915  20.150   4.264
23921W        W83017  31.536   0.822  12.908
23922W        W83018  30.091  32.981  12.824
23923W        W83019  38.467  24.531  10.432
23924W        W83020   1.371  24.564  14.480
23925W        W83021  28.992  28.959   1.343
23926W        W83022   2.284  37.894   1.910
23927W        W83023  10.234  36.079  11.500
23928W        W83024  12.664   4.236   2.757
23929W        W83025  39.825   2.457   2.256
23930W        W83026  28.137  42.810  13.014
23931W        W83027  26.702  23.233   0.944
23932W        W83028   2.768  18.156  12.825
23933W        W83029  41.948   5.194   4.659
23934W        W83030  41.895   9.809  14.385
23935W        W83031   0.951  12.275   3.748
23936W        W83032   1.442  20.106  11.963
23937W        W83033  36.457  26.152  12.902
23938W        W83034  11.715  38.349  13.839
23939W        W83035  30.091  12.676  13.992
23940W        W83036   4.363   9.845  11.915
23941W        W83037  15.242  11.146  13.988
23942W        W83038  17.718  17.672   0.393
23943W        W83039  42.825  31.023   3.276
23944W        W83040  41.393  36.466  13.359
23945W        W83041   9.871  39.882  12.045
23946W        W83042  39.354  37.435  14.013
23947W        W83043   9.678  33.508  14.381
23948W        W83044  33.577   8.672   5.094
23949W        W83045  28.121   4.335   1.799
23950W        W83046  43.981  37.944   3.721
23951W        W83047  15.591  40.824  10.425
23952W        W83048   2.888  22.199   3.206
23953W        W83049  31.565  15.806   3.381
23954W        W83050  10.358  41.440   0.780
23955W        W83051  23.995  28.525  11.880
23956W        W83052  43.002   2.819  12.919
23957W        W83053  32.111  25.969   1.832
23958W        W83054  13.290  14.605   4.208
23959W        W83055   4.794  24.003  11.030
23960W        W83056   2.937  25.182  13.831
23961W        W83057  33.485   4.227  11.963
23962W        W83058  12.268   8.898   5.115
23963W        W83059   7.296   9.658  13.441
23964W        W83060   7.717  25.057  12.539
23965W        W83061  39.899   7.303  10.472
23966W        W83062  18.267   7.416  11.969
23967W        W83063  22.229  12.289   4.235
23968W        W83064  34.082  28.959  14.374
23969W        W83065  25.215  11.726   2.179
23970W        W83066  24.517   7.822  12.513
23971W        W83067  40.460  41.385  12.906
23972W        W83068   4.726  15.289  14.307
23973W        W83069  32.580  23.647   1.369
23974W        W83070  43.961   5.846  12.436
23975W        W83071  31.458  11.710  10.486
23976W        W83072   9.790  42.443   1.280
23977W        W83073  43.307   7.401   0.962
23978W        W83074  10.377  38.851   9.942
23979W        W83075  13.309  13.687   3.381
23980W        W83076   4.404  41.445  13.399
23981W        W83077   1.323   3.452  13.986
23982W        W83078  31.521  42.995   1.862
23983W        W83079   2.320  31.032  13.488
23984W        W83080  12.259  40.981  12.342
23985W        W83081   7.230  34.461   2.790
23986W        W83082  18.250  10.283  10.996
23987W        W83083  34.489  16.256   0.812
23988W        W83084  27.953  40.520  11.427
23989W        W83085   2.820  10.834  10.499
23990W        W83086  21.582  16.728  12.437
23991W        W83087  35.373  11.851   1.427
23992W        W83088  30.931  13.711  10.447
23993W        W83089   5.812  31.128  11.858
23994W        W83090  43.342   3.862  14.275
23995W        W83091  16.074  18.127  12.449
23996W        W83092  36.382  32.539   0.372
23997W        W83093  38.363  28.681   0.847
23998W        W83094  15.119  28.998  11.034
23999W        W83095   6.327  18.552   2.241
24000W        W83096  36.049  21.745  11.394
24001W        W83097   7.841  22.173   1.391
24002W        W83098  25.635  17.633   2.855
24003W        W83099  18.551  33.077  14.460
24004W        W83100  14.241  19.534  13.476
24005W        W83101  29.456  21.043   4.219
24006W        W83102  38.069   2.400  11.098
24007W        W83103  23.522  42.955  11.041
24008W        W83104  41.883   8.288   3.387
24009W        W83105   0.341  38.436  11.452
24010W        W83106  11.849  17.652   2.742
24011W        W83107  35.041  31.974  12.053
24012W        W83108   7.830   7.401  12.503
24013W        W83109  18.092  42.384   4.762
24014W        W83110  26.644   1.428   5.220
24015W        W83111   1.363   9.347   4.266
24016W        W83112  22.501  29.131   2.769
24017W        W83113  36.912  43.815  12.437
24018W        W83114  43.497  10.849   0.857
24019W        W83115  35.945  19.108  14.301
24020W        W83116  22.061  32.458   1.363
24021W        W83117   0.748  41.879  13.946
24022W        W83118   2.434  35.108   4.166
24023W        W83119  38.063  41.022  14.308
24024W        W83120  35.580  27.570  12.420
24025W        W83121  41.788  14.282  11.413
24026W        W83122   3.874  32.607   0.799
24027W        W83123   4.752  13.701  13.424
24028W        W83124  22.678  21.229  11.400
24029W        W83125   8.259  23.670  11.990
24030W        W83126  25.125  17.225  14.490
24031W        W83127  12.156  24.061   3.233
24032W        W83128   3.712   7.702   0.741
24033W        W83129  12.273  39.912  10.901
24034W        W83130  41.930  44.980  11.496
24035W        W83131  10.315  12.310   0.888
24036W        W83132  14.321  10.323  10.516
24037W        W83133   9.315  43.342  10.966
24038W        W83134   6.267  43.274   3.633
24039W        W83135  16.638  29.967   3.808
24040W        W83136  15.329  25.504   1.261
24041W        W83137  33.999  22.108  10.917
24042W        W83138  16.279  25.058   3.314
24043W        W83139   9.858   6.404  14.937
24044W        W83140  29.025  22.603   1.796
24045W        W83141  19.701  17.090  14.921
24046W        W83142  30.543   0.975  13.994
24047W        W83143  29.136   5.751  11.939
24048W        W83144  33.459  25.495   1.419
24049W        W83145  37.072  33.381  11.612
24050W        W83146  27.078  34.476  14.461
24051W        W83147   7.886  16.221  14.381
24052W        W83148   8.374  20.032  12.979
24053W        W83149  29.919   7.756   3.823
24054W        W83150  43.304  13.707  13.900
24055W        W83151  16.214   5.211  14.276
24056W        W83152  29.661  33.440   4.251
24057W        W83153  33.124   8.289   3.354
24058W        W83154   9.263  21.588  10.415
24059W        W83155  40.423   9.323   1.808
24060W        W83156  31.976  16.573  13.957
24061W        W83157  22.245  29.921  14.343
24062W        W83158  24.046  19.131   2.716
24063W        W83159  14.153  13.156  13.993
24064W        W83160   5.360  35.515  11.091
24065W        W83161   6.391  20.525  13.856
24066W        W83162   8.822  16.310   5.202
24067W        W83163  19.243  14.613  10.914
24068W        W83164  34.026  12.215  12.872
24069W        W83165   5.904  12.187  14.961
24070W        W83166   9.290   3.443  10.004
24071W        W83167  32.961  14.700  13.811
24072W        W83168  25.059  11.326  14.371
24073W        W83169  17.569  43.275   4.641
24074W        W83170  44.808  25.040   3.356
24075W        W83171   6.802  13.326   1.783
24076W        W83172   2.229  29.075   2.253
24077W        W83173  24.225  12.121   4.730
24078W        W83174  31.411  41.308  10.961
24079W        W83175  16.075  34.577  13.437
24080W        W83176  10.837  24.631   0.956
24081W        W83177   3.774   0.268   2.228
24082W        W83178  38.497  10.754  10.994
24083W        W83179  44.402  17.161  14.279
24084W        W83180   4.294  31.095   0.378
24085W        W83181  18.145  13.749  11.470
24086W        W83182  32.420  38.358   1.894
24087W        W83183  11.254  10.200  11.402
24088W        W83184  43.365  34.418  11.899
24089W        W83185   3.944  19.570  13.394
24090W        W83186  20.089   0.451  10.413
24091W        W83187  17.797  26.015  14.420
24092W        W83188   2.945  24.652   2.197
24093W        W83189  43.320  28.958   2.183
24094W        W83190  10.384  27.680   0.377
24095W        W83191  24.694  12.347   0.399
24096W        W83192  26.008  14.219  14.925
24097W        W83193  14.624  33.409  14.842
24098W        W83194  35.876   1.941   2.217
24099W        W83195  38.910  40.952  10.935
24100W        W83196  16.134  15.159  14.391
24101W        W83197  37.440  18.589  10.553
24102W        W83198  39.982   3.929  13.516
24103W        W83199  31.420  19.231   1.725
24104W        W83200  30.469  40.356   3.319
24105W        W83201  21.113  19.724  14.439
24106W        W83202   4.246  14.785  12.394
24107W        W83203  36.989  37.927   1.251
24108W        W83204  19.086  10.207   2.193
24109W        W83205  43.281  16.116  14.887
24110W        W83206  24.681  36.865   4.317
24111W        W83207  16.206   0.812   1.766
24112W        W83208  33.001  17.564  14.360
24113W        W83209   4.411  29.650   1.934
24114W        W83210  14.324   6.394  14.017
24115W        W83211  41.430   7.825  13.833
24116W        W83212  31.066  42.981   3.291
24117W        W83213   0.310  16.619  11.084
24118W        W83214  25.135   1.328  10.987
24119W        W83215  33.912  37.343   3.247
24120W        W83216  37.442  32.935   2.679
24121W        W83217  42.453  26.536  14.883
24122W        W83218  40.355  36.497  11.973
24123W        W83219  36.433   1.374   2.885
24124W        W83220  25.189   7.718  13.526
24125W        W83221   3.725  36.960  12.494
24126W        W83222   7.294  21.219  14.767
24127W        W83223  15.789  14.234   1.909
24128W        W83224  24.624  16.695   3.180
24129W        W83225  36.556   6.269   2.320
24130W        W83226  23.734  24.998  14.794
24131W        W83227  32.952  34.491  10.478
24132W        W83228   5.193  38.412  10.986
24133W        W83229  22.572  32.537  14.392
24134W        W83230   9.168  18.091  14.891
24135W        W83231  43.366   4.766  11.472
24136W        W83232  13.688  38.938   4.284
24137W        W83233  38.560  24.646   0.884
24138W        W83234  16.668  30.953   2.715
24139W        W83235  29.936  20.106  10.607
24140W        W83236  34.511  31.903   0.822
24141W        W83237  34.121   1.810  11.872
24142W        W83238   1.474  20.084  10.952
24143W        W83239   2.236  36.571   3.830
24144W        W83240  36.930   9.378  11.575
24145W        W83241  24.129   1.290  12.465
24146W        W83242  39.000  37.345   2.834
24147W        W83243  39.333  27.493  14.495
24148W        W83244  14.627  30.156  14.787
24149W        W83245  24.144  17.194  10.074
24150W        W83246  44.356  38.012   1.401
24151W        W83247  21.077  33.509   0.921
24152W        W83248  21.677  42.341   4.181
24153W        W83249  30.612  15.803   0.466
24154W        W83250  17.279  34.999   2.260
24155W        W83251  31.432  44.774   3.790
24156W        W83252  20.748   4.718   1.282
24157W        W83253  15.172  44.865  10.574
24158W        W83254  33.989  34.883  14.938
24159W        W83255   2.930  13.762   1.331
24160W        W83256   5.371  22.723  12.065
24161W        W83257  11.245  43.840   3.657
24162W        W83258  40.999  29.141  14.848
24163W        W83259  44.771   3.877   4.143
24164W        W83260  40.967   5.341  10.998
24165W        W83261  36.431  32.489   1.362
24166W        W83262  26.595  41.331  10.095
24167W        W83263  19.619  36.844  13.792
24168W        W83264  41.500  12.337  10.432
24169W        W83265  13.148  24.525  10.980
24170W        W83266   9.376  16.257   2.264
24171W        W83267   9.315  10.234  10.902
24172W        W83268  32.002   6.916  12.033
24173W        W83269   7.383   5.380  13.520
24174W        W83270  13.608  33.578   1.286
24175W        W83271  28.178  35.034   1.861
24176W        W83272  39.815  42.835   3.864
24177W        W83273  32.530  43.003  14.346
24178W        W83274   0.946   9.162  13.860
24179W        W83275  13.749  42.949  11.582
24180W        W83276  41.802  10.210   1.409
24181W        W83277   2.946  22.104   1.224
24182W        W83278  25.610  12.748   3.216
24183W        W83279  41.021   9.248  11.521
24184W        W83280  22.055  38.065  11.387
24185W        W83281  41.973   1.381   2.330
24186W        W83282  12.205   6.334  13.883
24187W        W83283  36.417  32.035   3.634
24188W        W83284  29.587  40.448   2.663
24189W        W83285  42.401   9.249  14.466
24190W        W83286  34.468  18.683   1.211
24191W        W83287  29.102  37.026  12.041
24192W        W83288  27.675  11.866   2.768
24193W        W83289  30.019  43.339   4.747
24194W        W83290  20.654  37.522  14.927
24195W        W83291  16.567   8.160   4.785
24196W        W83292  20.660  42.962  10.936
24197W        W83293  12.669  17.775   2.777
24198W        W83294   0.904  12.840  14.841
24199W        W83295  34.379  18.685   9.962
24200W        W83296  44.927  30.512  13.492
24201W        W83297  34.579  41.963   3.211
24202W        W83298   7.831  25.702  11.948
24203W        W83299  17.188  19.092   0.301
24204W        W83300   3.813  10.216   4.231
24205W        W83301  29.990  15.191   3.816
24206W        W83302   5.432   8.735  10.414
24207W        W83303  18.113  13.672  13.046
24208W        W83304  17.671  13.334  10.415
24209W        W83305  35.003   9.296  14.810
24210W        W83306  33.443   1.464  14.989
24211W        W83307  20.659  23.559   3.670
24212W        W83308  31.059  31.514   1.867
24213W        W83309  24.725  14.332   0.919
24214W        W83310   9.238  35.480   3.294
24215W        W83311  16.760   1.380  12.078
24216W        W83312   5.759   5.721   3.644
24217W        W83313  43.872   3.317  14.867
24218W        W83314  21.034  28.452  14.302
24219W        W83315  21.246  29.148  11.907
24220W        W83316  31.631  12.282  13.391
24221W        W83317  24.541  24.132   0.431
24222W        W83318   9.706  17.598   2.244
24223W        W83319  28.074   7.693  14.368
24224W        W83320  29.488  37.498   0.874
24225W        W83321  32.506  25.619   3.350
24226W        W83322  32.001   0.968   5.085
24227W        W83323  20.563  38.980  12.860
24228W        W83324  25.977  10.262   1.924
24229W        W83325  38.547   7.412  11.127
24230W        W83326  44.758  33.063   2.333
24231W        W83327   9.273   2.460  11.549
24232W        W83328  43.970  34.022  12.854
24233W        W83329  28.527  27.453  12.884
24234W        W83330  10.844   1.757  10.912
24235W        W83331  29.597  26.461  10.501
24236W        W83332  14.659  18.161  13.860
24237W        W83333  16.121  13.189   3.239
24238W        W83334   1.887  43.365   1.251
24239W        W83335  33.426   4.906  13.039
24240W        W83336  35.050  40.493   5.206
24241W        W83337  17.241  15.814  10.140
24242W        W83338  17.215  15.152  10.955
24243W        W83339  28.446  17.154  14.433
24244W        W83340  17.237  17.072   1.375
24245W        W83341  24.110  13.824   4.319
24246W        W83342  14.129  24.182   0.454
24247W        W83343  12.672   6.744   4.341
24248W        W83344  34.539  26.577  11.000
24249W        W83345  35.560  36.860   2.848
24250W        W83346  34.869   2.867  13.507
24251W        W83347  19.099  41.827  13.312
24252W        W83348  10.783  33.042  10.997
24253W        W83349  33.961   0.938   1.308
24254W        W83350  12.159  17.225   2.362
24255W        W83351  18.075  28.488  13.001
24256W        W83352  39.952  23.150  13.423
24257W        W83353  43.308  30.524   5.315
24258W        W83354   4.426   0.846   3.704
24259W        W83355  35.003  35.949  12.375
24260W        W83356  27.142  33.074   0.363
24261W        W83357  36.518  22.666   1.303
24262W        W83358   7.400  32.402  14.411
24263W        W83359  34.953  17.289   1.222
24264W        W83360  16.746  35.071   3.860
24265W        W83361  12.807  32.914  14.467
24266W        W83362  40.541  30.075  10.931
24267W        W83363  24.144  20.589  13.314
24268W        W83364  19.162   9.243   0.379
24269W        W83365  12.313  18.289   5.081
24270W        W83366  30.481  25.029   9.495
24271W        W83367  39.865  32.105  14.767
24272W        W83368  39.372   0.856  13.817
24273W        W83369  15.732  16.803   4.713
24274W        W83370  27.149  10.171   1.935
24275W        W83371  15.126  38.043   2.384
24276W        W83372  16.223   3.883   2.806
24277W        W83373  33.053   0.451   0.790
24278W        W83374  23.071  32.015  12.084
24279W        W83375  24.089  17.638  10.998
24280W        W83376  21.074  43.851   2.195
24281W        W83377  40.459  21.695  12.995
24282W        W83378   9.290  21.120   4.150
24283W        W83379  26.073  22.174  12.931
24284W        W83380   3.921  40.544  13.921
24285W        W83381  21.131  26.051  11.443
24286W        W83382  31.037  25.062  11.519
24287W        W83383  38.035  20.227  11.105
24288W        W83384  38.471  42.944  12.034
24289W        W83385  13.201  16.737  12.047
24290W        W83386  27.552  39.437   1.725
24291W        W83387   3.404  16.794   9.990
24292W        W83388  26.014  30.908   1.316
24293W        W83389  42.881   5.687   1.764
24294W        W83390  21.254  13.604  11.377
24295W        W83391   5.779  16.735   3.724
24296W        W83392   9.199  20.742  11.079
24297W        W83393  18.585  34.935  11.933
24298W        W83394   2.844  12.218   1.845
24299W        W83395   3.832  40.499  11.993
24300W        W83396   6.198  19.695   1.792
24301W        W83397  39.817   1.905   0.453
24302W        W83398  40.481  26.645  11.106
24303W        W83399  33.970  17.169  12.382
24304W        W83400   7.736  34.484   3.192
24305W        W83401  33.985  30.580   4.226
24306W        W83402  36.535  15.793  12.854
24307W        W83403  37.537  40.417  11.400
24308W        W83404  32.475  14.101  14.312
24309W        W83405  42.396  22.140   0.865
24310W        W83406   8.851   3.240  13.377
24311W        W83407   7.373  28.458   2.241
24312W        W83408  35.868   4.704   4.320
24313W        W83409  24.630  43.776   3.279
24314W        W83410  37.086  43.946   0.806
24315W        W83411  14.168   7.189   4.685
24316W        W83412   3.445   2.326  13.463
24317W        W83413  42.306   1.863  12.828
24318W        W83414  17.127  15.116  12.835
24319W        W83415  21.173  15.766   4.617
24320W        W83416  20.640  26.539  11.971
24321W        W83417  22.517  39.940   0.929
24322W        W83418  18.208   6.197   1.416
24323W        W83419  12.640  33.517   2.744
24324W        W83420  10.171  33.891   0.347
24325W        W83421  37.990  34.933   4.143
24326W        W83422  35.024  21.602   3.365
24327W        W83423   3.453  35.389  14.893
24328W        W83424  20.577  24.133   3.355
24329W        W83425  29.173  22.233   2.871
24330W        W83426  29.986  24.197  11.900
24331W        W83427   2.746  19.272   2.198
24332W        W83428   5.428  34.983   2.275
24333W        W83429  27.132  24.499   2.730
24334W        W83430  42.790   7.173   1.762
24335W        W83431   8.800  42.379  13.457
24336W        W83432  30.106  26.701  11.398
24337W        W83433  44.821  42.454   1.882
24338W        W83434  23.169  22.727   1.897
24339W        W83435  22.230  33.427  13.842
24340W        W83436  24.504  38.442   4.626
24341W        W83437  40.845  11.178  12.430
24342W        W83438   8.746  27.990   2.295
24343W        W83439  13.255   0.837   3.167
24344W        W83440  37.058  40.474  10.998
24345W        W83441  33.533   0.491   3.155
24346W        W83442  17.596  24.162  12.897
24347W        W83443  39.543  38.859   4.778
24348W        W83444  12.361  12.656  11.989
24349W        W83445  18.747  26.081  14.425
24350W        W83446  12.195  26.590  10.117
24351W        W83447  42.927  19.738   1.238
24352W        W83448   9.300  12.793  10.111
24353W        W83449  13.308  31.567   2.396
24354W        W83450  39.978  25.192   0.888
24355W        W83451  11.160  22.022   0.389
24356W        W83452  39.471  39.854  13.489
24357W        W83453   9.309   4.832  12.512
24358W        W83454  33.384  32.980  14.295
24359W        W83455  24.075   8.348   9.490
24360W        W83456  41.378  40.306  13.948
24361W        W83457  31.123  31.969  14.945
24362W        W83458  27.580  10.647  11.872
24363W        W83459  11.261  25.082   2.686
24364W        W83460   3.400  40.054  13.886
24365W        W83461  34.088   9.263  14.862
24366W        W83462  12.180  15.607  13.467
24367W        W83463  44.876  38.450  13.914
24368W        W83464  13.135  20.084   2.774
24369W        W83465   2.455  11.852   1.305
24370W        W83466  40.946  37.396  11.969
24371W        W83467  20.767   4.900   3.740
24372W        W83468  21.062  25.701   5.282
24373W        W83469  31.080  42.984  11.396
24374W        W83470  20.750  40.053  13.382
24375W        W83471   0.309  15.632   4.321
24376W        W83472  29.990  37.032  13.346
24377W        W83473  42.998   7.299   2.311
24378W        W83474  36.372  16.606   5.613
24379W        W83475  19.210  41.321  12.028
24380W        W83476  28.955   4.388  13.497
24381W        W83477  37.032  20.555  13.834
24382W        W83478   4.827  16.182   1.925
24383W        W83479   7.171  23.156   0.274
24384W        W83480  31.061  30.082   0.787
24385W        W83481  10.868  35.970  11.557
24386W        W83482  28.106  43.498  14.865
24387W        W83483  37.003  34.042  12.572
24388W        W83484  32.612  31.929   1.892
24389W        W83485  31.995  33.557  12.505
24390W        W83486  25.507  10.233   2.283
24391W        W83487   4.814  41.025  14.963
24392W        W83488  23.664   8.392  13.484
24393W        W83489  11.319  30.979   3.287
24394W        W83490  41.006  20.042   2.185
24395W        W83491  35.455   3.783  12.988
24396W        W83492   7.243   3.216   1.295
24397W        W83493  21.609  14.110   0.288
24398W        W83494  13.161  13.842   2.824
24399W        W83495  18.586  38.409   4.126
24400W        W83496  24.121  42.302  12.979
24401W        W83497  16.620  28.512   3.869
24402W        W83498  41.442  13.635  10.961
24403W        W83499  36.562  16.633  14.943
24404W        W83500  29.044  12.283  13.834
24405W        W83501  15.692   9.763  12.066
24406W        W83502   4.846  12.804  14.885
24407W        W83503  27.024  27.123   4.750
24408W        W83504  37.986   0.845   0.933
24409W        W83505   5.382  15.283  14.908
24410W        W83506  34.600  31.534  14.504
24411W        W83507  40.342  22.082  14.316
24412W        W83508  30.550  44.501   0.908
24413W        W83509  23.733  13.185  11.547
24414W        W83510  21.232  35.075   4.613
24415W        W83511   4.418  34.916  14.811
24416W        W83512  44.778  21.647   2.877
24417W        W83513  44.412  25.500   1.854
24418W        W83514  11.332  44.498  11.466
24419W        W83515  13.626  38.435  13.320
24420W        W83516  30.057  42.311   1.715
24421W        W83517  18.557  25.998  10.910
24422W        W83518  33.559  37.020  10.434
24423W        W83519  21.713  38.327  12.016
24424W        W83520  14.249  15.732   2.804
24425W        W83521  38.902  24.617   4.671
24426W        W83522  38.865  24.687  14.400
24427W        W83523  13.843  39.484   3.696
24428W        W83524  42.964   4.746   0.747
24429W        W83525  42.900  38.382   4.121
24430W        W83526  40.429   5.913   2.718
24431W        W83527  23.078  23.714  13.432
24432W        W83528   9.829  40.423  11.507
24433W        W83529  14.775   0.365  10.505
24434W        W83530   7.826  32.495   0.386
24435W        W83531  16.201  14.309  14.963
24436W        W83532  21.652  16.708  12.083
24437W        W83533  19.600  37.879  12.427
24438W        W83534  28.662  29.442  11.013
24439W        W83535  36.049   9.356  10.128
24440W        W83536   4.756  10.820  10.517
24441W        W83537  22.082  10.378  14.389
24442W        W83538  26.028  21.532  12.511
24443W        W83539  14.716  43.431  10.962
24444W        W83540  27.019  35.424   4.612
24445W        W83541  20.186   8.213   2.193
24446W        W83542  21.732  36.545  12.912
24447W        W83543  29.160   3.227  12.366
24448W        W83544   3.289  36.461  14.840
24449W        W83545  44.363  43.804   2.234
24450W        W83546  31.094  23.539   3.283
24451W        W83547  44.493  21.151  11.088
24452W        W83548  18.704  20.107   2.755
24453W        W83549  30.008  34.487  10.146
24454W        W83550  31.083  11.631   3.667
24455W        W83551   6.261  17.774  12.394
24456W        W83552  29.535  43.979  13.857
24457W        W83553   6.212  20.226  11.599
24458W        W83554  22.157   0.977   0.253
24459W        W83555  36.937  44.875   4.816
24460W        W83556   9.241  39.985   1.744
24461W        W83557  40.519   0.908  10.126
24462W        W83558  28.022   4.255  14.822
24463W        W83559   2.916  43.314   1.812
24464W        W83560  10.673  16.774  14.980
24465W        W83561  10.339  14.658  11.548
24466W        W83562  15.763  17.126   4.713
24467W        W83563  44.300   6.748   3.763
24468W        W83564  28.504   4.800   3.303
24469W        W83565  25.502  42.924  10.418
24470W        W83566   5.829  14.205   1.364
24471W        W83567   4.313  12.212   1.432
24472W        W83568  27.466  10.185  13.885
24473W        W83569  36.980  21.613  12.928
24474W        W83570   2.799  23.534  11.374
24475W        W83571  19.182  42.029  10.502
24476W        W83572   9.389   6.679  12.895
24477W        W83573  38.053  35.977   2.785
24478W        W83574  44.822  43.841   4.291
24479W        W83575  33.535  41.810  14.857
24480W        W83576  29.613  17.167   4.805
24481W        W83577  20.542  37.352   5.094
24482W        W83578  29.103  31.042  10.536
24483W        W83579  11.218   7.243  11.901
24484W        W83580   9.720   9.772  14.761
24485W        W83581  16.777  10.798  14.300
24486W        W83582  16.164  31.593   3.845
24487W        W83583  38.548   0.821  14.405
24488W        W83584  40.902  36.916   0.351
24489W        W83585  40.995  25.152  12.078
24490W        W83586   9.730  34.460  12.548
24491W        W83587   6.750  34.011  11.937
24492W        W83588  32.996   0.916  10.921
24493W        W83589  17.783  28.051   4.820
24494W        W83590  33.503   3.918  14.403
24495W        W83591  14.788  21.690   0.385
24496W        W83592   4.355   8.735   1.784
24497W        W83593   4.284  34.900   0.780
24498W        W83594  24.992  38.027  11.411
24499W        W83595   4.263  38.528  10.546
24500W        W83596  16.085  25.608  14.925
24501W        W83597   7.696  13.606  12.484
24502W        W83598   3.430  33.401   0.796
24503W        W83599   0.316  18.767  10.555
24504W        W83600  41.467  41.811   0.767
24505W        W83601  38.358  33.035  14.464
24506W        W83602  12.330  32.067  12.844
24507W        W83603  21.721  23.117  14.419
24508W        W83604   5.227  27.580   0.287
24509W        W83605   6.387  29.976  13.058
24510W        W83606   1.435  33.614  12.471
24511W        W83607  22.679  14.792  12.982
24512W        W83608  36.841   6.259   3.150
24513W        W83609   1.435   1.750   3.268
24514W        W83610  44.801  12.657  14.900
24515W        W83611   4.903   2.323   1.782
24516W        W83612  15.668  31.037  10.473
24517W        W83613  24.987   6.722   2.800
24518W        W83614  21.533  23.491  12.015
24519W        W83615  42.007   8.178  13.529
24520W        W83616  22.070  14.702   3.819
24521W        W83617   5.857   0.335  13.448
24522W        W83618  38.375  42.008   0.806
24523W        W83619  34.572  10.657   1.263
24524W        W83620   1.354   4.720  11.558
24525W        W83621  23.154  25.546   4.617
24526W        W83622  20.047  11.216   2.275
24527W        W83623  12.656  24.703  14.424
24528W        W83624  16.650  31.985  10.042
24529W        W83625  39.875  35.049   1.281
24530W        W83626   9.277  32.116   2.839
24531W        W83627  38.397  40.469  12.981
24532W        W83628  29.575   9.714  12.033
24533W        W83629   9.761   1.288  14.782
24534W        W83630  18.579  44.415   1.269
24535W        W83631  33.610  25.999  11.587
24536W        W83632  34.375  15.151   2.718
24537W        W83633  21.166  29.936  13.419
24538W        W83634   5.290  10.860  11.008
24539W        W83635  37.575   5.425  10.500
24540W        W83636  44.886   9.881   0.760
24541W        W83637  10.357  38.936  12.962
24542W        W83638  42.829   4.423   1.884
24543W        W83639  13.287  19.201  14.955
24544W        W83640  36.058  26.649   1.211
24545W        W83641   9.309  41.507  11.601
24546W        W83642  28.519  31.621  11.591
24547W        W83643  40.424   8.222  10.543
24548W        W83644  33.533  14.300  12.951
24549W        W83645  11.254  33.394  13.851
24550W        W83646  34.093  41.492   1.240
24551W        W83647  40.382  43.815   2.719
24552W        W83648  35.361   2.381  14.947
24553W        W83649  36.012  17.206  14.990
24554W        W83650   1.383  37.841  14.821
24555W        W83651  25.585  19.571  12.086
24556W        W83652  31.126  44.960   1.303
24557W        W83653  19.156   7.814  13.989
24558W        W83654  42.823  20.611  14.977
24559W        W83655  19.140   3.836   0.370
24560W        W83656  11.317  42.512   1.779
24561W        W83657  34.579   1.851   4.234
24562W        W83658  30.470  37.556   1.735
24563W        W83659  39.453  28.648   1.329
24564W        W83660  17.104   7.186   5.318
24565W        W83661  38.825  20.664  13.878
24566W        W83662  20.725  34.557   3.842
24567W        W83663  29.991  34.020   4.748
24568W        W83664  11.707  42.847   4.354
24569W        W83665   8.376  28.031  11.944
24570W        W83666   2.332  44.345   1.273
24571W        W83667  30.441  16.187  14.027
24572W        W83668  26.044   7.892  11.608
24573W        W83669  31.938  24.504   0.882
24574W        W83670  30.944   3.420   2.190
24575W        W83671  37.010  27.176  14.764
24576W        W83672  15.299  20.661   0.815
24577W        W83673  18.623  31.536  10.440
24578W        W83674   2.345   5.859   3.384
24579W        W83675  12.127  35.590   3.211
24580W        W83676  35.529  16.198  14.917
24581W        W83677   3.240  41.315  11.040
24582W        W83678  14.143  35.093  12.824
24583W        W83679  20.669  32.887  12.956
24584W        W83680  34.410  17.082   0.379
24585W        W83681  36.933  21.151  14.448
24586W        W83682  22.589  11.826   3.218
24587W        W83683  33.118   1.314  13.368
24588W        W83684  40.535   5.869   3.281
24589W        W83685   9.700  43.513  13.491
24590W        W83686  37.455   5.365   1.404
24591W        W83687   5.764  42.501  11.444
24592W        W83688  16.676  21.170  14.488
24593W        W83689  28.988  13.619   0.347
24594W        W83690  35.966  42.957  12.425
24595W        W83691   0.800   8.366   1.830
24596W        W83692  11.632  21.612   2.887
24597W        W83693  31.958  15.152   2.894
24598W        W83694  44.840   8.726  14.340
24599W        W83695  14.676  25.546   2.813
24600W        W83696  28.483   1.828   4.671
24601W        W83697   2.914  17.264   1.437
24602W        W83698  32.911  40.497   1.223
24603W        W83699  28.633  33.923   4.170
24604W        W83700  35.891  30.602  10.472
24605W        W83701  22.678  19.658  12.465
24606W        W83702  16.594   7.797   3.631
24607W        W83703  28.555  22.594  12.876
24608W        W83704  12.759  29.079  11.987
24609W        W83705  21.733  39.057   3.209
24610W        W83706   4.884  39.412   4.164
24611W        W83707   4.880  30.103  13.032
24612W        W83708   6.349  20.668   4.254
24613W        W83709  34.999  42.299   4.287
24614W        W83710  31.113  25.660   2.263
24615W        W83711  21.582  33.941  14.992
24616W        W83712  40.491   1.464  10.578
24617W        W83713   5.264  32.126  10.891
24618W        W83714  22.071  37.930  14.895
24619W        W83715   5.242   0.963   4.727
24620W        W83716  18.659   8.829  12.574
24621W        W83717  21.245  17.715   3.372
24622W        W83718   6.716  15.264   2.667
24623W        W83719  30.108   8.370   4.195
24624W        W83720  41.867  25.713   1.338
24625W        W83721  23.517  28.581   2.280
24626W        W83722  18.787  30.916  12.468
24627W        W83723  26.681  20.631   5.623
24628W        W83724  40.051  21.263  10.588
24629W        W83725  10.753  17.645  10.896
24630W        W83726  10.824   1.769   2.836
24631W        W83727   6.850   9.769   0.825
24632W        W83728   9.350  15.729   5.686
24633W        W83729  15.186  13.288  14.359
24634W        W83730  28.100  24.645   0.352
24635W        W83731  41.340   2.272  14.496
24636W        W83732  28.514   8.845   1.428
24637W        W83733   9.196  43.511  13.420
24638W        W83734  32.433  44.761  13.427
24639W        W83735   6.341   2.426  11.375
24640W        W83736   3.856  35.368  13.840
24641W        W83737   2.240  10.195   3.284
24642W        W83738  12.251  36.047  11.011
24643W        W83739  22.720  13.325   0.290
24644W        W83740   8.768  35.432   3.661
24645W        W83741   9.800  20.139   0.944
24646W        W83742  42.809  37.419  14.318
24647W        W83743  30.058   5.719   0.344
24648W        W83744  44.957   9.211   1.867
24649W        W83745   1.278  16.780   0.443
24650W        W83746  29.641  41.946   0.874
24651W        W83747  12.272  10.289  12.826
24652W        W83748  24.690  29.617  14.992
24653W        W83749  13.306   2.407   4.745
24654W        W83750  29.535  22.128  13.370
24655W        W83751  36.014  31.641  14.895
24656W        W83752  14.296  20.693  13.351
24657W        W83753   5.213  26.141   2.243
24658W        W83754   0.951  25.582  14.414
24659W        W83755  13.718  15.128  11.566
24660W        W83756   7.327  44.291  11.925
24661W        W83757  27.583  26.691   5.119
24662W        W83758   7.743  22.101  12.446
24663W        W83759  34.567  22.716   1.232
24664W        W83760  42.355  36.370  14.516
24665W        W83761  33.082  28.093   2.806
24666W        W83762  17.617  17.139   0.361
24667W        W83763  43.439  11.143  13.792
24668W        W83764  41.961  26.521  14.004
24669W        W83765   9.708   2.748   4.155
24670W        W83766  37.547  20.156   2.808
24671W        W83767  25.177  12.350   3.265
24672W        W83768  17.794   4.839  14.922
24673W        W83769  24.230  29.602  14.966
24674W        W83770  23.627  35.479  12.985
24675W        W83771  22.533  21.699   3.814
24676W        W83772   4.874  36.521  11.947
24677W        W83773  33.037   2.814   0.745
24678W        W83774  23.599  25.126  13.973
24679W        W83775   9.240  21.257  12.831
24680W        W83776  28.058  30.934   1.885
24681W        W83777  23.129  36.943   2.692
24682W        W83778  28.652   6.240   4.691
24683W        W83779  27.592  30.604  12.931
24684W        W83780  16.769  35.065  13.354
24685W        W83781  34.515   1.883  14.455
24686W        W83782  32.632   2.246   2.751
24687W        W83783   5.694   7.746  11.096
24688W        W83784  23.130  28.104  11.003
24689W        W83785  19.143  13.601  10.924
24690W        W83786  12.678   1.783  12.452
24691W        W83787   4.219  17.660   2.675
24692W        W83788  43.385  24.649   2.187
24693W        W83789  25.571  11.662   1.754
24694W        W83790   2.882   1.746   1.276
24695W        W83791  39.494   9.718   0.254
24696W        W83792  29.615   0.855  12.358
24697W        W83793  25.164  44.341   2.392
24698W        W83794  31.586  14.124   2.790
24699W        W83795   6.416  42.420  14.476
24700W        W83796   8.369   6.278  11.544
24701W        W83797  39.814  32.933   3.224
24702W        W83798  42.989  24.125   1.746
24703W        W83799  27.454   5.281   2.310
24704W        W83800  40.471  41.316  12.351
24705W        W83801   9.741  32.521  13.020
24706W        W83802  13.839   4.888   0.939
24707W        W83803  43.824   0.858  12.999
24708W        W83804  19.718  41.461   4.269
24709W        W83805  41.520  39.959  13.351
24710W        W83806  33.951  10.770   0.906
24711W        W83807   7.853  39.456   1.776
24712W        W83808  37.551  22.731   4.835
24713W        W83809  17.780  27.446  10.409
24714W        W83810   3.950  43.842  11.608
24715W        W83811  13.265   9.703   2.809
24716W        W83812  26.998   1.890  14.870
24717W        W83813  11.695   6.682   0.298
24718W        W83814  27.126  18.587  13.910
24719W        W83815   0.287  37.083   1.775
24720W        W83816  38.073  11.796   2.370
24721W        W83817  39.907  29.137  14.959
24722W        W83818   5.747  12.142   4.785
24723W        W83819  14.738  11.213   1.433
24724W        W83820   9.670  27.950  11.540
24725W        W83821  19.094  41.508  10.900
24726W        W83822  20.695  38.440  11.920
24727W        W83823  31.572  20.758  11.049
24728W        W83824  35.406  11.211   9.499
24729W        W83825  32.581  35.377  14.873
24730W        W83826  25.544  27.473  12.433
24731W        W83827   5.294  27.536   2.804
24732W        W83828  23.232  37.944  10.408
24733W        W83829   6.699  18.190  11.447
24734W        W83830  40.850  23.689  12.569
24735W        W83831   4.380  13.144  14.449
24736W        W83832   0.355  25.598   3.796
24737W        W83833  31.094  34.955  13.031
24738W        W83834  22.100  31.066   0.806
24739W        W83835  16.688  22.588  11.549
24740W        W83836  41.396  14.229  12.573
24741W        W83837   4.431  33.436   0.832
24742W        W83838  37.959  43.406  14.425
24743W        W83839  34.024  39.353   1.282
24744W        W83840   4.442   5.279  13.872
24745W        W83841   0.480  31.986   4.138
24746W        W83842   2.452   6.418  13.807
24747W        W83843  36.456   2.236   0.368
24748W        W83844  29.126   1.957  10.608
24749W        W83845  40.549  41.990   3.243
24750W        W83846  23.566   7.791   1.315
24751W        W83847   3.278  41.462  12.999
24752W        W83848   5.402   4.901  11.943
24753W        W83849  31.909  27.502   2.697
24754W        W83850   2.807  44.446   0.758
24755W        W83851  21.078  43.779  14.836
24756W        W83852  23.136  17.075  13.438
24757W        W83853  12.614  39.552   4.661
24758W        W83854  12.269  43.462  14.384
24759W        W83855   3.348  34.505  11.539
24760W        W83856  19.660   0.885  12.983
24761W        W83857  28.973  10.202   4.228
24762W        W83858   7.736  11.318  13.877
24763W        W83859  25.676  41.008  13.953
24764W        W83860  42.008   3.936   3.349
24765W        W83861  10.195   6.319   5.115
24766W        W83862   2.383  19.124  12.963
24767W        W83863  29.051  16.585  12.015
24768W        W83864   7.840  24.606  14.806
24769W        W83865   2.803  31.602  10.495
24770W        W83866  24.647   2.328   3.241
24771W        W83867  19.178   4.329   0.925
24772W        W83868  14.698  11.632  10.630
24773W        W83869  44.306   3.409   0.357
24774W        W83870  37.911   6.778  10.477
24775W        W83871   3.755  18.154   0.405
24776W        W83872  11.769  40.859  14.799
24777W        W83873  16.144  44.441   3.241
24778W        W83874  22.551  40.038  14.481
24779W        W83875  17.651   3.915  11.564
24780W        W83876  29.667  31.621   4.216
24781W        W83877  22.602  41.838   2.377
24782W        W83878  35.390  23.210  11.055
24783W        W83879  31.620  43.920  14.471
24784W        W83880  13.237  35.082   5.244
24785W        W83881  33.420  40.315   3.336
24786W        W83882   1.425   7.289  12.509
24787W        W83883  23.495  31.965   1.298
24788W        W83884  16.660  27.581  11.048
24789W        W83885  31.558  23.138   4.724
24790W        W83886  29.075   7.776  12.423
24791W        W83887   2.840  28.929   2.234
24792W        W83888  24.545  31.481   0.731
24793W        W83889  31.452   3.430  14.435
24794W        W83890  42.794  41.978  10.414
24795W        W83891  20.273   7.203  12.504
24796W        W83892  36.940  31.539  13.948
24797W        W83893  12.849  30.477   2.401
24798W        W83894  22.675  29.447   2.672
24799W        W83895  26.981   0.938   3.842
24800W        W83896   4.324  37.550   3.214
24801W        W83897  25.193  17.122   1.345
24802W        W83898  40.806  13.742   2.303
24803W        W83899  21.254  17.740   3.862
24804W        W83900  32.558   7.907   2.376
24805W        W83901  35.388  25.214   3.810
24806W        W83902  40.431  36.424  14.964
24807W        W83903  18.225   3.450  10.995
24808W        W83904  29.644  14.334   9.985
24809W        W83905  44.869  43.304  10.992
24810W        W83906  44.375  39.061  14.294
24811W        W83907  19.759  29.132  12.069
24812W        W83908  20.113  42.366  11.931
24813W        W83909   6.266  18.259   0.734
24814W        W83910   4.313  16.241  10.452
24815W        W83911  40.512   2.957   2.760
24816W        W83912  12.717  15.263  13.458
24817W        W83913  13.122  12.213  10.633
24818W        W83914  21.233  19.730  13.531
24819W        W83915  30.944  31.468  13.354
24820W        W83916  43.476  35.376  11.080
24821W        W83917  40.958  24.158  14.346
24822W        W83918  27.140  11.752  13.010
24823W        W83919  27.951  40.973  14.936
24824W        W83920  31.004  11.840   1.917
24825W        W83921  28.436  21.181  13.495
24826W        W83922  41.831  39.837  13.018
24827W        W83923  26.632  30.967  13.410
24828W        W83924  20.644  11.676   5.301
24829W        W83925   0.939  13.105  13.871
24830W        W83926  17.589  25.568   3.383
24831W        W83927  29.438  32.960  13.892
24832W        W83928  36.009   0.420  11.413
24833W        W83929  30.112  23.097  13.969
24834W        W83930  33.980  19.739  13.408
24835W        W83931  29.952   8.852  10.924
24836W        W83932  27.116  29.110   0.922
24837W        W83933  39.944  44.810  11.126
24838W        W83934  37.969  27.983  14.456
24839W        W83935  10.769  24.599   4.778
24840W        W83936  37.055   3.823  13.858
24841W        W83937  34.938  13.802   1.441
24842W        W83938  18.570   2.231   3.818
24843W        W83939  42.950  44.826   1.283
24844W        W83940  15.116  32.035  13.507
24845W        W83941  33.115  21.751  11.410
24846W        W83942  17.725  17.193  14.781
24847W        W83943  38.030  40.369   4.246
24848W        W83944  38.895   7.754   1.927
24849W        W83945  41.393  22.081   2.244
24850W        W83946  15.654  31.418  12.031
24851W        W83947   7.311  23.087   2.252
24852W        W83948   7.667  38.933   4.675
24853W        W83949  32.031  35.925   1.773
24854W        W83950  44.332  27.104   4.149
24855W        W83951  24.560   9.336   1.757
24856W        W83952   1.369  33.997   3.744
24857W        W83953  39.449   7.358  11.387
24858W        W83954   3.225   4.333   3.807
24859W        W83955  30.635  44.871   0.737
24860W        W83956  43.278  11.187   2.808
24861W        W83957  13.300  18.754   1.236
24862W        W83958  26.680  26.020   4.711
24863W        W83959   0.814  11.690  10.026
24864W        W83960  11.213   5.237  10.526
24865W        W83961  27.566   3.730   1.841
24866W        W83962  38.048  18.096  11.093
24867W        W83963   4.839  41.311  11.018
24868W        W83964  36.053  24.495   4.113
24869W        W83965  36.067  37.009   3.280
24870W        W83966  12.221  12.320   4.749
24871W        W83967  32.421  38.010  14.776
24872W        W83968  37.981  38.510   2.706
24873W        W83969  23.528   3.955   2.368
24874W        W83970  34.528  35.469   1.894
24875W        W83971  39.027   5.844   2.730
24876W        W83972   4.332  44.498   3.630
24877W        W83973  38.912   2.313   3.379
24878W        W83974  22.522  25.667  14.514
24879W        W83975  29.979   0.905  14.944
24880W        W83976  43.812  40.433  13.028
24881W        W83977  21.184  35.059  12.559
24882W        W83978  20.251  34.520  11.003
24883W        W83979  32.070   6.210   4.124
24884W        W83980  36.868  37.401  14.340
24885W        W83981   2.891   5.886  11.952
24886W        W83982  10.163   2.903  13.382
24887W        W83983   9.380  26.666  11.054
24888W        W83984   4.365  37.463   4.767
24889W        W83985  29.118  39.388   2.388
24890W        W83986   9.186  29.575  12.090
24891W        W83987  28.175  32.961   2.208
24892W        W83988  36.582  34.973  12.471
24893W        W83989  14.683  40.809  14.891
24894W        W83990  36.552  26.539  12.882
24895W        W83991  23.512  39.039  14.006
24896W        W83992  39.403  12.771   4.250
24897W        W83993  26.493  30.656   2.416
24898W        W83994  25.973  14.149  14.450
24899W        W83995   0.870  30.532  12.402
24900W        W83996  43.978  36.856   1.415
24901W        W83997  29.007  41.314  10.991
24902W        W83998  25.682  17.628  12.849
24903W        W83999  17.175  21.090   2.358
24904W        W84000  29.459   6.828  13.796
24905W        W84001   0.815  10.287   0.445
24906W        W84002  19.091   2.776  10.893
24907W        W84003  42.027   1.936  10.595
24908W        W84004  30.591  17.192  13.455
24909W        W84005  13.148  22.158   4.779
24910W        W84006  13.649  40.390   3.794
24911W        W84007  16.284  44.989   1.866
24912W        W84008   4.258  32.416   3.267
24913W        W84009  35.070  21.147  11.448
24914W        W84010   4.936  40.957   4.709
24915W        W84011  34.994  32.465   1.723
24916W        W84012  23.240  16.264  11.990
24917W        W84013  21.658  39.885   1.877
24918W        W84014  29.531  21.564  10.942
24919W        W84015  32.534   4.356  10.977
24920W        W84016  16.686  16.098  10.965
24921W        W84017  12.709   3.867   1.729
24922W        W84018  28.434   4.812  11.036
24923W        W84019  14.202  24.977   3.645
24924W        W84020  20.581  36.377  13.888
24925W        W84021  40.877  26.646  11.564
24926W        W84022   4.837   4.727   2.752
24927W        W84023  17.160  38.990   1.365
24928W        W84024  16.592   0.903   3.273
24929W        W84025  28.945  18.715  13.005
24930W        W84026  31.021   9.887   3.298
24931W        W84027   9.841  44.319  11.377
24932W        W84028  13.198  41.323  14.854
24933W        W84029  37.020  26.509   1.381
24934W        W84030  39.314  16.691  11.980
24935W        W84031  12.663   3.941  12.356
24936W        W84032  32.927  23.110   0.948
24937W        W84033   7.240  20.209   1.397
24938W        W84034  31.622  37.011  12.833
24939W        W84035  25.184  39.936   0.312
24940W        W84036  29.130  25.612   1.851
24941W        W84037  36.550  39.350  12.453
24942W        W84038  33.573  27.012  14.361
24943W        W84039  15.299  15.169  13.928
24944W        W84040   5.701  21.740   0.883
24945W        W84041  20.664  13.688   2.685
24946W        W84042  44.950  31.976  12.560
24947W        W84043  25.176  40.440   1.921
24948W        W84044   4.284   3.944  14.451
24949W        W84045   6.273  42.357   1.251
24950W        W84046  39.959  43.338   1.390
24951W        W84047  44.327  13.798   2.803
24952W        W84048  14.592  17.708  14.307
24953W        W84049  39.868  31.491  13.450
24954W        W84050  16.691  36.884   3.761
24955W        W84051  44.792   5.933  14.371
24956W        W84052  11.771  37.905   4.654
24957W        W84053  34.393  11.190   0.363
24958W        W84054  40.840  29.576   2.855
24959W        W84055   9.727  19.718   4.609
24960W        W84056   4.805  25.590  10.016
24961W        W84057  37.522  41.324   4.147
24962W        W84058  30.601   3.332  14.940
24963W        W84059  22.042  34.953  10.451
24964W        W84060   2.232   7.697   0.754
24965W        W84061  31.629   8.326  11.104
24966W        W84062  44.350  17.644  13.052
24967W        W84063  38.937   2.786   9.954
24968W        W84064  17.587  42.397   4.637
24969W        W84065  42.524  11.276   1.292
24970W        W84066  30.970  19.601   2.853
24971W        W84067  34.544  40.391  14.422
24972W        W84068  32.465  11.830  11.383
24973W        W84069  34.459  10.354   0.731
24974W        W84070  19.668   2.341   0.363
24975W        W84071  10.720  20.575  12.421
24976W        W84072  38.908  12.154  14.796
24977W        W84073  13.718   2.276  12.052
24978W        W84074   0.259  24.023  11.068
24979W        W84075  39.322  25.976  11.448
24980W        W84076  21.732   0.427   1.295
24981W        W84077  29.927   0.301  11.019
24982W        W84078  19.592   7.830   5.200
24983W        W84079   6.240  17.232   2.333
24984W        W84080   3.285   2.368  11.906
24985W        W84081  40.428   6.266   1.877
24986W        W84082  32.530   8.747   0.285
24987W        W84083  26.677  31.632   0.917
24988W        W84084  27.641  24.127   0.469
24989W        W84085  33.394   8.265  12.990
24990W        W84086  14.612  35.853   1.292
24991W        W84087  34.049  38.867  14.891
24992W        W84088   5.756   3.425   3.348
24993W        W84089   7.726  26.664  10.969
24994W        W84090  26.016  39.442  10.907
24995W        W84091  24.098  35.002  10.502
24996W        W84092  34.943   7.345  10.990
24997W        W84093  39.518  29.627   0.404
24998W        W84094  36.498  40.968   4.619
24999W        W84095   2.278  10.361   0.966
25000W        W84096  42.855  37.413   2.396
25001W        W84097  20.558  29.612   0.332
25002W        W84098  13.115  31.105  11.467
25003W        W84099  32.920  30.567  14.495
25004W        W84100  30.488  33.125  13.961
25005W        W84101  31.489  26.118   2.839
25006W        W84102  36.975  10.878  14.833
25007W        W84103   2.820  22.088   0.775
25008W        W84104  44.387  44.305   3.261
25009W        W84105  27.004   0.917   2.324
25010W        W84106   4.841  35.929   0.370
25011W        W84107   4.806  23.635  12.509
25012W        W84108  43.335  15.178  13.947
25013W        W84109  12.756   9.328  12.389
25014W        W84110  25.680  25.689  10.462
25015W        W84111  13.168  34.404  14.308
25016W        W84112  21.693  41.953   4.137
25017W        W84113  29.631  24.686   3.756
25018W        W84114  16.637   6.807   0.920
25019W        W84115  15.269  11.855   2.763
25020W        W84116  19.040   4.883  12.069
25021W        W84117  28.465  20.126  12.396
25022W        W84118  33.984  43.010  13.471
25023W        W84119  14.784  33.478   2.412
25024W        W84120  21.598  13.259  10.059
25025W        W84121  28.164  25.660  13.492
25026W        W84122  18.174  22.158  13.474
25027W        W84123  41.793  18.594   1.723
25028W        W84124  44.959  39.835   3.217
25029W        W84125  44.457  11.772  13.379
25030W        W84126   8.843  23.699  11.411
25031W        W84127  36.027  36.032   3.235
25032W        W84128  41.461  21.557  12.346
25033W        W84129  25.557  18.157   1.725
25034W        W84130  35.400  41.521   1.295
25035W        W84131  10.838   9.707  12.951
25036W        W84132   4.752  10.309   0.336
25037W        W84133   8.345  17.628   3.735
25038W        W84134  10.729  21.668   0.304
25039W        W84135  28.150  16.600   1.739
25040W        W84136  13.138  13.281   2.340
25041W        W84137  37.035  17.681   1.419
25042W        W84138  22.082  12.147   2.692
25043W        W84139  17.133   2.463  10.521
25044W        W84140  10.829  31.082  12.922
25045W        W84141  35.968  19.669  11.539
25046W        W84142  42.853  28.153  12.367
25047W        W84143   4.334  32.548  14.475
25048W        W84144  21.259   7.745   4.826
25049W        W84145   4.729  13.216   2.293
25050W        W84146   6.265  28.133  10.477
25051W        W84147   5.774   0.269   0.823
25052W        W84148   8.273  31.549  14.274
25053W        W84149   4.342  34.880   4.222
25054W        W84150  20.149  27.519  10.482
25055W        W84151  25.063   8.768   2.186
25056W        W84152   7.276   5.915   1.258
25057W        W84153  11.222  22.509   3.228
25058W        W84154  11.667  25.158   2.253
25059W        W84155  19.232   4.723  10.521
25060W        W84156   4.420  41.314  10.536
25061W        W84157  42.909   3.716   2.793
25062W        W84158  33.101  37.854  12.557
25063W        W84159  38.985  15.130   0.262
25064W        W84160   6.724  17.267   4.176
25065W        W84161  41.365  32.577  12.096
25066W        W84162  41.299  12.274  13.895
25067W        W84163   6.808   4.304   1.348
25068W        W84164   0.346   0.812  13.828
25069W        W84165  33.409  18.618  10.966
25070W        W84166  37.888   0.410   9.940
25071W        W84167  40.902  17.196  14.822
25072W        W84168  24.703   4.291  12.559
25073W        W84169  27.543  14.588  14.917
25074W        W84170  32.611  21.248  10.617
25075W        W84171  34.895  16.194   0.789
25076W        W84172  36.536  43.774  10.423
25077W        W84173   2.874   9.254  13.012
25078W        W84174  42.380  30.944   0.358
25079W        W84175   3.362  36.500   2.220
25080W        W84176  31.951   7.841  12.875
25081W        W84177  19.737   3.316  10.013
25082W        W84178  18.691  23.043   2.875
25083W        W84179  33.484  34.089  10.947
25084W        W84180   6.684  27.479   1.387
25085W        W84181   0.251   0.794   0.268
25086W        W84182  38.536  43.441   0.390
25087W        W84183  21.626  32.566  12.837
25088W        W84184  37.991  13.769  14.894
25089W        W84185   2.446  14.684   0.377
25090W        W84186  14.274  44.998  14.276
25091W        W84187  30.096  21.099  10.102
25092W        W84188  43.950  18.779  10.920
25093W        W84189  44.778  38.496  11.862
25094W        W84190  10.763   6.802  10.904
25095W        W84191  38.329  23.610   0.813
25096W        W84192  34.094  22.667  13.400
25097W        W84193  41.919  10.379   4.783
25098W        W84194  13.113  20.657   4.272
25099W        W84195  12.248  31.430   0.282
25100W        W84196  18.702  37.373  13.901
25101W        W84197   0.264  30.492   0.260
25102W        W84198  33.613  34.985  12.514
25103W        W84199   6.849   3.745  12.532
25104W        W84200  26.154  34.469   2.381
25105W        W84201  27.566  34.391   0.870
25106W        W84202  32.001  34.113  10.413
25107W        W84203  15.145  35.013   0.334
25108W        W84204  40.914  33.970   3.735
25109W        W84205   4.310  25.487   0.465
25110W        W84206  31.502  10.265  11.522
25111W        W84207  35.385  15.099   0.865
25112W        W84208  23.548  31.639   3.330
25113W        W84209   7.855  18.191   1.890
25114W        W84210   1.337  31.560   4.165
25115W        W84211   9.373  39.499  14.898
25116W        W84212  30.490   8.346  11.981
25117W        W84213   0.441  10.182   3.374
25118W        W84214  38.371  24.714   4.725
25119W        W84215  44.335   5.242  13.393
25120W        W84216  12.217  10.211   3.269
25121W        W84217  11.858   1.816  10.456
25122W        W84218  24.221   3.218   4.716
25123W        W84219  44.767   4.227   2.324
25124W        W84220  34.523  11.176  14.925
25125W        W84221  35.477  24.101  14.019
25126W        W84222   4.706  23.157   3.779
25127W        W84223   1.886   0.817  11.033
25128W        W84224  18.593  20.760  14.928
25129W        W84225  31.486  39.951  14.416
25130W        W84226  29.579  14.280  10.985
25131W        W84227  16.233  20.593  13.922
25132W        W84228  39.843  39.478   3.667
25133W        W84229  15.116   0.891  13.373
25134W        W84230  35.564  19.708  11.939
25135W        W84231  35.409  24.635   3.685
25136W        W84232   0.317  12.219   3.698
25137W        W84233  27.161  27.536  10.571
25138W        W84234  23.192  12.295   2.749
25139W        W84235  17.764  13.301   3.761
25140W        W84236  12.656  11.310   4.752
25141W        W84237  17.611  40.459  13.980
25142W        W84238  34.413  44.451  11.432
25143W        W84239  20.593  20.545  12.004
25144W        W84240  32.521   6.742   4.311
25145W        W84241   1.822  25.601  14.320
25146W        W84242   0.955  22.192   2.666
25147W        W84243  34.942   7.778   4.795
25148W        W84244   7.272  37.484   1.296
25149W        W84245  14.795  18.721   3.678
25150W        W84246  39.378  27.581   3.165
25151W        W84247  25.175  38.819  11.093
25152W        W84248  23.103  11.165   3.272
25153W        W84249  16.144  32.941   0.411
25154W        W84250  10.138  35.042   2.332
25155W        W84251  39.905   1.462  12.507
25156W        W84252  21.044  32.528   3.730
25157W        W84253  40.403   5.274  11.075
25158W        W84254  38.048   9.326  14.292
25159W        W84255  25.990  31.577   2.771
25160W        W84256  43.289   2.873   3.361
25161W        W84257  21.681  43.492  10.570
25162W        W84258  14.770  18.193   0.915
25163W        W84259   3.393  20.748   2.700
25164W        W84260  31.594  32.944   1.419
25165W        W84261   0.952   4.393   3.655
25166W        W84262  11.720  41.018  10.070
25167W        W84263  13.209  40.508   5.208
25168W        W84264  32.391   8.166   4.737
25169W        W84265   1.335  19.673   3.209
25170W        W84266   3.220   3.322   2.258
25171W        W84267  19.635  18.275   0.884
25172W        W84268  42.376  15.697  11.401
25173W        W84269   0.909  18.207  14.009
25174W        W84270  32.093  42.960  11.559
25175W        W84271   2.395   9.163  13.804
25176W        W84272  42.852  20.634  14.006
25177W        W84273   5.389  24.605  12.452
25178W        W84274  31.486   8.288   0.840
25179W        W84275  32.632   8.779  13.480
25180W        W84276  22.740  23.200   4.147
25181W        W84277  42.379  29.456  14.763
25182W        W84278   6.853   0.255   2.310
25183W        W84279   3.851  27.490   1.808
25184W        W84280   3.751  41.468  12.551
25185W        W84281   4.424  13.205  12.528
25186W        W84282  23.073  19.748   5.112
25187W        W84283   5.890   4.942  12.390
25188W        W84284  18.159   5.918   4.639
25189W        W84285   1.297   8.693  11.886
25190W        W84286  40.865   1.341  11.451
25191W        W84287  15.194  17.798   9.487
25192W        W84288  28.604  20.107   3.308
25193W        W84289  17.703  38.854  13.346
25194W        W84290  10.287  32.940   1.413
25195W        W84291   7.393  22.698   3.215
25196W        W84292   4.705  18.583  13.466
25197W        W84293   7.256  39.430  12.094
25198W        W84294   1.436  22.117   3.177
25199W        W84295  24.998  39.896   4.164
25200W        W84296  11.730   5.350  14.030
25201W        W84297   6.709   5.877  13.991
25202W        W84298  20.566  11.730   2.722
25203W        W84299  18.568  41.500  14.298
25204W        W84300  30.922  33.532   5.284
25205W        W84301  27.123  19.205  11.878
25206W        W84302  30.996   9.790  14.435
25207W        W84303  41.925  39.461  12.347
25208W        W84304   9.850  11.179  11.536
25209W        W84305   5.761  38.421   2.890
25210W        W84306  14.266   0.811  10.487
25211W        W84307   1.388  29.616  12.028
25212W        W84308  33.473  30.492  12.354
25213W        W84309  15.783  14.706   0.934
25214W        W84310   0.289  13.264  12.005
25215W        W84311   3.896  38.569  11.954
25216W        W84312  13.820   5.386  13.860
25217W        W84313  18.053  18.238   3.795
25218W        W84314  28.523  22.086  13.807
25219W        W84315  18.236  41.506   4.615
25220W        W84316   9.323  39.851   0.409
25221W        W84317   5.200   6.767  11.591
25222W        W84318  19.250   3.337   2.211
25223W        W84319   5.193  28.140   0.881
25224W        W84320  32.557  15.599   3.301
25225W        W84321  41.809   5.809  11.888
25226W        W84322   7.229  23.679  12.348
25227W        W84323  40.431  23.729   0.474
25228W        W84324  17.755   0.759   4.120
25229W        W84325  16.185  42.961   4.764
25230W        W84326  21.211   2.933  14.974
25231W        W84327   6.402  19.550  13.062
25232W        W84328  41.852   6.873  12.837
25233W        W84329  14.151  35.475  10.056
25234W        W84330  23.708   3.359   1.397
25235W        W84331  31.449  35.912  10.621
25236W        W84332  44.930  40.911  10.548
25237W        W84333  16.257  15.717   1.734
25238W        W84334   7.872   6.679  10.475
25239W        W84335  27.945  41.941   4.126
25240W        W84336  30.557   1.771  12.344
25241W        W84337  42.384  25.036  13.827
25242W        W84338  30.455  10.663  10.935
25243W        W84339   4.400  30.927  13.865
25244W        W84340   6.742  38.925  10.484
25245W        W84341  41.409  11.311   1.385
25246W        W84342  25.127  32.637   3.207
25247W        W84343   7.393  18.157  10.588
25248W        W84344  42.397  35.482   4.764
25249W        W84345  29.546   6.395  11.101
25250W        W84346  30.943   1.843  10.533
25251W        W84347  31.600   9.817   0.783
25252W        W84348  10.857  27.081   1.354
25253W        W84349  20.253  41.442  13.807
25254W        W84350  29.529  27.495  10.516
25255W        W84351  20.135  32.946  11.032
25256W        W84352  37.539   4.311   0.755
25257W        W84353  16.619   0.344  12.417
25258W        W84354  20.130  44.901  10.909
25259W        W84355  22.617   7.377  12.906
25260W        W84356  27.180  44.411   9.958
25261W        W84357  23.107  13.769  12.974
25262W        W84358  41.501   1.299  10.557
25263W        W84359  41.492  36.921  14.281
25264W        W84360  41.820  19.223  10.413
25265W        W84361  30.963  15.098   4.626
25266W        W84362   7.699  40.324  14.503
25267W        W84363  40.418  40.482  10.964
25268W        W84364  22.011  20.658   0.454
25269W        W84365  41.903  41.859  13.318
25270W        W84366  20.679  28.478  14.449
25271W        W84367   9.686  35.502   4.713
25272W        W84368   8.769  23.694   1.724
25273W        W84369  24.112  32.070   3.643
25274W        W84370  11.837  12.776   4.340
25275W        W84371   7.751  41.313  11.429
25276W        W84372  37.561  34.078  12.467
25277W        W84373  34.984  38.361  10.528
25278W        W84374  37.943  36.012  10.933
25279W        W84375   6.313  13.348   1.778
25280W        W84376   8.201  11.201   1.357
25281W        W84377  25.653  43.316   3.343
25282W        W84378  44.259  33.465   2.829
25283W        W84379  44.495  40.440  13.922
25284W        W84380   4.849   6.741  10.456
25285W        W84381  43.964  32.517  10.573
25286W        W84382  44.387  40.416  10.531
25287W        W84383  25.560  11.177  11.981
25288W        W84384   9.226  10.794  14.018
25289W        W84385  16.666  13.642   2.830
25290W        W84386   3.840  36.898   4.343
25291W        W84387  24.091  38.560   3.735
25292W        W84388  42.462  17.755   1.754
25293W        W84389   3.714  15.584  12.414
25294W        W84390  36.871   3.932   3.312
25295W        W84391  22.581   5.813   1.343
25296W        W84392  14.673  12.627  14.006
25297W        W84393  23.987  27.616  14.960
25298W        W84394  27.499  40.042   2.325
25299W        W84395   3.908  19.252  14.290
25300W        W84396   9.253  32.481   0.901
25301W        W84397   3.778  27.476   2.768
25302W        W84398   9.331  41.502   0.860
25303W        W84399  42.000   5.926  13.965
25304W        W84400  40.865  22.187   2.317
25305W        W84401  16.687  32.494   1.826
25306W        W84402  14.675   5.879  14.390
25307W        W84403   1.856  22.716  11.566
25308W        W84404   4.331   9.201   4.689
25309W        W84405  33.088  29.643  12.442
25310W        W84406  13.326  15.186   3.633
25311W        W84407  44.268   0.286   0.921
25312W        W84408   0.788   1.411  13.427
25313W        W84409  35.878  21.649  11.920
25314W        W84410  26.467   0.819   4.748
25315W        W84411  21.654   8.226   9.487
25316W        W84412  33.909  20.138   0.478
25317W        W84413  18.230  44.961  11.899
25318W        W84414  21.708  44.942  14.315
25319W        W84415  27.002  35.564  14.415
25320W        W84416  17.733  42.352  13.515
25321W        W84417   8.163  29.624   1.360
25322W        W84418  34.411  23.594  11.887
25323W        W84419  10.676  27.659   2.357
25324W        W84420  18.283  16.260  11.427
25325W        W84421  41.982  12.621   9.976
25326W        W84422  16.261  32.136  11.884
25327W        W84423   0.285  43.354   4.279
25328W        W84424   4.906  41.413  10.130
25329W        W84425  13.831   0.309   4.799
25330W        W84426  21.034  31.402   0.957
25331W        W84427  28.573  23.582   0.780
25332W        W84428   4.336  26.678  13.820
25333W        W84429   0.751  11.364  12.843
25334W        W84430   2.833   2.891  12.071
25335W        W84431  25.219  33.974  14.452
25336W        W84432  35.029   8.837  10.918
25337W        W84433  44.441  41.308   9.979
25338W        W84434  19.277  14.269   0.795
25339W        W84435  40.018  11.636  12.000
25340W        W84436  25.605   1.368   1.405
25341W        W84437   1.829  10.168   0.924
25342W        W84438   8.715  43.483  13.945
25343W        W84439  34.087  16.151   2.346
25344W        W84440   3.795   6.730   4.332
25345W        W84441  30.521  38.027   0.449
25346W        W84442  24.036  38.488   4.171
25347W        W84443  20.556   8.196  11.393
25348W        W84444  36.460   4.833  11.387
25349W        W84445  13.219  11.178   0.329
25350W        W84446  38.475  44.495  11.886
25351W        W84447   5.231  33.590  11.041
25352W        W84448  29.103  20.530  11.493
25353W        W84449  10.645   1.433  14.889
25354W        W84450   1.887  28.664   0.339
25355W        W84451  29.042   1.345   4.338
25356W        W84452  10.636  19.114   3.184
25357W        W84453  22.716  13.227  12.344
25358W        W84454  20.125  10.642  11.406
25359W        W84455   0.471  19.181   3.327
25360W        W84456  18.592  25.653  12.055
25361W        W84457  37.439  40.340  12.538
25362W        W84458  16.242  13.714   0.736
25363W        W84459  17.735  42.794   2.338
25364W        W84460  30.518  24.106   0.929
25365W        W84461  37.877  28.092  11.517
25366W        W84462  10.773  37.969  13.812
25367W        W84463  39.496   9.735   2.862
25368W        W84464  17.289   6.813  14.787
25369W        W84465  23.727  15.710  11.882
25370W        W84466   2.937  21.243  11.418
25371W        W84467   4.794   6.877  11.430
25372W        W84468  39.829  31.490  11.872
25373W        W84469  43.363  12.707   4.734
25374W        W84470  18.258  17.296  14.477
25375W        W84471  10.745  37.960   4.214
25376W        W84472  19.632   1.846   1.799
25377W        W84473  42.381  40.497  13.316
25378W        W84474   8.238  40.981  14.470
25379W        W84475  16.312   3.417  12.983
25380W        W84476  32.110   3.266   0.893
25381W        W84477  39.934  26.587  12.086
25382W        W84478   8.773   5.779  14.380
25383W        W84479  30.466  44.867   0.268
25384W        W84480  28.568   4.788  12.580
25385W        W84481  29.003  36.029   0.897
25386W        W84482  14.294   0.414   1.451
25387W        W84483  19.538  40.984   1.239
25388W        W84484  21.524  24.714   3.644
25389W        W84485  23.223  20.101   0.812
25390W        W84486  36.359   5.347  12.940
25391W        W84487  26.146  40.991   2.413
25392W        W84488  24.001  13.257  12.956
25393W        W84489  11.223  16.713  14.974
25394W        W84490  18.550  32.091   0.743
25395W        W84491  23.123  37.838  11.075
25396W        W84492  36.381   2.465  11.503
25397W        W84493  20.597  21.713  13.954
25398W        W84494  40.985   6.214   3.701
25399W        W84495  19.731   3.920   1.413
25400W        W84496  44.270  21.538  13.408
25401W        W84497  29.474  12.678  10.938
25402W        W84498   0.456  40.031  11.962
25403W        W84499  29.463  21.733  10.441
25404W        W84500   8.860  35.078  10.445
25405W        W84501   1.301   1.459   1.398
25406W        W84502  43.997  21.084  13.434
25407W        W84503  36.481  23.563  11.949
25408W        W84504  23.695   8.772   3.254
25409W        W84505  16.752   5.856  11.083
25410W        W84506  15.188  15.199   5.292
25411W        W84507  23.623  34.432  13.033
25412W        W84508  33.063  43.766  11.880
25413W        W84509   2.949  27.140  10.501
25414W        W84510  26.476   3.813   1.698
25415W        W84511  14.103  38.918   0.854
25416W        W84512  16.639  43.442   2.262
25417W        W84513   7.735  36.933   3.227
25418W        W84514  42.304  22.222  11.989
25419W        W84515  26.025  43.493   4.244
25420W        W84516  24.517  23.009   4.625
25421W        W84517  14.184  39.042   4.337
25422W        W84518  32.107  12.636  10.151
25423W        W84519  24.584  12.315  10.489
25424W        W84520  18.770   2.720   1.291
25425W        W84521  36.921  22.092  10.936
25426W        W84522  10.653  39.845   2.681
25427W        W84523  44.858   6.860   0.378
25428W        W84524  33.946  42.399  12.454
25429W        W84525  42.958  21.219  13.004
25430W        W84526  39.530  21.618   0.929
25431W        W84527  40.906  14.704  12.384
25432W        W84528  24.115   5.371  13.518
25433W        W84529   7.900  10.365   3.274
25434W        W84530  42.524   5.307   4.651
25435W        W84531  37.409  12.144  12.364
25436W        W84532  38.906  31.112   3.855
25437W        W84533  17.609  15.311   4.137
25438W        W84534  12.340  17.110  14.791
25439W        W84535  44.907  32.559  13.843
25440W        W84536  33.025  32.494  13.534
25441W        W84537  16.081   7.376   3.268
25442W        W84538   0.446  29.174   2.364
25443W        W84539  42.960  28.104  13.513
25444W        W84540  31.043  21.078  12.441
25445W        W84541  36.843  30.445  12.931
25446W        W84542  20.545   9.274   0.814
25447W        W84543   9.275  36.896  10.576
25448W        W84544  13.145   9.805   0.963
25449W        W84545  16.755   2.937   0.758
25450W        W84546   8.192  14.823   0.356
25451W        W84547  34.443  23.986   3.234
25452W        W84548  24.172  25.569  11.034
25453W        W84549   1.911  13.778  14.502
25454W        W84550   6.774  17.305   3.785
25455W        W84551  34.053   2.434  13.989
25456W        W84552   6.855  40.871   3.207
25457W        W84553  44.837  40.547   4.796
25458W        W84554  43.895  23.570  10.429
25459W        W84555  15.680   6.834  11.387
25460W        W84556  41.430  16.111  11.443
25461W        W84557  36.457  22.663  14.414
25462W        W84558   6.814  33.111   2.871
25463W        W84559   5.196  11.638  11.127
25464W        W84560   0.790  43.441  11.905
25465W        W84561  21.693  31.968   3.361
25466W        W84562   3.749   9.744  11.960
25467W        W84563  31.991  11.184  10.526
25468W        W84564  19.575   3.437   1.287
25469W        W84565   7.676  10.371   3.830
25470W        W84566  39.908   9.753   1.843
25471W        W84567   1.737   5.257  11.046
25472W        W84568  14.625  37.492   1.729
25473W        W84569  25.153   4.247  12.035
25474W        W84570  18.599  43.348  11.881
25475W        W84571  32.460   0.756   3.768
25476W        W84572  39.324   4.882  12.896
25477W        W84573   9.237   0.420  12.091
25478W        W84574  14.275   1.304  14.333
25479W        W84575  42.870  44.802  12.009
25480W        W84576  43.893  24.030  11.963
25481W        W84577  22.058  31.905   1.878
25482W        W84578  22.229  39.974  13.797
25483W        W84579  39.409  27.119  14.917
25484W        W84580   7.674  31.981   2.826
25485W        W84581  13.636  34.526   0.317
25486W        W84582  42.817  32.464  13.422
25487W        W84583  27.133  36.941  11.896
25488W        W84584  42.858  18.104   1.280
25489W        W84585  11.626   2.734   2.745
25490W        W84586  22.015  11.183  13.977
25491W        W84587  21.184   1.270   3.791
25492W        W84588  37.031  14.215  10.560
25493W        W84589  16.111   8.858  14.996
25494W        W84590  23.181  10.179  12.896
25495W        W84591  30.060  10.702   2.800
25496W        W84592  13.109  16.619   9.943
25497W        W84593  28.549  24.098  11.987
25498W        W84594  22.595   3.885   3.816
25499W        W84595   1.906  22.652  13.946
25500W        W84596  10.161  12.228   2.329
25501W        W84597   3.941   0.956   1.808
25502W        W84598  27.176  25.510  12.356
25503W        W84599  39.918  42.416  12.056
25504W        W84600  15.688  18.117  11.403
25505W        W84601  42.033  29.560  14.277
25506W        W84602  19.641  25.541  12.934
25507W        W84603  37.450  44.289  11.533
25508W        W84604  31.135  37.549  13.006
25509W        W84605  26.199  24.183   0.311
25510W        W84606   1.886  38.074  13.025
25511W        W84607  25.649  44.374  10.001
25512W        W84608   5.858  22.087  11.049
25513W        W84609  12.180  33.010  14.343
25514W        W84610  29.968  19.634   2.803
25515W        W84611   0.476  15.665  13.025
25516W        W84612  15.626  37.855  14.000
25517W        W84613  37.963  18.092   4.130
25518W        W84614  12.624  23.134  11.937
25519W        W84615   2.944  14.281   2.786
25520W        W84616  22.582  40.871   4.742
25521W        W84617   6.189  14.790   1.838
25522W        W84618  22.570  36.459   4.340
25523W        W84619   3.908   0.343  12.947
25524W        W84620  33.585  20.524   0.859
25525W        W84621  26.578   3.420  12.526
25526W        W84622  23.224  43.287   3.787
25527W        W84623  36.499  26.042   2.381
25528W        W84624  41.893  29.054   3.289
25529W        W84625  29.583  15.735   3.298
25530W        W84626  30.942   5.802   0.396
25531W        W84627  23.602   7.863  12.910
25532W        W84628  25.546  13.787  12.935
25533W        W84629  11.287   0.958  11.957
25534W        W84630   3.894   3.858  12.896
25535W        W84631  23.508  18.255   4.143
25536W        W84632   9.230  35.015   4.661
25537W        W84633  26.698   2.952  12.909
25538W        W84634  27.970  21.134   3.763
25539W        W84635  44.333  44.768  10.930
25540W        W84636  11.848  39.820  12.898
25541W        W84637  27.639  43.975   0.826
25542W        W84638  33.129  39.488  13.814
25543W        W84639  19.750  31.547  13.935
25544W        W84640   9.356  25.970   4.125
25545W        W84641  29.922  26.983   4.709
25546W        W84642  36.422  42.294  13.541
25547W        W84643  44.496  18.750   4.753
25548W        W84644  35.501  37.582   0.329
25549W        W84645  43.400  28.161   2.233
25550W        W84646   6.899  12.153  11.451
25551W        W84647  36.969   4.720  12.884
25552W        W84648  31.587  43.478  13.055
25553W        W84649  14.284  20.703  14.890
25554W        W84650  31.153  23.520  13.449
25555W        W84651  14.601  12.817   1.281
25556W        W84652  35.041  23.717  14.444
25557W        W84653   2.959  29.148   4.221
25558W        W84654  14.728  33.546  13.468
25559W        W84655  15.699   9.668  11.431
25560W        W84656  42.344  42.468   4.286
25561W        W84657  18.225   7.814   1.753
25562W        W84658   3.953  17.598  14.332
25563W        W84659  38.428  18.739  11.385
25564W        W84660   5.226  43.333   0.391
25565W        W84661  39.848  17.245   3.223
25566W        W84662  13.201  33.584   4.284
25567W        W84663  25.116  11.213  11.382
25568W        W84664  35.602  22.052  13.927
25569W        W84665  37.926  44.372   4.123
25570W        W84666  17.758  15.290   4.643
25571W        W84667   5.319  36.955   4.763
25572W        W84668  34.577  29.078  14.949
25573W        W84669  24.975   9.755  11.001
25574W        W84670  37.482  28.935  14.377
25575W        W84671  41.003  18.231   4.239
25576W        W84672   5.884  15.655   1.273
25577W        W84673  39.479  32.040  12.965
25578W        W84674  22.181  12.177   0.771
25579W        W84675  17.246   8.384   3.835
25580W        W84676  21.173  19.080  12.028
25581W        W84677  12.803  25.657  11.552
25582W        W84678   4.815  34.970   3.794
25583W        W84679  17.689   0.968  13.434
25584W        W84680  34.866  38.373   0.407
25585W        W84681  34.392   2.329  10.943
25586W        W84682  10.871  14.277   9.650
25587W        W84683  15.768  33.413   2.855
25588W        W84684   6.694  34.474  14.782
25589W        W84685  24.495  30.060  10.588
25590W        W84686  39.499  30.595   0.841
25591W        W84687  20.615  14.115   3.785
25592W        W84688  15.726  16.265   3.150
25593W        W84689   3.906   4.871   4.338
25594W        W84690  44.777   0.889   4.224
25595W        W84691  16.752   1.411  13.392
25596W        W84692  34.874   3.909  14.939
25597W        W84693  41.798  34.085   4.224
25598W        W84694  21.096  27.554  12.553
25599W        W84695  36.415  31.063   1.842
25600W        W84696  12.717  17.283   0.916
25601W        W84697  11.795   8.714   4.768
25602W        W84698  29.961  16.178  11.516
25603W        W84699  14.237  19.652  13.915
25604W        W84700   9.355  41.911  13.822
25605W        W84701  26.636   6.321  13.830
25606W        W84702  33.582  23.201  14.015
25607W        W84703  35.061  21.026  12.917
25608W        W84704  28.464  34.608   3.169
25609W        W84705   0.842   0.886   4.838
25610W        W84706  23.609   2.836  10.919
25611W        W84707  33.960   1.919  10.578
25612W        W84708  34.574  36.056  13.917
25613W        W84709  38.973  26.995  14.361
25614W        W84710   6.698  19.630  10.473
25615W        W84711  11.260  17.277  14.293
25616W        W84712   7.248   9.340  13.545
25617W        W84713  10.315  44.488  10.464
25618W        W84714  30.132  27.147   3.379
25619W        W84715  11.194  40.833  10.985
25620W        W84716  36.052  44.424  10.587
25621W        W84717  13.684  25.005   2.870
25622W        W84718   7.716  20.763   3.681
25623W        W84719  44.297  40.884   2.293
25624W        W84720  39.551  40.392  13.349
25625W        W84721  31.514  18.565  13.423
25626W        W84722  11.295  17.083   0.302
25627W        W84723  35.554  40.034  11.959
25628W        W84724  36.095  13.694   3.173
25629W        W84725  38.461   3.802   4.280
25630W        W84726  32.952  37.505  11.429
25631W        W84727  38.528  30.978  13.451
25632W        W84728  29.110   9.794  10.550
25633W        W84729   6.704  43.967   3.679
25634W        W84730  30.652  34.535   2.797
25635W        W84731  11.865  42.010   0.476
25636W        W84732  21.263  38.381   1.347
25637W        W84733  27.571  35.566  13.393
25638W        W84734  24.593  15.767  13.499
25639W        W84735  31.029  11.297  11.586
25640W        W84736   8.750  29.475   5.127
25641W        W84737   3.777  32.579   2.207
25642W        W84738   0.875   7.866  14.868
25643W        W84739  27.996  40.852   1.842
25644W        W84740  10.328  13.722  13.926
25645W        W84741  26.484  40.336  14.944
25646W        W84742  18.617  24.628   2.194
25647W        W84743  23.174  11.144   1.216
25648W        W84744  18.185   1.756   1.356
25649W        W84745  31.533  32.555   2.393
25650W        W84746  39.318  29.108   3.832
25651W        W84747   8.309   1.478  10.533
25652W        W84748   8.735   7.290  11.923
25653W        W84749   3.772  43.392   3.378
25654W        W84750  15.204  36.579  12.011
25655W        W84751  19.639  18.167  11.476
25656W        W84752   9.292  27.469   2.679
25657W        W84753  27.456  25.674  13.906
25658W        W84754  29.501  12.316  10.505
25659W        W84755   6.682  19.196   4.661
25660W        W84756  33.022  24.170  10.585
25661W        W84757  15.599  14.602  14.326
25662W        W84758  10.700  31.100   3.155
25663W        W84759  19.559  16.631  14.907
25664W        W84760  39.873   6.809  12.031
25665W        W84761  19.280   9.678   0.351
25666W        W84762  36.843  28.991  14.474
25667W        W84763  27.025  13.260  12.976
25668W        W84764  38.550  24.118  12.399
25669W        W84765  24.040   1.893   3.153
25670W        W84766  24.120  37.513   1.889
25671W        W84767  34.081  44.932  12.095
25672W        W84768  28.542   0.950  13.047
25673W        W84769  40.979  14.634  12.864
25674W        W84770  26.543  11.372   2.725
25675W        W84771  18.626   6.300   3.790
25676W        W84772   9.685  25.207   1.865
25677W        W84773  31.994  26.489   0.945
25678W        W84774  29.983  25.495   0.894
25679W        W84775  34.456   5.426  13.006
25680W        W84776  19.622  26.027  11.526
25681W        W84777  10.696  30.151  13.537
25682W        W84778   5.779  29.446   3.705
25683W        W84779  34.481  18.236   2.751
25684W        W84780  12.341   0.479   2.309
25685W        W84781  33.576  14.334   2.289
25686W        W84782  19.201   5.428   3.208
25687W        W84783  26.589  27.604  11.124
25688W        W84784  25.158  32.894  11.566
25689W        W84785   6.694  20.594  14.817
25690W        W84786  15.601  24.188  10.644
25691W        W84787  26.696  40.036  14.458
25692W        W84788   4.219  37.980   2.801
25693W        W84789  19.550  43.410   3.151
25694W        W84790  26.513  16.117   2.210
25695W        W84791  43.482   4.911  14.358
25696W        W84792  31.629  25.209   0.794
25697W        W84793  21.699  30.611   1.391
25698W        W84794  22.222  43.835  10.614
25699W        W84795  42.487  41.993   4.609
25700W        W84796  28.576   7.213  11.947
25701W        W84797  12.726   3.452  12.501
25702W        W84798  31.597   1.828  12.996
25703W        W84799  35.405  25.041  14.966
25704W        W84800   6.421  44.810   1.868
25705W        W84801  31.542  27.109   3.673
25706W        W84802   9.694  21.199   3.178
25707W        W84803   7.224  26.196  12.843
25708W        W84804   0.875   9.760  11.053
25709W        W84805  17.769  18.754  13.866
25710W        W84806  32.482  31.535   3.674
25711W        W84807  33.536   4.439  14.933
25712W        W84808  38.042  22.604   0.256
25713W        W84809  36.348  14.169  13.348
25714W        W84810  37.905  27.189  12.496
25715W        W84811  31.061  38.515  10.572
25716W        W84812  32.566  12.698  14.442
25717W        W84813   0.822   6.343  10.037
25718W        W84814  33.882   3.459   0.809
25719W        W84815  37.843  41.397  14.411
25720W        W84816   3.904   9.185   3.320
25721W        W84817  42.304   1.344   1.386
25722W        W84818  18.055  34.868  11.592
25723W        W84819  32.013   0.374  12.399
25724W        W84820   7.702  20.663   1.265
25725W        W84821  22.008  17.235  14.511
25726W        W84822   6.885  39.529   4.236
25727W        W84823  16.757  22.690  14.504
25728W        W84824  44.763   1.918   3.842
25729W        W84825  13.329  38.493  14.959
25730W        W84826  23.570   7.228   3.707
25731W        W84827  27.122  35.588   1.781
25732W        W84828  20.524  33.069  11.110
25733W        W84829  22.249  17.074   2.677
25734W        W84830  42.362  25.160   0.349
25735W        W84831  24.109  33.949   0.263
25736W        W84832  12.811  23.725   3.832
25737W        W84833  11.268  28.082   2.336
25738W        W84834  19.128   0.912  11.393
25739W        W84835  32.111   7.223   4.830
25740W        W84836  27.164   7.331  14.855
25741W        W84837  19.040  12.270   0.441
25742W        W84838   8.736  26.994  11.390
25743W        W84839  29.994  27.081  14.865
25744W        W84840  40.007  11.153   0.390
25745W        W84841  29.569  20.760   4.171
25746W        W84842  36.989  43.941   2.861
25747W        W84843   8.828  36.359  12.037
25748W        W84844  22.648  44.374  11.588
25749W        W84845  31.489  28.468   0.296
25750W        W84846  42.021  23.626   3.217
25751W        W84847  22.579  18.172   2.357
25752W        W84848  39.957  17.686   3.870
25753W        W84849  26.114   0.771  13.434
25754W        W84850   9.236  38.839   1.717
25755W        W84851  42.927  14.799   4.232
25756W        W84852  34.408  21.119  10.091
25757W        W84853  20.084  36.055   4.297
25758W        W84854  12.821  41.030   4.282
25759W        W84855  33.477   7.788   2.871
25760W        W84856  24.197   8.885  10.064
25761W        W84857  23.526  23.693  12.987
25762W        W84858   9.266  42.309   0.727
25763W        W84859  12.626   7.200   4.786
25764W        W84860  35.602   7.908  12.399
25765W        W84861  39.916   0.419   0.256
25766W        W84862  21.568  22.507  13.922
25767W        W84863   4.360  36.969  13.336
25768W        W84864  36.465   2.386   4.608
25769W        W84865  32.893   5.384   1.888
25770W        W84866  24.585  30.428  11.424
25771W        W84867  35.398  22.099   3.330
25772W        W84868  38.021  17.228   1.259
25773W        W84869   7.799   7.672   1.235
25774W        W84870  34.951  17.606   1.875
25775W        W84871  32.078   0.490   4.656
25776W        W84872  23.235  43.870  14.879
25777W        W84873  38.869  42.290   4.707
25778W        W84874  38.966  32.562  10.592
25779W        W84875  36.359  14.112  13.856
25780W        W84876   4.761   1.935   1.438
25781W        W84877  26.640  24.055  13.484
25782W        W84878   3.280  41.960  10.541
25783W        W84879   8.751   8.730  14.855
25784W        W84880  12.680   5.421  14.839
25785W        W84881  19.261  36.557   2.882
25786W        W84882  23.556  25.083  12.366
25787W        W84883   3.283  40.976   2.736
25788W        W84884  16.242  43.403  12.379
25789W        W84885  41.452   3.786   2.339
25790W        W84886   5.309  26.165  10.436
25791W        W84887  12.709  36.087  12.371
25792W        W84888  37.995  33.127  13.923
25793W        W84889   9.693   7.764  10.980
25794W        W84890  11.626  15.088  11.481
25795W        W84891  43.482  25.575   4.326
25796W        W84892  24.134  30.607  11.586
25797W        W84893  20.661   9.646   0.440
25798W        W84894  24.627  18.724  12.837
25799W        W84895   8.882  44.351   5.150
25800W        W84896  23.736  19.118  12.559
25801W        W84897  36.500  24.591  12.580
25802W        W84898  33.463  25.653   0.776
25803W        W84899  36.052  27.666  13.524
25804W        W84900  35.077  44.363  12.557
25805W        W84901  24.703  23.679   3.853
25806W        W84902  38.326  23.025  11.454
25807W        W84903   6.852  34.395   2.301
25808W        W84904  19.111   4.288  12.054
25809W        W84905  44.396   4.301   0.951
25810W        W84906   4.804  33.898   2.208
25811W        W84907  32.407  44.978   3.657
25812W        W84908  14.596  24.005   4.652
25813W        W84909  32.561  22.595   9.594
25814W        W84910  25.185  26.148   1.932
25815W        W84911  32.953  12.137  13.972
25816W        W84912  14.668   3.460  12.493
25817W        W84913  25.576  10.324  11.572
25818W        W84914  39.920  40.010   2.297
25819W        W84915  20.767  14.635  12.901
25820W        W84916   1.265  44.295   4.746
25821W        W84917  19.186  23.697   2.307
25822W        W84918   0.827   9.231   1.865
25823W        W84919  26.482   8.727  12.504
25824W        W84920  26.540  12.353  14.447
25825W        W84921  27.536   0.326   1.333
25826W        W84922  22.595  28.969  13.823
25827W        W84923  15.191  13.666   3.657
25828W        W84924  36.947  31.949  11.404
25829W        W84925   4.277  36.410  14.308
25830W        W84926  38.985  26.536  11.463
25831W        W84927  43.959  15.118   0.759
25832W        W84928  30.510   0.937  12.362
25833W        W84929  36.007  38.564  11.482
25834W        W84930  26.958  30.594  13.470
25835W        W84931  29.659  12.159  13.433
25836W        W84932  37.552  43.832   4.698
25837W        W84933  11.836  13.110  12.009
25838W        W84934  19.189  29.056   1.322
25839W        W84935  18.158  34.895   0.285
25840W        W84936  28.941  44.935  12.078
25841W        W84937  25.641  35.909  10.153
25842W        W84938   4.723  43.320   0.263
25843W        W84939  17.560  32.589   3.761
25844W        W84940  41.004  29.048   1.270
25845W        W84941  40.518  42.414  12.358
25846W        W84942  21.064  24.008  11.053
25847W        W84943  16.300   1.387   0.870
25848W        W84944   3.779  39.974  14.783
25849W        W84945  15.823  23.989  12.982
25850W        W84946   0.270  27.997   2.310
25851W        W84947  19.143  20.534  14.992
25852W        W84948  38.023  16.654  12.438
25853W        W84949  16.626  10.727  11.863
25854W        W84950  13.835  23.586  14.866
25855W        W84951  11.188   9.366  14.831
25856W        W84952  35.050   3.878   0.891
25857W        W84953  41.926  22.505   1.797
25858W        W84954  12.790  28.045   3.725
25859W        W84955  34.476  11.175  11.451
25860W        W84956  13.719  35.459   0.371
25861W        W84957  31.912   2.280  13.859
25862W        W84958  28.078   9.716  14.879
25863W        W84959   9.392  21.521   2.180
25864W        W84960  24.506  34.592  11.994
25865W        W84961  43.399  37.832  11.918
25866W        W84962   9.804   8.753  11.899
25867W        W84963  23.081  19.700  14.889
25868W        W84964  30.919   2.436  10.541
25869W        W84965  38.464  29.986  11.881
25870W        W84966  12.123  17.109   1.896
25871W        W84967  26.507  42.961   4.703
25872W        W84968  10.741  14.720   2.696
25873W        W84969   1.440   4.243   3.822
25874W        W84970  39.395  22.653  11.432
25875W        W84971  12.352  25.981   4.600
25876W        W84972  42.526   2.736   3.166
25877W        W84973  16.159  40.965  14.431
25878W        W84974  44.884  27.545   4.348
25879W        W84975  32.086  40.005   4.309
25880W        W84976  32.987   7.195   3.368
25881W        W84977  16.074  18.621  10.566
25882W        W84978  40.522   1.865   4.809
25883W        W84979  10.802  11.361  14.961
25884W        W84980  26.667  17.272   5.231
25885W        W84981  25.497  14.330  12.454
25886W        W84982  40.467  36.851   4.794
25887W        W84983  23.731  41.986   0.944
25888W        W84984  27.007  42.932   4.296
25889W        W84985  37.078   1.886   4.727
25890W        W84986  44.293  43.975  12.405
25891W        W84987  22.732  42.463  13.839
25892W        W84988  13.246  16.646   0.788
25893W        W84989  27.151  40.034   3.292
25894W        W84990   2.344   8.811   3.168
25895W        W84991  30.980  33.003   2.252
25896W        W84992  20.751  19.539  11.907
25897W        W84993  10.260   3.914  13.798
25898W        W84994   9.242  41.799  14.304
25899W        W84995  12.249   1.336   3.272
25900W        W84996  25.155  35.367   3.340
25901W        W84997  16.083   2.320   2.349
25902W        W84998  27.549  30.957  14.403
25903W        W84999  40.929  34.407   1.871
25904W        W85000  42.888   8.259  14.770
25905W        W85001  41.854  32.628   0.414
25906W        W85002   5.868   0.333  14.996
25907W        W85003  23.094  31.628  12.016
25908W        W85004  41.368  36.022  14.374
25909W        W85005  12.170  37.542   9.970
25910W        W85006  20.239   2.872   0.828
25911W        W85007   4.204  24.199   2.870
25912W        W85008  41.958   0.904  11.897
25913W        W85009  37.515   0.449   4.189
25914W        W85010   0.876  43.780  11.557
25915W        W85011  30.975  15.183   0.848
25916W        W85012   2.925  43.312  11.432
25917W        W85013  23.176  25.141   4.687
25918W        W85014  43.804  32.886  12.086
25919W        W85015  27.067   9.742   1.849
25920W        W85016   6.317  11.276   4.722
25921W        W85017  23.699   3.801  14.507
25922W        W85018  26.162  16.173   3.215
25923W        W85019  29.516  39.854  14.315
25924W        W85020  17.156  39.534   4.722
25925W        W85021  30.641  28.960   1.371
25926W        W85022  42.934  30.116   1.724
25927W        W85023  15.232  39.438  12.859
25928W        W85024  36.051   2.244  11.545
25929W        W85025  33.382  26.701  14.374
25930W        W85026   4.890  20.091  11.601
25931W        W85027   1.266  18.562  13.058
25932W        W85028   1.877   0.364   2.772
25933W        W85029   9.296   1.480   1.224
25934W        W85030  37.061   2.239   3.853
25935W        W85031  15.666  36.992  11.904
25936W        W85032  32.119  31.963  10.044
25937W        W85033  41.972  15.195   2.803
25938W        W85034  23.050   4.437   0.770
25939W        W85035  17.749  25.114   2.409
25940W        W85036  14.191  20.203  13.508
25941W        W85037  25.168   4.713   3.323
25942W        W85038  32.495  16.800  12.578
25943W        W85039  34.507  20.036  11.868
25944W        W85040  42.360  37.499  12.062
25945W        W85041  12.251  13.742  13.375
25946W        W85042   7.733  15.618  10.055
25947W        W85043  28.013  28.667  12.434
25948W        W85044   6.312  28.961  12.563
25949W        W85045  42.443   5.365  11.875
25950W        W85046  30.538  25.109   4.222
25951W        W85047  36.978  28.147  13.420
25952W        W85048  11.691  39.062   3.202
25953W        W85049  39.356   1.451  13.987
25954W        W85050  18.584  14.257   2.805
25955W        W85051  16.156  40.457  14.468
25956W        W85052  20.756   2.881  12.422
25957W        W85053  37.516  24.127  11.942
25958W        W85054  43.899  38.021   3.247
25959W        W85055  44.000  34.544   3.147
25960W        W85056  10.814  33.983  13.524
25961W        W85057  38.012  43.875   2.725
25962W        W85058   9.280  10.850   2.699
25963W        W85059  14.311  39.392   1.251
25964W        W85060  13.628   1.856  14.771
25965W        W85061  38.569   6.252   3.695
25966W        W85062  18.209  39.904   4.609
25967W        W85063   3.232   9.220  14.846
25968W        W85064  11.710  43.333   2.797
25969W        W85065  42.421  38.834   2.813
25970W        W85066  19.681  23.701  13.420
25971W        W85067  22.554  31.993   4.313
25972W        W85068  44.414  33.885   3.648
25973W        W85069   4.428  44.787  12.350
25974W        W85070  31.466  36.541  11.874
25975W        W85071  28.484  18.643  14.448
25976W        W85072  24.664  42.398   2.767
25977W        W85073   8.655   5.435   3.778
25978W        W85074  38.412  42.413   0.838
25979W        W85075  13.620   3.393  13.975
25980W        W85076  30.159  32.404  12.999
25981W        W85077  41.889  19.559  10.907
25982W        W85078   9.238  38.480   2.372
25983W        W85079  44.956  23.002  10.636
25984W        W85080   2.264  21.624   0.770
25985W        W85081  20.568   9.262   3.784
25986W        W85082  20.683  24.587  13.356
25987W        W85083  41.011  33.469  13.020
25988W        W85084  25.103  16.246  13.027
25989W        W85085   0.380  18.750   3.245
25990W        W85086  12.188  12.719   1.389
25991W        W85087  14.222   3.812   2.200
25992W        W85088   5.301  41.444   0.380
25993W        W85089  21.627   7.729  11.877
25994W        W85090  16.675  30.501   2.266
25995W        W85091   1.738  33.076  10.598
25996W        W85092  33.386   4.243  13.063
25997W        W85093  22.660   6.768  12.986
25998W        W85094  36.037  38.074  10.597
25999W        W85095  39.004  12.324  14.024
26000W        W85096   1.331   6.427  10.958
26001W        W85097  30.623  29.061   4.632
26002W        W85098  25.029   1.904   2.679
26003W        W85099  31.929  33.543  13.416
26004W        W85100  20.238  35.374   3.672
26005W        W85101  39.334  28.601   4.627
26006W        W85102  40.355  43.412   2.684
26007W        W85103  22.206  28.533   0.249
26008W        W85104  29.004   2.785  10.541
26009W        W85105  33.461   3.401   2.894
26010W        W85106   7.816  12.160   3.203
26011W        W85107  27.146  42.850  10.986
26012W        W85108  20.068  25.100   4.716
26013W        W85109  13.682   0.932  10.407
26014W        W85110  43.990   4.423  12.418
26015W        W85111   3.377  34.426   0.368
26016W        W85112  16.136  39.850   3.764
26017W        W85113  18.673  42.411   0.829
26018W        W85114  13.787   4.848  13.546
26019W        W85115   8.296  36.572  11.400
26020W        W85116  22.242  23.190   3.695
26021W        W85117  43.868  42.930   1.413
26022W        W85118  10.634  34.036  12.953
26023W        W85119  29.117   2.385  13.450
26024W        W85120  39.906  32.568   4.750
26025W        W85121  10.292  40.404  12.849
26026W        W85122   8.324   3.318  11.890
26027W        W85123  17.658  20.736   1.906
26028W        W85124  42.498  17.726  13.345
26029W        W85125  43.279  15.218   2.759
26030W        W85126  16.633  30.138  11.517
26031W        W85127  22.069   0.436  14.780
26032W        W85128  23.719  38.959  10.138
26033W        W85129  24.671  21.702  14.006
26034W        W85130  18.600   5.697  12.567
26035W        W85131  23.682   4.876   4.327
26036W        W85132   2.859  31.442   2.323
26037W        W85133  24.029  27.646  13.321
26038W        W85134   4.781  21.683   1.411
26039W        W85135  14.223   2.908  13.933
26040W        W85136  26.527  18.760   1.911
26041W        W85137  15.753  22.099   4.331
26042W        W85138  15.658  33.503   1.797
26043W        W85139  39.842  24.700   2.696
26044W        W85140  27.479   4.375  13.893
26045W        W85141   9.888  43.970   1.390
26046W        W85142  21.186  14.818  11.936
26047W        W85143  15.176  19.609  12.371
26048W        W85144  33.990  27.564   1.225
26049W        W85145  17.757  41.508  14.960
26050W        W85146  30.506  34.976  13.455
26051W        W85147  31.591  20.548   2.784
26052W        W85148   9.670  42.858  10.969
26053W        W85149  12.842  35.084   2.343
26054W        W85150   2.305  23.731   4.780
26055W        W85151  31.486  32.131   1.368
26056W        W85152   6.315  35.991  14.497
26057W        W85153   8.773  13.772   4.606
26058W        W85154  34.483  18.215  12.437
26059W        W85155  32.636  21.249  11.571
26060W        W85156  35.583   4.853  14.892
26061W        W85157  24.118  37.035   0.378
26062W        W85158  21.039  10.702  13.517
26063W        W85159   7.406  25.610   0.769
26064W        W85160  21.084  18.113  14.943
26065W        W85161  25.667  24.987  10.472
26066W        W85162   8.380  38.517  13.459
26067W        W85163  14.719  28.475  12.923
26068W        W85164  23.210  18.097  11.047
26069W        W85165  22.538  38.871  11.927
26070W        W85166  31.535  41.393   0.465
26071W        W85167  14.631   4.299   3.718
26072W        W85168   2.759  42.498  11.547
26073W        W85169  30.497   6.710   4.619
26074W        W85170  35.391   8.721  13.318
26075W        W85171  40.471  17.561   4.646
26076W        W85172  23.642  28.456  14.907
26077W        W85173   8.294  14.600  12.563
26078W        W85174  31.452  36.935   3.789
26079W        W85175  36.033  17.304   0.381
26080W        W85176   5.219  10.351  10.610
26081W        W85177   8.169   4.352  12.452
26082W        W85178  10.801  21.752   4.150
26083W        W85179  30.911  15.312  12.364
26084W        W85180  19.555  25.606  10.578
26085W        W85181  19.218   2.280   3.294
26086W        W85182  35.434  38.869   2.391
26087W        W85183  31.097  32.546   0.471
26088W        W85184  44.975   2.899   0.256
26089W        W85185  41.875  31.614   0.267
26090W        W85186  34.893  13.702   4.605
26091W        W85187  17.291  33.937   3.772
26092W        W85188  20.544  11.357  12.407
26093W        W85189  18.779  30.421  14.883
26094W        W85190  31.476  17.621  11.480
26095W        W85191   9.346  17.232  11.998
26096W        W85192  43.449  33.502  14.315
26097W        W85193  44.891   2.856   4.705
26098W        W85194   8.354  21.039   1.738
26099W        W85195   4.304  19.538  12.446
26100W        W85196  39.531  32.943   2.180
26101W        W85197  21.116  44.867   2.291
26102W        W85198  26.024  10.851  14.285
26103W        W85199  44.770  11.731   4.197
26104W        W85200   5.890  38.412  12.918
26105W        W85201  39.912   0.953   1.258
26106W        W85202  34.874   9.737  13.346
26107W        W85203  24.582   7.739  14.369
26108W        W85204   5.845  28.934   2.768
26109W        W85205  34.953   3.248   0.439
26110W        W85206  35.399   4.256  12.870
26111W        W85207   1.741   3.761   4.743
26112W        W85208   3.303  21.560  14.400
26113W        W85209  39.854  37.976  11.606
26114W        W85210   3.433  15.196  10.644
26115W        W85211  38.859  43.375   0.400
26116W        W85212  37.435  28.042   0.290
26117W        W85213  31.503  34.998   4.706
26118W        W85214  27.672   9.741   0.866
26119W        W85215  19.185  17.289  11.459
26120W        W85216  39.351   9.168  10.055
26121W        W85217  17.783  33.968   2.251
26122W        W85218  29.951   1.911   1.255
26123W        W85219  20.042  10.819   0.813
26124W        W85220  28.459  19.184   4.756
26125W        W85221  21.719  14.708   0.333
26126W        W85222  19.637  40.955  13.398
26127W        W85223  28.931   0.369   2.360
26128W        W85224   7.704  38.430  10.458
26129W        W85225   8.714  40.799   2.373
26130W        W85226  27.616  30.465  11.123
26131W        W85227  43.350  16.246   3.258
26132W        W85228  33.550   9.230   4.708
26133W        W85229  38.009  28.929  14.813
26134W        W85230  25.529  23.235   3.862
26135W        W85231  38.051   8.166   1.240
26136W        W85232  35.558  29.046   4.177
26137W        W85233  14.711  13.182   3.646
26138W        W85234  40.537  30.602   0.946
26139W        W85235  23.572  41.001  13.484
26140W        W85236  16.804  41.030   0.423
26141W        W85237  21.705  19.661   4.785
26142W        W85238  40.021  10.214  12.044
26143W        W85239  41.000  39.554  13.544
26144W        W85240  12.216  21.154  14.964
26145W        W85241  21.107  13.835  12.340
26146W        W85242  11.155  38.434   4.121
26147W        W85243  30.580   6.411  13.050
26148W        W85244  17.272   9.387   1.916
26149W        W85245  31.439  25.610   0.795
26150W        W85246  40.956  29.924  14.018
26151W        W85247  27.589  22.570   3.725
26152W        W85248  42.984  18.691  11.557
26153W        W85249   1.757   9.755  12.504
26154W        W85250  10.364   9.881  12.873
26155W        W85251  12.131  15.651   0.915
26156W        W85252  27.940  44.922   1.788
26157W        W85253  40.806  31.584   1.709
26158W        W85254  21.613  41.792   3.742
26159W        W85255  44.859  11.308  12.971
26160W        W85256  36.564  38.954   2.847
26161W        W85257   7.232  17.717  12.911
26162W        W85258  29.126  20.104   1.758
26163W        W85259  38.946   6.878   3.710
26164W        W85260  42.391  30.569   0.830
26165W        W85261  20.099  42.024  11.894
26166W        W85262  18.192  27.676   1.765
26167W        W85263   7.356  10.772  10.937
26168W        W85264  34.558  44.369   1.273
26169W        W85265  44.290  27.125  12.442
26170W        W85266  23.516  27.646  10.637
26171W        W85267   2.939  26.093   4.727
26172W        W85268  37.396   2.290  13.862
26173W        W85269  30.533   1.370   0.354
26174W        W85270  36.591   0.469  13.864
26175W        W85271  14.280  18.691   1.714
26176W        W85272  36.911  23.195   3.683
26177W        W85273  11.681  30.036  13.885
26178W        W85274  42.004  31.146   3.235
26179W        W85275  40.947  20.092  10.489
26180W        W85276  29.934  37.493   3.242
26181W        W85277  31.541  42.988  13.434
26182W        W85278   7.356  18.712   2.846
26183W        W85279  40.333  18.287  14.921
26184W        W85280  14.662  20.616  13.364
26185W        W85281   8.684   1.956   4.194
26186W        W85282   9.733  20.038  10.981
26187W        W85283  36.437  30.656   4.748
26188W        W85284   8.363  11.730   4.308
26189W        W85285  28.536  30.012  13.418
26190W        W85286  39.462  36.466   0.320
26191W        W85287   6.885   1.309   3.317
26192W        W85288  35.362  21.041   0.772
26193W        W85289  36.864  24.603   0.443
26194W        W85290   9.670  28.460  12.918
26195W        W85291  19.216   5.313  12.088
26196W        W85292   1.305  23.671  11.085
26197W        W85293  16.734  25.157  11.557
26198W        W85294  13.113  38.866  11.982
26199W        W85295   4.333  29.583   0.897
26200W        W85296   0.285   4.266   0.247
26201W        W85297  26.502  30.487  12.050
26202W        W85298  19.241   5.826   4.667
26203W        W85299  31.923  31.020   0.765
26204W        W85300  39.536  21.617  13.056
26205W        W85301  41.035   2.307  11.959
26206W        W85302  20.761  13.695  11.546
26207W        W85303  42.972  42.409   2.738
26208W        W85304  23.658  30.577  10.446
26209W        W85305  40.462  20.595  13.047
26210W        W85306  26.544   2.951  10.949
26211W        W85307  36.962  35.544  11.957
26212W        W85308  20.642  28.575   1.391
26213W        W85309  23.490   8.396   4.273
26214W        W85310   6.319  34.490  13.339
26215W        W85311  37.560  23.677  14.512
26216W        W85312  38.401  35.359  14.763
26217W        W85313  35.076  26.580   3.161
26218W        W85314  40.995  13.183  12.908
26219W        W85315   7.337  18.628  11.126
26220W        W85316  43.508  18.285  10.154
26221W        W85317   0.359   4.836  14.397
26222W        W85318  20.543  29.668   4.715
26223W        W85319  25.188  27.604   0.407
26224W        W85320  32.432  12.296  14.475
26225W        W85321  32.606  25.586  14.515
26226W        W85322   4.212  12.354   3.649
26227W        W85323  15.262  18.736   0.446
26228W        W85324   9.758  12.267  12.393
26229W        W85325  34.938  21.090   4.314
26230W        W85326  18.647   7.731  10.465
26231W        W85327  18.688  41.793  12.877
26232W        W85328  35.919  42.350  12.898
26233W        W85329  32.604  24.666  13.318
26234W        W85330  33.531   0.931  10.890
26235W        W85331  10.213  11.218   1.718
26236W        W85332   6.427  15.592  14.871
26237W        W85333  21.610  32.500   2.234
26238W        W85334  27.079  31.145  13.791
26239W        W85335  36.431  32.032   4.326
26240W        W85336  23.102  36.923  14.306
26241W        W85337  35.529  12.708  11.884
26242W        W85338  22.137  20.124  10.036
26243W        W85339  28.019  44.439   0.823
26244W        W85340  35.368  17.294  11.045
26245W        W85341  20.147  42.468   1.433
26246W        W85342  10.179  30.523  11.569
26247W        W85343   1.364  31.404  12.926
26248W        W85344  34.380   8.724  13.028
26249W        W85345  27.056  12.810   0.374
26250W        W85346  42.355  42.814   4.181
26251W        W85347  44.356  18.273   1.391
26252W        W85348  14.137   8.798  13.382
26253W        W85349   6.737  32.033  12.065
26254W        W85350  10.333  40.833  12.827
26255W        W85351   5.363  11.269   0.253
26256W        W85352  33.062  44.458   3.293
26257W        W85353  20.171  40.522  14.507
26258W        W85354  24.037  38.480  11.600
26259W        W85355  38.974  10.360   1.697
26260W        W85356  10.323  17.197  14.468
26261W        W85357  38.487  37.454   0.410
26262W        W85358  27.041  34.385   3.730
26263W        W85359  36.907  36.917  12.987
26264W        W85360  29.590   4.910   2.703
26265W        W85361  19.207  43.341   3.756
26266W        W85362  44.437  15.230  13.907
26267W        W85363  10.661  44.350   1.224
26268W        W85364  14.256  28.528   3.285
26269W        W85365   9.878  26.683   0.416
26270W        W85366  26.673   7.287  14.963
26271W        W85367  40.367  44.903  12.046
26272W        W85368   5.848  11.148   4.315
26273W        W85369  28.062   6.783  11.969
26274W        W85370  40.478  29.070  10.559
26275W        W85371   5.423  43.973   3.281
26276W        W85372  42.466  28.562   0.841
26277W        W85373  35.437   4.225  11.050
26278W        W85374   7.836  32.030  11.081
26279W        W85375  24.660  39.450  13.913
26280W        W85376  15.645  31.951  12.960
26281W        W85377  32.970   6.399  11.937
26282W        W85378  27.624  20.632   0.873
26283W        W85379  29.983  16.300   2.896
26284W        W85380   5.867  25.062  12.972
26285W        W85381  30.459  36.378   2.400
26286W        W85382  41.823  40.364   3.300
26287W        W85383  11.840  35.526   1.241
26288W        W85384  31.512  41.366  12.973
26289W        W85385  24.656  18.187  13.798
26290W        W85386  25.153  35.007   3.277
26291W        W85387  36.950  28.521  12.018
26292W        W85388  35.459  26.460  10.445
26293W        W85389  27.640   8.901   1.358
26294W        W85390  24.572  11.157  11.602
26295W        W85391  32.552  20.689   4.775
26296W        W85392   1.810  30.601   0.804
26297W        W85393  27.452  32.416  13.389
26298W        W85394  10.839  42.947  14.014
26299W        W85395  26.994  10.666   3.193
26300W        W85396  10.344  10.150   1.375
26301W        W85397   2.852  28.018  10.980
26302W        W85398  11.648  43.336  12.463
26303W        W85399  36.524  24.699   3.382
26304W        W85400  28.652  23.527  10.898
26305W        W85401  18.620  30.573  13.893
26306W        W85402  44.455  40.851  10.977
26307W        W85403  31.615  21.603   1.762
26308W        W85404  36.934  29.519  13.359
26309W        W85405  20.215  19.690   4.815
26310W        W85406  20.221  38.828   1.424
26311W        W85407  42.914  23.002   0.728
26312W        W85408  11.752  15.111   1.367
26313W        W85409  17.069  41.476   3.316
26314W        W85410   2.358  25.712   1.429
26315W        W85411  27.612   3.947   4.746
26316W        W85412  20.711  12.789   3.189
26317W        W85413  35.519  39.983  14.329
26318W        W85414   6.727  25.039   1.903
26319W        W85415  10.798  31.085  10.614
26320W        W85416  29.042  15.781  12.409
26321W        W85417  36.063  18.707   3.844
26322W        W85418  39.462   2.462  12.839
26323W        W85419  35.418  40.976   3.774
26324W        W85420  29.147  43.854  14.373
26325W        W85421   4.881   3.437  10.596
26326W        W85422  36.075  35.029   0.773
26327W        W85423  41.824  20.527  10.986
26328W        W85424  32.911  32.434   2.681
26329W        W85425  28.582   8.757   2.207
26330W        W85426  23.495   8.694   4.655
26331W        W85427  23.015  40.023   2.766
26332W        W85428  36.417  24.194   4.256
26333W        W85429  17.633   6.858   2.332
26334W        W85430  34.114   8.258  13.535
26335W        W85431  28.458   3.865   2.398
26336W        W85432  42.817  15.152   2.811
26337W        W85433  27.463  18.609   2.834
26338W        W85434  11.307  27.613  14.802
26339W        W85435  32.451  16.285  13.427
26340W        W85436  43.798  16.296  12.378
26341W        W85437  13.337  39.875   0.482
26342W        W85438  38.900  23.161  12.876
26343W        W85439  33.884  28.674  10.002
26344W        W85440  34.471  35.971   1.328
26345W        W85441   7.910  21.107   2.264
26346W        W85442   1.316  10.871   1.376
26347W        W85443  36.460  42.967  13.805
26348W        W85444  43.400  21.681  10.977
26349W        W85445  37.854   1.290  13.406
26350W        W85446  44.298  22.552   0.352
26351W        W85447  39.961  24.507  13.956
26352W        W85448  16.710  42.423   2.208
26353W        W85449  26.152   3.865   0.844
26354W        W85450  20.184  25.517   0.944
26355W        W85451   2.950  15.774  12.442
26356W        W85452   9.652  39.383   1.848
26357W        W85453  27.608  16.739  12.950
26358W        W85454  41.361  30.481   2.745
26359W        W85455  22.024  11.730  14.328
26360W        W85456  16.252  18.680  13.023
26361W        W85457  15.322   8.195   4.757
26362W        W85458  40.337   2.876   2.349
26363W        W85459  23.207   8.194  10.641
26364W        W85460  32.562  38.069   1.889
26365W        W85461  15.816  38.538   0.249
26366W        W85462  38.542  41.968   4.266
26367W        W85463   6.858  12.771  12.021
26368W        W85464  31.092  28.655  13.339
26369W        W85465  21.659  29.483   1.885
26370W        W85466  35.516   5.277  11.592
26371W        W85467  36.527   1.338  13.964
26372W        W85468   3.886  35.576   0.854
26373W        W85469  30.437  17.572  14.845
26374W        W85470  30.539  15.822  12.470
26375W        W85471  39.367  40.958   4.787
26376W        W85472  19.053  10.746  14.797
26377W        W85473   5.839  13.766   4.680
26378W        W85474  19.068  42.829  12.453
26379W        W85475  11.778  35.502   2.668
26380W        W85476  14.620  42.518  11.894
26381W        W85477   6.708  14.644   4.141
26382W        W85478  44.769  11.322  12.345
26383W        W85479  43.508  44.453  14.992
26384W        W85480  30.016  24.598   1.826
26385W        W85481  16.711  40.373  13.359
26386W        W85482  26.558  17.137  10.945
26387W        W85483   5.403   8.672  11.939
26388W        W85484  40.447  15.670  13.057
26389W        W85485   6.413  40.457  14.812
26390W        W85486  22.055   5.224   4.658
26391W        W85487   9.169  20.614  12.848
26392W        W85488  40.900   6.803  10.464
26393W        W85489  25.650  31.460   3.189
26394W        W85490  18.627  17.651   0.330
26395W        W85491  40.018  24.019  13.322
26396W        W85492  36.921  40.493   0.777
26397W        W85493   1.285  25.651   0.311
26398W        W85494  30.649  10.256  12.537
26399W        W85495  20.565  18.726   0.895
26400W        W85496  39.355  26.128   2.301
26401W        W85497  26.629  31.616  13.037
26402W        W85498  21.604   7.396   2.286
26403W        W85499  31.520  29.104  14.383
26404W        W85500   7.705  43.823   4.762
26405W        W85501  23.675  32.510  12.017
26406W        W85502  25.979  11.196  12.552
26407W        W85503  28.157  32.954   0.799
26408W        W85504  11.670  38.875  12.414
26409W        W85505   2.446  15.175   2.887
26410W        W85506  41.975  42.958   0.890
26411W        W85507   3.792  32.020   1.347
26412W        W85508  24.111   9.264  13.418
26413W        W85509   3.928  22.228  12.895
26414W        W85510  21.655  30.482   0.321
26415W        W85511  16.802  22.715  11.992
26416W        W85512   1.356   0.987   0.396
26417W        W85513  41.506  30.941  14.495
26418W        W85514   2.416  24.703  12.834
26419W        W85515   7.230   8.772   1.878
26420W        W85516  11.300  13.281   2.749
26421W        W85517  33.130  34.415   1.803
26422W        W85518  23.674  25.062   4.258
26423W        W85519  27.090   7.338   4.346
26424W        W85520   0.896  16.100   1.441
26425W        W85521  30.560  21.750   4.163
26426W        W85522   4.237  27.106  12.845
26427W        W85523  20.095  29.612   2.811
26428W        W85524  27.651  22.058  14.914
26429W        W85525  42.999  39.363   0.256
26430W        W85526  35.950   1.751   3.301
26431W        W85527  24.123  12.723   2.198
26432W        W85528  27.074  30.600   3.272
26433W        W85529  34.397  30.528   4.224
26434W        W85530  34.376  17.624   0.354
26435W        W85531  32.603  41.898   2.371
26436W        W85532  27.557  41.436  14.837
26437W        W85533  34.390   9.884   0.313
26438W        W85534  25.098  28.502   2.751
26439W        W85535  35.528  36.949  12.557
26440W        W85536   2.238  15.284   3.691
26441W        W85537  31.531   6.722   2.734
26442W        W85538  22.088  24.676  13.503
26443W        W85539   1.281  16.285   0.807
26444W        W85540  25.652  14.113  12.962
26445W        W85541  31.624  32.441  14.406
26446W        W85542  21.668   6.920  14.830
26447W        W85543  36.941  44.433   4.754
26448W        W85544   1.407  44.985   3.727
26449W        W85545  15.192  36.454   1.697
26450W        W85546   9.207  26.499   4.210
26451W        W85547   3.790   7.240   3.787
26452W        W85548  27.654  26.058  13.482
26453W        W85549  18.746   2.341  11.973
26454W        W85550  24.667  22.573  12.031
26455W        W85551   7.862  13.249   3.823
26456W        W85552   0.433   7.887   1.241
26457W        W85553   0.342  35.956  13.036
26458W        W85554  36.394  14.332  10.889
26459W        W85555  15.587  27.665   0.811
26460W        W85556  19.106   2.950  13.313
26461W        W85557   4.322  33.532   1.845
26462W        W85558   0.433  12.788   3.861
26463W        W85559   7.679  10.850  11.858
26464W        W85560  28.096  25.713   3.363
26465W        W85561   8.766   0.361  11.393
26466W        W85562  20.051  33.992  12.902
26467W        W85563  32.552  36.878  10.515
26468W        W85564  35.036  43.943   1.296
26469W        W85565   1.956  28.081  14.492
26470W        W85566  25.118  11.690   4.202
26471W        W85567   7.839  21.750   4.197
26472W        W85568  33.506  30.036   5.092
26473W        W85569  44.852  33.022   0.397
26474W        W85570  20.735   5.369  11.075
26475W        W85571   0.983  32.123   1.816
26476W        W85572  29.986   9.322   1.924
26477W        W85573   7.237  16.073   0.808
26478W        W85574  23.736   4.407  13.547
26479W        W85575  26.958   5.218  13.809
26480W        W85576  12.821  34.016   4.301
26481W        W85577  34.419  42.434  12.976
26482W        W85578  15.171   2.838  12.889
26483W        W85579  25.490   6.267   1.400
26484W        W85580  32.142  32.095  13.368
26485W        W85581   4.220  21.067  12.066
26486W        W85582  34.046  38.336  13.944
26487W        W85583  32.601  40.529  14.442
26488W        W85584  34.905  23.728   3.808
26489W        W85585  20.658  33.030  11.977
26490W        W85586  13.819  43.786  12.457
26491W        W85587  28.109   8.743  14.981
26492W        W85588   9.170   0.834  13.448
26493W        W85589  16.723  34.546   9.642
26494W        W85590   3.771   4.760  14.856
26495W        W85591  33.934  43.403  11.393
26496W        W85592  40.302  33.013   0.381
26497W        W85593  43.514  39.047  14.400
26498W        W85594  12.701  35.561  11.916
26499W        W85595  16.126  24.989   1.823
26500W        W85596  18.287  14.757  13.946
26501W        W85597   2.843  29.087   0.762
26502W        W85598  10.639   9.202   4.745
26503W        W85599   1.743  16.600  13.808
26504W        W85600  26.641  12.762  14.835
26505W        W85601  16.739  28.477   0.445
26506W        W85602   5.763   7.743   4.704
26507W        W85603   8.821  33.560   4.266
26508W        W85604   4.301  33.473   3.750
26509W        W85605  42.786  36.426  14.796
26510W        W85606   8.331  35.909   4.755
26511W        W85607  27.668  40.328   2.868
26512W        W85608  15.244  41.030  11.083
26513W        W85609  42.836  12.253   3.323
26514W        W85610   6.891  38.428  14.370
26515W        W85611  33.507  30.625  13.513
26516W        W85612  43.284  38.511  14.475
26517W        W85613   3.795  37.403  13.849
26518W        W85614  26.559  22.128   1.228
26519W        W85615  22.620  30.912   3.164
26520W        W85616  29.072  19.073  14.295
26521W        W85617  44.367  26.062  14.007
26522W        W85618  42.282   0.421   1.843
26523W        W85619  10.651  26.482   1.357
26524W        W85620  15.579  37.894   2.871
26525W        W85621   5.393  33.479  13.523
26526W        W85622  41.428  25.139   1.332
26527W        W85623  33.611  27.025   0.923
26528W        W85624   8.726  42.969   4.341
26529W        W85625  22.133  40.484  13.862
26530W        W85626  41.297  17.636   0.363
26531W        W85627  24.062  26.987   1.924
26532W        W85628  16.282  18.610   3.240
26533W        W85629  39.483  37.402   0.799
26534W        W85630   3.825  26.048   0.369
26535W        W85631  36.401   0.817   3.278
26536W        W85632  19.626  25.110  11.534
26537W        W85633  13.760  26.093  14.965
26538W        W85634  33.127  32.621  11.966
26539W        W85635  18.156  41.449   3.798
26540W        W85636  28.467  26.601  11.901
26541W        W85637  26.063  44.440   3.861
26542W        W85638  30.945   9.311  10.479
26543W        W85639   8.716   3.741   4.332
26544W        W85640   9.338   0.360   1.882
26545W        W85641  37.437  41.336  11.385
26546W        W85642  29.470  12.752   3.769
26547W        W85643  15.709  26.503   2.689
26548W        W85644   9.723  17.660  14.447
26549W        W85645  16.609  16.619  12.996
26550W        W85646  25.614   5.377  10.496
26551W        W85647  19.728  12.612   4.788
26552W        W85648  41.502  35.397   4.117
26553W        W85649   1.311   8.316  13.430
26554W        W85650  21.719   6.791   4.170
26555W        W85651  39.810   3.388   0.804
26556W        W85652  40.491  29.171  12.370
26557W        W85653  10.787  32.566  10.577
26558W        W85654  30.918  38.454   4.774
26559W        W85655   8.720  41.508  11.609
26560W        W85656  30.482  31.989  12.890
26561W        W85657  10.217   5.783   2.367
26562W        W85658   6.820  37.472  14.764
26563W        W85659  33.514  43.330   4.748
26564W        W85660   4.256  10.363   2.673
26565W        W85661   9.878   4.815  12.360
26566W        W85662  20.765   4.827   2.841
26567W        W85663   4.800  27.946  14.445
26568W        W85664  20.036   4.815  11.938
26569W        W85665  26.111   0.462   1.728
26570W        W85666  40.044  29.109   2.366
26571W        W85667   9.323  19.616  14.015
26572W        W85668  17.725   1.928  10.607
26573W        W85669   3.953  15.173   2.878
26574W        W85670  40.895  20.649  13.904
26575W        W85671   7.779  11.303   4.624
26576W        W85672  26.703  33.058  10.153
26577W        W85673   5.833  42.954  13.437
26578W        W85674  25.514  11.348   4.659
26579W        W85675  39.049  33.469  11.039
26580W        W85676  13.205  11.756   4.729
26581W        W85677   6.822  37.393  12.451
26582W        W85678  23.092  42.835   0.439
26583W        W85679  32.895  31.950   5.141
26584W        W85680  27.675  13.844  10.530
26585W        W85681  32.052   3.357   4.245
26586W        W85682   7.363  27.976   1.307
26587W        W85683  18.681   0.482   2.221
26588W        W85684  31.625   1.475  11.912
26589W        W85685   2.243   6.238   2.369
26590W        W85686  39.345  11.173  11.916
26591W        W85687  24.580  13.808   2.374
26592W        W85688  36.546  27.606   0.781
26593W        W85689  23.123  43.454  11.418
26594W        W85690  20.041  26.629  12.493
26595W        W85691  29.984  40.548  11.566
26596W        W85692   1.781  44.757   3.770
26597W        W85693  24.491  16.701  13.062
26598W        W85694  24.513  40.519  14.400
26599W        W85695  24.506  10.646   0.456
26600W        W85696  15.727  12.721   1.211
26601W        W85697  11.220  15.817  14.320
26602W        W85698  26.694   5.819   1.255
26603W        W85699   8.396  16.220  10.571
26604W        W85700  18.667  32.041   2.710
26605W        W85701  34.480   8.686   3.704
26606W        W85702  44.780  10.731   0.359
26607W        W85703  14.712  26.485   4.621
26608W        W85704   0.759  18.598  14.778
26609W        W85705  29.030   7.850  14.429
26610W        W85706   0.341  17.241  13.474
26611W        W85707  36.040  14.124   3.232
26612W        W85708   4.298  38.557  12.069
26613W        W85709  42.016  37.905   1.437
26614W        W85710  31.437   6.703  14.988
26615W        W85711  21.558  17.255  14.820
26616W        W85712  32.455  23.062   9.995
26617W        W85713   6.206  20.038  10.556
26618W        W85714  21.639  20.726  14.026
26619W        W85715  32.889   7.361  13.911
26620W        W85716   2.390   2.745   4.159
26621W        W85717  20.747  39.000   4.347
26622W        W85718  18.181  27.547  13.867
26623W        W85719  17.256  14.329  14.881
26624W        W85720  29.157  26.569   0.353
26625W        W85721  34.009   6.822   2.219
26626W        W85722  15.189  37.370   2.303
26627W        W85723   4.908   3.349   4.346
26628W        W85724  35.056  44.460   2.400
26629W        W85725  38.334   8.353   0.961
26630W        W85726  31.947  33.005   4.227
26631W        W85727  24.507  20.240  12.406
26632W        W85728   0.885  31.476   4.597
26633W        W85729  34.404  27.019  14.801
26634W        W85730  10.194  26.647  12.430
26635W        W85731  24.027  34.872  12.865
26636W        W85732  36.981  36.359   1.428
26637W        W85733  42.390  29.163   4.614
26638W        W85734  43.903  31.070   1.411
26639W        W85735  34.397  39.879   1.779
26640W        W85736  38.943   0.315   3.342
26641W        W85737  11.776  24.667   1.216
26642W        W85738  18.615  25.696  11.053
26643W        W85739  41.508  26.497   3.656
26644W        W85740   9.741   1.787  14.765
26645W        W85741   5.778  40.913  10.487
26646W        W85742  29.117  22.244  12.977
26647W        W85743   0.370   7.677  14.442
26648W        W85744   0.795  26.503  11.968
26649W        W85745  38.958  37.427  11.570
26650W        W85746  10.157  13.698  12.369
26651W        W85747   1.453  38.820   0.425
26652W        W85748  40.892  36.935  12.573
26653W        W85749  12.327  17.571   5.654
26654W        W85750  25.098  39.472  10.626
26655W        W85751  17.210  19.126  14.832
26656W        W85752  11.189  36.568   0.312
26657W        W85753   9.749  12.156  10.576
26658W        W85754  11.358  30.038   5.611
26659W        W85755   0.482  37.362   1.435
26660W        W85756  36.494  31.906  10.454
26661W        W85757  34.547  32.060  10.978
26662W        W85758   1.448  19.180   3.317
26663W        W85759   7.239  29.513  11.097
26664W        W85760  10.202  10.777  14.936
26665W        W85761   2.427  44.287  11.976
26666W        W85762  30.417  21.621   1.914
26667W        W85763  18.653  33.073   0.385
26668W        W85764  18.766  30.431  11.070
26669W        W85765  44.951  39.063  12.840
26670W        W85766  11.271  14.756   2.797
26671W        W85767  44.260  34.546   2.847
26672W        W85768  30.644  40.023   4.298
26673W        W85769  44.501  11.729  12.538
26674W        W85770  34.405  41.970   1.395
26675W        W85771  24.086   9.888   3.321
26676W        W85772  36.453  23.641  12.927
26677W        W85773  28.024   6.332  10.935
26678W        W85774  24.629  28.954  11.024
26679W        W85775  12.294  39.493   4.122
26680W        W85776  41.019   2.451  14.374
26681W        W85777  23.581   0.324  11.465
26682W        W85778   4.227  14.769   2.392
26683W        W85779  24.642   9.224   4.834
26684W        W85780  38.016   9.756  13.433
26685W        W85781  41.380   3.256  14.467
26686W        W85782  13.323   5.854   4.332
26687W        W85783  42.380  26.960  14.822
26688W        W85784  34.509  35.466  11.002
26689W        W85785  28.087  37.390   0.288
26690W        W85786  22.532  31.011  14.409
26691W        W85787  35.409   0.368   3.773
26692W        W85788  35.482  20.055  11.534
26693W        W85789  39.541   4.875  11.396
26694W        W85790  29.572  35.500   2.192
26695W        W85791  44.972  32.925  12.094
26696W        W85792  15.245  44.495   2.840
26697W        W85793  17.074   3.745  10.996
26698W        W85794  20.594  29.080   0.844
26699W        W85795  39.370  23.505  10.910
26700W        W85796  37.893   4.291  13.524
26701W        W85797  44.942  40.975   4.309
26702W        W85798   8.741  19.268   0.426
26703W        W85799  15.621  30.162  11.963
26704W        W85800  39.318  42.514  14.011
26705W        W85801  25.483  11.674   0.478
26706W        W85802   7.239   9.149  13.998
26707W        W85803   9.193  15.763   4.658
26708W        W85804  24.015   9.855   3.722
26709W        W85805  44.970  36.929   0.260
26710W        W85806  24.126  41.387  10.496
26711W        W85807  31.108   5.270  12.395
26712W        W85808  26.185  11.766  12.969
26713W        W85809  41.329  14.163   0.367
26714W        W85810   0.492  38.326  14.863
26715W        W85811  36.546   3.403  11.415
26716W        W85812   3.295  27.174   2.325
26717W        W85813  16.087  11.298  13.014
26718W        W85814  37.467  19.180   0.903
26719W        W85815  36.522  34.501  11.877
26720W        W85816  28.656  37.354  14.839
26721W        W85817  39.534  20.047   2.826
26722W        W85818  29.426  29.961   2.896
26723W        W85819   7.842  18.609  11.113
26724W        W85820   4.398  40.320  12.407
26725W        W85821  43.917   9.393  13.864
26726W        W85822  21.751  15.248  14.414
26727W        W85823  33.420  41.461   5.087
26728W        W85824  13.104   4.764   1.818
26729W        W85825   2.251  13.155   4.255
26730W        W85826  40.528  13.825  10.627
26731W        W85827  16.686  13.291  12.486
26732W        W85828  39.988  23.629  10.493
26733W        W85829  15.092  29.569   3.227
26734W        W85830  44.390  34.402   4.806
26735W        W85831  39.034  12.192   3.837
26736W        W85832  18.761  23.671   0.323
26737W        W85833  17.101  13.217  14.334
26738W        W85834  11.813   1.978  10.951
26739W        W85835  33.129  22.621  12.553
26740W        W85836  12.124  22.588   4.676
26741W        W85837  19.084   6.182   3.364
26742W        W85838  19.154  41.973   1.317
26743W        W85839  26.580  25.967  14.420
26744W        W85840  10.780  44.803   1.742
26745W        W85841   1.974  21.092  13.415
26746W        W85842   3.883  35.922  14.307
26747W        W85843   6.321  30.484  11.913
26748W        W85844  25.122  22.149  11.096
26749W        W85845   1.333  21.574   3.287
26750W        W85846  30.009  22.702  10.558
26751W        W85847  26.069   9.860   4.615
26752W        W85848  42.488  31.996  14.001
26753W        W85849  15.683  44.345   3.688
26754W        W85850  21.181  24.669  11.055
26755W        W85851  17.161  10.323   4.663
26756W        W85852  40.347   6.204   2.328
26757W        W85853  13.676  39.990  13.380
26758W        W85854   5.881  43.445  13.956
26759W        W85855  13.728  36.456   4.255
26760W        W85856   3.928  32.984   4.771
26761W        W85857  35.538  12.175  10.606
26762W        W85858  39.034  26.465  10.503
26763W        W85859  27.137   6.752   4.780
26764W        W85860   4.213   3.440  13.919
26765W        W85861   5.919  36.974  11.085
26766W        W85862  39.025  32.108  12.552
26767W        W85863  26.693  41.514  11.507
26768W        W85864   1.463   2.831   0.759
26769W        W85865   7.781  29.933   3.793
26770W        W85866  22.747  14.603  14.784
26771W        W85867  11.765  11.244   4.690
26772W        W85868  36.989  44.336   0.295
26773W        W85869  29.067   2.819   3.200
26774W        W85870   3.383   2.752   1.804
26775W        W85871  41.384  17.714  13.055
26776W        W85872  31.078  21.042   5.197
26777W        W85873  17.655  23.582   1.747
26778W        W85874  37.891  11.761   4.223
26779W        W85875  17.247  28.148   3.700
26780W        W85876  21.720  18.677  13.993
26781W        W85877  27.194  25.595  11.547
26782W        W85878   2.726  41.841   4.623
26783W        W85879   9.702   8.322  10.591
26784W        W85880  32.634   9.732  12.535
26785W        W85881  17.580  10.325   3.668
26786W        W85882  12.628   1.862   4.737
26787W        W85883  41.451  15.235  11.043
26788W        W85884  36.510  41.396   9.962
26789W        W85885   3.278   6.362   3.195
26790W        W85886  18.598  28.444   1.251
26791W        W85887  34.475  30.413  13.892
26792W        W85888  16.265   3.831  14.854
26793W        W85889  19.186  35.427   0.428
26794W        W85890  38.497  17.299  10.454
26795W        W85891   5.772  40.871   1.762
26796W        W85892  24.217   3.765  11.584
26797W        W85893  10.201  24.184   1.304
26798W        W85894  31.574  37.885  12.828
26799W        W85895  37.906  38.049   4.703
26800W        W85896  37.427  40.055   0.952
26801W        W85897  21.693  14.674  12.974
26802W        W85898  28.010  22.083   3.226
26803W        W85899  11.803   2.934   1.817
26804W        W85900  28.603  37.875   3.177
26805W        W85901  31.512  10.719  12.973
26806W        W85902   5.907  44.405  12.073
26807W        W85903   0.874  35.083  14.476
26808W        W85904  20.102  20.666  11.612
26809W        W85905  18.626   8.355   3.183
26810W        W85906   2.267  17.692  11.516
26811W        W85907  26.117   9.371   2.260
26812W        W85908   4.700  34.412   1.826
26813W        W85909   7.717  27.637  10.938
26814W        W85910  24.654  17.129  14.313
26815W        W85911  12.622  14.724   3.684
26816W        W85912  43.279  40.938   1.341
26817W        W85913  27.658   9.344   1.852
26818W        W85914  42.031   5.697  12.851
26819W        W85915   7.693  16.129  10.901
26820W        W85916  28.032   4.701  14.916
26821W        W85917  11.140  21.664   4.132
26822W        W85918  13.743  26.645  11.009
26823W        W85919  26.017  42.014   2.400
26824W        W85920   1.358  23.716  14.911
26825W        W85921   6.422  20.039   4.663
26826W        W85922  16.292   7.751   0.917
26827W        W85923  37.509   6.211  13.387
26828W        W85924  37.843  37.947   2.352
26829W        W85925  37.563   0.762  11.989
26830W        W85926  27.002  25.974  14.020
26831W        W85927  18.260  27.459   2.868
26832W        W85928  12.818  27.020   2.828
26833W        W85929  17.071  38.894  12.948
26834W        W85930  39.468  20.091  10.555
26835W        W85931   8.850  29.140  13.337
26836W        W85932   3.828  12.349  14.793
26837W        W85933   6.356  41.865  10.569
26838W        W85934  16.630   6.876  14.317
26839W        W85935   6.344  11.129  14.797
26840W        W85936  39.932  23.068  11.592
26841W        W85937  34.570  23.179  14.924
26842W        W85938  14.338  20.542   1.726
26843W        W85939  40.440  40.373  13.360
26844W        W85940  39.485  40.889  11.996
26845W        W85941  18.554  39.502   3.685
26846W        W85942  39.432  39.335   3.248
26847W        W85943   6.382  35.041  11.044
26848W        W85944  18.580   6.416   0.306
26849W        W85945  34.613  44.440   4.749
26850W        W85946   2.915  36.969  13.443
26851W        W85947  29.010  17.222  11.083
26852W        W85948  33.904  11.273   4.700
26853W        W85949   2.819  44.363   3.809
26854W        W85950  44.304  27.987   0.424
26855W        W85951   7.682  38.010  10.896
26856W        W85952  24.583  18.574   3.160
26857W        W85953   3.307  29.570   0.254
26858W        W85954   6.715  39.966  14.827
26859W        W85955  13.680  23.063  14.493
26860W        W85956  20.585  20.043  11.563
26861W        W85957  12.661   1.849  11.951
26862W        W85958  39.898  19.623  14.024
26863W        W85959  18.113  19.185   1.709
26864W        W85960  43.882  21.072   1.279
26865W        W85961  13.224  16.690   2.369
26866W        W85962  11.292  16.102   3.322
26867W        W85963  20.179   8.855  13.800
26868W        W85964   0.786  14.660  12.356
26869W        W85965  30.979  29.041   2.678
26870W        W85966  21.162  37.892   5.566
26871W        W85967  32.433   1.254   1.755
26872W        W85968   2.259  32.934   3.808
26873W        W85969  41.532  20.568   2.384
26874W        W85970  42.515  20.661   2.264
26875W        W85971  33.040  18.730  13.811
26876W        W85972   7.269  41.923  13.374
26877W        W85973  19.780  35.954   0.730
26878W        W85974  27.616  33.427  14.391
26879W        W85975  18.593  11.652   0.856
26880W        W85976   9.328   8.274   0.758
26881W        W85977  34.371  16.677   3.749
26882W        W85978  34.119  30.964   1.393
26883W        W85979  40.926   7.908  12.472
26884W        W85980  40.506  21.196   4.668
26885W        W85981  42.430  30.065  14.276
26886W        W85982  17.304  26.584   1.220
26887W        W85983  30.911   8.233  10.496
26888W        W85984  13.618   8.304   1.316
26889W        W85985  35.419   5.318   1.733
26890W        W85986  26.471  14.820   3.197
26891W        W85987  20.674  41.020  10.571
26892W        W85988   0.326  15.820   1.811
26893W        W85989  35.485  10.322   3.298
26894W        W85990  18.739  32.463   4.829
26895W        W85991  41.945  36.478   4.706
26896W        W85992  44.911  14.114  13.982
26897W        W85993   5.320  17.272  14.497
26898W        W85994  39.002  28.974   1.763
26899W        W85995  40.388  15.271   1.285
26900W        W85996  21.223   1.397   1.805
26901W        W85997  37.423   8.234   4.139
26902W        W85998  38.327  13.799  13.875
26903W        W85999  21.527   4.706  13.994
26904W        W86000   0.465  29.152   4.775
26905W        W86001   4.712  21.109  12.579
26906W        W86002  21.543   2.921  14.338
26907W        W86003   7.191  25.049  12.532
26908W        W86004  40.433  17.202   4.228
26909W        W86005   2.808  39.470   4.797
26910W        W86006  13.149  25.529  13.360
26911W        W86007  29.020  18.209  11.856
26912W        W86008  10.313  36.887  12.368
26913W        W86009  44.884  29.088   2.774
26914W        W86010  26.989  24.209  13.431
26915W        W86011  17.282   0.986  11.942
26916W        W86012  30.452  20.732   3.806
26917W        W86013  32.477  39.972  14.820
26918W        W86014  35.493  23.194   3.200
26919W        W86015  10.652  17.172  14.866
26920W        W86016  38.849  28.662  10.004
26921W        W86017  39.042  32.432  14.285
26922W        W86018  34.435  35.970   4.242
26923W        W86019   0.327   8.873  12.438
26924W        W86020  44.408   5.898   9.979
26925W        W86021  38.331  40.922  13.964
26926W        W86022   9.830  37.401   4.315
26927W        W86023  30.921  39.866   1.826
26928W        W86024  35.358  20.526   1.440
26929W        W86025  35.515  22.251   4.811
26930W        W86026  43.807  17.204  11.016
26931W        W86027   9.693  11.321  13.890
26932W        W86028  26.037  38.821  14.307
26933W        W86029  43.778   7.408  11.409
26934W        W86030  21.241  14.180   4.212
26935W        W86031  21.539   7.696  11.125
26936W        W86032  18.786  42.922  12.430
26937W        W86033  20.258   0.974  12.856
26938W        W86034  24.623  10.210   1.410
26939W        W86035  20.222  42.880  14.964
26940W        W86036   3.887   3.327   4.306
26941W        W86037  38.495  15.590   4.793
26942W        W86038   5.881  44.324   1.817
26943W        W86039  20.125  39.531   3.237
26944W        W86040  34.054  35.444   4.127
26945W        W86041   8.890   7.326  13.884
26946W        W86042   1.953   9.183   0.309
26947W        W86043  15.318  17.071   2.278
26948W        W86044  36.391   1.847  13.851
26949W        W86045  38.540  14.832   1.782
26950W        W86046  43.445   7.252  11.420
26951W        W86047  41.918  21.564   1.258
26952W        W86048  16.631  35.367   1.271
26953W        W86049  41.990  21.546  11.920
26954W        W86050  23.549   3.252   1.730
26955W        W86051  39.897  20.089  11.072
26956W        W86052  36.457  20.192   0.312
26957W        W86053  27.533  23.673  10.544
26958W        W86054   9.275  22.017   0.449
26959W        W86055  38.357  38.019  12.026
26960W        W86056  26.045  33.407  10.018
26961W        W86057  23.111   9.326   1.722
26962W        W86058  34.049   8.255  12.864
26963W        W86059  42.344  14.803   1.379
26964W        W86060  14.630   6.278  14.433
26965W        W86061  20.164   3.797   1.266
26966W        W86062  10.842  27.551   1.734
26967W        W86063  30.159  20.697  11.054
26968W        W86064  10.238  32.926  12.439
26969W        W86065  28.980  31.612   2.394
26970W        W86066   6.821  25.489   2.402
26971W        W86067  11.308  27.527   0.354
26972W        W86068  24.647  33.504   0.458
26973W        W86069  20.073  23.652  13.822
26974W        W86070  34.385  25.630   2.402
26975W        W86071  39.559  28.110  14.415
26976W        W86072  13.118   8.177   1.720
26977W        W86073  24.000  18.259   3.704
26978W        W86074  43.306   5.388   2.278
26979W        W86075  37.913  16.682   2.275
26980W        W86076  16.239  38.011   0.279
26981W        W86077  16.074  10.676  14.498
26982W        W86078  18.742  33.898   4.331
26983W        W86079   3.911  30.641  13.952
26984W        W86080   8.376  14.164  11.095
26985W        W86081  31.911   3.939   3.258
26986W        W86082  20.210  33.457   1.441
26987W        W86083  16.711   6.824   1.382
26988W        W86084  19.217  14.129   4.329
26989W        W86085  23.223   2.752   3.340
26990W        W86086   0.871  30.158   0.954
26991W        W86087   7.407  29.140   3.345
26992W        W86088  25.631  41.984   3.377
26993W        W86089  34.965  33.912  10.485
26994W        W86090  37.053  29.475   2.355
26995W        W86091  36.353  30.988   3.819
26996W        W86092  33.070  43.359   2.242
26997W        W86093   2.855  17.704   2.343
26998W        W86094  14.627  25.976   4.624
26999W        W86095  31.073  42.879  14.358
27000W        W86096  39.451  26.638  13.961
27001W        W86097   6.341  12.217  10.528
27002W        W86098   1.445  35.949  14.291
27003W        W86099  19.203  30.051  14.461
27004W        W86100  34.493  29.153   0.285
27005W        W86101  23.034   0.751  13.049
27006W        W86102   4.793  28.015   0.786
27007W        W86103  28.517  27.141   0.918
27008W        W86104  44.898  24.980   3.847
27009W        W86105  25.141  35.544   2.201
27010W        W86106  20.053   2.454  13.423
27011W        W86107  32.961  14.253  10.609
27012W        W86108  16.655  26.965  11.432
27013W        W86109  44.829  25.636   0.771
27014W        W86110  27.123  12.125  11.068
27015W        W86111  28.942  22.250  11.109
27016W        W86112  37.037  28.539   2.390
27017W        W86113   4.406  19.144   2.898
27018W        W86114  35.931   0.864   1.824
27019W        W86115  28.457   0.981   3.803
27020W        W86116  13.781  38.845  13.521
27021W        W86117  18.163  31.634   4.785
27022W        W86118  20.108  17.701  14.477
27023W        W86119  10.289  28.567   3.281
27024W        W86120  21.095  20.522  14.814
27025W        W86121  14.789  21.056   3.338
27026W        W86122  20.549   5.687   5.231
27027W        W86123  23.218   7.828   4.147
27028W        W86124   9.357  19.192  13.816
27029W        W86125  20.658   9.340  13.991
27030W        W86126   8.246  22.241  14.862
27031W        W86127  42.451   2.912  12.555
27032W        W86128  18.101  40.911   2.235
27033W        W86129   7.197  17.591   3.310
27034W        W86130  32.126  29.570  13.479
27035W        W86131  34.604  37.459   1.876
27036W        W86132   2.386  12.660   0.312
27037W        W86133  42.803  21.155  11.448
27038W        W86134   6.706  22.509  14.806
27039W        W86135  28.591  43.996  11.926
27040W        W86136  34.971  37.962   3.168
27041W        W86137  23.989  16.604   2.666
27042W        W86138   9.768  34.911  10.460
27043W        W86139  20.078  31.616   3.154
27044W        W86140  35.581  25.186   1.234
27045W        W86141  40.905   2.391   2.308
27046W        W86142  34.603   8.218  12.558
27047W        W86143  40.497  38.876  11.544
27048W        W86144  39.867   5.278   2.311
27049W        W86145  32.122   5.872  14.399
27050W        W86146  42.969  22.036  11.382
27051W        W86147  14.279  11.668   0.272
27052W        W86148   3.762  18.113  10.972
27053W        W86149  17.284  27.976   5.226
27054W        W86150  25.038   7.332  14.878
27055W        W86151   5.877  35.960   0.903
27056W        W86152  13.841  35.017   1.694
27057W        W86153   3.931   0.749  14.862
27058W        W86154   1.237  15.814   0.748
27059W        W86155  34.393  28.963   1.796
27060W        W86156  22.046   6.348   0.942
27061W        W86157  10.216  16.226   0.455
27062W        W86158   5.888  33.426   1.375
27063W        W86159  34.941   4.919   0.808
27064W        W86160   2.446  36.074  10.579
27065W        W86161  35.104  10.352   1.926
27066W        W86162   9.309  36.482   3.769
27067W        W86163   4.937  43.833   0.348
27068W        W86164  21.067  23.643  14.339
27069W        W86165  12.255   5.232   0.271
27070W        W86166  20.075  23.057  14.006
27071W        W86167  14.197  10.346   0.910
27072W        W86168  38.383  32.094   1.285
27073W        W86169  44.970  29.447   1.336
27074W        W86170   4.213  27.155   2.224
27075W        W86171  41.949  23.679   1.293
27076W        W86172  41.536   7.306  14.514
27077W        W86173  38.947  23.557   1.764
27078W        W86174  19.682  19.697   4.193
27079W        W86175   3.857   9.237  12.018
27080W        W86176  25.519  23.080  11.391
27081W        W86177   1.800   7.258   2.894
27082W        W86178  24.158  30.088  13.973
27083W        W86179  42.439  36.897  10.434
27084W        W86180  28.565  31.612   4.235
27085W        W86181  31.118   4.853  12.065
27086W        W86182  42.984  44.863   0.298
27087W        W86183  34.391  23.703  12.426
27088W        W86184   0.430   1.241  13.465
27089W        W86185  17.091  24.023   4.742
27090W        W86186  10.714  40.329  12.383
27091W        W86187  25.513  15.301  10.494
27092W        W86188  26.516   4.922  11.015
27093W        W86189  19.653  14.731   3.255
27094W        W86190  37.039  10.790   2.797
27095W        W86191  36.509  28.063  10.431
27096W        W86192  16.782  26.669  10.524
27097W        W86193  15.111  42.447   0.792
27098W        W86194  37.488  39.430   4.253
27099W        W86195  44.954  42.388   3.760
27100W        W86196   9.851   8.838   1.447
27101W        W86197  16.725  28.104   3.192
27102W        W86198  25.084   5.736  14.462
27103W        W86199  29.609  26.645  12.426
27104W        W86200  32.544  33.519   2.345
27105W        W86201   4.939  22.560  13.402
27106W        W86202  41.852  23.104  11.558
27107W        W86203  38.549  34.017   4.683
27108W        W86204  43.935  32.123   3.191
27109W        W86205  39.418  12.292  11.904
27110W        W86206  26.205  28.124   0.287
27111W        W86207   1.429   6.194  11.981
27112W        W86208  26.615  36.864  14.428
27113W        W86209  25.532  15.270   0.825
27114W        W86210  30.493  22.589   2.848
27115W        W86211  31.069   8.834  14.384
27116W        W86212  11.234  44.766   3.155
27117W        W86213  27.044  13.145  11.387
27118W        W86214   7.349  10.329  14.016
27119W        W86215  22.729  26.985  12.925
27120W        W86216  32.093  16.251   0.836
27121W        W86217  32.421   8.396   2.291
27122W        W86218  24.700  10.734   9.487
27123W        W86219  16.295   1.808   3.797
27124W        W86220   2.418  20.037  12.056
27125W        W86221  12.354  36.477  12.377
27126W        W86222  41.318  11.204  14.766
27127W        W86223   3.272  22.521   2.326
27128W        W86224   8.657  33.472  14.315
27129W        W86225  19.721  24.217  13.381
27130W        W86226  14.705  12.352   1.908
27131W        W86227   2.944  41.299   3.310
27132W        W86228  39.040  12.247  14.475
27133W        W86229   5.339  20.101  14.835
27134W        W86230  34.442  18.095   5.147
27135W        W86231  15.772  25.100   0.884
27136W        W86232  12.286  28.023  10.138
27137W        W86233   3.752   7.190   1.210
27138W        W86234  23.040  13.316  12.544
27139W        W86235  38.392  42.898   1.409
27140W        W86236  36.518  26.111  11.486
27141W        W86237  14.598   4.766   4.175
27142W        W86238  22.746  15.253   2.717
27143W        W86239   1.371  42.822  10.904
27144W        W86240  14.320  19.197  13.984
27145W        W86241   3.263  34.024  13.038
27146W        W86242   2.270  34.471   0.282
27147W        W86243   5.855   6.191   3.308
27148W        W86244  22.049  30.088   3.716
27149W        W86245  39.932   6.320  11.426
27150W        W86246  28.535   3.440   0.467
27151W        W86247   4.756   6.883  14.394
27152W        W86248  25.168   6.782   4.832
27153W        W86249  39.364  37.953   2.396
27154W        W86250  32.885   3.865   3.643
27155W        W86251  23.152   7.201  11.390
27156W        W86252  33.900  21.610   0.328
27157W        W86253   3.276  42.874  14.787
27158W        W86254  40.855  41.794  11.376
27159W        W86255   4.276  11.685  10.937
27160W        W86256  17.160  37.970  13.410
27161W        W86257  41.982  44.993   4.185
27162W        W86258   2.254  13.177  13.831
27163W        W86259   9.885  34.608  13.864
27164W        W86260   9.360  33.932   2.725
27165W        W86261  26.009  38.359  11.592
27166W        W86262  37.081  35.369  12.352
27167W        W86263  17.066  22.195  12.965
27168W        W86264   8.164  17.770   4.202
27169W        W86265  41.306   2.729  12.062
27170W        W86266  44.283   5.695   3.688
27171W        W86267   7.732  37.992   3.378
27172W        W86268   8.882   8.720   4.226
27173W        W86269  32.452  44.302  14.807
27174W        W86270   7.303  23.503   3.870
27175W        W86271  31.075   8.184   3.801
27176W        W86272  36.043  37.990   4.794
27177W        W86273  38.028  40.922  10.446
27178W        W86274  23.079  12.232  11.562
27179W        W86275  16.151  24.070   1.701
27180W        W86276  40.961  27.183   0.817
27181W        W86277  40.948  23.178  11.961
27182W        W86278  34.890  26.108   2.194
27183W        W86279  10.677  11.726  12.941
27184W        W86280   5.305  32.553  11.049
27185W        W86281  26.628  28.104  12.351
27186W        W86282   9.344  29.526  14.281
27187W        W86283   8.713   5.810  14.919
27188W        W86284  21.632  19.049   0.865
27189W        W86285   3.894  26.546  13.952
27190W        W86286  23.179  27.685  12.479
27191W        W86287  24.214  35.923  12.372
27192W        W86288  25.650  41.964  12.561
27193W        W86289  16.648  16.139   0.358
27194W        W86290  33.516  11.835   2.675
27195W        W86291  17.070   3.336   0.875
27196W        W86292   3.867  11.171  14.981
27197W        W86293  37.522  27.555   2.763
27198W        W86294  44.473  44.390   1.260
27199W        W86295  10.771   8.809  12.400
27200W        W86296  25.049  21.104  12.907
27201W        W86297  27.949  41.881   1.353
27202W        W86298   1.286  13.760  11.590
27203W        W86299  44.818  16.741   2.245
27204W        W86300   9.854  11.299   4.740
27205W        W86301  25.650  30.024  11.481
27206W        W86302  27.120   7.863   2.822
27207W        W86303  31.913  38.969  12.827
27208W        W86304  38.521  43.387   1.239
27209W        W86305  40.495  23.591  10.151
27210W        W86306   9.802  32.483  11.433
27211W        W86307   2.430   4.211   2.405
27212W        W86308  25.616  11.678  10.513
27213W        W86309   9.257   6.291  10.055
27214W        W86310  10.726  38.423  14.426
27215W        W86311  20.067   3.876  14.857
27216W        W86312  23.110  42.850   1.721
27217W        W86313   8.671   7.735  12.953
27218W        W86314   9.343  28.964   9.927
27219W        W86315  30.962  23.526  12.433
27220W        W86316  28.652   6.839  11.863
27221W        W86317  40.896  12.260  12.361
27222W        W86318  38.907  26.017   3.293
27223W        W86319   9.364  12.246   4.704
27224W        W86320   6.233  32.448   3.179
27225W        W86321  33.626  21.689   0.384
27226W        W86322  24.505  28.441   3.635
27227W        W86323  37.961  17.723   1.877
27228W        W86324   1.391  15.298  14.903
27229W        W86325  16.217   1.770   0.444
27230W        W86326  31.565  21.101   0.352
27231W        W86327  36.478  40.459  10.610
27232W        W86328  38.900  30.925  10.926
27233W        W86329   2.230  24.224  14.468
27234W        W86330   0.491  16.123   2.841
27235W        W86331  33.043  31.580   2.858
27236W        W86332  35.923  28.657   3.309
27237W        W86333  31.131  31.020   4.627
27238W        W86334  44.004  35.457  13.390
27239W        W86335  18.155  16.635  11.041
27240W        W86336  12.678  15.663  12.392
27241W        W86337  23.179  15.603  12.940
27242W        W86338  13.655   6.265   3.743
27243W        W86339  38.063  26.604  10.922
27244W        W86340  28.150   4.900  12.955
27245W        W86341  20.681  30.124  10.406
27246W        W86342   0.759  22.683  13.062
27247W        W86343  32.055  10.192   3.727
27248W        W86344  26.197   4.421   4.672
27249W        W86345   5.422   2.722  13.509
27250W        W86346   1.366   9.316   1.391
27251W        W86347  12.735  10.857  10.580
27252W        W86348  33.557  16.668  13.501
27253W        W86349  42.996  18.690   1.754
27254W        W86350  12.216  27.544  12.936
27255W        W86351  28.169   7.814  14.777
27256W        W86352   6.913  20.762   2.268
27257W        W86353   0.319  26.189   3.725
27258W        W86354  35.957  40.470  13.929
27259W        W86355  43.849  22.621   4.157
27260W        W86356  38.436  31.456   1.236
27261W        W86357  42.389  42.887  11.449
27262W        W86358  38.973  36.368  14.922
27263W        W86359  16.717  17.215   1.400
27264W        W86360  23.101  25.564   2.852
27265W        W86361   3.225  36.451   0.391
27266W        W86362   2.730  21.738   0.945
27267W        W86363  12.622  42.480  11.870
27268W        W86364  11.640  39.875   2.678
27269W        W86365  30.625   7.821   3.732
27270W        W86366  15.608  28.040  13.856
27271W        W86367  44.385  10.294   3.239
27272W        W86368  38.865  20.643   3.836
27273W        W86369  10.368   1.775  11.078
27274W        W86370  25.490   2.411   2.401
27275W        W86371  39.949  44.346   2.753
27276W        W86372   5.891  25.598  11.447
27277W        W86373  43.494  40.020  10.531
27278W        W86374  15.180  37.830   5.174
27279W        W86375  35.968  29.576  10.492
27280W        W86376   8.879  33.615  13.335
27281W        W86377  12.728  31.987   0.255
27282W        W86378   9.711  21.182   1.285
27283W        W86379  42.385  39.333   1.379
27284W        W86380  37.054  29.169  10.567
27285W        W86381   6.374  16.158  11.988
27286W        W86382  37.947  29.450   1.340
27287W        W86383  26.568   9.868  13.824
27288W        W86384  37.493  37.568   3.673
27289W        W86385  29.590  11.720  12.076
27290W        W86386   3.249  37.557   3.240
27291W        W86387  37.496  31.647  10.934
27292W        W86388  24.051  39.468  14.027
27293W        W86389  29.044  17.237   3.312
27294W        W86390   6.404  39.987  10.026
27295W        W86391  30.139  32.076   0.946
27296W        W86392  10.299  22.075   5.297
27297W        W86393  28.564  33.956   4.829
27298W        W86394  41.415  17.714  11.442
27299W        W86395  17.753  30.154   2.766
27300W        W86396  17.751  30.040  12.926
27301W        W86397  17.226   7.326   2.262
27302W        W86398  15.122   9.332  11.043
27303W        W86399   2.923  17.205  14.427
27304W        W86400   0.325  23.030  12.960
27305W        W86401  10.789   1.843  12.997
27306W        W86402  26.053   8.162  14.014
27307W        W86403   8.235  30.508   3.356
27308W        W86404   7.671  40.013   2.334
27309W        W86405  10.185  32.940   3.269
27310W        W86406   4.873  40.021   3.641
27311W        W86407  39.980  44.786  11.910
27312W        W86408  15.627  32.980  13.045
27313W        W86409  39.039  41.513  10.025
27314W        W86410  40.326  38.531  13.438
27315W        W86411  29.948   9.870  14.295
27316W        W86412   0.943  10.157   2.373
27317W        W86413   6.305   4.433   4.732
27318W        W86414  19.139  37.917  13.946
27319W        W86415   0.972  26.148   1.723
27320W        W86416   2.431  20.755  11.439
27321W        W86417  32.433  26.985   1.915
27322W        W86418   8.214  44.390  11.533
27323W        W86419   2.771   7.211  12.575
27324W        W86420   9.222   9.739  11.091
27325W        W86421  30.415  40.854   2.406
27326W        W86422  25.513  26.042   2.334
27327W        W86423  28.094  27.603  11.101
27328W        W86424  41.532   8.244   0.299
27329W        W86425  31.120  41.918   3.178
27330W        W86426  14.714  22.072   2.181
27331W        W86427  40.521  40.971  14.407
27332W        W86428  25.625  21.231   3.201
27333W        W86429   1.465   3.396   3.372
27334W        W86430  38.891  36.949   1.795
27335W        W86431  29.593  40.039   0.472
27336W        W86432  16.632  22.574  13.017
27337W        W86433  21.755  24.595   0.886
27338W        W86434   6.869  22.087  12.879
27339W        W86435  20.136  21.099  11.867
27340W        W86436  10.283  43.778  10.617
27341W        W86437  27.528   9.197  12.396
27342W        W86438  22.721  31.901  14.872
27343W        W86439  24.181  27.505   2.855
27344W        W86440  30.477  17.780   4.188
27345W        W86441  20.204  43.834   3.744
27346W        W86442   2.827  24.037  14.936
27347W        W86443   5.702  29.148   0.308
27348W        W86444  34.017   1.380   2.732
27349W        W86445  40.971  29.113  11.915
27350W        W86446  27.606  10.138   0.831
27351W        W86447  11.750  13.286   2.357
27352W        W86448  15.615  21.088   2.747
27353W        W86449  23.592   6.809   0.415
27354W        W86450  18.767  36.946   1.344
27355W        W86451  31.528  18.198  10.571
27356W        W86452   9.198  39.845  11.052
27357W        W86453  26.469  26.980   3.630
27358W        W86454  32.523   5.801  11.477
27359W        W86455  18.766  28.948  12.516
27360W        W86456  30.427  26.188  13.520
27361W        W86457  25.174   2.450   1.357
27362W        W86458  12.844  34.604  13.307
27363W        W86459  22.560  33.462  11.886
27364W        W86460  19.135  35.853  13.360
27365W        W86461   3.730  25.548  14.311
27366W        W86462  29.087  11.210  12.564
27367W        W86463  36.545  37.987  12.873
27368W        W86464  33.052  36.063   3.721
27369W        W86465  35.084   8.265   1.259
27370W        W86466  23.107  12.628   1.392
27371W        W86467  14.739  10.695   2.865
27372W        W86468  30.421  37.937   4.803
27373W        W86469  24.505   4.929   1.376
27374W        W86470  34.889  24.047  14.477
27375W        W86471  25.205  24.543  13.443
27376W        W86472  31.549  43.345   2.740
27377W        W86473  21.744  15.675   2.858
27378W        W86474  20.749  18.694  12.403
27379W        W86475  21.112  11.176  14.894
27380W        W86476  25.003  12.310  11.865
27381W        W86477  25.191  34.594  13.870
27382W        W86478  40.854  14.112   4.218
27383W        W86479  41.401  31.546   4.286
27384W        W86480  24.600  27.950  12.383
27385W        W86481  10.300  14.711  11.885
27386W        W86482  29.131  30.965   0.909
27387W        W86483   5.934  41.811   3.676
27388W        W86484  17.147  38.462  13.998
27389W        W86485  43.515  33.571  10.086
27390W        W86486  42.325  24.119  11.526
27391W        W86487  37.349  22.157   2.687
27392W        W86488  18.196  37.441   1.322
27393W        W86489  40.546  31.120   1.797
27394W        W86490  26.113  37.385  12.500
27395W        W86491  33.565  42.894  10.485
27396W        W86492  42.797   3.735   2.378
27397W        W86493  30.526  19.757   0.746
27398W        W86494  10.753   8.220   3.333
27399W        W86495  31.089  16.696   9.941
27400W        W86496  33.383  19.688  11.510
27401W        W86497  25.615  21.756  11.407
27402W        W86498   0.384  27.447  13.410
27403W        W86499  38.021   3.847  12.043
27404W        W86500   0.953  30.616   0.403
27405W        W86501  12.730  26.532   1.238
27406W        W86502  21.677  24.224   1.695
27407W        W86503  30.040  18.675  13.458
27408W        W86504  29.447  19.630  10.003
27409W        W86505  34.520  42.782   0.404
27410W        W86506  23.663  24.528  14.389
27411W        W86507  16.572  27.523   3.839
27412W        W86508   8.219  22.041  11.379
27413W        W86509  35.008  18.652   9.981
27414W        W86510  31.120   6.199   0.838
27415W        W86511  16.655   5.322   2.715
27416W        W86512  29.978  28.643  11.489
27417W        W86513  16.158  28.945   5.630
27418W        W86514  36.062  29.153   2.264
27419W        W86515  44.929  36.348   1.414
27420W        W86516   7.265  38.374   2.887
27421W        W86517  29.494  33.534   0.773
27422W        W86518   5.415  13.667  11.414
27423W        W86519   3.304  15.192   1.906
27424W        W86520   7.867  11.773   2.682
27425W        W86521  39.419  12.759   1.410
27426W        W86522  43.405   0.391  13.011
27427W        W86523  39.324  15.726  14.439
27428W        W86524   8.772  14.657   3.153
27429W        W86525  42.907  41.497  14.821
27430W        W86526  37.372  29.052   1.258
27431W        W86527   1.238  20.122  11.402
27432W        W86528  10.298   1.378  14.310
27433W        W86529  17.613  27.497   3.235
27434W        W86530  44.420   4.280  13.532
27435W        W86531  11.776  27.993  14.912
27436W        W86532  27.059  30.642   1.886
27437W        W86533  39.393   2.901  12.866
27438W        W86534  19.563  31.480  14.313
27439W        W86535  14.300  16.771   9.944
27440W        W86536  37.893   5.812   4.655
27441W        W86537   8.777  38.059  13.410
27442W        W86538  18.597  44.981   0.329
27443W        W86539   6.848  29.147  13.437
27444W        W86540  28.983  43.939   4.136
27445W        W86541  16.234   8.388   3.754
27446W        W86542   0.917  20.620  11.425
27447W        W86543  19.042  41.494   1.847
27448W        W86544  33.429   0.840   0.817
27449W        W86545  43.955  37.336  11.972
27450W        W86546  42.391  10.858   2.224
27451W        W86547   7.188  20.143   1.754
27452W        W86548  26.655  39.843  12.421
27453W        W86549  17.100  19.110  13.492
27454W        W86550   4.264  36.941   0.812
27455W        W86551   5.297  28.960  13.480
27456W        W86552  28.119   8.203   0.734
27457W        W86553   3.774  23.564  12.342
27458W        W86554  10.268  24.134  13.983
27459W        W86555  44.883  16.589  13.380
27460W        W86556  40.956  40.360  12.053
27461W        W86557  33.611  36.428  10.101
27462W        W86558  28.111   8.365  10.505
27463W        W86559  40.520  26.006  13.026
27464W        W86560  33.474  36.492   4.815
27465W        W86561  32.480  29.982  13.043
27466W        W86562  39.876  17.284  11.971
27467W        W86563   2.752  16.780   0.452
27468W        W86564  27.518  27.556   3.371
27469W        W86565  34.868  24.989   2.672
27470W        W86566  31.401  31.528   4.602
27471W        W86567  17.286  26.100   2.301
27472W        W86568  25.541  41.940   4.128
27473W        W86569  35.593   5.239   4.120
27474W        W86570  31.403  34.092   3.318
27475W        W86571  43.315  15.109   1.403
27476W        W86572   9.164  43.954  13.898
27477W        W86573  39.463  23.629  12.034
27478W        W86574  25.634  41.917   1.359
27479W        W86575  20.182  37.896   0.934
27480W        W86576   6.842  22.077  10.539
27481W        W86577   6.405  27.462  11.905
27482W        W86578   2.350  27.659   0.379
27483W        W86579  18.243   6.910   5.307
27484W        W86580   8.346  38.060  13.972
27485W        W86581  28.594  36.346   1.816
27486W        W86582  25.502   2.236   0.851
27487W        W86583  23.229   8.322  11.004
27488W        W86584  42.957  20.635  13.355
27489W        W86585  18.758  15.706  14.354
27490W        W86586  13.789  22.040   4.771
27491W        W86587  38.414  36.968   0.859
27492W        W86588  18.603  26.688  11.128
27493W        W86589  40.856  20.636   3.290
27494W        W86590  34.450  20.613   5.234
27495W        W86591  17.200  32.092   2.762
27496W        W86592  34.384  27.071   1.326
27497W        W86593  24.139  26.523  11.371
27498W        W86594   3.396  30.527  11.985
27499W        W86595  30.554  34.987  14.298
27500W        W86596  42.778  21.128   3.188
27501W        W86597   2.763  35.054  12.493
27502W        W86598   3.932   6.860  13.935
27503W        W86599  32.519   1.248  14.806
27504W        W86600  39.528   9.843  13.968
27505W        W86601  43.947   5.805   3.240
27506W        W86602  15.665   1.802  14.481
27507W        W86603  33.022   6.841   2.252
27508W        W86604   4.369  33.520  11.982
27509W        W86605  34.502  11.638   2.419
27510W        W86606  38.071  14.722  11.432
27511W        W86607   4.867  22.678  10.063
27512W        W86608  29.012  10.227  11.985
27513W        W86609  18.161  31.100  13.057
27514W        W86610  19.767   5.216  10.423
27515W        W86611   5.749  22.633   2.260
27516W        W86612   0.451  35.900   4.155
27517W        W86613  12.245  27.991   4.751
27518W        W86614  42.463  11.740  11.458
27519W        W86615  28.124  30.656   4.289
27520W        W86616  22.191  23.507   3.153
27521W        W86617  42.307  44.969  10.521
27522W        W86618   2.445  39.907   2.704
27523W        W86619  28.124  22.568   1.841
27524W        W86620   5.431   1.905   1.229
27525W        W86621  18.167   6.886  13.541
27526W        W86622  29.649  43.287  12.061
27527W        W86623  43.864  43.923  11.515
27528W        W86624   1.289   6.308   2.191
27529W        W86625   0.261  38.527  14.024
27530W        W86626  37.978   1.267   3.824
27531W        W86627  29.487  21.135   3.310
27532W        W86628  40.454   5.321   0.462
27533W        W86629   0.828  10.791  13.363
27534W        W86630  39.388   6.311  13.454
27535W        W86631  43.015  13.831   2.190
27536W        W86632  37.961  20.746   2.366
27537W        W86633   0.402  21.680  14.801
27538W        W86634  37.910  41.012   3.826
27539W        W86635   8.360  39.865  14.866
27540W        W86636  33.572  24.654  11.390
27541W        W86637   2.946  21.630  11.573
27542W        W86638   8.258  32.600   1.885
27543W        W86639   0.770   0.433  14.926
27544W        W86640  38.343  29.574   1.339
27545W        W86641  37.394  42.392  10.556
27546W        W86642  23.997  29.586   4.246
27547W        W86643  12.272  13.616   3.727
27548W        W86644  32.891  38.564  13.499
27549W        W86645  39.351  25.669   4.209
27550W        W86646  17.210  38.854   4.213
27551W        W86647   5.288  37.919  10.559
27552W        W86648  21.258  19.221   3.323
27553W        W86649  20.266   6.872   0.910
27554W        W86650  44.836   3.382   0.887
27555W        W86651  37.509   8.179  13.318
27556W        W86652  31.547   2.875  13.999
27557W        W86653  27.626   5.847  12.907
27558W        W86654   6.230  37.022   0.806
27559W        W86655  26.524  23.069  10.969
27560W        W86656  38.547  14.336  14.400
27561W        W86657  42.305   7.253   2.269
27562W        W86658  27.566  17.634  11.081
27563W        W86659   8.661  17.139  11.562
27564W        W86660  44.808  35.470   4.598
27565W        W86661  29.619  33.018   4.722
27566W        W86662  35.473  12.317  12.349
27567W        W86663  11.301   2.723   4.636
27568W        W86664  12.145  36.004  12.913
27569W        W86665  15.210  10.658   2.386
27570W        W86666   8.823  16.586   3.767
27571W        W86667  39.476  34.518   1.703
27572W        W86668  30.413  33.972   1.865
27573W        W86669  17.145  38.074  14.334
27574W        W86670  37.004  32.068  12.008
27575W        W86671   6.278  34.466  10.025
27576W        W86672  28.049   8.743   1.372
27577W        W86673  11.770  12.700   5.679
27578W        W86674   7.828  33.489   3.308
27579W        W86675  35.533   5.806   0.887
27580W        W86676  37.939   2.939  12.002
27581W        W86677   7.246  32.575   4.792
27582W        W86678  42.392  21.259   3.687
27583W        W86679  34.941  34.529   0.844
27584W        W86680  18.132   9.820  12.448
27585W        W86681  14.097   5.829   2.406
27586W        W86682  25.496  43.420  13.022
27587W        W86683   5.205  33.115  10.438
27588W        W86684   8.781  34.576  10.622
27589W        W86685  27.460   4.800  12.454
27590W        W86686  26.041   4.260  14.881
27591W        W86687  38.334  24.078   1.848
27592W        W86688  25.972   9.692  11.543
27593W        W86689  27.614  26.494   3.711
27594W        W86690  30.061  31.976  12.836
27595W        W86691   8.305   8.388   1.897
27596W        W86692  30.031  17.586   9.610
27597W        W86693  22.134  27.603  14.402
27598W        W86694  11.779  29.167  11.882
27599W        W86695  33.947  30.464  12.447
27600W        W86696  39.817   3.325   2.903
27601W        W86697  29.559  36.529   4.694
27602W        W86698  10.753  24.480  14.818
27603W        W86699  15.599  11.860  13.319
27604W        W86700   8.675  38.377   0.315
27605W        W86701   0.457  40.357  14.809
27606W        W86702   1.870  42.834   2.230
27607W        W86703  32.959  15.249   2.247
27608W        W86704  26.131   3.738  12.360
27609W        W86705  38.929   0.253  10.091
27610W        W86706  27.150  18.296   0.791
27611W        W86707  40.006  10.814   3.861
27612W        W86708  24.617  34.559  13.386
27613W        W86709  15.222  29.016   2.275
27614W        W86710   0.249  29.176   2.681
27615W        W86711  12.243  25.969   0.926
27616W        W86712  13.766  32.489   3.710
27617W        W86713  14.255   1.461  10.498
27618W        W86714  44.473  22.010   2.755
27619W        W86715  34.378   3.805   3.689
27620W        W86716  39.044  30.919   0.897
27621W        W86717  28.143  39.845   0.820
27622W        W86718  19.575  13.334  12.519
27623W        W86719  41.375   5.887  13.452
27624W        W86720   9.854  26.127  12.880
27625W        W86721   6.418  18.200   2.826
27626W        W86722  21.122  36.037   3.274
27627W        W86723  17.765  36.090   3.302
27628W        W86724  33.592   5.705   3.756
27629W        W86725   4.237  21.604  10.464
27630W        W86726  26.038   0.981   0.447
27631W        W86727  12.290  42.792   3.182
27632W        W86728   2.287  37.061   2.307
27633W        W86729   1.977   1.961   3.148
27634W        W86730  18.652  31.059   2.703
27635W        W86731   6.244  31.937  13.418
27636W        W86732  37.532  28.491  12.058
27637W        W86733  42.446  43.765   4.628
27638W        W86734  38.826  41.446  13.832
27639W        W86735  36.939  34.070  12.830
27640W        W86736   0.292  12.719   4.746
27641W        W86737   7.821  34.932  10.544
27642W        W86738  25.607  37.426   1.727
27643W        W86739  33.992  35.453   3.727
27644W        W86740   4.365  26.493   4.786
27645W        W86741   3.747  44.320   1.289
27646W        W86742  42.788   5.695  10.454
27647W        W86743  41.527   1.462  14.759
27648W        W86744  18.654  15.638   1.253
27649W        W86745  22.502  29.506   5.120
27650W        W86746   2.891  36.526   3.323
27651W        W86747   8.367  21.602  14.917
27652W        W86748  36.048  30.010   0.769
27653W        W86749  17.078  43.507   2.354
27654W        W86750  11.839  15.200   4.318
27655W        W86751  21.652   2.958  12.931
27656W        W86752   3.343  24.008  11.502
27657W        W86753  25.500  21.684  12.880
27658W        W86754  10.655   3.319   2.333
27659W        W86755  43.945  32.942   3.224
27660W        W86756  24.577  26.183  10.903
27661W        W86757  11.294  16.773   2.793
27662W        W86758  11.350  12.617   4.189
27663W        W86759  27.535  26.614   4.156
27664W        W86760  28.096  22.716  14.898
27665W        W86761  23.153  25.515  12.890
27666W        W86762  21.525  33.978   2.881
27667W        W86763  39.889  17.588   1.314
27668W        W86764  24.590  19.089   2.320
27669W        W86765  31.931  13.208  14.465
27670W        W86766  33.462  41.326   1.298
27671W        W86767  10.285  12.293  14.510
27672W        W86768   0.299  13.255   4.156
27673W        W86769   6.802  12.757   1.853
27674W        W86770  33.586  21.207  13.887
27675W        W86771   9.889  20.084   1.884
27676W        W86772  37.496  36.852  12.540
27677W        W86773  21.732   2.761  11.897
27678W        W86774  39.353   5.285  13.541
27679W        W86775  10.685  43.906  13.535
27680W        W86776  40.815  39.427   1.402
27681W        W86777  42.294  38.331  12.944
27682W        W86778   6.245  34.912   4.213
27683W        W86779  40.935   8.832  14.282
27684W        W86780   1.976  31.035   4.261
27685W        W86781  14.766  14.320  13.845
27686W        W86782  34.584  21.541   1.868
27687W        W86783  18.171   6.764  11.958
27688W        W86784  19.230  32.052  12.094
27689W        W86785  42.822  18.196  10.941
27690W        W86786   0.465  18.602   0.804
27691W        W86787  28.141  24.702   2.791
27692W        W86788   2.896  28.648  11.604
27693W        W86789   7.727  16.229  13.536
27694W        W86790  13.646   1.380  10.948
27695W        W86791  31.996  11.744  14.767
27696W        W86792  22.515  36.919  11.564
27697W        W86793  16.167  13.817  10.444
27698W        W86794  44.989  13.675   1.867
27699W        W86795  28.437  27.175   4.162
27700W        W86796  11.676  40.385   3.656
27701W        W86797  32.635  11.631  13.955
27702W        W86798  31.592  32.959  11.931
27703W        W86799  31.910  15.118  13.949
27704W        W86800  26.686  32.998   3.170
27705W        W86801  24.013  34.082  11.103
27706W        W86802  18.766  13.183   2.807
27707W        W86803  27.557   3.736   3.678
27708W        W86804  29.463   4.860  14.996
27709W        W86805  29.021  14.339  13.952
27710W        W86806  18.201  21.034   4.233
27711W        W86807   4.905   9.663  14.972
27712W        W86808   3.734   6.771   0.926
27713W        W86809  18.266  15.261   3.172
27714W        W86810  31.538  11.172   0.748
27715W        W86811   8.826  22.221  10.534
27716W        W86812  23.675  23.692   4.251
27717W        W86813  24.149  37.552   1.319
27718W        W86814   0.488  44.396   2.328
27719W        W86815  23.202  14.291  10.510
27720W        W86816  42.981  42.861   1.905
27721W        W86817   6.846  30.500  10.464
27722W        W86818  18.188  43.447   4.232
27723W        W86819  25.967  15.087  12.466
27724W        W86820  36.023  39.428  11.553
27725W        W86821  29.958  41.879   4.620
27726W        W86822  25.205  35.948   1.765
27727W        W86823   1.787  17.110   1.921
27728W        W86824   0.940  41.857   1.869
27729W        W86825  13.720   0.377   3.791
27730W        W86826  40.869  25.615   0.394
27731W        W86827  27.046  12.149  12.936
27732W        W86828  15.739  38.963   9.496
27733W        W86829  38.426  26.543   4.189
27734W        W86830   9.798   4.807   3.280
27735W        W86831  18.175  24.039   1.873
27736W        W86832  14.713  11.167   3.782
27737W        W86833   0.980  22.694   0.735
27738W        W86834  24.540  43.283   3.273
27739W        W86835  23.731  12.194   3.798
27740W        W86836   2.429  31.427   4.666
27741W        W86837   4.422  32.541   3.731
27742W        W86838  37.999   5.312  14.915
27743W        W86839  27.103   0.930   0.466
27744W        W86840  38.532  13.819   2.692
27745W        W86841  20.134  24.554  12.564
27746W        W86842   7.251  28.108  12.542
27747W        W86843  24.591  29.621  12.048
27748W        W86844  15.328   1.377  14.938
27749W        W86845   7.755  13.652   2.221
27750W        W86846  18.165  14.331  11.549
27751W        W86847  26.498  22.593   4.162
27752W        W86848  35.598  29.065   1.425
27753W        W86849  15.211  33.580   2.177
27754W        W86850  22.563  23.546   1.242
27755W        W86851  19.608  41.383   2.238
27756W        W86852  43.873  43.948   2.295
27757W        W86853  12.653  42.803   9.975
27758W        W86854  26.074  18.137  10.407
27759W        W86855  29.471  10.143   5.295
27760W        W86856  36.017  32.106   0.754
27761W        W86857  21.147  20.740   2.818
27762W        W86858  41.930  20.050   0.454
27763W        W86859   2.896  13.679  12.579
27764W        W86860  29.161  36.446  13.516
27765W        W86861  14.320  26.599  12.465
27766W        W86862  11.782   7.904   1.753
27767W        W86863  18.675  42.932   2.882
27768W        W86864  26.630  35.410  13.428
27769W        W86865  16.158  10.374  10.953
27770W        W86866   8.787  20.118  12.363
27771W        W86867  27.995  37.993  10.451
27772W        W86868   7.191  30.913   1.789
27773W        W86869  37.946  37.034   3.326
27774W        W86870   3.416  44.445   1.322
27775W        W86871  37.481  18.629  11.929
27776W        W86872  34.534  15.156  12.463
27777W        W86873  26.507  17.786  13.509
27778W        W86874   9.185  40.504  13.858
27779W        W86875  22.176   2.867  10.907
27780W        W86876  40.440  43.911  10.975
27781W        W86877   8.207  17.639   9.618
27782W        W86878  39.480  11.196   0.964
27783W        W86879  38.075  11.203   1.737
27784W        W86880  17.290  20.607  13.409
27785W        W86881  37.929  23.056   4.784
27786W        W86882  44.787  12.649   1.712
27787W        W86883  21.033  24.171  10.611
27788W        W86884  11.179  18.193   4.772
27789W        W86885   8.293  25.573   0.312
27790W        W86886  44.403  20.620  14.927
27791W        W86887  39.046  39.326   3.147
27792W        W86888  28.455   7.205   4.174
27793W        W86889  38.448  13.625   2.395
27794W        W86890   4.773  36.004   4.715
27795W        W86891   3.331  41.340   4.193
27796W        W86892  17.796  42.294   3.659
27797W        W86893  26.546  24.498   1.884
27798W        W86894  35.563  13.151  11.413
27799W        W86895   2.875   9.713   4.330
27800W        W86896  30.061   5.345  14.402
27801W        W86897   1.938  25.622  11.003
27802W        W86898   5.305  17.627  11.494
27803W        W86899   4.310  43.784   2.741
27804W        W86900  39.926  33.089  11.009
27805W        W86901  39.541  32.489  12.565
27806W        W86902   4.393  16.119   0.806
27807W        W86903   1.268   1.249  11.379
27808W        W86904   6.877   7.756   3.303
27809W        W86905   7.714  25.048  12.965
27810W        W86906   5.255  42.359  14.793
27811W        W86907   4.870  37.475  13.336
27812W        W86908  24.651  40.494  11.493
27813W        W86909   3.922  29.473   1.764
27814W        W86910  23.111  42.527  14.943
27815W        W86911  33.463  13.813  11.882
27816W        W86912  17.722  16.631  13.844
27817W        W86913   0.987  28.580  10.523
27818W        W86914  13.747  14.621   0.936
27819W        W86915  25.710  23.179  14.510
27820W        W86916  44.355  35.073  13.369
27821W        W86917  16.110  37.928  13.916
27822W        W86918  26.079   7.220   0.430
27823W        W86919  13.304  31.973  14.818
27824W        W86920  27.030   4.718   1.369
27825W        W86921  11.758  23.551  11.858
27826W        W86922  36.988  25.966  10.941
27827W        W86923  30.036  17.579   5.717
27828W        W86924   2.270  20.086  11.417
27829W        W86925   8.880  15.108   3.785
27830W        W86926  29.463  35.083   5.236
27831W        W86927   5.381  29.057  12.387
27832W        W86928   5.724   8.848  11.397
27833W        W86929  11.861  21.224   9.971
27834W        W86930  13.110  36.352  12.854
27835W        W86931   3.438  41.394  10.092
27836W        W86932  43.019  19.576  10.947
27837W        W86933  40.902  17.614  12.373
27838W        W86934   7.756  34.084   3.235
27839W        W86935  38.447  19.557  12.515
27840W        W86936  26.103  18.678   1.764
27841W        W86937  36.882  33.075  14.314
27842W        W86938  35.455  28.101   9.973
27843W        W86939   0.314  34.915   1.752
27844W        W86940   2.236   1.899  14.774
27845W        W86941  41.963  35.882   2.834
27846W        W86942  28.081  16.125  14.506
27847W        W86943  11.651  39.011  14.334
27848W        W86944  30.505  32.126   2.391
27849W        W86945  31.629   6.342  11.891
27850W        W86946  15.132  32.038   0.369
27851W        W86947  29.097  32.533   1.790
27852W        W86948  37.432  21.125   4.187
27853W        W86949   3.948  42.508  12.058
27854W        W86950  13.730  16.193   2.829
27855W        W86951  34.880   7.726  12.878
27856W        W86952  16.679   7.907   2.674
27857W        W86953  35.064  43.941   0.805
27858W        W86954  28.088  24.594   2.393
27859W        W86955   0.312  31.618   0.348
27860W        W86956  14.723  14.326   3.834
27861W        W86957   8.400   9.306   1.738
27862W        W86958  42.423  13.799   3.811
27863W        W86959  26.156  40.877   1.849
27864W        W86960  14.125   5.729  12.861
27865W        W86961  17.194  17.772  10.516
27866W        W86962  41.407   4.859   1.237
27867W        W86963  19.126  33.582  14.449
27868W        W86964  43.993  28.016   1.425
27869W        W86965  42.498  12.332  13.413
27870W        W86966  21.236   9.231  10.964
27871W        W86967  18.101  24.096  11.128
27872W        W86968  11.777  24.488   4.725
27873W        W86969  23.998   0.369   1.845
27874W        W86970  38.509  24.638  14.440
27875W        W86971  32.616  29.978  13.864
27876W        W86972  27.664  43.459  12.965
27877W        W86973   7.259  36.514  11.970
27878W        W86974  14.735  19.254  14.325
27879W        W86975  20.072  38.035   4.141
27880W        W86976   4.230  15.719  10.582
27881W        W86977  20.161  12.713  11.498
27882W        W86978  33.959  36.098  13.889
27883W        W86979  11.622   6.286   2.778
27884W        W86980  44.902  32.010  11.043
27885W        W86981  12.794  21.549  12.920
27886W        W86982   2.933  40.363   2.703
27887W        W86983  33.049  24.520  12.572
27888W        W86984  29.557  16.165   3.716
27889W        W86985  12.854   7.272   1.874
27890W        W86986   9.271  37.834  13.421
27891W        W86987  43.807  24.207   1.832
27892W        W86988  22.134   4.921  11.445
27893W        W86989  19.724  34.915   1.320
27894W        W86990  27.588  35.930  13.004
27895W        W86991  35.092  15.747   9.548
27896W        W86992  39.476   0.950  13.513
27897W        W86993  32.536   2.256   2.198
27898W        W86994  40.503  38.881   0.887
27899W        W86995  29.509   0.370   0.823
27900W        W86996   2.366  25.972   2.212
27901W        W86997  31.058  31.582  12.574
27902W        W86998  16.666   0.894  14.926
27903W        W86999  25.134  33.443  11.068
27904W        W87000  18.099   9.781  11.602
27905W        W87001   3.764  44.767  14.981
27906W        W87002  39.477  14.129   4.153
27907W        W87003  21.627  32.511  13.843
27908W        W87004   5.856  16.751  14.828
27909W        W87005  10.844  40.965   1.871
27910W        W87006  24.976  26.993  13.858
27911W        W87007   1.296  31.599   4.808
27912W        W87008  16.253  33.498  11.523
27913W        W87009  20.272  19.064  13.457
27914W        W87010  34.894  22.713  11.049
27915W        W87011  36.463  19.093  12.834
27916W        W87012   7.340  24.146  13.916
27917W        W87013  30.035  42.461   0.279
27918W        W87014  43.385  32.951   3.767
27919W        W87015  20.061  19.089   2.258
27920W        W87016   5.409   3.742  12.935
27921W        W87017  25.100  36.919  10.552
27922W        W87018  32.973   2.840   2.898
27923W        W87019   0.269   7.779   0.812
27924W        W87020   4.365  11.290  12.833
27925W        W87021  42.914  44.843  11.406
27926W        W87022  34.546  31.037   1.323
27927W        W87023  27.488  39.879   0.298
27928W        W87024  25.175  22.548   2.206
27929W        W87025  34.587  19.084  13.513
27930W        W87026  27.025   7.318  10.474
27931W        W87027  44.309  41.922  12.512
27932W        W87028  20.066  28.567   3.751
27933W        W87029  41.900  20.160   2.723
27934W        W87030  30.654  18.140   4.321
27935W        W87031  26.459  22.155  13.323
27936W        W87032  34.059  11.701  13.908
27937W        W87033  37.844  43.270  14.965
27938W        W87034  33.550  20.261  12.911
27939W        W87035  22.048  18.764   2.334
27940W        W87036   6.414   8.700   0.926
27941W        W87037  28.464  23.632   1.410
27942W        W87038  21.579   4.765   3.361
27943W        W87039   6.331  15.756   2.870
27944W        W87040  36.870  28.157  14.470
27945W        W87041   0.973  17.758   3.265
27946W        W87042  34.435  23.646  13.545
27947W        W87043  16.306  28.510  10.404
27948W        W87044   3.790   3.347   0.446
27949W        W87045  22.731  17.679  12.523
27950W        W87046  18.746  27.999  14.963
27951W        W87047  16.168  40.502   1.386
27952W        W87048  19.262  32.098  11.441
27953W        W87049  19.138   5.400  14.937
27954W        W87050  23.174  37.935   2.901
27955W        W87051  44.864  18.606   3.246
27956W        W87052  39.412  15.261   0.765
27957W        W87053  25.517   7.244  14.953
27958W        W87054   3.773  11.728  11.443
27959W        W87055   7.688  29.071   3.228
27960W        W87056  37.412   9.331  11.873
27961W        W87057  31.007   2.959   1.368
27962W        W87058   7.892  41.891   0.402
27963W        W87059  22.064   2.364  14.401
27964W        W87060  19.153   6.871   2.726
27965W        W87061  21.049  13.781  12.078
27966W        W87062  30.610  40.992   0.257
27967W        W87063  44.812  37.007   2.801
27968W        W87064  34.038   6.219   1.934
27969W        W87065  15.785  21.657   4.348
27970W        W87066  27.948  38.974   4.701
27971W        W87067   1.299   6.384  14.834
27972W        W87068  21.053   1.331   4.686
27973W        W87069  23.534   7.310  13.926
27974W        W87070  12.732  19.558   4.162
27975W        W87071  20.230   8.811  14.988
27976W        W87072  31.897   2.259  13.333
27977W        W87073  29.130  31.909  13.057
27978W        W87074  34.875   6.869  11.599
27979W        W87075  36.863  38.422   2.813
27980W        W87076  27.623  14.640  13.967
27981W        W87077  31.065  24.505  11.945
27982W        W87078  15.163  11.361  12.086
27983W        W87079  19.553  12.819   0.262
27984W        W87080  25.659  13.337  11.921
27985W        W87081  34.435  42.490  10.546
27986W        W87082  34.953   8.686   3.764
27987W        W87083   5.297  13.812  13.534
27988W        W87084   5.846  11.196   2.702
27989W        W87085  33.920  10.171   1.894
27990W        W87086  30.022  16.308  14.021
27991W        W87087  14.243  30.118  13.949
27992W        W87088  19.259  19.276  12.361
27993W        W87089  12.695  30.152   0.364
27994W        W87090  41.937  10.308   2.327
27995W        W87091  25.603   9.171   4.179
27996W        W87092  32.004  32.950  13.988
27997W        W87093  39.044   4.882  12.537
27998W        W87094  22.696  25.036  10.421
27999W        W87095  27.500   1.924  13.800
28000W        W87096  41.478  10.311  10.507
28001W        W87097   3.337  35.091   2.849
28002W        W87098   0.962  36.887   3.381
28003W        W87099  32.899  35.886   2.218
28004W        W87100  20.567   6.832  13.969
28005W        W87101   9.385   6.235  14.829
28006W        W87102   0.840  36.392   2.280
28007W        W87103  15.320  32.041   2.763
28008W        W87104   3.936   1.481   3.845
28009W        W87105  15.094  32.999  12.840
28010W        W87106  22.614  35.984   3.256
28011W        W87107  37.954  24.053  12.929
28012W        W87108  22.122   9.884   5.231
28013W        W87109  23.657   6.251  12.023
28014W        W87110  10.166  38.508   1.806
28015W        W87111  17.569  20.031  12.875
28016W        W87112  21.137  42.511  14.343
28017W        W87113   4.772  44.484  11.920
28018W        W87114   7.849  11.138   2.307
28019W        W87115  27.627  19.114   5.221
28020W        W87116   6.745  40.333   0.461
28021W        W87117  17.702   3.935   3.208
28022W        W87118  33.591  44.788  13.953
28023W        W87119  26.549  24.210   2.386
28024W        W87120  14.596  39.015   9.626
28025W        W87121  19.099  36.895  11.525
28026W        W87122   4.731  38.045   4.192
28027W        W87123  24.492  11.237   3.152
28028W        W87124  16.576  44.343  11.507
28029W        W87125  41.867  24.020  12.452
28030W        W87126  13.837  14.798  12.826
28031W        W87127  35.457   2.454  11.957
28032W        W87128  22.167  44.817   4.285
28033W        W87129  40.809  40.462  14.929
28034W        W87130  39.485   4.942  11.087
28035W        W87131  44.894  12.151   3.715
28036W        W87132   0.806  29.101   4.262
28037W        W87133  30.579  12.359   1.866
28038W        W87134  11.256  10.142  14.840
28039W        W87135  12.780  18.232   1.850
28040W        W87136  24.080  44.269  11.093
28041W        W87137  35.895  25.175   0.861
28042W        W87138  27.956   1.911  13.057
28043W        W87139  24.111  23.063   2.789
28044W        W87140  15.161  34.994  11.385
28045W        W87141  13.625  39.911   4.745
28046W        W87142  44.991  11.866   0.753
28047W        W87143   7.300  13.698   4.680
28048W        W87144  37.857  15.275   0.952
28049W        W87145   4.837  36.886  12.092
28050W        W87146  24.067  30.499   2.813
28051W        W87147  16.578  20.661   1.388
28052W        W87148   3.217  28.450  10.430
28053W        W87149  13.742  11.286  11.892
28054W        W87150   6.720  10.235  14.026
28055W        W87151  27.062   3.281  11.986
28056W        W87152  27.603  11.338  14.456
28057W        W87153   2.787  16.723  13.411
28058W        W87154  32.029  31.933  13.858
28059W        W87155   1.771  26.984  13.388
28060W        W87156  29.053  27.051   4.328
28061W        W87157  18.645  25.496   4.278
28062W        W87158  36.407  11.134   9.968
28063W        W87159  38.520   7.846   0.791
28064W        W87160   5.239  31.598   4.283
28065W        W87161  31.966   9.758  14.959
28066W        W87162  10.200   4.232   4.299
28067W        W87163  10.737  33.425  14.766
28068W        W87164  24.128  25.532  12.867
28069W        W87165  16.592  27.556  12.373
28070W        W87166  30.109  17.233   2.180
28071W        W87167  39.451  18.291  14.303
28072W        W87168   9.265   5.713  11.889
28073W        W87169  42.503  14.208  14.393
28074W        W87170  18.166  18.569   0.951
28075W        W87171  31.606   8.286   4.282
28076W        W87172  11.657  44.378  12.509
28077W        W87173  17.180  31.020   5.274
28078W        W87174  34.390  28.460  13.863
28079W        W87175  40.522  27.096   1.320
28080W        W87176  42.954   1.443  12.828
28081W        W87177  23.623   7.766  12.374
28082W        W87178   5.278   1.393  14.917
28083W        W87179  21.219  44.488  13.422
28084W        W87180  11.200  43.290   3.818
28085W        W87181   2.263  29.626  13.519
28086W        W87182  38.916  15.626  12.048
28087W        W87183  30.612  17.565   1.865
28088W        W87184  12.785  16.084   1.753
28089W        W87185  25.053  43.859   3.800
28090W        W87186   7.905  14.125   5.217
28091W        W87187  12.681  11.828  14.905
28092W        W87188   5.276  30.041   4.255
28093W        W87189  30.014  30.921   3.756
28094W        W87190   4.911  17.758   1.367
28095W        W87191   6.403   6.292  10.436
28096W        W87192  43.290  39.340   3.761
28097W        W87193  16.622  26.012   3.868
28098W        W87194  44.437  39.890  11.928
28099W        W87195  30.032  34.406   2.301
28100W        W87196   8.893   9.727  14.923
28101W        W87197  37.429  18.568   0.857
28102W        W87198  28.947  34.577  12.934
28103W        W87199   9.645  41.369   1.816
28104W        W87200  34.451   0.310  11.877
28105W        W87201  17.585  30.111  13.478
28106W        W87202  44.314  13.614  14.981
28107W        W87203   7.243   0.952  11.373
28108W        W87204  12.675  17.786   0.805
28109W        W87205  14.117  14.597  12.499
28110W        W87206  27.003   0.256   4.713
28111W        W87207   3.758  36.385   4.777
28112W        W87208   4.357  14.683   0.818
28113W        W87209  21.063  10.742   0.780
28114W        W87210  13.616  14.709   0.317
28115W        W87211  38.979  25.047  12.985
28116W        W87212  39.377  30.587  12.533
28117W        W87213  37.902   6.300   0.961
28118W        W87214  33.486  39.816   3.804
28119W        W87215   8.672  28.597   2.375
28120W        W87216  28.951  34.542  14.286
28121W        W87217  22.067  38.906   2.854
28122W        W87218  27.169   4.307   2.844
28123W        W87219  33.929  40.535  12.929
28124W        W87220   3.273   4.336  14.928
28125W        W87221  13.738  38.032  10.465
28126W        W87222  14.154  44.761  11.019
28127W        W87223  29.114   1.389  12.535
28128W        W87224  17.306  40.894  13.427
28129W        W87225  31.111   4.875   1.252
28130W        W87226  18.715  38.958   0.909
28131W        W87227  44.438  38.493  11.545
28132W        W87228  22.248  42.346  12.041
28133W        W87229  43.414  20.527   0.283
28134W        W87230   6.290  39.370  11.906
28135W        W87231  21.516  41.927  13.966
28136W        W87232   0.764  30.431  10.016
28137W        W87233  14.258  38.855  10.994
28138W        W87234   9.693  24.071  13.394
28139W        W87235   7.845  31.635  13.535
28140W        W87236  25.509   3.933  10.418
28141W        W87237  29.620  11.635   4.749
28142W        W87238  30.578  38.897  14.945
28143W        W87239  19.629  27.989  13.412
28144W        W87240  17.603  20.631  12.440
28145W        W87241  32.072  40.966  10.987
28146W        W87242   8.289  34.397  13.987
28147W        W87243  18.157  19.275   0.319
28148W        W87244  16.687  34.076  13.841
28149W        W87245  36.524  41.441  14.866
28150W        W87246   2.337  27.658  13.371
28151W        W87247  39.418  21.532  11.467
28152W        W87248  37.856  26.154   0.465
28153W        W87249   0.972  22.618   5.240
28154W        W87250  10.845   7.688  11.010
28155W        W87251  14.746   7.335  10.950
28156W        W87252  14.718  30.567   5.112
28157W        W87253  23.593  42.488   3.849
28158W        W87254  40.399  32.087   4.603
28159W        W87255   9.255  13.157  12.391
28160W        W87256  39.967  20.743   4.630
28161W        W87257   0.336  13.243  13.450
28162W        W87258  27.125   7.903  12.454
28163W        W87259   9.808  31.966   2.399
28164W        W87260  39.865   7.708  13.809
28165W        W87261   9.202  23.587  12.434
28166W        W87262  19.689   9.737  14.942
28167W        W87263   7.203  22.512   0.858
28168W        W87264  12.355   3.317   0.324
28169W        W87265  36.879  38.923   0.363
28170W        W87266   1.911  36.845   4.742
28171W        W87267  40.032  13.621  14.896
28172W        W87268  36.390  17.217   3.810
28173W        W87269   3.441  37.018   2.808
28174W        W87270   0.281  35.055  14.387
28175W        W87271   4.428  14.095   3.738
28176W        W87272  34.004  10.339  11.422
28177W        W87273  19.562   2.441   2.762
28178W        W87274   9.882   2.291  12.086
28179W        W87275  12.683  10.783   4.708
28180W        W87276   0.303   0.957  14.903
28181W        W87277  13.765  23.197   4.655
28182W        W87278  18.687  38.475   0.423
28183W        W87279  27.643  27.518   4.643
28184W        W87280  34.573  39.451   2.806
28185W        W87281  10.330  17.754   0.421
28186W        W87282  38.368  38.534   1.307
28187W        W87283  43.006  30.005  11.395
28188W        W87284  41.909   5.891   4.225
28189W        W87285  34.868  37.349   5.307
28190W        W87286  38.521  33.483  13.908
28191W        W87287  41.339  24.973   3.788
28192W        W87288  33.624  10.749  10.588
28193W        W87289  34.940  34.900  11.464
28194W        W87290  27.020  43.935  13.064
28195W        W87291  11.135  17.185  14.860
28196W        W87292  29.112  18.755   0.856
28197W        W87293   7.696  14.690   3.265
28198W        W87294   1.802  44.347  13.819
28199W        W87295  33.961  44.958   1.694
28200W        W87296  22.017  17.756   4.733
28201W        W87297  33.080  16.289  13.933
28202W        W87298  34.461  42.413  13.871
28203W        W87299  20.622  26.609   4.661
28204W        W87300  38.570   6.335   4.774
28205W        W87301   1.801  39.908  10.605
28206W        W87302   2.242   2.894  14.799
28207W        W87303  33.456  16.086   3.377
28208W        W87304  12.679  17.688  14.382
28209W        W87305   9.302  30.633  14.492
28210W        W87306   7.266  44.777   3.671
28211W        W87307  16.738   2.247   1.709
28212W        W87308  28.125  40.838   0.852
28213W        W87309   6.681  36.556   2.394
28214W        W87310  41.041  14.601   0.760
28215W        W87311  38.439  40.918  14.838
28216W        W87312   6.418  21.684   0.945
28217W        W87313  25.575  30.651  13.860
28218W        W87314  44.809   4.348  12.495
28219W        W87315  28.439  43.273  14.847
28220W        W87316   9.664  11.348  13.472
28221W        W87317  15.324  29.074  14.892
28222W        W87318  20.248  27.066   3.311
28223W        W87319  17.250   0.963   5.186
28224W        W87320   5.689  24.578   2.205
28225W        W87321  37.529  24.588  12.430
28226W        W87322   3.363  19.780   0.306
28227W        W87323  43.775  15.153  14.824
28228W        W87324  13.300  10.354   2.233
28229W        W87325   2.471  19.540  11.968
28230W        W87326  28.152   5.820  14.821
28231W        W87327  26.606   2.921   1.447
28232W        W87328  31.567  31.040   4.142
28233W        W87329  31.612  29.526   3.632
28234W        W87330  33.946  42.932  10.991
28235W        W87331  21.058  18.095  13.508
28236W        W87332  23.663   5.776  14.835
28237W        W87333  35.563   0.918  14.382
28238W        W87334  35.008  44.370   4.328
28239W        W87335  29.938  16.243  12.453
28240W        W87336  15.199  43.334  14.850
28241W        W87337  16.254  38.958  14.018
28242W        W87338  43.447   4.385  12.410
28243W        W87339  18.616  13.106   2.339
28244W        W87340  17.562  28.469   1.747
28245W        W87341   4.792   4.444  13.998
28246W        W87342  20.540  43.466   4.779
28247W        W87343  21.578  33.423   1.307
28248W        W87344  32.093  34.881   2.406
28249W        W87345   8.784  20.656  11.004
28250W        W87346  37.834  14.094  12.891
28251W        W87347  41.854  26.506   4.756
28252W        W87348  37.419  10.334   1.298
28253W        W87349  30.450  34.865  10.533
28254W        W87350  29.942   2.735   2.394
28255W        W87351  37.492  28.161  11.563
28256W        W87352   4.779  19.772   1.876
28257W        W87353  15.721   3.860   4.735
28258W        W87354  40.494  35.915  13.845
28259W        W87355  33.495  43.786   1.813
28260W        W87356   0.950  36.560  11.024
28261W        W87357  18.790  30.985   0.331
28262W        W87358   9.200   8.815   3.224
28263W        W87359  14.289  19.197   3.357
28264W        W87360  28.680  23.112  11.572
28265W        W87361  40.989  17.162   1.744
28266W        W87362   3.385  18.743   3.350
28267W        W87363  14.327  24.181  12.877
28268W        W87364  43.804  33.468   2.739
28269W        W87365  42.838  32.003  14.309
28270W        W87366   0.765  34.539   3.844
28271W        W87367  10.756  33.595  12.851
28272W        W87368  34.493  36.059   0.789
28273W        W87369   7.869  19.189   3.828
28274W        W87370  15.817  43.496  10.455
28275W        W87371   0.920  33.392   1.882
28276W        W87372  41.009   7.805   3.149
28277W        W87373   0.959  31.037   0.457
28278W        W87374  19.274  24.145  12.943
28279W        W87375   2.274  31.955  11.597
28280W        W87376   0.827  41.948  12.504
28281W        W87377  25.635   9.683  14.816
28282W        W87378  40.828  21.620  14.939
28283W        W87379  17.162  10.192  14.838
28284W        W87380  13.822  30.128  10.405
28285W        W87381  14.692  35.556  12.981
28286W        W87382  20.723  28.186   1.250
28287W        W87383  38.491   4.243   1.245
28288W        W87384  15.229  42.336  11.500
28289W        W87385  29.960  32.517   2.731
28290W        W87386   0.911  41.948   2.795
28291W        W87387  10.369   0.389   2.412
28292W        W87388  34.391  43.812   0.929
28293W        W87389   5.897  43.959   4.288
28294W        W87390  30.078  16.167  12.058
28295W        W87391  17.205  26.497  12.893
28296W        W87392  38.860  25.610   2.723
28297W        W87393  33.931  30.162  12.978
28298W        W87394  37.949  39.007   2.780
28299W        W87395   0.317  15.805   1.386
28300W        W87396  21.651   3.390   9.965
28301W        W87397  25.478  28.678  10.559
28302W        W87398  29.447  40.043  14.827
28303W        W87399  29.018   7.747   4.214
28304W        W87400   1.909  14.313  10.638
28305W        W87401  23.018   7.307   3.221
28306W        W87402  41.956  36.966   1.827
28307W        W87403  41.383   3.863   3.644
28308W        W87404  16.648  13.151  11.072
28309W        W87405  19.086  41.500  11.464
28310W        W87406  17.684  21.747  13.374
28311W        W87407  20.698  31.966  13.874
28312W        W87408   1.956   1.948   2.697
28313W        W87409   3.451  44.853  12.381
28314W        W87410  37.472  41.920  14.277
28315W        W87411  14.733  44.409  14.422
28316W        W87412   1.790   8.679  11.874
28317W        W87413  29.637   5.342  10.566
28318W        W87414  22.132  28.613   4.200
28319W        W87415  38.883  16.722  14.953
28320W        W87416  32.115  26.672   4.264
28321W        W87417  31.620  13.689  12.458
28322W        W87418  44.378  18.219   0.907
28323W        W87419  23.225   2.353   1.241
28324W        W87420  39.437   0.429   4.151
28325W        W87421  17.125   2.749   0.947
28326W        W87422  16.809   3.897  14.758
28327W        W87423  42.886   8.169  11.444
28328W        W87424  15.297  35.903  12.077
28329W        W87425  18.203  17.227  11.379
28330W        W87426  41.432  21.052  10.470
28331W        W87427  41.320  21.645  14.864
28332W        W87428  27.057  34.964  12.913
28333W        W87429  27.156   1.393   1.340
28334W        W87430   7.210  38.402  11.057
28335W        W87431  23.588   9.386  14.319
28336W        W87432  35.435  23.622   5.616
28337W        W87433  19.135  26.020  11.556
28338W        W87434  44.851  19.754   0.421
28339W        W87435   1.245  35.081   0.784
28340W        W87436  23.539  10.778   3.772
28341W        W87437  22.055  18.097  12.389
28342W        W87438  38.405  23.995   2.742
28343W        W87439  35.988  29.569   0.280
28344W        W87440  31.092  10.844  14.382
28345W        W87441  44.884  31.463  12.366
28346W        W87442  24.631   5.784  14.006
28347W        W87443   4.441  16.087   1.353
28348W        W87444  36.426  22.237   0.872
28349W        W87445   7.176  15.807  13.941
28350W        W87446  39.535  27.647   0.770
28351W        W87447  23.615   2.458  14.343
28352W        W87448  13.618  23.997  11.606
28353W        W87449  19.770  27.059  14.789
28354W        W87450  16.251  40.833  10.497
28355W        W87451  39.418   4.735  14.326
28356W        W87452   9.289  44.266   1.272
28357W        W87453  22.582   0.903   2.387
28358W        W87454  38.362  22.598   0.475
28359W        W87455  43.943  24.048  12.434
28360W        W87456   0.450  37.043   3.650
28361W        W87457   4.330  36.858  14.965
28362W        W87458  40.001   6.256  11.104
28363W        W87459   6.849  28.027  10.952
28364W        W87460  10.833  23.045  11.589
28365W        W87461  30.544  36.532  12.529
28366W        W87462   3.263  17.065  10.605
28367W        W87463  33.574   4.324   4.339
28368W        W87464  19.723   1.308  13.427
28369W        W87465   4.797  40.020  13.357
28370W        W87466   7.734  35.998   9.928
28371W        W87467  15.723   9.249   0.763
28372W        W87468  26.513   0.395   4.349
28373W        W87469   3.716  26.130   2.760
28374W        W87470  19.748   3.887   4.173
28375W        W87471  36.861  25.559  12.992
28376W        W87472  29.107  31.577  12.897
28377W        W87473   3.940  24.479  11.086
28378W        W87474  10.658   7.256   1.852
28379W        W87475  32.981  22.625   2.287
28380W        W87476  24.018  16.074   4.649
28381W        W87477  40.934  22.999  12.995
28382W        W87478  30.113  39.944   3.224
28383W        W87479  23.099   2.276  10.426
28384W        W87480  41.950  26.156  13.858
28385W        W87481  16.649  18.753  11.604
28386W        W87482  42.976  31.981   3.724
28387W        W87483  19.146  22.717   3.360
28388W        W87484  14.316  33.969   2.848
28389W        W87485  36.453  15.091  14.960
28390W        W87486  39.518  34.022   4.713
28391W        W87487  36.590  19.675   3.751
28392W        W87488   8.173   7.665  13.943
28393W        W87489   0.970   9.840  12.349
28394W        W87490   5.430  18.273  10.557
28395W        W87491   1.934  42.486   0.868
28396W        W87492  26.077   1.286   0.424
28397W        W87493  17.104  20.712  10.894
28398W        W87494  38.981   9.217   2.856
28399W        W87495   5.782  32.508  13.515
28400W        W87496  42.473  28.964  12.434
28401W        W87497  36.986   4.723  14.369
28402W        W87498  39.422   0.316  13.335
28403W        W87499   5.898  33.018  10.574
28404W        W87500  35.590  26.041  13.548
28405W        W87501  12.181  20.248  10.472
28406W        W87502  17.269   6.811   3.170
28407W        W87503  35.954  16.747   5.683
28408W        W87504   6.699  21.630   3.819
28409W        W87505  32.398  39.411  14.508
28410W        W87506  34.919  38.942  14.845
28411W        W87507  16.288  25.489  11.601
28412W        W87508   3.244   8.745   2.274
28413W        W87509  43.442  26.969  13.342
28414W        W87510  19.714  31.477  10.922
28415W        W87511  17.751  29.535   2.733
28416W        W87512  23.119  16.640  11.499
28417W        W87513   0.332   0.276  13.397
28418W        W87514   9.387   8.672  11.919
28419W        W87515   8.322  25.144  14.866
28420W        W87516  43.819   4.395   1.741
28421W        W87517  18.719  10.774   3.217
28422W        W87518  41.948  44.283  11.995
28423W        W87519  33.903  13.785  14.364
28424W        W87520  20.069   4.939  11.405
28425W        W87521  33.944   0.492   0.478
28426W        W87522  44.817  33.918  12.824
28427W        W87523  32.516  21.190  14.945
28428W        W87524  39.887   1.399  13.444
28429W        W87525   1.864  14.167   1.790
28430W        W87526  39.378  30.911   1.221
28431W        W87527  23.157  31.489  14.007
28432W        W87528  26.497   0.837   2.402
28433W        W87529  20.580  14.771   0.438
28434W        W87530  16.757  34.451   3.171
28435W        W87531  11.665  44.477   4.349
28436W        W87532   4.821  34.426  11.390
28437W        W87533  22.591   5.801  12.444
28438W        W87534   5.369  35.440   3.726
28439W        W87535  33.062   9.185  12.451
28440W        W87536  13.632  28.457  12.476
28441W        W87537  40.390  15.818   4.259
28442W        W87538  38.497  25.048  13.040
28443W        W87539  17.118   3.826   1.824
28444W        W87540  19.056  37.401   3.160
28445W        W87541  35.952  38.972  10.574
28446W        W87542  17.113  43.398   4.188
28447W        W87543   5.852  39.904   4.723
28448W        W87544   6.246   2.313  14.022
28449W        W87545   7.796  16.106   3.678
28450W        W87546  35.004  28.051  14.917
28451W        W87547  24.600  30.502   2.209
28452W        W87548  18.778   0.954  12.344
28453W        W87549   4.284  19.636  10.991
28454W        W87550  39.362   8.215  13.537
28455W        W87551  24.070  13.173  14.022
28456W        W87552  44.828  31.091  11.988
28457W        W87553   9.233   3.379   0.865
28458W        W87554  22.506  25.617  13.832
28459W        W87555  30.139  44.787  11.438
28460W        W87556  39.984  25.492   3.153
28461W        W87557  16.113  19.246  10.420
28462W        W87558   4.288  13.638  14.883
28463W        W87559   1.301  33.385  14.383
28464W        W87560  36.446  34.082  12.906
28465W        W87561   0.796  11.280   0.961
28466W        W87562  30.011  33.079  12.411
28467W        W87563  35.538  37.427   5.170
28468W        W87564  26.158  38.372  10.542
28469W        W87565  21.582  39.900  14.279
28470W        W87566  34.528   4.243  11.078
28471W        W87567  32.543  14.788  11.477
28472W        W87568  18.734  38.960  14.797
28473W        W87569  26.966  10.810  13.318
28474W        W87570  17.585   5.824   1.362
28475W        W87571   0.401   0.396   2.877
28476W        W87572  31.039  23.640  14.898
28477W        W87573  42.322  29.474  12.396
28478W        W87574   0.372  44.345   1.921
28479W        W87575  43.437  33.532   1.807
28480W        W87576  17.728   9.251  12.524
28481W        W87577  43.354   4.367   1.771
28482W        W87578  34.012  21.141  12.430
28483W        W87579  15.121   0.840  10.612
28484W        W87580  42.937  26.122  12.561
28485W        W87581  22.741  26.116   4.297
28486W        W87582  25.190  14.634  11.864
28487W        W87583   1.285  11.163  13.997
28488W        W87584  27.530  42.948  11.533
28489W        W87585   3.717  34.505   4.220
28490W        W87586  32.896  12.668  14.962
28491W        W87587  15.162  41.965   2.831
28492W        W87588  42.839  20.523  11.502
28493W        W87589  17.192  43.286  11.037
28494W        W87590  12.259  18.606  12.830
28495W        W87591  38.499  38.960   3.339
28496W        W87592  31.127  29.134  11.562
28497W        W87593  33.027  14.295   4.699
28498W        W87594  31.102  35.012  10.015
28499W        W87595  18.706  31.138   0.898
28500W        W87596   3.816   6.815  12.080
28501W        W87597  30.659  19.060   2.705
28502W        W87598  20.654  36.505   0.755
28503W        W87599  23.200   1.903   3.351
28504W        W87600  12.666   0.443   4.224
28505W        W87601   2.230  31.099   2.353
28506W        W87602   5.775  21.511   4.742
28507W        W87603  39.010  43.399   2.684
28508W        W87604   4.825  17.143   3.657
28509W        W87605  32.111  33.524  12.928
28510W        W87606   3.385   6.337  12.520
28511W        W87607  29.142  29.555  12.849
28512W        W87608  26.523   0.761  11.087
28513W        W87609  23.065  14.729   0.327
28514W        W87610  16.100   5.752  14.843
28515W        W87611  27.515   2.248   2.325
28516W        W87612  11.623  34.446  13.321
28517W        W87613   6.827   5.787   4.775
28518W        W87614  31.432   3.308   1.901
28519W        W87615  31.412   7.328  11.936
28520W        W87616  12.724   7.289  11.394
28521W        W87617   1.244  42.392   4.785
28522W        W87618  33.919  29.440  11.507
28523W        W87619   0.816  27.958   1.893
28524W        W87620  40.889  32.396   2.181
28525W        W87621   6.739  22.537  12.990
28526W        W87622  32.058  31.532  11.026
28527W        W87623  36.385  20.265  11.915
28528W        W87624  23.151  23.237  12.975
28529W        W87625  21.139  28.437  11.997
28530W        W87626  37.838   6.289  14.916
28531W        W87627  42.397  34.553  13.928
28532W        W87628  23.602  16.797   3.158
28533W        W87629   9.325  33.907  12.541
28534W        W87630  14.620  31.449  13.325
28535W        W87631  23.241  33.574  13.392
28536W        W87632  28.166  31.477   3.256
28537W        W87633  13.677   0.350  12.959
28538W        W87634   5.301  30.628  11.512
28539W        W87635  41.786   1.961  12.939
28540W        W87636  29.651  38.449   1.826
28541W        W87637  32.410  40.996   0.410
28542W        W87638  10.262  19.221  11.034
28543W        W87639  20.585  39.989  14.373
28544W        W87640  31.413  14.824   1.894
28545W        W87641   2.792  30.608   2.216
28546W        W87642  15.701  20.762  10.439
28547W        W87643  29.640  33.524  10.983
28548W        W87644  21.182  16.769  12.493
28549W        W87645   1.375  35.924  11.419
28550W        W87646  19.708  12.322  13.348
28551W        W87647   4.250  35.979   3.789
28552W        W87648  35.372   7.183  10.981
28553W        W87649   2.808   2.859  12.897
28554W        W87650  22.245  20.733   4.225
28555W        W87651   9.277   2.880   4.231
28556W        W87652  43.432   6.727  13.415
28557W        W87653   7.673  10.340   0.464
28558W        W87654  17.714   1.299  11.525
28559W        W87655   9.172  14.621  12.509
28560W        W87656   4.207  23.725  13.456
28561W        W87657   5.283  12.175   2.236
28562W        W87658  39.366  34.909   0.832
28563W        W87659  15.639   4.929  13.939
28564W        W87660  10.252  17.174   2.746
28565W        W87661  25.022   7.897  14.813
28566W        W87662  13.198  16.609  11.386
28567W        W87663   0.339  25.685  11.116
28568W        W87664  38.857  12.690   0.954
28569W        W87665  22.539   5.438   1.694
28570W        W87666  17.104  16.256  12.006
28571W        W87667  19.102   5.821  13.979
28572W        W87668  21.170   1.410   1.289
28573W        W87669  17.270  39.940   0.769
28574W        W87670  38.846  11.271   0.357
28575W        W87671  18.744  19.716  12.415
28576W        W87672   3.397  30.029   4.223
28577W        W87673  38.410  44.955  10.428
28578W        W87674   4.790  19.571   2.672
28579W        W87675   5.791  28.454  11.597
28580W        W87676  17.089  44.362   4.791
28581W        W87677  13.682   0.831   4.627
28582W        W87678  36.467   3.719  13.495
28583W        W87679  20.655  24.720  14.842
28584W        W87680  43.289  19.076   2.888
28585W        W87681  30.543  42.921   4.214
28586W        W87682  22.711  25.580   2.810
28587W        W87683  20.712   4.416   3.770
28588W        W87684  38.954  26.986  13.352
28589W        W87685   6.922  38.989  10.063
28590W        W87686  14.222  28.129   3.190
28591W        W87687  43.944  10.307  13.793
28592W        W87688  31.101  21.532  11.904
28593W        W87689  44.380  14.814  13.801
28594W        W87690  14.244  34.482   0.448
28595W        W87691  41.804  33.075  13.376
28596W        W87692  37.947   6.260   1.816
28597W        W87693  18.583   6.266   4.825
28598W        W87694   6.343   1.320  13.342
28599W        W87695  17.739  40.050   1.419
28600W        W87696  10.824   1.425   3.652
28601W        W87697  35.580  31.640   3.685
28602W        W87698   1.870  20.565   0.838
28603W        W87699  10.264  20.556   2.335
28604W        W87700  40.537  38.857   1.350
28605W        W87701   8.667  22.571   0.258
28606W        W87702  40.009   0.770   0.244
28607W        W87703   3.315  29.149  11.050
28608W        W87704  40.884  44.774  13.905
28609W        W87705  43.767  26.137  12.830
28610W        W87706  20.206  15.225   2.341
28611W        W87707   5.852  14.192   3.778
28612W        W87708  44.384   1.789   2.746
28613W        W87709  25.963  12.688   2.417
28614W        W87710  35.586  16.728   0.431
28615W        W87711  27.652  28.152   1.373
28616W        W87712  39.449  35.586  14.278
28617W        W87713  41.946  24.568  11.429
28618W        W87714  12.723  44.905  11.046
28619W        W87715  41.799  21.028  12.034
28620W        W87716   0.384  14.188  11.489
28621W        W87717  18.188  35.000  10.923
28622W        W87718  34.552  20.626   1.746
28623W        W87719  27.663  18.064  14.382
28624W        W87720  42.835  42.352   4.788
28625W        W87721   3.926   9.781   4.221
28626W        W87722  14.805  18.701  10.970
28627W        W87723  31.575  26.114   0.869
28628W        W87724   6.204  44.451  12.828
28629W        W87725  35.968   4.258   1.813
28630W        W87726  14.698  40.341  11.451
28631W        W87727   9.708  28.566  14.852
28632W        W87728  22.723  38.062   1.722
28633W        W87729  10.654  18.763   0.483
28634W        W87730   0.890  25.096   0.853
28635W        W87731  18.680  18.640  13.942
28636W        W87732  11.174   8.351  11.009
28637W        W87733  21.185   5.698  11.471
28638W        W87734  40.332   3.794  14.337
28639W        W87735  23.609  33.617   3.363
28640W        W87736  13.256  37.066   4.707
28641W        W87737  40.979  40.311  11.534
28642W        W87738  38.070  26.693   2.739
28643W        W87739  25.676  42.356   3.753
28644W        W87740  43.871  22.676  13.457
28645W        W87741  15.092  22.221  10.617
28646W        W87742  31.490   2.408  13.454
28647W        W87743  23.231  41.514  11.456
28648W        W87744  21.662   4.837  13.535
28649W        W87745  44.778  17.760   3.194
28650W        W87746  32.979  13.171   5.195
28651W        W87747   5.355   9.822  12.827
28652W        W87748  37.997   5.930  13.868
28653W        W87749  13.599   0.750   2.199
28654W        W87750  15.175  13.249  12.571
28655W        W87751  13.772  37.896  12.934
28656W        W87752  15.709  15.681  13.028
28657W        W87753  30.533  38.452  10.991
28658W        W87754  20.055  15.225  14.773
28659W        W87755  15.096  18.189  14.512
28660W        W87756  39.810  18.711  11.033
28661W        W87757  20.087  22.102   9.999
28662W        W87758  35.008  13.340   4.814
28663W        W87759  17.141  30.591  11.891
28664W        W87760  28.056  41.475  11.937
28665W        W87761   8.340  33.094  13.413
28666W        W87762  19.129  21.032   2.709
28667W        W87763  27.449  36.902  12.392
28668W        W87764   3.375  38.995  13.473
28669W        W87765  16.285  34.991   0.894
28670W        W87766  33.915  34.946   3.373
28671W        W87767  13.130  15.128  13.800
28672W        W87768   9.762  14.119   1.703
28673W        W87769   0.799  35.378  10.124
28674W        W87770  35.361   4.385  10.428
28675W        W87771   9.834  15.248  14.013
28676W        W87772  12.362   3.844   2.365
28677W        W87773  21.158  43.294   1.226
28678W        W87774  39.957   8.287   1.881
28679W        W87775   3.896  14.262  14.298
28680W        W87776   8.784  44.358   1.323
28681W        W87777  28.526  33.591  12.827
28682W        W87778  39.496  13.826   0.746
28683W        W87779  32.886   2.471  10.449
28684W        W87780  38.883  24.658   2.373
28685W        W87781  31.980  10.706   1.431
28686W        W87782  14.106  17.110   0.795
28687W        W87783   7.743  16.089  13.839
28688W        W87784  11.736  30.911   0.465
28689W        W87785  10.693  11.160   1.261
28690W        W87786  34.426  14.150  10.065
28691W        W87787   2.469   2.773  10.483
28692W        W87788   6.743  22.746   2.301
28693W        W87789   9.687  19.687   3.154
28694W        W87790  38.040  32.052  11.971
28695W        W87791   1.284  41.353   1.402
28696W        W87792  38.366   8.727   2.210
28697W        W87793  35.553  10.835  13.468
28698W        W87794  20.133  41.808  11.054
28699W        W87795  29.513  20.037   0.882
28700W        W87796  43.907  44.799   1.717
28701W        W87797  34.948  17.185   3.304
28702W        W87798  35.383  14.615   1.886
28703W        W87799   6.700  17.232  14.769
28704W        W87800  37.352  14.825  13.026
28705W        W87801   9.324  38.340  13.947
28706W        W87802  27.980  10.816   2.673
28707W        W87803  16.318  38.822  11.378
28708W        W87804   0.459  26.042   4.319
28709W        W87805  14.616   5.373  12.553
28710W        W87806  43.809   5.367   3.663
28711W        W87807  15.094  34.429  14.341
28712W        W87808   2.336   8.310   3.650
28713W        W87809   2.241   0.422  10.408
28714W        W87810  28.064  11.699   1.750
28715W        W87811  19.116  23.147   2.800
28716W        W87812  35.542  13.798  13.334
28717W        W87813  15.157   0.308   2.798
28718W        W87814  35.863  11.793   2.188
28719W        W87815   2.426  30.444  13.447
28720W        W87816  16.618  32.064   4.228
28721W        W87817  39.820  30.630   2.740
28722W        W87818  31.542  20.246   0.807
28723W        W87819  14.743  16.699   1.447
28724W        W87820  12.679  34.053  13.462
28725W        W87821  41.992   1.887  13.308
28726W        W87822  26.492   9.703  14.924
28727W        W87823  23.587  41.496  11.565
28728W        W87824  41.378  25.076   2.748
28729W        W87825  34.537  29.953  12.859
28730W        W87826   8.677   0.486  12.578
28731W        W87827  41.943   4.438   2.828
28732W        W87828   5.908  39.968  12.919
28733W        W87829  43.444   9.391   2.880
28734W        W87830  23.211   1.891   4.175
28735W        W87831  29.571  44.495   0.250
28736W        W87832  34.403  18.591  13.849
28737W        W87833  43.943  23.032   3.799
28738W        W87834   5.305  12.698  14.437
28739W        W87835   3.936  11.652   0.863
28740W        W87836   1.436  20.696   2.221
28741W        W87837   8.895   6.386  13.373
28742W        W87838   2.967  25.026  13.340
28743W        W87839  19.691  16.769   3.325
28744W        W87840  31.418  20.066  12.455
28745W        W87841  42.337  11.240   4.715
28746W        W87842   2.359   9.365  12.029
28747W        W87843  32.539  27.019   2.757
28748W        W87844   7.897  26.458   2.372
28749W        W87845  29.096   9.299   3.841
28750W        W87846  36.986   7.369  13.310
28751W        W87847   3.461  36.984  12.940
28752W        W87848  22.234   3.434   1.900
28753W        W87849  37.483  38.939  11.098
28754W        W87850  22.199  22.048   9.957
28755W        W87851  41.854  23.522  11.907
28756W        W87852  24.710  18.671   2.379
28757W        W87853  36.079  14.219  12.490
28758W        W87854   8.174  43.973   1.252
28759W        W87855  37.492  38.516  13.964
28760W        W87856  16.249  39.499   2.668
28761W        W87857  29.464   6.225   0.753
28762W        W87858  41.465  27.165  11.404
28763W        W87859  30.936  26.487   3.192
28764W        W87860  17.697  31.588  12.459
28765W        W87861   2.923   9.279  13.524
28766W        W87862  10.301  38.072  11.405
28767W        W87863  40.835  18.665  10.450
28768W        W87864  11.370  18.678   2.737
28769W        W87865  14.681  16.721   4.169
28770W        W87866  22.615   3.814   9.961
28771W        W87867  17.775  38.529   3.312
28772W        W87868  28.645  43.492  14.511
28773W        W87869  19.566  27.546  10.566
28774W        W87870  37.342  36.050  13.417
28775W        W87871  19.536  11.257   1.867
28776W        W87872  26.597  39.445   4.618
28777W        W87873  30.092  12.155   1.305
28778W        W87874  29.563  26.993   3.647
28779W        W87875  23.097  34.392  13.330
28780W        W87876  29.970  43.499  12.425
28781W        W87877  43.480  35.472  12.578
28782W        W87878   5.695   1.293   2.787
28783W        W87879  38.827  19.776  10.051
28784W        W87880  43.823  18.735  14.777
28785W        W87881   4.224  18.586  13.441
28786W        W87882  44.905  44.488   0.288
28787W        W87883  13.693  32.604   1.400
28788W        W87884  25.506  12.818   4.784
28789W        W87885  44.288   8.667  12.395
28790W        W87886  33.469  31.625  12.896
28791W        W87887  43.407  43.287   4.220
28792W        W87888  13.697  17.603   3.151
28793W        W87889  10.171  20.201   4.764
28794W        W87890  39.852  33.946  10.954
28795W        W87891  18.177  15.324   1.354
28796W        W87892   5.852  30.548  12.421
28797W        W87893   8.332  31.441  11.063
28798W        W87894  34.948  17.229  14.352
28799W        W87895  38.998  19.604   0.409
28800W        W87896  43.514   4.811   2.360
28801W        W87897  28.184  40.334   0.827
28802W        W87898   2.263  17.246   1.856
28803W        W87899  16.713  44.827   1.410
28804W        W87900  17.727   3.404   0.421
28805W        W87901  44.408  14.799  12.493
28806W        W87902  26.060  29.038  12.564
28807W        W87903  30.656  36.977  14.451
28808W        W87904   2.318  34.536  12.399
28809W        W87905  11.182  37.947   1.873
28810W        W87906  19.197  28.532   2.739
28811W        W87907  19.099  33.938   4.132
28812W        W87908  19.592  16.798  14.419
28813W        W87909  24.518  33.416  12.851
28814W        W87910  16.181  30.567  10.555
28815W        W87911  25.133   1.888  14.834
28816W        W87912  26.560   2.292  11.994
28817W        W87913  10.198  29.971   4.672
28818W        W87914  33.990  40.801  13.430
28819W        W87915  17.205  15.621   2.834
28820W        W87916  27.553   0.759   0.816
28821W        W87917   5.730  20.578  12.908
28822W        W87918  35.882  12.738   2.249
28823W        W87919  10.278  15.784   3.325
28824W        W87920  18.755  38.507   2.680
28825W        W87921  18.202  37.070  13.388
28826W        W87922  21.067  36.938  10.424
28827W        W87923   0.828  24.195  10.414
28828W        W87924  24.721  37.511  14.339
28829W        W87925   6.857  36.593   3.287
28830W        W87926  35.385  23.170   0.384
28831W        W87927  26.623  43.512   1.904
28832W        W87928  44.940  18.547  12.363
28833W        W87929  29.931  22.110   3.298
28834W        W87930   0.835  14.316  12.442
28835W        W87931   0.436  34.576   1.898
28836W        W87932  44.961  19.136   4.742
28837W        W87933  27.480  37.339  13.463
28838W        W87934  35.983  20.656   3.190
28839W        W87935  23.643   3.849  12.375
28840W        W87936  37.862  23.060  10.550
28841W        W87937  25.674  30.554  14.885
28842W        W87938   2.874  29.670   1.918
28843W        W87939  38.026  32.629  12.559
28844W        W87940  19.154  38.514   1.747
28845W        W87941  36.009   1.931   1.853
28846W        W87942  10.143   8.662  11.451
28847W        W87943  20.238  10.659   1.739
28848W        W87944  38.470  12.285  10.915
28849W        W87945  13.303  42.439  14.289
28850W        W87946  31.981  36.960   4.291
28851W        W87947  33.496  27.972  12.387
28852W        W87948  15.225   3.388   3.668
28853W        W87949  28.653   9.209  13.832
28854W        W87950   6.211  38.393  11.009
28855W        W87951  29.002   0.777   2.311
28856W        W87952  28.539  41.373   0.861
28857W        W87953   2.438  14.771  11.405
28858W        W87954  25.984  30.131   4.630
28859W        W87955   6.209   3.800   3.643
28860W        W87956  32.044  15.256  10.497
28861W        W87957   4.834  33.464   5.151
28862W        W87958  27.943  35.020   3.245
28863W        W87959  26.471   2.789   4.339
28864W        W87960  21.031  38.823  11.430
28865W        W87961   8.845  40.436   0.340
28866W        W87962  41.883  23.662   3.806
28867W        W87963  19.174  29.070   1.730
28868W        W87964  43.324   9.168  14.898
28869W        W87965  13.151   4.836  11.076
28870W        W87966  34.608  33.409   3.832
28871W        W87967  34.933  42.809   4.334
28872W        W87968  24.066  23.138   3.321
28873W        W87969  17.276  14.603  11.919
28874W        W87970   3.731  18.232  11.907
28875W        W87971  40.312   1.339   0.367
28876W        W87972  26.563  15.627  14.960
28877W        W87973  27.669   5.752  14.892
28878W        W87974  30.523   3.713  10.905
28879W        W87975   7.813  14.212  11.046
28880W        W87976  19.702  18.673  12.015
28881W        W87977  40.412  42.291   3.165
28882W        W87978  17.568  28.444   2.878
28883W        W87979   1.963  18.611  13.833
28884W        W87980  17.088  30.621   4.283
28885W        W87981  36.974  10.860  13.948
28886W        W87982  41.457  34.964   2.805
28887W        W87983   5.314  42.011   4.320
28888W        W87984   3.255   8.817   2.682
28889W        W87985  23.676   1.939  14.398
28890W        W87986   0.787  28.128  12.566
28891W        W87987  30.098  25.497  11.060
28892W        W87988  34.423   1.328   1.355
28893W        W87989  31.436  40.895   1.798
28894W        W87990   7.697  19.709   0.768
28895W        W87991  40.504  20.721   4.776
28896W        W87992   0.462  31.480  12.899
28897W        W87993  30.920   8.282   2.289
28898W        W87994  17.698  13.259   0.815
28899W        W87995  25.480  17.601  10.581
28900W        W87996  22.014  24.066  11.943
28901W        W87997   3.882  38.935  10.422
28902W        W87998  34.087  12.617  11.522
28903W        W87999  22.209  26.055   2.217
28904W        W88000  31.023  29.644   1.307
28905W        W88001  24.089  44.315  13.329
28906W        W88002  14.115   2.461  13.911
28907W        W88003   7.395   2.849   1.870
28908W        W88004  39.836  42.995  11.479
28909W        W88005  35.088  18.550  11.116
28910W        W88006  21.085  26.486  11.588
28911W        W88007  26.576  19.087   0.842
28912W        W88008  11.826  32.909  12.873
28913W        W88009  36.972  32.988  11.446
28914W        W88010  35.531   6.818  12.529
28915W        W88011  31.942  39.820   3.236
28916W        W88012  13.304   3.938   1.745
28917W        W88013   1.902  17.256  10.618
28918W        W88014  12.804  36.459   0.888
28919W        W88015  17.607  31.617   3.194
28920W        W88016  40.002  39.876  12.347
28921W        W88017  43.469  22.224   2.273
28922W        W88018  25.969  42.997   4.327
28923W        W88019  42.877  37.912  14.980
28924W        W88020  13.746  27.545   4.752
28925W        W88021   6.686  36.568   2.856
28926W        W88022   4.315  30.608  13.892
28927W        W88023  31.409  44.851  11.420
28928W        W88024  12.720  27.006  13.355
28929W        W88025  17.561  40.310  12.967
28930W        W88026  15.650  13.186  12.531
28931W        W88027  20.173  37.551   3.750
28932W        W88028  13.133  16.090  14.843
28933W        W88029  28.619  34.552  11.039
28934W        W88030  44.782  23.027   4.329
28935W        W88031  44.500  33.421   5.277
28936W        W88032  15.267  14.112   2.253
28937W        W88033  25.135  29.018   0.785
28938W        W88034  14.719  36.088  12.899
28939W        W88035   5.384  23.599  10.512
28940W        W88036  41.989   8.279   2.854
28941W        W88037  31.019  44.823  14.944
28942W        W88038  39.992   1.338  11.577
28943W        W88039  29.488  22.605  10.583
28944W        W88040  43.854  23.225  11.475
28945W        W88041  31.478  30.561  12.095
28946W        W88042  19.633   4.424   2.809
28947W        W88043   3.909  18.688   3.291
28948W        W88044  14.795  23.238   1.729
28949W        W88045   3.774  13.752   1.433
28950W        W88046  19.615  31.040  12.379
28951W        W88047  24.109  36.989  14.834
28952W        W88048  11.740  11.310  14.459
28953W        W88049   5.391  18.181   4.640
28954W        W88050  21.741  15.678  13.045
28955W        W88051  34.930  31.147  13.432
28956W        W88052  21.145  21.024  10.443
28957W        W88053   1.280  31.897  13.941
28958W        W88054   9.669   1.302   3.679
28959W        W88055   2.957   7.218   2.352
28960W        W88056  44.366  42.360   0.882
28961W        W88057  10.267  35.919  12.086
28962W        W88058  44.459   6.399   0.794
28963W        W88059  27.070  11.646  12.026
28964W        W88060  22.662   4.382   2.296
28965W        W88061  26.953   6.273  12.417
28966W        W88062  19.092  17.131  12.448
28967W        W88063  13.237  44.477  11.891
28968W        W88064  15.106   0.253   0.242
28969W        W88065   8.746  18.759  12.889
28970W        W88066  37.453  29.962   4.229
28971W        W88067  12.219  14.645  13.913
28972W        W88068   7.749  19.099  10.554
28973W        W88069  33.580  15.648  13.953
28974W        W88070   2.372  32.598   4.145
28975W        W88071  44.914  10.755   0.915
28976W        W88072  29.099   0.256  11.475
28977W        W88073   4.380  35.392   3.675
28978W        W88074  32.534  21.694   1.892
28979W        W88075   4.274  38.569   0.443
28980W        W88076  19.770  22.628  13.868
28981W        W88077  32.440  28.645  13.420
28982W        W88078  35.415  35.463  13.386
28983W        W88079  39.840  41.537   2.204
28984W        W88080  39.953  21.255   4.156
28985W        W88081  15.747  27.166   1.438
28986W        W88082  38.922  34.927   4.338
28987W        W88083  23.190   8.832  14.343
28988W        W88084   9.371   9.363   2.797
28989W        W88085   1.802  20.261  11.405
28990W        W88086   9.778  31.593   1.909
28991W        W88087  25.037  13.240  11.917
28992W        W88088  10.196  24.042   0.401
28993W        W88089  34.003  11.174  13.362
28994W        W88090   7.666  38.569  12.854
28995W        W88091  25.585   0.304  12.563
28996W        W88092  11.227  30.512  11.540
28997W        W88093  32.970   0.964   4.320
28998W        W88094   6.224  36.909   2.898
28999W        W88095   3.221   1.734   4.187
29000W        W88096   7.203  15.697   3.369
29001W        W88097  41.864  17.722   4.247
29002W        W88098  10.187   9.887   1.764
29003W        W88099  26.527  11.246   5.175
29004W        W88100  43.997  12.835  14.966
29005W        W88101  19.203   6.290   0.407
29006W        W88102   1.302  10.205   1.783
29007W        W88103  29.028  15.247  10.523
29008W        W88104  44.906   9.747   3.345
29009W        W88105  29.012   4.775  11.977
29010W        W88106  30.500  31.567  11.127
29011W        W88107  37.581  20.643  11.022
29012W        W88108  19.138  23.067  10.526
29013W        W88109  21.737  11.150   3.325
29014W        W88110  17.109   1.420  12.473
29015W        W88111   4.334  28.000  14.935
29016W        W88112   9.161  13.313   2.206
29017W        W88113  28.149   0.331  11.964
29018W        W88114  36.490  28.564  12.385
29019W        W88115  10.253  10.679   2.754
29020W        W88116  39.406  43.805  12.541
29021W        W88117  27.621   0.395  13.489
29022W        W88118  22.606   0.489   0.740
29023W        W88119  18.766   9.194   5.769
29024W        W88120  32.435   2.907  14.401
29025W        W88121  30.125   6.912  13.466
29026W        W88122  43.472  27.447   0.432
29027W        W88123  27.610  32.950  12.968
29028W        W88124  20.120  17.253  14.968
29029W        W88125  27.177  35.060   0.478
29030W        W88126  25.684  36.864  13.368
29031W        W88127  38.476   2.767  12.505
29032W        W88128  35.366  11.799  13.810
29033W        W88129   5.413  16.707   2.849
29034W        W88130  20.171  11.677  14.760
29035W        W88131  41.342  14.630  12.565
29036W        W88132  18.547  44.400  10.623
29037W        W88133   8.828  31.121  12.480
29038W        W88134  14.215  36.404  10.990
29039W        W88135  22.246   4.420  14.000
29040W        W88136  24.984  38.945   3.154
29041W        W88137  40.007   4.406   2.416
29042W        W88138  31.059  35.383   1.821
29043W        W88139   1.871  31.072   0.284
29044W        W88140  24.195  12.352  14.906
29045W        W88141  22.046  32.598   1.858
29046W        W88142  14.833  40.448   0.253
29047W        W88143   1.895   5.877  12.525
29048W        W88144  24.106  15.809   9.931
29049W        W88145  41.506  23.682  14.480
29050W        W88146  18.290   2.360  14.004
29051W        W88147   1.329  43.801   0.887
29052W        W88148   7.407  17.211   4.621
29053W        W88149  12.362  44.472   1.833
29054W        W88150  27.992  13.344   0.816
29055W        W88151  20.743  40.403   0.307
29056W        W88152  14.620  20.623   3.210
29057W        W88153  32.981  40.841  10.980
29058W        W88154  24.526   7.352   4.152
29059W        W88155  10.348  40.325   4.710
29060W        W88156   3.798  23.708  11.552
29061W        W88157  24.565   9.865  12.534
29062W        W88158  29.468   8.388   1.923
29063W        W88159  31.636  39.947  13.331
29064W        W88160  33.585  38.059  14.784
29065W        W88161  29.013  29.930  14.929
29066W        W88162  31.466  32.610  11.542
29067W        W88163  20.536  12.353   1.240
29068W        W88164  33.424  28.156  14.015
29069W        W88165  35.502  44.305  12.936
29070W        W88166  19.676  35.004  12.096
29071W        W88167  40.802  18.147   4.614
29072W        W88168  21.662  21.690   1.919
29073W        W88169  17.242  44.862   0.795
29074W        W88170  19.146  21.229   0.273
29075W        W88171   9.822   5.290  13.912
29076W        W88172  24.216  30.639  13.506
29077W        W88173  17.604  10.648  10.563
29078W        W88174  42.364   7.678   3.809
29079W        W88175  32.058   5.781   3.798
29080W        W88176  24.551  24.990  12.091
29081W        W88177  16.774  41.484  14.008
29082W        W88178  18.653  36.866  14.856
29083W        W88179  16.282  41.532  12.078
29084W        W88180  37.850  31.467   4.128
29085W        W88181  25.573   6.231   0.922
29086W        W88182  17.207  14.833   4.677
29087W        W88183   8.791  40.863   4.825
29088W        W88184  40.981   6.752  14.837
29089W        W88185  23.112  12.331   4.802
29090W        W88186  27.951  44.802   2.752
29091W        W88187   3.429  12.196  13.389
29092W        W88188  36.582   3.798   2.828
29093W        W88189  25.615   7.225   1.799
29094W        W88190  17.193  37.368  14.305
29095W        W88191   5.691  28.103   0.292
29096W        W88192  21.757  41.986  12.018
29097W        W88193  12.768  41.375  10.404
29098W        W88194   0.893  14.189   3.856
29099W        W88195  13.241  23.683  13.020
29100W        W88196  41.954  38.893   3.340
29101W        W88197  21.201  34.029   3.287
29102W        W88198  43.309  39.334  12.024
29103W        W88199  24.100  30.460   9.963
29104W        W88200  39.935   3.229  10.634
29105W        W88201   4.336  13.797  11.554
29106W        W88202  12.702  37.945  11.376
29107W        W88203  39.004  11.323  13.524
29108W        W88204  32.885   3.386   3.195
29109W        W88205  17.705  19.613  13.899
29110W        W88206  34.965  42.356   2.833
29111W        W88207  23.556   9.346  11.914
29112W        W88208  16.295  23.600  13.427
29113W        W88209  37.856   7.214  12.023
29114W        W88210  25.093  25.209   2.306
29115W        W88211  14.199  36.582   2.888
29116W        W88212  19.198  44.478  14.810
29117W        W88213  20.594  15.635  11.061
29118W        W88214   8.661  23.225   3.273
29119W        W88215  27.063  18.660   4.774
29120W        W88216  12.338  13.834  14.939
29121W        W88217   3.720  39.013   0.255
29122W        W88218  28.172  38.879   0.466
29123W        W88219  43.865  34.579  12.907
29124W        W88220  12.155   5.412   3.165
29125W        W88221   1.974  12.666   3.367
29126W        W88222  28.015  31.106  10.509
29127W        W88223  15.314  13.720  10.617
29128W        W88224   7.773  17.779   3.869
29129W        W88225   6.812  18.745   0.270
29130W        W88226  39.434   9.359   1.227
29131W        W88227  30.436  14.312   4.354
29132W        W88228   1.732  42.976  12.488
29133W        W88229  42.803  40.503  14.313
29134W        W88230  18.191  34.518  12.839
29135W        W88231   8.723   5.900   3.364
29136W        W88232  22.085  21.684   3.701
29137W        W88233  44.361  11.708  11.971
29138W        W88234  15.089  43.348  12.915
29139W        W88235  16.095   4.342  11.552
29140W        W88236  33.107   1.294   1.785
29141W        W88237  38.556  17.178   2.747
29142W        W88238   6.258  27.644   4.757
29143W        W88239  20.136   0.379   4.830
29144W        W88240  16.253  40.491  10.530
29145W        W88241  22.704  20.094   3.793
29146W        W88242  26.629   1.793  11.380
29147W        W88243  15.616  25.970  10.973
29148W        W88244  40.348   7.912  13.930
29149W        W88245  26.680  34.461  11.438
29150W        W88246  29.955   9.190  12.423
29151W        W88247  42.361  40.424  14.488
29152W        W88248  14.691   9.785   4.833
29153W        W88249  12.188  28.669   9.621
29154W        W88250  22.188  21.566  14.497
29155W        W88251  11.680  36.941  10.433
29156W        W88252  14.589  39.914  10.418
29157W        W88253  14.308   2.260  12.003
29158W        W88254  31.566  37.412   4.657
29159W        W88255  31.611  34.462   2.672
29160W        W88256  41.299  42.990   4.606
29161W        W88257  19.599  32.083  14.315
29162W        W88258  19.230   2.814   2.753
29163W        W88259  12.820  29.553   2.698
29164W        W88260   5.914  13.775   0.887
29165W        W88261  14.744   6.244   0.447
29166W        W88262  15.169  16.126   1.847
29167W        W88263  26.979  32.436   2.822
29168W        W88264  23.158  29.491   1.288
29169W        W88265  31.426   8.235   2.347
29170W        W88266  29.074  39.997   0.787
29171W        W88267  23.735   7.287  12.017
29172W        W88268  43.882  14.272   0.474
29173W        W88269  25.152  41.934  12.372
29174W        W88270  34.453   1.755   2.269
29175W        W88271  20.073  41.796  13.505
29176W        W88272  11.350   9.800   4.704
29177W        W88273  28.623   4.854  14.288
29178W        W88274   2.346  10.675   0.783
29179W        W88275   4.389  44.367  14.866
29180W        W88276  16.640  27.548   4.184
29181W        W88277   6.394  37.460  11.044
29182W        W88278   3.323  26.584   3.212
29183W        W88279  10.331  20.036   0.438
29184W        W88280   5.415  37.482   1.387
29185W        W88281  27.154   6.741  14.444
29186W        W88282  22.247   0.830  11.052
29187W        W88283  22.113  12.127   2.306
29188W        W88284  42.304  16.589   1.891
29189W        W88285   6.302  38.385  12.945
29190W        W88286   7.271   5.412   2.680
29191W        W88287  12.132  14.128  11.433
29192W        W88288  16.256  10.384  14.856
29193W        W88289  10.346  36.514  14.916
29194W        W88290  30.012  30.420   3.165
29195W        W88291  10.790  39.500  12.510
29196W        W88292   5.314  36.096   2.242
29197W        W88293   8.667  30.536  13.330
29198W        W88294  27.448  22.106   2.346
29199W        W88295   7.298  11.234   1.249
29200W        W88296   2.246  40.329   0.302
29201W        W88297   2.944   8.722   3.809
29202W        W88298   0.441   7.797   2.253
29203W        W88299   5.374  29.983   1.840
29204W        W88300  20.165  10.742   3.810
29205W        W88301  18.555   8.754   5.782
29206W        W88302   9.278  41.830   3.233
29207W        W88303  43.994  10.800  13.027
29208W        W88304   9.368  29.437   1.374
29209W        W88305  10.877  28.163  10.912
29210W        W88306  37.024  23.728   4.194
29211W        W88307  32.448  21.079   0.845
29212W        W88308  23.565  31.909  11.921
29213W        W88309  38.034   1.952   3.761
29214W        W88310   6.345  14.226   1.226
29215W        W88311  37.361  13.294   1.427
29216W        W88312  22.039   8.830  13.476
29217W        W88313  12.797  37.882   0.323
29218W        W88314  39.385  21.649  14.513
29219W        W88315  16.084  21.261  12.456
29220W        W88316  37.908  30.983  13.983
29221W        W88317  41.437   0.302   1.852
29222W        W88318  20.230  27.027  12.933
29223W        W88319  37.931  24.986  11.606
29224W        W88320  38.049   6.233   2.848
29225W        W88321   3.459  40.343  14.861
29226W        W88322  15.814  21.605  12.369
29227W        W88323  22.622   8.680   2.848
29228W        W88324  14.801  26.041   0.413
29229W        W88325  31.496  33.508   1.408
29230W        W88326  29.531   9.789  12.889
29231W        W88327  18.061  10.766  11.431
29232W        W88328  42.377  27.543  10.414
29233W        W88329  29.488  15.175  11.115
29234W        W88330  36.038  24.135  10.589
29235W        W88331  25.041   0.819   1.872
29236W        W88332   6.393  43.366  12.477
29237W        W88333  25.081   8.900  14.873
29238W        W88334   5.928  15.811   3.216
29239W        W88335  23.732  19.233   3.716
29240W        W88336  17.148  42.389  14.313
29241W        W88337  30.111  13.782   2.830
29242W        W88338  41.974  36.947   1.262
29243W        W88339   7.902   7.226   4.213
29244W        W88340  22.599  20.094  11.995
29245W        W88341  10.760   1.870  12.000
29246W        W88342  44.393   1.479  12.383
29247W        W88343  13.740   3.316  12.434
29248W        W88344  29.157   1.926  14.912
29249W        W88345  23.125  33.990   4.665
29250W        W88346  34.501   3.453   0.354
29251W        W88347  39.013  39.908   1.259
29252W        W88348  34.106  19.571   3.214
29253W        W88349   6.419  16.798  13.945
29254W        W88350   5.232  14.693   1.407
29255W        W88351  43.850  39.923   1.399
29256W        W88352  30.918  30.554  11.966
29257W        W88353  39.862  23.205   1.419
29258W        W88354  29.515  41.453  10.977
29259W        W88355  30.931  13.350   1.748
29260W        W88356  31.919  20.100  13.544
29261W        W88357  34.609  18.180   2.264
29262W        W88358  16.109  33.457   3.648
29263W        W88359   5.757  23.516   1.833
29264W        W88360  10.148  34.109  10.900
29265W        W88361   8.207  21.060  11.432
29266W        W88362   4.287  32.118   9.955
29267W        W88363  40.879  15.602   2.223
29268W        W88364  35.921  22.157   1.286
29269W        W88365  34.919  32.136  11.484
29270W        W88366  22.031  29.113   3.212
29271W        W88367  16.238   1.369  12.365
29272W        W88368  22.205  31.066  13.813
29273W        W88369  14.623   1.885  14.800
29274W        W88370  40.311   3.814   4.221
29275W        W88371  18.675  40.418  12.473
29276W        W88372  43.883  18.636   4.754
29277W        W88373   4.918  25.584  14.940
29278W        W88374  32.957  13.324   2.699
29279W        W88375  44.910  37.069  12.018
29280W        W88376  31.069   4.257   1.906
29281W        W88377  12.688  38.498  11.514
29282W        W88378   7.737  11.655  11.525
29283W        W88379  43.811   3.363   0.794
29284W        W88380   6.712  23.030   0.869
29285W        W88381  32.979  34.427   4.311
29286W        W88382  14.677  37.479   2.201
29287W        W88383  44.942  36.417  13.541
29288W        W88384  19.700  17.693  10.571
29289W        W88385  31.117  11.801   0.425
29290W        W88386  15.201  27.655  14.512
29291W        W88387  10.298  27.496   4.259
29292W        W88388  23.110  41.417  14.933
29293W        W88389   6.286  10.250  10.617
29294W        W88390   9.882  29.982   3.692
29295W        W88391  14.322  39.388  14.870
29296W        W88392  13.290  18.266  13.448
29297W        W88393  40.968   0.301  11.597
29298W        W88394  29.939  21.536   0.826
29299W        W88395  15.297  34.477  11.019
29300W        W88396  16.658  26.137   4.164
29301W        W88397  41.975   0.749  14.851
29302W        W88398  37.971   2.766  14.973
29303W        W88399  37.907   3.407  11.087
29304W        W88400   6.691   0.782  12.080
29305W        W88401  25.697  26.601   2.833
29306W        W88402  37.543  27.052  12.388
29307W        W88403  30.153   8.848   1.772
29308W        W88404  21.040  30.460  10.979
29309W        W88405   4.249  24.013   2.193
29310W        W88406  34.586   2.925   1.417
29311W        W88407  34.972  21.232   1.881
29312W        W88408   2.243  17.705   0.905
29313W        W88409  24.063  15.635  11.580
29314W        W88410  11.855  15.666   1.393
29315W        W88411  17.665  24.642   1.775
29316W        W88412   4.819  19.052  14.902
29317W        W88413  27.526  30.639   2.409
29318W        W88414   9.797  37.058   3.297
29319W        W88415  33.074  24.974   2.372
29320W        W88416  31.582  44.305   3.741
29321W        W88417   3.866  13.712  14.900
29322W        W88418  10.856  17.272   1.288
29323W        W88419  36.492  30.653  12.061
29324W        W88420  38.049  34.921   2.274
29325W        W88421  32.625  30.651  14.436
29326W        W88422  36.871  14.801   0.772
29327W        W88423  36.548  29.493   1.700
29328W        W88424  39.035  41.965   0.350
29329W        W88425  33.482  14.322   4.745
29330W        W88426  33.601  10.144  11.604
29331W        W88427  39.429  30.463  14.883
29332W        W88428  20.167  18.594  13.963
29333W        W88429  40.825  44.431   3.650
29334W        W88430  18.737  12.281   1.234
29335W        W88431  15.092  23.584   1.869
29336W        W88432  19.725  18.165   4.709
29337W        W88433  16.195  19.098  14.515
29338W        W88434  18.247  29.956   0.410
29339W        W88435   2.248  11.645   0.740
29340W        W88436  44.970   2.887  14.443
29341W        W88437  29.482  44.912   0.349
29342W        W88438  35.029   5.322  14.310
29343W        W88439  19.605   0.921  13.826
29344W        W88440  13.233  33.948  10.407
29345W        W88441  44.495   2.781  12.018
29346W        W88442  13.661   1.898  10.603
29347W        W88443  29.431   1.453  12.062
29348W        W88444  17.658  35.389   9.986
29349W        W88445   6.201  19.544   4.837
29350W        W88446  15.289  10.381   1.307
29351W        W88447   7.856   2.316   3.266
29352W        W88448  31.433  37.540   0.427
29353W        W88449   8.836  41.325  13.451
29354W        W88450  40.828   0.970  14.297
29355W        W88451   6.268   3.720  13.887
29356W        W88452  43.840  24.659   1.878
29357W        W88453  16.789   2.956   4.328
29358W        W88454  31.413   0.254  14.921
29359W        W88455  36.505  29.535  13.525
29360W        W88456  44.835  34.868   2.875
29361W        W88457  11.656  39.427  13.420
29362W        W88458  32.520  13.338  14.032
29363W        W88459  30.146  43.873  11.378
29364W        W88460  32.989  26.628   1.302
29365W        W88461  10.660  40.323   4.164
29366W        W88462  29.949  21.747  11.081
29367W        W88463  21.221  12.316   3.318
29368W        W88464  37.421  35.411  11.394
29369W        W88465  29.622  44.942  11.412
29370W        W88466  37.860  34.402   1.417
29371W        W88467  27.479  11.729   1.935
29372W        W88468  15.792  23.015  13.038
29373W        W88469  31.144  20.246  10.587
29374W        W88470  22.621  12.161  12.483
29375W        W88471  35.862   1.846  10.900
29376W        W88472  33.480  29.567  12.432
29377W        W88473  32.007  26.098   4.169
29378W        W88474   1.945  36.853   0.341
29379W        W88475  26.166  38.025  12.514
29380W        W88476  33.913  16.271  13.382
29381W        W88477  17.200  41.941   4.619
29382W        W88478  37.852  20.209  13.453
29383W        W88479  29.637  21.722   3.686
29384W        W88480   2.457   2.833  10.905
29385W        W88481  30.085  23.732   5.791
29386W        W88482   4.731   8.247   4.295
29387W        W88483  28.621   8.772   3.238
29388W        W88484  13.777  39.936  12.840
29389W        W88485  35.531   6.321   0.792
29390W        W88486  11.826  43.862   4.122
29391W        W88487  43.448  12.198   3.742
29392W        W88488   8.841  29.969   3.791
29393W        W88489  12.160  39.471   3.636
29394W        W88490  29.041  43.460  12.930
29395W        W88491   9.394  36.371   0.766
29396W        W88492  29.510  18.080   4.287
29397W        W88493  43.470   5.700   2.260
29398W        W88494  22.187  21.121   4.618
29399W        W88495  29.593  17.176   2.407
29400W        W88496  21.056   8.261  14.833
29401W        W88497  25.543  33.519  13.423
29402W        W88498  23.110  16.658   1.420
29403W        W88499  28.069  17.119  14.789
29404W        W88500  44.499  15.650   3.701
29405W        W88501   4.816   0.475   3.753
29406W        W88502  36.083  41.998   1.772
29407W        W88503  20.055  20.731  12.527
29408W        W88504  27.678   4.792  11.979
29409W        W88505  34.986  30.552  10.557
29410W        W88506  12.151  21.130  13.348
29411W        W88507  40.313  31.440   3.364
29412W        W88508  34.097   3.951  14.788
29413W        W88509  32.513  40.369  13.836
29414W        W88510  10.214  28.581  10.480
29415W        W88511  34.581  27.082   1.777
29416W        W88512  26.158   6.889   4.149
29417W        W88513  34.873   3.433   3.808
29418W        W88514  12.118  42.459   3.846
29419W        W88515  35.383  35.104   3.183
29420W        W88516   0.746  31.134   0.789
29421W        W88517  40.981  36.069   4.286
29422W        W88518  28.603  38.911  12.989
29423W        W88519   4.257  11.734   4.624
29424W        W88520  12.180   8.308  14.764
29425W        W88521   9.865  14.825  11.478
29426W        W88522  43.782  36.867   4.621
29427W        W88523   2.328  17.669  13.483
29428W        W88524  21.233   6.346   1.730
29429W        W88525  18.777   1.882  12.486
29430W        W88526  27.103  23.513   1.336
29431W        W88527  42.016  30.530  10.555
29432W        W88528  36.082  29.954   4.683
29433W        W88529  28.142  29.606  12.561
29434W        W88530  24.142  12.255   0.343
29435W        W88531  26.672  37.021  10.496
29436W        W88532  20.254  36.361   2.371
29437W        W88533  21.179   2.353  11.583
29438W        W88534  19.064  40.518   4.299
29439W        W88535  24.494   2.281  14.430
29440W        W88536  11.725  34.104   3.635
29441W        W88537  10.762  12.164  12.047
29442W        W88538  27.621   9.726  11.602
29443W        W88539  30.070   3.868   1.792
29444W        W88540  26.167  16.687   9.647
29445W        W88541  23.612  29.628   3.316
29446W        W88542  13.258  37.941   3.301
29447W        W88543  40.314  25.158   4.338
29448W        W88544  30.115  28.984  12.827
29449W        W88545   8.893  10.300  14.837
29450W        W88546  19.243   5.207  12.567
29451W        W88547  32.002   5.343  13.329
29452W        W88548  19.105   3.774  14.827
29453W        W88549  17.287  41.041   4.760
29454W        W88550  22.603  18.295  11.439
29455W        W88551  16.674  14.596  14.840
29456W        W88552  33.515  43.767   2.284
29457W        W88553  37.017  25.136  10.087
29458W        W88554  10.254  41.321   0.264
29459W        W88555  11.691  31.972  11.528
29460W        W88556  39.951   2.740  13.843
29461W        W88557  44.372   2.413  12.883
29462W        W88558  28.167   3.439   4.177
29463W        W88559   5.320  22.656   1.821
29464W        W88560  30.510   7.836   2.765
29465W        W88561  19.653   2.787  12.035
29466W        W88562  30.148  40.497   1.448
29467W        W88563  14.167  12.663   2.816
29468W        W88564  33.469   8.260   4.328
29469W        W88565  37.534  43.794  13.461
29470W        W88566  41.479  33.425  11.074
29471W        W88567   2.839  21.516   3.340
29472W        W88568  29.487   1.807  13.309
29473W        W88569  13.806  42.422  11.092
29474W        W88570  21.666   2.295   0.872
29475W        W88571   1.923  18.204  12.011
29476W        W88572  25.998  24.089   2.376
29477W        W88573  16.301  34.041   0.440
29478W        W88574   4.273  21.240   2.835
29479W        W88575   2.854  41.794  11.587
29480W        W88576  17.597   2.415   4.681
29481W        W88577  14.266  40.322  14.834
29482W        W88578  27.530  19.683  11.929
29483W        W88579   2.370  44.294   3.685
29484W        W88580  30.432   4.717  10.917
29485W        W88581  15.636  20.163  14.000
29486W        W88582  17.206   4.918   2.336
29487W        W88583   8.754  17.199  11.882
29488W        W88584  16.203   0.354  11.062
29489W        W88585  26.064  10.721   0.850
29490W        W88586   5.433   0.384   3.247
29491W        W88587  31.464   7.293  10.635
29492W        W88588  27.458  33.031   1.806
29493W        W88589  16.752  12.262   2.742
29494W        W88590  37.517  10.269  14.820
29495W        W88591  43.423  24.196   4.658
29496W        W88592  25.601  12.839   9.949
29497W        W88593  20.714  35.963   0.801
29498W        W88594  13.833  19.180   0.420
29499W        W88595  41.536  44.830   0.289
29500W        W88596  21.218   9.685   2.823
29501W        W88597   5.765  33.087   2.375
29502W        W88598  42.825  16.744   2.323
29503W        W88599  15.722  18.634  13.482
29504W        W88600  28.567  31.089  13.449
29505W        W88601  40.819   5.427   0.259
29506W        W88602  27.052   5.763  14.008
29507W        W88603  10.785   0.303  14.318
29508W        W88604  31.130  42.310  14.322
29509W        W88605  41.454   9.210   4.804
29510W        W88606  30.087  40.049   0.454
29511W        W88607   2.396  28.677  11.568
29512W        W88608  24.201   3.365   1.432
29513W        W88609  23.728  39.009  14.365
29514W        W88610   2.265  23.613  12.956
29515W        W88611  42.934   8.654  14.306
29516W        W88612  41.811  41.943   0.349
29517W        W88613   6.354  10.853  10.923
29518W        W88614   4.281  11.337  10.930
29519W        W88615  30.550  33.492  14.802
29520W        W88616   3.879  28.022  13.867
29521W        W88617   2.357  34.889   0.402
29522W        W88618  18.284  20.541  11.534
29523W        W88619  11.701  15.663  12.535
29524W        W88620   9.723  42.013   2.361
29525W        W88621   4.255  35.481  13.523
29526W        W88622  27.486  21.151   2.677
29527W        W88623   1.971   0.407  11.051
29528W        W88624  14.310  36.885   1.281
29529W        W88625  18.752   5.691   4.241
29530W        W88626  24.587  25.049  14.405
29531W        W88627  14.273  38.872   0.423
29532W        W88628  10.658  22.057   1.731
29533W        W88629  21.593  20.743  10.527
29534W        W88630   4.207  14.730   3.792
29535W        W88631  26.694  11.365   1.442
29536W        W88632   2.869   5.902  12.476
29537W        W88633   7.876  32.972  10.582
29538W        W88634  39.407  43.998   3.228
29539W        W88635  10.835   2.943   0.939
29540W        W88636  44.011   0.773  10.609
29541W        W88637  14.168  44.326   4.261
29542W        W88638  14.823  22.237   1.755
29543W        W88639   8.192  33.443  12.014
29544W        W88640  39.459  18.272   0.830
29545W        W88641  29.061   4.829  12.973
29546W        W88642  38.966  30.641   1.714
29547W        W88643  24.200   0.954   1.286
29548W        W88644  41.861  10.868  11.015
29549W        W88645  24.114  16.614   3.850
29550W        W88646  41.980  11.209   1.778
29551W        W88647  20.545   3.753   1.916
29552W        W88648  17.562   7.293  13.501
29553W        W88649   3.257  13.683   1.879
29554W        W88650   1.481  33.453  11.978
29555W        W88651  44.439  13.105   2.216
29556W        W88652  17.256   7.390   1.771
29557W        W88653  25.645  40.862   4.698
29558W        W88654   9.157   0.746  14.845
29559W        W88655  33.097  22.236   0.278
29560W        W88656  38.432   4.705  13.797
29561W        W88657  44.897  17.726   3.840
29562W        W88658  30.481  27.194  11.009
29563W        W88659   0.459  35.538  13.496
29564W        W88660  10.666   3.354  14.494
29565W        W88661  39.896  34.609   4.800
29566W        W88662  37.950  33.444   1.285
29567W        W88663   8.820  30.462  10.510
29568W        W88664  44.478   7.776  12.971
29569W        W88665  27.460   7.670  10.593
29570W        W88666  26.531  33.568  12.365
29571W        W88667   0.842  11.327  13.813
29572W        W88668  36.571   8.364  14.516
29573W        W88669   0.347   1.746  12.824
29574W        W88670  20.131  17.770  12.860
29575W        W88671  22.096  30.933   1.403
29576W        W88672  24.103  11.277   0.776
29577W        W88673  25.171  26.975   0.465
29578W        W88674  10.152  38.498   4.598
29579W        W88675  10.252  22.704   4.233
29580W        W88676  17.235  42.928  12.418
29581W        W88677  27.989  30.153   0.310
29582W        W88678  27.516  24.707  14.445
29583W        W88679  38.044   2.442  11.996
29584W        W88680  38.880  44.347   3.233
29585W        W88681  32.047  26.609  14.488
29586W        W88682  14.645   4.252   1.919
29587W        W88683  16.603  14.273   3.770
29588W        W88684  25.150  18.265   3.157
29589W        W88685   7.369  44.786   2.843
29590W        W88686  42.449  14.818   4.242
29591W        W88687  12.787   8.762   5.103
29592W        W88688  25.053  23.035   1.290
29593W        W88689  44.789   9.381  14.498
29594W        W88690  41.516   6.422   0.427
29595W        W88691  19.177  29.530  13.338
29596W        W88692  40.875  19.156   0.814
29597W        W88693  15.722  29.566  12.503
29598W        W88694  14.236  28.545  13.818
29599W        W88695   7.184   4.206  11.056
29600W        W88696  10.848  23.107   0.381
29601W        W88697   4.898  34.117   0.908
29602W        W88698  19.672  19.639   2.272
29603W        W88699  24.210  17.758  11.432
29604W        W88700  10.319  29.030  10.498
29605W        W88701  17.262  10.800  14.504
29606W        W88702  32.975   2.888  11.075
29607W        W88703   1.897  39.870  14.308
29608W        W88704  42.974  27.070  11.020
29609W        W88705  23.695  20.556   4.747
29610W        W88706  43.975  23.585  11.418
29611W        W88707  35.066  42.382   0.479
29612W        W88708  19.088  41.368   3.714
29613W        W88709  30.061  22.604   0.933
29614W        W88710   8.890   6.329   4.114
29615W        W88711  17.186  18.706   2.783
29616W        W88712   0.980  22.740   2.787
29617W        W88713  16.585  33.451   2.857
29618W        W88714  22.699  24.078   3.291
29619W        W88715   1.828  17.175  13.372
29620W        W88716  27.493   7.687  14.424
29621W        W88717  22.094  31.503   4.126
29622W        W88718   3.353  11.153  10.916
29623W        W88719  11.832  13.162   2.836
29624W        W88720  26.594  35.415   0.860
29625W        W88721   2.814  41.909  10.462
29626W        W88722  40.497   8.206  13.054
29627W        W88723   8.325  21.680  11.866
29628W        W88724  36.886  14.626  11.576
29629W        W88725  40.498   9.738   5.192
29630W        W88726  14.714  25.622   0.322
29631W        W88727  29.629   6.911   3.741
29632W        W88728  39.526  18.617  13.363
29633W        W88729  30.432   6.216  13.413
29634W        W88730   5.926  30.543  10.517
29635W        W88731  21.141   9.746   3.231
29636W        W88732  30.561  37.861  10.159
29637W        W88733   7.828  35.107   0.805
29638W        W88734  16.258  10.146   0.327
29639W        W88735  41.865  38.335   0.842
29640W        W88736  32.038  28.470  13.311
29641W        W88737  11.752  20.525  11.477
29642W        W88738  30.908  37.947  10.139
29643W        W88739  10.152   4.895  10.126
29644W        W88740  21.098   4.833   3.286
29645W        W88741  38.356  42.472   1.796
29646W        W88742  42.780  35.017  11.888
29647W        W88743   7.330  17.159  11.959
29648W        W88744  36.966  23.161   4.260
29649W        W88745  21.565  23.551  13.918
29650W        W88746  31.585   9.647   4.608
29651W        W88747   2.925  17.073  14.811
29652W        W88748  40.797  26.141  13.918
29653W        W88749   1.875  27.071  11.450
29654W        W88750  31.415  36.402   4.155
29655W        W88751  32.995   3.881   3.342
29656W        W88752  42.284  16.633  13.517
29657W        W88753  13.345  34.874   4.278
29658W        W88754  12.797  36.380  11.869
29659W        W88755  40.529  25.120   1.265
29660W        W88756   1.380  10.237   2.219
29661W        W88757  43.010  28.509  13.017
29662W        W88758  32.935  25.506   2.414
29663W        W88759  34.412  33.431   4.351
29664W        W88760  40.054  26.544  13.833
29665W        W88761  41.897  35.859  12.505
29666W        W88762   7.408  17.083   1.783
29667W        W88763  39.929  29.451   4.679
29668W        W88764  20.213  33.952   4.779
29669W        W88765   7.683   5.934  14.825
29670W        W88766  44.830  31.968   1.877
29671W        W88767  26.173  39.948  12.823
29672W        W88768  41.292  22.502  10.923
29673W        W88769  32.630  25.085   1.868
29674W        W88770  18.081   7.397   2.187
29675W        W88771   7.294  33.916   0.906
29676W        W88772  23.492  25.679  11.376
29677W        W88773  33.416  24.589  10.511
29678W        W88774   5.364  23.075   9.457
29679W        W88775   9.301  35.108   0.832
29680W        W88776   6.377  31.961   4.664
29681W        W88777   0.751  17.714   1.761
29682W        W88778  35.503  35.053  10.901
29683W        W88779  21.028  31.602  11.080
29684W        W88780   1.929  28.939  14.438
29685W        W88781  34.473   5.739   4.226
29686W        W88782  16.256  44.446  10.142
29687W        W88783  12.627  24.493  13.449
29688W        W88784   7.700   1.942   0.902
29689W        W88785   8.178  25.149  14.461
29690W        W88786  44.966  39.421   0.932
29691W        W88787  27.568   6.918  11.382
29692W        W88788   2.395  35.057   2.381
29693W        W88789  40.808  11.801  14.805
29694W        W88790  38.417  41.415  14.893
29695W        W88791  43.013   3.380  14.290
29696W        W88792  44.963   8.785  13.542
29697W        W88793  37.359  30.464  10.939
29698W        W88794  32.100  38.065  11.404
29699W        W88795  11.743  23.040   3.798
29700W        W88796  42.486  29.945  11.566
29701W        W88797  44.905  25.696   2.254
29702W        W88798  19.049  42.820   2.774
29703W        W88799  12.727  14.665  12.052
29704W        W88800   3.238  37.876   2.387
29705W        W88801  36.544  27.622   1.802
29706W        W88802   2.465   4.829   3.668
29707W        W88803  40.901   5.830   4.218
29708W        W88804  35.859   2.373  12.571
29709W        W88805  26.165   9.217   1.240
29710W        W88806  41.423   4.791  10.064
29711W        W88807  15.219  14.096   3.282
29712W        W88808  10.633  10.787   0.744
29713W        W88809  37.931  42.931   4.231
29714W        W88810  35.458  21.254  12.514
29715W        W88811   4.793  41.356   2.671
29716W        W88812  16.162  34.543  14.924
29717W        W88813  20.715  20.720   4.326
29718W        W88814  23.587  44.442  11.558
29719W        W88815  41.445  43.812  11.450
29720W        W88816  23.993  33.999   0.939
29721W        W88817  37.991  11.274  12.576
29722W        W88818  31.611  38.821   1.390
29723W        W88819  20.759  26.208   2.199
29724W        W88820   5.708  27.486   0.945
29725W        W88821  42.306  32.886   2.780
29726W        W88822  18.263  23.200  10.971
29727W        W88823  42.885  21.747  12.984
29728W        W88824  29.557  32.018   0.284
29729W        W88825   8.342   1.416   1.396
29730W        W88826   7.762   8.692   4.227
29731W        W88827   7.737  20.761  14.014
29732W        W88828  10.277   6.293   4.141
29733W        W88829  35.007  25.196   3.767
29734W        W88830  18.787  44.877   3.838
29735W        W88831  22.576  42.944  13.826
29736W        W88832  39.843  12.239  14.356
29737W        W88833  44.820  42.912  12.402
29738W        W88834   3.750  25.218   1.804
29739W        W88835  17.210   6.734   1.310
29740W        W88836  42.886  31.407  14.840
29741W        W88837  18.162   5.900  12.445
29742W        W88838  11.340  36.528   1.794
29743W        W88839  36.421  24.523   2.332
29744W        W88840  31.064   0.757   3.856
29745W        W88841   1.947  15.778   4.791
29746W        W88842  28.492  23.101   1.437
29747W        W88843  40.915  35.386   1.878
29748W        W88844  24.107  32.096   4.814
29749W        W88845   2.258  18.240  11.989
29750W        W88846  29.975   9.740   1.225
29751W        W88847  32.932  18.185  13.928
29752W        W88848   0.798  31.614  13.473
29753W        W88849  10.754  38.373   2.400
29754W        W88850  42.371   7.842  12.842
29755W        W88851   2.814  40.482   1.702
29756W        W88852  23.692  27.627  14.889
29757W        W88853   2.793  24.682   0.818
29758W        W88854  22.634  30.951   0.328
29759W        W88855  24.672  25.649  14.948
29760W        W88856  15.710  39.495  14.409
29761W        W88857   5.865  37.404   2.340
29762W        W88858  33.970  17.120   3.708
29763W        W88859  26.666  38.034  11.879
29764W        W88860  32.904  27.176  11.921
29765W        W88861  44.912  38.046   4.230
29766W        W88862   8.872  16.206  12.908
29767W        W88863  25.706   6.739   1.299
29768W        W88864  25.618  38.936  11.087
29769W        W88865   1.977   2.404   1.750
29770W        W88866  27.045  25.665   0.796
29771W        W88867  43.840  31.584  12.392
29772W        W88868   3.914  18.225   1.308
29773W        W88869  40.519  22.738  10.428
29774W        W88870  34.108  22.568   2.222
29775W        W88871   1.871  23.112   1.739
29776W        W88872  14.273  40.474  12.841
29777W        W88873  40.999  43.022   0.277
29778W        W88874  27.483  27.660  12.577
29779W        W88875  35.061  17.146  13.488
29780W        W88876  23.734  42.872  14.479
29781W        W88877  36.428  17.183  10.906
29782W        W88878  31.446  12.704  10.641
29783W        W88879  28.624   5.926  14.320
29784W        W88880  24.528  24.137  14.384
29785W        W88881  44.467  18.776  10.130
29786W        W88882  14.203  31.991   4.633
29787W        W88883  29.963  21.197   3.324
29788W        W88884   9.715  13.841  11.026
29789W        W88885  16.748  25.637  11.392
29790W        W88886  23.118  40.036  11.513
29791W        W88887  44.854  21.648  14.794
29792W        W88888  16.574  35.602   4.257
29793W        W88889  33.899   4.851   2.279
29794W        W88890   7.837  15.220   2.270
29795W        W88891  11.320  11.723  10.625
29796W        W88892  27.010  43.797  13.503
29797W        W88893  11.341  15.106  12.402
29798W        W88894   6.231  16.696  12.963
29799W        W88895  29.509  18.248   3.345
29800W        W88896  10.757  35.579  14.394
29801W        W88897   6.417   3.720  12.894
29802W        W88898  21.184  14.191  13.911
29803W        W88899  41.397  24.000  11.920
29804W        W88900  36.411  37.456   0.248
29805W        W88901  29.468   9.774   0.258
29806W        W88902  17.568  17.732   3.794
29807W        W88903  30.045  30.914  10.404
29808W        W88904  31.581  40.834   1.220
29809W        W88905   0.916  13.221  12.902
29810W        W88906   6.266  38.337  14.410
29811W        W88907  11.723  39.415   1.417
29812W        W88908   9.854  14.689   3.813
29813W        W88909  25.962   3.336  11.020
29814W        W88910  31.556  16.670  12.984
29815W        W88911  15.286  40.049  11.374
29816W        W88912  10.174  11.723  14.014
29817W        W88913   7.303  28.102  10.418
29818W        W88914  36.905   6.793   1.698
29819W        W88915  21.627  12.318   2.260
29820W        W88916  39.014  12.348   4.629
29821W        W88917  27.002  11.259  14.787
29822W        W88918  10.855  24.705  10.415
29823W        W88919  38.510   6.381   2.214
29824W        W88920  37.416  14.267   3.199
29825W        W88921  31.073  37.009   3.748
29826W        W88922  14.615  14.334  12.831
29827W        W88923  27.521   9.778  12.886
29828W        W88924  16.247  15.293  11.037
29829W        W88925   6.838   8.321   3.807
29830W        W88926  29.664  32.094  10.898
29831W        W88927  13.675  16.698   9.938
29832W        W88928  31.437  24.628   0.375
29833W        W88929  31.557  17.603  11.108
29834W        W88930  22.158  41.838  13.419
29835W        W88931  13.231  30.547  13.350
29836W        W88932   1.954  23.133  11.439
29837W        W88933  38.395   1.401   3.276
29838W        W88934  16.189  32.395   0.896
29839W        W88935  17.654   7.260   2.739
29840W        W88936   2.768  20.632  14.866
29841W        W88937  33.438   2.849   0.345
29842W        W88938  38.562  38.358  14.954
29843W        W88939  13.613  13.316   4.286
29844W        W88940  30.479   0.806   3.674
29845W        W88941  40.511  16.248   2.664
29846W        W88942  12.256  44.940   2.287
29847W        W88943  10.197  41.311   3.696
29848W        W88944   5.905   1.466   1.768
29849W        W88945  41.421  22.141   4.230
29850W        W88946   9.314  41.913  14.979
29851W        W88947  29.610   1.911  12.494
29852W        W88948  40.496  44.786   2.667
29853W        W88949  41.421  38.424  11.031
29854W        W88950  27.471   3.742  14.358
29855W        W88951  11.674  34.521   0.423
29856W        W88952  12.279   4.940  11.403
29857W        W88953  18.676   4.899  10.969
29858W        W88954  22.040  40.051   2.186
29859W        W88955  13.253   4.205  11.033
29860W        W88956  41.525  18.673  12.529
29861W        W88957  40.876   4.251  13.987
29862W        W88958  14.745  44.367   4.204
29863W        W88959  32.050   4.812   5.231
29864W        W88960  30.624  34.597   3.793
29865W        W88961  23.153  23.223  14.303
29866W        W88962   4.731  33.527  13.364
29867W        W88963  19.239  34.578  14.973
29868W        W88964  14.790  23.587   1.908
29869W        W88965   9.390   5.863   1.898
29870W        W88966  14.733  29.626  14.424
29871W        W88967  35.975  43.978   2.842
29872W        W88968   9.877  15.282  14.911
29873W        W88969  39.943  22.552   0.439
29874W        W88970  39.404  41.423  11.484
29875W        W88971  26.158  37.874   1.865
29876W        W88972  42.489  10.274  10.986
29877W        W88973  40.405  18.559  11.517
29878W        W88974  34.063  36.527  12.399
29879W        W88975  28.582  43.327  13.863
29880W        W88976   0.837  23.538   5.084
29881W        W88977  36.493  43.002  12.979
29882W        W88978  17.204  28.590   1.785
29883W        W88979  11.237  25.170   4.598
29884W        W88980  11.235  11.366   2.246
29885W        W88981  20.748  23.619  12.438
29886W        W88982  38.569  42.953   4.768
29887W        W88983  26.461  17.159  11.560
29888W        W88984  42.285  19.054   4.735
29889W        W88985  21.755  40.349   0.742
29890W        W88986   7.776  15.307  10.003
29891W        W88987  41.312  11.143   5.217
29892W        W88988  14.295  18.717  10.529
29893W        W88989  38.023  40.527   1.817
29894W        W88990  19.725   2.821   0.480
29895W        W88991  34.072  28.565  12.501
29896W        W88992  43.307   9.350  12.423
29897W        W88993   5.895  28.945  11.997
29898W        W88994  20.101  39.320  14.770
29899W        W88995   1.458  34.417   2.191
29900W        W88996   0.771  10.799   2.680
29901W        W88997   0.906   9.842  14.016
29902W        W88998  29.529  44.445  14.950
29903W        W88999  17.592  28.152   1.391
29904W        W89000   3.926  16.789   0.396
29905W        W89001  39.833   6.211   1.358
29906W        W89002  23.021   0.310  11.396
29907W        W89003  16.102  20.172   3.680
29908W        W89004  30.136  30.445   2.204
29909W        W89005  16.202  25.695   1.920
29910W        W89006  40.991  15.604  14.895
29911W        W89007  21.196  22.524  11.517
29912W        W89008  37.047  22.536   0.875
29913W        W89009   0.937  24.574  14.911
29914W        W89010   4.258  29.445  12.516
29915W        W89011   0.743  44.270  12.919
29916W        W89012  28.061  26.122   0.373
29917W        W89013  23.558  12.640  14.373
29918W        W89014   9.858  16.314   0.890
29919W        W89015  23.129  44.375   3.809
29920W        W89016  23.662  10.371  10.079
29921W        W89017  37.871  11.847  13.899
29922W        W89018  37.367  33.466   1.382
29923W        W89019   2.408  25.615   0.944
29924W        W89020  40.426  19.661   4.206
29925W        W89021  10.846  38.334  10.990
29926W        W89022  41.378   7.892   3.692
29927W        W89023  40.991  21.710  12.858
29928W        W89024  35.993   6.411  12.059
29929W        W89025  27.666  34.902  11.902
29930W        W89026  22.727   6.707  10.640
29931W        W89027  17.612  42.896  12.550
29932W        W89028  36.571  27.987  13.880
29933W        W89029   2.342  29.610  13.952
29934W        W89030  44.382   1.757   3.195
29935W        W89031  39.385  30.551  13.463
29936W        W89032  22.635  42.497   3.666
29937W        W89033  42.527  34.897   3.630
29938W        W89034   9.168  36.904   4.809
29939W        W89035  14.663  39.523  10.553
29940W        W89036  33.894  40.371  14.965
29941W        W89037  11.165   1.795   4.676
29942W        W89038   4.274  30.089  13.502
29943W        W89039  35.990  20.252   2.332
29944W        W89040   6.833  33.444   3.375
29945W        W89041  10.348  40.468   1.387
29946W        W89042  36.474  38.387   0.869
29947W        W89043  13.204  24.534  14.026
29948W        W89044   3.738  30.014   0.915
29949W        W89045  34.997  22.586  14.819
29950W        W89046  25.192   6.740  14.830
29951W        W89047  41.447  11.211   2.302
29952W        W89048  22.711  33.475   1.729
29953W        W89049  32.085  34.880  11.452
29954W        W89050  20.603  28.061  13.915
29955W        W89051   1.424  11.650   0.955
29956W        W89052   2.769  34.092  14.771
29957W        W89053  14.234  42.792   0.826
29958W        W89054   9.856  12.774   4.130
29959W        W89055  41.504  41.933  13.443
29960W        W89056  24.125  36.928  13.462
29961W        W89057   9.784  15.309   4.637
29962W        W89058  27.190  36.362   4.352
29963W        W89059  43.003   2.445   3.845
29964W        W89060  33.922  35.039  11.039
29965W        W89061  26.516  30.065  13.356
29966W        W89062  23.690   1.831   1.912
29967W        W89063  15.691  11.649  14.856
29968W        W89064  35.979  25.601   4.618
29969W        W89065  25.498  11.326   2.297
29970W        W89066  11.250  13.118   0.282
29971W        W89067  25.652  43.956   0.927
29972W        W89068  27.584  31.609   3.219
29973W        W89069  39.400  41.310  13.486
29974W        W89070  20.164  21.719  13.848
29975W        W89071  12.622  14.103   2.310
29976W        W89072  32.480   7.359  12.393
29977W        W89073  44.439   8.388   0.312
29978W        W89074  30.142  40.923  10.610
29979W        W89075  33.060  42.924  12.837
29980W        W89076  14.320  27.489   1.288
29981W        W89077  39.341   0.373  11.376
29982W        W89078   4.395  23.167  11.592
29983W        W89079  10.320  28.444  13.926
29984W        W89080  20.059  29.932  10.921
29985W        W89081   4.296  40.871  10.578
29986W        W89082  29.933  16.137   2.241
29987W        W89083  32.108   8.856  10.590
29988W        W89084   4.419  41.843   0.953
29989W        W89085   4.435  12.626   3.222
29990W        W89086   5.779   3.807   3.684
29991W        W89087  44.442  32.502   0.913
29992W        W89088  29.538  27.127  11.515
29993W        W89089  20.549   7.334  10.598
29994W        W89090  17.653  26.209  12.557
29995W        W89091  21.254   9.375  13.851
29996W        W89092  40.974  42.480   1.869
29997W        W89093  33.542  35.480   0.285
29998W        W89094  35.526  36.024   1.819
29999W        W89095  15.733  35.541  13.431
30000W        W89096  31.521   5.280  11.115
30001W        W89097  20.671  14.166   2.393
30002W        W89098  26.182   5.236  13.883
30003W        W89099  30.590   6.874   1.811
30004W        W89100   3.260  33.509   2.760
30005W        W89101  22.607  26.144   1.706
30006W        W89102  43.964   3.869  12.985
30007W        W89103   9.665  15.252   2.725
30008W        W89104  42.456  11.260  14.994
30009W        W89105  35.076   4.397  13.506
30010W        W89106  26.987  23.696  13.399
30011W        W89107  40.405   1.347   1.831
30012W        W89108  33.961  38.504  11.470
30013W        W89109  37.561  28.160  10.964
30014W        W89110  16.672  39.454  12.829
30015W        W89111  38.412  44.317  11.112
30016W        W89112  39.916  35.044  11.410
30017W        W89113  24.655   6.783  11.588
30018W        W89114  42.366  29.658   4.671
30019W        W89115  16.262  38.527  14.981
30020W        W89116  33.535   4.741  14.944
30021W        W89117  35.071  36.889   4.186
30022W        W89118   1.279  35.383  14.984
30023W        W89119  15.264  44.364  13.979
30024W        W89120  26.052  26.633   1.863
30025W        W89121  10.307   8.877  10.062
30026W        W89122   9.660  12.297   2.249
30027W        W89123  35.542   9.289   0.909
30028W        W89124   1.934  16.695   3.822
30029W        W89125  12.120  43.941  13.023
30030W        W89126  15.320  31.606  14.306
30031W        W89127  27.171   6.286   0.753
30032W        W89128  37.420  16.073   2.233
30033W        W89129  37.346   6.186  12.532
30034W        W89130   2.430  12.625   3.706
30035W        W89131  16.106  37.569   2.306
30036W        W89132  34.375  13.828  13.536
30037W        W89133  37.412  32.059  12.372
30038W        W89134  37.876  37.911   3.771
30039W        W89135   0.933  22.095   0.817
30040W        W89136   1.870   7.405   4.599
30041W        W89137  32.532  22.133  12.395
30042W        W89138  17.721   5.925   2.838
30043W        W89139  35.383  44.954  14.786
30044W        W89140  17.296  25.140   1.322
30045W        W89141  24.725  37.556   1.905
30046W        W89142   3.427  27.646  11.026
30047W        W89143  38.566  19.119   1.877
30048W        W89144  36.056   7.818   2.839
30049W        W89145  42.802  22.573   0.793
30050W        W89146  28.467   2.404   1.361
30051W        W89147  13.625   2.741  13.951
30052W        W89148  40.440  43.771   4.193
30053W        W89149  34.994  30.161  12.368
30054W        W89150  28.542  14.226  12.352
30055W        W89151  31.489   4.390   3.644
30056W        W89152  44.958   5.793   0.883
30057W        W89153  20.206  35.087  12.847
30058W        W89154  38.002   0.491   3.733
30059W        W89155  17.561   5.252  11.572
30060W        W89156  30.143  28.505  12.434
30061W        W89157   8.175  32.039  12.417
30062W        W89158  24.015  24.689   2.227
30063W        W89159  42.294  39.927  13.422
30064W        W89160  39.035  30.527   2.335
30065W        W89161  25.546   3.829  12.861
30066W        W89162  43.405   5.834  11.525
30067W        W89163   3.717  14.105   4.344
30068W        W89164  26.472  26.047  12.900
30069W        W89165  18.576  29.546   1.835
30070W        W89166  24.993  44.370  13.792
30071W        W89167  39.447  42.281  12.553
30072W        W89168  32.007  22.144   9.539
30073W        W89169  27.522   4.330   3.234
30074W        W89170  31.503   7.692   2.789
30075W        W89171  11.757  13.184  10.141
30076W        W89172   0.924  40.487   3.226
30077W        W89173  44.796  40.042  14.316
30078W        W89174  21.082  25.544  14.761
30079W        W89175  21.026   0.957   5.262
30080W        W89176  36.896  32.924  13.524
30081W        W89177  42.955  27.978   4.317
30082W        W89178  12.230  27.142  13.453
30083W        W89179   2.359  23.568  11.607
30084W        W89180  32.446  35.928   0.326
30085W        W89181  35.912  38.434  13.808
30086W        W89182  27.090  44.380   0.822
30087W        W89183  23.655  26.530  14.514
30088W        W89184   9.153  39.986   3.765
30089W        W89185  31.950  19.591  12.865
30090W        W89186  14.221   4.245  12.015
30091W        W89187  34.031  25.965   2.217
30092W        W89188  12.783  25.031  10.532
30093W        W89189  26.078   7.706   1.300
30094W        W89190  17.768  43.460  11.542
30095W        W89191   9.883   6.750  11.458
30096W        W89192  40.318  42.920  14.510
30097W        W89193  24.112  22.524   0.245
30098W        W89194  14.223  27.014  10.914
30099W        W89195  40.819  26.167   2.862
30100W        W89196  13.217  11.211   4.686
30101W        W89197  43.427  30.627   2.382
30102W        W89198  21.034  28.114  12.044
30103W        W89199  30.908   2.907  10.449
30104W        W89200   7.690   4.412  11.891
30105W        W89201  16.619  40.941   1.696
30106W        W89202  36.541  14.333   4.607
30107W        W89203   3.404  42.777  10.160
30108W        W89204  36.940   7.909  13.363
30109W        W89205  30.092  10.770  11.981
30110W        W89206   0.309  33.514  10.991
30111W        W89207  37.348  11.814   2.779
30112W        W89208   8.875  10.796  14.767
30113W        W89209   0.786  15.116   2.316
30114W        W89210  20.581  27.566   0.941
30115W        W89211  18.553  41.487  10.960
30116W        W89212  21.612  20.563   0.929
30117W        W89213   4.729   1.455  14.484
30118W        W89214   7.710  17.209  14.762
30119W        W89215   5.710   5.705   2.675
30120W        W89216  22.510  37.422  11.996
30121W        W89217  22.535  36.920  12.548
30122W        W89218  16.588  22.743   4.139
30123W        W89219  10.153  27.049  12.935
30124W        W89220  23.700  30.548  14.886
30125W        W89221   7.336  22.578   1.432
30126W        W89222  20.616  17.739   4.612
30127W        W89223  27.064  21.193   3.353
30128W        W89224  23.492  33.874   0.770
30129W        W89225  20.534  39.023   3.719
30130W        W89226  34.433  29.601   4.824
30131W        W89227  21.222  21.652  13.044
30132W        W89228  16.252  10.236   4.833
30133W        W89229  21.144  11.701   3.653
30134W        W89230   7.679  24.504   3.199
30135W        W89231  37.489  28.092  14.778
30136W        W89232  19.249  20.125   0.481
30137W        W89233  19.129  15.768   1.811
30138W        W89234  31.049   7.215  14.326
30139W        W89235   7.782  31.568   1.243
30140W        W89236  11.349  10.254   1.375
30141W        W89237  40.033  24.603   0.354
30142W        W89238   1.940  42.838  11.432
30143W        W89239   1.754  28.635  14.376
30144W        W89240  36.478  35.883  13.826
30145W        W89241   3.768  39.471   3.184
30146W        W89242  22.069  12.324  13.533
30147W        W89243  40.527  27.545   1.213
30148W        W89244  16.762  41.887   4.617
30149W        W89245  29.072  15.252  13.813
30150W        W89246  10.371  26.586  10.064
30151W        W89247  26.972   8.383   0.744
30152W        W89248  38.400  36.593  14.003
30153W        W89249  21.726  27.041  14.372
30154W        W89250  31.592  16.095  10.087
30155W        W89251   4.224  30.991  14.313
30156W        W89252  26.489  26.096   0.346
30157W        W89253  42.435  25.545  13.472
30158W        W89254  10.228  32.914   4.636
30159W        W89255  29.155  36.900  14.462
30160W        W89256  19.104  27.597   1.377
30161W        W89257  43.376  15.645   1.866
30162W        W89258  32.394  19.164  12.910
30163W        W89259  37.069  33.000  14.833
30164W        W89260  32.996  39.887  10.590
30165W        W89261  26.181  26.564  12.530
30166W        W89262  30.151  31.948   1.723
30167W        W89263  35.049  25.967  13.473
30168W        W89264  20.550  38.454  10.455
30169W        W89265  44.272   5.378   1.701
30170W        W89266   0.856   6.775  10.888
30171W        W89267  33.503   7.886  11.941
30172W        W89268  43.428  36.579  14.402
30173W        W89269   2.807  25.549  13.050
30174W        W89270  19.076  16.238  14.402
30175W        W89271  44.277  11.762  14.419
30176W        W89272  25.507  14.209   3.234
30177W        W89273  26.136   1.383  11.879
30178W        W89274  25.029  13.607   1.929
30179W        W89275   1.761  38.351   2.902
30180W        W89276  36.431  25.613  14.954
30181W        W89277  37.391  25.010   3.379
30182W        W89278  11.779  28.487   2.808
30183W        W89279  43.403  26.581  12.354
30184W        W89280  11.317  42.798   2.714
30185W        W89281  34.073  41.824  10.916
30186W        W89282  36.951  39.389  14.369
30187W        W89283  25.051  10.328   2.692
30188W        W89284   0.312  26.527   2.398
30189W        W89285  25.215   4.933  14.892
30190W        W89286   7.402  12.738  10.513
30191W        W89287  16.788  36.442   2.683
30192W        W89288   8.699  42.940  12.413
30193W        W89289   2.764  26.533   4.686
30194W        W89290  31.148  31.899  10.962
30195W        W89291  13.138  37.869   4.214
30196W        W89292  22.713  30.633   1.846
30197W        W89293  10.332  22.161   4.281
30198W        W89294  10.367   9.269   3.379
30199W        W89295  13.351  34.493  11.507
30200W        W89296  34.035   7.178  12.505
30201W        W89297  12.857   3.274   0.321
30202W        W89298  20.601  34.533   0.469
30203W        W89299  32.137   7.194   0.454
30204W        W89300  33.553  23.076  11.069
30205W        W89301  10.171  20.187  13.929
30206W        W89302  13.179   6.379   4.751
30207W        W89303  10.328  44.003   0.245
30208W        W89304  27.556   8.726  11.040
30209W        W89305   0.818   6.765   3.288
30210W        W89306  30.443  19.650   4.276
30211W        W89307  38.891  35.592  14.314
30212W        W89308  34.894   2.295   0.945
30213W        W89309   5.214  12.770   4.340
30214W        W89310  40.945   9.750  11.587
30215W        W89311   2.313  25.971  10.449
30216W        W89312  44.374   0.902   3.160
30217W        W89313  21.050  30.940   3.768
30218W        W89314   5.386   6.274   4.666
30219W        W89315  33.971  27.458  10.033
30220W        W89316   8.750  28.633   1.370
30221W        W89317  11.290  20.120  12.448
30222W        W89318  29.573  24.705  11.125
30223W        W89319  25.594   0.971   0.767
30224W        W89320  18.061   5.433  12.465
30225W        W89321  29.573  18.079   3.819
30226W        W89322  36.972  30.992  11.549
30227W        W89323  38.353  33.443   4.649
30228W        W89324  17.134  39.048  13.887
30229W        W89325  28.512  29.605  14.358
30230W        W89326  10.664  31.901  14.350
30231W        W89327  39.030   2.252  13.955
30232W        W89328  15.298  44.900   2.786
30233W        W89329  18.575  42.324  11.963
30234W        W89330  10.634  14.744  12.462
30235W        W89331   0.977  39.808  10.960
30236W        W89332   5.309  29.502   0.452
30237W        W89333  36.946  22.509   3.222
30238W        W89334  37.342  15.680  10.582
30239W        W89335  20.739   3.856  11.477
30240W        W89336  14.668  34.929  10.482
30241W        W89337  42.819  18.261  11.443
30242W        W89338  20.710  20.633   1.241
30243W        W89339  18.703  38.854   4.154
30244W        W89340  17.566  39.451  12.555
30245W        W89341  18.587  28.992  10.143
30246W        W89342  19.272   9.802  11.967
30247W        W89343  22.518  22.034  11.919
30248W        W89344  33.588   3.779  12.448
30249W        W89345  11.158  31.637   3.314
30250W        W89346  12.238  33.406   3.299
30251W        W89347   6.688  25.985  13.497
30252W        W89348  32.482  36.451   0.817
30253W        W89349  34.994  16.675  11.110
30254W        W89350  22.252  39.050   3.232
30255W        W89351   3.394  20.738   0.789
30256W        W89352  33.597   5.328   3.162
30257W        W89353  20.243  19.760   0.733
30258W        W89354  28.599   6.373  10.404
30259W        W89355  15.133  12.804   1.285
30260W        W89356  15.158  15.171   3.835
30261W        W89357  43.985  16.750   4.255
30262W        W89358  16.235  19.219  13.863
30263W        W89359   0.272   2.786  11.608
30264W        W89360  17.671   4.302   0.242
30265W        W89361  36.982  29.975   1.714
30266W        W89362  15.611  44.899  13.950
30267W        W89363   1.781   0.856   2.391
30268W        W89364  26.638  36.895   1.275
30269W        W89365  42.830  43.488   3.784
30270W        W89366  31.560  29.608   1.303
30271W        W89367  27.687  32.566  11.969
30272W        W89368   0.819   7.895   3.711
30273W        W89369  14.797   2.231  13.923
30274W        W89370  34.937  43.779  13.948
30275W        W89371  44.889   0.359   4.598
30276W        W89372  12.236   1.920   1.445
30277W        W89373  23.030   3.346   0.764
30278W        W89374  32.613   8.761   2.747
30279W        W89375  14.710   7.782  11.004
30280W        W89376  10.770  18.746  12.884
30281W        W89377  29.425  31.948   1.401
30282W        W89378   8.202  17.143  11.116
30283W        W89379  17.177   2.813  12.043
30284W        W89380  10.248   7.383   0.923
30285W        W89381  42.462   2.751   2.768
30286W        W89382  39.330   4.397   3.238
30287W        W89383  35.859  36.372   3.282
30288W        W89384  16.097  20.732  11.952
30289W        W89385  35.989   8.781  11.409
30290W        W89386  36.513  25.668  10.120
30291W        W89387  44.321  22.564  13.956
30292W        W89388  12.179   1.883   4.755
30293W        W89389   0.827  22.128  10.463
30294W        W89390  31.528   0.391  12.842
30295W        W89391  41.928  27.541  14.277
30296W        W89392  44.785  37.950   2.728
30297W        W89393  24.134   0.457   2.417
30298W        W89394   9.381  19.203   2.796
30299W        W89395   0.450  34.891  12.055
30300W        W89396   4.231  14.796   1.873
30301W        W89397   6.844  31.550  14.925
30302W        W89398  41.500   1.943   0.888
30303W        W89399   8.740  33.619   0.307
30304W        W89400   5.418  42.403  12.498
30305W        W89401  44.905  34.398  11.540
30306W        W89402  31.022  37.887   2.377
30307W        W89403  19.622  28.497   4.231
30308W        W89404  32.938  29.441   0.483
30309W        W89405  21.562  43.396  14.782
30310W        W89406   9.183  15.755  10.997
30311W        W89407  18.195  21.094   1.361
30312W        W89408  40.988   6.253  12.498
30313W        W89409  41.884  33.594  11.033
30314W        W89410   4.815  11.630   0.408
30315W        W89411   1.260  43.781  11.116
30316W        W89412  39.037  10.683  14.004
30317W        W89413  41.966  42.458   0.799
30318W        W89414  31.554  39.535   4.324
30319W        W89415  37.547  35.506   4.691
30320W        W89416  30.952   7.742  14.008
30321W        W89417  36.977   9.189   3.757
30322W        W89418  25.970   0.293   4.231
30323W        W89419   3.825  41.433  14.496
30324W        W89420  39.430  12.733  13.516
30325W        W89421  21.058   1.850  10.591
30326W        W89422   8.685  35.563  14.410
30327W        W89423   9.248  29.552   0.794
30328W        W89424  43.946   9.349  10.551
30329W        W89425   3.738  40.501  11.464
30330W        W89426  27.163  28.994  11.103
30331W        W89427   5.231  29.939   0.877
30332W        W89428   6.420   2.796  12.375
30333W        W89429  24.063  39.816   9.936
30334W        W89430  11.154  19.108  14.883
30335W        W89431  28.118  40.408   3.306
30336W        W89432  35.013  22.639   2.320
30337W        W89433  18.790  19.598  13.367
30338W        W89434   9.239  35.555   2.306
30339W        W89435  36.909  34.594   1.362
30340W        W89436  29.171  44.482  10.969
30341W        W89437  29.090  42.907  14.275
30342W        W89438  15.221  10.685   3.668
30343W        W89439  21.113  10.315   3.173
30344W        W89440  36.017  34.042  12.937
30345W        W89441  16.640  23.098  11.942
30346W        W89442  23.625   0.314  12.946
30347W        W89443  24.538   6.815   2.747
30348W        W89444  27.043  24.081   0.325
30349W        W89445  42.889   7.266  12.476
30350W        W89446  43.293  38.401   1.724
30351W        W89447  36.563   7.759   2.825
30352W        W89448  23.525   3.386   4.788
30353W        W89449  27.652   5.897   0.249
30354W        W89450   3.264  43.326  12.862
30355W        W89451  33.428  31.934   9.996
30356W        W89452  44.308  22.691  11.403
30357W        W89453   2.436  34.864  10.955
30358W        W89454   8.685  20.176  14.895
30359W        W89455  30.462  36.427  12.010
30360W        W89456  33.578  39.445   5.277
30361W        W89457  17.555   3.744  11.047
30362W        W89458  22.613   3.852  14.902
30363W        W89459   6.712  39.945  14.450
30364W        W89460  12.732   6.845  14.452
30365W        W89461  20.606  15.185   3.324
30366W        W89462  40.951  32.481  13.814
30367W        W89463  14.602  18.078   2.214
30368W        W89464  40.928   4.245  14.387
30369W        W89465  37.040   8.876  11.588
30370W        W89466  27.185  24.147  14.352
30371W        W89467  12.277  31.114   1.307
30372W        W89468  39.861  39.496   0.853
30373W        W89469  39.482   8.831   2.670
30374W        W89470  33.875  16.576   1.338
30375W        W89471  36.061   5.383  11.419
30376W        W89472  33.533  14.755  13.997
30377W        W89473  33.579   9.198  11.523
30378W        W89474  40.328  32.126  14.001
30379W        W89475   5.783  17.787  11.433
30380W        W89476   9.842  19.177  12.928
30381W        W89477   1.849   3.725   2.795
30382W        W89478  18.698   4.799   0.295
30383W        W89479  41.402  20.744  12.545
30384W        W89480  21.595   5.245  12.369
30385W        W89481  38.825  35.063   0.798
30386W        W89482   5.800  34.455   4.266
30387W        W89483  11.698  31.486  11.997
30388W        W89484  24.505  33.521   2.270
30389W        W89485   6.882  44.759  13.478
30390W        W89486  10.246   3.768   0.381
30391W        W89487  33.603  33.486   1.250
30392W        W89488  10.145   8.787   0.388
30393W        W89489   1.751   1.896  10.607
30394W        W89490  18.601  31.518   1.823
30395W        W89491   2.876  16.150  12.850
30396W        W89492  22.163  44.791   1.435
30397W        W89493  28.548  38.389   1.261
30398W        W89494   7.756  18.737  13.956
30399W        W89495  24.604  41.033   1.314
30400W        W89496  17.577  12.192   4.823
30401W        W89497  34.553  10.382   4.648
30402W        W89498  18.162  15.265  11.992
30403W        W89499  17.756  31.503   4.116
30404W        W89500  35.869  21.149  10.446
30405W        W89501   9.299  29.564  14.964
30406W        W89502  44.456  10.672   4.160
30407W        W89503   9.708  31.020   2.730
30408W        W89504  14.813   4.304   4.751
30409W        W89505  42.933   3.389   3.357
30410W        W89506  38.524   7.237   0.477
30411W        W89507   5.312  12.741   2.194
30412W        W89508  23.232  34.460   9.962
30413W        W89509  28.937  30.533   3.342
30414W        W89510  37.886  24.705  10.576
30415W        W89511   1.826  20.531  10.983
30416W        W89512   7.416  38.847   3.805
30417W        W89513  38.380  18.191   3.256
30418W        W89514   7.731  33.612   4.653
30419W        W89515  37.524  31.019   1.901
30420W        W89516   2.933  21.149   3.691
30421W        W89517  33.476   4.241   3.359
30422W        W89518   0.375  20.034  12.984
30423W        W89519  38.529  16.251  11.608
30424W        W89520  36.896   9.863  13.380
30425W        W89521   5.325  11.772   2.854
30426W        W89522  12.639  20.721  11.460
30427W        W89523  34.413  40.320   0.773
30428W        W89524   7.873  35.599  14.009
30429W        W89525  41.036  39.391   4.227
30430W        W89526   1.465  34.391  14.326
30431W        W89527  11.623  30.655  14.863
30432W        W89528  10.848  39.416  13.866
30433W        W89529  17.201  33.570   0.364
30434W        W89530   8.303  39.367   2.896
30435W        W89531  31.436  24.626  12.960
30436W        W89532   3.917  24.120  12.347
30437W        W89533   1.916  42.437  12.842
30438W        W89534  36.920  41.316  12.947
30439W        W89535   8.767  11.647   4.334
30440W        W89536   1.371  20.629  12.870
30441W        W89537   1.901  27.616  13.421
30442W        W89538   2.253  27.147   3.700
30443W        W89539  15.296   3.881  12.477
30444W        W89540  30.487   1.897   1.908
30445W        W89541  13.288  31.428  10.929
30446W        W89542  11.846  19.264   0.964
30447W        W89543  27.607  34.404   2.309
30448W        W89544  26.472  17.768   4.178
30449W        W89545   3.729  42.482   1.379
30450W        W89546  43.432  41.329   2.698
30451W        W89547  11.648   0.954   1.328
30452W        W89548  12.852  15.677  12.885
30453W        W89549  39.894  16.653   4.699
30454W        W89550  31.514  12.274   4.726
30455W        W89551   3.838   8.338   4.690
30456W        W89552  38.430  16.200   4.327
30457W        W89553  30.988  11.677  14.829
30458W        W89554  25.677   4.739   2.670
30459W        W89555  25.572   6.718  14.907
30460W        W89556  18.156  33.080   1.445
30461W        W89557  15.247  32.480  12.905
30462W        W89558  10.236  33.594  11.586
30463W        W89559  32.446  21.543   2.704
30464W        W89560  38.512   0.336   3.252
30465W        W89561  28.507  32.950   0.835
30466W        W89562  31.449  29.519   0.261
30467W        W89563  38.336  41.020  12.371
30468W        W89564  19.157  33.027  14.834
30469W        W89565   6.306  22.039  14.858
30470W        W89566  44.276  35.882  11.863
30471W        W89567  16.794  10.801  13.911
30472W        W89568  34.542  34.950   0.765
30473W        W89569  31.086  34.409  14.871
30474W        W89570  40.048  14.767  12.457
30475W        W89571  34.499  38.358  12.403
30476W        W89572  44.301  23.078   0.264
30477W        W89573  20.551  32.538  11.378
30478W        W89574  37.857  14.264  10.970
30479W        W89575  27.476  19.210  11.454
30480W        W89576  13.228   7.842   1.782
30481W        W89577  11.824   7.329  12.825
30482W        W89578  28.983   6.242  10.622
30483W        W89579  39.842  13.257  10.159
30484W        W89580  22.178  22.688  10.032
30485W        W89581  27.511  27.135   1.252
30486W        W89582  14.789  10.318   4.126
30487W        W89583  18.789   1.936  10.013
30488W        W89584   2.387  42.014  14.857
30489W        W89585  41.935  25.692  13.961
30490W        W89586  12.129  38.565   4.307
30491W        W89587  32.542  11.716  13.455
30492W        W89588  10.714  30.163   2.705
30493W        W89589  40.952  12.620   2.343
30494W        W89590   9.357  18.677   3.818
30495W        W89591   8.823   6.745  13.006
30496W        W89592  37.062  39.818  12.449
30497W        W89593   8.394   6.878  13.505
30498W        W89594  26.019  20.175   1.379
30499W        W89595  27.626  36.477   5.734
30500W        W89596   4.764  36.874   4.320
30501W        W89597   7.896  12.231  12.976
30502W        W89598  24.036  32.142   3.341
30503W        W89599  33.568  25.709   5.269
30504W        W89600   6.871  36.529  12.548
30505W        W89601  19.744  21.212   4.162
30506W        W89602  22.155   3.945  13.929
30507W        W89603  22.690  44.879   4.191
30508W        W89604   1.871  22.603  10.616
30509W        W89605  13.263  39.012   1.727
30510W        W89606  13.652  33.064  13.922
30511W        W89607  18.753  41.790   4.781
30512W        W89608  27.038  20.705   4.701
30513W        W89609  37.432  27.987  14.417
30514W        W89610  38.909   3.390   2.281
30515W        W89611   1.482  31.008   3.190
30516W        W89612  20.556  34.400  11.109
30517W        W89613   4.731  12.236  12.060
30518W        W89614   7.360  31.436  14.835
30519W        W89615   1.440  29.086   3.301
30520W        W89616  14.812  27.464   3.711
30521W        W89617  40.921  15.648   9.993
30522W        W89618  38.383  10.721   2.210
30523W        W89619  23.162  35.047   5.269
30524W        W89620  41.495  18.229   0.391
30525W        W89621  44.947  27.575  12.362
30526W        W89622  12.799  34.048   3.736
30527W        W89623  22.681  15.246   3.807
30528W        W89624   4.282   4.432   3.325
30529W        W89625   9.864  34.095  10.985
30530W        W89626  44.773   3.730  11.521
30531W        W89627   0.356  26.156   4.759
30532W        W89628   4.391  27.671   2.230
30533W        W89629  25.077  20.709  12.878
30534W        W89630  37.539  34.613   2.763
30535W        W89631  41.387  42.473   2.743
30536W        W89632  20.596  19.242  14.484
30537W        W89633  30.562   4.795   0.777
30538W        W89634   6.743  24.226   3.150
30539W        W89635  39.847  34.420  12.983
30540W        W89636  15.161  34.003   0.276
30541W        W89637   3.233  23.988  12.017
30542W        W89638  26.111  35.870  12.551
30543W        W89639  14.820  38.022   3.378
30544W        W89640  38.333  14.281  12.397
30545W        W89641  22.166  21.117   0.326
30546W        W89642   3.851   3.838  10.955
30547W        W89643  44.298  25.574  12.507
30548W        W89644   5.214  37.357   2.789
30549W        W89645  12.293   1.325  12.028
30550W        W89646  38.867  11.166  12.456
30551W        W89647  35.592   2.953   3.732
30552W        W89648  30.643  39.366  10.495
30553W        W89649  28.664  10.232  11.443
30554W        W89650  37.053  36.577   0.346
30555W        W89651  39.926  28.473   4.738
30556W        W89652  35.498  30.012  11.036
30557W        W89653  14.765  13.232   4.348
30558W        W89654  36.046  26.042  12.000
30559W        W89655  11.250  35.390  12.458
30560W        W89656  20.678  11.787  12.980
30561W        W89657  43.284   8.276   2.235
30562W        W89658  28.543   1.943   1.927
30563W        W89659  15.701  14.134  11.917
30564W        W89660   0.252  34.910  13.471
30565W        W89661   6.383  17.599  14.376
30566W        W89662   2.935  23.546   3.678
30567W        W89663  24.997  44.503   0.354
30568W        W89664  21.573  28.027   3.639
30569W        W89665  33.593  40.378  13.794
30570W        W89666  34.514   7.257  10.592
30571W        W89667  15.750  11.330   9.997
30572W        W89668  27.621  17.189  11.375
30573W        W89669  36.564  27.983   2.363
30574W        W89670  37.046  18.659   2.191
30575W        W89671  38.473  38.474   2.672
30576W        W89672   9.160  28.980  10.407
30577W        W89673  21.261  35.439  12.421
30578W        W89674  35.503   4.279  11.994
30579W        W89675  19.205   9.691  12.827
30580W        W89676   2.751  23.607  12.073
30581W        W89677  39.906  14.794  10.602
30582W        W89678  10.200   6.838  12.846
30583W        W89679  10.277  30.995   0.416
30584W        W89680  38.906  36.888  12.545
30585W        W89681  10.854  36.451   2.732
30586W        W89682  44.498  22.700  10.979
30587W        W89683  33.400  36.922  11.523
30588W        W89684   7.257  35.588   0.816
30589W        W89685  43.902  21.667  10.896
30590W        W89686   1.338   3.324  12.531
30591W        W89687  38.563  10.873   0.271
30592W        W89688  22.070  44.939   0.271
30593W        W89689  29.985  25.490  10.492
30594W        W89690  23.110  28.640  14.863
30595W        W89691  19.670   3.231   3.855
30596W        W89692  41.961   9.365  14.440
30597W        W89693  27.126  43.361   3.228
30598W        W89694  34.490  32.966  14.493
30599W        W89695   1.474   5.335   2.286
30600W        W89696  32.107  26.981   2.358
30601W        W89697  40.041  20.050   3.726
30602W        W89698   1.807  10.735   0.300
30603W        W89699   9.393   8.689   3.817
30604W        W89700  22.218   6.330   3.840
30605W        W89701  17.263  37.880   0.749
30606W        W89702  36.035  32.587   4.697
30607W        W89703   6.685   4.766   3.302
30608W        W89704  44.959  20.540  11.075
30609W        W89705  23.686  26.481  11.037
30610W        W89706  29.503  35.085   9.997
30611W        W89707   7.204  35.443   0.403
30612W        W89708   9.767  26.596   2.267
30613W        W89709  29.167   3.366  10.891
30614W        W89710  30.485  27.003  10.524
30615W        W89711  11.143  28.936   1.257
30616W        W89712   9.173  28.061  11.084
30617W        W89713  12.839   4.944   2.349
30618W        W89714  16.117  30.106  14.439
30619W        W89715  26.528  14.107   1.877
30620W        W89716   0.426  36.933   4.240
30621W        W89717  23.684  40.889   4.273
30622W        W89718  10.349  23.628  12.418
30623W        W89719  22.139   8.351  12.020
30624W        W89720  24.162  42.834  14.366
30625W        W89721  27.607  23.171  12.043
30626W        W89722  30.072   0.893  10.906
30627W        W89723  23.105   9.888   3.261
30628W        W89724  30.069  21.694   3.160
30629W        W89725  11.372  31.513  11.582
30630W        W89726  43.816   6.694   4.675
30631W        W89727  42.967  34.433  12.508
30632W        W89728  27.157  15.679  14.406
30633W        W89729  17.592   9.739   3.341
30634W        W89730  35.546  36.585   1.307
30635W        W89731  18.783  16.599  13.519
30636W        W89732   8.320  16.727  13.341
30637W        W89733  37.032  11.163  14.900
30638W        W89734  33.397  11.161   4.745
30639W        W89735  32.583  17.132  13.541
30640W        W89736   5.290  41.967  13.450
30641W        W89737  28.439  18.665  14.986
30642W        W89738  22.053   2.266  13.860
30643W        W89739   0.483   6.366  12.056
30644W        W89740  25.118  38.903   4.261
30645W        W89741  42.023  21.738  12.420
30646W        W89742   0.879   9.248  12.384
30647W        W89743  30.521  27.096   0.289
30648W        W89744   6.382  30.164  11.034
30649W        W89745  20.119  21.199  12.984
30650W        W89746  10.210  39.329  13.954
30651W        W89747  22.665  11.215  11.411
30652W        W89748   8.191  12.336   2.180
30653W        W89749  21.637  42.388   3.363
30654W        W89750  28.612  25.549   1.303
30655W        W89751  12.231   7.709  11.556
30656W        W89752  22.057  27.111  12.053
30657W        W89753  32.600  14.155  14.924
30658W        W89754   6.262  10.699   0.454
30659W        W89755  17.572  37.429   0.872
30660W        W89756  25.111  15.315  10.533
30661W        W89757  12.203  42.491  14.303
30662W        W89758  21.206   5.317   2.834
30663W        W89759  34.526   8.725  11.507
30664W        W89760   6.913  11.815   0.923
30665W        W89761  37.897   2.321   2.363
30666W        W89762   3.326  13.639   2.845
30667W        W89763  37.915  26.043   4.637
30668W        W89764  13.657  38.995  14.898
30669W        W89765  25.522  31.635   0.372
30670W        W89766   6.272   7.173  12.401
30671W        W89767   1.962  44.488  12.473
30672W        W89768  14.659  34.081   1.340
30673W        W89769  21.523  11.304  13.010
30674W        W89770  16.587  20.186  11.952
30675W        W89771  16.244  14.331   1.318
30676W        W89772   8.354   1.797   0.852
30677W        W89773  13.210  12.151  11.007
30678W        W89774  18.607  10.202   1.337
30679W        W89775  21.135  34.990  11.918
30680W        W89776  25.108   3.363  11.896
30681W        W89777  40.484  35.518  14.427
30682W        W89778  26.536   1.813  13.397
30683W        W89779  36.426  13.654   3.733
30684W        W89780  24.499  14.211   4.227
30685W        W89781  17.273   0.249  12.465
30686W        W89782   8.172  25.705   3.744
30687W        W89783  24.592  38.535   3.247
30688W        W89784   1.895  13.272  12.484
30689W        W89785  44.420  14.332   3.153
30690W        W89786  31.575  14.212  14.790
30691W        W89787  28.075  38.013   2.190
30692W        W89788   7.260  16.762   1.262
30693W        W89789  20.631  17.298   2.387
30694W        W89790  38.941  28.179   3.767
30695W        W89791  28.071   4.847  12.374
30696W        W89792  19.116  13.338   4.115
30697W        W89793  44.417  17.669  13.938
30698W        W89794  31.552  38.034  10.595
30699W        W89795  20.109   3.312  14.342
30700W        W89796   8.370  43.288   3.788
30701W        W89797  38.964  30.574   3.302
30702W        W89798  11.232   9.318   0.807
30703W        W89799   9.816  30.981  10.603
30704W        W89800  36.475  34.975   3.768
30705W        W89801  44.407  18.222  14.458
30706W        W89802  25.488  14.771   1.737
30707W        W89803  11.809  23.531  10.093
30708W        W89804  15.320   6.241  11.025
30709W        W89805  19.105   7.896  13.014
30710W        W89806  19.770  39.532   0.837
30711W        W89807  29.029   5.737  14.842
30712W        W89808  15.704  28.080   3.668
30713W        W89809  26.186  30.097   1.276
30714W        W89810  24.022  38.438   4.603
30715W        W89811  13.724  20.214  10.906
30716W        W89812  20.238   4.330  13.499
30717W        W89813   8.363  44.785   4.809
30718W        W89814  22.226  30.630  12.387
30719W        W89815  19.705   4.912  11.882
30720W        W89816  11.205  44.925   0.338
30721W        W89817  26.643  21.062  14.351
30722W        W89818   2.806   2.378   2.334
30723W        W89819   7.719  21.058  14.815
30724W        W89820  14.736  11.180   2.807
30725W        W89821  16.718   1.442  11.565
30726W        W89822  38.457  24.598   0.405
30727W        W89823   5.751   1.875   2.338
30728W        W89824  24.529   2.247  11.903
30729W        W89825   4.908  17.587  13.899
30730W        W89826  20.549  12.226  11.599
30731W        W89827   1.969   9.769  13.024
30732W        W89828  34.534  40.455  14.849
30733W        W89829   8.353  21.725   1.917
30734W        W89830   2.275   4.389  12.076
30735W        W89831  33.471   6.238  13.447
30736W        W89832  33.092  28.616  14.883
30737W        W89833  37.890  37.907  11.073
30738W        W89834  25.525   3.361  14.955
30739W        W89835  24.085  13.292   3.245
30740W        W89836  18.689  44.332   2.883
30741W        W89837   1.357  39.858  11.994
30742W        W89838  26.203  12.700  13.366
30743W        W89839   3.952   7.395   0.761
30744W        W89840  44.288  29.037  11.909
30745W        W89841  16.226  24.185   1.387
30746W        W89842  37.521   5.227   4.129
30747W        W89843   3.218  32.950   1.820
30748W        W89844  14.772  15.287  12.060
30749W        W89845   5.878  10.682   1.753
30750W        W89846  36.546  13.708  12.009
30751W        W89847  29.532   1.743   4.785
30752W        W89848   4.234  44.833  14.958
30753W        W89849   8.236  38.830   4.196
30754W        W89850  41.446  18.667   2.320
30755W        W89851  33.576  12.326  11.895
30756W        W89852  42.848  20.625  10.025
30757W        W89853   3.839  39.511  12.060
30758W        W89854  21.178  40.002  11.038
30759W        W89855  15.716  27.557  11.501
30760W        W89856   9.790  26.638  12.025
30761W        W89857   0.481  29.076   3.361
30762W        W89858   5.717  27.106  11.573
30763W        W89859   6.181  12.801   1.886
30764W        W89860  10.818  26.104  12.045
30765W        W89861  40.867   7.404  10.986
30766W        W89862  28.557   2.302  12.402
30767W        W89863  40.393  25.043  13.497
30768W        W89864  34.027  43.947   1.821
30769W        W89865   8.238   5.386  14.769
30770W        W89866   7.387  37.928  10.517
30771W        W89867  42.972  21.118   2.700
30772W        W89868  26.674  42.340   2.845
30773W        W89869  11.280  44.935  11.583
30774W        W89870  41.017   0.950   2.841
30775W        W89871  32.416  21.569   4.337
30776W        W89872  19.093  27.951  13.449
30777W        W89873  31.095  32.037  10.537
30778W        W89874   1.786   5.800   2.884
30779W        W89875   3.769  19.617   2.325
30780W        W89876  18.565  34.453   4.804
30781W        W89877  10.759  26.139   3.209
30782W        W89878  30.936   0.281   1.758
30783W        W89879  39.029  27.951   0.288
30784W        W89880  44.934   1.866  14.485
30785W        W89881  24.687  13.817   4.808
30786W        W89882  31.081  24.604   5.658
30787W        W89883  36.439  41.862   3.858
30788W        W89884  25.002  11.642   5.235
30789W        W89885   3.237  36.943   0.305
30790W        W89886   3.869  19.596   5.197
30791W        W89887  34.066   5.272   2.379
30792W        W89888  19.732  18.158  12.416
30793W        W89889  42.495  10.650  13.325
30794W        W89890  14.181   8.681   1.336
30795W        W89891  35.945  21.718  12.415
30796W        W89892  10.673  30.420   3.798
30797W        W89893  29.175  38.547   3.643
30798W        W89894   2.886  44.313  10.161
30799W        W89895  23.675  13.835  10.577
30800W        W89896   2.385   9.686  14.454
30801W        W89897   5.378   7.793   2.784
30802W        W89898  16.270  17.161  13.911
30803W        W89899  30.522  11.822  12.840
30804W        W89900  22.699   9.186   3.721
30805W        W89901  13.145  40.828   3.718
30806W        W89902   5.853  26.607   2.387
30807W        W89903  25.030  20.178   2.689
30808W        W89904  40.845  44.796  12.394
30809W        W89905  39.022  35.495  14.933
30810W        W89906   2.325  33.592  11.866
30811W        W89907  42.426  44.407   1.724
30812W        W89908  12.127  44.851   0.400
30813W        W89909  19.230  11.703  11.946
30814W        W89910   5.825  36.971  14.339
30815W        W89911  41.537  16.649  10.487
30816W        W89912   0.320  22.110   0.907
30817W        W89913  44.795  31.124  12.836
30818W        W89914  33.914   7.218  10.500
30819W        W89915  35.863  38.046  11.953
30820W        W89916   0.799  44.445   4.768
30821W        W89917   9.244  14.149  11.404
30822W        W89918  36.886  43.018  10.937
30823W        W89919   2.240  26.536   2.354
30824W        W89920  43.962  31.615   4.205
30825W        W89921  38.920   7.778  14.487
30826W        W89922  38.344  13.312   1.867
30827W        W89923  31.008   9.841  14.812
30828W        W89924  26.664   0.295   1.341
30829W        W89925  12.644  22.574  12.933
30830W        W89926  26.556  42.017  10.406
30831W        W89927  25.476  35.443  12.394
30832W        W89928  30.057  33.495   9.994
30833W        W89929  31.511  13.176   1.413
30834W        W89930   6.871  30.038   1.778
30835W        W89931  30.130  34.940  11.884
30836W        W89932  25.099  34.882   0.477
30837W        W89933   8.400  40.362  10.511
30838W        W89934   6.290  18.139   1.924
30839W        W89935  44.976  42.904  10.968
30840W        W89936  21.715  21.130  11.946
30841W        W89937  14.235  44.754   4.786
30842W        W89938  21.187  43.490  12.385
30843W        W89939  20.755  28.515  11.543
30844W        W89940  36.432   4.850   4.600
30845W        W89941  31.086  33.950  10.556
30846W        W89942  43.888  23.571  12.009
30847W        W89943  33.108  15.803  12.413
30848W        W89944   7.227   0.785   2.410
30849W        W89945  30.932  13.798   2.719
30850W        W89946  31.115  40.046   1.450
30851W        W89947   0.277  33.593   2.886
30852W        W89948  35.470   0.744  10.459
30853W        W89949  28.660   6.747   0.801
30854W        W89950  14.137  44.849   4.318
30855W        W89951   9.724  21.033  12.465
30856W        W89952  39.472  37.503  13.516
30857W        W89953  25.490   0.743  14.878
30858W        W89954  22.719  34.072   0.799
30859W        W89955  37.570  10.739   2.199
30860W        W89956  17.721  16.661  10.584
30861W        W89957  29.119  43.446   3.340
30862W        W89958  33.605  38.434  11.098
30863W        W89959  21.073  18.169   3.256
30864W        W89960  27.966  23.998  13.331
30865W        W89961  37.953  25.029  10.931
30866W        W89962   2.807   5.424   1.842
30867W        W89963  35.944  44.494   1.925
30868W        W89964  13.644  16.091   0.966
30869W        W89965  37.381   6.346   4.773
30870W        W89966   9.242  12.845   5.145
30871W        W89967  36.094   1.818   2.902
30872W        W89968  12.160  32.069  13.478
30873W        W89969  18.158  22.997  11.997
30874W        W89970  43.928   7.742  14.314
30875W        W89971   0.942  16.236   4.159
30876W        W89972   8.288  35.057  11.981
30877W        W89973  40.347  17.656  11.528
30878W        W89974  30.513   3.710  10.414
30879W        W89975  33.592  17.160   2.264
30880W        W89976  29.080  11.839   2.249
30881W        W89977   0.445  32.959  12.410
30882W        W89978  16.805  16.724   2.876
30883W        W89979  28.558   2.857   1.905
30884W        W89980  13.146  23.625   4.170
30885W        W89981  20.228  17.692   2.780
30886W        W89982  30.118  17.599  10.505
30887W        W89983  36.465   5.242   1.889
30888W        W89984   0.778  26.093  14.811
30889W        W89985  32.984  10.234   4.350
30890W        W89986  33.626  10.855   1.227
30891W        W89987  26.518  13.648   1.746
30892W        W89988  40.482  30.415  10.543
30893W        W89989   1.335   1.966  14.375
30894W        W89990  19.729  20.197  12.452
30895W        W89991  40.811  43.271  12.848
30896W        W89992   8.837  22.145  14.293
30897W        W89993  30.518  32.904  10.474
30898W        W89994  41.951  28.646   4.292
30899W        W89995  37.472   2.304  12.074
30900W        W89996  37.504  42.328  12.978
30901W        W89997  29.570  42.943  13.435
30902W        W89998   3.393   0.844   0.282
30903W        W89999  39.955  19.548  10.916
30904W        W90000   0.420  24.521  12.452
30905W        W90001  24.578   9.775   2.419
30906W        W90002   8.236  19.629   0.327
30907W        W90003  17.741  35.006   0.304
30908W        W90004  29.496  39.354  11.516
30909W        W90005  19.185  15.685  10.582
30910W        W90006  35.974  35.485  12.853
30911W        W90007   1.308   0.439  11.397
30912W        W90008  40.344  32.050   3.652
30913W        W90009   3.873  38.478   4.613
30914W        W90010   1.924   6.252   4.155
30915W        W90011  23.153  16.185   0.451
30916W        W90012   7.394  28.060   2.767
30917W        W90013  24.495   5.301  12.950
30918W        W90014  40.362  34.474  10.449
30919W        W90015  23.168   7.772   1.774
30920W        W90016   9.375   9.734   0.404
30921W        W90017  27.001  35.417  12.380
30922W        W90018   3.746  36.993  14.808
30923W        W90019  12.202  38.369  14.360
30924W        W90020  22.029  23.584   1.419
30925W        W90021  28.159  37.077   1.838
30926W        W90022  43.409  38.842  10.454
30927W        W90023   6.884  30.123  14.775
30928W        W90024  44.310  12.853  14.004
30929W        W90025  22.176  28.082   0.341
30930W        W90026  29.131  14.768  14.383
30931W        W90027  27.088  13.195  10.593
30932W        W90028  27.112  15.196  13.322
30933W        W90029   5.820  18.576   0.785
30934W        W90030  18.092  31.589  11.929
30935W        W90031   0.894  20.222  12.406
30936W        W90032  28.021  18.142   3.345
30937W        W90033  22.110  38.407  10.479
30938W        W90034  35.043  27.015   1.908
30939W        W90035   4.328  10.723  11.001
30940W        W90036   2.864   0.928  11.601
30941W        W90037  36.389   0.754  12.007
30942W        W90038  22.238  37.043  13.510
30943W        W90039  39.337   3.350  14.794
30944W        W90040   9.654  16.117  12.980
30945W        W90041  41.940  15.694   3.709
30946W        W90042  39.493  14.790   2.294
30947W        W90043  14.340  31.936   1.722
30948W        W90044  44.891  33.598   2.690
30949W        W90045  19.638   8.253  12.344
30950W        W90046  27.138  29.615  14.838
30951W        W90047  31.419  20.175   5.734
30952W        W90048  17.304  35.080  10.460
30953W        W90049  43.355   6.740  12.830
30954W        W90050   3.876  31.511  13.443
30955W        W90051  36.383   0.485   2.823
30956W        W90052  25.694  38.900   4.334
30957W        W90053  43.992   2.907  12.491
30958W        W90054  20.172  29.603   1.372
30959W        W90055  18.278  33.434   1.402
30960W        W90056  36.993  40.872  12.381
30961W        W90057   9.803  21.088  13.535
30962W        W90058  29.101   7.387   2.850
30963W        W90059  17.744   1.370  12.427
30964W        W90060  18.134  32.620  14.371
30965W        W90061  11.135  13.315   2.413
30966W        W90062   6.428  25.596   5.210
30967W        W90063  39.943  23.077  13.898
30968W        W90064  42.882  11.180   1.816
30969W        W90065  17.681  14.633  12.842
30970W        W90066  13.202  41.830  11.570
30971W        W90067  24.575  35.076   2.714
30972W        W90068  11.700   1.749  13.955
30973W        W90069  38.900  13.222   2.756
30974W        W90070   1.390  38.923  14.961
30975W        W90071  29.152  24.163   2.702
30976W        W90072  44.001  17.726   2.769
30977W        W90073  25.703  26.694   9.921
30978W        W90074  26.107  31.633  13.484
30979W        W90075   6.740  40.479  12.045
30980W        W90076  14.652   3.724  10.495
30981W        W90077  10.379  18.562  14.988
30982W        W90078  14.614  34.436   3.863
30983W        W90079   6.856  23.030  12.339
30984W        W90080   1.366  21.097   2.822
30985W        W90081  35.371  31.954  13.319
30986W        W90082  30.490  35.506   4.316
30987W        W90083  41.525   7.332   4.346
30988W        W90084  41.864  17.632   4.791
30989W        W90085   8.266  38.845   3.671
30990W        W90086  30.017  26.504   2.736
30991W        W90087  21.219  28.517   4.652
30992W        W90088  20.714  36.890   4.129
30993W        W90089   2.445  39.559   2.266
30994W        W90090  12.222  17.695  12.991
30995W        W90091   9.853   1.296   0.466
30996W        W90092  37.872  42.923  11.049
30997W        W90093   2.389  21.202   3.631
30998W        W90094  43.770   7.668  13.492
30999W        W90095  10.647   3.955  11.519
31000W        W90096  10.166  10.827   0.450
31001W        W90097   5.744  23.059  12.046
31002W        W90098  12.734  31.623   0.956
31003W        W90099  24.221   6.832   2.780
31004W        W90100   9.265  20.148  14.367
31005W        W90101  40.514  10.208   4.761
31006W        W90102  11.288   6.864   3.729
31007W        W90103  16.095  13.238  13.887
31008W        W90104  41.369  20.567   0.810
31009W        W90105   2.435  16.576   0.446
31010W        W90106   8.742   4.705   2.842
31011W        W90107   3.866  17.686   4.699
31012W        W90108  14.645  19.543  10.424
31013W        W90109  27.576  15.162   0.854
31014W        W90110  28.666  21.515   0.313
31015W        W90111  14.747  30.500   1.407
31016W        W90112  17.641  18.750  12.931
31017W        W90113   7.773  13.123   0.436
31018W        W90114   4.900  32.542   0.253
31019W        W90115  43.914   0.913   2.332
31020W        W90116  36.360   3.837   1.380
31021W        W90117  34.989  33.616  10.989
31022W        W90118   6.921   4.799   0.843
31023W        W90119  36.386  43.831  11.433
31024W        W90120   6.384   3.772  12.070
31025W        W90121  14.256  24.096   1.252
31026W        W90122  14.096  10.187  12.501
31027W        W90123  26.983  29.939   3.675
31028W        W90124  11.312   3.434   3.312
31029W        W90125  40.406  25.037  10.039
31030W        W90126  30.051   2.237   0.318
31031W        W90127  17.640  33.032   4.695
31032W        W90128  31.038  32.941   0.327
31033W        W90129  38.569  24.131  11.543
31034W        W90130  15.325   1.866   1.448
31035W        W90131  32.972   4.337  12.476
31036W        W90132  32.401  37.036  11.506
31037W        W90133  28.060  29.452   2.396
31038W        W90134  19.733  11.863   1.735
31039W        W90135  40.362  44.485  10.899
31040W        W90136  16.718  42.830   0.841
31041W        W90137  10.254  18.730   2.178
31042W        W90138   5.730  41.981   2.820
31043W        W90139  14.308  19.547   4.330
31044W        W90140   8.695  39.443   3.657
31045W        W90141   6.335  26.998   9.593
31046W        W90142  24.644   6.358  14.511
31047W        W90143  27.509  25.604  12.419
31048W        W90144  43.802  43.507   1.224
31049W        W90145  37.975   8.871  14.334
31050W        W90146  44.826   7.858   2.354
31051W        W90147  37.906  23.727   1.833
31052W        W90148  16.228  23.242   2.362
31053W        W90149  43.335  12.724  14.013
31054W        W90150  25.675  41.508  12.510
31055W        W90151   5.373  20.072   0.275
31056W        W90152  22.558  31.902   5.130
31057W        W90153  22.643  41.501  13.374
31058W        W90154  27.084  32.591   1.806
31059W        W90155  12.351  36.364   1.251
31060W        W90156  31.978  15.600   5.687
31061W        W90157  18.723  16.315   3.746
31062W        W90158   5.427  14.637  14.319
31063W        W90159  42.815  43.908   3.696
31064W        W90160  39.062   7.908   4.764
31065W        W90161  40.391   7.750  11.913
31066W        W90162  25.617  40.518   2.410
31067W        W90163   3.833  14.188  13.063
31068W        W90164  22.544  23.604   3.783
31069W        W90165  32.604  29.589   4.119
31070W        W90166   6.419   6.842  12.850
31071W        W90167   4.735  25.168   1.900
31072W        W90168  40.845  19.187   0.267
31073W        W90169  10.304  14.687  10.579
31074W        W90170  31.042  21.144   3.193
31075W        W90171  28.436  42.875   1.699
31076W        W90172  12.658  25.585   3.364
31077W        W90173  22.123  44.776   3.297
31078W        W90174   5.339   2.798  11.966
31079W        W90175  11.661  42.011  14.388
31080W        W90176  38.446  29.645   2.301
31081W        W90177   0.766  34.485   0.370
31082W        W90178  23.005  16.755   0.923
31083W        W90179  20.586   8.222   1.275
31084W        W90180  11.372  33.005   2.750
31085W        W90181  17.266   8.277   1.439
31086W        W90182   3.432  30.511  13.392
31087W        W90183  16.756  14.161  12.832
31088W        W90184  22.246  19.234  13.384
31089W        W90185  37.343  26.511  14.761
31090W        W90186  30.042  33.398   4.330
31091W        W90187  44.858  18.093   1.409
31092W        W90188  40.520   8.782  12.486
31093W        W90189  32.419   8.195   1.359
31094W        W90190   7.323   1.387   4.313
31095W        W90191  21.018  18.216   0.953
31096W        W90192  30.515  10.696  12.063
31097W        W90193  13.127   4.900   2.902
31098W        W90194  19.700  41.313   3.175
31099W        W90195  28.482  13.730  12.911
31100W        W90196  27.675  35.432   1.796
31101W        W90197  19.227   1.350  14.030
31102W        W90198  17.239   0.480  10.464
31103W        W90199   2.429   0.803  13.975
31104W        W90200  10.816   2.917   1.795
31105W        W90201  32.596   9.722   2.253
31106W        W90202   7.737  33.987   2.767
31107W        W90203  37.379  15.651  11.014
31108W        W90204  29.951  34.581   9.474
31109W        W90205  21.181  13.750  10.477
31110W        W90206  41.908  32.106  11.117
31111W        W90207  17.736  25.637  11.531
31112W        W90208  31.526  29.424  11.495
31113W        W90209  40.953  24.651  11.035
31114W        W90210   2.843   2.260   3.716
31115W        W90211   4.246  27.486  12.007
31116W        W90212  27.997  34.484  13.898
31117W        W90213  24.098  10.861   4.769
31118W        W90214   3.747  21.258   2.683
31119W        W90215  39.409   4.762  14.809
31120W        W90216   4.387  22.176  14.400
31121W        W90217  13.677  14.766  14.341
31122W        W90218  24.714   2.743   0.315
31123W        W90219   5.415  22.136   0.827
31124W        W90220  32.465  10.728   1.701
31125W        W90221  35.402  18.570   0.434
31126W        W90222   4.237  11.764   3.823
31127W        W90223  25.574  33.948   1.854
31128W        W90224   4.926  13.720   1.314
31129W        W90225   8.801  39.886  10.549
31130W        W90226  42.948   0.898   3.633
31131W        W90227  24.026  15.608  10.911
31132W        W90228  23.698  29.160   4.158
31133W        W90229  32.988   5.200   2.187
31134W        W90230   7.174  40.455   0.308
31135W        W90231  24.141  30.039   2.259
31136W        W90232  43.358  40.800  14.488
31137W        W90233  41.865  37.068  13.001
31138W        W90234  36.891  43.285  14.394
31139W        W90235   9.671   6.402  11.530
31140W        W90236  16.685  44.832  11.533
31141W        W90237  36.875  21.648  13.912
31142W        W90238  30.135   5.718  13.343
31143W        W90239   6.826  27.177   0.416
31144W        W90240  26.107  14.214  10.892
31145W        W90241  18.744  23.532  10.893
31146W        W90242  37.451   5.719   1.833
31147W        W90243  30.566  23.516  14.393
31148W        W90244   0.273   3.368   2.846
31149W        W90245  24.129   9.390  10.995
31150W        W90246  43.830   4.937   1.931
31151W        W90247   9.322  15.244  13.838
31152W        W90248  11.771   1.282   3.209
31153W        W90249   7.883  42.898   3.339
31154W        W90250   9.240   2.395   0.356
31155W        W90251  26.161  18.554  11.475
31156W        W90252  14.236  20.091   4.270
31157W        W90253  14.290  25.576   3.776
31158W        W90254  19.070  39.841   4.265
31159W        W90255  25.178  26.570  11.939
31160W        W90256  32.490  41.998  12.506
31161W        W90257  29.139  16.693   1.248
31162W        W90258  27.049  17.633   0.927
31163W        W90259  34.010  40.908  11.468
31164W        W90260   2.944   1.905  11.435
31165W        W90261  10.788   6.244  11.531
31166W        W90262   6.718  14.286   4.812
31167W        W90263  34.952  40.849   4.275
31168W        W90264   4.823  40.852   4.180
31169W        W90265  13.314  43.313   2.883
31170W        W90266   2.299   0.901   1.341
31171W        W90267  41.854  39.826   3.766
31172W        W90268  13.829  17.295  10.917
31173W        W90269  28.554  26.197   4.657
31174W        W90270   4.768  29.092   1.242
31175W        W90271   6.295  37.473   3.824
31176W        W90272  35.878  44.782   2.731
31177W        W90273  39.476  12.214  13.510
31178W        W90274  26.043  27.491  12.908
31179W        W90275   6.280  27.038   0.255
31180W        W90276  18.548  42.925   2.377
31181W        W90277   5.809  24.175   3.354
31182W        W90278  35.490  15.784  14.884
31183W        W90279  14.680   3.319   1.398
31184W        W90280  20.238   8.373  10.962
31185W        W90281  29.540  22.588  12.868
31186W        W90282  44.278   6.788   4.754
31187W        W90283  25.218  16.101   2.364
31188W        W90284  38.427  12.800   1.891
31189W        W90285  27.123   9.827  10.452
31190W        W90286   3.218   9.222   0.874
31191W        W90287  29.631  42.028  12.973
31192W        W90288  35.510  28.952   2.217
31193W        W90289  35.463   5.348  13.805
31194W        W90290  28.030   5.840  11.523
31195W        W90291   6.734  44.451   0.292
31196W        W90292   9.219  24.055   3.692
31197W        W90293  21.229  37.360  11.003
31198W        W90294   1.886   7.759  13.812
31199W        W90295  32.091  35.540  12.430
31200W        W90296  38.422  12.699  13.959
31201W        W90297  33.915  25.103  12.919
31202W        W90298  13.210   0.962   4.118
31203W        W90299   8.365  38.535   2.776
31204W        W90300  25.518  22.218  12.893
31205W        W90301  34.870  34.872   1.393
31206W        W90302  28.531  41.438  11.429
31207W        W90303   9.657   7.194   3.183
31208W        W90304   9.165   4.281  13.859
31209W        W90305  36.572  25.608   5.785
31210W        W90306   1.875  10.775  11.587
31211W        W90307  21.546  13.794   4.819
31212W        W90308  13.248  35.395   0.246
31213W        W90309  37.903  25.015   3.712
31214W        W90310  13.300  37.027  11.467
31215W        W90311  18.644  31.456   1.348
31216W        W90312   0.255   3.377  13.357
31217W        W90313  32.979  25.552  11.464
31218W        W90314  19.769  23.555  12.861
31219W        W90315  29.124  27.460  14.320
31220W        W90316  37.007   4.294   3.348
31221W        W90317  18.213  34.965  14.861
31222W        W90318  27.512  29.980   1.377
31223W        W90319  19.678  34.375  13.053
31224W        W90320   1.405  19.601   4.689
31225W        W90321  38.442  26.954  13.499
31226W        W90322   2.746  27.515  10.568
31227W        W90323  17.736  11.830  13.996
31228W        W90324  38.561  34.064  13.400
31229W        W90325  14.310   4.285   1.369
31230W        W90326   8.393  32.031   1.259
31231W        W90327   8.273  30.110  10.449
31232W        W90328  38.858  17.198  14.389
31233W        W90329  27.140   9.684  12.879
31234W        W90330  17.722   4.204   4.697
31235W        W90331  32.497  26.688  11.866
31236W        W90332  24.169   8.872  11.864
31237W        W90333   7.394  19.146  14.508
31238W        W90334  18.069  38.551   2.838
31239W        W90335  39.879  15.220  14.427
31240W        W90336   3.308  23.104  14.836
31241W        W90337   0.913  15.092  11.027
31242W        W90338   8.385  23.608   3.698
31243W        W90339  31.457   5.829  12.863
31244W        W90340  37.409   9.319   0.790
31245W        W90341  33.929   1.276   2.407
31246W        W90342  13.706  19.230   4.141
31247W        W90343  24.493  14.121  12.342
31248W        W90344  10.840  29.628  13.012
31249W        W90345  23.085  13.319   2.292
31250W        W90346  23.033  22.021  12.402
31251W        W90347  31.024  30.593   0.818
31252W        W90348  34.096  27.642   3.838
31253W        W90349  35.933  32.135   3.177
31254W        W90350  42.456  38.376  14.022
31255W        W90351  26.122  24.081   9.930
31256W        W90352  22.192  38.877   4.341
31257W        W90353  15.688  37.035   1.798
31258W        W90354   0.296  26.169   3.176
31259W        W90355  40.031   2.837   3.271
31260W        W90356   2.303   2.734   3.869
31261W        W90357  24.136  14.750  10.995
31262W        W90358  31.547  30.570   2.374
31263W        W90359  10.636   3.777  13.836
31264W        W90360  17.723  26.691   4.827
31265W        W90361  27.548  39.336  12.578
31266W        W90362  41.524  14.106   4.749
31267W        W90363  41.504   0.370  12.884
31268W        W90364  22.100  21.580   0.956
31269W        W90365  13.219  36.941  14.980
31270W        W90366  28.044  23.708   1.212
31271W        W90367  15.594   1.840  11.501
31272W        W90368  37.968  20.561   2.688
31273W        W90369  27.461   3.402  10.942
31274W        W90370  18.787  27.459   3.184
31275W        W90371  38.450  32.038   2.362
31276W        W90372  18.236   1.844  13.945
31277W        W90373  44.839  19.766  13.516
31278W        W90374  28.633  29.071  14.779
31279W        W90375   2.895   9.763  12.068
31280W        W90376  26.952  14.245  14.840
31281W        W90377  23.056  37.423   1.449
31282W        W90378   2.417   4.249  13.037
31283W        W90379  29.111  13.247  14.401
31284W        W90380  34.962   7.227   0.367
31285W        W90381  24.209   8.254   0.296
31286W        W90382  15.675   5.401  14.276
31287W        W90383  29.531  31.436  11.546
31288W        W90384  16.624  15.191  12.955
31289W        W90385  40.910   3.451  12.412
31290W        W90386  15.579   7.202   3.715
31291W        W90387  23.587  25.684   0.475
31292W        W90388  37.966  20.191   3.288
31293W        W90389  21.046  14.174  12.984
31294W        W90390   1.754  25.623   1.848
31295W        W90391  33.457  15.791   0.377
31296W        W90392  19.186  16.591   1.913
31297W        W90393   2.742  33.114  11.536
31298W        W90394  37.038  32.976  11.009
31299W        W90395  40.903   3.376  11.935
31300W        W90396  28.138  16.597  10.602
31301W        W90397  33.973  17.738   0.326
31302W        W90398  37.957  13.688   0.947
31303W        W90399   2.866   5.926   3.827
31304W        W90400   6.701  21.724  11.965
31305W        W90401  10.154  41.898   1.789
31306W        W90402  39.369  11.204   4.144
31307W        W90403  32.637   4.763  14.420
31308W        W90404  11.771   8.299  13.414
31309W        W90405   3.926  24.129   4.681
31310W        W90406   8.864   3.267  14.506
31311W        W90407  40.526   2.726   4.682
31312W        W90408  17.264  27.470   4.194
31313W        W90409  13.806  15.321  13.433
31314W        W90410  28.560  20.703   2.353
31315W        W90411   0.816  16.599  14.918
31316W        W90412  33.467   6.904  11.458
31317W        W90413  36.008  12.362  13.940
31318W        W90414  43.836  18.787  13.879
31319W        W90415  19.085   1.926   2.233
31320W        W90416  11.705  30.008   1.838
31321W        W90417  28.178  19.284  11.037
31322W        W90418   2.918  21.246  13.517
31323W        W90419  43.356  19.603   2.333
31324W        W90420  14.322  42.978   1.333
31325W        W90421  43.987   3.440   3.303
31326W        W90422  32.939  36.860   2.797
31327W        W90423  11.299  10.167   0.849
31328W        W90424  28.045  31.612   4.280
31329W        W90425  38.034  26.956   3.840
31330W        W90426  22.189  34.038   2.208
31331W        W90427   5.856  15.183  10.516
31332W        W90428   5.890  39.415   1.271
31333W        W90429   6.223  41.512  12.569
31334W        W90430  25.091  24.718   1.315
31335W        W90431  35.072  25.597   0.727
31336W        W90432   0.312   9.699   0.366
31337W        W90433  33.879  44.261   0.465
31338W        W90434  44.393  11.734   0.434
31339W        W90435  44.415  33.068   0.737
31340W        W90436  19.770  11.680  10.913
31341W        W90437   8.391  12.134  11.008
31342W        W90438   6.365   6.220   0.814
31343W        W90439   9.372  17.158   3.765
31344W        W90440   7.343  22.140   1.433
31345W        W90441  38.995  16.229  12.578
31346W        W90442  29.984  36.896   2.397
31347W        W90443  40.923  12.667  14.448
31348W        W90444  27.669  15.151   3.861
31349W        W90445  40.885  23.217   1.879
31350W        W90446  23.676  14.619   3.297
31351W        W90447  18.217  10.333   3.818
31352W        W90448  20.632  38.884  11.598
31353W        W90449  36.567  16.110  12.581
31354W        W90450   9.659   5.401  10.542
31355W        W90451  40.302  40.856   1.821
31356W        W90452  18.580  44.413  13.821
31357W        W90453  13.105  40.452  10.438
31358W        W90454  39.977  27.520   0.758
31359W        W90455  17.746  38.825   0.430
31360W        W90456  32.049  12.152   3.702
31361W        W90457  44.968  16.309   1.889
31362W        W90458  23.731  24.000  13.476
31363W        W90459  36.023  29.001  14.827
31364W        W90460  14.602  35.082   3.187
31365W        W90461  19.545  39.347   1.384
31366W        W90462  40.367  29.616   0.317
31367W        W90463  16.718  24.075   2.345
31368W        W90464   8.786  37.518   5.248
31369W        W90465  18.258   1.345   4.270
31370W        W90466  21.672  26.491  10.011
31371W        W90467   9.679   3.422   1.273
31372W        W90468  10.166  12.660   4.163
31373W        W90469  20.096  22.105   2.278
31374W        W90470  19.261  20.706  13.954
31375W        W90471  38.968  22.080   0.866
31376W        W90472   1.827  31.438   1.883
31377W        W90473  38.828  25.496   0.312
31378W        W90474  39.860  27.064  13.898
31379W        W90475  17.747  32.611  11.600
31380W        W90476  35.493  24.059   0.291
31381W        W90477  24.563   6.783   0.461
31382W        W90478  30.486  39.450   0.378
31383W        W90479  26.156  41.360  13.859
31384W        W90480  11.371  15.643  14.796
31385W        W90481   6.337   1.456   0.911
31386W        W90482  12.622   8.745  14.907
31387W        W90483  18.707  27.103  12.953
31388W        W90484  39.981  28.156   4.244
31389W        W90485  28.080  13.340  12.059
31390W        W90486  33.960  18.673  10.488
31391W        W90487  30.571  14.216  10.625
31392W        W90488  14.823  25.118   0.890
31393W        W90489  35.564  11.289   0.293
31394W        W90490  38.474   4.893  11.472
31395W        W90491   1.850  16.081  13.039
31396W        W90492  42.408   7.911   2.676
31397W        W90493  25.484  18.290   3.164
31398W        W90494  36.845  40.823   3.710
31399W        W90495  44.885   0.364  11.074
31400W        W90496  19.062  18.104   1.259
31401W        W90497  34.994  39.443   4.801
31402W        W90498   2.748  26.127  14.973
31403W        W90499  31.617   5.703   3.866
31404W        W90500  42.477   3.297  14.348
31405W        W90501   6.888  14.668  13.863
31406W        W90502  39.407  20.063   3.239
31407W        W90503  15.718  18.059   0.394
31408W        W90504  19.141  23.036   4.656
31409W        W90505  42.338  31.481  14.366
31410W        W90506  42.837  39.352  11.396
31411W        W90507  28.022  44.992   0.317
31412W        W90508  44.455   0.361   4.813
31413W        W90509   3.459  15.087  13.977
31414W        W90510  14.129  22.167  11.560
31415W        W90511  22.193  22.509   2.833
31416W        W90512   2.370  22.601   2.333
31417W        W90513   0.347  32.505   4.691
31418W        W90514  16.312  37.498   2.711
31419W        W90515   9.786  23.716  10.478
31420W        W90516  39.962   2.863   2.731
31421W        W90517  36.939   3.858  10.513
31422W        W90518  40.965  33.610   4.835
31423W        W90519   2.771   2.362  11.476
31424W        W90520   4.909   9.761  12.956
31425W        W90521  41.805   7.288  10.098
31426W        W90522  13.833  36.590  10.072
31427W        W90523  24.572  12.307   1.802
31428W        W90524  20.709  37.355   0.258
31429W        W90525  31.138  17.800  12.848
31430W        W90526  17.567  29.031   3.702
31431W        W90527  32.063  22.596   2.835
31432W        W90528  35.944   5.374   0.449
31433W        W90529   2.318  10.734   1.331
31434W        W90530  28.175  23.229   5.248
31435W        W90531  13.302   6.344   3.854
31436W        W90532  13.702  10.256  14.426
31437W        W90533   2.386   0.450  13.956
31438W        W90534  26.068  30.442  11.594
31439W        W90535  34.577   5.425   2.732
31440W        W90536  41.375  41.322   0.967
31441W        W90537  43.422  26.191  12.928
31442W        W90538  36.537   9.700  14.888
31443W        W90539  14.177  36.427  13.319
31444W        W90540  17.284   5.802  10.932
31445W        W90541  30.542   0.825  10.415
31446W        W90542  41.030  21.122  10.097
31447W        W90543  22.545  19.276  12.948
31448W        W90544  24.150   7.887   0.346
31449W        W90545   1.373  33.915  14.929
31450W        W90546  28.589  11.158  12.893
31451W        W90547  30.152  23.646  12.878
31452W        W90548  43.476  23.159  14.945
31453W        W90549  11.204  16.214   4.159
31454W        W90550   4.326  22.037   2.769
31455W        W90551  14.819  41.809   4.272
31456W        W90552   6.295  36.033   4.779
31457W        W90553  23.178  11.137   0.952
31458W        W90554  35.536  38.922   4.699
31459W        W90555  13.150  28.019   0.346
31460W        W90556  44.846  26.465   0.920
31461W        W90557   0.488   9.207   0.318
31462W        W90558  35.029   0.364   0.341
31463W        W90559   1.343  23.068  15.000
31464W        W90560  26.158   2.903   2.320
31465W        W90561  12.683  22.515   0.779
31466W        W90562  43.862  18.173   2.182
31467W        W90563   0.384  18.595  13.931
31468W        W90564  14.674   9.353  10.610
31469W        W90565  32.432  14.197  11.434
31470W        W90566  28.452  22.552   3.803
31471W        W90567  35.478  30.636  10.982
31472W        W90568  41.973  15.327  13.908
31473W        W90569  44.772  36.406   2.417
31474W        W90570  27.110  41.354  14.984
31475W        W90571  16.205  33.905  13.799
31476W        W90572   2.458   4.270  13.510
31477W        W90573  16.661   9.784   2.407
31478W        W90574  25.965  44.832   0.854
31479W        W90575  25.195  20.764  14.787
31480W        W90576  33.108  32.567  12.363
31481W        W90577  18.708  11.343  13.493
31482W        W90578  29.034   7.229   1.704
31483W        W90579  31.948  42.286  11.089
31484W        W90580  44.757  13.639  12.495
31485W        W90581  26.613   2.264  13.339
31486W        W90582  28.676  25.625   2.199
31487W        W90583  26.463   5.698  14.389
31488W        W90584   3.787   2.231  11.112
31489W        W90585  18.085   9.777  10.454
31490W        W90586  28.579  44.475  13.917
31491W        W90587  23.719   0.957  13.428
31492W        W90588  42.497  20.218   0.928
31493W        W90589  33.015  13.143  10.110
31494W        W90590   7.858  11.761   4.316
31495W        W90591   0.351  32.048   2.809
31496W        W90592  31.030  39.903   4.150
31497W        W90593  27.451   0.475  12.900
31498W        W90594  39.435  24.064  11.937
31499W        W90595  11.706   9.651  11.504
31500W        W90596   8.824   6.411  11.898
31501W        W90597  21.208  21.747  13.374
31502W        W90598  20.165  32.423  13.909
31503W        W90599  34.088  44.952  13.883
31504W        W90600  33.939  13.162   4.236
31505W        W90601  11.626  12.649  14.421
31506W        W90602   2.908   4.386   2.247
31507W        W90603  25.621  17.084  10.426
31508W        W90604  42.982  30.425   4.626
31509W        W90605   1.758   1.776   3.709
31510W        W90606  18.636  43.799  13.967
31511W        W90607   2.301  24.549   4.146
31512W        W90608  14.701  13.224  14.355
31513W        W90609  13.807  25.124   1.722
31514W        W90610  31.941  27.085  10.934
31515W        W90611  40.314  29.646   0.803
31516W        W90612   8.245  37.072  12.516
31517W        W90613  15.699  15.126   0.832
31518W        W90614  36.873   0.488  13.848
31519W        W90615  13.230  16.265   1.775
31520W        W90616  21.596  42.978   3.705
31521W        W90617  22.097  27.129  11.119
31522W        W90618   7.793  19.683  14.020
31523W        W90619  35.505  19.607   0.744
31524W        W90620  40.931  35.402  11.044
31525W        W90621   7.870  39.514  12.900
31526W        W90622  19.188  43.815   3.777
31527W        W90623  41.972  19.181  13.426
31528W        W90624  11.757  18.146   4.731
31529W        W90625   5.405   9.890   4.228
31530W        W90626  21.140   0.312  12.914
31531W        W90627  23.222  14.215   0.265
31532W        W90628  21.754  37.506   0.320
31533W        W90629  14.649  19.042  11.098
31534W        W90630   0.378  24.521   2.848
31535W        W90631  27.611   3.398  14.514
31536W        W90632  35.430  42.888  12.498
31537W        W90633  10.689  13.262  14.439
31538W        W90634  27.075  38.951   3.834
31539W        W90635   6.184  18.581  12.470
31540W        W90636  19.546  11.812  11.440
31541W        W90637  43.312  13.159   4.753
31542W        W90638  36.966   3.757  10.961
31543W        W90639   1.256  37.948  14.515
31544W        W90640  41.479  21.173   4.729
31545W        W90641  27.156   2.882   0.809
31546W        W90642  33.085  31.533  14.475
31547W        W90643  10.841   5.290   4.677
31548W        W90644   2.841   7.720  10.430
31549W        W90645  33.450  18.056  10.888
31550W        W90646  41.801  43.814  12.087
31551W        W90647  16.681   1.759  11.884
31552W        W90648   1.313  37.563   5.130
31553W        W90649  11.772   3.839   3.844
31554W        W90650   9.272  29.092  12.430
31555W        W90651   7.739  11.218  14.449
31556W        W90652   3.335  17.134   5.269
31557W        W90653  39.321  13.727  13.506
31558W        W90654   3.786  40.309   4.321
31559W        W90655   5.357   9.703   4.715
31560W        W90656  26.186  33.623   4.330
31561W        W90657  27.609  43.969  14.830
31562W        W90658  39.904   9.246  14.942
31563W        W90659   0.870  30.556   5.307
31564W        W90660  24.572   5.757   3.270
31565W        W90661  42.861  24.172   4.238
31566W        W90662  15.183  22.060  12.981
31567W        W90663  16.753  11.740  10.989
31568W        W90664   8.711  37.496   4.824
31569W        W90665  28.039   7.276   9.941
31570W        W90666   3.293  40.807  12.917
31571W        W90667  17.235  11.318   0.899
31572W        W90668  28.109  13.711  14.762
31573W        W90669  38.010  17.091  12.447
31574W        W90670  13.613  16.092   1.914
31575W        W90671   5.801  40.493   1.399
31576W        W90672  29.586   5.844   0.728
31577W        W90673  35.077  36.359  11.035
31578W        W90674  32.541   6.874   4.826
31579W        W90675  28.499  39.999   3.254
31580W        W90676  36.555  11.278  14.923
31581W        W90677   0.471   6.244   0.385
31582W        W90678  14.694  35.443  13.855
31583W        W90679  26.010  17.763   2.263
31584W        W90680  34.487   5.424  13.536
31585W        W90681   4.900   9.349   0.295
31586W        W90682  24.528  30.117  11.450
31587W        W90683  30.067  23.563   0.949
31588W        W90684   5.242  44.305  11.082
31589W        W90685   3.330   5.887   1.740
31590W        W90686  21.166  11.276   5.118
31591W        W90687  37.500  44.397  14.327
31592W        W90688  43.018  31.973  14.947
31593W        W90689  16.260  39.944  12.370
31594W        W90690  27.971  17.719  11.382
31595W        W90691  44.266  15.320  13.464
31596W        W90692   1.763  10.746   2.226
31597W        W90693  28.510  33.020   9.612
31598W        W90694  34.434   8.813  11.883
31599W        W90695  29.054   8.394   1.304
31600W        W90696   4.416  42.868   4.768
31601W        W90697  29.578  30.018  11.974
31602W        W90698  29.631  23.672  14.973
31603W        W90699  30.108  15.112  11.969
31604W        W90700  37.010  16.256  12.455
31605W        W90701   4.218  37.434  11.511
31606W        W90702  23.697  39.897  12.419
31607W        W90703  41.043  18.260   2.330
31608W        W90704  10.766  36.562  14.961
31609W        W90705  21.716  25.591   1.425
31610W        W90706  19.140   9.678  14.957
31611W        W90707  38.505  30.630  13.527
31612W        W90708   6.684  22.056   5.587
31613W        W90709  31.135  41.406   3.260
31614W        W90710  37.532  24.627   4.285
31615W        W90711  25.983  32.565  12.410
31616W        W90712  29.073   7.370  11.458
31617W        W90713  33.922  42.525  14.286
31618W        W90714  28.146  30.975  13.818
31619W        W90715  18.209  41.492   2.283
31620W        W90716  44.457  34.863  12.376
31621W        W90717  21.243  37.431  10.093
31622W        W90718  16.632  13.845   2.290
31623W        W90719   2.753  15.660  10.098
31624W        W90720  18.234   5.253   4.175
31625W        W90721  22.616  40.989  10.417
31626W        W90722  17.079  29.946   4.326
31627W        W90723  22.240  12.634  11.062
31628W        W90724  28.502  38.953  10.071
31629W        W90725  43.787   1.818  11.474
31630W        W90726  13.216  20.145   1.446
31631W        W90727  43.444  11.281  10.638
31632W        W90728   5.285  40.051   2.217
31633W        W90729  23.094   0.490   3.177
31634W        W90730  43.916  27.533  11.495
31635W        W90731  14.788  11.812  13.425
31636W        W90732  11.196  22.245  13.850
31637W        W90733   1.733  10.203  11.430
31638W        W90734  27.552  24.644  12.518
31639W        W90735   0.276  27.576  14.835
31640W        W90736  39.992  14.216  12.549
31641W        W90737  17.556  42.798  12.836
31642W        W90738  42.522  28.637  13.963
31643W        W90739   6.909  38.969   4.838
31644W        W90740  24.985  39.480   4.353
31645W        W90741   6.261  31.105  12.493
31646W        W90742   2.414  10.175   3.785
31647W        W90743   4.735  16.256   4.260
31648W        W90744  44.481  16.138   2.289
31649W        W90745  35.456  22.007  10.955
31650W        W90746   6.378  36.940  13.477
31651W        W90747   2.344  15.182  10.614
31652W        W90748   0.299  23.509  13.409
31653W        W90749   3.282  37.048  13.374
31654W        W90750  39.400  44.474   0.361
31655W        W90751  39.470  36.581   1.254
31656W        W90752  31.031  13.325  14.820
31657W        W90753  30.106  14.685  11.371
31658W        W90754  40.981  28.965  11.595
31659W        W90755  33.515  36.585   1.220
31660W        W90756  35.539  29.963  14.335
31661W        W90757  29.516  19.114  13.837
31662W        W90758  38.379  26.481  13.918
31663W        W90759  16.167  24.125  12.509
31664W        W90760  13.283  39.402   1.353
31665W        W90761  25.702  18.122   5.195
31666W        W90762  26.531  23.678  13.447
31667W        W90763  42.946   5.293   4.198
31668W        W90764   8.304   9.672   3.783
31669W        W90765  40.835  24.216  13.335
31670W        W90766  16.309  22.064   4.257
31671W        W90767  17.764  43.482   4.348
31672W        W90768  13.339   7.396  12.054
31673W        W90769  33.926  18.599   4.766
31674W        W90770  22.207  42.784  12.477
31675W        W90771  32.536  30.636  13.516
31676W        W90772   5.815  10.815  12.893
31677W        W90773   1.758  34.100  13.801
31678W        W90774   9.887  26.459   1.313
31679W        W90775  35.525  22.680   3.819
31680W        W90776  33.531  40.869  13.546
31681W        W90777  37.083   7.840   0.368
31682W        W90778  10.359  25.010   4.629
31683W        W90779  33.107  19.736   1.446
31684W        W90780  17.135  41.810  13.344
31685W        W90781  22.570   8.722   2.368
31686W        W90782  12.238  33.009  11.999
31687W        W90783  11.286  10.851  14.435
31688W        W90784   8.784   9.249  11.523
31689W        W90785  17.748  17.589  12.419
31690W        W90786  16.114   1.238  14.341
31691W        W90787  22.626   4.937  13.332
31692W        W90788  36.957  40.468   4.355
31693W        W90789  21.060  26.590   0.875
31694W        W90790   2.337  20.191  14.952
31695W        W90791  33.875   6.864  13.490
31696W        W90792   3.772   6.256   4.767
31697W        W90793  33.939   2.760  14.773
31698W        W90794  20.764  22.563   1.404
31699W        W90795  26.155  43.865   2.724
31700W        W90796  23.045  25.113  10.598
31701W        W90797  24.052  21.155  14.789
31702W        W90798  22.638  25.067  11.044
31703W        W90799   2.844  10.144  13.836
31704W        W90800   5.427  15.728   4.626
31705W        W90801  23.007  13.314   2.866
31706W        W90802  38.861  25.013   2.318
31707W        W90803  16.146  23.676   1.897
31708W        W90804  25.554  30.584  12.501
31709W        W90805  25.973   9.348   2.865
31710W        W90806  34.927  38.966  13.524
31711W        W90807   8.383  35.990  12.856
31712W        W90808   8.862   7.189   2.739
31713W        W90809  44.804  42.787   3.775
31714W        W90810  37.351  10.311   3.784
31715W        W90811  16.588  30.127  10.888
31716W        W90812  27.541  33.505  14.975
31717W        W90813  36.908  31.599  10.457
31718W        W90814  13.807  31.078  11.965
31719W        W90815  36.548  21.073  13.350
31720W        W90816   5.716  32.551  13.944
31721W        W90817   2.456   7.269  10.037
31722W        W90818  43.299  41.433  10.486
31723W        W90819   9.844  35.965   4.764
31724W        W90820  13.171   1.459  12.041
31725W        W90821  40.841  41.451  12.853
31726W        W90822  38.059   1.293  13.844
31727W        W90823  19.081  23.088   1.444
31728W        W90824  39.816  13.658  11.108
31729W        W90825  21.089  26.659   1.827
31730W        W90826  15.211  44.261  12.437
31731W        W90827   8.261  22.658  13.439
31732W        W90828  19.550  13.111  10.408
31733W        W90829  44.452  43.791   3.659
31734W        W90830   8.684  21.697   4.712
31735W        W90831  26.150  27.176   1.399
31736W        W90832  36.964  34.560  13.457
31737W        W90833  41.452   1.941  12.866
31738W        W90834   4.810  14.697   1.821
31739W        W90835  44.890   3.437  14.479
31740W        W90836  35.993  16.266   1.388
31741W        W90837   5.280   8.187   4.199
31742W        W90838  21.034  40.323   5.225
31743W        W90839   8.729  31.052   0.873
31744W        W90840  13.340  35.062   1.719
31745W        W90841  18.294  44.305  11.517
31746W        W90842   3.931  41.306   5.227
31747W        W90843  18.570  20.171  14.276
31748W        W90844  19.267  34.436  11.410
31749W        W90845  38.557  25.698   3.256
31750W        W90846  40.402  40.980  14.941
31751W        W90847  20.153   3.390   0.400
31752W        W90848  25.573  34.043   4.797
31753W        W90849  23.633  30.604  13.361
31754W        W90850   0.954  33.876  10.905
31755W        W90851   4.362  42.366  10.603
31756W        W90852   0.783  14.741  10.622
31757W        W90853   0.271  42.483  12.387
31758W        W90854   8.752  34.907  13.494
31759W        W90855  41.036   8.863  14.816
31760W        W90856  23.119  18.784   4.763
31761W        W90857   9.212  38.978   0.845
31762W        W90858  23.693   5.920  11.371
31763W        W90859  17.776  12.358  13.989
31764W        W90860   9.296  38.542   4.327
31765W        W90861  25.060  29.997  12.863
31766W        W90862   1.892  44.279   1.378
31767W        W90863  43.021  28.605  14.480
31768W        W90864  24.037  14.255   2.757
31769W        W90865   2.325  41.933  13.454
31770W        W90866  24.484  38.906  10.103
31771W        W90867   3.887  39.358  14.805
31772W        W90868  23.155   2.740  11.858
31773W        W90869  39.549  13.148  12.864
31774W        W90870  10.350   9.150   0.258
31775W        W90871  18.157  32.417  13.790
31776W        W90872  30.512  16.268   2.772
31777W        W90873  11.145  34.536  11.555
31778W        W90874  41.800  12.260  10.501
31779W        W90875  18.693  34.042   4.685
31780W        W90876   2.858  41.905  11.048
31781W        W90877   7.385  35.604   1.250
31782W        W90878  39.493  14.622   3.174
31783W        W90879   4.433  27.490  10.992
31784W        W90880  33.552  43.969   2.855
31785W        W90881  15.221  30.585  12.520
31786W        W90882  41.529  13.829  12.840
31787W        W90883  31.625  11.349   3.358
31788W        W90884  39.465  21.601  13.818
31789W        W90885   6.722  31.562  11.461
31790W        W90886  27.097  12.701   1.727
31791W        W90887  13.625  44.501  13.980
31792W        W90888  40.901  38.939   2.179
31793W        W90889  10.729   8.193   0.777
31794W        W90890  31.910   4.256   3.316
31795W        W90891  32.951  30.927   1.876
31796W        W90892  41.957   7.389  12.857
31797W        W90893  34.594  26.561   1.696
31798W        W90894  19.096   2.862   0.847
31799W        W90895  11.295   6.912   0.256
31800W        W90896  32.483  37.576   3.653
31801W        W90897  18.060  25.596   2.197
31802W        W90898  29.972  36.473  11.866
31803W        W90899  39.962   5.287  13.425
31804W        W90900  10.855  26.137  11.083
31805W        W90901  23.716  34.967   4.308
31806W        W90902   4.337   2.454   2.728
31807W        W90903  44.764  37.387   0.378
31808W        W90904  42.383   3.355  12.876
31809W        W90905  16.306   4.856  11.437
31810W        W90906  11.825  23.731  14.860
31811W        W90907  43.462  21.099   1.817
31812W        W90908   2.743  12.849   1.848
31813W        W90909  26.067  11.653   0.847
31814W        W90910  13.133  42.283   1.771
31815W        W90911  21.703  12.628  10.457
31816W        W90912  10.285  41.906   5.208
31817W        W90913  30.618  21.579  11.536
31818W        W90914  30.943  13.264   2.251
31819W        W90915  40.958  41.312  10.586
31820W        W90916  44.904  25.639  13.315
31821W        W90917  37.876  19.172  11.430
31822W        W90918  10.373  10.185  11.047
31823W        W90919   3.738  18.169   4.341
31824W        W90920   5.818  33.964   0.726
31825W        W90921  41.491  24.703   0.269
31826W        W90922  27.546  30.072  14.815
31827W        W90923  43.020  10.340  13.910
31828W        W90924  19.103   9.726   0.839
31829W        W90925  14.288  33.587  14.014
31830W        W90926  29.112  32.565  11.951
31831W        W90927   0.920   1.799   1.823
31832W        W90928   2.369  14.218   1.794
31833W        W90929  10.755  24.151  13.541
31834W        W90930  31.912  34.972  14.950
31835W        W90931  25.094  18.270   0.842
31836W        W90932  16.692   9.154  13.471
31837W        W90933  18.292  41.325   4.138
31838W        W90934   3.825  19.068   4.312
31839W        W90935  36.034   2.830  14.475
31840W        W90936  17.269  30.494  13.390
31841W        W90937  40.527  39.010  10.535
31842W        W90938   8.761  24.529   5.279
31843W        W90939  25.476   2.901  10.406
31844W        W90940   7.672  44.353   2.802
31845W        W90941  18.146  12.720  13.811
31846W        W90942  14.608  18.234   0.325
31847W        W90943  17.109  34.965   1.210
31848W        W90944  11.778  35.437  13.869
31849W        W90945   7.173  19.105   4.649
31850W        W90946  24.504   3.781   4.751
31851W        W90947  12.285   4.378  11.471
31852W        W90948  15.165  34.446   2.669
31853W        W90949   3.877  32.007  13.868
31854W        W90950   2.831   0.409   3.310
31855W        W90951  13.149  36.385  14.480
31856W        W90952  30.012  27.663   0.245
31857W        W90953  19.277  10.159   3.316
31858W        W90954   5.898  27.059   4.165
31859W        W90955  18.206  28.114  14.382
31860W        W90956  21.251  41.936  14.312
31861W        W90957  44.291  20.040   1.282
31862W        W90958  44.948   2.363  11.377
31863W        W90959  28.620  14.745   1.427
31864W        W90960  37.381   7.801  13.794
31865W        W90961  15.746  21.745   4.621
31866W        W90962   6.246  35.963  12.507
31867W        W90963  32.138  18.713  13.900
31868W        W90964  34.935  34.524  10.967
31869W        W90965  18.641  28.977   2.246
31870W        W90966  39.979   9.338  14.447
31871W        W90967  16.645  31.591  14.880
31872W        W90968  35.585  13.765   0.815
31873W        W90969   9.757   0.817   2.730
31874W        W90970  40.410  14.237  12.498
31875W        W90971  20.535   7.331  13.445
31876W        W90972   6.378  34.002   1.857
31877W        W90973  41.480  36.951  11.978
31878W        W90974  23.111   3.368   3.838
31879W        W90975  35.571   4.276   0.917
31880W        W90976  20.201  12.175  14.985
31881W        W90977   3.906  36.419  11.090
31882W        W90978   3.955  30.106   4.730
31883W        W90979  36.934  35.519   4.251
31884W        W90980   2.343  14.815  13.813
31885W        W90981  25.076  22.078  10.559
31886W        W90982  13.701  30.944  14.799
31887W        W90983  20.661  39.837   4.777
31888W        W90984  35.374  29.026   0.351
31889W        W90985  42.401   7.903   1.798
31890W        W90986  38.565  28.508  13.466
31891W        W90987   0.344  17.284   1.302
31892W        W90988  24.724  33.014  10.992
31893W        W90989  37.387  27.541  11.416
31894W        W90990  14.220  10.865   1.378
31895W        W90991   3.390  31.556   4.815
31896W        W90992  41.376  17.656  14.372
31897W        W90993  10.195  28.065  12.559
31898W        W90994  36.018  37.365  11.986
31899W        W90995  21.708  19.191  13.833
31900W        W90996   9.185   6.342  14.408
31901W        W90997   0.491  43.366  14.977
31902W        W90998  17.284  14.762  11.597
31903W        W90999  33.558  30.616  10.039
31904W        W91000  37.044  43.491   1.280
31905W        W91001  40.900   2.442  13.822
31906W        W91002  38.432   6.915  14.512
31907W        W91003  42.827   6.880   1.816
31908W        W91004  38.527  25.042   4.669
31909W        W91005   4.357  10.871   0.344
31910W        W91006  13.719   7.692   0.943
31911W        W91007  28.182  38.049   1.727
31912W        W91008   4.211   8.385   4.674
31913W        W91009   5.908  27.944  10.471
31914W        W91010   4.432   3.346  10.443
31915W        W91011  38.943  15.090  12.525
31916W        W91012   3.326   9.390  10.918
31917W        W91013  41.398  14.811   1.387
31918W        W91014  12.256   7.784  10.444
31919W        W91015  27.644   4.266  13.048
31920W        W91016  18.264  34.983  12.485
31921W        W91017  39.832   4.264   1.340
31922W        W91018   0.481  28.005   0.253
31923W        W91019   7.748  16.209   2.868
31924W        W91020  24.595  12.310   2.827
31925W        W91021   3.941  13.260  14.813
31926W        W91022   9.825  21.665  11.052
31927W        W91023  23.178  31.967   1.724
31928W        W91024  44.988  24.618   2.292
31929W        W91025  26.973  14.137   1.797
31930W        W91026  19.774  29.138  10.507
31931W        W91027  23.047  21.718   4.307
31932W        W91028  15.253  23.573   1.279
31933W        W91029  10.176  13.110   0.893
31934W        W91030  27.648  25.713  11.891
31935W        W91031  39.984  27.177   3.809
31936W        W91032   1.361  13.600  14.281
31937W        W91033  36.852   2.232   1.451
31938W        W91034  39.061  20.676  11.568
31939W        W91035  39.317   9.889   0.787
31940W        W91036  19.055  19.211  10.582
31941W        W91037  11.833  39.486   1.698
31942W        W91038  22.675   6.182  11.398
31943W        W91039  19.286   8.747  13.357
31944W        W91040  24.682  30.572   1.430
31945W        W91041  42.791  15.230  10.046
31946W        W91042  37.556  44.987  13.383
31947W        W91043  32.549   4.430   2.797
31948W        W91044  42.463  41.342  14.797
31949W        W91045  43.354  16.189   0.266
31950W        W91046  30.574   5.299  13.357
31951W        W91047  42.312  39.405  12.952
31952W        W91048  14.187  13.670   2.257
31953W        W91049   7.207  37.933  14.500
31954W        W91050  31.643  19.559   4.312
31955W        W91051  24.976   3.216  12.859
31956W        W91052  35.467  23.598   5.224
31957W        W91053  14.746  25.966   4.347
31958W        W91054  26.995  37.406   4.827
31959W        W91055  15.132  31.072  10.545
31960W        W91056  30.060  26.632  14.931
31961W        W91057  30.555  29.987   4.837
31962W        W91058  24.032  32.439   3.373
31963W        W91059  39.359  28.153   2.818
31964W        W91060   5.702  43.003  14.286
31965W        W91061  41.921  20.226   4.239
31966W        W91062  32.555   7.261   0.840
31967W        W91063  38.012  23.131  12.528
31968W        W91064  31.630  25.998  14.796
31969W        W91065  30.470   4.233  14.796
31970W        W91066   0.766  13.288   1.702
31971W        W91067   6.356  16.296   1.811
31972W        W91068  12.351  19.563   1.874
31973W        W91069  25.664  42.328   4.309
31974W        W91070   7.671   0.442  10.989
31975W        W91071  21.582  25.195  12.842
31976W        W91072  23.577  18.608  10.155
31977W        W91073  31.097  37.495  13.822
31978W        W91074  40.838   2.804   2.881
31979W        W91075  29.628  24.564   2.389
31980W        W91076  11.360   7.899  13.307
31981W        W91077  25.573  21.752  11.092
31982W        W91078  25.664  42.297  14.430
31983W        W91079   1.344   7.337  14.816
31984W        W91080  18.152  12.855   0.293
31985W        W91081  19.544  44.865  11.123
31986W        W91082  30.946  32.035   1.327
31987W        W91083  14.340  43.996   4.607
31988W        W91084   9.817  39.912   2.677
31989W        W91085   4.410  31.101   1.817
31990W        W91086  20.247  26.629   4.814
31991W        W91087  13.700   9.815   2.293
31992W        W91088  34.443  34.413   3.668
31993W        W91089  21.184   7.761  12.938
31994W        W91090  12.789  18.144  12.534
31995W        W91091  34.397   5.347   1.898
31996W        W91092  11.223  17.723   4.792
31997W        W91093  25.105  27.580   3.387
31998W        W91094   6.270   0.289  10.442
31999W        W91095  28.594  26.703  12.467
32000W        W91096  36.863  41.826   3.764
32001W        W91097  15.751  40.965  11.938
32002W        W91098  31.986  19.591  10.911
32003W        W91099   6.185  36.424  12.431
32004W        W91100  24.093  35.884   1.211
32005W        W91101  22.182  16.699   3.377
32006W        W91102   8.821  36.572  12.358
32007W        W91103  39.988   0.295  12.060
32008W        W91104   2.930  35.976   1.742
32009W        W91105  33.558  34.905  14.910
32010W        W91106  36.911  38.046   0.266
32011W        W91107   7.328  43.951  10.523
32012W        W91108  28.658  32.552  14.922
32013W        W91109  18.666  20.535  11.556
32014W        W91110  31.091  15.586   2.393
32015W        W91111  13.740  11.153   0.795
32016W        W91112  17.584   9.203   9.988
32017W        W91113  42.369  31.520  13.878
32018W        W91114  28.578   4.762   0.273
32019W        W91115  23.052  13.113  14.471
32020W        W91116  36.420   5.411   4.721
32021W        W91117  43.888  40.998   4.626
32022W        W91118   7.369  14.198  14.972
32023W        W91119  29.107  31.142  12.838
32024W        W91120  38.332  35.996  11.374
32025W        W91121  38.976   6.247  12.925
32026W        W91122   7.407  42.814   4.699
32027W        W91123  40.490   9.646   1.760
32028W        W91124   9.756   7.686   4.179
32029W        W91125  10.256  37.917   0.328
32030W        W91126  20.684  20.262   4.255
32031W        W91127   9.267  19.730   2.897
32032W        W91128  18.777  28.474  14.451
32033W        W91129  12.133  23.579   2.878
32034W        W91130  10.189   8.744   4.237
32035W        W91131  37.041   5.334   1.784
32036W        W91132   0.833  42.427   0.399
32037W        W91133  27.025  18.626  11.038
32038W        W91134  14.648  12.220  14.485
32039W        W91135  25.178  10.220  13.938
32040W        W91136   2.964  32.070  13.483
32041W        W91137  36.472  44.768  10.951
32042W        W91138  39.901   2.359   0.440
32043W        W91139   2.331   7.894   1.271
32044W        W91140  23.059  44.458  10.943
32045W        W91141   2.461  27.451   4.793
32046W        W91142  19.738   8.771   3.193
32047W        W91143  23.186   7.172   0.395
32048W        W91144  36.916  29.028  12.893
32049W        W91145  31.022   1.254   4.818
32050W        W91146  20.696  10.242   1.908
32051W        W91147   1.963  15.801  11.485
32052W        W91148   5.313  35.914  11.412
32053W        W91149  23.502  20.141  14.895
32054W        W91150   7.312  44.815  10.467
32055W        W91151  26.045  21.036   1.370
32056W        W91152  16.594  39.987   1.695
32057W        W91153  31.638  23.166  11.541
32058W        W91154  23.208   9.384   1.256
32059W        W91155   8.702  37.975   3.287
32060W        W91156  19.611  20.175  10.949
32061W        W91157  28.619  30.126  10.414
32062W        W91158   5.372  42.930  13.865
32063W        W91159  21.746  29.662  12.425
32064W        W91160  16.725  10.689   0.293
32065W        W91161   0.362  21.606   0.916
32066W        W91162  15.273   1.358   3.652
32067W        W91163  24.092  22.636  14.861
32068W        W91164  26.536   3.866  13.455
32069W        W91165  27.550  17.148  12.511
32070W        W91166   4.343   2.863   1.709
32071W        W91167   0.752  30.943   1.441
32072W        W91168   7.789   9.694  14.896
32073W        W91169  14.835  44.951   2.678
32074W        W91170   7.812  42.863  13.056
32075W        W91171  42.507  10.847  12.871
32076W        W91172   7.303  26.513   1.932
32077W        W91173  15.718   6.360  12.373
32078W        W91174  19.243  17.081   1.319
32079W        W91175  24.165  23.588  14.458
32080W        W91176  42.460   1.793  10.546
32081W        W91177  17.573  12.828  13.972
32082W        W91178  43.287   3.888  11.509
32083W        W91179  26.684  12.207   2.714
32084W        W91180   6.917  15.735   2.280
32085W        W91181  18.683  16.573   3.308
32086W        W91182  27.605  39.378  14.483
32087W        W91183  36.983  42.820  10.445
32088W        W91184  34.582  31.609   2.754
32089W        W91185  26.666  37.060  10.898
32090W        W91186  39.985   5.732   3.779
32091W        W91187   6.911  29.994  10.909
32092W        W91188  15.248  32.602   2.219
32093W        W91189  27.133  40.320  11.555
32094W        W91190  22.515  33.583   4.335
32095W        W91191  41.997  12.133  11.402
32096W        W91192  32.063  26.171   3.210
32097W        W91193  13.154  41.479   3.668
32098W        W91194   5.866  38.923  11.404
32099W        W91195  44.005  35.913   0.354
32100W        W91196  11.373   5.714  13.530
32101W        W91197  35.383  22.512  13.057
32102W        W91198  35.876  16.291   3.275
32103W        W91199  40.470  39.941  12.095
32104W        W91200  27.001  36.587   3.856
32105W        W91201  42.889  21.166  13.866
32106W        W91202   7.788  21.049   4.128
32107W        W91203  33.874  38.463  13.044
32108W        W91204  44.974  16.780   0.940
32109W        W91205  39.410  31.047  10.639
32110W        W91206   1.893  27.603   0.323
32111W        W91207  25.013  22.632   4.317
32112W        W91208  29.610  10.316   0.937
32113W        W91209  31.541  11.354  11.571
32114W        W91210   7.805  31.403   0.349
32115W        W91211  39.017   6.314  12.001
32116W        W91212   9.845  15.188   3.225
32117W        W91213  31.029  32.577  10.993
32118W        W91214  33.966  27.998   4.624
32119W        W91215  30.087  29.440   3.385
32120W        W91216  19.068  15.313   2.820
32121W        W91217  20.175  16.278  13.993
32122W        W91218  23.573   7.672  10.440
32123W        W91219  22.081  38.920   1.766
32124W        W91220  32.629   8.856  10.569
32125W        W91221   9.391  18.194   4.834
32126W        W91222  41.903  32.630  12.895
32127W        W91223   6.710  16.603  11.054
32128W        W91224  19.625  23.627   0.845
32129W        W91225   9.861  42.791   2.745
32130W        W91226   9.334  34.952   1.777
32131W        W91227  21.234  41.333  13.947
32132W        W91228  25.142  24.528  14.802
32133W        W91229  27.974  26.175  13.826
32134W        W91230  30.081  31.484   3.762
32135W        W91231  32.078  27.086  10.505
32136W        W91232  40.899  29.033  12.906
32137W        W91233   1.243  20.654   0.839
32138W        W91234  22.043  27.446   4.613
32139W        W91235  26.481  24.504   0.896
32140W        W91236   9.156  41.345   1.254
32141W        W91237   9.388  42.008  11.605
32142W        W91238  37.031  38.520  10.525
32143W        W91239   0.829   5.233  13.496
32144W        W91240   7.394  36.483   2.810
32145W        W91241  24.525  18.066   2.826
32146W        W91242  34.915  42.308  13.330
32147W        W91243  23.174  25.632  13.991
32148W        W91244  44.914  17.173  10.617
32149W        W91245  38.416  24.119  13.526
32150W        W91246  34.422  35.018  10.435
32151W        W91247   8.357   6.421   3.362
32152W        W91248   0.905   0.473  14.390
32153W        W91249   6.807  10.866   4.702
32154W        W91250  32.527   2.907   2.821
32155W        W91251  16.598  19.588  14.434
32156W        W91252   0.831  44.451  12.386
32157W        W91253   4.936  18.065  13.849
32158W        W91254   8.711   7.720  14.861
32159W        W91255   3.248  18.745  13.387
32160W        W91256  38.006  21.600  12.504
32161W        W91257  27.015   4.351  11.098
32162W        W91258  11.188  43.298  14.902
32163W        W91259  18.152  38.023   4.625
32164W        W91260   9.829  35.954   2.269
32165W        W91261  13.609  16.309  14.853
32166W        W91262  35.393   1.954   1.395
32167W        W91263  42.900  28.030   3.717
32168W        W91264  16.600  37.513  13.352
32169W        W91265  43.447   1.337  13.870
32170W        W91266  43.934  36.923  11.475
32171W        W91267  36.510  18.286  13.481
32172W        W91268  17.286  31.146   3.708
32173W        W91269  22.573   2.261  10.101
32174W        W91270   0.301   3.757  13.329
32175W        W91271   9.683  30.534   0.960
32176W        W91272  41.306  20.657  13.964
32177W        W91273  35.560  14.130   3.839
32178W        W91274  25.040  10.699   3.813
32179W        W91275   7.689  34.896   3.685
32180W        W91276  10.318  40.837   1.736
32181W        W91277  41.976  15.802   1.431
32182W        W91278  33.907  35.369  14.386
32183W        W91279   3.240  16.271  12.462
32184W        W91280  22.628  14.130   0.264
32185W        W91281  44.879  22.033  13.449
32186W        W91282  14.652   6.290   5.117
32187W        W91283  18.646  44.842   1.387
32188W        W91284  44.945  28.141   0.370
32189W        W91285  26.995  30.056  13.426
32190W        W91286  25.986   9.252  11.406
32191W        W91287  30.423   8.678  13.440
32192W        W91288   7.296  30.111  12.369
32193W        W91289   1.735  41.830   0.479
32194W        W91290  21.092  23.546  13.521
32195W        W91291  22.131   9.728  10.128
32196W        W91292  40.907  31.920   0.393
32197W        W91293  39.048  29.626   1.792
32198W        W91294   8.893  14.729   4.787
32199W        W91295  28.022  36.868   2.205
32200W        W91296  33.484  41.485  13.367
32201W        W91297  41.823   7.816   3.261
32202W        W91298  10.163  25.100  10.527
32203W        W91299  16.261  13.664  12.017
32204W        W91300  31.149  31.072   1.912
32205W        W91301  24.586  34.962  14.015
32206W        W91302  42.357  12.667   2.686
32207W        W91303  10.772  40.949  11.878
32208W        W91304  40.354  16.105  12.892
32209W        W91305  25.203  41.978  11.124
32210W        W91306   7.879  12.140   2.866
32211W        W91307  11.286   1.880  13.332
32212W        W91308  31.083  38.565   0.795
32213W        W91309  33.900  14.709   2.749
32214W        W91310  33.466  29.089  12.971
32215W        W91311  32.598  43.887  11.958
32216W        W91312   7.232  31.423  11.006
32217W        W91313  42.918  19.601   3.252
32218W        W91314  12.767  36.575   4.628
32219W        W91315  39.341  11.266  14.961
32220W        W91316  42.021   7.293  11.438
32221W        W91317  12.296  11.266   3.769
32222W        W91318  18.269  39.472  14.394
32223W        W91319   8.739  16.804  12.835
32224W        W91320  34.052  41.497  13.545
32225W        W91321  20.071  37.971  11.014
32226W        W91322   5.716  39.949   2.664
32227W        W91323  20.537  34.062  11.977
32228W        W91324  24.010   2.389   4.210
32229W        W91325   7.688  26.166   4.215
32230W        W91326   8.731  18.729  12.540
32231W        W91327  44.910   3.902   3.850
32232W        W91328   9.862   6.420   0.344
32233W        W91329  29.572  37.060  10.494
32234W        W91330  33.978  29.964  11.429
32235W        W91331  18.641   0.354   1.366
32236W        W91332  22.533  39.812   4.738
32237W        W91333   4.803  23.729   3.250
32238W        W91334   8.235  12.623   4.124
32239W        W91335   9.759  29.509   9.975
32240W        W91336  39.433  35.927   1.771
32241W        W91337   0.485  27.177   2.684
32242W        W91338  44.774   0.812  12.373
32243W        W91339   4.806  34.901   4.344
32244W        W91340  17.606   6.851  10.559
32245W        W91341   5.391  44.418  12.534
32246W        W91342   1.743  36.463   2.866
32247W        W91343  43.339   1.798   1.216
32248W        W91344  28.110  12.334   4.191
32249W        W91345  21.202   6.272   1.266
32250W        W91346  11.294  13.256  12.871
32251W        W91347  37.899  19.139  14.451
32252W        W91348   7.191  22.647   2.793
32253W        W91349  14.721  34.608  10.936
32254W        W91350  17.783  39.375   9.930
32255W        W91351   1.854  37.499  11.552
32256W        W91352  25.594  24.009   1.806
32257W        W91353  35.856  30.993  11.514
32258W        W91354   5.305   2.821   2.842
32259W        W91355   9.687  18.265   2.749
32260W        W91356  23.527  12.794   0.322
32261W        W91357  40.346   0.881   2.707
32262W        W91358  33.056  18.624   1.422
32263W        W91359  39.969  41.995  13.346
32264W        W91360  21.749  39.940  13.425
32265W        W91361  27.505  16.679   2.902
32266W        W91362   5.798  43.441  13.475
32267W        W91363  31.990   6.923   0.908
32268W        W91364  27.595  37.071  11.946
32269W        W91365   3.372   3.343   3.335
32270W        W91366  38.338  23.223   3.697
32271W        W91367  41.381  17.625   4.723
32272W        W91368  24.699  44.403   0.765
32273W        W91369  20.212  22.713   3.691
32274W        W91370  40.996  21.646   0.937
32275W        W91371  44.853   3.342  11.457
32276W        W91372  22.511   6.270  14.301
32277W        W91373  23.051  14.271  12.002
32278W        W91374  17.117  43.456  12.357
32279W        W91375  19.112  40.896   4.150
32280W        W91376  42.520  16.177   4.310
32281W        W91377   0.357  11.768  14.996
32282W        W91378  25.130  15.289  14.395
32283W        W91379   8.386   8.397   0.769
32284W        W91380  17.237   7.868  12.856
32285W        W91381  42.786   7.707  14.790
32286W        W91382   9.326  23.673  11.481
32287W        W91383  44.940  21.600  11.585
32288W        W91384  19.140  38.423   0.461
32289W        W91385   3.766  16.308   4.743
32290W        W91386   6.211  15.191   4.700
32291W        W91387  32.051  13.336  14.028
32292W        W91388  24.516  13.248  14.968
32293W        W91389   8.207   5.839  11.518
32294W        W91390  34.004  17.591   2.396
32295W        W91391   9.351  33.909  10.634
32296W        W91392  42.856  17.662  11.992
32297W        W91393   1.274  17.210  14.454
32298W        W91394  34.571  38.937  13.885
32299W        W91395  36.516  16.782  11.935
32300W        W91396  40.880  28.436   1.341
32301W        W91397  16.710  15.793   1.755
32302W        W91398  11.702  25.594   1.249
32303W        W91399  23.632   3.441   3.773
32304W        W91400  39.030  38.014  13.480
32305W        W91401  43.825  27.168  10.471
32306W        W91402  19.761  34.370  14.759
32307W        W91403  41.298  34.494  13.878
32308W        W91404  39.373  23.706  13.471
32309W        W91405  36.952   4.343   3.749
32310W        W91406   3.881  28.652   3.263
32311W        W91407  22.593  24.093   2.313
32312W        W91408  32.466  43.779   3.289
32313W        W91409   3.309  39.430   2.872
32314W        W91410  10.144   7.396   4.278
32315W        W91411  43.298  27.587  11.019
32316W        W91412  20.204  14.318   2.264
32317W        W91413  38.349  35.988   3.806
32318W        W91414  39.393  43.773   3.771
32319W        W91415  39.469  23.029   2.746
32320W        W91416  24.534  21.662   1.299
32321W        W91417  17.794  42.944   3.156
32322W        W91418  31.154  22.501   3.671
32323W        W91419  16.123  38.951  12.824
32324W        W91420  20.031   3.373  11.426
32325W        W91421  29.981  20.609   3.151
32326W        W91422  15.200  32.625  13.505
32327W        W91423  13.321  18.262   2.772
32328W        W91424  14.258  24.703   3.152
32329W        W91425  27.573  19.583   0.271
32330W        W91426  34.396  40.367  12.855
32331W        W91427  35.091  43.363   2.255
32332W        W91428  19.221   6.692  14.972
32333W        W91429   9.733  24.074   2.211
32334W        W91430  18.147  25.034  14.486
32335W        W91431  11.828  29.031   0.352
32336W        W91432   3.859   7.235   1.916
32337W        W91433   5.884  12.765  12.474
32338W        W91434   6.839  21.589   1.902
32339W        W91435  31.104  15.737   4.137
32340W        W91436  26.643  12.750   0.896
32341W        W91437  44.884  18.706   0.737
32342W        W91438   0.747  34.981   4.326
32343W        W91439   4.389   7.903   4.628
32344W        W91440   2.950  10.184  10.998
32345W        W91441   7.871   7.297  11.973
32346W        W91442  26.477  13.623   0.276
32347W        W91443  17.767  25.064   4.306
32348W        W91444  33.474   6.211   0.807
32349W        W91445   5.308  16.255  11.063
32350W        W91446  31.106   1.427  12.899
32351W        W91447   4.362  31.033   0.820
32352W        W91448  26.051   7.276   1.890
32353W        W91449  43.858   6.371   3.361
32354W        W91450  34.911  12.160   2.740
32355W        W91451   6.776   2.769  12.855
32356W        W91452  14.807  42.987   0.455
32357W        W91453  17.698  37.858  14.783
32358W        W91454  37.901  19.719  11.484
32359W        W91455  37.021  16.782  14.424
32360W        W91456  33.047  16.627  14.466
32361W        W91457  32.135  25.122   0.406
32362W        W91458  15.212  33.070  10.598
32363W        W91459  19.042  17.750   3.744
32364W        W91460  11.237  11.345   3.378
32365W        W91461  22.600   6.337  13.838
32366W        W91462  38.976  42.304  13.952
32367W        W91463   9.679  34.524   4.266
32368W        W91464   5.831  27.460   4.179
32369W        W91465  10.743  25.011  10.643
32370W        W91466   5.220   2.945   3.759
32371W        W91467  22.153  18.713  12.474
32372W        W91468  14.593  12.852  13.462
32373W        W91469  19.164  26.685  13.829
32374W        W91470  12.741  33.429  11.377
32375W        W91471  21.227  34.119  13.034
32376W        W91472   9.336  10.735   3.349
32377W        W91473  40.384  44.278  11.970
32378W        W91474  43.443  10.275  11.411
32379W        W91475  32.088   0.391  14.904
32380W        W91476  32.617  35.025   3.681
32381W        W91477   4.381  29.664  12.894
32382W        W91478   8.815  40.539   2.787
32383W        W91479  19.159   0.281   2.860
32384W        W91480  14.221  44.296  10.450
32385W        W91481   3.875  21.068  13.029
32386W        W91482  27.540   2.457  12.441
32387W        W91483  39.343  15.597   1.743
32388W        W91484   5.780  43.342  14.464
32389W        W91485  31.444  43.976  11.943
32390W        W91486  28.437   1.244  12.434
32391W        W91487   6.684  19.186   3.240
32392W        W91488  34.972  11.139  14.006
32393W        W91489  25.519   5.871   0.841
32394W        W91490  33.422  31.423  11.860
32395W        W91491  24.619  42.920  14.007
32396W        W91492   8.849  33.402  13.920
32397W        W91493  12.746  22.251   3.327
32398W        W91494  14.171  36.354   0.920
32399W        W91495  41.328  27.656  14.911
32400W        W91496  22.173  38.549  10.920
32401W        W91497  40.920  10.348   2.764
32402W        W91498  29.665  10.370   1.382
32403W        W91499  19.093  28.093  11.564
32404W        W91500  24.195  21.532   3.249
32405W        W91501   0.965  26.605   2.725
32406W        W91502  40.488  37.423   2.689
32407W        W91503  27.682  25.158   2.180
32408W        W91504   7.887  38.540  14.009
32409W        W91505  34.570  37.048  12.560
32410W        W91506   7.854  36.974   2.292
32411W        W91507  11.215   0.899  14.826
32412W        W91508  23.731  16.624  10.974
32413W        W91509  30.136   6.865  11.420
32414W        W91510   0.333   7.416  13.489
32415W        W91511  16.629   5.766   1.807
32416W        W91512   4.287  29.001  11.972
32417W        W91513  22.011  38.327   2.875
32418W        W91514  35.105   1.396  12.978
32419W        W91515   3.868  12.686  14.428
32420W        W91516  14.655  28.490   1.872
32421W        W91517  33.033   2.739   0.433
32422W        W91518  10.169  20.766  13.808
32423W        W91519  24.630   2.735   3.676
32424W        W91520  19.713   4.394  11.059
32425W        W91521  11.347  23.513   4.234
32426W        W91522  24.499  11.360   0.847
32427W        W91523   1.785  27.125   3.205
32428W        W91524  14.113  17.197  11.542
32429W        W91525  10.734  40.857   2.198
32430W        W91526  26.653  28.138   3.372
32431W        W91527  19.079  12.621  14.022
32432W        W91528  44.399  29.461  12.560
32433W        W91529  18.065  16.699   3.193
32434W        W91530  39.031  17.125   2.776
32435W        W91531  41.470  12.752  11.503
32436W        W91532   8.895  14.142  12.039
32437W        W91533  21.211   0.398   0.944
32438W        W91534  21.672  39.893  11.522
32439W        W91535  35.379  16.091   1.920
32440W        W91536  34.924   3.422   2.894
32441W        W91537  12.248  39.534  11.116
32442W        W91538  32.930  40.379   0.389
32443W        W91539   3.764  44.835   0.874
32444W        W91540   7.301   9.733  14.875
32445W        W91541  23.608  23.506  13.531
32446W        W91542  33.087  24.107  12.929
32447W        W91543  15.729  27.602   3.870
32448W        W91544   2.233  31.091  10.442
32449W        W91545  25.664  15.297  10.997
32450W        W91546  29.025  22.666   4.775
32451W        W91547   5.710  32.457  10.531
32452W        W91548  18.787  39.468  12.957
32453W        W91549  38.055  44.811   1.780
32454W        W91550  12.610  40.522  13.457
32455W        W91551  15.266  23.161   1.319
32456W        W91552  40.318  23.550  11.065
32457W        W91553   3.315   0.356  14.783
32458W        W91554  25.209  22.599  14.342
32459W        W91555  36.580  37.904   0.461
32460W        W91556   0.404  17.272  11.486
32461W        W91557  24.032   0.256  12.900
32462W        W91558   6.866   6.426   2.373
32463W        W91559  17.657  19.154   0.404
32464W        W91560  33.049  37.482   5.151
32465W        W91561  39.992  35.077   1.721
32466W        W91562  13.337   8.722   3.332
32467W        W91563   1.319  31.993   1.308
32468W        W91564   7.350   0.248  10.460
32469W        W91565   9.793  17.065   2.674
32470W        W91566  13.752  28.987  14.334
32471W        W91567  42.388  43.324   4.323
32472W        W91568  38.368   6.713  12.350
32473W        W91569  37.974  19.663  11.894
32474W        W91570  39.856  11.272  13.810
32475W        W91571  11.226   2.795  12.830
32476W        W91572  32.571  12.762  12.399
32477W        W91573   8.828  41.790   0.277
32478W        W91574   8.673  43.468  10.962
32479W        W91575   8.309  18.104   3.767
32480W        W91576   6.885   2.840  13.425
32481W        W91577  26.156  13.845   4.202
32482W        W91578   7.370  28.586  13.818
32483W        W91579  19.536  44.286   2.345
32484W        W91580  21.030  32.899  10.522
32485W        W91581  34.399   3.748   4.325
32486W        W91582  32.587  20.222   1.439
32487W        W91583  21.147  21.732  11.876
32488W        W91584   1.330  25.652  14.416
32489W        W91585   9.213  22.647   9.971
32490W        W91586  14.336  12.732  14.029
32491W        W91587  10.729  12.758   4.730
32492W        W91588  32.965  34.556  13.350
32493W        W91589  38.969   0.869  12.396
32494W        W91590  30.609  12.252   0.776
32495W        W91591   6.886   5.868  11.524
32496W        W91592  19.673   2.300  10.498
32497W        W91593  12.259  12.815   3.158
32498W        W91594   9.670  15.217  11.079
32499W        W91595  27.123  33.014   1.346
32500W        W91596  26.604   6.252   0.762
32501W        W91597   2.773  16.745  12.858
32502W        W91598  29.659  38.828   4.200
32503W        W91599   1.428   3.233  14.939
32504W        W91600  27.626  37.446  12.855
32505W        W91601  14.102  38.510  10.048
32506W        W91602  14.808  24.523  10.469
32507W        W91603   0.268  14.726  12.523
32508W        W91604  44.973  17.733  14.927
32509W        W91605  31.445  31.112   0.842
32510W        W91606  25.520  22.695   4.751
32511W        W91607  29.656   8.900   1.750
32512W        W91608  37.371   1.794   3.661
32513W        W91609  35.986  16.670   2.883
32514W        W91610  37.031  17.259   5.593
32515W        W91611  32.596  14.626  14.968
32516W        W91612   5.830  39.485   2.208
32517W        W91613   1.805  12.216  13.464
32518W        W91614  15.781  20.036   4.701
32519W        W91615   0.327  18.143  10.563
32520W        W91616  36.412  21.223  12.357
32521W        W91617   5.353   5.710   3.777
32522W        W91618   7.668   9.680   4.157
32523W        W91619  40.801  20.158  11.965
32524W        W91620  42.494   1.876   2.392
32525W        W91621  33.440  32.534  12.404
32526W        W91622  42.829  22.656   5.161
32527W        W91623  20.756  33.126   0.871
32528W        W91624  39.370  34.978   4.287
32529W        W91625   5.806  34.956   2.208
32530W        W91626   7.325  21.156  11.418
32531W        W91627   5.721  12.682   4.127
32532W        W91628  26.463   3.832  14.366
32533W        W91629  22.735  15.167  13.933
32534W        W91630  17.267  41.486   4.295
32535W        W91631  33.889  40.408   1.879
32536W        W91632  40.986  31.968  13.052
32537W        W91633   5.866  20.052   2.899
32538W        W91634  17.728  33.589  10.531
32539W        W91635  13.682   2.747  14.924
32540W        W91636  37.917  32.063  10.104
32541W        W91637   9.320  32.524  13.917
32542W        W91638  38.016  31.938  13.919
32543W        W91639  11.628  44.827   0.826
32544W        W91640  38.871  26.473   4.778
32545W        W91641  10.652  21.025  14.474
32546W        W91642   3.277   7.679   3.244
32547W        W91643  24.974  40.317   0.466
32548W        W91644   1.824  43.779  12.939
32549W        W91645  37.514  30.045  13.038
32550W        W91646  14.780   4.857  10.525
32551W        W91647   4.343  21.150  13.900
32552W        W91648  11.676  36.421  14.772
32553W        W91649   4.426  40.944   4.600
32554W        W91650  34.917  23.619  14.789
32555W        W91651  16.099   6.702  12.448
32556W        W91652  29.444  43.988   1.741
32557W        W91653  14.199  40.310  13.960
32558W        W91654   8.863  23.649  13.385
32559W        W91655  22.055  20.225   2.793
32560W        W91656  14.796  34.876   0.949
32561W        W91657   4.718  13.118  13.848
32562W        W91658   7.312   4.220   2.393
32563W        W91659  34.399  42.863  14.996
32564W        W91660  16.123  34.994  12.532
32565W        W91661   3.215  13.625   1.255
32566W        W91662  29.641  40.833  14.318
32567W        W91663  35.077  15.623  11.924
32568W        W91664  29.441  13.695  14.001
32569W        W91665   5.802  41.495   2.403
32570W        W91666  37.562  10.741   3.300
32571W        W91667   1.284  14.624   2.719
32572W        W91668  10.819  39.482   4.276
32573W        W91669  22.568  23.561   2.894
32574W        W91670  40.919  43.478   2.901
32575W        W91671  31.060  11.801  14.348
32576W        W91672  12.761   5.700   4.650
32577W        W91673  34.428   1.272  13.442
32578W        W91674  34.493  20.034  10.975
32579W        W91675   4.377  30.578  14.502
32580W        W91676   4.213   4.882   0.372
32581W        W91677  17.083  39.527  13.315
32582W        W91678   7.751  44.280  11.112
32583W        W91679  27.504  41.803   2.882
32584W        W91680  28.941  38.563  12.533
32585W        W91681  23.519  38.570  13.506
32586W        W91682  26.067  41.796   4.813
32587W        W91683  10.231  29.464  12.947
32588W        W91684  28.159  38.511  10.921
32589W        W91685  29.518  39.960  11.859
32590W        W91686  34.431  39.856   3.864
32591W        W91687  28.508   3.390   3.378
32592W        W91688  12.627  44.935  10.516
32593W        W91689  14.688  21.244  11.524
32594W        W91690  41.417  41.952   0.285
32595W        W91691  16.155  34.092   4.697
32596W        W91692  30.492  29.550   3.172
32597W        W91693   1.740  35.052   0.814
32598W        W91694  23.237  40.895  13.490
32599W        W91695  25.605   4.737   0.429
32600W        W91696  17.628  22.074   0.423
32601W        W91697  25.043   6.293  10.487
32602W        W91698  28.043  17.213  11.569
32603W        W91699  42.830  39.974   0.275
32604W        W91700  11.717  11.182   3.150
32605W        W91701  20.573  38.506  13.451
32606W        W91702   3.807  36.466  13.505
32607W        W91703  29.994   2.839   1.425
32608W        W91704  21.191  24.559  13.485
32609W        W91705  38.065  18.763  11.924
32610W        W91706  32.113  24.973   3.322
32611W        W91707  39.361  34.061  13.457
32612W        W91708  10.342  22.227   2.317
32613W        W91709  39.410   5.427  14.892
32614W        W91710  34.373  38.838  12.083
32615W        W91711  23.519  23.711   1.298
32616W        W91712  13.667   9.655  12.053
32617W        W91713  41.901  25.622   0.317
32618W        W91714  13.641  32.430   4.197
32619W        W91715   9.272  13.348  14.015
32620W        W91716  33.563   6.880   3.170
32621W        W91717  42.775  31.456  11.128
32622W        W91718  17.671  34.092  12.989
32623W        W91719  12.844  37.453  10.441
32624W        W91720  38.963  16.641   4.686
32625W        W91721  17.156  21.625  10.475
32626W        W91722  26.000  25.019  14.936
32627W        W91723  38.522   9.860  11.856
32628W        W91724  18.717   6.704   4.339
32629W        W91725   0.423  27.066   4.188
32630W        W91726  15.654   4.298   4.622
32631W        W91727  40.896  29.505  14.391
32632W        W91728  25.521  34.038  14.910
32633W        W91729  31.932  16.665  14.990
32634W        W91730  33.995  43.792  13.842
32635W        W91731  43.980  28.612  14.393
32636W        W91732  31.517  37.834   1.912
32637W        W91733  37.336  29.650  14.446
32638W        W91734   8.162  22.735  10.487
32639W        W91735  42.816  35.564   1.903
32640W        W91736  16.579  35.102  14.788
32641W        W91737  19.694  18.719   3.709
32642W        W91738  15.640  14.293   2.736
32643W        W91739   4.819  14.832   0.455
32644W        W91740  13.834  21.188  12.466
32645W        W91741  37.503  42.369   1.281
32646W        W91742   1.250  17.081   2.368
32647W        W91743   4.354  26.611   1.701
32648W        W91744   3.372  33.058  14.913
32649W        W91745   1.274  10.284  14.826
32650W        W91746  26.611  32.994  10.975
32651W        W91747  26.602  19.129  13.876
32652W        W91748  22.614   2.785  14.862
32653W        W91749  26.964  15.728   1.917
32654W        W91750  36.360  20.693   0.436
32655W        W91751  34.873  37.455   2.396
32656W        W91752  35.367  24.646   0.441
32657W        W91753  32.908   7.332   0.349
32658W        W91754   1.425  21.590  12.869
32659W        W91755  31.026  44.980   2.335
32660W        W91756  19.577  38.832   4.309
32661W        W91757  18.072  23.125   4.279
32662W        W91758   6.407  39.055  11.413
32663W        W91759   3.446  43.431   1.838
32664W        W91760  40.434  11.744  14.881
32665W        W91761  28.053  27.548   2.257
32666W        W91762   6.355  18.189   2.231
32667W        W91763  19.713  15.125   0.928
32668W        W91764  39.403  26.666  10.529
32669W        W91765   7.369  20.206   3.375
32670W        W91766  21.733  25.599  14.469
32671W        W91767  41.939   4.912   2.871
32672W        W91768  29.452   4.717   4.310
32673W        W91769   6.349   0.756  12.998
32674W        W91770  19.157  25.172  10.640
32675W        W91771  41.016   8.363  14.016
32676W        W91772  42.908  19.712   4.292
32677W        W91773  23.065  19.136   9.957
32678W        W91774  40.525  15.148  13.969
32679W        W91775   3.955  26.600   3.772
32680W        W91776  19.244  28.460  14.283
32681W        W91777  14.697  36.020   2.797
32682W        W91778  40.365  38.921  13.830
32683W        W91779  20.228  30.546  10.469
32684W        W91780  15.136  29.172   1.389
32685W        W91781  22.249  16.314  14.833
32686W        W91782  41.843   7.745   2.679
32687W        W91783  30.027   6.827  14.352
32688W        W91784   6.413  15.639   1.820
32689W        W91785  32.467  24.481   2.827
32690W        W91786  20.693  35.597  12.542
32691W        W91787   0.330  24.593  14.858
32692W        W91788  42.008  17.069  14.803
32693W        W91789   7.198  37.846  11.026
32694W        W91790   1.936   5.796  13.392
32695W        W91791   6.826  21.606   2.375
32696W        W91792  34.474  12.265   0.912
32697W        W91793   6.400  23.543  14.507
32698W        W91794   6.859  31.514  10.578
32699W        W91795  35.949  22.238   3.384
32700W        W91796   7.289  28.065  14.498
32701W        W91797  12.183  18.761   0.292
32702W        W91798  37.515  25.995   1.695
32703W        W91799   5.690  36.028  12.577
32704W        W91800  29.961  11.692  10.458
32705W        W91801   1.399   6.236  13.042
32706W        W91802  26.613  25.645  14.996
32707W        W91803  44.803  22.614   9.926
32708W        W91804  21.631  10.732   1.314
32709W        W91805  25.549  41.839  11.923
32710W        W91806  33.589  18.697   1.755
32711W        W91807  30.017  19.252   3.720
32712W        W91808  30.910  20.723   0.365
32713W        W91809  26.633  28.458   1.372
32714W        W91810  25.711  33.418  13.914
32715W        W91811  21.758  21.068   3.342
32716W        W91812  39.880  44.817  13.794
32717W        W91813  40.336  25.136   2.416
32718W        W91814   8.230  24.026   3.192
32719W        W91815  34.058  20.174   3.196
32720W        W91816  13.346  11.164  10.906
32721W        W91817   9.836  44.854   0.345
32722W        W91818   3.434  44.977  13.906
32723W        W91819  10.359  27.050   2.360
32724W        W91820  28.019   7.752   1.756
32725W        W91821  14.298  26.163   0.455
32726W        W91822  31.525  10.150   3.229
32727W        W91823  19.640  39.344   3.839
32728W        W91824  43.815  26.149  12.066
32729W        W91825  41.889  31.586   3.664
32730W        W91826  20.110  33.434   4.832
32731W        W91827  10.267  33.985   4.174
32732W        W91828   3.744  16.115  12.374
32733W        W91829  35.981  40.013   3.649
32734W        W91830  10.871  18.572  10.422
32735W        W91831  10.248   1.951   3.803
32736W        W91832  14.328   7.304   2.391
32737W        W91833  14.301   0.335   4.758
32738W        W91834   8.843  20.193  13.495
32739W        W91835  28.505  19.777  14.513
32740W        W91836  34.917  10.813   0.347
32741W        W91837  39.359  43.769  13.948
32742W        W91838  11.294  36.067   3.759
32743W        W91839  43.900  10.287   0.817
32744W        W91840  35.416  41.472   1.837
32745W        W91841  17.116  21.075   2.799
32746W        W91842  21.129  23.731   3.724
32747W        W91843  27.097  10.220   3.232
32748W        W91844  34.885  30.974  13.792
32749W        W91845  15.296  28.598   3.322
32750W        W91846  25.576  31.972   5.255
32751W        W91847  17.114  38.882   4.719
32752W        W91848  43.404  12.290  12.095
32753W        W91849   2.288   6.853   1.377
32754W        W91850  34.117   7.821   4.659
32755W        W91851  23.190  36.978  11.560
32756W        W91852   6.204  36.035   1.306
32757W        W91853  13.774  44.940  13.432
32758W        W91854  26.178  23.074   2.722
32759W        W91855  25.494  25.532   3.803
32760W        W91856  13.803   8.795  14.342
32761W        W91857  15.808   4.345  12.455
32762W        W91858  19.539  40.447  11.507
32763W        W91859   8.298  43.939  12.907
32764W        W91860  22.114  44.876   2.759
32765W        W91861   5.816  40.489   4.275
32766W        W91862  41.480  36.353   0.860
32767W        W91863  25.483  40.801  11.917
32768W        W91864  23.496  42.504   1.274
32769W        W91865  15.255  23.652  11.864
32770W        W91866  20.268  41.958   4.276
32771W        W91867  37.410  26.617   4.256
32772W        W91868  26.467  38.369  10.617
32773W        W91869   2.471  15.585  12.537
32774W        W91870   7.865  24.624   2.788
32775W        W91871  23.172   8.386   4.769
32776W        W91872  29.005  31.096  13.451
32777W        W91873  41.343  18.556   4.139
32778W        W91874  17.237  39.935   1.312
32779W        W91875  39.511   1.433  10.627
32780W        W91876  32.934   6.749  11.994
32781W        W91877  35.448  25.180   5.222
32782W        W91878   3.335  40.011  14.790
32783W        W91879   2.408  18.139  10.076
32784W        W91880  14.781   5.801   2.764
32785W        W91881  13.621  32.960   1.235
32786W        W91882  32.569   0.955  11.510
32787W        W91883  42.409   3.297   3.682
32788W        W91884  16.743  38.400  12.446
32789W        W91885  20.077  24.205  11.375
32790W        W91886  25.108  17.710   4.622
32791W        W91887  27.562  10.158  13.307
32792W        W91888  27.015   4.332  13.427
32793W        W91889  27.548  38.992   4.796
32794W        W91890  14.121  33.998  10.549
32795W        W91891   5.780  41.909  12.355
32796W        W91892  27.550  16.139  13.011
32797W        W91893  31.571  13.621  10.495
32798W        W91894  33.921  33.940   1.733
32799W        W91895   1.954  44.990  11.046
32800W        W91896   2.740  23.602  12.997
32801W        W91897  39.988  14.205  12.924
32802W        W91898   8.836  43.493   4.278
32803W        W91899  14.295  18.764   2.789
32804W        W91900   7.858  10.681   3.815
32805W        W91901  42.803  17.146   3.738
32806W        W91902   1.865  44.304  10.502
32807W        W91903  19.668  19.059  13.825
32808W        W91904  20.677  26.972  12.927
32809W        W91905  12.287  31.995   1.339
32810W        W91906  35.974   7.357  14.333
32811W        W91907  24.610  27.602   2.682
32812W        W91908  18.089   8.304   3.666
32813W        W91909   0.399  44.383   4.305
32814W        W91910  10.271  25.688   4.199
32815W        W91911   6.878  32.939   0.368
32816W        W91912  40.916  27.447   1.439
32817W        W91913  28.093  43.918  10.926
32818W        W91914  10.704  25.133  13.435
32819W        W91915   4.879  24.010   3.664
32820W        W91916  24.194  19.062   1.751
32821W        W91917  35.992  13.689   2.385
32822W        W91918  24.686  18.106   9.436
32823W        W91919  25.472  20.667  10.965
32824W        W91920  12.160  40.016  11.413
32825W        W91921  40.978  13.118   0.730
32826W        W91922  21.735  36.435   5.109
32827W        W91923  25.197  37.559  14.303
32828W        W91924   1.772   5.404  12.527
32829W        W91925  11.222  14.672  12.506
32830W        W91926  38.447  35.512   1.853
32831W        W91927  17.294   8.663  12.864
32832W        W91928   6.349  26.692   4.797
32833W        W91929   0.959   7.845  11.595
32834W        W91930  36.490  29.599  10.621
32835W        W91931  39.961  29.984   1.701
32836W        W91932  21.518  27.190  11.413
32837W        W91933  29.518   0.453   2.328
32838W        W91934  12.362  34.912   0.354
32839W        W91935  12.246  21.073  10.061
32840W        W91936  31.537  34.386   0.412
32841W        W91937  24.560  24.643   0.251
32842W        W91938  30.515   2.435  14.443
32843W        W91939  19.220  26.496  13.520
32844W        W91940  21.098  25.469  11.921
32845W        W91941   0.979  13.300  10.889
32846W        W91942  12.267  21.176   1.329
32847W        W91943  13.656  30.148   0.284
32848W        W91944  16.088  33.612   0.801
32849W        W91945   2.403  43.385   3.264
32850W        W91946  22.090  44.852  12.976
32851W        W91947  43.453   3.896   4.214
32852W        W91948  12.743  10.807  14.431
32853W        W91949  38.392  42.340   4.240
32854W        W91950  39.544  32.426   1.311
32855W        W91951  22.999  36.005  14.906
32856W        W91952   2.934   4.362   2.803
32857W        W91953  16.728  14.808  14.321
32858W        W91954  19.635   5.697  14.873
32859W        W91955  35.099  37.350   4.649
32860W        W91956  28.154  28.530  14.353
32861W        W91957  32.443  26.169   1.439
32862W        W91958   7.356  36.940   2.325
32863W        W91959  33.948  35.504   1.847
32864W        W91960   6.288  43.900   2.183
32865W        W91961  16.097  24.022   3.369
32866W        W91962  17.242  41.883   0.249
32867W        W91963  29.437  43.447  13.360
32868W        W91964  38.406  26.137   2.362
32869W        W91965  24.642  30.620   1.912
32870W        W91966  28.952   9.347  13.800
32871W        W91967  33.526  31.916   5.161
32872W        W91968  14.304   7.246   4.350
32873W        W91969  44.341  14.172  10.473
32874W        W91970  26.650  17.763  11.976
32875W        W91971  14.599  22.719  13.431
32876W        W91972   4.707  11.757   2.888
32877W        W91973  23.085  32.914   2.837
32878W        W91974   4.438  10.682  14.032
32879W        W91975  16.132  31.120   9.973
32880W        W91976   3.315  44.848   1.344
32881W        W91977   6.865  15.624  14.845
32882W        W91978  38.543  38.379   3.645
32883W        W91979   8.368  24.540  14.886
32884W        W91980  30.495  10.180  13.466
32885W        W91981  29.144   2.790   0.437
32886W        W91982   1.765   0.965  13.790
32887W        W91983  42.428  44.889  12.842
32888W        W91984  33.077  12.836  10.546
32889W        W91985   6.679  27.109   2.792
32890W        W91986  16.634  32.483  12.918
32891W        W91987  38.336  13.205  12.976
32892W        W91988  18.230  13.646   3.301
32893W        W91989   3.953  39.523   2.260
32894W        W91990  12.746  38.376  13.326
32895W        W91991   4.415  32.023  10.958
32896W        W91992  28.627  26.596  13.437
32897W        W91993  34.078  14.185   4.153
32898W        W91994  37.864  30.046  11.116
32899W        W91995  31.402  44.805   0.750
32900W        W91996  26.081   9.363  13.954
32901W        W91997   0.812  18.586   1.349
32902W        W91998  25.474  24.975   1.856
32903W        W91999  11.184  13.740   1.934
32904W        W92000  34.005  16.711  14.870
32905W        W92001  33.463  41.468  13.845
32906W        W92002  33.890  17.298   1.781
32907W        W92003   8.215  37.397   2.736
32908W        W92004  28.482   0.379   0.735
32909W        W92005  11.348  26.636  10.594
32910W        W92006  12.710  31.605  10.428
32911W        W92007  14.111  20.623   0.905
32912W        W92008  20.601   0.886   0.944
32913W        W92009   5.224  34.545   2.300
32914W        W92010  42.898  36.458   3.734
32915W        W92011  34.107  23.123   4.205
32916W        W92012   5.387  40.012  12.016
32917W        W92013  26.068   7.236   1.280
32918W        W92014  30.470  26.988  14.329
32919W        W92015  39.013  11.245  14.509
32920W        W92016   3.852  28.595  13.917
32921W        W92017  42.943  35.855  13.940
32922W        W92018   8.818  24.502   1.222
32923W        W92019  18.238  26.178  14.924
32924W        W92020  10.235  14.199   2.895
32925W        W92021  40.414   2.331   0.957
32926W        W92022  21.029  34.030  14.334
32927W        W92023  27.959   7.687  12.374
32928W        W92024   7.230  15.765   1.850
32929W        W92025  34.395  25.488   1.863
32930W        W92026  31.951  41.448  11.003
32931W        W92027  17.158  33.488   4.130
32932W        W92028  31.071  34.101   2.360
32933W        W92029  13.824  14.706   3.784
32934W        W92030  33.481  19.732   0.888
32935W        W92031  39.999  35.080   2.335
32936W        W92032  13.198  35.433   3.802
32937W        W92033  39.852   7.882   3.337
32938W        W92034  18.195  18.684   2.224
32939W        W92035  28.044  33.892  11.927
32940W        W92036   9.254  21.740   3.333
32941W        W92037  41.460  14.299  13.009
32942W        W92038  43.898  24.531   4.718
32943W        W92039   6.797  43.431  14.798
32944W        W92040  13.107  41.492  12.461
32945W        W92041   2.762  42.881  14.805
32946W        W92042   0.311  11.364   3.271
32947W        W92043   6.780  20.525  12.361
32948W        W92044   0.956  21.160   1.845
32949W        W92045   3.307  25.084  10.560
32950W        W92046   2.842  27.144   1.401
32951W        W92047  36.587  44.783   1.797
32952W        W92048  35.900  15.252  11.504
32953W        W92049  19.668   2.793   1.256
32954W        W92050  20.219  33.064   0.362
32955W        W92051  35.003  24.206   3.746
32956W        W92052  25.635   4.872   1.880
32957W        W92053  35.067  11.218  10.141
32958W        W92054  40.847   2.846   3.868
32959W        W92055  35.529  18.779   3.335
32960W        W92056  10.162  40.898  10.548
32961W        W92057  30.045   4.778   0.401
32962W        W92058  39.431  25.006  13.806
32963W        W92059  21.547   2.431   3.296
32964W        W92060  22.697  25.151   3.691
32965W        W92061  17.686   7.301   2.257
32966W        W92062  16.697  18.597   4.754
32967W        W92063   8.210  43.353   0.738
32968W        W92064  12.336  37.392   1.814
32969W        W92065   1.905  17.663   3.848
32970W        W92066   1.766  43.332  12.832
32971W        W92067  34.424  19.622   0.389
32972W        W92068  32.523  12.136   2.331
32973W        W92069  14.673  23.017  11.555
32974W        W92070  25.660  39.033   1.900
32975W        W92071  17.073   8.685   2.846
32976W        W92072   2.926  11.763   1.893
32977W        W92073  42.392  14.243   0.891
32978W        W92074  43.005  28.981  12.824
32979W        W92075  36.033  27.144  10.583
32980W        W92076  21.589  41.895  12.936
32981W        W92077  40.853  30.017  13.372
32982W        W92078  29.127  38.516   1.228
32983W        W92079   0.358  29.564  11.483
32984W        W92080  22.149  20.707   1.804
32985W        W92081  30.501  30.591   4.220
32986W        W92082  17.259  19.653  11.508
32987W        W92083  33.894  14.760   3.379
32988W        W92084  44.303  15.695   4.327
32989W        W92085  23.653  11.733  14.354
32990W        W92086  24.046  25.041   3.172
32991W        W92087  20.251  43.833  12.888
32992W        W92088  38.525   8.713   4.686
32993W        W92089  41.510   2.804   3.815
32994W        W92090  12.198   8.839   0.405
32995W        W92091   4.294   7.691  14.328
32996W        W92092   3.371  34.434   4.143
32997W        W92093  37.074  18.671  14.477
32998W        W92094  28.644   5.923   2.339
32999W        W92095   0.778  27.979   4.288
33000W        W92096  39.013   5.889  12.402
33001W        W92097   3.944  26.624  11.893
33002W        W92098  30.156  42.987   1.848
33003W        W92099  15.173  18.190   2.336
33004W        W92100  36.399  27.048   0.868
33005W        W92101  15.761  31.457   3.695
33006W        W92102  19.748  39.509  14.440
33007W        W92103  24.000  44.824  11.864
33008W        W92104   9.168   1.834  13.858
33009W        W92105  30.116  31.926  11.556
33010W        W92106  40.311  25.532  12.095
33011W        W92107  33.050  31.442   1.355
33012W        W92108   0.413  14.197   3.820
33013W        W92109   7.193  13.333  12.462
33014W        W92110  27.025   0.304   1.922
33015W        W92111  29.175  23.733  10.949
33016W        W92112   5.712  31.431  13.434
33017W        W92113  20.129  12.280  11.056
33018W        W92114  29.991  44.874   3.710
33019W        W92115  35.982  30.422   5.205
33020W        W92116  11.707   3.277   5.228
33021W        W92117  26.511  25.103  13.462
33022W        W92118   7.221  26.539   0.768
33023W        W92119  43.935  28.111   2.704
33024W        W92120  26.595  29.015  10.052
33025W        W92121  28.464   1.339  14.465
33026W        W92122  35.358  17.769   2.219
33027W        W92123   3.741   2.265  12.051
33028W        W92124  42.013  10.783   1.774
33029W        W92125  20.610   5.864  12.907
33030W        W92126  15.304  33.105  14.403
33031W        W92127  29.496  10.770  14.770
33032W        W92128   7.893  17.631  12.086
33033W        W92129  21.561   2.939  10.897
33034W        W92130  24.188  35.866   0.247
33035W        W92131  35.110  42.988   1.856
33036W        W92132  24.479   1.428  11.963
33037W        W92133  34.565  41.026  11.395
33038W        W92134  44.437  44.860  13.904
33039W        W92135  34.957  36.379  11.440
33040W        W92136  39.525  24.709  14.323
33041W        W92137   7.254   1.404  11.395
33042W        W92138  17.173  28.153   2.214
33043W        W92139  24.704  42.949   4.674
33044W        W92140  15.638  35.447   1.731
33045W        W92141   3.711  42.393   2.212
33046W        W92142  33.888  19.741  11.464
33047W        W92143   3.378  34.961   4.646
33048W        W92144  32.922  30.644  13.056
33049W        W92145  18.159  33.429  11.467
33050W        W92146  22.621  20.587   0.389
33051W        W92147  36.991   2.372   1.909
33052W        W92148  35.382  36.558  10.640
33053W        W92149  28.672  30.952  12.499
33054W        W92150  42.905  15.154  13.533
33055W        W92151   0.276  26.185   1.851
33056W        W92152  41.016  43.939   0.779
33057W        W92153  32.427  37.958   4.674
33058W        W92154  32.401  35.052   1.361
33059W        W92155  42.873  22.012  13.889
33060W        W92156  15.813   2.364   2.184
33061W        W92157  35.376  11.773  13.526
33062W        W92158  44.884  21.150   1.896
33063W        W92159   1.789  37.018   1.401
33064W        W92160  23.993  33.901   3.381
33065W        W92161  30.032  30.453   1.281
33066W        W92162  42.011  33.525   3.362
33067W        W92163  24.227   9.169  13.976
33068W        W92164  35.408  17.629   3.297
33069W        W92165  24.175  16.786  14.275
33070W        W92166  14.766  38.379  12.860
33071W        W92167   8.279  12.158  12.034
33072W        W92168  42.397  10.167   3.687
33073W        W92169   0.358   9.244   4.133
33074W        W92170  44.007  31.568  13.806
33075W        W92171   0.437   3.874  12.052
33076W        W92172  28.122  10.760   1.429
33077W        W92173  40.007  10.641  14.991
33078W        W92174  39.043  34.382   0.732
33079W        W92175  32.040  13.823   2.327
33080W        W92176  25.094  32.003   3.243
33081W        W92177  11.157   2.761   3.196
33082W        W92178  35.890  11.855  14.361
33083W        W92179  39.809  26.996   4.605
33084W        W92180  43.897  43.020  10.620
33085W        W92181  21.076  42.963   1.444
33086W        W92182  13.762  32.619  11.421
33087W        W92183  27.183  11.189   1.922
33088W        W92184  38.015  13.799  10.556
33089W        W92185  19.540  18.255   2.393
33090W        W92186   9.772  42.485   2.733
33091W        W92187   0.254  18.279   0.274
33092W        W92188  31.075  19.537   3.149
33093W        W92189  43.462   0.820  10.079
33094W        W92190  12.774  28.554   2.826
33095W        W92191   5.215  19.285  12.353
33096W        W92192  36.853  40.430  12.916
33097W        W92193  40.053  43.789  11.086
33098W        W92194  29.085   3.385   0.441
33099W        W92195  44.354  26.961   0.244
33100W        W92196   9.840   0.327   4.336
33101W        W92197  28.585  14.110  13.421
33102W        W92198   6.381   3.851  14.839
33103W        W92199  14.228  10.670   4.128
33104W        W92200   8.377  10.330  14.806
33105W        W92201  41.036  37.511   0.841
33106W        W92202  25.496   9.288   0.275
33107W        W92203  20.561  34.028  14.471
33108W        W92204  13.176  31.918   2.678
33109W        W92205  29.491  37.555   1.847
33110W        W92206  24.618  19.657   0.790
33111W        W92207  26.464  10.760   3.704
33112W        W92208  23.001  33.998  11.558
33113W        W92209   1.402  37.540  12.930
33114W        W92210   4.411  30.950   4.259
33115W        W92211  14.138   4.426   0.354
33116W        W92212   5.347  10.214  12.938
33117W        W92213  30.989  20.042   1.705
33118W        W92214  16.578  16.728   4.797
33119W        W92215  11.778  24.149   2.692
33120W        W92216  17.590   4.291  13.354
33121W        W92217  25.203   6.259   2.417
33122W        W92218  10.227  35.381   2.281
33123W        W92219  24.695   2.469   4.622
33124W        W92220  37.986  27.646  11.566
33125W        W92221  23.497  18.276  11.937
33126W        W92222  13.315  36.522  13.409
33127W        W92223  10.778  28.141  12.424
33128W        W92224   2.364  22.208  11.531
33129W        W92225  31.033  30.627   4.179
33130W        W92226  37.945  21.688  14.485
33131W        W92227  16.645  25.995  11.862
33132W        W92228  12.617   6.707   0.890
33133W        W92229   6.792   1.454   2.859
33134W        W92230   2.417  20.231   4.260
33135W        W92231  29.927  18.207  14.942
33136W        W92232  37.935  15.615  12.992
33137W        W92233   0.389  26.161   1.303
33138W        W92234  12.342  30.594  14.946
33139W        W92235   2.416   4.832   9.969
33140W        W92236  14.781  19.206  11.879
33141W        W92237  13.815   7.332  14.996
33142W        W92238  26.158   7.394   3.193
33143W        W92239  28.618  17.233  11.565
33144W        W92240  19.613  43.945  14.442
33145W        W92241  30.058  25.018  14.318
33146W        W92242   1.337  34.430   2.727
33147W        W92243   0.458  42.838   4.320
33148W        W92244  43.507  30.437  13.858
33149W        W92245  27.105  11.194   0.285
33150W        W92246   5.262  20.612   1.400
33151W        W92247   1.772  15.210   4.748
33152W        W92248  20.173  14.141   9.974
33153W        W92249  16.714   0.436   2.825
33154W        W92250  14.663  23.146  13.456
33155W        W92251  38.830   7.730  13.957
33156W        W92252   3.420  14.603   1.749
33157W        W92253  18.556   5.718  14.498
33158W        W92254  30.926  18.787   2.730
33159W        W92255   4.859   3.221  11.997
33160W        W92256  24.064   2.870   2.775
33161W        W92257  40.844   1.476   2.868
33162W        W92258   4.286  26.969   0.456
33163W        W92259  12.786  24.118  13.030
33164W        W92260  13.697   9.683  14.490
33165W        W92261   0.947  14.717  13.889
33166W        W92262  44.386  22.061  11.554
33167W        W92263   0.875  37.877  14.914
33168W        W92264   1.338  42.322  14.452
33169W        W92265  28.050  31.515  13.892
33170W        W92266  28.529  33.559  12.433
33171W        W92267  28.123  44.388  14.000
33172W        W92268  43.412   9.706  10.983
33173W        W92269  38.448  20.599   1.925
33174W        W92270  38.369   8.775  11.090
33175W        W92271  20.075  25.691   1.735
33176W        W92272  22.712  44.859  14.995
33177W        W92273  32.457  43.344   2.239
33178W        W92274  31.510  32.482  11.051
33179W        W92275   6.341  41.291  11.583
33180W        W92276  13.650  37.360   0.345
33181W        W92277  34.887   8.245   4.675
33182W        W92278  15.652  22.708  14.820
33183W        W92279   5.368   2.353  11.508
33184W        W92280  12.170  33.123   0.815
33185W        W92281  17.135  33.065  14.916
33186W        W92282  13.742  14.111   1.762
33187W        W92283  22.713  31.647  10.997
33188W        W92284  18.143   8.811   5.687
33189W        W92285  15.768  31.536  10.999
33190W        W92286   3.831   8.864   0.903
33191W        W92287  33.008  23.610   0.734
33192W        W92288  10.198  14.163   1.417
33193W        W92289  38.982  11.793  12.087
33194W        W92290   6.211  28.659  12.071
33195W        W92291  10.139  17.070  13.379
33196W        W92292  20.630  26.479  14.780
33197W        W92293  41.407  19.535  13.329
33198W        W92294   4.345  33.557  12.360
33199W        W92295  31.915   4.830  11.538
33200W        W92296  43.890  36.977  12.440
33201W        W92297  42.380  15.779   2.853
33202W        W92298  19.183   6.791   3.704
33203W        W92299  18.222   3.424   3.654
33204W        W92300   4.315  36.989   1.776
33205W        W92301  22.166   4.297  10.428
33206W        W92302  31.017  41.978  12.064
33207W        W92303  12.167  22.525   1.821
33208W        W92304  21.546  24.683   4.213
33209W        W92305   6.222  38.884  10.084
33210W        W92306  22.077  26.030   0.352
33211W        W92307  36.401  31.613  13.311
33212W        W92308  15.196  29.033   9.478
33213W        W92309   9.670  33.434  11.124
33214W        W92310  40.038  26.002  14.969
33215W        W92311  38.525  36.361   0.357
33216W        W92312  27.596  17.713   9.951
33217W        W92313  20.751  16.300  11.972
33218W        W92314   6.358   2.846   1.274
33219W        W92315  12.723  31.036  10.912
33220W        W92316  33.077   7.270  13.348
33221W        W92317  40.850  15.124   4.640
33222W        W92318  39.824  20.623  10.548
33223W        W92319  37.553  16.212  10.975
33224W        W92320  38.027   0.315   2.882
33225W        W92321   0.757  24.574  13.471
33226W        W92322  14.327  17.591  12.825
33227W        W92323  21.674  36.352  14.949
33228W        W92324  44.278  20.088  12.341
33229W        W92325  35.511  17.666  12.566
33230W        W92326  34.378   4.419  12.563
33231W        W92327  43.515  31.116  13.529
33232W        W92328  23.143  35.062  11.392
33233W        W92329  29.463  25.108  12.986
33234W        W92330   5.255   7.259  12.004
33235W        W92331  37.979  23.634  12.910
33236W        W92332  40.329  20.107   1.750
33237W        W92333   1.448  12.127  11.426
33238W        W92334   4.297  21.598  12.932
33239W        W92335  23.500  32.104  10.952
33240W        W92336   9.271   5.788  12.406
33241W        W92337  14.763   2.738   0.243
33242W        W92338  13.287   4.930   4.816
33243W        W92339  24.128  28.496  11.422
33244W        W92340  23.067  39.978  12.439
33245W        W92341  44.373  10.142  14.850
33246W        W92342  16.305  39.344  12.513
33247W        W92343   8.748  15.606   9.649
33248W        W92344   2.753  42.897  13.466
33249W        W92345  14.761  36.542  10.987
33250W        W92346  44.412  20.265   4.713
33251W        W92347  36.472  17.112  10.089
33252W        W92348  27.084  29.519   4.133
33253W        W92349  25.138  21.166   1.293
33254W        W92350   9.195   4.326   0.854
33255W        W92351  24.979   9.869   4.279
33256W        W92352  10.754  20.093   3.295
33257W        W92353  33.875  40.004   4.809
33258W        W92354  24.506  12.167  12.515
33259W        W92355   3.904  39.539  12.398
33260W        W92356  14.264  43.355  14.864
33261W        W92357   8.749  26.535  13.467
33262W        W92358  23.012   1.316  12.518
33263W        W92359  34.038  24.223  12.007
33264W        W92360  22.210  36.974  11.123
33265W        W92361  35.938  43.302   4.145
33266W        W92362  29.435  18.730  12.931
33267W        W92363  13.175  38.060  11.102
33268W        W92364  26.167   0.349  11.126
33269W        W92365  17.668  22.672  14.983
33270W        W92366  32.487  30.054  11.998
33271W        W92367   6.838  42.329   3.190
33272W        W92368  41.866   2.386   3.843
33273W        W92369  44.293  21.216   0.468
33274W        W92370  11.687  24.501  11.089
33275W        W92371  26.208  17.109  12.952
33276W        W92372  11.844   8.251  12.889
33277W        W92373  10.765  10.139  11.482
33278W        W92374  14.630   1.250   3.159
33279W        W92375  32.607   8.734   4.126
33280W        W92376  20.570  30.035   3.363
33281W        W92377  15.762  10.771  13.947
33282W        W92378   7.221  28.517   5.745
33283W        W92379  42.287  32.885   3.664
33284W        W92380  18.196  28.618   2.250
33285W        W92381   0.258   5.432  11.477
33286W        W92382  30.635  28.003   3.798
33287W        W92383  30.507  25.605   2.784
33288W        W92384  36.500  23.224  14.934
33289W        W92385   0.370  26.995  14.825
33290W        W92386  36.535  17.707  14.988
33291W        W92387  16.757  43.910  14.991
33292W        W92388  16.568  34.479   1.325
33293W        W92389  31.457   1.839  10.501
33294W        W92390   9.214   4.790   4.151
33295W        W92391  10.696  38.822   0.749
33296W        W92392  25.486  44.503   2.868
33297W        W92393   7.667  38.387   0.868
33298W        W92394   7.885  29.032   3.708
33299W        W92395   1.905  35.988   4.618
33300W        W92396  38.559  17.082  11.906
33301W        W92397  27.620  39.447   4.683
33302W        W92398  31.574  24.637  11.087
33303W        W92399  15.619  23.125   4.119
33304W        W92400   2.965  20.748  13.495
33305W        W92401  10.321  23.689  10.530
33306W        W92402   8.174   8.359  12.547
33307W        W92403   9.826   3.272  12.490
33308W        W92404  24.672  18.567  13.971
33309W        W92405  41.525  10.690   2.693
33310W        W92406  25.110  38.930   2.807
33311W        W92407  43.826   3.908  13.527
33312W        W92408  30.972  11.176   4.196
33313W        W92409  25.568  38.560   2.688
33314W        W92410  18.746  42.842   4.685
33315W        W92411   9.223  14.702  10.105
33316W        W92412  13.751  18.613   0.437
33317W        W92413  30.540  35.104  13.005
33318W        W92414  34.375  12.352  10.460
33319W        W92415  24.106   7.891   2.728
33320W        W92416  44.344  39.521   0.339
33321W        W92417  15.249   2.843  13.881
33322W        W92418  21.208  26.016  12.367
33323W        W92419  41.915  35.907   3.357
33324W        W92420  35.386  10.684   3.857
33325W        W92421  14.284   4.757   4.760
33326W        W92422  14.745   6.721  14.350
33327W        W92423  29.538  34.566   1.803
33328W        W92424  29.457   2.369   5.151
33329W        W92425  22.741  30.075   0.965
33330W        W92426  26.050  43.801  10.929
33331W        W92427  38.547  11.754   5.103
33332W        W92428   3.900  27.686   1.282
33333W        W92429  29.552   6.819   4.703
33334W        W92430   1.359  40.519   3.637
33335W        W92431  10.276  18.566  13.334
33336W        W92432   3.275  10.351  11.043
33337W        W92433  20.535   9.251  14.888
33338W        W92434  30.485  17.772  11.511
33339W        W92435  11.270  19.177   4.197
33340W        W92436  28.032  38.826   5.150
33341W        W92437  22.722  33.516  14.313
33342W        W92438  23.614  21.226  13.793
33343W        W92439  33.907   5.371   3.796
33344W        W92440   6.784  40.366   1.755
33345W        W92441  43.775  21.531   2.890
33346W        W92442  42.378  39.475   3.784
33347W        W92443  34.409   3.763   0.285
33348W        W92444  15.627  35.399  10.909
33349W        W92445  29.026  29.523  12.461
33350W        W92446  35.374   7.864   2.710
33351W        W92447   5.404  20.226   1.886
33352W        W92448  12.331  26.614   2.293
33353W        W92449  29.551  28.592  10.442
33354W        W92450   7.717  30.615  13.487
33355W        W92451  15.264  13.191  13.455
33356W        W92452   9.326  13.703   3.860
33357W        W92453   7.736  41.301   4.763
33358W        W92454  36.871  42.022   2.681
33359W        W92455  23.171   1.284   1.910
33360W        W92456  44.471  35.417   0.481
33361W        W92457  29.431  32.898  10.994
33362W        W92458  21.136  12.720  14.969
33363W        W92459  26.132  40.978  11.107
33364W        W92460  23.180   9.855  11.401
33365W        W92461  25.974  31.568  11.425
33366W        W92462  12.247  23.603   2.219
33367W        W92463   4.270   9.349  11.467
33368W        W92464  39.520   0.262   0.958
33369W        W92465  38.025  40.960   3.187
33370W        W92466   7.734   5.267   2.330
33371W        W92467  26.970  35.854  11.449
33372W        W92468  39.445  27.996   4.244
33373W        W92469   6.371  34.088   0.894
33374W        W92470  13.282  31.628   5.633
33375W        W92471  22.575  36.546   3.720
33376W        W92472  39.321  42.322   0.346
33377W        W92473  29.988   6.813   1.908
33378W        W92474  30.543  10.257   4.616
33379W        W92475   2.825  25.057   0.448
33380W        W92476   6.268  32.064  10.041
33381W        W92477  26.149  26.590  11.532
33382W        W92478   1.913  12.307   0.744
33383W        W92479  31.462  12.833   2.747
33384W        W92480   2.439  32.450  12.436
33385W        W92481  23.570   0.930  11.019
33386W        W92482  30.600  15.610   3.648
33387W        W92483  35.077  34.530   2.826
33388W        W92484  34.925  27.954  12.965
33389W        W92485  22.228  25.099   3.847
33390W        W92486  43.450   1.880   2.331
33391W        W92487  24.640   3.311   0.764
33392W        W92488  24.603  16.766   9.488
33393W        W92489  40.860  44.820   1.902
33394W        W92490   0.960   1.317   2.336
33395W        W92491   7.410  30.506  12.966
33396W        W92492   7.328  37.896  13.022
33397W        W92493  44.964   4.768   3.261
33398W        W92494   5.848   2.946  10.416
33399W        W92495  27.166  36.388   0.788
33400W        W92496  39.994  35.991  10.424
33401W        W92497  24.052   4.719  11.039
33402W        W92498  17.604  39.411  11.006
33403W        W92499  16.076  30.591  10.961
33404W        W92500   0.396   0.869   0.873
33405W        W92501  22.151  44.331   1.393
33406W        W92502   8.328  12.628   1.738
33407W        W92503  11.351  36.406  10.432
33408W        W92504  32.553  16.684   2.353
33409W        W92505  34.994  44.405   0.730
33410W        W92506  33.559   3.303  11.935
33411W        W92507   7.813  30.117  13.937
33412W        W92508  37.911  23.495   4.244
33413W        W92509  15.685   7.751  13.422
33414W        W92510  32.588  10.826  12.417
33415W        W92511  18.139  26.509  13.951
33416W        W92512  26.492  12.295  13.874
33417W        W92513  29.527  38.866  12.998
33418W        W92514  26.022  17.576   0.954
33419W        W92515  41.916   9.271  14.837
33420W        W92516  30.106  38.932   1.227
33421W        W92517  19.588  16.281  12.526
33422W        W92518  18.721   3.345   3.204
33423W        W92519   1.900  24.039  13.033
33424W        W92520  38.992   2.762  13.336
33425W        W92521  28.040  44.321   4.648
33426W        W92522  22.603  31.625  13.866
33427W        W92523  37.475   8.396  10.889
33428W        W92524  26.172  33.544   3.378
33429W        W92525   4.222  19.215   0.299
33430W        W92526  31.955  40.414  12.562
33431W        W92527  35.519  27.186  11.113
33432W        W92528   1.391  30.938   0.880
33433W        W92529  35.601  44.802   0.359
33434W        W92530  35.899  14.631  14.391
33435W        W92531  19.146  12.150   4.209
33436W        W92532  26.097  19.142  12.845
33437W        W92533  23.061   3.944   0.264
33438W        W92534  35.420  23.625   3.773
33439W        W92535  14.726  25.705  11.913
33440W        W92536  44.796  25.620  11.895
33441W        W92537  24.085  32.054   1.388
33442W        W92538  29.994  30.948  11.098
33443W        W92539  30.097  15.593   3.669
33444W        W92540  27.604  21.110  14.895
33445W        W92541  43.415  32.032  13.527
33446W        W92542  12.291  32.914   1.276
33447W        W92543  42.016   4.923   4.814
33448W        W92544  23.167  12.313   5.153
33449W        W92545  23.671   3.289  13.328
33450W        W92546  34.452  32.930   1.309
33451W        W92547  26.570   2.314   5.170
33452W        W92548   5.762  38.438   4.609
33453W        W92549  20.573   3.315   1.812
33454W        W92550  28.470  12.754  12.409
33455W        W92551  43.452  36.883  11.397
33456W        W92552  34.952  26.588  14.863
33457W        W92553  21.044  20.602   9.941
33458W        W92554  28.964  27.995  14.353
33459W        W92555  35.885   1.248  10.965
33460W        W92556  37.383  37.433  10.512
33461W        W92557  43.278  22.734  14.429
33462W        W92558  30.979  39.487   1.443
33463W        W92559  22.691  42.469   4.646
33464W        W92560  35.866   7.686  10.548
33465W        W92561  10.163  21.703  11.399
33466W        W92562  14.814  43.905   4.839
33467W        W92563  43.291  24.042  11.444
33468W        W92564   6.386   4.905   1.247
33469W        W92565   4.383   6.744  14.376
33470W        W92566  24.636  10.690   5.695
33471W        W92567  44.377   3.814   1.359
33472W        W92568  34.977  24.051   0.860
33473W        W92569  32.972   5.196   3.812
33474W        W92570  25.649  10.309   1.429
33475W        W92571  24.227   9.203  12.468
33476W        W92572  38.560  32.391   1.863
33477W        W92573  19.569  21.165   0.271
33478W        W92574  41.533  21.659   2.862
33479W        W92575  23.066  26.123  11.607
33480W        W92576  29.025  16.647  14.775
33481W        W92577   0.439  37.512  12.957
33482W        W92578  36.061  25.566   1.811
33483W        W92579  28.577   7.771  14.416
33484W        W92580  25.491  13.746   4.304
33485W        W92581  17.100   0.921   0.892
33486W        W92582  37.074  12.215  14.764
33487W        W92583  13.707  40.993   1.391
33488W        W92584  10.825  29.064  12.896
33489W        W92585   3.775   4.220  13.364
33490W        W92586  22.163  30.050  11.509
33491W        W92587   5.295  14.326  12.562
33492W        W92588  28.672  19.551   2.899
33493W        W92589  33.023  35.484  11.025
33494W        W92590  29.567   1.421   4.607
33495W        W92591  25.982  40.000   1.793
33496W        W92592  26.159  11.225  14.319
33497W        W92593  18.565  31.954  13.990
33498W        W92594   8.288  31.500   1.389
33499W        W92595  12.780  35.924   3.774
33500W        W92596  21.709   5.252   4.330
33501W        W92597  18.706  37.357  12.505
33502W        W92598  23.110  40.030   3.337
33503W        W92599  21.233   3.798   0.857
33504W        W92600  40.547  27.108  10.465
33505W        W92601  16.154  35.086   1.306
33506W        W92602  17.760  38.992  12.980
33507W        W92603   1.288  14.693   4.734
33508W        W92604  12.710   1.945   3.318
33509W        W92605   8.842  34.963  13.977
33510W        W92606   7.695  22.593  14.514
33511W        W92607   3.226  36.412   2.715
33512W        W92608  11.148  32.988  12.968
33513W        W92609  35.597   0.824  13.981
33514W        W92610  16.571   4.219  11.874
33515W        W92611  23.183   8.783  13.862
33516W        W92612  23.151   4.412  12.030
33517W        W92613  12.208  11.214  13.468
33518W        W92614  25.674  43.851   2.867
33519W        W92615  21.599  35.865   1.377
33520W        W92616  38.975   8.851   4.817
33521W        W92617  38.476  26.530  10.628
33522W        W92618  31.060  18.658  14.450
33523W        W92619  28.641  34.975  12.973
33524W        W92620  37.961  33.508  10.625
33525W        W92621   9.648   7.237  12.952
33526W        W92622   9.833  28.496  12.456
33527W        W92623  26.681  35.892   3.194
33528W        W92624   5.321  21.703  12.980
33529W        W92625  15.146  34.589   0.321
33530W        W92626  24.519  10.213  10.057
33531W        W92627   9.386   1.878  11.451
33532W        W92628  14.185   0.485  13.939
33533W        W92629  31.924  21.679   2.248
33534W        W92630  41.025   9.647   4.256
33535W        W92631  16.781  26.009  10.415
33536W        W92632  14.213  12.312   4.159
33537W        W92633   8.275  20.617   3.358
33538W        W92634  13.274  22.580  12.994
33539W        W92635  42.311   6.353  13.805
33540W        W92636   6.335  12.698  11.943
33541W        W92637  43.906  43.444  13.939
33542W        W92638  10.202  36.845   4.162
33543W        W92639  14.615  27.170   3.286
33544W        W92640  36.413  20.037   4.817
33545W        W92641  27.088  41.406   5.256
33546W        W92642  29.998  22.606   3.644
33547W        W92643  24.172  24.534  13.051
33548W        W92644  11.210  41.494   1.325
33549W        W92645  33.946  17.217  10.033
33550W        W92646  29.121  42.509  10.475
33551W        W92647  32.431  18.712   2.849
33552W        W92648  24.081   4.362  13.908
33553W        W92649  22.618  42.856  11.546
33554W        W92650  33.027  29.971   1.817
33555W        W92651  42.830   4.829   3.184
33556W        W92652  44.801  30.972  11.470
33557W        W92653  35.039  23.669   9.983
33558W        W92654  38.997  18.230  11.416
33559W        W92655  33.048  23.542   4.165
33560W        W92656  20.698   5.927  13.954
33561W        W92657  25.713  19.779  14.882
33562W        W92658  28.089  13.171   3.233
33563W        W92659  12.272   6.188   1.717
33564W        W92660  26.095  10.339  14.818
33565W        W92661  11.188  22.580   1.921
33566W        W92662  26.635  17.102  11.906
33567W        W92663  24.144   9.752  12.899
33568W        W92664  28.667  35.021  13.309
33569W        W92665   0.772  42.851   5.101
33570W        W92666   9.757  28.564   1.377
33571W        W92667  22.029   6.689  11.432
33572W        W92668  34.982  19.081   3.330
33573W        W92669  24.122  18.749  10.044
33574W        W92670   0.988  16.248  14.405
33575W        W92671  38.490  40.939  14.494
33576W        W92672   0.826  14.728  14.494
33577W        W92673   0.448   1.831  12.090
33578W        W92674  39.855  18.223  12.984
33579W        W92675  12.254  14.599   0.749
33580W        W92676   9.178  34.557  10.640
33581W        W92677  13.776  43.793   4.838
33582W        W92678  16.690  19.677  12.025
33583W        W92679  26.552  30.078   0.817
33584W        W92680  26.179   7.184  12.532
33585W        W92681  32.001  43.326  12.500
33586W        W92682  13.676  30.645  12.952
33587W        W92683  26.019  10.676   1.376
33588W        W92684  39.454   5.903  12.384
33589W        W92685   3.257  21.079   1.236
33590W        W92686  41.793  19.239  10.987
33591W        W92687  29.067  30.472  13.428
33592W        W92688  23.585   4.319  12.056
33593W        W92689  29.452  20.137  11.528
33594W        W92690  15.641  19.683  11.860
33595W        W92691   9.301   3.856   3.740
33596W        W92692  22.557  20.717  14.322
33597W        W92693  25.193  33.620   3.815
33598W        W92694  15.190   1.929   0.870
33599W        W92695  32.617   7.204  10.412
33600W        W92696   9.817  25.989   4.131
33601W        W92697  27.473  16.568   1.424
33602W        W92698  39.905  18.075   1.391
33603W        W92699  44.990  13.113  10.978
33604W        W92700  29.070  33.969   0.935
33605W        W92701  41.435   5.934  10.891
33606W        W92702   5.202   1.793  13.955
33607W        W92703  11.218   9.388  12.870
33608W        W92704  21.534   1.428   2.713
33609W        W92705  11.164  18.627   0.861
33610W        W92706  39.467  27.078  10.427
33611W        W92707  39.029  22.036  11.473
33612W        W92708  22.573  28.150  10.592
33613W        W92709   1.896  30.570  10.961
33614W        W92710   6.842   0.762   0.339
33615W        W92711  32.418   9.325   0.244
33616W        W92712  41.503   9.726   3.689
33617W        W92713  41.953  16.605   0.872
33618W        W92714  28.939  24.093  13.382
33619W        W92715   8.723   8.232  14.987
33620W        W92716  25.529  42.284   1.260
33621W        W92717  37.505   8.240   3.220
33622W        W92718  10.729  37.494  12.966
33623W        W92719  11.675  25.701  13.821
33624W        W92720  20.138  43.896  14.295
33625W        W92721   9.387  21.036  10.080
33626W        W92722  17.252  24.145   3.840
33627W        W92723  11.247  42.838   3.206
33628W        W92724  42.999   6.840  14.411
33629W        W92725  38.498  23.012   0.936
33630W        W92726  18.780  26.991  14.432
33631W        W92727  35.538  10.211   9.488
33632W        W92728  42.480  38.828  13.351
33633W        W92729   4.306  11.357   1.815
33634W        W92730  10.269  15.751   1.716
33635W        W92731  27.530   0.745   3.633
33636W        W92732  10.282  43.917  10.098
33637W        W92733   3.321   5.847  10.516
33638W        W92734  18.756  25.055  14.988
33639W        W92735  32.614  20.697   1.697
33640W        W92736  38.483   9.158  13.840
33641W        W92737  40.009  41.435   2.831
33642W        W92738  32.915  34.888   0.872
33643W        W92739  22.160  30.118   1.223
33644W        W92740   9.773  15.289   5.155
33645W        W92741  36.003  21.027   2.397
33646W        W92742   4.886   5.801  14.765
33647W        W92743  11.261  26.598   2.664
33648W        W92744  11.868  20.218  11.994
33649W        W92745  43.991  16.302  12.094
33650W        W92746  42.810   3.238   4.339
33651W        W92747  29.006   0.375  10.522
33652W        W92748  27.160   3.776  13.495
33653W        W92749  13.767  14.338   0.253
33654W        W92750  35.412  39.044  10.952
33655W        W92751  14.670   0.810   3.210
33656W        W92752  30.455  38.560  14.483
33657W        W92753   0.925  30.128  10.457
33658W        W92754  23.021  31.993  12.952
33659W        W92755  11.848  13.348   4.647
33660W        W92756  18.239  39.887   3.386
33661W        W92757  13.620  12.320  12.904
33662W        W92758   7.687  10.830   4.785
33663W        W92759  30.064  36.991  11.925
33664W        W92760   2.302   3.936   3.180
33665W        W92761  34.411  34.428  10.642
33666W        W92762  36.895  35.446   1.761
33667W        W92763  25.011  42.472  13.890
33668W        W92764  33.382  32.940   3.766
33669W        W92765   4.934  15.681  14.988
33670W        W92766  18.108   0.743  11.942
33671W        W92767  24.534  43.348   2.696
33672W        W92768  12.635  23.097  11.609
33673W        W92769   2.722   6.196   2.313
33674W        W92770  11.233  38.073   1.437
33675W        W92771  34.032  34.005  11.102
33676W        W92772  44.976  11.138   3.238
33677W        W92773   2.431  17.301   1.416
33678W        W92774  26.688  29.995  14.020
33679W        W92775   7.370  35.539  11.088
33680W        W92776   2.912  16.121  11.922
33681W        W92777   0.266  22.508  13.818
33682W        W92778  30.620  22.242  11.122
33683W        W92779   8.659  38.570  11.963
33684W        W92780  15.763  19.174   1.798
33685W        W92781  11.336  11.287  14.828
33686W        W92782  14.754  22.116   3.673
33687W        W92783  35.080  36.537  13.017
33688W        W92784  14.285  24.004   0.755
33689W        W92785  17.131  23.117   3.782
33690W        W92786   0.790  36.975  11.552
33691W        W92787  42.437  23.696  13.983
33692W        W92788  23.107  21.658   1.264
33693W        W92789  26.023   6.222   3.221
33694W        W92790  24.506  33.023   2.289
33695W        W92791  36.916   5.343  13.415
33696W        W92792  26.582   4.925   1.294
33697W        W92793  16.259  12.151   3.172
33698W        W92794  15.172  14.800   2.681
33699W        W92795  12.850  34.970  11.501
33700W        W92796   2.879  38.973  12.380
33701W        W92797  38.916  31.634  13.894
33702W        W92798  22.130  43.816   3.671
33703W        W92799  44.410  18.141  14.934
33704W        W92800  25.478  20.549  13.915
33705W        W92801  41.398  44.321  12.439
33706W        W92802  44.757  14.647  11.588
33707W        W92803  13.345  40.879   4.226
33708W        W92804  19.201  13.692   1.395
33709W        W92805  32.520   0.862   3.177
33710W        W92806   8.872  25.585  11.563
33711W        W92807   0.477  26.512  13.371
33712W        W92808  29.965  40.040  13.871
33713W        W92809   9.296  21.570   0.372
33714W        W92810  18.647  15.298  13.387
33715W        W92811  40.925  39.396  13.993
33716W        W92812  43.827  11.350  11.114
33717W        W92813  43.474  10.302   1.846
33718W        W92814  39.394  36.571   2.751
33719W        W92815  38.823  39.409   1.252
33720W        W92816  40.045   5.722   2.864
33721W        W92817  28.938  12.347   4.134
33722W        W92818   8.225  20.602  10.578
33723W        W92819  31.059  19.556   2.336
33724W        W92820  26.460   3.296  14.028
33725W        W92821   7.356   7.226  10.996
33726W        W92822   3.336   3.312   2.667
33727W        W92823  11.203  43.777  13.020
33728W        W92824   6.704  24.123   1.279
33729W        W92825  14.325  10.261   1.866
33730W        W92826  26.660  42.907  10.509
33731W        W92827  22.564   7.903   3.825
33732W        W92828  17.260   0.974  11.572
33733W        W92829  43.997  16.142  10.580
33734W        W92830  17.254  36.040  12.862
33735W        W92831  30.573   4.753  14.913
33736W        W92832   0.936  28.617  13.397
33737W        W92833  42.481   3.871  12.970
33738W        W92834  40.423  14.215   4.322
33739W        W92835  26.577  14.168   0.916
33740W        W92836  22.703  26.551  10.037
33741W        W92837  27.945  13.651  11.555
33742W        W92838  38.370  41.963  14.762
33743W        W92839  29.561  31.589   2.790
33744W        W92840  34.066  41.395  14.494
33745W        W92841   6.804  33.531  12.879
33746W        W92842  16.301  24.057  13.926
33747W        W92843  12.221  34.419   4.317
33748W        W92844   6.371  17.076   3.857
33749W        W92845  21.726  30.576  11.993
33750W        W92846  26.610  18.601  11.907
33751W        W92847   7.817  13.209   1.756
33752W        W92848  27.067  44.366  13.462
33753W        W92849  18.648   2.735  12.571
33754W        W92850  31.422   4.350  14.471
33755W        W92851  39.818   9.748  12.543
33756W        W92852  26.127  42.300   0.386
33757W        W92853  42.366  15.171   2.762
33758W        W92854  31.634  15.778   2.221
33759W        W92855  43.307  41.296  13.437
33760W        W92856   1.752  43.321  13.386
33761W        W92857  11.673   3.791  14.933
33762W        W92858  29.008  38.022  12.943
33763W        W92859  10.302  34.436  10.095
33764W        W92860  37.999  14.216   0.410
33765W        W92861   2.238   6.732  11.094
33766W        W92862  18.700   1.441   3.829
33767W        W92863  14.682  14.741   9.618
33768W        W92864   4.347  39.545  10.902
33769W        W92865  34.485  38.476   3.188
33770W        W92866  14.322  39.512   2.388
33771W        W92867  17.146  14.709  12.452
33772W        W92868  13.602  31.913  12.467
33773W        W92869  20.551  33.611   2.218
33774W        W92870  22.502  13.297   3.726
33775W        W92871  44.376   5.730   4.681
33776W        W92872   4.820  26.546  14.423
33777W        W92873  36.868  11.746  11.961
33778W        W92874  20.539  13.258   4.240
33779W        W92875  37.895  34.025  12.543
33780W        W92876   7.783   7.679  14.417
33781W        W92877  34.939  44.447  14.326
33782W        W92878   3.396  27.968  11.955
33783W        W92879  41.865   2.753  13.423
33784W        W92880  18.551  17.226   0.364
33785W        W92881  36.909  19.652   1.303
33786W        W92882  34.899  29.496  13.372
33787W        W92883  35.946  27.138  10.997
33788W        W92884   0.458  41.413  10.442
33789W        W92885   1.936  23.490   2.686
33790W        W92886  27.501  17.237  10.584
33791W        W92887  16.779  39.474  14.794
33792W        W92888  25.138  12.345  10.555
33793W        W92889   8.362   0.756   3.804
33794W        W92890  41.971  13.133   0.404
33795W        W92891   0.965  11.687  11.999
33796W        W92892  24.577   9.349   3.679
33797W        W92893  14.624  33.909   3.277
33798W        W92894  12.682  18.175  11.082
33799W        W92895  27.112  11.350  11.903
33800W        W92896   5.702  20.607  12.376
33801W        W92897  32.515  25.189   0.331
33802W        W92898  33.427   1.354   2.273
33803W        W92899  39.484   9.654  14.314
33804W        W92900  14.702   0.426   2.892
33805W        W92901  32.034  38.966   3.755
33806W        W92902  13.276  26.008  14.879
33807W        W92903  12.206  41.362   2.899
33808W        W92904   0.351  24.514  14.384
33809W        W92905   1.450   3.836  12.450
33810W        W92906  25.468  30.550   0.417
33811W        W92907  42.805  39.872   2.340
33812W        W92908  23.685   8.778  13.432
33813W        W92909  41.319  15.641  10.639
33814W        W92910  29.564  21.631  12.490
33815W        W92911  36.941  27.030  11.088
33816W        W92912  13.154  34.078   4.306
33817W        W92913  14.284  29.099   9.537
33818W        W92914  38.003  36.945   1.722
33819W        W92915  17.564  18.544   2.253
33820W        W92916   0.381  16.674   4.226
33821W        W92917   0.794   5.859  12.005
33822W        W92918  27.609  23.177  13.959
33823W        W92919  28.091   3.354   1.441
33824W        W92920  30.933   8.717   1.212
33825W        W92921  43.947  13.613  11.600
33826W        W92922  13.226  35.483   3.262
33827W        W92923  20.652  37.889  11.609
33828W        W92924   8.678  10.645  14.379
33829W        W92925  24.494   2.279  13.844
33830W        W92926  26.202  40.848   0.947
33831W        W92927  31.102  14.723  10.930
33832W        W92928  41.306  18.139  11.024
33833W        W92929  15.119  44.328  13.380
33834W        W92930  37.502  29.108   1.919
33835W        W92931  29.537  18.656  11.898
33836W        W92932  38.373  42.877  12.955
33837W        W92933  11.369  35.885  11.971
33838W        W92934  17.301  44.316  12.910
33839W        W92935   0.465  21.736   3.745
33840W        W92936   3.457  28.443   3.858
33841W        W92937  14.147   7.704   1.828
33842W        W92938  24.518  44.973   4.347
33843W        W92939  37.527  11.271  12.371
33844W        W92940  27.972  17.232  10.116
33845W        W92941  42.521  19.758   4.236
33846W        W92942  23.186  37.888  11.503
33847W        W92943  36.446   2.260   4.230
33848W        W92944  33.882  34.389  12.383
33849W        W92945   1.303   1.765   0.840
33850W        W92946   3.922  21.637   2.754
33851W        W92947  37.850   8.847   0.824
33852W        W92948  15.620  35.977  12.555
33853W        W92949  27.677  30.948   0.897
33854W        W92950  21.564  42.353  10.514
33855W        W92951   7.306  11.304  14.504
33856W        W92952  20.112   4.705   2.364
33857W        W92953  41.485  28.109   0.964
33858W        W92954  40.983  21.532  14.291
33859W        W92955  11.628  33.100   0.893
33860W        W92956  22.112   5.916   0.458
33861W        W92957  16.296   8.720   0.921
33862W        W92958   5.367  18.574   2.673
33863W        W92959  31.046  24.121  14.872
33864W        W92960  21.517  33.075   0.409
33865W        W92961  39.470  22.629   2.795
33866W        W92962   5.346  21.143  12.467
33867W        W92963   2.459   3.809   2.888
33868W        W92964  11.309   8.224  14.953
33869W        W92965   3.756  36.086  12.396
33870W        W92966   6.238   4.270   3.852
33871W        W92967  28.608   1.252  10.450
33872W        W92968   9.164  16.219  14.895
33873W        W92969  25.171  40.960   2.260
33874W        W92970  25.645  22.714   4.307
33875W        W92971  20.215  24.070  11.017
33876W        W92972  25.584  42.511   0.775
33877W        W92973  24.990  37.559  10.887
33878W        W92974  30.427  34.996   3.192
33879W        W92975  26.514  39.953   3.247
33880W        W92976  35.395  16.568  13.961
33881W        W92977  21.526  21.110  10.449
33882W        W92978  40.012  12.264   3.300
33883W        W92979   2.959  37.337   3.683
33884W        W92980  43.383   9.164  12.037
33885W        W92981  38.552  25.635  13.847
33886W        W92982  17.713  39.314   9.491
33887W        W92983  26.477  25.098  12.044
33888W        W92984  10.800  21.575  10.566
33889W        W92985   5.934   8.223  14.902
33890W        W92986   2.290  17.085   4.638
33891W        W92987  25.599   0.910   3.174
33892W        W92988  39.988  31.056  13.484
33893W        W92989   1.297  22.660   1.337
33894W        W92990  27.065  35.413   9.978
33895W        W92991  43.778  16.634  13.907
33896W        W92992  37.486  40.347   4.245
33897W        W92993  40.008  36.440   2.719
33898W        W92994  11.725  38.067   2.363
33899W        W92995  30.604  43.366  10.913
33900W        W92996   5.230   5.365  11.980
33901W        W92997  37.872  35.395  12.001
33902W        W92998   4.776  27.982   0.457
33903W        W92999  18.063   2.828   2.845
33904W        W93000  30.542  27.476  13.355
33905W        W93001  19.733   0.446  11.964
33906W        W93002  34.469  25.661  10.998
33907W        W93003  14.307  16.691  13.029
33908W        W93004  18.098  37.894   0.292
33909W        W93005   1.325   0.771   3.334
33910W        W93006  18.228   2.854  10.459
33911W        W93007  40.364  32.093   2.322
33912W        W93008  39.828  20.175   4.603
33913W        W93009  16.204   3.356  10.906
33914W        W93010   0.435  31.508   3.369
33915W        W93011  30.459  15.646  11.916
33916W        W93012  10.833  32.080  14.019
33917W        W93013   7.680  17.705   0.890
33918W        W93014  35.868  25.670  13.319
33919W        W93015   0.886  38.851  10.630
33920W        W93016  19.768  12.613  10.036
33921W        W93017   5.299  36.405  11.989
33922W        W93018  39.465  16.186  11.579
33923W        W93019   1.954  17.098  12.559
33924W        W93020  38.970   7.402  10.979
33925W        W93021   0.438  35.570  14.370
33926W        W93022  16.689   8.674  11.467
33927W        W93023  11.159   1.857   2.839
33928W        W93024  14.308  37.969  14.798
33929W        W93025   6.207  25.989   5.767
33930W        W93026  13.621  15.104   0.429
33931W        W93027  17.213  11.624   9.970
33932W        W93028  39.541  28.668   2.387
33933W        W93029  30.911   9.297  13.814
33934W        W93030   8.670   6.747  11.012
33935W        W93031   2.418   6.251   2.761
33936W        W93032   7.189  37.523  14.021
33937W        W93033  44.350  20.703   3.845
33938W        W93034  42.001  41.416   1.915
33939W        W93035  38.983  44.470   5.279
33940W        W93036  15.754  20.747  12.551
33941W        W93037  29.012  36.416  10.609
33942W        W93038  19.095  18.147  13.541
33943W        W93039  24.528  39.045   2.784
33944W        W93040  37.959   0.373   1.920
33945W        W93041  35.087  20.084  11.457
33946W        W93042  27.095  35.541  11.885
33947W        W93043   9.875  15.706  14.763
33948W        W93044  42.325  41.994   4.254
33949W        W93045   0.344  25.622   1.709
33950W        W93046   8.212   6.771   2.842
33951W        W93047  18.759  25.696   2.874
33952W        W93048  17.203  11.321  11.595
33953W        W93049  27.055  42.897  12.033
33954W        W93050  17.567  19.769  12.859
33955W        W93051   4.722  22.665   2.334
33956W        W93052  13.722  28.056   4.281
33957W        W93053   7.810   3.440   3.285
33958W        W93054  17.644  18.751  14.287
33959W        W93055  20.182  23.647   5.198
33960W        W93056   8.885  35.904   1.821
33961W        W93057  16.615  33.897   9.476
33962W        W93058  32.992  26.133   5.161
33963W        W93059  44.978  44.823   0.303
33964W        W93060   8.275  16.795   4.754
33965W        W93061  41.911  36.952  13.541
33966W        W93062   3.374  10.380  14.761
33967W        W93063  11.205  16.658  13.016
33968W        W93064  32.056  34.371  14.017
33969W        W93065  41.336  43.770  12.470
33970W        W93066  43.396  33.507   2.808
33971W        W93067  14.117  13.280   2.732
33972W        W93068  22.187  20.559   1.359
33973W        W93069  25.000  14.227  12.475
33974W        W93070  30.473   0.378   1.227
33975W        W93071   1.812   4.878   2.854
33976W        W93072   1.445  27.053   1.346
33977W        W93073   7.895  25.073  13.886
33978W        W93074  30.997  41.959  14.023
33979W        W93075   9.698  10.332  13.354
33980W        W93076   9.810  10.342  13.924
33981W        W93077  33.412  38.493  12.356
33982W        W93078   0.986  37.369   1.865
33983W        W93079   1.763  13.648   1.800
33984W        W93080  28.660   4.315   2.331
33985W        W93081  28.035  40.471   2.285
33986W        W93082  34.962  40.404   3.655
33987W        W93083  35.965  37.870  13.454
33988W        W93084  24.185  12.815   2.785
33989W        W93085  11.130  18.703   9.557
33990W        W93086  29.587   9.212  14.987
33991W        W93087  44.771  30.432   3.856
33992W        W93088  18.076  36.921   1.873
33993W        W93089  10.149  41.436   2.333
33994W        W93090  16.207  31.030  14.376
33995W        W93091   1.353  18.751  11.375
33996W        W93092  15.171   9.777  10.431
33997W        W93093   7.403  26.994   1.304
33998W        W93094  38.508  30.498  10.432
33999W        W93095  15.749  19.599   1.415
34000W        W93096   1.392  24.994  14.478
34001W        W93097  30.655  18.095   0.255
34002W        W93098  10.354  37.582   3.784
34003W        W93099  32.911  42.304   0.819
34004W        W93100  31.943  43.833   1.720
34005W        W93101  15.696  42.941  14.500
34006W        W93102  25.556  17.756   4.654
34007W        W93103  29.550  14.763  12.476
34008W        W93104  37.968   4.311  13.952
34009W        W93105  29.505  36.938  14.338
34010W        W93106  31.594  30.551   4.154
34011W        W93107  28.945   5.201   0.387
34012W        W93108  34.456  24.162   2.380
34013W        W93109  35.015   0.940  12.086
34014W        W93110  32.542  15.161   2.756
34015W        W93111  19.127  24.152  10.516
34016W        W93112  21.197  21.231   2.182
34017W        W93113   8.803  29.032  10.437
34018W        W93114   5.905   3.354   3.716
34019W        W93115  35.904  20.670   2.711
34020W        W93116  13.198  36.483   1.341
34021W        W93117  40.965  40.823   3.754
34022W        W93118   3.901  39.868   1.749
34023W        W93119  19.223  31.060   2.773
34024W        W93120  35.573   3.882  14.395
34025W        W93121  24.515  36.446  13.912
34026W        W93122  35.873  29.613  11.916
34027W        W93123  31.549  20.214   1.424
34028W        W93124   6.812   8.336   1.828
34029W        W93125  40.327  11.129  14.483
34030W        W93126  36.376  37.396  14.761
34031W        W93127   8.210  25.149  13.316
34032W        W93128  41.848  25.984   1.217
34033W        W93129  23.102  20.689  10.153
34034W        W93130  14.646   6.257   4.247
34035W        W93131  27.578  13.817   3.204
34036W        W93132  28.932  34.474  10.414
34037W        W93133   3.893  36.554   3.215
34038W        W93134  30.580   0.870   0.250
34039W        W93135  42.856  21.041  13.506
34040W        W93136   5.779  39.889  13.958
34041W        W93137  22.526  29.522  14.031
34042W        W93138   2.949  39.000  14.448
34043W        W93139  23.079  24.141  13.321
34044W        W93140  33.885  10.803  11.967
34045W        W93141  20.088  32.082   0.301
34046W        W93142  36.529  13.235   3.694
34047W        W93143   1.744  27.026  12.387
34048W        W93144  44.401  29.425  14.506
34049W        W93145  10.281  22.995   2.399
34050W        W93146  12.322  26.997   4.129
34051W        W93147  23.145   5.243  12.438
34052W        W93148  44.334  44.430   2.868
34053W        W93149  17.561   4.762  10.927
34054W        W93150  37.338  21.589   2.874
34055W        W93151  41.369  41.919   4.640
34056W        W93152  13.632  23.172  10.426
34057W        W93153   7.323  23.491   3.240
34058W        W93154  35.858  25.011   0.363
34059W        W93155  40.305  37.000  12.843
34060W        W93156  27.632  20.568  14.029
34061W        W93157   4.943  43.885   4.182
34062W        W93158  15.704  18.088  13.430
34063W        W93159  13.199  27.040   1.915
34064W        W93160  19.694  25.087  13.999
34065W        W93161  17.698  11.325   0.767
34066W        W93162  35.387  37.408   2.388
34067W        W93163   6.188  13.269  12.888
34068W        W93164  33.493  27.052   1.289
34069W        W93165  38.485   7.327  14.432
34070W        W93166  44.483  26.081  11.400
34071W        W93167  11.344  23.076  10.961
34072W        W93168  31.041  37.850  10.501
34073W        W93169  43.289  31.946  14.931
34074W        W93170  17.694  10.753  12.093
34075W        W93171  19.620  29.152   3.209
34076W        W93172  43.878  28.627   4.186
34077W        W93173  21.595  37.948   2.673
34078W        W93174   8.260   5.873  10.929
34079W        W93175  18.175   6.902   0.842
34080W        W93176  13.672  15.230  14.874
34081W        W93177   4.818  19.763   4.774
34082W        W93178  10.846  39.413   0.852
34083W        W93179  29.018  25.093   3.173
34084W        W93180  35.943  17.260   1.701
34085W        W93181  28.482  22.062   0.815
34086W        W93182  43.822   7.185  12.357
34087W        W93183  25.134  11.168   2.219
34088W        W93184  42.025  12.696   4.610
34089W        W93185  44.387  43.925   1.238
34090W        W93186  31.940  19.573   3.744
34091W        W93187  23.542  37.869   4.257
34092W        W93188  25.506  22.690  14.959
34093W        W93189   6.372   5.778  11.992
34094W        W93190   2.251   1.302   0.450
34095W        W93191  26.682   1.304  14.466
34096W        W93192  26.604  30.636   0.461
34097W        W93193  11.327   0.342   1.298
34098W        W93194  28.000   7.277  11.467
34099W        W93195  25.511   4.396  11.501
34100W        W93196  22.612  34.869  11.103
34101W        W93197  32.485   5.860  14.856
34102W        W93198  26.109  41.320  10.977
34103W        W93199  20.649  28.606   4.698
34104W        W93200   9.395   3.309   4.780
34105W        W93201   7.863  31.145   2.852
34106W        W93202  31.014  38.933  11.959
34107W        W93203  32.574  40.926  12.475
34108W        W93204  41.426  17.223   0.922
34109W        W93205  18.571  44.854  12.471
34110W        W93206  20.688  30.158   0.347
34111W        W93207  18.128   8.378  14.029
34112W        W93208  13.349  10.264   1.437
34113W        W93209  38.565  44.898   1.252
34114W        W93210  23.647  42.818  10.609
34115W        W93211   9.241  43.772  13.396
34116W        W93212  13.333  35.003  11.108
34117W        W93213  24.088   7.894  14.932
34118W        W93214   7.264  35.587  14.423
34119W        W93215  36.380  14.311   3.824
34120W        W93216  42.987  14.662  14.982
34121W        W93217   4.912   0.286  14.414
34122W        W93218   6.311  24.716  11.427
34123W        W93219   2.282  16.225  13.935
34124W        W93220  30.161  44.987   2.776
34125W        W93221  17.799   1.858   1.722
34126W        W93222  14.695  14.152  14.350
34127W        W93223  25.708  20.109  14.940
34128W        W93224  41.879  10.805  13.027
34129W        W93225  37.473  30.485  13.914
34130W        W93226  44.873  33.933  13.799
34131W        W93227  22.200   7.912   1.834
34132W        W93228  31.488  24.595  14.940
34133W        W93229  22.664   8.344  11.072
34134W        W93230  28.485  31.988   1.362
34135W        W93231   6.327   9.278  10.928
34136W        W93232  11.287  12.257  11.382
34137W        W93233  10.805  29.012  14.789
34138W        W93234  25.710  25.084   1.218
34139W        W93235   6.384   3.402  11.898
34140W        W93236  15.596  24.610  13.491
34141W        W93237  27.977  35.505   0.254
34142W        W93238   8.857   3.289   4.250
34143W        W93239  23.181  31.045   0.360
34144W        W93240  17.730  28.104  12.029
34145W        W93241  31.153  14.633  11.993
34146W        W93242  21.531  19.635  14.846
34147W        W93243  19.592  23.211  12.087
34148W        W93244  26.009  28.672   1.247
34149W        W93245  41.003   5.243   0.783
34150W        W93246  33.461  36.843   0.348
34151W        W93247  41.469  38.928  10.565
34152W        W93248  20.549   3.283  10.147
34153W        W93249  35.548  27.994   0.834
34154W        W93250   1.249  38.884   1.809
34155W        W93251  19.130  10.225  14.018
34156W        W93252  25.094  33.028  13.509
34157W        W93253  34.604  32.890  10.596
34158W        W93254  34.546  16.579  12.550
34159W        W93255  12.195  42.900   0.942
34160W        W93256  20.213   7.671   3.838
34161W        W93257  22.534  25.025   2.361
34162W        W93258  13.801   1.879  11.483
34163W        W93259   1.956  14.640   4.262
34164W        W93260   0.839  15.581   4.809
34165W        W93261  22.621  28.938  14.507
34166W        W93262  25.596   9.798   0.301
34167W        W93263  20.246  14.096   1.216
34168W        W93264  44.450   6.220   2.718
34169W        W93265  16.680  15.683  13.948
34170W        W93266  39.891   8.793   0.843
34171W        W93267  27.019  24.654  11.460
34172W        W93268  17.163  19.632  14.828
34173W        W93269  13.289  26.024   1.387
34174W        W93270  39.902  22.553  14.961
34175W        W93271   7.388  32.003   4.740
34176W        W93272  27.445  41.486   0.726
34177W        W93273  15.261  41.922  12.848
34178W        W93274  39.992  39.881  10.580
34179W        W93275  42.798  32.616   2.701
34180W        W93276  31.647  41.978   2.690
34181W        W93277  23.678   4.853  13.318
34182W        W93278  22.086   1.354   2.365
34183W        W93279  21.252   0.831  14.888
34184W        W93280  26.640  17.138   2.870
34185W        W93281  40.423   7.806   1.249
34186W        W93282   5.811  24.060  12.090
34187W        W93283  38.365  31.994  10.936
34188W        W93284  30.953   7.235   1.232
34189W        W93285  25.083  21.599  12.363
34190W        W93286   7.903  32.072  12.446
34191W        W93287  26.680   2.266   2.207
34192W        W93288  35.957  13.845   3.737
34193W        W93289  40.945  10.725   1.843
34194W        W93290  40.317  26.541  11.380
34195W        W93291  13.273   6.859  10.987
34196W        W93292  12.698  37.080   4.773
34197W        W93293  19.685  37.005  13.411
34198W        W93294  24.683   8.816  10.569
34199W        W93295  15.176  16.076   3.804
34200W        W93296  37.443  38.388   4.129
34201W        W93297   2.836  10.724   2.382
34202W        W93298  35.895  37.032  11.027
34203W        W93299  38.072   7.248   3.648
34204W        W93300   1.844  28.649   4.696
34205W        W93301   5.697  13.129   1.444
34206W        W93302   4.830  40.508  14.004
34207W        W93303  26.961  14.687  11.068
34208W        W93304  25.683  11.730  14.853
34209W        W93305   5.348   8.860   0.881
34210W        W93306   9.298  34.874  11.023
34211W        W93307  37.070  26.043  12.010
34212W        W93308   2.256  20.710  12.866
34213W        W93309  24.079  31.043  11.116
34214W        W93310  20.202   4.364   3.673
34215W        W93311  38.339  41.826   2.297
34216W        W93312  26.541   6.294  13.042
34217W        W93313  38.395  42.400  14.320
34218W        W93314  37.402  36.972   1.722
34219W        W93315   3.457  36.585   4.674
34220W        W93316   7.330   4.756  11.913
34221W        W93317  36.848  14.655   3.753
34222W        W93318   3.286   0.805   3.749
34223W        W93319  26.524  31.504  13.361
34224W        W93320  33.390   6.324   3.823
34225W        W93321  43.345  43.772   4.218
34226W        W93322  17.087  12.223   2.732
34227W        W93323  32.963  24.085  13.540
34228W        W93324  21.585  11.814   4.739
34229W        W93325  21.618  21.606   1.224
34230W        W93326  29.658  10.373  11.585
34231W        W93327   3.452   6.354  11.870
34232W        W93328  37.926  36.944  13.533
34233W        W93329  25.530  21.678  11.938
34234W        W93330  31.077  42.970   2.872
34235W        W93331  26.016   8.390   1.900
34236W        W93332  15.246   0.926  10.909
34237W        W93333  21.592  30.039  11.601
34238W        W93334  11.234  25.140  13.357
34239W        W93335  17.595   9.326  10.554
34240W        W93336  41.999  15.588  13.808
34241W        W93337  31.421  36.524  12.394
34242W        W93338  39.910  11.813   2.195
34243W        W93339  25.568  28.509  12.416
34244W        W93340  16.576  35.488  13.975
34245W        W93341   7.273  37.425  14.440
34246W        W93342  19.243  33.084   2.287
34247W        W93343  23.663  41.408   2.255
34248W        W93344   2.388  16.609   3.311
34249W        W93345  42.985  30.151   2.222
34250W        W93346   0.886  42.378  10.614
34251W        W93347  44.773  24.668   4.702
34252W        W93348   9.864  32.557   1.397
34253W        W93349  32.086  20.110   2.302
34254W        W93350  19.084   3.754  10.622
34255W        W93351  18.761  24.048  10.999
34256W        W93352   4.777  32.946  13.987
34257W        W93353  24.128  10.361  11.085
34258W        W93354  25.477  26.463   0.315
34259W        W93355  31.081  34.449  11.101
34260W        W93356  41.436   8.283  14.493
34261W        W93357  17.645  44.401   3.707
34262W        W93358   4.392  30.095  14.472
34263W        W93359   2.227  18.667  14.840
34264W        W93360  22.594  13.313  14.963
34265W        W93361  25.117   8.735  12.560
34266W        W93362  39.977  40.448   1.874
34267W        W93363   0.942  32.125   3.262
34268W        W93364   8.771   8.171   0.750
34269W        W93365   6.397  25.478  12.010
34270W        W93366   2.324  20.045   0.399
34271W        W93367  39.391  14.175   0.354
34272W        W93368  18.110  10.797   3.148
34273W        W93369   6.348  22.665  14.484
34274W        W93370  31.032  17.780   2.307
34275W        W93371  11.717  25.011  10.906
34276W        W93372  29.578  19.154   3.842
34277W        W93373  42.311  14.628  10.918
34278W        W93374  43.001   3.845  14.415
34279W        W93375  29.478   9.387  13.977
34280W        W93376  21.066  18.545  10.575
34281W        W93377  39.937  13.182  14.419
34282W        W93378  20.658  39.381  11.003
34283W        W93379   0.364  26.466  12.552
34284W        W93380  27.539  37.457   9.943
34285W        W93381  32.510   0.923   4.709
34286W        W93382  38.991  21.154  14.399
34287W        W93383  30.458  27.141   3.786
34288W        W93384  38.491  31.609  13.968
34289W        W93385  21.157  21.517  11.052
34290W        W93386  12.830  40.366   3.788
34291W        W93387  32.566  43.775   1.341
34292W        W93388  26.076   2.311  14.969
34293W        W93389  17.265  39.397   0.928
34294W        W93390  37.456  27.182   4.832
34295W        W93391  36.431  22.516   4.209
34296W        W93392  42.941  29.065   3.673
34297W        W93393  26.998  10.833   4.655
34298W        W93394  44.392  34.437   4.150
34299W        W93395  42.027  42.965   0.462
34300W        W93396   5.294   3.939  11.506
34301W        W93397  38.500  36.581   1.345
34302W        W93398  41.528  18.637  14.863
34303W        W93399  24.702  10.214  10.997
34304W        W93400  27.969  14.288  13.391
34305W        W93401  18.667  33.553   0.737
34306W        W93402  38.464   4.271   4.759
34307W        W93403  36.943  20.715  14.962
34308W        W93404  43.989  13.171   0.415
34309W        W93405  32.942  28.498   3.195
34310W        W93406  41.393  29.650   4.133
34311W        W93407  34.986  25.190   0.920
34312W        W93408  11.161   6.205  13.931
34313W        W93409  29.564   9.387   4.718
34314W        W93410  33.585  18.132   1.446
34315W        W93411  24.514   0.345  11.565
34316W        W93412  33.450  32.466  11.471
34317W        W93413  24.997   7.908  12.017
34318W        W93414   3.296  23.130   0.451
34319W        W93415   5.696  36.022  13.493
34320W        W93416  17.736  32.459   2.357
34321W        W93417  21.198   5.751  10.513
34322W        W93418  33.058   0.462   2.769
34323W        W93419   8.768  32.076   3.159
34324W        W93420  19.589  34.016  14.484
34325W        W93421   9.650   4.729  13.938
34326W        W93422   1.973   0.833   0.834
34327W        W93423  19.185  33.551  10.920
34328W        W93424  17.713  26.575   3.759
34329W        W93425  42.995   6.811   0.831
34330W        W93426  21.020  31.539  12.390
34331W        W93427  24.508  34.611   4.161
34332W        W93428   9.747  33.533  12.497
34333W        W93429  39.899  43.282   4.189
34334W        W93430  23.163  36.932   5.649
34335W        W93431  42.825   7.259  14.024
34336W        W93432  19.130  15.282   0.809
34337W        W93433  33.578  25.682  13.446
34338W        W93434  29.096  20.722  10.497
34339W        W93435  30.639  33.606   0.924
34340W        W93436  25.966   6.410  12.836
34341W        W93437  29.144   7.188  12.380
34342W        W93438  43.809  32.126   3.711
34343W        W93439   5.749  36.857  14.009
34344W        W93440  16.794  38.940  12.559
34345W        W93441  27.518  33.477   3.268
34346W        W93442   5.865  27.533   2.849
34347W        W93443  35.036  16.704   3.204
34348W        W93444   2.446  28.449   3.803
34349W        W93445   0.863  17.297  12.848
34350W        W93446  23.054  32.009  14.846
34351W        W93447   0.295  38.013   0.916
34352W        W93448  11.193  29.170  11.931
34353W        W93449  25.069  18.727  12.056
34354W        W93450  31.579   9.312   3.679
34355W        W93451   4.215  15.102   0.938
34356W        W93452  43.955   4.741   2.775
34357W        W93453  23.186   9.830  14.422
34358W        W93454  16.099   7.410  13.487
34359W        W93455  38.390  11.730   0.791
34360W        W93456  13.663  23.068  11.542
34361W        W93457  20.730   1.799  10.997
34362W        W93458  13.229  25.970  13.980
34363W        W93459  20.762   1.772  11.517
34364W        W93460  30.592  19.062  11.928
34365W        W93461  37.902   7.700   5.098
34366W        W93462  28.036  37.377  11.024
34367W        W93463   4.257  23.230  11.888
34368W        W93464  35.574   6.852  12.979
34369W        W93465  22.546  22.144  14.500
34370W        W93466  18.636  21.742  12.416
34371W        W93467  42.864   8.308   0.404
34372W        W93468  16.187  35.373   1.327
34373W        W93469  36.373  10.242  13.060
34374W        W93470  33.887  12.845   4.604
34375W        W93471  33.121  14.116   0.847
34376W        W93472   0.801  12.270   1.214
34377W        W93473  43.286  29.069  10.113
34378W        W93474  43.381  27.520  12.436
34379W        W93475  21.585  39.489   3.724
34380W        W93476   5.861   7.843   0.954
34381W        W93477  18.145   1.272  14.935
34382W        W93478  29.625   2.903   4.188
34383W        W93479  12.697  34.501   0.828
34384W        W93480  43.011   7.826  13.806
34385W        W93481  16.578  22.704   0.377
34386W        W93482   8.741  36.384  13.322
34387W        W93483   7.752  34.078  13.030
34388W        W93484  17.061  10.709  11.976
34389W        W93485  27.196  28.976   2.787
34390W        W93486  39.815  30.160  12.545
34391W        W93487  13.134  39.919  11.510
34392W        W93488  32.431   4.273   4.150
34393W        W93489  23.680  14.131  14.807
34394W        W93490  21.587   6.308   0.282
34395W        W93491  14.772   0.777  12.026
34396W        W93492  35.457  27.524   0.802
34397W        W93493   0.259  29.946  14.324
34398W        W93494  34.573  42.933  14.344
34399W        W93495  20.090  27.529  13.407
34400W        W93496   1.833  36.039  11.986
34401W        W93497   6.260  18.745  11.040
34402W        W93498   4.742  17.724  11.925
34403W        W93499   5.403  14.608  12.444
34404W        W93500  43.408  34.986  12.021
34405W        W93501  36.088   0.863  10.887
34406W        W93502  19.245  40.949  14.334
34407W        W93503  35.051  25.506   0.403
34408W        W93504  40.470  37.919  14.340
34409W        W93505  30.146  17.586  12.838
34410W        W93506   7.365  23.996   1.727
34411W        W93507   4.701  28.072   5.258
34412W        W93508   8.332   8.331   2.268
34413W        W93509  14.639  32.069  12.923
34414W        W93510  36.904  40.398  12.048
34415W        W93511  41.440   9.846   2.663
34416W        W93512  26.185  25.117  12.861
34417W        W93513  10.747   4.387  14.945
34418W        W93514  24.169  11.181  10.512
34419W        W93515  33.618   5.305  14.943
34420W        W93516   4.443  41.318  12.064
34421W        W93517  37.342   4.396  13.423
34422W        W93518  12.312  38.007   2.245
34423W        W93519  14.287   6.289   3.236
34424W        W93520  25.966   3.821  13.942
34425W        W93521  13.292  31.643   4.716
34426W        W93522  27.056  28.947  11.487
34427W        W93523  30.541  17.657  10.436
34428W        W93524   9.211  10.158   3.313
34429W        W93525   5.716  17.714  14.342
34430W        W93526   9.732  25.194  11.081
34431W        W93527  23.987   7.405   1.388
34432W        W93528  26.202  23.136  14.007
34433W        W93529  31.034  20.632   4.786
34434W        W93530  29.922  25.579   1.823
34435W        W93531  17.633  25.105  10.956
34436W        W93532  26.109  38.328   0.411
34437W        W93533   7.266   4.852  11.015
34438W        W93534   8.398   2.891   1.935
34439W        W93535  33.071  21.536   2.775
34440W        W93536  28.628  27.979  14.406
34441W        W93537   1.738  32.935  12.070
34442W        W93538  42.386   0.477  11.102
34443W        W93539  20.116  15.597   0.851
34444W        W93540  32.426  26.536  10.621
34445W        W93541  40.481  22.732  10.054
34446W        W93542  35.400  22.187   0.297
34447W        W93543  38.949   2.844   3.159
34448W        W93544  40.984  33.501   0.764
34449W        W93545   7.196  28.994   4.135
34450W        W93546  43.364  32.992   3.209
34451W        W93547   3.265  15.188  11.602
34452W        W93548  35.520   7.896  11.596
34453W        W93549  15.255   8.891  10.440
34454W        W93550  36.512  38.866  12.459
34455W        W93551  33.945  19.078  13.818
34456W        W93552   7.890  19.160  13.312
34457W        W93553  38.996  14.327  10.158
34458W        W93554  19.128  29.624   0.778
34459W        W93555  15.686   0.282  14.388
34460W        W93556  15.726  27.555   4.164
34461W        W93557  14.165   9.303  13.811
34462W        W93558  11.283  16.212  14.309
34463W        W93559  37.372  33.009  10.074
34464W        W93560   0.304  15.100  11.872
34465W        W93561  38.906  32.916   4.809
34466W        W93562  17.739   4.422   0.873
34467W        W93563  36.059  35.586   2.783
34468W        W93564  41.901  40.349  12.089
34469W        W93565   1.819  12.711   3.808
34470W        W93566   1.462  40.034   4.206
34471W        W93567  42.433  36.084   4.282
34472W        W93568   2.379   4.786  14.467
34473W        W93569   6.704  26.550   2.706
34474W        W93570  36.037   4.862  14.386
34475W        W93571  20.625  34.866  14.478
34476W        W93572  30.119   1.774   3.674
34477W        W93573  35.065  28.567   1.833
34478W        W93574  26.955  20.091   1.423
34479W        W93575  14.649  44.950   4.144
34480W        W93576  31.003  26.180  14.790
34481W        W93577  22.022  28.136   1.442
34482W        W93578   4.229  43.984  10.488
34483W        W93579  22.714  24.609  11.050
34484W        W93580   7.410   7.349   2.381
34485W        W93581   3.924  37.025  13.870
34486W        W93582  21.240   5.865  14.862
34487W        W93583  25.995  20.053   1.863
34488W        W93584   8.338  10.324   1.328
34489W        W93585   1.482  32.611  13.319
34490W        W93586  27.954  34.517   5.722
34491W        W93587  18.161  17.703   2.802
34492W        W93588  31.098   5.439   2.364
34493W        W93589  13.704  33.384   3.238
34494W        W93590  24.995  15.633   0.741
34495W        W93591  20.197  38.904  10.519
34496W        W93592  39.973   5.203  11.545
34497W        W93593   5.403  17.766   0.349
34498W        W93594   2.745  39.991   3.147
34499W        W93595  26.186   2.288   0.384
34500W        W93596  22.252  24.601   3.860
34501W        W93597  28.499  29.978   3.350
34502W        W93598  44.274  27.003   1.826
34503W        W93599  18.228  28.046  10.504
34504W        W93600   6.368  36.992  11.019
34505W        W93601  41.903  12.273  11.029
34506W        W93602  32.554  14.290  13.845
34507W        W93603  34.412  22.074  12.840
34508W        W93604  36.350   5.896   1.810
34509W        W93605  14.742  42.482   1.809
34510W        W93606  25.125   4.405   0.472
34511W        W93607  20.208   1.840   0.756
34512W        W93608  39.503  41.880   1.707
34513W        W93609  10.870  19.593   5.113
34514W        W93610  23.131  29.599  11.432
34515W        W93611  12.185  41.430   4.759
34516W        W93612  15.278  30.620   1.345
34517W        W93613  25.092  32.538  10.903
34518W        W93614  14.250  17.153  14.869
34519W        W93615  39.955  42.373   0.255
34520W        W93616  17.119  43.976   2.271
34521W        W93617  36.848  39.017  12.448
34522W        W93618   5.256   1.398  12.878
34523W        W93619  29.589  39.064  11.018
34524W        W93620  40.378  42.025  14.979
34525W        W93621  27.608  36.986   0.268
34526W        W93622  31.643  42.023   1.444
34527W        W93623  40.028  22.114  14.011
34528W        W93624  23.626  35.906  10.994
34529W        W93625  19.048  25.188  14.902
34530W        W93626   5.887  42.988   0.800
34531W        W93627  19.629  25.695  14.809
34532W        W93628  21.020  38.523   4.116
34533W        W93629  43.839  43.896  12.416
34534W        W93630  18.567  27.073   2.788
34535W        W93631  14.245  28.062  12.489
34536W        W93632   8.294   3.902   1.428
34537W        W93633  18.124  22.595   0.429
34538W        W93634   1.904  40.908   0.903
34539W        W93635  33.544  11.675   5.244
34540W        W93636  10.739  16.245   1.699
34541W        W93637  15.282  30.140   2.840
34542W        W93638  20.589  31.995   2.704
34543W        W93639   0.484  20.616   1.872
34544W        W93640  28.037  31.904   3.772
34545W        W93641  28.562  35.546   1.773
34546W        W93642  25.707  20.214  13.529
34547W        W93643  23.199   9.189  10.502
34548W        W93644  24.148  10.851   5.622
34549W        W93645  15.623  42.398   1.813
34550W        W93646   4.305  12.190  13.362
34551W        W93647   8.209  28.639   1.863
34552W        W93648  15.313  17.799   0.290
34553W        W93649  23.997  36.359   2.387
34554W        W93650  29.975  25.201   1.865
34555W        W93651   6.206  26.494  10.437
34556W        W93652  26.136  26.185   2.298
34557W        W93653  27.471  11.265  10.936
34558W        W93654   1.768   7.311  10.900
34559W        W93655  43.352  40.922   1.859
34560W        W93656  11.727  26.154   1.897
34561W        W93657  35.396  31.476   1.868
34562W        W93658   2.798  11.353   4.335
34563W        W93659  35.995  21.147   4.185
34564W        W93660   3.302  13.163   1.706
34565W        W93661  34.015  10.240  14.506
34566W        W93662  10.823   3.313   4.246
34567W        W93663  22.021  15.821   2.228
34568W        W93664   4.244  31.421   1.289
34569W        W93665   8.164   5.369  14.323
34570W        W93666  24.558  23.232  14.865
34571W        W93667  23.113   4.234   1.731
34572W        W93668  28.013  42.331  13.438
34573W        W93669  16.566  17.256  11.476
34574W        W93670   9.154  35.568   1.901
34575W        W93671  32.974   4.295  12.031
34576W        W93672  25.501   5.226   2.265
34577W        W93673  21.562   4.859   3.784
34578W        W93674  43.285  34.578   5.162
34579W        W93675  31.557  16.221  13.914
34580W        W93676  24.149  26.602   3.812
34581W        W93677  15.648  18.291  14.866
34582W        W93678  17.726   2.793   3.810
34583W        W93679  26.008  19.199   2.673
34584W        W93680  44.324  30.917  11.516
34585W        W93681  37.448   4.368   2.881
34586W        W93682   3.299   6.256   0.257
34587W        W93683  38.980  11.754  14.491
34588W        W93684  31.581   6.395  10.525
34589W        W93685  29.645  40.903   4.268
34590W        W93686  40.399  35.437   1.816
34591W        W93687  31.939  31.522   3.744
34592W        W93688   0.930  25.506   2.808
34593W        W93689   9.213  33.480   0.282
34594W        W93690   1.860  41.027  12.565
34595W        W93691  42.318  24.009   3.664
34596W        W93692  31.428  37.878   1.267
34597W        W93693  27.963   1.733  11.096
34598W        W93694  30.614   7.291   4.752
34599W        W93695  14.693  20.192  11.483
34600W        W93696  15.122  39.055   2.358
34601W        W93697   4.392  38.919   0.739
34602W        W93698  18.106  17.644  14.394
34603W        W93699   5.215  30.913  13.499
34604W        W93700  20.677  13.286   2.707
34605W        W93701  33.531  26.656   2.394
34606W        W93702  21.189   4.842  12.970
34607W        W93703  27.988  36.383   3.167
34608W        W93704  40.864  11.665   0.255
34609W        W93705  27.100   5.818   1.256
34610W        W93706  16.313  34.088  10.956
34611W        W93707  17.088  42.307  13.978
34612W        W93708  30.561  22.006  14.457
34613W        W93709  37.556   0.808   3.307
34614W        W93710  22.081  15.739   0.312
34615W        W93711   3.923   7.401  12.490
34616W        W93712  32.635  18.609  14.920
34617W        W93713  26.472  42.911  13.936
34618W        W93714  37.037  12.642   1.895
34619W        W93715  29.055  14.793  13.371
34620W        W93716  39.362  10.747   2.722
34621W        W93717   1.346  11.806   4.289
34622W        W93718  13.693   3.328  13.390
34623W        W93719  27.639  14.152  12.836
34624W        W93720  27.450   4.929  11.413
34625W        W93721  20.570  31.598  13.541
34626W        W93722  33.380  18.130   2.192
34627W        W93723   5.420  16.575  10.541
34628W        W93724  19.561  13.310   4.319
34629W        W93725   9.172  34.495   3.213
34630W        W93726   8.900  20.190  12.915
34631W        W93727   0.428  18.149  14.896
34632W        W93728   5.386  14.599   1.854
34633W        W93729   7.846  12.627   0.861
34634W        W93730  30.140  33.063   1.271
34635W        W93731  40.546   2.282   0.459
34636W        W93732  19.254  17.279   0.918
34637W        W93733  39.454  32.624   0.405
34638W        W93734  25.511   8.404  12.863
34639W        W93735  41.989  35.385  13.484
34640W        W93736   7.791  38.844  13.827
34641W        W93737  43.980  13.735   3.211
34642W        W93738  22.188  40.489   1.228
34643W        W93739  24.565  43.801   0.249
34644W        W93740  25.496  28.605   1.724
34645W        W93741  19.566  18.627   2.252
34646W        W93742   6.305  19.130   0.306
34647W        W93743  29.595  20.714   2.381
34648W        W93744  25.150  14.684   4.330
34649W        W93745  40.052   4.255  12.084
34650W        W93746   1.451  28.964   1.864
34651W        W93747  35.854   3.950  13.411
34652W        W93748  26.131  27.990   1.713
34653W        W93749  35.853  23.702  14.932
34654W        W93750  12.247  19.589  10.570
34655W        W93751  41.478  17.727   1.299
34656W        W93752  29.483  36.896   0.853
34657W        W93753   5.322   6.837   1.737
34658W        W93754  25.673   0.898  13.926
34659W        W93755  34.433  43.456   4.607
34660W        W93756  15.801  20.131   3.636
34661W        W93757   1.769   9.213  12.824
34662W        W93758  43.370  23.156  14.282
34663W        W93759  38.498  31.056   2.902
34664W        W93760  15.800  33.455  13.943
34665W        W93761  43.792  23.169   0.892
34666W        W93762  27.071   2.317  11.416
34667W        W93763   2.254  23.222   1.929
34668W        W93764   4.699   3.802  13.360
34669W        W93765  41.535  33.021   1.233
34670W        W93766  35.873   3.891  11.609
34671W        W93767  34.906  42.367   3.725
34672W        W93768  25.127  36.895  14.931
34673W        W93769  40.512   9.730   9.970
34674W        W93770  12.840  40.504   2.760
34675W        W93771  21.592  32.025  13.045
34676W        W93772  10.825  22.168   4.629
34677W        W93773   5.719  38.847  13.523
34678W        W93774   4.815  38.918   2.892
34679W        W93775  43.372  22.027  14.294
34680W        W93776   2.333  34.020   1.696
34681W        W93777  24.210  10.331   0.342
34682W        W93778  40.999  37.890  13.377
34683W        W93779  41.042  26.629  13.941
34684W        W93780  20.662   4.404  11.450
34685W        W93781  30.152  28.126  12.877
34686W        W93782  20.754  19.618   1.267
34687W        W93783  26.102  25.969   0.267
34688W        W93784  13.753   7.906  13.471
34689W        W93785   0.264  11.671   0.303
34690W        W93786  41.839   9.251   1.756
34691W        W93787  39.882  38.449  12.870
34692W        W93788  22.176  35.096   2.779
34693W        W93789   8.242   8.803   1.736
34694W        W93790  28.935   6.298   0.384
34695W        W93791  14.711  12.742   0.365
34696W        W93792   2.839  15.777   3.326
34697W        W93793   5.387   5.218   3.757
34698W        W93794  13.177  14.175  11.033
34699W        W93795  15.094   1.472  10.435
34700W        W93796   8.808   2.842  14.423
34701W        W93797  29.051   7.697   0.325
34702W        W93798  12.248  26.488  11.120
34703W        W93799  41.300  10.634   4.698
34704W        W93800  11.847   1.761   1.800
34705W        W93801   9.798  31.560   9.942
34706W        W93802  36.012   4.337  12.360
34707W        W93803   4.216  36.475  13.412
34708W        W93804   3.872  43.871  11.934
34709W        W93805  24.034  12.689   3.796
34710W        W93806   5.914  22.219   0.365
34711W        W93807  42.928  18.267  12.415
34712W        W93808  11.828  18.164   2.718
34713W        W93809  40.547  43.829  14.283
34714W        W93810  36.360   8.654  12.530
34715W        W93811   9.237  10.877   4.149
34716W        W93812  20.565  23.550  14.304
34717W        W93813   2.401   0.299  12.046
34718W        W93814  43.350  38.374  13.883
34719W        W93815   7.779   6.338  13.496
34720W        W93816  25.682   2.753  13.457
34721W        W93817  37.950   6.382   2.287
34722W        W93818   3.940  17.779  14.976
34723W        W93819  42.323  30.107   1.811
34724W        W93820   6.216  13.239  11.510
34725W        W93821   8.346  42.512  10.523
34726W        W93822  40.980  35.010   2.349
34727W        W93823   2.366  12.617  13.510
34728W        W93824  38.412  34.901  10.581
34729W        W93825  16.213  31.099   0.827
34730W        W93826  29.149  12.629  11.004
34731W        W93827  33.995  29.070  12.829
34732W        W93828  42.373   8.327   2.320
34733W        W93829  37.861  38.441   0.844
34734W        W93830  42.376  32.942   0.478
34735W        W93831  35.975  40.916  10.608
34736W        W93832   2.464  40.836   2.367
34737W        W93833  32.997  38.553  11.480
34738W        W93834   4.210  24.173   4.607
34739W        W93835  34.488  16.097  13.529
34740W        W93836  27.479   3.261  11.471
34741W        W93837  27.166  14.649   0.467
34742W        W93838  14.201  30.420  13.820
34743W        W93839  19.674  26.484   0.243
34744W        W93840  38.073  12.704   3.828
34745W        W93841  22.238  17.667   3.808
34746W        W93842   1.436   7.301  14.340
34747W        W93843  38.891  20.761   3.213
34748W        W93844  34.111  34.942   1.792
34749W        W93845  18.217  25.538   4.687
34750W        W93846  26.086   5.364   1.795
34751W        W93847  35.868  39.991   2.405
34752W        W93848  19.226  13.800   2.266
34753W        W93849  39.955   4.236  11.594
34754W        W93850  37.517   1.372   1.826
34755W        W93851  43.963  28.596   1.251
34756W        W93852  28.002  42.811   1.395
34757W        W93853   2.780   5.322  12.354
34758W        W93854  17.569  31.028  11.395
34759W        W93855  14.735  38.919   0.279
34760W        W93856  26.636   5.837   4.818
34761W        W93857   0.353  22.199  14.515
34762W        W93858  41.353  40.516   2.768
34763W        W93859  30.497  20.535  12.874
34764W        W93860  17.302   5.930   1.351
34765W        W93861  39.831  32.090   2.324
34766W        W93862  20.584   1.431  12.948
34767W        W93863  31.411  35.853  14.471
34768W        W93864   1.351  39.503   3.835
34769W        W93865  20.109   6.203   4.761
34770W        W93866  30.907  33.514  10.905
34771W        W93867   1.352  34.038  11.433
34772W        W93868  18.056  40.829   1.214
34773W        W93869  13.347  35.975  14.462
34774W        W93870  28.519  36.380  12.557
34775W        W93871  31.429  44.760  14.792
34776W        W93872  34.416   3.710  13.859
34777W        W93873  34.378  28.064  13.921
34778W        W93874   4.239  37.559   3.796
34779W        W93875  17.266   7.252  10.908
34780W        W93876  20.769  10.325  13.825
34781W        W93877  16.287  35.494   0.902
34782W        W93878  21.088  16.179  10.640
34783W        W93879   5.207  33.974  13.995
34784W        W93880  10.752  23.240   3.758
34785W        W93881  12.166  41.789   3.265
34786W        W93882  32.479  30.010  13.437
34787W        W93883   3.363   0.977  13.508
34788W        W93884   2.264   4.233   3.705
34789W        W93885  40.891  40.869  13.058
34790W        W93886  30.927  35.925   4.729
34791W        W93887   8.762  36.016  14.873
34792W        W93888   7.200  19.662   0.457
34793W        W93889   3.393  11.139   0.428
34794W        W93890   2.888  11.177   3.161
34795W        W93891  37.490  43.462   5.099
34796W        W93892  38.347  24.197   0.941
34797W        W93893  18.708  11.628   3.633
34798W        W93894   7.798  42.865   0.337
34799W        W93895  27.180  10.289  11.473
34800W        W93896  23.009  13.785  12.096
34801W        W93897  12.224   0.981   4.684
34802W        W93898  15.742  44.861  11.426
34803W        W93899   2.325   2.812   0.932
34804W        W93900   7.176  10.706   1.312
34805W        W93901  26.473  41.480   1.866
34806W        W93902  36.949   0.494   1.252
34807W        W93903  44.336  42.318   1.873
34808W        W93904  14.801  16.262  13.472
34809W        W93905   3.255   2.780  13.523
34810W        W93906   2.322   5.195   4.820
34811W        W93907  34.102  12.676  10.997
34812W        W93908  28.611  34.060  12.073
34813W        W93909   1.428   1.397  12.527
34814W        W93910  12.729  38.390  10.522
34815W        W93911  34.942  19.152  10.422
34816W        W93912  37.366  29.589  14.906
34817W        W93913   4.409  42.868  10.560
34818W        W93914  17.117  40.996   2.412
34819W        W93915  14.101  39.490  11.556
34820W        W93916  43.445  39.865  14.414
34821W        W93917  21.048  24.561  10.551
34822W        W93918  27.447  27.457   1.397
34823W        W93919   2.872  39.441  14.922
34824W        W93920  17.147   6.352   3.751
34825W        W93921  42.891  12.282   4.184
34826W        W93922  14.212  21.040   0.359
34827W        W93923  33.917  16.080  11.544
34828W        W93924   1.290   5.855  12.555
34829W        W93925  44.389  34.980  13.054
34830W        W93926  12.824  25.689   0.262
34831W        W93927  21.695  21.134   2.338
34832W        W93928  12.218  29.488  14.866
34833W        W93929  39.528   4.328   1.782
34834W        W93930  18.069   7.285   0.374
34835W        W93931  25.064  42.834  10.132
34836W        W93932  25.105  14.648  10.443
34837W        W93933  24.004  40.321  10.622
34838W        W93934  11.337  19.754  14.853
34839W        W93935   7.689  35.571   2.881
34840W        W93936  42.872  38.972   4.655
34841W        W93937  25.196  33.415   0.753
34842W        W93938  17.732   5.771   0.338
34843W        W93939  35.557  10.678  11.962
34844W        W93940  14.097  17.730   0.878
34845W        W93941  10.138  44.007  11.067
34846W        W93942  18.776  40.006  11.079
34847W        W93943  17.752  36.045   5.797
34848W        W93944  40.966  25.619  14.331
34849W        W93945  13.680   4.776   9.927
34850W        W93946  44.863  26.643   3.824
34851W        W93947  25.689  14.318  13.336
34852W        W93948   5.337   3.938  12.398
34853W        W93949  40.487   6.803  12.394
34854W        W93950   4.358   6.182  11.550
34855W        W93951  26.126  41.861   0.791
34856W        W93952  28.121  14.769  11.960
34857W        W93953   9.840  23.170   3.748
34858W        W93954  37.989  15.228   5.300
34859W        W93955  21.664  35.109  12.452
34860W        W93956  20.104  22.252  11.883
34861W        W93957  31.530  16.679   0.373
34862W        W93958  31.440  15.788  14.946
34863W        W93959  29.452  22.538   3.279
34864W        W93960  31.973   2.376   0.479
34865W        W93961  44.303  35.032   4.784
34866W        W93962  21.142   0.302  14.984
34867W        W93963  34.056  43.012  13.903
34868W        W93964  37.962  37.536  10.067
34869W        W93965   4.825   5.420  13.841
34870W        W93966  12.176  27.486  14.396
34871W        W93967  35.490  29.438  12.492
34872W        W93968  12.651   2.951  11.570
34873W        W93969   1.767  12.624  13.370
34874W        W93970  24.707   6.873  13.433
34875W        W93971  44.941   7.712   4.292
34876W        W93972  30.602  38.502   0.364
34877W        W93973  25.176  28.619   4.798
34878W        W93974  33.530   5.340  13.884
34879W        W93975  26.177  12.211  13.036
34880W        W93976  34.582  32.429   4.189
34881W        W93977  23.991  42.344  10.408
34882W        W93978   5.337  32.988  10.913
34883W        W93979   6.777  24.981  10.609
34884W        W93980  26.107  30.165  12.062
34885W        W93981  29.535  25.038  14.433
34886W        W93982  34.076  13.754  11.454
34887W        W93983  31.134  40.403  14.952
34888W        W93984  39.879  40.486   0.282
34889W        W93985   5.934   3.861   0.349
34890W        W93986  19.127   4.409  11.048
34891W        W93987  38.936  13.345   0.359
34892W        W93988  39.810  27.156  14.418
34893W        W93989  42.476   2.367  12.049
34894W        W93990  16.609  44.336  14.924
34895W        W93991   8.864  21.637  10.538
34896W        W93992   5.262  39.823   3.295
34897W        W93993   4.449  19.560   3.157
34898W        W93994   0.369  31.618  11.570
34899W        W93995  26.493  40.484   2.669
34900W        W93996   0.778  36.957  10.500
34901W        W93997  42.809  37.528  13.465
34902W        W93998  20.211  43.303   3.773
34903W        W93999  25.107   1.834  11.963
34904W        W94000   3.453  13.132  14.834
34905W        W94001  17.095  44.924   1.448
34906W        W94002   9.239  31.971  10.147
34907W        W94003  13.835  36.963   1.338
34908W        W94004  20.714  41.940  11.957
34909W        W94005  22.649  16.585  11.533
34910W        W94006  38.477   1.877  14.291
34911W        W94007  43.370  22.565   2.732
34912W        W94008  37.437  13.149  13.310
34913W        W94009  41.961  39.512   4.331
34914W        W94010   5.774  16.640  13.507
34915W        W94011   7.811  18.630   2.710
34916W        W94012  36.945  35.514   1.388
34917W        W94013  42.303  43.930   3.244
34918W        W94014  21.717  44.858   1.272
34919W        W94015   2.820  43.009   2.310
34920W        W94016  15.799  21.662  14.997
34921W        W94017  32.432  27.994  11.430
34922W        W94018  15.295  22.059   1.375
34923W        W94019  33.122   4.902   4.618
34924W        W94020  10.292   6.904   1.380
34925W        W94021  28.121  35.874  12.389
34926W        W94022   8.845   9.149   4.727
34927W        W94023  23.615  43.436   3.181
34928W        W94024  41.037  11.220   2.284
34929W        W94025   1.390  19.208   1.711
34930W        W94026   9.878   7.402  11.086
34931W        W94027  39.438  21.102  12.002
34932W        W94028  29.612  18.254   1.303
34933W        W94029   6.754  20.047  11.399
34934W        W94030  25.627  39.351   1.219
34935W        W94031  27.116  11.773  14.280
34936W        W94032  43.428  16.611  11.427
34937W        W94033   1.879   1.249   1.865
34938W        W94034  29.019  17.702  14.427
34939W        W94035  30.610  31.018  14.948
34940W        W94036   4.892   5.773   9.994
34941W        W94037  11.218  23.241   1.717
34942W        W94038  15.192  35.969  12.857
34943W        W94039  43.963  13.224   4.812
34944W        W94040  23.006  25.171  13.034
34945W        W94041  16.085  39.906   2.332
34946W        W94042  11.661  26.009   3.826
34947W        W94043  40.515   8.186  12.522
34948W        W94044  23.570   2.841   3.147
34949W        W94045  11.670   0.930   1.790
34950W        W94046  19.602  35.466   3.763
34951W        W94047  33.449  34.899   2.269
34952W        W94048  21.101  12.686   4.331
34953W        W94049  39.848  31.570   3.384
34954W        W94050  20.254   3.738  11.103
34955W        W94051  36.065  17.653  12.556
34956W        W94052  30.015  33.429   3.362
34957W        W94053  36.034  43.362  13.336
34958W        W94054  26.111   7.326   4.346
34959W        W94055  31.932  14.196  14.891
34960W        W94056  42.520   3.721   2.192
34961W        W94057  36.558  12.762  14.322
34962W        W94058  39.930  11.140   2.837
34963W        W94059  44.842  23.635  12.550
34964W        W94060  37.528  11.231  12.919
34965W        W94061  24.509  11.748  11.128
34966W        W94062  13.826  28.470  14.911
34967W        W94063  35.064  29.617  14.758
34968W        W94064  42.450  23.497   0.414
34969W        W94065  16.781   0.491  14.349
34970W        W94066   4.914  15.246   4.279
34971W        W94067  19.767  16.240  11.570
34972W        W94068  21.668  43.803  11.030
34973W        W94069   6.292  20.768  14.346
34974W        W94070  44.426   7.247  11.902
34975W        W94071  11.699  31.549   2.714
34976W        W94072   0.823  33.072  14.463
34977W        W94073  37.967  15.817  12.505
34978W        W94074  20.678  18.280   4.654
34979W        W94075  27.611  18.548   3.281
34980W        W94076  38.423  31.917  10.426
34981W        W94077  22.515  22.558  10.093
34982W        W94078   5.746   3.877   0.797
34983W        W94079  14.293   6.918   2.888
34984W        W94080   2.402  40.813   2.751
34985W        W94081  15.311   2.959   0.345
34986W        W94082   3.921   8.876   4.754
34987W        W94083  33.063  36.867   2.207
34988W        W94084   4.437  11.275   4.216
34989W        W94085   4.874  14.243  10.639
34990W        W94086  28.647  21.088  14.017
34991W        W94087  14.151  43.511   3.698
34992W        W94088   3.799   2.755   3.839
34993W        W94089   7.225  14.625  11.386
34994W        W94090   4.433  20.073   3.702
34995W        W94091   4.715   0.381   1.747
34996W        W94092   1.972  34.537   2.279
34997W        W94093  43.890  13.617   1.745
34998W        W94094   9.156  30.973   2.787
34999W        W94095   4.254  37.540  14.342
35000W        W94096  38.348  18.605   1.896
35001W        W94097  33.028  12.209  14.871
35002W        W94098  31.585   4.915   3.844
35003W        W94099  39.033  10.186  12.911
35004W        W94100  13.173   8.843  11.042
35005W        W94101   1.374   6.697  13.517
35006W        W94102   6.334   7.223  14.028
35007W        W94103   8.396  42.356   1.744
35008W        W94104  14.744  27.172  12.876
35009W        W94105   0.267   4.703   3.689
35010W        W94106  30.476  28.591  10.951
35011W        W94107  17.796  20.590  12.881
35012W        W94108  24.623  43.315  14.808
35013W        W94109  36.397   1.748  12.845
35014W        W94110  38.336  17.679  11.123
35015W        W94111  41.339  30.486   1.778
35016W        W94112   6.770  24.567   2.747
35017W        W94113   9.739  12.351   2.774
35018W        W94114  17.095  35.082  11.880
35019W        W94115  12.190   4.425   4.208
35020W        W94116  24.558  14.731   0.481
35021W        W94117  24.710  31.135   1.445
35022W        W94118  24.508  33.407  10.464
35023W        W94119   2.408  43.764  13.325
35024W        W94120  17.698  27.505  11.433
35025W        W94121   9.861  43.780   2.199
35026W        W94122  30.128  42.351  14.894
35027W        W94123  15.813  14.210   4.166
35028W        W94124  38.988  38.984   4.801
35029W        W94125  36.841   5.699  13.859
35030W        W94126  17.084  14.749   3.868
35031W        W94127   9.731  17.160   2.360
35032W        W94128  24.706   3.228   4.305
35033W        W94129  21.257   2.372   4.129
35034W        W94130  37.572   9.186   1.890
35035W        W94131  44.801  32.592  10.905
35036W        W94132   5.694   9.234   1.313
35037W        W94133  22.526  27.590   1.364
35038W        W94134  28.522  25.485  13.930
35039W        W94135  24.691  13.270   1.296
35040W        W94136  43.013  34.965   0.836
35041W        W94137   6.774   1.840  12.464
35042W        W94138  14.741   9.239  11.921
35043W        W94139  40.904  14.157   0.286
35044W        W94140   1.295  26.536  13.015
35045W        W94141  21.556  22.645  13.022
35046W        W94142  12.141  15.640   1.733
35047W        W94143  34.416  30.619   0.929
35048W        W94144  33.507  36.017  13.540
35049W        W94145   6.298  41.937  11.995
35050W        W94146  22.075   5.735   2.805
35051W        W94147  31.007  15.288   3.187
35052W        W94148  39.458   1.828  12.965
35053W        W94149  27.040  41.529   2.893
35054W        W94150   1.302  44.906  11.014
35055W        W94151  35.390  21.262   4.817
35056W        W94152  25.509  43.929  13.951
35057W        W94153   4.857  18.650  11.987
35058W        W94154  26.500   8.245   2.854
35059W        W94155  26.652  14.830  14.031
35060W        W94156  22.091  20.540   4.718
35061W        W94157   7.220  19.111  11.593
35062W        W94158  14.782  26.492  11.075
35063W        W94159  14.634  29.669   2.804
35064W        W94160   0.953  33.939   2.724
35065W        W94161  34.084  15.094   4.661
35066W        W94162  41.448  25.072  14.012
35067W        W94163   0.387   0.270  12.016
35068W        W94164  30.577   0.248   3.800
35069W        W94165  29.173  34.932  12.441
35070W        W94166   2.726  19.259  11.562
35071W        W94167  10.809  42.942  12.930
35072W        W94168  34.046  18.156  10.142
35073W        W94169   4.251  37.957   0.852
35074W        W94170  36.375   1.261   2.258
35075W        W94171  36.036  21.514  14.882
35076W        W94172  22.221  31.603  10.420
35077W        W94173  15.254  18.692  13.919
35078W        W94174  16.130  42.309   2.680
35079W        W94175   9.174  27.959   2.322
35080W        W94176  27.512  39.345  13.856
35081W        W94177  14.111  42.808  11.389
35082W        W94178  10.175  12.251   1.842
35083W        W94179   7.269  41.373  13.794
35084W        W94180  13.741  25.663  14.856
35085W        W94181  12.229  13.238  14.352
35086W        W94182  39.490  22.657   2.280
35087W        W94183  25.494  12.768   1.773
35088W        W94184  40.905   4.794  10.068
35089W        W94185  35.565   0.248  14.899
35090W        W94186  24.181  31.065   1.373
35091W        W94187  44.396  35.492  12.883
35092W        W94188  43.356  39.427  14.872
35093W        W94189  33.076   4.788   0.379
35094W        W94190  22.570  19.741   0.284
35095W        W94191  35.402   6.392  12.050
35096W        W94192  29.665   5.879   3.790
35097W        W94193  29.986  14.300   2.331
35098W        W94194   9.248  24.586  12.066
35099W        W94195  19.577   6.862   3.199
35100W        W94196   8.362  25.608   1.884
35101W        W94197  30.618  39.346  12.960
35102W        W94198   7.186  31.482   2.753
35103W        W94199  16.712   8.865   1.844
35104W        W94200   3.314   2.801  10.921
35105W        W94201   3.345  12.847  10.492
35106W        W94202   6.799  42.869  10.430
35107W        W94203   4.313   3.917  12.010
35108W        W94204  33.970  37.555   2.237
35109W        W94205   2.775   0.260  13.365
35110W        W94206  16.192  13.199  11.447
35111W        W94207  23.677   1.466   4.209
35112W        W94208   7.788   4.756  14.899
35113W        W94209  15.156  44.916  12.969
35114W        W94210  10.177  37.369  10.919
35115W        W94211   0.267  22.176  14.814
35116W        W94212  37.932  33.087   2.305
35117W        W94213   0.400   1.962   3.163
35118W        W94214  19.230  36.909  14.509
35119W        W94215  11.226  29.966   1.259
35120W        W94216   0.255  27.591  11.885
35121W        W94217   3.794  39.397  14.490
35122W        W94218   6.193   5.819   1.863
35123W        W94219   1.938  10.691   4.178
35124W        W94220   5.386  38.362   3.281
35125W        W94221  38.339  12.744  12.925
35126W        W94222  33.608   9.690   3.195
35127W        W94223  24.074  35.538   4.280
35128W        W94224   0.399  32.596   3.352
35129W        W94225  34.988  16.165  11.967
35130W        W94226  12.611  24.603  12.989
35131W        W94227   2.459  21.691   0.267
35132W        W94228  37.077  15.122   1.314
35133W        W94229  11.724  34.392  13.974
35134W        W94230  12.847  12.359   2.323
35135W        W94231  28.985  42.832  10.982
35136W        W94232  21.571  27.996   2.794
35137W        W94233  26.635  40.365  13.491
35138W        W94234  19.200   7.725   0.343
35139W        W94235  36.365  31.531  12.565
35140W        W94236  34.463  30.999   4.169
35141W        W94237   9.152  18.698  14.934
35142W        W94238  30.428  19.637  11.999
35143W        W94239  34.382  21.641  11.392
35144W        W94240  15.714   1.966   0.452
35145W        W94241  37.866  28.446   4.777
35146W        W94242   5.806  27.653  13.872
35147W        W94243  14.623  44.401   3.661
35148W        W94244  18.640  10.871   2.281
35149W        W94245  33.913  13.179   1.398
35150W        W94246  21.620   1.862  10.921
35151W        W94247  28.051  20.203   1.241
35152W        W94248   5.400  41.522   0.820
35153W        W94249  36.048  41.933  12.348
35154W        W94250  36.456  38.509   2.824
35155W        W94251  44.332  21.729  10.623
35156W        W94252  26.107  42.433  11.100
35157W        W94253  42.291   3.719  10.968
35158W        W94254  43.360  41.003  14.017
35159W        W94255  34.928  37.021   0.302
35160W        W94256   7.855  20.127   3.751
35161W        W94257   4.844   3.720   0.751
35162W        W94258  15.256  12.166  14.281
35163W        W94259  33.928  13.158   2.787
35164W        W94260  21.656  25.108  10.892
35165W        W94261  15.120   4.221  12.868
35166W        W94262   5.403   3.415  10.477
35167W        W94263  22.715  13.106  14.449
35168W        W94264   2.340  10.323  14.877
35169W        W94265  32.632  43.942   0.960
35170W        W94266  24.989  19.749   0.357
35171W        W94267  22.642  13.608  13.895
35172W        W94268  18.608  17.192  14.030
35173W        W94269  11.760  43.765   4.664
35174W        W94270  32.548  42.882   1.782
35175W        W94271  27.055  22.086  14.791
35176W        W94272  37.487  18.593  12.893
35177W        W94273  10.154  10.774  13.541
35178W        W94274  23.564  10.360  13.951
35179W        W94275  27.959  21.571  10.633
35180W        W94276  41.489  26.610  11.544
35181W        W94277  12.338   0.774  13.328
35182W        W94278   8.375   3.340   3.202
35183W        W94279  28.553  18.734   0.484
35184W        W94280  33.994  27.057   1.722
35185W        W94281   2.309  21.683   3.228
35186W        W94282  12.120  14.129   1.368
35187W        W94283  32.503  43.838  10.614
35188W        W94284  17.703   7.175  11.399
35189W        W94285  40.833  38.992   4.761
35190W        W94286  18.636   4.922  12.926
35191W        W94287  28.030  42.365  12.923
35192W        W94288  13.342  31.426  13.018
35193W        W94289  27.958  12.139   3.293
35194W        W94290   4.271  27.552  14.770
35195W        W94291   9.710  37.405  10.489
35196W        W94292  44.822  31.580  11.018
35197W        W94293  43.944   4.828  11.935
35198W        W94294  40.541  41.935   2.269
35199W        W94295  28.025  19.265   5.242
35200W        W94296  12.766   7.384   2.728
35201W        W94297  14.193   9.328   1.803
35202W        W94298  43.923  40.964   2.888
35203W        W94299  20.034  40.417   4.782
35204W        W94300   6.281  30.990   1.694
35205W        W94301   3.860  22.123  11.061
35206W        W94302  19.543   9.798   1.921
35207W        W94303  29.609  28.624  14.316
35208W        W94304  11.193  26.027   3.272
35209W        W94305  34.953  14.104   1.841
35210W        W94306  37.398  26.670  14.312
35211W        W94307  31.504  11.188  13.456
35212W        W94308  23.677  44.433  14.918
35213W        W94309  18.111   9.695   0.858
35214W        W94310  28.578  32.038  10.568
35215W        W94311  11.327   6.403   2.775
35216W        W94312   0.308  13.790   3.725
35217W        W94313  26.143  19.256   0.305
35218W        W94314   9.234  30.107  13.901
35219W        W94315  38.403  34.119  10.522
35220W        W94316  26.107  33.005  13.014
35221W        W94317   7.848  36.876   0.440
35222W        W94318  13.760  22.191   0.747
35223W        W94319  44.879  17.185   4.186
35224W        W94320   4.234  37.346  13.529
35225W        W94321   5.353  13.207  14.454
35226W        W94322  14.737  22.579  12.517
35227W        W94323  39.326  23.500   2.310
35228W        W94324  33.960  25.662   2.869
35229W        W94325  37.051  34.470   2.865
35230W        W94326  17.099  13.197   2.212
35231W        W94327   2.348   0.849  13.384
35232W        W94328  36.935  43.275  11.594
35233W        W94329   4.324   4.881   2.681
35234W        W94330  34.097  27.984   2.679
35235W        W94331  17.151  30.570   4.688
35236W        W94332  37.338   6.328   1.397
35237W        W94333   2.797   3.798   0.895
35238W        W94334  15.674  36.421   0.871
35239W        W94335  29.612  25.190   0.953
35240W        W94336  32.988  28.618   2.229
35241W        W94337  43.775  32.547   0.966
35242W        W94338  18.138  13.178   3.646
35243W        W94339  19.064  32.899   0.839
35244W        W94340  20.103  12.694   4.289
35245W        W94341  32.010   8.803   3.351
35246W        W94342  17.693   3.318  13.469
35247W        W94343  13.804  10.824  14.018
35248W        W94344   4.387  36.559   4.191
35249W        W94345  43.800  19.576  13.332
35250W        W94346  36.953   2.303   4.612
35251W        W94347   6.415  15.767   2.404
35252W        W94348  26.020  11.715   1.892
35253W        W94349  37.369  12.131   0.355
35254W        W94350  30.593   2.743   2.663
35255W        W94351  15.808  15.821  12.362
35256W        W94352  24.508   5.787  12.866
35257W        W94353   7.896  36.901  14.836
35258W        W94354  21.647   9.691  11.951
35259W        W94355  29.946  11.358   1.774
35260W        W94356  37.022  27.624  13.453
35261W        W94357  32.505  18.744   3.805
35262W        W94358   6.733   5.818  14.291
35263W        W94359  32.573  11.198  11.099
35264W        W94360   8.246  21.199  13.912
35265W        W94361   0.968  20.666  13.396
35266W        W94362  15.095  42.378   1.749
35267W        W94363  33.052  16.252  13.323
35268W        W94364  23.006  14.197   4.825
35269W        W94365  26.093  42.842   2.823
35270W        W94366  41.919  33.508   5.299
35271W        W94367   8.260   3.785  14.861
35272W        W94368  22.648  11.700   0.921
35273W        W94369  23.994  30.476  13.916
35274W        W94370  19.709  44.862  14.910
35275W        W94371   1.395   6.867   4.695
35276W        W94372  36.476   8.848  14.346
35277W        W94373  23.535  25.155   1.319
35278W        W94374  29.660  28.630   3.177
35279W        W94375  27.043  33.537  11.544
35280W        W94376  20.623  10.338  11.043
35281W        W94377  43.775  32.522   2.398
35282W        W94378  20.755  40.467  14.473
35283W        W94379  35.884  40.814  14.359
35284W        W94380   5.904  36.467   0.951
35285W        W94381  40.306  39.040  13.356
35286W        W94382  32.112  40.470   1.719
35287W        W94383   1.334  41.507  11.109
35288W        W94384   3.925   5.412   4.214
35289W        W94385  38.954  36.085  12.893
35290W        W94386   5.384  17.189  12.901
35291W        W94387  19.595  24.536   2.356
35292W        W94388   7.901   0.812  14.305
35293W        W94389  40.877  11.694   4.139
35294W        W94390  36.539  12.361   1.853
35295W        W94391  14.215   2.398   4.121
35296W        W94392  44.333   3.721  11.032
35297W        W94393  11.371  35.389   1.863
35298W        W94394  17.696  35.400  13.023
35299W        W94395  39.033  25.608  13.995
35300W        W94396  15.273  37.869   1.446
35301W        W94397  22.034  12.170  12.824
35302W        W94398  10.769  39.917  11.470
35303W        W94399  39.810  42.976  11.119
35304W        W94400  38.457  11.271  14.333
35305W        W94401  27.106   7.331   2.699
35306W        W94402  30.047  20.534  10.537
35307W        W94403  39.520   7.397   0.831
35308W        W94404  27.490  14.743   4.779
35309W        W94405  26.498  14.111   2.225
35310W        W94406  41.831  44.840   4.835
35311W        W94407  10.287  23.033   1.220
35312W        W94408  20.726  14.121  14.955
35313W        W94409  29.508  41.007   2.883
35314W        W94410  42.896  35.418   1.363
35315W        W94411  37.391   1.257   0.898
35316W        W94412   1.300  35.085  14.434
35317W        W94413  40.377  34.994   0.936
35318W        W94414  18.731  41.968  13.809
35319W        W94415  13.219  12.702   4.178
35320W        W94416  35.028  32.023  13.446
35321W        W94417  44.920  10.298   4.736
35322W        W94418  25.172  27.000  11.059
35323W        W94419  37.994  30.123  10.477
35324W        W94420  21.210   0.752   1.829
35325W        W94421   1.819   8.288   2.883
35326W        W94422  29.108   3.871  12.466
35327W        W94423   8.295  12.742   0.284
35328W        W94424  26.558  34.998  11.915
35329W        W94425  41.913  39.506  14.458
35330W        W94426  25.584  35.514  11.888
35331W        W94427  38.026  20.575   3.762
35332W        W94428  29.433  12.214   1.307
35333W        W94429  10.158   6.857   2.298
35334W        W94430   3.880  26.461  14.376
35335W        W94431   2.326   1.377   3.667
35336W        W94432  40.029  37.020   1.447
35337W        W94433  44.950   0.748   4.763
35338W        W94434  44.780  40.363   1.335
35339W        W94435  24.004  23.074  12.972
35340W        W94436  41.877  16.607   4.355
35341W        W94437  22.665  44.802  13.534
35342W        W94438  25.156   7.701   2.255
35343W        W94439   3.914  17.684  12.371
35344W        W94440  41.916  37.546  10.544
35345W        W94441   9.257  15.181   0.963
35346W        W94442  22.024  34.898  12.872
35347W        W94443  20.539  16.166  11.010
35348W        W94444  43.384  26.581  14.000
35349W        W94445  35.055  36.507  12.410
35350W        W94446   0.387  25.023   2.787
35351W        W94447   5.312  12.156  14.859
35352W        W94448  36.080  33.416  12.054
35353W        W94449  28.442  41.938   2.346
35354W        W94450   4.418   0.978  13.533
35355W        W94451  22.618  26.147  14.921
35356W        W94452  34.074  25.060   2.786
35357W        W94453  41.535  19.208  12.958
35358W        W94454  27.524  43.830   4.199
35359W        W94455  26.539  43.839  14.315
35360W        W94456  17.109  37.557  13.832
35361W        W94457  14.248  16.279  10.548
35362W        W94458  26.082  17.273  11.609
35363W        W94459  13.221  17.201   0.278
35364W        W94460  15.328  23.059  12.066
35365W        W94461   4.708  15.109   3.328
35366W        W94462  41.519  41.353   0.375
35367W        W94463  44.409   1.798  10.469
35368W        W94464  30.446  17.584   5.124
35369W        W94465  43.849   0.947  11.960
35370W        W94466  30.014  36.495   9.489
35371W        W94467  38.936   1.397  13.923
35372W        W94468  35.410   2.415   2.206
35373W        W94469  13.797  44.832   0.244
35374W        W94470   2.328  40.806  11.061
35375W        W94471   0.489  35.428   3.152
35376W        W94472  43.801  14.180  14.351
35377W        W94473  39.394  30.019   1.706
35378W        W94474  39.942  20.093   2.691
35379W        W94475  38.020  38.835  11.015
35380W        W94476  13.132  27.465   4.797
35381W        W94477  29.648  22.556   1.923
35382W        W94478  10.331  16.610  13.857
35383W        W94479  40.516   9.828  14.877
35384W        W94480  21.121  12.643   0.461
35385W        W94481  31.041   8.746   2.364
35386W        W94482  16.091   7.374  13.055
35387W        W94483   3.377  40.867  12.387
35388W        W94484  29.068   5.208  10.986
35389W        W94485  29.503   6.858   1.262
35390W        W94486  13.218  21.080   3.362
35391W        W94487  28.027  26.681   9.963
35392W        W94488  27.018  24.577   1.406
35393W        W94489  30.628  42.374   0.926
35394W        W94490  32.601  25.217   2.873
35395W        W94491   8.357  19.188   9.442
35396W        W94492  13.133  34.023   1.336
35397W        W94493  34.874   2.958   4.730
35398W        W94494   2.784  31.941  12.428
35399W        W94495  27.474  43.845   3.736
35400W        W94496  36.029  29.002   4.298
35401W        W94497  25.662   4.440   2.728
35402W        W94498  35.913   1.312  14.496
35403W        W94499  24.996   1.471  10.638
35404W        W94500   0.370   2.752  12.496
35405W        W94501  30.993  25.184   0.735
35406W        W94502  34.603  31.476   0.371
35407W        W94503  29.153  15.812   1.697
35408W        W94504  27.040  21.074  12.924
35409W        W94505  37.387   4.229   2.283
35410W        W94506   9.156  40.322  12.456
35411W        W94507  27.995  32.073  11.874
35412W        W94508  12.760   0.780  12.464
35413W        W94509  28.472  15.738  12.913
35414W        W94510  33.127   7.832  13.370
35415W        W94511   6.257  12.171  13.397
35416W        W94512  18.571  31.079  11.931
35417W        W94513  33.068   5.788  10.953
35418W        W94514  18.106  30.600  14.365
35419W        W94515  43.793   7.678  12.443
35420W        W94516  32.604  20.563  10.546
35421W        W94517   2.313  34.052  14.815
35422W        W94518   3.273   9.371  11.531
35423W        W94519  18.285  19.637  12.396
35424W        W94520  14.243   8.345  11.036
35425W        W94521  44.303   7.235  14.819
35426W        W94522  14.137  29.457  13.953
35427W        W94523  32.013  40.422  11.611
35428W        W94524   6.393  41.398   5.323
35429W        W94525  19.053  32.477  12.490
35430W        W94526   0.808   7.739   0.460
35431W        W94527  22.013  12.732   2.902
35432W        W94528   7.347  12.313  11.890
35433W        W94529  39.877   0.871  14.856
35434W        W94530   3.320  44.490   0.912
35435W        W94531   6.385  10.753  14.968
35436W        W94532  27.094  26.065  11.889
35437W        W94533   0.440  19.549  11.411
35438W        W94534   4.896   2.878  12.841
35439W        W94535  27.543  30.118  10.888
35440W        W94536  16.107  37.870   1.364
35441W        W94537  19.188  16.140  13.446
35442W        W94538   9.805  26.079   5.214
35443W        W94539  42.798  12.850  11.874
35444W        W94540  11.776   7.825   0.345
35445W        W94541  21.250  13.768  10.065
35446W        W94542  39.438  22.020  12.882
35447W        W94543  44.792  43.931   2.846
35448W        W94544  12.799   5.330  12.962
35449W        W94545  16.640   5.239   1.329
35450W        W94546  14.808  41.372  13.311
35451W        W94547   9.689  26.702  14.469
35452W        W94548  21.528  14.811  14.463
35453W        W94549  21.515  24.680  11.546
35454W        W94550  14.124  31.914   2.680
35455W        W94551   3.765  18.132  14.994
35456W        W94552  40.481  32.441   1.379
35457W        W94553  41.009   9.252   3.227
35458W        W94554  38.434  38.949  12.497
35459W        W94555  19.081   3.918  12.516
35460W        W94556  25.016  13.700  12.852
35461W        W94557  27.120  27.115   4.243
35462W        W94558   0.439  43.996   0.879
35463W        W94559  18.746  23.061  13.899
35464W        W94560  34.580  25.688   2.797
35465W        W94561  17.223   4.940   3.808
35466W        W94562  31.106  40.915   3.860
35467W        W94563   3.307  28.970  12.429
35468W        W94564   7.769  40.431   0.349
35469W        W94565  35.981  27.193   3.306
35470W        W94566  40.388  28.015   2.333
35471W        W94567  42.928  27.054  13.956
35472W        W94568  36.989   6.354   4.718
35473W        W94569  22.093  14.759   2.859
35474W        W94570  19.168  10.225   1.928
35475W        W94571  17.718  17.109  11.125
35476W        W94572  15.714  13.688   3.829
35477W        W94573   5.347  33.483  11.975
35478W        W94574  31.643  27.999   1.381
35479W        W94575  29.109  34.371  11.930
35480W        W94576  44.476  29.597  11.103
35481W        W94577  22.019  32.396  14.416
35482W        W94578  40.999   3.806   3.294
35483W        W94579  33.397   2.790   4.138
35484W        W94580  14.131  20.244  12.553
35485W        W94581   9.798  26.141   1.743
35486W        W94582   4.817  21.537  11.975
35487W        W94583  24.528   4.394  14.945
35488W        W94584  31.640  44.822  13.012
35489W        W94585   5.756  37.863   2.791
35490W        W94586  15.106  18.067  13.505
35491W        W94587  41.845  20.756  13.845
35492W        W94588  37.430  38.048   3.741
35493W        W94589  44.920  43.968   3.666
35494W        W94590  26.616  34.991   2.351
35495W        W94591  26.464  33.998   2.885
35496W        W94592  20.611   5.348  14.443
35497W        W94593  29.973  44.754  12.034
35498W        W94594  44.495   1.859   2.380
35499W        W94595   5.694  37.872   4.609
35500W        W94596  21.115  12.171  14.473
35501W        W94597  26.561  35.377   2.370
35502W        W94598  30.500  23.984   9.646
35503W        W94599  20.539   6.279   2.247
35504W        W94600  15.254  28.082   4.296
35505W        W94601  28.962  16.242  13.353
35506W        W94602  18.142  29.089   0.364
35507W        W94603  33.976  34.369   4.677
35508W        W94604  27.975  42.503  14.942
35509W        W94605  31.923  35.887   2.768
35510W        W94606  26.629  14.785  12.365
35511W        W94607   1.337  28.113  13.440
35512W        W94608  36.409   7.339   3.868
35513W        W94609   5.892  44.816   4.658
35514W        W94610  26.613   2.327  12.825
35515W        W94611   3.759  17.202   0.269
35516W        W94612  37.083  29.013   3.308
35517W        W94613  12.785  34.020   2.746
35518W        W94614  42.982  38.076  12.886
35519W        W94615  17.132  22.715   0.943
35520W        W94616  38.845   6.361  12.353
35521W        W94617  24.555  37.834   2.805
35522W        W94618  24.124   7.666  13.529
35523W        W94619  13.754  37.503  12.979
35524W        W94620  43.388  33.416  11.482
35525W        W94621  21.535  12.268  13.795
35526W        W94622  16.153  19.775   3.346
35527W        W94623  28.567  38.987   4.829
35528W        W94624  24.508  38.410  11.991
35529W        W94625   9.759  24.721  14.366
35530W        W94626  41.974  11.868   4.226
35531W        W94627  30.002  31.904   2.367
35532W        W94628  39.911  37.421   3.634
35533W        W94629  28.530  12.725  12.913
35534W        W94630   4.333  26.973   2.851
35535W        W94631   7.748  19.534   5.309
35536W        W94632  30.940  21.216  14.506
35537W        W94633  40.048  34.936   3.736
35538W        W94634  40.859   2.871   1.737
35539W        W94635  31.910   5.809   0.467
35540W        W94636  44.856  33.874   2.674
35541W        W94637  36.081  27.647  12.974
35542W        W94638  27.558   0.820   4.782
35543W        W94639  20.231  25.581   3.187
35544W        W94640  23.576   8.307  12.882
35545W        W94641  19.654  10.213   5.317
35546W        W94642   6.841  20.073   1.714
35547W        W94643   4.893  41.004  12.919
35548W        W94644  13.111  22.026  11.891
35549W        W94645   4.893  38.991  10.964
35550W        W94646  26.184   6.867   1.290
35551W        W94647  19.117  41.981  10.948
35552W        W94648  33.517  22.641   4.787
35553W        W94649  35.914  19.566   4.675
35554W        W94650  32.987  40.427   2.754
35555W        W94651  44.504  18.642  12.050
35556W        W94652  43.987  11.265  13.311
35557W        W94653  32.413  26.152  12.879
35558W        W94654  43.306  12.255   2.329
35559W        W94655  31.064  26.659  13.894
35560W        W94656   3.822  12.703  13.387
35561W        W94657   9.158  28.547   2.782
35562W        W94658  21.214  34.564  13.966
35563W        W94659   9.349  33.979  13.466
35564W        W94660  36.012  16.078  14.005
35565W        W94661  33.123  25.468  10.428
35566W        W94662  22.630  19.727  14.960
35567W        W94663  22.164   8.813  10.619
35568W        W94664  42.833  30.109  14.367
35569W        W94665  44.423  34.405  12.025
35570W        W94666  24.722  44.401  12.413
35571W        W94667  20.094   1.796  13.930
35572W        W94668   6.688  11.717   1.928
35573W        W94669  33.907   9.790  11.004
35574W        W94670   5.698  39.816  11.452
35575W        W94671   7.201  40.305  12.518
35576W        W94672  12.709  33.918   0.728
35577W        W94673   5.932   8.844  14.891
35578W        W94674  13.254  15.302   0.438
35579W        W94675   2.289  25.691  11.424
35580W        W94676  21.656  44.435   4.743
35581W        W94677  41.001  28.661  13.484
35582W        W94678  44.347  22.210   1.719
35583W        W94679  14.270  12.691   1.394
35584W        W94680  15.659   6.321  12.870
35585W        W94681  10.752  35.987   3.149
35586W        W94682  33.620  22.162  14.323
35587W        W94683   3.301   1.426  12.469
35588W        W94684  40.000  12.157   4.152
35589W        W94685  35.927   3.364   2.296
35590W        W94686  12.633  44.411   2.716
35591W        W94687  32.959  33.049   4.311
35592W        W94688  12.148  12.726  12.385
35593W        W94689  12.350  24.676   1.384
35594W        W94690  12.137  39.996  10.585
35595W        W94691  43.290  28.031  11.865
35596W        W94692  41.014  36.527   0.893
35597W        W94693  44.286   7.768  10.483
35598W        W94694   0.328  23.635   0.746
35599W        W94695  19.099  23.088   2.271
35600W        W94696  20.551  38.057   0.436
35601W        W94697  12.353  35.985  13.943
35602W        W94698  29.521  43.410  12.485
35603W        W94699  23.073   8.176   4.152
35604W        W94700  11.690  42.979   3.252
35605W        W94701  33.896   3.269  10.918
35606W        W94702  35.999  26.699   2.254
35607W        W94703   2.382   7.837  14.358
35608W        W94704   8.864   3.936  10.914
35609W        W94705  36.391  35.375   1.779
35610W        W94706  39.820  27.540  13.348
35611W        W94707  18.059  15.755   5.266
35612W        W94708   2.413  34.518  11.003
35613W        W94709  37.906   7.283  14.410
35614W        W94710  24.161  22.642  12.503
35615W        W94711  42.503   7.412  11.943
35616W        W94712   6.770  30.018  14.461
35617W        W94713  19.587  23.031   3.217
35618W        W94714  21.180  30.929   2.726
35619W        W94715  15.640  20.039   4.336
35620W        W94716  32.090  37.889  10.958
35621W        W94717  14.660  37.990   0.906
35622W        W94718  29.609  24.555  11.989
35623W        W94719  19.186   1.442   4.647
35624W        W94720  28.050   3.859  13.443
35625W        W94721  39.017  32.971   4.246
35626W        W94722  18.091  22.035  14.972
35627W        W94723   6.747   9.855   3.799
35628W        W94724   1.884  23.704   0.946
35629W        W94725   9.680  43.941  14.418
35630W        W94726  11.760  34.872   2.681
35631W        W94727  24.137  44.369   3.843
35632W        W94728  33.040  25.160  12.348
35633W        W94729  13.243  25.055  11.120
35634W        W94730  23.190   6.791   4.182
35635W        W94731   7.898   2.255   2.255
35636W        W94732  35.001   2.804  11.587
35637W        W94733   3.715  26.609   3.243
35638W        W94734  13.601   5.396  12.010
35639W        W94735  44.933  40.410  11.478
35640W        W94736   8.814  37.483   3.827
35641W        W94737  23.131  42.917   0.730
35642W        W94738  41.818   7.293   0.788
35643W        W94739  12.328  25.688  12.413
35644W        W94740  31.539  27.006  12.516
35645W        W94741  40.376  15.113   0.374
35646W        W94742  12.662  28.528   9.519
35647W        W94743  14.824  35.050   3.774
35648W        W94744   9.256   0.269  12.426
35649W        W94745  42.409   7.240  13.394
35650W        W94746  33.551  21.183  11.919
35651W        W94747  33.431  27.549   1.406
35652W        W94748  41.907  10.798  12.088
35653W        W94749  42.781  27.953  12.899
35654W        W94750   3.401  42.390  10.965
35655W        W94751  10.260   5.379   1.307
35656W        W94752  16.098  23.524  12.823
35657W        W94753  29.566  32.582   0.436
35658W        W94754  20.158  34.580  11.991
35659W        W94755  16.094  21.216   2.765
35660W        W94756  39.332  15.309   4.324
35661W        W94757  27.944  13.322   0.423
35662W        W94758  16.215  26.189   2.721
35663W        W94759  36.906  24.158   4.141
35664W        W94760  41.430  35.018  11.003
35665W        W94761  44.007  23.505   1.235
35666W        W94762  28.627  21.746  12.860
35667W        W94763  36.400  20.664   3.636
35668W        W94764  42.448  26.981  13.948
35669W        W94765  14.598  22.208  11.554
35670W        W94766  19.201  31.506   0.242
35671W        W94767   3.888  22.174   3.695
35672W        W94768  44.351   4.319  12.898
35673W        W94769  29.136  29.478  10.563
35674W        W94770   1.733  28.131   5.123
35675W        W94771  20.651  30.454   1.245
35676W        W94772   1.792  35.977   3.870
35677W        W94773  28.594  33.479  11.413
35678W        W94774  27.677  28.997  14.938
35679W        W94775  41.820  13.321   4.284
35680W        W94776  27.483  20.073  14.349
35681W        W94777   4.295  20.193  13.503
35682W        W94778  43.392  20.612  10.427
35683W        W94779   0.826   2.827   3.843
35684W        W94780   8.844  17.780  11.401
35685W        W94781  39.063   3.872   0.381
35686W        W94782   7.284  42.443  11.901
35687W        W94783  22.157  31.638  14.372
35688W        W94784  32.607   6.694   2.713
35689W        W94785  11.783  38.507   1.871
35690W        W94786  43.330  18.545  11.434
35691W        W94787  17.656  14.616  10.983
35692W        W94788  34.605  21.740   2.299
35693W        W94789   7.310  40.306  10.422
35694W        W94790  29.070  30.108   0.334
35695W        W94791  18.782  35.866  12.866
35696W        W94792   9.715  15.290   1.233
35697W        W94793   6.295  11.799   0.249
35698W        W94794   4.934   3.454   4.615
35699W        W94795  39.399  24.503   3.758
35700W        W94796  30.143  39.814   1.365
35701W        W94797  20.534  16.694  12.524
35702W        W94798  32.626  29.072   3.234
35703W        W94799   8.279  29.035  14.501
35704W        W94800   4.290  19.114  14.504
35705W        W94801  21.055   4.826   0.852
35706W        W94802   3.813  43.490   0.795
35707W        W94803  42.377  37.955  12.524
35708W        W94804   0.385   4.905  10.963
35709W        W94805  17.064   3.260  14.933
35710W        W94806  42.984  30.035  13.889
35711W        W94807  15.639   6.683  11.079
35712W        W94808   7.206   0.925  14.300
35713W        W94809  38.886   1.806  14.310
35714W        W94810  24.506  27.629  13.426
35715W        W94811  43.505  10.747   3.263
35716W        W94812  44.873   4.443   2.700
35717W        W94813  36.871   0.917  11.003
35718W        W94814  24.513  36.937   0.804
35719W        W94815  20.062  20.165   0.918
35720W        W94816  41.351   6.852  14.829
35721W        W94817  17.069   7.787   3.222
35722W        W94818  20.641  32.624  14.876
35723W        W94819  22.622   3.428   1.722
35724W        W94820  32.405  44.412  11.927
35725W        W94821  16.288  34.967  12.074
35726W        W94822   8.658  17.727  10.487
35727W        W94823  24.058  27.687   1.728
35728W        W94824  10.738  26.177   0.772
35729W        W94825  21.051   8.657  14.285
35730W        W94826  11.658  14.138   1.299
35731W        W94827   3.449  25.998  13.003
35732W        W94828  29.021   6.851  13.353
35733W        W94829   7.343  13.137   0.905
35734W        W94830  18.244  14.305   3.377
35735W        W94831  20.274  34.451   5.247
35736W        W94832   4.754  30.984   4.251
35737W        W94833   9.382   1.779   2.248
35738W        W94834  16.266  27.541   2.838
35739W        W94835  39.366  41.364   4.604
35740W        W94836  33.612  38.449   3.711
35741W        W94837   9.286  31.419   5.750
35742W        W94838   0.963  19.566   3.794
35743W        W94839   8.861   6.257  12.836
35744W        W94840  35.507  31.552   3.211
35745W        W94841  32.552   3.406  13.482
35746W        W94842   4.761  26.964  11.004
35747W        W94843  44.350  34.480  14.885
35748W        W94844  36.450  39.915   2.829
35749W        W94845  24.003  23.630  12.541
35750W        W94846  25.121   3.846  14.378
35751W        W94847   7.750  25.572   2.669
35752W        W94848  33.620  34.914  13.536
35753W        W94849  40.443   3.277   3.647
35754W        W94850  43.293  34.409   2.738
35755W        W94851  15.134  15.656  11.908
35756W        W94852  28.631  11.835   4.334
35757W        W94853  10.268  11.866   0.375
35758W        W94854  23.235   3.828   1.923
35759W        W94855  20.205  35.879   3.700
35760W        W94856  42.832  40.854  14.516
35761W        W94857  33.385  20.206   2.233
35762W        W94858  42.423  33.557  14.977
35763W        W94859   6.898  29.077  13.882
35764W        W94860  40.951  15.612  10.583
35765W        W94861   9.776  17.736  11.399
35766W        W94862  29.168  16.601  14.367
35767W        W94863   2.453  38.824  14.383
35768W        W94864  24.997   0.750   0.930
35769W        W94865  23.633  39.814   0.372
35770W        W94866  41.987  36.925   2.887
35771W        W94867  35.398   8.682   3.801
35772W        W94868  38.397  41.375  14.312
35773W        W94869  28.586  18.268  11.886
35774W        W94870  16.604   3.758  12.942
35775W        W94871   7.756   4.754   1.757
35776W        W94872  27.555  14.128  13.347
35777W        W94873  41.951  33.078  14.975
35778W        W94874  20.161  41.914  12.403
35779W        W94875  41.959  24.571  13.350
35780W        W94876  32.534  33.011  14.843
35781W        W94877  21.729  12.269  14.825
35782W        W94878   3.442  28.018   3.803
35783W        W94879   4.881  34.403  10.516
35784W        W94880  20.587   6.342   0.411
35785W        W94881   3.286  27.150  11.023
35786W        W94882  35.429  36.436   3.339
35787W        W94883   2.378   3.872  12.903
35788W        W94884  14.817  44.866  12.939
35789W        W94885  26.517   0.370   1.734
35790W        W94886  20.061  21.212   1.734
35791W        W94887   7.670   9.356  10.640
35792W        W94888  32.608  43.349   0.405
35793W        W94889  42.379  32.520   4.171
35794W        W94890  40.953  24.519   1.873
35795W        W94891   0.362  38.842   0.821
35796W        W94892  30.473   3.239  12.507
35797W        W94893  37.854  32.916   4.606
35798W        W94894  41.841  17.261  13.821
35799W        W94895   9.774  16.784  12.945
35800W        W94896  25.529  36.988   4.837
35801W        W94897  35.573  22.742  12.002
35802W        W94898  22.704  28.577   1.385
35803W        W94899  15.816  24.672  14.955
35804W        W94900  15.797  27.581  14.482
35805W        W94901  16.796  20.049  11.536
35806W        W94902  34.552  18.581  12.525
35807W        W94903  12.664  25.963   4.826
35808W        W94904  18.698  30.984  14.360
35809W        W94905  28.551  23.226   4.738
35810W        W94906  11.342  15.219   2.835
35811W        W94907  23.096  17.182   3.306
35812W        W94908  42.969   0.842   2.711
35813W        W94909   3.262  39.829   1.231
35814W        W94910   4.281  27.510   4.191
35815W        W94911  28.457  38.865  14.438
35816W        W94912  19.071  39.880  10.149
35817W        W94913  14.228  42.488   4.335
35818W        W94914  33.922  33.384  14.850
35819W        W94915   6.753  21.108   1.900
35820W        W94916  41.994   7.850   4.833
35821W        W94917   0.764  11.636  12.557
35822W        W94918   8.400  22.639   1.832
35823W        W94919  31.137  36.481  13.828
35824W        W94920  18.706  18.770   1.262
35825W        W94921  20.574   3.401   3.213
35826W        W94922  30.952  22.162  11.091
35827W        W94923  13.334  44.265  14.959
35828W        W94924  22.102  18.260   0.342
35829W        W94925   0.483  22.163   4.198
35830W        W94926  13.651   1.376   2.315
35831W        W94927  19.655  32.558   1.430
35832W        W94928   0.482  37.523   4.837
35833W        W94929  33.929  39.924   3.830
35834W        W94930  13.338   6.185  13.814
35835W        W94931  36.374   5.260   4.310
35836W        W94932  41.370  25.986   4.805
35837W        W94933  15.726  25.657  12.340
35838W        W94934  32.032  20.035   2.782
35839W        W94935  17.178  26.638   3.261
35840W        W94936  42.951   8.383   3.362
35841W        W94937  21.614   0.916  11.043
35842W        W94938  13.238  13.126   0.458
35843W        W94939  20.166  43.436  10.483
35844W        W94940  20.088  25.664   4.798
35845W        W94941  30.585  30.116  11.547
35846W        W94942  15.089  20.088   2.379
35847W        W94943  18.600  21.660   2.340
35848W        W94944   9.797  19.071   4.144
35849W        W94945  42.403  13.686   0.876
35850W        W94946  33.081  24.646  11.042
35851W        W94947  28.100  22.197  12.390
35852W        W94948  36.972  32.085  13.883
35853W        W94949  19.676   9.828   2.369
35854W        W94950  16.808   5.315  13.903
35855W        W94951  19.279  27.022  14.300
35856W        W94952  40.344  23.646   3.781
35857W        W94953  35.538  39.864   0.279
35858W        W94954  18.054  44.393   3.871
35859W        W94955  10.216  21.689   0.378
35860W        W94956   5.383  10.223  11.463
35861W        W94957  29.664   2.843   0.736
35862W        W94958  39.972  22.019  14.976
35863W        W94959  10.218  41.393   4.175
35864W        W94960  12.684  44.264  10.570
35865W        W94961  29.170  21.526  10.572
35866W        W94962  29.560  37.911  12.975
35867W        W94963  32.024  35.358   3.219
35868W        W94964  30.506  22.742  11.055
35869W        W94965  43.462   7.902  14.018
35870W        W94966  42.835  11.283   4.349
35871W        W94967  40.343   7.851   2.260
35872W        W94968  21.514  28.663  14.854
35873W        W94969  40.378   9.182  14.293
35874W        W94970  30.463  13.136  14.854
35875W        W94971  33.571  11.248  13.941
35876W        W94972  32.629   4.436  14.338
35877W        W94973  21.591  23.148   0.247
35878W        W94974  13.252   0.776   0.244
35879W        W94975  12.311  22.044  12.407
35880W        W94976  39.478   7.872   1.752
35881W        W94977  40.917  33.509   2.850
35882W        W94978   5.396  10.245   4.261
35883W        W94979  11.625  34.866  10.156
35884W        W94980   7.717  16.607  14.302
35885W        W94981   0.751  20.042   4.669
35886W        W94982  17.247  33.526  13.344
35887W        W94983  27.089  38.932  11.125
35888W        W94984  22.583  32.936  13.423
35889W        W94985   5.364  15.207  13.949
35890W        W94986  22.589  25.628   4.646
35891W        W94987  33.117  25.124   9.935
35892W        W94988  15.258  20.616   2.893
35893W        W94989  17.140  30.547   1.374
35894W        W94990  14.742   4.365  11.474
35895W        W94991  20.205  24.602  11.906
35896W        W94992  15.156   1.774   3.823
35897W        W94993  32.955   4.817  10.506
35898W        W94994  27.489  23.995   1.751
35899W        W94995  29.530  41.967  13.946
35900W        W94996  20.681  17.120   4.713
35901W        W94997  39.982  15.648  13.317
35902W        W94998  36.564   0.771   3.764
35903W        W94999  30.012  33.474  14.890
35904W        W95000  28.072  10.304  10.086
35905W        W95001  21.523  26.030   4.804
35906W        W95002  38.371  15.102  14.797
35907W        W95003   1.801   6.404  12.368
35908W        W95004  18.654  37.372   1.875
35909W        W95005  20.235   7.256   9.484
35910W        W95006  28.548  11.277   1.302
35911W        W95007  17.082  17.215  10.477
35912W        W95008  31.496  44.343   2.886
35913W        W95009   1.819  30.966  10.466
35914W        W95010   2.404  40.425  10.082
35915W        W95011  16.289  10.847   0.314
35916W        W95012  21.081  22.047   0.402
35917W        W95013  33.020   6.278   0.300
35918W        W95014  24.528  40.363  14.763
35919W        W95015  19.271  17.256  13.029
35920W        W95016   2.826  35.929  14.294
35921W        W95017  17.262  35.417  14.968
35922W        W95018   3.265  31.907  13.823
35923W        W95019  41.821  20.058   1.849
35924W        W95020  29.063  20.602  13.520
35925W        W95021   2.389  41.393   1.421
35926W        W95022  34.512  26.477  12.992
35927W        W95023  39.964  15.237   4.598
35928W        W95024  10.690  17.684   2.851
35929W        W95025   4.414  38.022  12.855
35930W        W95026  27.104  33.554   0.740
35931W        W95027   4.216   0.285  13.042
35932W        W95028  24.535   0.346   4.790
35933W        W95029  12.844   5.787  14.428
35934W        W95030   9.827   4.255  11.014
35935W        W95031  43.950  12.828  12.965
35936W        W95032  19.759  31.949   0.841
35937W        W95033  26.151   4.300   0.848
35938W        W95034  40.944  34.095  13.900
35939W        W95035  14.117   4.800  13.389
35940W        W95036   0.758  14.191   4.707
35941W        W95037  18.742  32.446   3.278
35942W        W95038  27.664   1.925   0.444
35943W        W95039  36.042   2.403  14.404
35944W        W95040  24.089  13.149  14.371
35945W        W95041  21.029  44.995  11.864
35946W        W95042  44.364  14.144  11.538
35947W        W95043   1.467  35.461   2.707
35948W        W95044  18.289   3.842   0.746
35949W        W95045  29.545  16.632   2.314
35950W        W95046  27.452  26.466   0.395
35951W        W95047  44.791  33.928   1.758
35952W        W95048  29.095  44.942   3.250
35953W        W95049   2.415   9.668  12.071
35954W        W95050  28.662  25.000   2.774
35955W        W95051  21.691   7.366  12.991
35956W        W95052  40.319   3.900  14.879
35957W        W95053  37.997  39.546   2.282
35958W        W95054  37.984  21.053  13.347
35959W        W95055  36.899  27.018   0.250
35960W        W95056  28.152  25.120   3.807
35961W        W95057   1.914   5.424   2.839
35962W        W95058  24.722   2.930  14.765
35963W        W95059  40.975  30.960  13.949
35964W        W95060  16.165  17.735  14.778
35965W        W95061  32.404  36.376  13.318
35966W        W95062  40.972   4.436  11.464
35967W        W95063  38.009  44.891  10.983
35968W        W95064   4.445  40.953  13.312
35969W        W95065  13.218   2.791   3.705
35970W        W95066   4.303   4.237   3.807
35971W        W95067  38.455  29.554  14.949
35972W        W95068  39.914  15.649  10.425
35973W        W95069   4.840   2.864   1.255
35974W        W95070  10.632  31.551   0.480
35975W        W95071   4.910  36.510  12.510
35976W        W95072  30.092  16.215  12.968
35977W        W95073   0.428  25.671   4.782
35978W        W95074   6.410  36.440   3.739
35979W        W95075  33.113  24.614  12.910
35980W        W95076  40.822  23.686  12.030
35981W        W95077  11.136  32.044  11.126
35982W        W95078  15.152  15.577  11.060
35983W        W95079  15.293  31.580  13.824
35984W        W95080  12.345  41.481   3.222
35985W        W95081   1.291  40.452  11.992
35986W        W95082  21.645  15.711   1.267
35987W        W95083  39.487  24.175   1.748
35988W        W95084  35.920  40.807  13.324
35989W        W95085  41.001  18.089   3.146
35990W        W95086   4.736  23.032  11.970
35991W        W95087  33.401  31.050  11.408
35992W        W95088  33.072   3.776  12.392
35993W        W95089  21.218  41.833  12.478
35994W        W95090  29.165  34.538   0.417
35995W        W95091  38.832  30.574   9.935
35996W        W95092  30.584  39.442   2.792
35997W        W95093  19.600  43.297  10.481
35998W        W95094  10.203   8.245  10.915
35999W        W95095  27.005  10.210   2.864
36000W        W95096  33.049  44.771   0.278
36001W        W95097  34.931  28.681  12.507
36002W        W95098  12.846   3.278   2.261
36003W        W95099  20.136  22.647  11.551
36004W        W95100  41.017   1.354   4.802
36005W        W95101  17.168  33.056  14.380
36006W        W95102  35.523  14.787   2.312
36007W        W95103   2.865  18.206   2.748
36008W        W95104  11.691  23.697  14.495
36009W        W95105  12.248  32.520   4.279
36010W        W95106  11.177  10.188   2.219
36011W        W95107  34.600  36.852   1.879
36012W        W95108  32.104  30.573   1.382
36013W        W95109  38.439   0.468   3.741
36014W        W95110  44.903  35.503   1.820
36015W        W95111  12.795  25.150   3.371
36016W        W95112  33.517  34.963   4.307
36017W        W95113   3.846   0.341  13.985
36018W        W95114  24.555  17.189   3.162
36019W        W95115  36.060  37.972   3.299
36020W        W95116   4.289  35.437  13.833
36021W        W95117   7.868  30.031  14.937
36022W        W95118   9.776  20.577   2.784
36023W        W95119  41.357   9.293  10.406
36024W        W95120  19.146  17.699  14.289
36025W        W95121  40.433  41.956   2.711
36026W        W95122  21.553  24.198   4.244
36027W        W95123  12.648  11.261   3.864
36028W        W95124  26.540   5.804  10.443
36029W        W95125  29.563   9.197   2.419
36030W        W95126  35.066  32.063  13.039
36031W        W95127  31.572  10.345  14.427
36032W        W95128  14.266  33.105   1.212
36033W        W95129  15.590  24.525  10.906
36034W        W95130  38.888  25.698   3.307
36035W        W95131   7.199   9.835  12.002
36036W        W95132  34.523  33.475  14.982
36037W        W95133  40.448  32.558   4.818
36038W        W95134  21.655  18.193  11.516
36039W        W95135  18.605  41.518   0.935
36040W        W95136   3.221  38.827   4.644
36041W        W95137   9.153  14.821  11.467
36042W        W95138  30.136  41.859   3.854
36043W        W95139   5.823  37.476  13.939
36044W        W95140  36.864  26.463  13.393
36045W        W95141  23.116  12.129  14.958
36046W        W95142  14.193  30.551  10.100
36047W        W95143  28.663   0.879  13.454
36048W        W95144   1.936  24.072   0.960
36049W        W95145  23.219   2.890   2.193
36050W        W95146  36.994  10.312   1.850
36051W        W95147  25.105  43.858  11.115
36052W        W95148   3.353  26.121   3.220
36053W        W95149  13.257  25.060   4.703
36054W        W95150   7.856   9.268   3.166
36055W        W95151  24.025  16.681   2.214
36056W        W95152  13.208   6.886   4.158
36057W        W95153   0.319  26.533  11.935
36058W        W95154  29.060   4.858  14.343
36059W        W95155  18.626  34.045   2.781
36060W        W95156  39.341  37.072  11.002
36061W        W95157   1.334   6.908   2.796
36062W        W95158   0.409  16.566  13.491
36063W        W95159  23.045  43.424  13.965
36064W        W95160  12.617  19.759  11.127
36065W        W95161  21.563  15.742   0.436
36066W        W95162  17.739  23.021   2.208
36067W        W95163  38.330  18.115   1.422
36068W        W95164   1.258   9.152  12.440
36069W        W95165   9.198  16.686   2.371
36070W        W95166   6.807  13.334   4.231
36071W        W95167  23.062   1.237   4.209
36072W        W95168  43.896   0.473  13.520
36073W        W95169  10.684  44.371   2.772
36074W        W95170  20.092  18.052   1.428
36075W        W95171  37.450  37.345   0.332
36076W        W95172  20.164   7.906  14.988
36077W        W95173  12.764  31.616  12.882
36078W        W95174   8.246  39.362   2.412
36079W        W95175  38.014  26.207  14.415
36080W        W95176  38.431  44.923   1.794
36081W        W95177  16.642   2.908   3.363
36082W        W95178  43.887   0.791   3.739
36083W        W95179  38.938  11.859   0.364
36084W        W95180  23.236  26.495   0.380
36085W        W95181  29.960   7.721  12.873
36086W        W95182  25.048  30.008  11.942
36087W        W95183   1.274   4.368   4.335
36088W        W95184  37.555  12.676   3.768
36089W        W95185   5.201  34.512   1.381
36090W        W95186  42.290  23.160  14.844
36091W        W95187  17.101  28.000  14.831
36092W        W95188  29.082  40.958  10.477
36093W        W95189  13.242   4.424   4.306
36094W        W95190  17.095  39.990   3.670
36095W        W95191   9.177   8.731  14.343
36096W        W95192  21.200   3.742  10.533
36097W        W95193  41.895  17.792   2.405
36098W        W95194  43.346  36.492   0.369
36099W        W95195  25.976  17.755   2.727
36100W        W95196  10.663  20.169   2.741
36101W        W95197  18.685  44.948   0.730
36102W        W95198  30.428   4.770  13.846
36103W        W95199  31.500  30.422   3.316
36104W        W95200   0.852  31.603  12.549
36105W        W95201   3.886   5.723   1.216
36106W        W95202   9.227  12.331   0.759
36107W        W95203  30.531  32.497   1.763
36108W        W95204   5.365  19.252  11.080
36109W        W95205  38.531  42.807  13.471
36110W        W95206   7.230  14.804   2.702
36111W        W95207  10.298  21.696  13.963
36112W        W95208  22.723  16.074  14.439
36113W        W95209  36.914  18.201   2.708
36114W        W95210  44.449  23.139  11.111
36115W        W95211   5.313  12.670   2.769
36116W        W95212  10.303  19.706  14.974
36117W        W95213  27.564  23.580  12.036
36118W        W95214  29.996   7.855  12.382
36119W        W95215  23.705  37.459  13.966
36120W        W95216  21.610  32.091  10.552
36121W        W95217  34.057  14.131   3.229
36122W        W95218  11.773   1.954   0.453
36123W        W95219  31.111  26.619  12.865
36124W        W95220   7.229  28.017   2.250
36125W        W95221  13.791   4.941  14.498
36126W        W95222  33.055  12.128  10.990
36127W        W95223   3.780  40.841   1.752
36128W        W95224  40.314  21.642  10.644
36129W        W95225  26.109   3.938   2.883
36130W        W95226  18.747  14.711   4.733
36131W        W95227  27.981  35.930   0.863
36132W        W95228   7.832  38.964  11.049
36133W        W95229  18.293  21.545  13.042
36134W        W95230  28.621   0.309  14.004
36135W        W95231  33.492   5.919  12.429
36136W        W95232  43.432   7.783   2.198
36137W        W95233  31.148  17.671  14.782
36138W        W95234   2.762  17.194   3.816
36139W        W95235  25.218  23.530   2.767
36140W        W95236  36.044  27.189  14.780
36141W        W95237   2.278  39.441  14.357
36142W        W95238  23.170   0.274  14.933
36143W        W95239  21.092   5.895   9.439
36144W        W95240  35.402  35.965  11.918
36145W        W95241  35.975  41.814  13.402
36146W        W95242   9.193   9.216   3.849
36147W        W95243  40.364   9.249   3.644
36148W        W95244  13.743   2.377  13.330
36149W        W95245  44.934   2.369   3.757
36150W        W95246  30.429  22.525  14.279
36151W        W95247  22.024  30.658   0.392
36152W        W95248  29.538  42.938   0.244
36153W        W95249  34.907  17.657  14.975
36154W        W95250  34.496  24.007  11.593
36155W        W95251   8.310  39.515  13.838
36156W        W95252  35.568  19.251  13.936
36157W        W95253   4.414   5.353  12.896
36158W        W95254  24.584  16.588  10.142
36159W        W95255  10.875  35.073  14.759
36160W        W95256  40.921  22.218  12.549
36161W        W95257  18.632  44.440   1.894
36162W        W95258  20.072   3.367   5.234
36163W        W95259  11.138   2.322   2.267
36164W        W95260   6.854  13.637  10.530
36165W        W95261   2.461  30.592  14.895
36166W        W95262   7.265  22.547  11.918
36167W        W95263  23.191  22.721  10.098
36168W        W95264  26.186  44.851   0.465
36169W        W95265  25.586  11.133   3.307
36170W        W95266  35.358  31.420  14.342
36171W        W95267   7.755  30.162   4.686
36172W        W95268  33.418  27.139   1.891
36173W        W95269  11.852  10.779  13.494
36174W        W95270   4.867  39.485   0.939
36175W        W95271  19.750  30.953  10.431
36176W        W95272   2.347   7.386  12.506
36177W        W95273  39.043  20.575  11.884
36178W        W95274  28.995  24.100   2.217
36179W        W95275  37.031  40.000   0.754
36180W        W95276  35.046  42.811   4.807
36181W        W95277  30.489   9.653   0.463
36182W        W95278  30.028   0.978   4.838
36183W        W95279   5.202  41.423  12.431
36184W        W95280  25.019   2.854  11.073
36185W        W95281  34.048   9.337  13.397
36186W        W95282  41.862  35.036   2.772
36187W        W95283  11.736  24.492   3.773
36188W        W95284  39.957  16.628  11.591
36189W        W95285  11.750  19.173  13.327
36190W        W95286   1.271  26.612   3.734
36191W        W95287   5.824   7.737   2.784
36192W        W95288  19.674  21.147  11.058
36193W        W95289  10.214  33.938   4.726
36194W        W95290  27.097   9.196   2.220
36195W        W95291   7.404  42.926  13.523
36196W        W95292   9.886  38.978  12.977
36197W        W95293   4.784  12.143  12.489
36198W        W95294  22.024  19.053  11.591
36199W        W95295  30.033   8.338  12.892
36200W        W95296  35.929  16.588  12.984
36201W        W95297  24.526  29.551   0.822
36202W        W95298  43.979   6.323  10.605
36203W        W95299  37.929   7.177   1.888
36204W        W95300  34.589  28.117   2.329
36205W        W95301   8.771   4.224  12.844
36206W        W95302   2.878  21.037   4.617
36207W        W95303  34.399  38.879   0.873
36208W        W95304  33.611  43.849   5.266
36209W        W95305  27.009  25.068   3.302
36210W        W95306  36.365  36.375  11.092
36211W        W95307  13.344  40.875   2.740
36212W        W95308   9.296  19.081  13.452
36213W        W95309  31.484  24.581   1.374
36214W        W95310  40.836  32.061   4.314
36215W        W95311  35.997  26.159  11.562
36216W        W95312  26.696   9.781   4.707
36217W        W95313  29.038  21.522  13.424
36218W        W95314  33.397  44.851  12.017
36219W        W95315  17.649  17.172  11.525
36220W        W95316  29.439  41.359   3.227
36221W        W95317  23.135  11.814   5.308
36222W        W95318  33.433  30.030   2.739
36223W        W95319  19.227  10.153  12.464
36224W        W95320   7.876  10.831   0.866
36225W        W95321   6.787  15.157   0.919
36226W        W95322   1.474  16.212  11.894
36227W        W95323  15.663   6.687   4.617
36228W        W95324  22.514  26.468   2.290
36229W        W95325   8.392  23.227  12.038
36230W        W95326  20.104  28.037   3.668
36231W        W95327  41.907   9.750  12.383
36232W        W95328   5.921  29.973  13.390
36233W        W95329  39.486   2.774  14.962
36234W        W95330   3.713  39.011   1.320
36235W        W95331  19.694  12.707  14.770
36236W        W95332   5.327  31.016  12.928
36237W        W95333  23.618  39.921   4.130
36238W        W95334  14.341  10.160   2.275
36239W        W95335  43.497  44.807  10.496
36240W        W95336  16.764   8.168  11.882
36241W        W95337  24.053  26.604   2.751
36242W        W95338   8.866  33.956   3.726
36243W        W95339  17.237  44.381  13.942
36244W        W95340  39.035   4.831   4.662
36245W        W95341  26.098  11.276   4.300
36246W        W95342  19.745  33.956  14.794
36247W        W95343  25.001  25.065  11.568
36248W        W95344  15.793   6.719   0.847
36249W        W95345   7.246  30.515   2.349
36250W        W95346  16.597  24.222  11.515
36251W        W95347  22.202  24.009   4.768
36252W        W95348  30.584  20.570   1.227
36253W        W95349  43.274  44.977   2.750
36254W        W95350  15.251  22.219  13.888
36255W        W95351  35.074  11.860   2.376
36256W        W95352  41.502  18.055  14.928
36257W        W95353  37.998  14.596   2.789
36258W        W95354  19.587  13.654   1.354
36259W        W95355  11.221  12.669  12.464
36260W        W95356  17.650   0.819   1.451
36261W        W95357   3.370  42.989   0.355
36262W        W95358   4.860  44.262  14.479
36263W        W95359  28.638  25.649   1.840
36264W        W95360  10.700  44.380  10.427
36265W        W95361  16.280  18.263   1.711
36266W        W95362  20.564  10.771   2.878
36267W        W95363  20.675  17.269   0.367
36268W        W95364   7.334  32.420  14.849
36269W        W95365  40.403  40.052   2.347
36270W        W95366   9.184  31.409   3.870
36271W        W95367  16.213  26.686  11.923
36272W        W95368  11.231  21.546  13.038
36273W        W95369   9.822  43.378   2.739
36274W        W95370  15.218  25.182  11.542
36275W        W95371  19.248  44.494   2.377
36276W        W95372  17.194  26.130  13.341
36277W        W95373  39.864  27.502  11.906
36278W        W95374  38.944  34.002   2.673
36279W        W95375   9.743  33.472   1.357
36280W        W95376  32.514   8.318  10.457
36281W        W95377  38.377  44.429   3.663
36282W        W95378  30.545  42.342   1.868
36283W        W95379  16.198  23.016  14.507
36284W        W95380  35.436  41.435  13.848
36285W        W95381  30.127   2.878   2.806
36286W        W95382  43.967  25.053   4.206
36287W        W95383  29.553  31.957   3.169
36288W        W95384   1.371   0.462   0.815
36289W        W95385  12.263   0.864   0.770
36290W        W95386  43.474  26.182   0.342
36291W        W95387  33.129  14.616  13.444
36292W        W95388   2.231  42.446  10.519
36293W        W95389  30.496  31.409   3.798
36294W        W95390   6.868  20.028  12.378
36295W        W95391  14.816   2.343   2.687
36296W        W95392   1.396  41.903   2.357
36297W        W95393  28.615  11.805  12.894
36298W        W95394   8.746  28.021  11.862
36299W        W95395  31.080  39.429   4.747
36300W        W95396  19.591  34.040   1.696
36301W        W95397  41.831   5.273   3.345
36302W        W95398   5.914  32.104  12.088
36303W        W95399  42.352  29.040  13.407
36304W        W95400  40.357  38.859  10.027
36305W        W95401  13.660   3.383  11.019
36306W        W95402  44.418  27.543  14.917
36307W        W95403  15.231   2.882   0.955
36308W        W95404   0.480  43.282   1.246
36309W        W95405  25.531  15.690   4.688
36310W        W95406  13.215   5.897  13.007
36311W        W95407  23.003   0.760   3.779
36312W        W95408  14.327  28.535   1.863
36313W        W95409  31.423  33.600   2.685
36314W        W95410  20.638  22.604  10.457
36315W        W95411   8.803   8.275  12.568
36316W        W95412  26.206  14.270   4.192
36317W        W95413  16.583  36.524  13.508
36318W        W95414  32.133   1.943   3.824
36319W        W95415   7.387  10.383   1.275
36320W        W95416  22.074  42.832   0.387
36321W        W95417  39.412  24.000  10.406
36322W        W95418  15.614  15.750   0.848
36323W        W95419   2.750   4.261  14.408
36324W        W95420  32.937   7.874   1.702
36325W        W95421  21.041  11.362  13.404
36326W        W95422  44.393   1.331   0.371
36327W        W95423  22.576  33.908  11.445
36328W        W95424  32.973  17.590   1.421
36329W        W95425  19.267   8.241  14.009
36330W        W95426  20.100  19.777   0.300
36331W        W95427  24.619  23.203  11.382
36332W        W95428  14.676   5.798   3.836
36333W        W95429   7.396  14.270  12.434
36334W        W95430  28.136  10.279  11.391
36335W        W95431  40.924  16.584   3.843
36336W        W95432  39.458  14.609  12.996
36337W        W95433  25.544  44.283   3.640
36338W        W95434  31.055  43.459   4.628
36339W        W95435  22.147  19.072  12.370
36340W        W95436  35.438  43.770  13.409
36341W        W95437  43.925  17.601  12.853
36342W        W95438   1.769  43.381   3.158
36343W        W95439  20.666   5.335   0.370
36344W        W95440  39.065  35.560   0.274
36345W        W95441   2.941   8.868  13.414
36346W        W95442   2.869   7.728  12.008
36347W        W95443   2.234  42.466  11.901
36348W        W95444  34.408  42.855  11.887
36349W        W95445   8.271   0.492   0.268
36350W        W95446  24.497  36.369  14.778
36351W        W95447  39.397   5.719  13.474
36352W        W95448  14.748  22.124  14.452
36353W        W95449  14.209  24.195  13.307
36354W        W95450  26.100   7.690   2.333
36355W        W95451  43.291  18.725   3.326
36356W        W95452  41.878  20.735   4.837
36357W        W95453  19.219  11.782   0.870
36358W        W95454  22.023  22.516  14.814
36359W        W95455   2.441  22.044   3.259
36360W        W95456   1.798  32.607  11.032
36361W        W95457  17.282  18.186   1.888
36362W        W95458   4.804   8.733  10.574
36363W        W95459  28.999  20.566   3.194
36364W        W95460   5.762  11.175   1.738
36365W        W95461  17.126   0.377  13.401
36366W        W95462  31.549  39.964  14.955
36367W        W95463  18.217  34.415  14.778
36368W        W95464  31.627  13.123  11.010
36369W        W95465   6.733  21.076  13.979
36370W        W95466  18.709  24.113   9.998
36371W        W95467  36.592  31.478   3.633
36372W        W95468   4.204  11.345  10.499
36373W        W95469  20.711   3.421  11.115
36374W        W95470  15.645   4.284   3.668
36375W        W95471   7.836   2.339   3.822
36376W        W95472   6.681   8.198   2.187
36377W        W95473  43.448   0.426  13.538
36378W        W95474  37.895  38.514  14.425
36379W        W95475   3.270  41.306   1.785
36380W        W95476  28.157  21.544  12.905
36381W        W95477  16.286  36.046  13.889
36382W        W95478   5.810   5.768  11.886
36383W        W95479  34.561   5.725  12.004
36384W        W95480  13.215  34.418  11.873
36385W        W95481  20.567  32.600  14.007
36386W        W95482   9.735  15.144  11.903
36387W        W95483   9.884  30.929   3.289
36388W        W95484   7.900  20.545   0.826
36389W        W95485  14.270  32.635  11.544
36390W        W95486  25.564   4.882  13.534
36391W        W95487  33.525  35.894  14.359
36392W        W95488  19.759  27.989   1.325
36393W        W95489  29.442   9.744   1.282
36394W        W95490  23.644  27.195  13.376
36395W        W95491  38.990   2.901  14.853
36396W        W95492  35.476  10.335  10.066
36397W        W95493  25.138  17.300   2.891
36398W        W95494  10.374  35.366   4.612
36399W        W95495  30.949  26.010   2.221
36400W        W95496  20.522   6.234   1.734
36401W        W95497   9.807   7.298   2.222
36402W        W95498  25.175  14.744  13.952
36403W        W95499  11.766  15.184  11.064
36404W        W95500  44.782  36.903   0.816
36405W        W95501  15.627  32.003  14.345
36406W        W95502   9.207  39.378  13.021
36407W        W95503  14.187   4.349  14.413
36408W        W95504  10.335  19.178   0.942
36409W        W95505   8.837   6.688  13.442
36410W        W95506  39.901  17.194   3.867
36411W        W95507  23.060  30.147   4.131
36412W        W95508  23.549  43.483  11.600
36413W        W95509   8.687  26.074  10.471
36414W        W95510  41.823  42.959  11.931
36415W        W95511  37.475  16.585   3.198
36416W        W95512  10.728   9.166  13.804
36417W        W95513  36.949  43.975   3.805
36418W        W95514  17.241  41.304   1.792
36419W        W95515  13.112  21.112   2.826
36420W        W95516  30.456  16.207   9.979
36421W        W95517  26.471  37.412   0.257
36422W        W95518   2.819  25.584   4.672
36423W        W95519  17.301   3.380   3.747
36424W        W95520  18.606  28.115   5.319
36425W        W95521  18.088   9.218   0.854
36426W        W95522  15.710  12.760  13.405
36427W        W95523  40.840  28.523   1.795
36428W        W95524  11.687  25.196   3.337
36429W        W95525  41.947   3.367  11.965
36430W        W95526  27.958  39.951  14.867
36431W        W95527  12.185  28.609  10.543
36432W        W95528   8.206  11.707  12.946
36433W        W95529  36.842   8.256   3.343
36434W        W95530  44.958  26.111  11.938
36435W        W95531  34.422  38.848  10.416
36436W        W95532  24.500  40.035   2.821
36437W        W95533  37.347  16.114   1.923
36438W        W95534   0.373  20.253   2.232
36439W        W95535  39.348   0.301  12.550
36440W        W95536  34.108  28.458   3.369
36441W        W95537  16.696  28.623  10.928
36442W        W95538  27.944  10.637  13.330
36443W        W95539  39.856  11.843  14.493
36444W        W95540  27.495   8.232  10.619
36445W        W95541  44.371  27.571   2.294
36446W        W95542  23.186  34.961   2.704
36447W        W95543  41.355   4.856   1.725
36448W        W95544  34.400  20.266  14.470
36449W        W95545  16.169  12.310  12.987
36450W        W95546   5.781  12.336   1.327
36451W        W95547  21.247  17.665  11.976
36452W        W95548  27.150  41.404   1.870
36453W        W95549  44.964  41.373   1.883
36454W        W95550  42.402  26.535  11.414
36455W        W95551  37.371  38.936   2.736
36456W        W95552  37.568  37.834  11.009
36457W        W95553   5.298  43.861   2.889
36458W        W95554   3.298  35.029   2.301
36459W        W95555  41.949  24.586   4.272
36460W        W95556  30.090   5.228   3.245
36461W        W95557  13.260  32.613   0.382
36462W        W95558  31.045  41.328  14.432
36463W        W95559  39.940  42.493  11.113
36464W        W95560  44.820  17.735   4.814
36465W        W95561  17.636  32.050   3.215
36466W        W95562  23.669  21.535   0.967
36467W        W95563   5.779  36.574  14.882
36468W        W95564  36.918  23.718  13.840
36469W        W95565   5.841  30.515   4.704
36470W        W95566  31.983  43.017  13.437
36471W        W95567  41.009  29.475   3.226
36472W        W95568  28.461  20.553  12.095
36473W        W95569   1.458  40.371  10.410
36474W        W95570  37.368   3.252  13.456
36475W        W95571  41.484   0.351  11.081
36476W        W95572  28.436  38.418  14.490
36477W        W95573   9.250  14.694  13.858
36478W        W95574  39.883  22.055  12.376
36479W        W95575  26.090   7.385   2.209
36480W        W95576  36.882  14.131  12.060
36481W        W95577  38.354  15.233  14.423
36482W        W95578   7.807  42.292  10.606
36483W        W95579  10.784  33.626   0.376
36484W        W95580  37.366   1.402   2.808
36485W        W95581  35.062   4.788  14.877
36486W        W95582  42.861   4.720  14.973
36487W        W95583  11.164  40.866  13.413
36488W        W95584  31.639  34.045   1.889
36489W        W95585  23.063  41.021  14.297
36490W        W95586   0.263  38.916  11.476
36491W        W95587  23.659  42.804   1.799
36492W        W95588   9.759  17.246  11.061
36493W        W95589  36.534  30.540   4.164
36494W        W95590  43.846  40.356  12.432
36495W        W95591  27.647   8.793  13.484
36496W        W95592   1.963  33.961   4.202
36497W        W95593   3.717   1.322   3.298
36498W        W95594  31.413  29.978   1.796
36499W        W95595  38.329   8.162   2.781
36500W        W95596  15.801  12.295   4.343
36501W        W95597  31.545   8.749   4.144
36502W        W95598   1.458  14.219   4.226
36503W        W95599  42.417  11.225  11.444
36504W        W95600  31.018  37.413   4.707
36505W        W95601  40.019   4.283   0.356
36506W        W95602  17.214  32.022   5.140
36507W        W95603  16.201  41.515  12.530
36508W        W95604  35.443   8.863  14.513
36509W        W95605   4.376  42.438  13.981
36510W        W95606  44.381   2.333   4.191
36511W        W95607   6.910  27.017   1.395
36512W        W95608  24.657   2.457  12.439
36513W        W95609  32.954  30.437  12.431
36514W        W95610   8.319  36.867  13.014
36515W        W95611  19.608  43.810  14.841
36516W        W95612  31.508  28.966  10.611
36517W        W95613  23.179  25.990   3.728
36518W        W95614   3.371   9.159   4.127
36519W        W95615  28.042  22.725  10.017
36520W        W95616  24.213  39.948   3.262
36521W        W95617  25.091  23.142  12.481
36522W        W95618  20.253  29.533   1.705
36523W        W95619  22.067  42.808  12.084
36524W        W95620   0.887  23.234   4.609
36525W        W95621   0.812  36.467   4.159
36526W        W95622   1.949  40.973  11.970
36527W        W95623   4.766  41.912   1.898
36528W        W95624  21.176  36.089   3.648
36529W        W95625  30.471   4.441  14.516
36530W        W95626  28.642   9.819   2.408
36531W        W95627  44.265  42.850   3.696
36532W        W95628   6.187  20.578   0.404
36533W        W95629  12.351   1.971  11.988
36534W        W95630   1.899  37.024   3.387
36535W        W95631   0.435  25.078   0.294
36536W        W95632   6.865   6.908  11.519
36537W        W95633   7.880   1.773  14.944
36538W        W95634   7.715  31.427   4.623
36539W        W95635  37.929  30.984   4.798
36540W        W95636  21.596   2.749   0.368
36541W        W95637  22.641  12.772   4.199
36542W        W95638  17.274  30.093  12.991
36543W        W95639  17.188  44.293  13.488
36544W        W95640  32.895  24.715   4.631
36545W        W95641  16.656  23.564  12.095
36546W        W95642  28.124  29.434   3.634
36547W        W95643  39.497  34.097  10.568
36548W        W95644  44.910  16.729   0.404
36549W        W95645  17.659   1.849   3.161
36550W        W95646   3.350   3.804  13.462
36551W        W95647   2.724  36.037   3.765
36552W        W95648   0.317  28.620  10.917
36553W        W95649  14.164   7.842   2.313
36554W        W95650  33.005  43.889  12.450
36555W        W95651  30.522  33.940  12.484
36556W        W95652  23.210   1.834   2.376
36557W        W95653  34.510   0.983   1.904
36558W        W95654  39.428  15.300  12.573
36559W        W95655  13.625   3.841   4.719
36560W        W95656  11.174  38.543  14.416
36561W        W95657  43.288  14.637  14.386
36562W        W95658  25.113  27.534  14.288
36563W        W95659   6.182  43.416   3.335
36564W        W95660  11.627  44.393  14.468
36565W        W95661   5.690  33.938  12.824
36566W        W95662   7.721   9.786   2.761
36567W        W95663  43.873   5.265   4.291
36568W        W95664  28.600  39.326  13.827
36569W        W95665  20.631  16.278   2.737
36570W        W95666  36.515  34.452  14.388
36571W        W95667  36.905  28.643  11.404
36572W        W95668   9.185  33.500  13.876
36573W        W95669  34.412  41.367  13.308
36574W        W95670  12.776  23.599  13.538
36575W        W95671  32.569  14.117   4.189
36576W        W95672  43.362   0.828  12.952
36577W        W95673   7.314  44.985  11.073
36578W        W95674  37.841  12.632   4.241
36579W        W95675   7.373   3.836  10.466
36580W        W95676   1.310  34.379  12.353
36581W        W95677  36.918  41.481   4.314
36582W        W95678  35.446   1.429   4.720
36583W        W95679  41.035  14.821   4.599
36584W        W95680  29.467  25.192   4.748
36585W        W95681  16.566   0.430  12.918
36586W        W95682   9.210   4.860   1.265
36587W        W95683  38.549  26.544   0.317
36588W        W95684   3.947  31.147  13.794
36589W        W95685  17.196  39.014   9.650
36590W        W95686  12.610  14.124  12.504
36591W        W95687  10.724  30.445   5.318
36592W        W95688  35.577  20.523   3.801
36593W        W95689   2.350  11.736   1.744
36594W        W95690  38.334  19.692  13.372
36595W        W95691  13.276   2.235  13.412
36596W        W95692  30.970  41.491  11.506
36597W        W95693  36.881  38.910  11.495
36598W        W95694  36.966  26.199   1.449
36599W        W95695  38.985  23.610   0.474
36600W        W95696  21.632   8.313  12.920
36601W        W95697  14.810  40.948   3.202
36602W        W95698   6.244  24.111   4.190
36603W        W95699   7.802  16.209   0.842
36604W        W95700   6.393  18.761   3.270
36605W        W95701  29.135  27.478   3.724
36606W        W95702  23.550  38.518  12.080
36607W        W95703  42.890  42.436   2.332
36608W        W95704   9.197  26.693  10.547
36609W        W95705   3.826  20.227  14.893
36610W        W95706   1.848   2.357  13.037
36611W        W95707   0.385  19.577  10.976
36612W        W95708  26.200  20.171  12.062
36613W        W95709  33.974  34.615   0.886
36614W        W95710  41.454  16.697  11.443
36615W        W95711  33.416  22.513  11.003
36616W        W95712   5.394  44.449  13.868
36617W        W95713  41.419  28.954   1.760
36618W        W95714  39.432  35.887   2.706
36619W        W95715  35.856  22.649   0.337
36620W        W95716   8.858  34.078   4.758
36621W        W95717  28.176   3.345  14.926
36622W        W95718  27.064  19.714   3.222
36623W        W95719  31.513  43.302  13.541
36624W        W95720   7.234  18.699  14.791
36625W        W95721  25.515  29.553  11.531
36626W        W95722  37.527   8.667   4.140
36627W        W95723  35.549   1.830  10.519
36628W        W95724   2.873  22.655   4.658
36629W        W95725  36.539   6.805   0.896
36630W        W95726  28.958  13.316  11.564
36631W        W95727  13.106   1.740  12.036
36632W        W95728  20.272  36.056   1.879
36633W        W95729  23.597  16.610   0.787
36634W        W95730  28.537   6.202  12.091
36635W        W95731  12.724   0.293   1.301
36636W        W95732  44.782  39.848  13.525
36637W        W95733  26.960   6.759   2.231
36638W        W95734  22.174   2.805   2.419
36639W        W95735  18.252   4.392   3.783
36640W        W95736  30.500  14.312   0.380
36641W        W95737   1.334  23.110   1.699
36642W        W95738  29.083   0.491  11.863
36643W        W95739   3.829  39.500   4.628
36644W        W95740  43.500  14.588   2.247
36645W        W95741   9.205   5.402   3.329
36646W        W95742   0.464  10.373  11.973
36647W        W95743  38.339  17.599   3.378
36648W        W95744   1.829  38.826   0.447
36649W        W95745   7.706  15.730  13.352
36650W        W95746  20.768  42.958   3.345
36651W        W95747  31.105  37.431   1.330
36652W        W95748  35.436   4.815   3.146
36653W        W95749   9.822  27.460   9.456
36654W        W95750  32.004  22.164  10.587
36655W        W95751  32.952  42.294   1.697
36656W        W95752  33.013  20.600  12.943
36657W        W95753   3.740   8.855   2.364
36658W        W95754  15.327  33.534  14.323
36659W        W95755  42.887  25.032  12.085
36660W        W95756  30.640  41.852  10.923
36661W        W95757  28.645  26.531   0.808
36662W        W95758  40.873  15.114   0.876
36663W        W95759   8.223   8.656  11.377
36664W        W95760  24.628  23.650  11.909
36665W        W95761  21.045  25.007  14.320
36666W        W95762  29.971   1.769   0.816
36667W        W95763   7.258  37.504   4.233
36668W        W95764  11.682   3.891   3.276
36669W        W95765  29.609  26.591   0.769
36670W        W95766  30.961  38.003   3.634
36671W        W95767  36.036  16.090   9.563
36672W        W95768  40.947   3.949  11.431
36673W        W95769   4.928  22.122  12.569
36674W        W95770  22.044  30.073   2.844
36675W        W95771  20.118  39.505   0.428
36676W        W95772  37.571   3.260  14.962
36677W        W95773  19.666   4.312   1.763
36678W        W95774   7.672  26.553  11.925
36679W        W95775   7.748  29.062  13.038
36680W        W95776  20.096  38.425   3.744
36681W        W95777  36.475  14.744   4.675
36682W        W95778  35.427  22.533   2.254
36683W        W95779  44.768  19.280  14.358
36684W        W95780   1.361  12.703  13.009
36685W        W95781  19.721  38.920   1.762
36686W        W95782   3.890   0.779  11.461
36687W        W95783  20.623  24.223   0.460
36688W        W95784   5.405  22.047   2.718
36689W        W95785   4.726  35.497  12.397
36690W        W95786   0.860  25.531   4.144
36691W        W95787  11.262  24.166  11.464
36692W        W95788  38.534  28.495   2.768
36693W        W95789  40.879  11.177   0.846
36694W        W95790   8.732   3.412  12.968
36695W        W95791  31.125  22.051  11.601
36696W        W95792  44.290  30.049   2.191
36697W        W95793  44.312   1.740   4.808
36698W        W95794  15.726  41.043   4.713
36699W        W95795   8.899  38.965   3.829
36700W        W95796  18.157  27.505  11.432
36701W        W95797  28.138  42.823   0.915
36702W        W95798  21.649  24.145   2.381
36703W        W95799   8.854  20.245   3.741
36704W        W95800   1.763   2.868  12.020
36705W        W95801  22.605   3.321  12.479
36706W        W95802  11.780   0.298   3.194
36707W        W95803  32.435  12.856   4.615
36708W        W95804  13.208  17.257  12.875
36709W        W95805   8.773   5.881  13.023
36710W        W95806  36.457  28.623   0.285
36711W        W95807   2.291  10.173  12.003
36712W        W95808   5.248  37.357  14.508
36713W        W95809  16.579  22.025   4.303
36714W        W95810  36.068  18.708  12.399
36715W        W95811  13.656  21.060  11.401
36716W        W95812   6.294  22.127  10.518
36717W        W95813  28.494  14.301   1.787
36718W        W95814  15.303   1.418   2.331
36719W        W95815   6.268  33.512  11.534
36720W        W95816  39.322  39.364   0.248
36721W        W95817   9.660  15.645   4.223
36722W        W95818  42.792  37.541   0.325
36723W        W95819  26.511  31.929  14.448
36724W        W95820  13.708  24.109  13.950
36725W        W95821  40.837  24.143  13.935
36726W        W95822  23.670   8.875  12.353
36727W        W95823   6.304  40.398   4.811
36728W        W95824  41.014  31.950  10.463
36729W        W95825  37.002  40.898  13.982
36730W        W95826  25.144  10.215   4.665
36731W        W95827  10.355   0.927   2.333
36732W        W95828   8.204  37.358   5.176
36733W        W95829   4.711  32.975   2.887
36734W        W95830  39.397   6.713  11.974
36735W        W95831   9.715  40.526  12.886
36736W        W95832  27.675  36.965  12.876
36737W        W95833  36.873  12.174  11.412
36738W        W95834  37.338  43.438  11.099
36739W        W95835   7.217  19.766  14.793
36740W        W95836  23.527  17.692  13.375
36741W        W95837  11.658  44.313  10.130
36742W        W95838  11.769  30.577   0.883
36743W        W95839  21.544  23.222   1.736
36744W        W95840  12.743  37.084  13.942
36745W        W95841   8.200  20.157   2.218
36746W        W95842  24.524  41.293  13.491
36747W        W95843  37.063   1.478  13.353
36748W        W95844  17.130  44.398  11.549
36749W        W95845  12.232  29.048   1.908
36750W        W95846  10.376  18.706  12.827
36751W        W95847  36.424  29.050  11.909
36752W        W95848  13.188  18.593  12.404
36753W        W95849  31.103  38.053   1.715
36754W        W95850  17.777  35.104   4.607
36755W        W95851  15.759  39.816   1.430
36756W        W95852   0.781  12.705   1.832
36757W        W95853  28.124  24.101  14.329
36758W        W95854  17.175  18.108  14.283
36759W        W95855  41.469  17.108  11.894
36760W        W95856  10.163   9.374  11.602
36761W        W95857  25.481   4.910  14.926
36762W        W95858   2.342  29.659   3.840
36763W        W95859  35.527   7.175  11.863
36764W        W95860   5.424  27.019   1.251
36765W        W95861  14.787  28.485   2.773
36766W        W95862  34.997  35.416  10.433
36767W        W95863  16.181   2.351   1.439
36768W        W95864  41.832  20.137  13.535
36769W        W95865  21.750  21.589   4.706
36770W        W95866  13.688   2.860   4.127
36771W        W95867  41.412  37.835   3.165
36772W        W95868  30.488  11.138   4.352
36773W        W95869   5.421  16.296   3.358
36774W        W95870  18.112  16.204  14.287
36775W        W95871  39.505  26.500   3.751
36776W        W95872  24.661  32.423   4.597
36777W        W95873   0.494   3.716  10.503
36778W        W95874  15.327  12.693  14.379
36779W        W95875   8.176  24.143  12.042
36780W        W95876  15.711  40.048   2.752
36781W        W95877  15.100  37.064   9.583
36782W        W95878  43.509  11.246   3.670
36783W        W95879   3.950  28.008  14.412
36784W        W95880   3.781  33.466   4.645
36785W        W95881   9.714  19.626  11.540
36786W        W95882  41.414  24.600   4.697
36787W        W95883  22.178   5.358   0.846
36788W        W95884  44.498  32.910  14.763
36789W        W95885  23.506  41.890   2.405
36790W        W95886   0.937   8.781   4.298
36791W        W95887  13.266  37.558  10.484
36792W        W95888  15.732   5.814  10.073
36793W        W95889   6.299  34.501   3.852
36794W        W95890  36.872  28.041   1.826
36795W        W95891   0.974  33.461  10.141
36796W        W95892  39.827  39.405   1.443
36797W        W95893  29.433  23.529   0.734
36798W        W95894  26.696  24.227   1.828
36799W        W95895  10.643  33.930   0.937
36800W        W95896   3.336   2.831   2.369
36801W        W95897  36.418  26.532   3.647
36802W        W95898  41.954  16.225  14.381
36803W        W95899  32.420   1.762  12.012
36804W        W95900   5.855  33.507  10.468
36805W        W95901   7.864   7.229   0.810
36806W        W95902  41.955  38.935   1.901
36807W        W95903  34.614  22.184  10.948
36808W        W95904  28.494   6.834  11.044
36809W        W95905  31.057  26.684   2.327
36810W        W95906  13.282  35.516  11.526
36811W        W95907  35.569  18.752  14.491
36812W        W95908  14.208   1.435  14.947
36813W        W95909  37.077  27.655   3.335
36814W        W95910  42.491  38.449  10.582
36815W        W95911  40.936  12.351  11.579
36816W        W95912  19.766   7.869  14.514
36817W        W95913  31.625  33.962  13.483
36818W        W95914  24.607  41.382  11.607
36819W        W95915  15.686   2.814  10.550
36820W        W95916  39.877  17.286   2.740
36821W        W95917  30.940  17.142   1.810
36822W        W95918   6.237  28.532   0.265
36823W        W95919  33.410  18.114   0.961
36824W        W95920  43.454  14.692   0.303
36825W        W95921  34.396  44.414  11.052
36826W        W95922   0.352  38.013  12.885
36827W        W95923  16.216   6.298   2.275
36828W        W95924  37.581  12.846   0.909
36829W        W95925   1.885  19.117   0.822
36830W        W95926  13.741  24.098   1.903
36831W        W95927  22.038  40.819   0.396
36832W        W95928  21.519   9.154  13.526
36833W        W95929  26.571  34.515   3.751
36834W        W95930  35.103  25.195  12.474
36835W        W95931  42.799   1.365   3.194
36836W        W95932  13.229  32.083   5.282
36837W        W95933   3.430  31.477   3.175
36838W        W95934  22.236  10.792  13.863
36839W        W95935  17.297  19.091  11.104
36840W        W95936  18.774  21.246   2.206
36841W        W95937  24.038  24.221  13.893
36842W        W95938  44.443   1.263   4.756
36843W        W95939  24.517  31.125  13.046
36844W        W95940  10.378  40.348   2.723
36845W        W95941  23.110   2.955  11.604
36846W        W95942  36.931  17.739  13.349
36847W        W95943   4.710   8.219  11.591
36848W        W95944  28.045  19.697  10.918
36849W        W95945  26.576   5.230  11.562
36850W        W95946  21.595   2.782  12.459
36851W        W95947  20.238   0.373   2.189
36852W        W95948  26.104   0.413   0.798
36853W        W95949   6.837  19.076  10.433
36854W        W95950  20.113  24.036   2.353
36855W        W95951  22.607  24.666   4.313
36856W        W95952  33.449  32.486   0.960
36857W        W95953  11.295  14.294   2.310
36858W        W95954  18.566  12.856   2.849
36859W        W95955   4.335  28.995   4.629
36860W        W95956   2.439  24.058   0.380
36861W        W95957   1.347  24.097   3.284
36862W        W95958  25.132  24.028   1.328
36863W        W95959  11.740  35.013  12.513
36864W        W95960  17.677  38.545  12.439
36865W        W95961  20.599   3.393  13.466
36866W        W95962  32.031  17.225  12.005
36867W        W95963   0.381  31.102  13.889
36868W        W95964   9.690   4.930  11.860
36869W        W95965  20.567  37.541  10.637
36870W        W95966  16.707  13.192  13.995
36871W        W95967   4.738  11.778   3.684
36872W        W95968  43.847  38.476  11.441
36873W        W95969  43.490  43.395   2.318
36874W        W95970  13.333   5.805  10.560
36875W        W95971  44.369  25.646  13.005
36876W        W95972  14.683   0.833  10.407
36877W        W95973  16.587  16.719   3.197
36878W        W95974   3.720  25.571  14.938
36879W        W95975  35.492  27.117   0.457
36880W        W95976  21.168   1.384   3.184
36881W        W95977  23.576  27.631   4.148
36882W        W95978  31.912  43.504   3.204
36883W        W95979   3.891  12.238   1.265
36884W        W95980  40.962   5.737   3.203
36885W        W95981  28.652  43.021  12.454
36886W        W95982   2.831  24.542   1.351
36887W        W95983   6.305  30.450  12.369
36888W        W95984  37.868  22.211   4.691
36889W        W95985  18.751  36.945   2.872
36890W        W95986  35.958  38.845   0.883
36891W        W95987  40.428  11.284   2.301
36892W        W95988  38.365  31.645   4.279
36893W        W95989  27.081  11.187   3.173
36894W        W95990  15.161  37.875  10.066
36895W        W95991  14.662   7.734  12.019
36896W        W95992  11.821   8.238   3.187
36897W        W95993  31.640   3.288  12.829
36898W        W95994  14.312  27.573  12.369
36899W        W95995  33.023  23.158   2.869
36900W        W95996  30.518  33.009   0.473
36901W        W95997  32.914  37.371  12.551
36902W        W95998  35.085  40.945  13.799
36903W        W95999   9.241  22.655   2.682
36904W        W96000  25.141  12.272   1.299
36905W        W96001  30.116  20.763  13.433
36906W        W96002   2.298  18.768   0.480
36907W        W96003  15.617   0.965   4.158
36908W        W96004  41.977  11.648   9.953
36909W        W96005   6.863  20.141  12.091
36910W        W96006   2.410   0.423   2.308
36911W        W96007  40.401  21.189  12.937
36912W        W96008  42.307  41.808   3.349
36913W        W96009  25.000  44.890   4.721
36914W        W96010  26.610  20.163  10.587
36915W        W96011   2.789  14.270   0.300
36916W        W96012  20.180  44.386  11.496
36917W        W96013   7.764  27.616   3.186
36918W        W96014   0.288  16.700   4.696
36919W        W96015  23.108  35.360  12.395
36920W        W96016  13.125  43.884   1.339
36921W        W96017  34.543  40.016   2.279
36922W        W96018  32.124   0.827   4.143
36923W        W96019  34.607  23.057  10.135
36924W        W96020  30.991  38.909   2.753
36925W        W96021  28.627  22.508   2.396
36926W        W96022  10.384   0.343   2.847
36927W        W96023  12.199  12.204   3.360
36928W        W96024  43.377  19.147   4.289
36929W        W96025  20.153  24.708   1.871
36930W        W96026  13.619  33.060  12.358
36931W        W96027  14.746  13.665  11.591
36932W        W96028   9.840  16.247  12.483
36933W        W96029  15.625  18.106   2.265
36934W        W96030  33.958  43.351  14.779
36935W        W96031  28.113  28.075   4.245
36936W        W96032  39.955  29.452   4.254
36937W        W96033  15.233  33.569   0.861
36938W        W96034  17.752   5.414   0.839
36939W        W96035  41.452  28.641   1.271
36940W        W96036  25.125  39.491   1.428
36941W        W96037  33.090  30.087   3.159
36942W        W96038  22.589   0.367   3.803
36943W        W96039  22.608   1.346   4.138
36944W        W96040  22.044   5.200   3.218
36945W        W96041  23.178  43.806   1.835
36946W        W96042   5.308  29.484   3.717
36947W        W96043  32.544  15.170  14.503
36948W        W96044  33.054  17.106  11.993
36949W        W96045  31.609  18.230   0.253
36950W        W96046  35.859  40.938  11.100
36951W        W96047   6.738   3.828  13.535
36952W        W96048  17.110  10.160   2.748
36953W        W96049  22.220   2.290  10.943
36954W        W96050  42.383  44.352  12.490
36955W        W96051  16.736  24.496  13.383
36956W        W96052  28.167  17.303   1.290
36957W        W96053  25.092  27.666   3.827
36958W        W96054  20.730  23.988   0.860
36959W        W96055  15.767  15.195   1.322
36960W        W96056  42.310  26.999  11.570
36961W        W96057  11.677  11.658   4.677
36962W        W96058  18.183  33.934  12.396
36963W        W96059   4.885   9.873  10.890
36964W        W96060  23.091  19.099   2.191
36965W        W96061  31.467  38.469   4.136
36966W        W96062  12.821  25.219   2.239
36967W        W96063  32.931   4.283   3.773
36968W        W96064  31.499  12.739  11.911
36969W        W96065   0.258  33.920   2.305
36970W        W96066  30.495  31.540   0.336
36971W        W96067   1.815  13.753   2.707
36972W        W96068   0.955  44.503   0.732
36973W        W96069   3.784  20.580   2.248
36974W        W96070  21.551  11.818  12.886
36975W        W96071  19.282  40.509  13.868
36976W        W96072  14.232  35.383  14.944
36977W        W96073  42.022  12.277  12.900
36978W        W96074  25.653   8.861  13.834
36979W        W96075  36.567   6.425   4.220
36980W        W96076   5.333  32.482   0.781
36981W        W96077  31.026   2.789  11.104
36982W        W96078   1.837  10.143  13.027
36983W        W96079  40.903  18.583  14.842
36984W        W96080  20.589  11.206   4.183
36985W        W96081  31.038  19.200   4.210
36986W        W96082  39.343  17.576  14.891
36987W        W96083  16.098  28.081   3.836
36988W        W96084  33.113  36.557  10.613
36989W        W96085  13.600   8.241  14.300
36990W        W96086  36.013  40.433   3.858
36991W        W96087  30.623   4.774   4.820
36992W        W96088  39.887   5.437  10.513
36993W        W96089  40.397  31.553  11.595
36994W        W96090  30.064  27.675   2.277
36995W        W96091  42.936  26.602   5.179
36996W        W96092   1.260  34.597  11.121
36997W        W96093  17.616  32.512  12.039
36998W        W96094  31.535  30.638  11.075
36999W        W96095   4.285   0.751  12.412
37000W        W96096  25.514  23.034  13.973
37001W        W96097  18.608   9.176  14.817
37002W        W96098  18.263  18.151  12.066
37003W        W96099  36.986  18.129   1.704
37004W        W96100  39.541  44.823  12.534
37005W        W96101  29.934  38.429  13.495
37006W        W96102   0.929  24.652   3.647
37007W        W96103  12.265  27.557  14.835
37008W        W96104  13.118  21.227  10.108
37009W        W96105  32.140  36.948   4.633
37010W        W96106  19.050  27.183  13.027
37011W        W96107  24.526  34.965  12.571
37012W        W96108  15.296  44.966   3.215
37013W        W96109  16.257  37.468   1.321
37014W        W96110  42.941   3.885  10.495
37015W        W96111   8.211  40.467   0.940
37016W        W96112  25.566  18.214  14.340
37017W        W96113  22.019  43.329  12.978
37018W        W96114   7.678  38.445  11.528
37019W        W96115  28.041   5.772   3.171
37020W        W96116  15.314  41.891  14.304
37021W        W96117  27.975   2.294  12.397
37022W        W96118  44.260  18.567   5.159
37023W        W96119   0.435  42.970   4.636
37024W        W96120  38.022  38.428   1.226
37025W        W96121  26.588  28.136  11.605
37026W        W96122  14.764  33.066  12.929
37027W        W96123  43.791  12.118   3.360
37028W        W96124  18.562  24.573   4.710
37029W        W96125   5.368  39.509   2.732
37030W        W96126  12.136  34.591  11.008
37031W        W96127  44.375  34.512  12.862
37032W        W96128  13.683  14.279   2.355
37033W        W96129  30.582  26.577   3.852
37034W        W96130   6.293  42.908   1.814
37035W        W96131  36.889  44.929   3.736
37036W        W96132  10.170  43.992   3.169
37037W        W96133  32.537  22.041   1.800
37038W        W96134  33.611  19.057   4.325
37039W        W96135  38.052  37.574  11.567
37040W        W96136  38.876   2.754   4.201
37041W        W96137  17.076  25.533   2.365
37042W        W96138  15.143  16.128  14.338
37043W        W96139  40.524  29.004  10.999
37044W        W96140   9.243  37.434  12.488
37045W        W96141   6.318  14.195   2.771
37046W        W96142   4.280  24.144   5.613
37047W        W96143  13.217  24.224  14.029
37048W        W96144  10.367   0.421   4.313
37049W        W96145  11.716   0.778  11.864
37050W        W96146  22.051  40.455  11.039
37051W        W96147   5.431   7.220  12.450
37052W        W96148  34.869  43.984   2.410
37053W        W96149  34.895   4.817   1.802
37054W        W96150  21.077  15.151   3.257
37055W        W96151  18.219  41.986   2.282
37056W        W96152  18.056  36.873  12.956
37057W        W96153  10.145  17.198   5.287
37058W        W96154  21.181  30.079  10.466
37059W        W96155  28.005   9.326  14.507
37060W        W96156  28.109  22.715   5.299
37061W        W96157  22.568  29.109   3.735
37062W        W96158  17.117  34.556  14.923
37063W        W96159  43.483  17.155  11.039
37064W        W96160  36.078  19.073  11.605
37065W        W96161  28.575  24.155  13.448
37066W        W96162  37.533   7.835   0.742
37067W        W96163  22.527  40.998  14.424
37068W        W96164   5.256  10.697   1.935
37069W        W96165   0.385   4.921   2.875
37070W        W96166  37.366  43.341   4.807
37071W        W96167   8.824   5.868  13.399
37072W        W96168   4.819  42.309  14.028
37073W        W96169  25.677  14.262  11.056
37074W        W96170  21.102  21.688   4.766
37075W        W96171  32.027  13.837  14.959
37076W        W96172  35.913  32.486   1.451
37077W        W96173  10.334  11.864  12.380
37078W        W96174   0.966  23.193  14.407
37079W        W96175  33.456  25.505   4.658
37080W        W96176   8.846  16.072   0.890
37081W        W96177  26.165  27.030  11.030
37082W        W96178  23.595  27.474  13.004
37083W        W96179  36.545  30.442   5.173
37084W        W96180  11.651   5.702   1.887
37085W        W96181  17.788  10.354  14.936
37086W        W96182   3.719   0.474  10.131
37087W        W96183  28.639  15.164   0.351
37088W        W96184   6.361   1.414   3.757
37089W        W96185   2.283  36.541  12.060
37090W        W96186  17.111  22.710   1.755
37091W        W96187  23.062   0.465  11.923
37092W        W96188   3.269  25.136   2.205
37093W        W96189  43.323   4.732  12.394
37094W        W96190   3.726  34.496   4.608
37095W        W96191  21.071  28.119   4.749
37096W        W96192  35.513  38.032   0.261
37097W        W96193  15.169  31.897   3.645
37098W        W96194   8.868  44.779   3.288
37099W        W96195  36.970  37.547   3.686
37100W        W96196   7.904  12.822  11.591
37101W        W96197   7.199  36.425   2.182
37102W        W96198   2.729  26.639   5.168
37103W        W96199  11.791  42.935   3.834
37104W        W96200   6.361   5.316  14.762
37105W        W96201  24.531  39.374   1.733
37106W        W96202  39.896  20.210  14.937
37107W        W96203  20.050  36.991   1.757
37108W        W96204  13.229  33.521  12.014
37109W        W96205   8.862  30.909   5.293
37110W        W96206  39.364   9.874  11.378
37111W        W96207  16.594  30.091   3.255
37112W        W96208  20.749  25.614   1.351
37113W        W96209  12.716  25.626   1.332
37114W        W96210   6.794   8.772   3.727
37115W        W96211   6.701  18.743   3.700
37116W        W96212  23.996   3.829   0.305
37117W        W96213  10.372  24.656  14.334
37118W        W96214  15.708  36.986   0.747
37119W        W96215   2.792  16.241  11.059
37120W        W96216  21.133  41.413  12.933
37121W        W96217  13.771  41.793   0.361
37122W        W96218  23.664  33.608   3.691
37123W        W96219  15.245  11.191   2.327
37124W        W96220  21.719  30.058  14.285
37125W        W96221  18.701  43.506  13.061
37126W        W96222  14.608   0.872   1.876
37127W        W96223  27.488  39.019  14.320
37128W        W96224   8.366  12.217  14.408
37129W        W96225  12.246  41.952  11.411
37130W        W96226  17.577  37.495  13.309
37131W        W96227  23.161  37.890  13.387
37132W        W96228  19.624  33.556   4.233
37133W        W96229  27.111  28.122   3.653
37134W        W96230   6.694   6.191   0.947
37135W        W96231  36.027  13.116   2.268
37136W        W96232  22.114  39.363  11.449
37137W        W96233  44.799  10.654   4.695
37138W        W96234  10.240   8.787  12.021
37139W        W96235  18.205   1.443   0.870
37140W        W96236  10.258  18.229   2.203
37141W        W96237  39.852  23.016   3.317
37142W        W96238  30.438  35.433   2.861
37143W        W96239  30.482  18.255  12.077
37144W        W96240  22.743  13.744   0.395
37145W        W96241  36.405  30.557   0.819
37146W        W96242  35.432  19.691   1.801
37147W        W96243  15.607  29.446  14.983
37148W        W96244  13.336   0.434  10.630
37149W        W96245   5.426   3.236   1.881
37150W        W96246  17.572  42.024  13.939
37151W        W96247  16.573  44.334   2.821
37152W        W96248  40.886  33.966  14.285
37153W        W96249  33.506  21.731  10.521
37154W        W96250  42.986  11.850   5.299
37155W        W96251  33.880  22.619  11.930
37156W        W96252   5.710  34.989   0.801
37157W        W96253  10.187  10.232  10.000
37158W        W96254   7.345  27.965   4.755
37159W        W96255   4.879  24.110  11.885
37160W        W96256   6.916  26.051  12.484
37161W        W96257  34.870  44.915   4.188
37162W        W96258   6.216  18.750   3.722
37163W        W96259  24.074  26.078   3.665
37164W        W96260   5.776  22.089   4.118
37165W        W96261  22.011  39.342   1.885
37166W        W96262  20.691  11.866  14.762
37167W        W96263  34.371  20.759  12.359
37168W        W96264  28.436  34.115   0.935
37169W        W96265  20.679   6.747   4.227
37170W        W96266  43.295  27.991   3.288
37171W        W96267   7.693  28.642   0.302
37172W        W96268  43.413   9.181   4.330
37173W        W96269  35.509  14.118  11.552
37174W        W96270   1.941  10.684  13.917
37175W        W96271  30.122  19.741   4.258
37176W        W96272  31.632  14.835   0.831
37177W        W96273  33.429  10.705  12.940
37178W        W96274   5.799  11.140   1.300
37179W        W96275  31.585  36.953   4.742
37180W        W96276  24.035  34.000  11.938
37181W        W96277  11.347   2.729  14.451
37182W        W96278  17.173  31.026   0.958
37183W        W96279  10.782  40.854  13.937
37184W        W96280  33.433   0.806   0.300
37185W        W96281  41.395  42.382   4.346
37186W        W96282   9.219  31.097   4.835
37187W        W96283   3.737   5.916  14.458
37188W        W96284  34.424  39.034   2.207
37189W        W96285  20.114  40.367  12.558
37190W        W96286  16.683  26.476  14.827
37191W        W96287  15.661  30.559  12.561
37192W        W96288  14.095  40.046   1.812
37193W        W96289  36.995  25.005   5.186
37194W        W96290  33.025  43.434   1.914
37195W        W96291  28.040  10.280   3.290
37196W        W96292  36.948  13.780   2.870
37197W        W96293  19.572   3.718   4.684
37198W        W96294  17.681  44.754   0.334
37199W        W96295  35.584   3.780  14.964
37200W        W96296  44.317  35.401   2.713
37201W        W96297   3.920  11.235   2.682
37202W        W96298   9.157  13.622   2.419
37203W        W96299  22.068  36.846  11.417
37204W        W96300  23.143  17.255   1.846
37205W        W96301   7.191   8.241   0.399
37206W        W96302  39.421   4.940   4.251
37207W        W96303  38.994  17.243   1.790
37208W        W96304  10.311  23.988   2.366
37209W        W96305  25.087  41.999   3.831
37210W        W96306   2.431   3.388   1.887
37211W        W96307   7.395  16.224   3.342
37212W        W96308  27.186  31.974  10.950
37213W        W96309  18.075   3.222   0.791
37214W        W96310  11.137  40.446   3.861
37215W        W96311  36.880  33.898  11.472
37216W        W96312  26.978  43.421  10.997
37217W        W96313  22.196  25.674   2.704
37218W        W96314  43.831  43.406   2.337
37219W        W96315   7.792  30.647  11.884
37220W        W96316  36.364  33.610   0.391
37221W        W96317  12.219  20.073  12.492
37222W        W96318  42.526  11.814  10.530
37223W        W96319  11.266  14.661   3.749
37224W        W96320  37.877  33.590   2.388
37225W        W96321  37.941  39.865   1.721
37226W        W96322   3.837  27.589  11.411
37227W        W96323  34.468  23.043  13.378
37228W        W96324  44.812  37.366   1.929
37229W        W96325   5.867  23.028   5.783
37230W        W96326   2.765  34.464  11.888
37231W        W96327  21.223  13.673  13.823
37232W        W96328  12.332   0.806  13.902
37233W        W96329  15.819  38.050  14.851
37234W        W96330   6.696  10.637  10.446
37235W        W96331  30.138  31.051   1.310
37236W        W96332   8.333  11.836   0.946
37237W        W96333  18.133  24.081   1.417
37238W        W96334  30.910  14.310  14.404
37239W        W96335  33.604  35.885  11.547
37240W        W96336  16.574  15.697   3.828
37241W        W96337  27.690  21.081   0.861
37242W        W96338   5.315  37.847  12.063
37243W        W96339   3.799   2.751  11.863
37244W        W96340  31.097  21.067  11.574
37245W        W96341  17.596   0.346   4.138
37246W        W96342  25.610  25.105   3.734
37247W        W96343  41.395  19.610  14.456
37248W        W96344  40.991  25.477   4.601
37249W        W96345  10.359  11.360  14.955
37250W        W96346  24.195  39.921   1.879
37251W        W96347  27.130  34.502   3.279
37252W        W96348  21.533  39.846   2.760
37253W        W96349  12.220   8.709   4.750
37254W        W96350  42.299  17.591   2.236
37255W        W96351  11.695  28.495   5.114
37256W        W96352  41.519  30.021   3.828
37257W        W96353  26.208  14.151  12.498
37258W        W96354  26.505  20.140   1.337
37259W        W96355  15.774  31.149   0.400
37260W        W96356  26.650  41.476   4.765
37261W        W96357  39.481  21.114   4.748
37262W        W96358   1.749   0.909   1.366
37263W        W96359  42.817  24.153  13.917
37264W        W96360  12.817   8.242   3.867
37265W        W96361  33.400  23.020   0.909
37266W        W96362  29.924   7.286   3.674
37267W        W96363  32.085  39.433  14.805
37268W        W96364  30.116   3.917  12.385
37269W        W96365  41.427   9.715   4.611
37270W        W96366  30.921  25.168   5.287
37271W        W96367  13.267  43.508  12.517
37272W        W96368  26.622   9.191  12.078
37273W        W96369   9.294   7.796   3.219
37274W        W96370  27.671  34.474  12.038
37275W        W96371  10.358  26.971   3.328
37276W        W96372  16.764  30.000   4.707
37277W        W96373  42.432  25.697   1.344
37278W        W96374  38.548  16.700   0.848
37279W        W96375  37.560  32.617   0.895
37280W        W96376  14.197  15.704   1.362
37281W        W96377  44.990   0.747  11.986
37282W        W96378  18.139  28.514   1.788
37283W        W96379  43.896   9.328   0.801
37284W        W96380  29.608  41.360   5.149
37285W        W96381  26.085  22.502   3.836
37286W        W96382  17.165   5.208   3.251
37287W        W96383  37.944  39.387  14.333
37288W        W96384  31.551  12.682   2.268
37289W        W96385  20.237  21.093   5.140
37290W        W96386   7.793  12.824  13.889
37291W        W96387  18.221   3.831  14.435
37292W        W96388  25.592   5.368  11.408
37293W        W96389  22.143  19.079   4.599
37294W        W96390  42.926   9.315  11.019
37295W        W96391   4.837  19.562  14.476
37296W        W96392  35.884  32.407   0.765
37297W        W96393   2.412   9.757   0.467
37298W        W96394   3.254   7.816  10.979
37299W        W96395  34.065  23.988  12.983
37300W        W96396  43.486  34.519   1.908
37301W        W96397  34.110  31.427   3.826
37302W        W96398  13.762  30.001  10.078
37303W        W96399  18.111  29.439   4.154
37304W        W96400  32.891   7.386   2.270
37305W        W96401  29.042  35.598  14.493
37306W        W96402  15.239  19.568   4.601
37307W        W96403  40.332   0.304   2.791
37308W        W96404   0.918  17.782  12.558
37309W        W96405  29.959   4.351   4.714
37310W        W96406  36.506  35.585  12.982
37311W        W96407  42.390   5.328  13.988
37312W        W96408   0.386  34.033  10.941
37313W        W96409  41.412  17.263   5.245
37314W        W96410   9.224  19.194   4.269
37315W        W96411  27.988  37.510   1.321
37316W        W96412  27.148  12.642   2.414
37317W        W96413  16.704  37.922  12.078
37318W        W96414   7.338  32.005   0.438
37319W        W96415  37.396  37.068   1.449
37320W        W96416  22.026  31.959  13.334
37321W        W96417  34.929  29.094   3.797
37322W        W96418  28.552  17.662   1.411
37323W        W96419  31.097  22.093  14.399
37324W        W96420  12.254  29.655   3.239
37325W        W96421   0.277  27.972   0.812
37326W        W96422  26.132  31.589   4.769
37327W        W96423  37.480  15.242   4.768
37328W        W96424  31.641  27.121  13.329
37329W        W96425  34.025  41.953   3.711
37330W        W96426  27.944  43.924   1.919
37331W        W96427  14.751  38.341  11.960
37332W        W96428  31.423  43.859  11.504
37333W        W96429  30.049  16.697  12.977
37334W        W96430  43.425  33.598  14.991
37335W        W96431  21.755  22.059  13.529
37336W        W96432  34.957  26.642   1.392
37337W        W96433   0.855  44.375  11.060
37338W        W96434  13.771  13.617   0.284
37339W        W96435  14.678  24.122  11.482
37340W        W96436  12.340   1.824  12.880
37341W        W96437  10.189   0.463  14.764
37342W        W96438  21.619  33.931  11.882
37343W        W96439   0.327  31.062  12.573
37344W        W96440  15.292  21.558   2.329
37345W        W96441  40.325  11.248  10.011
37346W        W96442  29.526  38.500  13.483
37347W        W96443  20.721  29.451  13.439
37348W        W96444  35.047  37.427  11.529
37349W        W96445  21.685  29.462   0.729
37350W        W96446   7.732   7.906   4.351
37351W        W96447   8.714   0.461   2.901
37352W        W96448  24.641  22.588  14.507
37353W        W96449   3.867  37.417   2.800
37354W        W96450   7.773  17.157   5.221
37355W        W96451  37.419  44.395   2.232
37356W        W96452  37.387  42.918  13.031
37357W        W96453  35.078  38.019  11.402
37358W        W96454  15.690   3.411  11.406
37359W        W96455   2.442  12.134   2.878
37360W        W96456  27.003   6.240   1.808
37361W        W96457   6.762  22.557   3.293
37362W        W96458  24.174  32.940  10.552
37363W        W96459  10.146  37.078  14.315
37364W        W96460  23.557  15.821  11.546
37365W        W96461  37.904  25.619   2.235
37366W        W96462  38.973  37.377   1.746
37367W        W96463  34.026  11.653  14.785
37368W        W96464  14.179  25.609   2.789
37369W        W96465  36.970  21.230  10.417
37370W        W96466  40.390  22.605  11.513
37371W        W96467   4.241  38.571  14.277
37372W        W96468  22.245   7.735  13.507
37373W        W96469  31.608  12.185   0.880
37374W        W96470  32.914   1.418  14.947
37375W        W96471  26.060  35.506   0.424
37376W        W96472   7.862  13.186  13.878
37377W        W96473  15.234  40.388   4.666
37378W        W96474  12.180  33.446   4.288
37379W        W96475   2.935   4.943   3.770
37380W        W96476  10.333   7.793  10.949
37381W        W96477  19.651  29.627   3.812
37382W        W96478   4.429  18.140  12.060
37383W        W96479  28.627   4.705   2.404
37384W        W96480  42.833   3.936  13.856
37385W        W96481   1.894  21.088  11.518
37386W        W96482  32.414  35.473   3.779
37387W        W96483  10.799   7.812   4.348
37388W        W96484  31.463   9.368  12.863
37389W        W96485  10.253  43.926   0.914
37390W        W96486  31.085  14.260  11.926
37391W        W96487  33.946  41.515   4.230
37392W        W96488   3.735  34.400   0.480
37393W        W96489  16.094  42.931   1.744
37394W        W96490  40.304  38.037  11.945
37395W        W96491   1.409  30.597   3.303
37396W        W96492  39.448   6.757   0.279
37397W        W96493  18.671  34.375  13.974
37398W        W96494  12.781  15.123   9.627
37399W        W96495  30.528  21.677  14.857
37400W        W96496  38.905   9.880   0.443
37401W        W96497  14.774  40.453  13.887
37402W        W96498  29.434  35.025  11.928
37403W        W96499  16.571  28.941  10.442
37404W        W96500  16.226  43.993   4.322
37405W        W96501   1.363  18.580   3.638
37406W        W96502  33.086  23.989   1.238
37407W        W96503  15.758   1.400  13.859
37408W        W96504   9.863  30.041   0.857
37409W        W96505   5.254  43.318   2.300
37410W        W96506  12.852  44.476   3.695
37411W        W96507  28.499  19.242  14.965
37412W        W96508   4.803   2.944   3.219
37413W        W96509   2.736  43.968   2.673
37414W        W96510  23.234   0.752  11.592
37415W        W96511  19.738  24.680  10.902
37416W        W96512  19.768  42.944   2.799
37417W        W96513  17.064  16.812   0.807
37418W        W96514   8.875  18.236   3.863
37419W        W96515  39.924   0.301  10.629
37420W        W96516  37.871  15.719  14.442
37421W        W96517  15.096  42.334   1.389
37422W        W96518  15.696  29.596  11.095
37423W        W96519  28.124  28.473   4.153
37424W        W96520  14.136  35.411  13.381
37425W        W96521  13.306   7.889  13.881
37426W        W96522  34.385  26.632   0.909
37427W        W96523   8.277  32.399  14.370
37428W        W96524  38.956   6.872  12.844
37429W        W96525   6.199  23.008  14.016
37430W        W96526  18.159  19.230  11.570
37431W        W96527  39.374  31.931  10.969
37432W        W96528  23.145  18.548   4.225
37433W        W96529   1.765  44.461   3.669
37434W        W96530   2.472   2.961  11.553
37435W        W96531  37.039  17.277   4.673
37436W        W96532  18.159   1.778  10.931
37437W        W96533  37.360  35.080   2.860
37438W        W96534  39.405   1.891  14.771
37439W        W96535  35.384   7.222   1.432
37440W        W96536  35.585  41.300  13.405
37441W        W96537  44.820   4.909  12.500
37442W        W96538  23.990   2.794   1.410
37443W        W96539  24.498  29.650   1.333
37444W        W96540  23.537   1.963   3.270
37445W        W96541  29.918   8.891   1.238
37446W        W96542  39.447  38.482   2.395
37447W        W96543  41.502  16.634   4.337
37448W        W96544  42.430  28.057   4.233
37449W        W96545  26.482  15.644  11.572
37450W        W96546  39.880  22.189   3.386
37451W        W96547  18.706  13.277  13.904
37452W        W96548  24.127  28.569   1.728
37453W        W96549   1.976   8.170   3.212
37454W        W96550   3.389  22.154   3.680
37455W        W96551  21.164   2.389   2.879
37456W        W96552  27.972  39.413   4.609
37457W        W96553  21.753  10.833   4.255
37458W        W96554   4.403  43.991   0.776
37459W        W96555   0.798   7.853   0.826
37460W        W96556  35.578  43.343  13.391
37461W        W96557   6.875  32.474  14.944
37462W        W96558  12.703   7.788  11.076
37463W        W96559  33.898  17.661   0.960
37464W        W96560  35.877  37.372  10.419
37465W        W96561  15.113   3.449   0.360
37466W        W96562  23.689  34.461  11.468
37467W        W96563  12.362   3.760  12.993
37468W        W96564  12.181  37.474   0.459
37469W        W96565  22.050  25.505   1.792
37470W        W96566  41.026  29.104   3.281
37471W        W96567  12.188  39.376   2.672
37472W        W96568   7.198  20.253  14.959
37473W        W96569  10.142  40.910  14.997
37474W        W96570  42.441  22.228  12.870
37475W        W96571  17.277  13.830  13.818
37476W        W96572  36.884  23.137   0.874
37477W        W96573  16.743  12.157  11.107
37478W        W96574  37.888  20.235   3.731
37479W        W96575  18.088  43.350   0.963
37480W        W96576   2.319   8.196  14.939
37481W        W96577  13.789  37.968   4.348
37482W        W96578   9.301  34.882  10.091
37483W        W96579  17.571  11.323   4.133
37484W        W96580   6.214  42.513   4.288
37485W        W96581   4.709   4.908  13.408
37486W        W96582  30.544   6.723   2.834
37487W        W96583  29.105   5.774   0.804
37488W        W96584  35.423   0.420   1.315
37489W        W96585  33.543  28.980  10.936
37490W        W96586  22.121  38.949  11.503
37491W        W96587   1.976  37.964  11.507
37492W        W96588   2.759   5.392   2.348
37493W        W96589  26.656  18.598   4.753
37494W        W96590  21.551   2.932  13.449
37495W        W96591  40.479   4.315   3.693
37496W        W96592   5.762  12.828  13.870
37497W        W96593  41.806  12.188   2.697
37498W        W96594  12.765   2.239  14.762
37499W        W96595  32.093  41.870   3.216
37500W        W96596  26.497  17.568   2.753
37501W        W96597  14.133   5.377   0.335
37502W        W96598  14.694  17.116  14.838
37503W        W96599   0.972   8.271  13.531
37504W        W96600  14.654  34.103   2.867
37505W        W96601  32.101  40.498   3.655
37506W        W96602  19.772  27.605   1.386
37507W        W96603   6.294  14.773   2.782
37508W        W96604  12.341  14.820   2.354
37509W        W96605   4.789  41.425  12.090
37510W        W96606   4.921  28.144  13.017
37511W        W96607  35.046  29.669  11.591
37512W        W96608   3.728  20.551   3.767
37513W        W96609  20.569  41.898   2.699
37514W        W96610  32.952  20.219   1.246
37515W        W96611   1.436  13.796  11.101
37516W        W96612  38.889  15.718   2.795
37517W        W96613  28.522  11.216   4.822
37518W        W96614  42.323  40.035  14.874
37519W        W96615  30.019  27.124  11.097
37520W        W96616  39.345  27.032  11.041
37521W        W96617  35.032   5.901  12.470
37522W        W96618  20.159  39.934  12.547
37523W        W96619   5.696  19.215   3.870
37524W        W96620  24.678  17.752   1.405
37525W        W96621  31.046  28.455  13.867
37526W        W96622  15.165   5.729   3.838
37527W        W96623  18.690  41.524   3.374
37528W        W96624  43.949  22.507   1.385
37529W        W96625  37.032  42.887   0.360
37530W        W96626  29.477  12.265  12.962
37531W        W96627  34.377   8.279  12.094
37532W        W96628  32.952  35.949  11.114
37533W        W96629  33.407  16.291  12.051
37534W        W96630  40.368  44.839   0.340
37535W        W96631   8.207  15.823   9.465
37536W        W96632  36.889   3.247   2.887
37537W        W96633  15.803  19.185   3.319
37538W        W96634  43.856  22.209   3.149
37539W        W96635  33.024  31.423  14.838
37540W        W96636  22.691  24.719  13.915
37541W        W96637  37.367  37.848   1.371
37542W        W96638  39.370  21.251  10.554
37543W        W96639  10.201  38.962  13.495
37544W        W96640   1.274   0.864  13.339
37545W        W96641  43.998  42.284   4.748
37546W        W96642  35.981  11.139  13.821
37547W        W96643  22.135  28.601  14.309
37548W        W96644   3.886  24.189   1.352
37549W        W96645  18.224  38.456   0.776
37550W        W96646  25.131  17.634  10.619
37551W        W96647  21.643  19.581   1.333
37552W        W96648  12.705  24.211   1.343
37553W        W96649   1.947  29.919  14.967
37554W        W96650  40.931  39.337  12.397
37555W        W96651  31.548   9.272  13.906
37556W        W96652   5.825  23.522   3.221
37557W        W96653  41.486  37.009  14.862
37558W        W96654  22.576  33.534   3.329
37559W        W96655  29.101  19.107   3.821
37560W        W96656  39.438  23.607  10.469
37561W        W96657  32.952   3.371   0.437
37562W        W96658  17.244  34.481   4.716
37563W        W96659  10.258  38.365  10.896
37564W        W96660  34.549  22.739   4.289
37565W        W96661  39.391  23.036  14.482
37566W        W96662   0.412  17.727  11.389
37567W        W96663  27.118  20.201  14.380
37568W        W96664  41.423  42.377   3.819
37569W        W96665  28.110  42.844   2.821
37570W        W96666   5.809   8.697  13.420
37571W        W96667  35.974  33.100   1.866
37572W        W96668  33.579  36.862   2.370
37573W        W96669  20.554  27.512  13.794
37574W        W96670  44.784   0.425   0.944
37575W        W96671  19.117   9.702   2.698
37576W        W96672  10.801  34.490  12.058
37577W        W96673   2.386  38.011  14.783
37578W        W96674  32.907   9.644  14.435
37579W        W96675  37.839   7.297  10.469
37580W        W96676  34.410   9.246   5.602
37581W        W96677  42.520  24.585  10.412
37582W        W96678  43.272  41.950   4.347
37583W        W96679  13.724  13.188  13.041
37584W        W96680  33.507   4.273   1.393
37585W        W96681  21.122  44.498   3.205
37586W        W96682  11.162   0.810  10.959
37587W        W96683  11.362   4.368  10.984
37588W        W96684   9.789  35.970  11.869
37589W        W96685   3.461  35.905   2.299
37590W        W96686  16.227  33.509   1.784
37591W        W96687   2.736  28.941  13.405
37592W        W96688  28.050  38.045   5.214
37593W        W96689  17.733  32.610   4.764
37594W        W96690  36.408  23.505  12.412
37595W        W96691   2.305  26.184   3.209
37596W        W96692  23.606  11.173  10.529
37597W        W96693  40.957  29.036  14.313
37598W        W96694  38.385  26.501  11.073
37599W        W96695   0.894  22.582  14.837
37600W        W96696   3.251  39.880  10.608
37601W        W96697   3.372   3.347  10.623
37602W        W96698   7.753   4.758   0.952
37603W        W96699  31.902   1.779   0.840
37604W        W96700  11.795  14.622  11.438
37605W        W96701  17.636  41.442  10.542
37606W        W96702  39.933   6.715  13.864
37607W        W96703   6.820  10.249   2.886
37608W        W96704  26.181  27.625  11.475
37609W        W96705  35.549  21.077  10.595
37610W        W96706  21.183  26.489   0.305
37611W        W96707  17.124  20.570   2.357
37612W        W96708  36.461  12.733   4.292
37613W        W96709  44.914  40.543  12.886
37614W        W96710  16.150  28.502  11.060
37615W        W96711  17.084   4.906   9.973
37616W        W96712  26.596  20.269  14.002
37617W        W96713  19.154  17.609  14.918
37618W        W96714  16.177  25.693  10.970
37619W        W96715   1.405  11.210  11.380
37620W        W96716  27.453   0.490   0.954
37621W        W96717  28.509  24.119  12.380
37622W        W96718   3.920  38.827  13.860
37623W        W96719  15.664   5.201   0.242
37624W        W96720  30.612  36.449   4.139
37625W        W96721   6.203   4.873  14.985
37626W        W96722  35.960  19.690  12.840
37627W        W96723  36.590   4.268   0.871
37628W        W96724  34.427   7.900   1.246
37629W        W96725  42.297  32.428  13.484
37630W        W96726  40.511   5.894   1.413
37631W        W96727  32.909  20.761  14.825
37632W        W96728  29.425   9.293   3.864
37633W        W96729   4.349  19.620  13.794
37634W        W96730  18.608  17.249   3.375
37635W        W96731  19.569  36.477   0.900
37636W        W96732  43.384  17.179  13.363
37637W        W96733  13.199   9.859  11.960
37638W        W96734  40.829   4.410  12.896
37639W        W96735   0.964  14.732   1.227
37640W        W96736  36.048  26.602  14.516
37641W        W96737  10.289  27.147   3.839
37642W        W96738  26.563  39.372   2.226
37643W        W96739   7.889  19.241  12.527
37644W        W96740  33.554   8.292   3.862
37645W        W96741  25.712  36.452   3.377
37646W        W96742  38.532  43.465  11.593
37647W        W96743  36.448   1.395   4.826
37648W        W96744  26.685  25.600  13.446
37649W        W96745  23.134   0.358   1.434
37650W        W96746  31.547  19.575   0.330
37651W        W96747  23.605  43.848  12.341
37652W        W96748   4.903  40.509  12.381
37653W        W96749  26.008  39.347   1.270
37654W        W96750  31.089  38.428  14.842
37655W        W96751  35.050   0.385  11.483
37656W        W96752  21.655  42.776  14.395
37657W        W96753  18.584   4.297   3.713
37658W        W96754  18.237  15.775  14.829
37659W        W96755  38.932   1.254   2.298
37660W        W96756  13.298  19.644  10.137
37661W        W96757   8.717   8.699   3.869
37662W        W96758   4.434   0.319  12.079
37663W        W96759  14.779  16.726   2.304
37664W        W96760   3.392  37.389  12.341
37665W        W96761   5.789   3.806  14.987
37666W        W96762   0.344  14.722  14.947
37667W        W96763  16.091   7.294   3.836
37668W        W96764  34.053  18.740   2.289
37669W        W96765  10.237  23.494   2.678
37670W        W96766  29.925  30.515  14.279
37671W        W96767   5.877  30.430  11.410
37672W        W96768  38.469  11.259  11.866
37673W        W96769   4.300  38.347   2.413
37674W        W96770  23.670  14.830   0.918
37675W        W96771  27.567  12.182  10.889
37676W        W96772  38.545   5.742   3.642
37677W        W96773   7.779  43.769   1.769
37678W        W96774  16.664  40.384   3.286
37679W        W96775   9.207  24.126   4.196
37680W        W96776  37.549  17.622  10.070
37681W        W96777  26.207  23.029  12.923
37682W        W96778  32.902  13.694  14.807
37683W        W96779  19.622  30.918   3.864
37684W        W96780  27.177  29.432  13.794
37685W        W96781  22.654   1.285   0.937
37686W        W96782   8.839  14.656   3.714
37687W        W96783  28.606  35.372   3.680
37688W        W96784   2.884  34.444  12.476
37689W        W96785  14.795  33.566  11.104
37690W        W96786  30.535  27.502   0.343
37691W        W96787  22.668  35.458   0.303
37692W        W96788  44.930   1.410   0.851
37693W        W96789   9.306   7.295  13.844
37694W        W96790  10.809  19.572   3.668
37695W        W96791  15.635  29.992  12.434
37696W        W96792  32.046  17.122   4.697
37697W        W96793  32.964  27.621  12.420
37698W        W96794  42.941   4.787  13.513
37699W        W96795  43.405  16.110  12.974
37700W        W96796  18.727  30.659   2.195
37701W        W96797  41.794  44.972   3.860
37702W        W96798  22.654  32.142  12.054
37703W        W96799   5.357  14.223   4.158
37704W        W96800  31.533  35.012  12.086
37705W        W96801   7.699  16.639   4.785
37706W        W96802   1.377  24.211  10.944
37707W        W96803  38.359   5.311  10.502
37708W        W96804  18.760  18.548   0.814
37709W        W96805   0.918  25.121   1.725
37710W        W96806  20.183  24.486  14.462
37711W        W96807  29.063  23.202  12.386
37712W        W96808   4.802  11.166   1.448
37713W        W96809   4.330  18.617  12.463
37714W        W96810  13.317  30.970  14.490
37715W        W96811  17.229  21.756   4.293
37716W        W96812  27.541  40.392  10.632
37717W        W96813  12.307  25.997  13.866
37718W        W96814  30.566  12.777   0.286
37719W        W96815  30.988  16.635  12.964
37720W        W96816  44.808  17.127   4.758
37721W        W96817  25.583  17.262   5.194
37722W        W96818  33.473  28.611  10.640
37723W        W96819  29.086   8.711  13.360
37724W        W96820  34.609  13.157  14.411
37725W        W96821   5.222   0.335   2.815
37726W        W96822  31.089  26.151   0.454
37727W        W96823  27.654  15.102   1.820
37728W        W96824  41.448   3.863   4.740
37729W        W96825  42.937  18.261   3.291
37730W        W96826  13.741  13.831   4.827
37731W        W96827  35.097  43.361  11.124
37732W        W96828  13.671  33.064  11.418
37733W        W96829  38.902   1.299  10.932
37734W        W96830  35.026  13.723  10.478
37735W        W96831   7.903  33.451   0.774
37736W        W96832  13.231  17.280  13.426
37737W        W96833   5.388  28.464   4.305
37738W        W96834   7.728  37.428   4.180
37739W        W96835  24.626  15.647   3.794
37740W        W96836  24.653   0.433  11.997
37741W        W96837  19.102  36.858   2.881
37742W        W96838  40.384  42.964   2.669
37743W        W96839  41.439   1.924   1.415
37744W        W96840  14.190   3.726   0.784
37745W        W96841  10.324   6.273   4.674
37746W        W96842   7.702  12.855  11.939
37747W        W96843   4.723  29.458  14.402
37748W        W96844  41.794  39.000  13.392
37749W        W96845  24.550  39.817  14.990
37750W        W96846   5.692   7.677  11.982
37751W        W96847  10.743  12.838   0.276
37752W        W96848  44.421   7.394  10.406
37753W        W96849  39.911  34.564   3.816
37754W        W96850  18.554  35.451   1.287
37755W        W96851  35.592  32.545   2.363
37756W        W96852   5.902  16.223  14.456
37757W        W96853  30.640  23.998   3.179
37758W        W96854  40.888  42.904  14.329
37759W        W96855  11.852  36.934  14.948
37760W        W96856  11.707  36.085   4.740
37761W        W96857  11.277  32.971   3.721
37762W        W96858   9.661  43.845   0.250
37763W        W96859  16.638  11.222   1.724
37764W        W96860  38.386  20.723   2.731
37765W        W96861  39.014  21.513   1.397
37766W        W96862  13.701  34.120  12.887
37767W        W96863  34.450  17.779   1.351
37768W        W96864  33.473  33.983  13.966
37769W        W96865  31.501  23.082  14.877
37770W        W96866   5.371  23.610  11.588
37771W        W96867  17.558  41.351  13.533
37772W        W96868   2.425   4.354  14.292
37773W        W96869   8.807  44.283   2.279
37774W        W96870  41.407  41.299   2.201
37775W        W96871   0.759  34.071  14.368
37776W        W96872  35.037  37.464  10.608
37777W        W96873  12.264  24.589  14.430
37778W        W96874  41.846  30.919  10.445
37779W        W96875  28.163  16.149   3.257
37780W        W96876  22.063   5.249  13.449
37781W        W96877  31.108  14.732   0.964
37782W        W96878  17.759  34.598  10.126
37783W        W96879   1.795   3.777  14.899
37784W        W96880  42.992  16.638  10.518
37785W        W96881  22.032  44.942  14.802
37786W        W96882   7.889  34.439  13.519
37787W        W96883   3.919  26.973   3.773
37788W        W96884  12.241   1.963   4.258
37789W        W96885  34.888  41.893   1.385
37790W        W96886  23.153  22.508  13.041
37791W        W96887  27.568  33.998   4.765
37792W        W96888   6.266  15.792  10.888
37793W        W96889  24.486  41.387  13.827
37794W        W96890  42.984  31.645  13.332
37795W        W96891  36.909  28.147   2.304
37796W        W96892   0.846  32.053  12.058
37797W        W96893  37.423  30.569   5.144
37798W        W96894  27.012  32.988  14.443
37799W        W96895  44.780  15.266  10.944
37800W        W96896  41.352  18.600   3.859
37801W        W96897  41.961  38.820  14.864
37802W        W96898  36.367   3.417   3.811
37803W        W96899  40.322  23.599  14.275
37804W        W96900  16.105  23.159   4.755
37805W        W96901  14.185   8.202   1.265
37806W        W96902  29.577  25.033   1.241
37807W        W96903  14.131  27.994  11.500
37808W        W96904  35.461  27.942   1.246
37809W        W96905  30.427   7.232   1.402
37810W        W96906   0.339  36.063  13.862
37811W        W96907  34.983  44.871  11.379
37812W        W96908  23.218   2.300  13.044
37813W        W96909  37.020  33.877  11.937
37814W        W96910  30.923  17.596   3.775
37815W        W96911  31.469  30.440  11.609
37816W        W96912  17.152  13.264  14.956
37817W        W96913   6.677  24.712  11.901
37818W        W96914  37.403   1.319  11.909
37819W        W96915   8.171   9.193  11.078
37820W        W96916  23.563  22.621   4.340
37821W        W96917  14.113  13.790   1.266
37822W        W96918  20.235   7.323   0.963
37823W        W96919   2.780   0.942  12.080
37824W        W96920  44.919  34.533   2.797
37825W        W96921  33.881  30.027   2.257
37826W        W96922   6.764  24.536   2.221
37827W        W96923  22.157   6.337  10.635
37828W        W96924   4.917  32.510  13.834
37829W        W96925   7.414  11.190  13.816
37830W        W96926  43.327  30.561  12.403
37831W        W96927  41.447  43.783  11.116
37832W        W96928   0.270  31.003  10.561
37833W        W96929  12.798  19.103  13.062
37834W        W96930  14.703  26.458  12.826
37835W        W96931  44.301  44.988  11.591
37836W        W96932   8.728   0.280  14.837
37837W        W96933   8.766  18.756  10.469
37838W        W96934  30.019  20.204  13.919
37839W        W96935   4.395  29.086   2.879
37840W        W96936  28.623   5.323  13.803
37841W        W96937  40.509   5.357   2.356
37842W        W96938  16.741  17.697  12.564
37843W        W96939  36.068  39.838  12.516
37844W        W96940  11.744   6.923  12.461
37845W        W96941  16.762  28.447  14.029
37846W        W96942  15.102  13.696  12.513
37847W        W96943  38.903  11.778   1.815
37848W        W96944   5.743   7.326   2.187
37849W        W96945  18.144  23.221   0.796
37850W        W96946  38.914  12.753   2.782
37851W        W96947  40.047   3.713   1.701
37852W        W96948  40.036  31.424  12.997
37853W        W96949  17.167  26.051   3.237
37854W        W96950  34.577   0.890  13.791
37855W        W96951  40.457  35.002  14.813
37856W        W96952  43.971  37.404   1.226
37857W        W96953  20.747   2.344   2.381
37858W        W96954  34.605   5.283   2.359
37859W        W96955  13.730   0.931  12.028
37860W        W96956  38.869  28.944  13.972
37861W        W96957  26.113   1.783  12.937
37862W        W96958   0.438  44.282   0.475
37863W        W96959  28.979   1.784  11.958
37864W        W96960  24.101  10.779  10.080
37865W        W96961  30.942  43.961  13.494
37866W        W96962  41.377  13.252  13.050
37867W        W96963  33.069  36.462   1.243
37868W        W96964   7.883  40.807  13.475
37869W        W96965  21.084  43.964   1.401
37870W        W96966  43.902  38.528   1.798
37871W        W96967  44.315   8.876   2.300
37872W        W96968   9.211  27.636  10.417
37873W        W96969   3.413  44.300  11.924
37874W        W96970  18.107   7.732  14.856
37875W        W96971  41.379   2.419   1.379
37876W        W96972  29.482  23.115   0.857
37877W        W96973  14.176  42.852   3.636
37878W        W96974   5.279  26.952   3.272
37879W        W96975  21.246  29.095   4.194
37880W        W96976  33.131  24.588  13.340
37881W        W96977  23.044  43.931  10.463
37882W        W96978  15.658   7.876  13.797
37883W        W96979  22.074   8.383   5.191
37884W        W96980  23.056  14.174  14.312
37885W        W96981  17.152  23.087   1.233
37886W        W96982  10.223  15.300  13.885
37887W        W96983   2.790   1.918  12.413
37888W        W96984  24.095  38.417  13.529
37889W        W96985  29.106  43.812   2.775
37890W        W96986  36.072  18.776   3.302
37891W        W96987   2.760  20.753   3.173
37892W        W96988   7.834  13.253  11.601
37893W        W96989  39.813  20.761  11.450
37894W        W96990   1.812   5.725  12.094
37895W        W96991  27.633  36.532  14.488
37896W        W96992  13.690   0.339  14.335
37897W        W96993  35.410  39.505   3.810
37898W        W96994   0.323  43.338   0.375
37899W        W96995  30.603  36.846   2.877
37900W        W96996  44.942  35.016   0.788
37901W        W96997  11.834  42.813  14.877
37902W        W96998  29.107   8.687   5.102
37903W        W96999  19.720  39.540  11.919
37904W        W97000  30.549  18.680   0.367
37905W        W97001  21.101  25.669  13.827
37906W        W97002   2.427  10.234  13.453
37907W        W97003  23.109   7.814   3.682
37908W        W97004  12.288  26.105  14.814
37909W        W97005  25.495  29.615   4.318
37910W        W97006  39.406  35.992  12.882
37911W        W97007   4.834  29.985   2.789
37912W        W97008   5.394   7.808  10.635
37913W        W97009  19.250  14.315   2.801
37914W        W97010   2.328   9.854   4.318
37915W        W97011   3.244   7.304   0.472
37916W        W97012   0.416  43.375   3.726
37917W        W97013   7.705  11.720   2.275
37918W        W97014  25.480   1.946  14.877
37919W        W97015   8.822  38.464   4.148
37920W        W97016  16.782  35.375   0.397
37921W        W97017   6.743   5.291   1.210
37922W        W97018  34.390  25.043  12.382
37923W        W97019   9.192  11.162   3.227
37924W        W97020  43.388  13.798   2.695
37925W        W97021  18.176   9.242   3.771
37926W        W97022   6.252  14.614  12.505
37927W        W97023  20.726  33.415  11.991
37928W        W97024   6.881  12.228   1.235
37929W        W97025  20.036   5.364  13.381
37930W        W97026  36.982  24.131   0.910
37931W        W97027  16.134  12.729   4.835
37932W        W97028  36.513   6.862   4.136
37933W        W97029  37.351  25.481  11.610
37934W        W97030  30.945  30.909  14.406
37935W        W97031  10.271  24.479  12.549
37936W        W97032  38.324  33.570   1.306
37937W        W97033  37.525  35.404  14.996
37938W        W97034  20.586  19.260  13.389
37939W        W97035  10.688  25.580  14.850
37940W        W97036  37.538  24.603  14.342
37941W        W97037  20.038  33.476   0.762
37942W        W97038  37.022  44.948   0.253
37943W        W97039  39.006  37.563   3.816
37944W        W97040  11.676   7.194  12.464
37945W        W97041  13.140  27.542   0.437
37946W        W97042  36.896  12.238   1.764
37947W        W97043  19.057  18.619   1.799
37948W        W97044  15.723  41.429   3.834
37949W        W97045  18.295  41.496  13.488
37950W        W97046  27.976   2.440  13.809
37951W        W97047   6.255   0.298  11.099
37952W        W97048  44.803  11.865  13.376
37953W        W97049  40.848   6.298  10.929
37954W        W97050  38.471  30.968  13.943
37955W        W97051  11.672  27.666   9.649
37956W        W97052  23.687  40.436   2.297
37957W        W97053  27.140  24.686   0.771
37958W        W97054  38.563  44.759   0.441
37959W        W97055  22.639  15.146  10.497
37960W        W97056  20.548  31.446   0.435
37961W        W97057  13.273  36.442   3.690
37962W        W97058   8.726   7.208  14.503
37963W        W97059  13.807  13.677   1.370
37964W        W97060  13.109  20.766  12.892
37965W        W97061  22.136  11.311   3.768
37966W        W97062  32.602   0.843  10.951
37967W        W97063  25.152  35.558  11.981
37968W        W97064  24.586  24.043   3.293
37969W        W97065  33.607  18.127   4.219
37970W        W97066   2.796  16.221   0.763
37971W        W97067  41.506  44.472  13.835
37972W        W97068  16.653  27.162  10.496
37973W        W97069   3.844  37.883  14.910
37974W        W97070  31.444  40.305  11.997
37975W        W97071  37.052  16.760  12.860
37976W        W97072  28.024   7.754  10.513
37977W        W97073   3.804   2.762   3.327
37978W        W97074  36.420  37.993  14.319
37979W        W97075  14.096  13.229   2.339
37980W        W97076  32.078  28.170   3.276
37981W        W97077  22.618   7.356   1.445
37982W        W97078   2.396  19.202   0.744
37983W        W97079   8.318  26.622   4.127
37984W        W97080  13.690  11.799  12.512
37985W        W97081  29.049   8.273   2.397
37986W        W97082  23.541   4.939   1.857
37987W        W97083   5.760  41.483  13.837
37988W        W97084  25.094  13.214  10.433
37989W        W97085  21.723  16.147  14.814
37990W        W97086  39.061  21.042   1.386
37991W        W97087   5.375  42.441   4.766
37992W        W97088  19.275  38.374   3.339
37993W        W97089   0.751  34.027   3.640
37994W        W97090   6.301  29.655   4.279
37995W        W97091  23.158  27.474   0.278
37996W        W97092  29.661  21.027  10.504
37997W        W97093   5.816   7.849  13.427
37998W        W97094   8.785  30.044  10.493
37999W        W97095  37.866   8.201  12.436
38000W        W97096   8.215  13.164  11.023
38001W        W97097  26.469  13.248   1.838
38002W        W97098  27.167   8.258   0.331
38003W        W97099  12.723  36.511   2.415
38004W        W97100  12.344  34.864  12.907
38005W        W97101  14.255  16.304   4.722
38006W        W97102  32.910  31.129  10.463
38007W        W97103   1.371  28.669  11.428
38008W        W97104   2.323  28.181   1.434
38009W        W97105  10.712   9.157  14.403
38010W        W97106   9.206  10.148  11.978
38011W        W97107  18.576  34.562  10.969
38012W        W97108  34.468  20.135   3.744
38013W        W97109  37.831  26.627   4.831
38014W        W97110  15.626  19.282  13.965
38015W        W97111  20.194  19.237  11.401
38016W        W97112  25.993  23.503   1.374
38017W        W97113  36.903  44.405   1.298
38018W        W97114  13.330  12.279   0.913
38019W        W97115   0.979  15.734  14.462
38020W        W97116   3.926  28.135  12.405
38021W        W97117  39.483   0.256  11.040
38022W        W97118  27.624  21.064   3.792
38023W        W97119  18.553  27.536  13.058
38024W        W97120  30.624  27.635   1.799
38025W        W97121  43.317  39.944  13.020
38026W        W97122  43.001  39.975  13.921
38027W        W97123   3.425  37.381  13.505
38028W        W97124  42.000  41.419   4.167
38029W        W97125  14.291  36.541   5.642
38030W        W97126  14.742  41.355  12.495
38031W        W97127   1.355   3.739  14.928
38032W        W97128  42.437  10.255   3.156
38033W        W97129  43.922  34.611  14.976
38034W        W97130  39.323  12.208   1.881
38035W        W97131  14.787  36.478   0.908
38036W        W97132  33.545  34.423   4.794
38037W        W97133   6.757  18.742   4.184
38038W        W97134  15.590  41.440  13.006
38039W        W97135  16.760  31.488   2.254
38040W        W97136  42.478  26.045   1.438
38041W        W97137  29.492  42.824  11.048
38042W        W97138  35.044   1.798  14.868
38043W        W97139  42.489  38.565   1.740
38044W        W97140  31.116  29.953   4.793
38045W        W97141  40.900   5.835  11.519
38046W        W97142  24.602  29.086  14.508
38047W        W97143  34.611  35.489   2.286
38048W        W97144  39.493  17.621  13.356
38049W        W97145   1.432  31.963   0.458
38050W        W97146  13.206  26.476   0.389
38051W        W97147  11.787  19.150  10.582
38052W        W97148   1.246  39.942  13.329
38053W        W97149  12.659  13.349   2.725
38054W        W97150   8.348  32.028   4.228
38055W        W97151  43.792  13.186   2.303
38056W        W97152  10.314  39.826   0.412
38057W        W97153  34.090  43.460  14.398
38058W        W97154  22.617   0.896   3.208
38059W        W97155  41.970  41.339  11.463
38060W        W97156  17.141   1.799   2.722
38061W        W97157   9.763  23.507  11.574
38062W        W97158  25.061  34.998   1.336
38063W        W97159  28.665  27.573   4.208
38064W        W97160  39.465  19.253  10.555
38065W        W97161  14.146  44.002  11.050
38066W        W97162  41.527  29.986  13.394
38067W        W97163  39.474   2.795   4.187
38068W        W97164  40.904  38.878   2.859
38069W        W97165   0.343   3.712   4.625
38070W        W97166  32.984  35.583  12.936
38071W        W97167   2.432  19.545   2.352
38072W        W97168  43.334  18.593  10.409
38073W        W97169  38.998  32.957   2.854
38074W        W97170   0.364  21.042   9.952
38075W        W97171  20.752  22.199   4.648
38076W        W97172  10.138   7.403   5.108
38077W        W97173   3.716  19.588   3.383
38078W        W97174  11.218  26.589   4.313
38079W        W97175   5.752  26.636   1.752
38080W        W97176  36.417  23.075  14.378
38081W        W97177  15.189   4.444   2.762
38082W        W97178  20.641   0.964  13.317
38083W        W97179  34.040  40.905  12.979
38084W        W97180  14.779  33.111  12.494
38085W        W97181  43.507  14.747   2.821
38086W        W97182  30.543   9.261  14.802
38087W        W97183  29.613  11.190  10.637
38088W        W97184   0.413  40.359   0.431
38089W        W97185  28.620  42.451  10.459
38090W        W97186  32.088  41.898  13.813
38091W        W97187  36.021   3.746   2.680
38092W        W97188  35.883  39.891  11.908
38093W        W97189  14.273  18.184  13.489
38094W        W97190  24.197   7.357   1.773
38095W        W97191  41.867  13.125  14.837
38096W        W97192  36.868   1.942   0.756
38097W        W97193  25.097  30.519  11.545
38098W        W97194  28.012  19.749   5.251
38099W        W97195  37.457  15.145  13.005
38100W        W97196  18.772  15.647   2.210
38101W        W97197  33.476  14.212  12.057
38102W        W97198  12.162  30.435  13.861
38103W        W97199  38.505   9.250  11.969
38104W        W97200  24.174  23.211   3.715
38105W        W97201  16.244  23.134  10.613
38106W        W97202   1.424  14.257  10.404
38107W        W97203  28.050  24.723  14.850
38108W        W97204  44.370   2.777   0.295
38109W        W97205  42.315  32.122  13.432
38110W        W97206  37.844  19.281  13.336
38111W        W97207  29.169  12.814  13.903
38112W        W97208  31.926  37.040  12.357
38113W        W97209  25.075   1.767   0.903
38114W        W97210  25.208  15.102   4.329
38115W        W97211   7.894  22.208   4.768
38116W        W97212   0.390  42.909   1.694
38117W        W97213  36.003  18.065  14.387
38118W        W97214  41.026  32.000  14.921
38119W        W97215  34.016  37.443  12.992
38120W        W97216   8.253  32.429  10.565
38121W        W97217  35.903  23.038   1.935
38122W        W97218  41.844  42.478   3.370
38123W        W97219  26.632  13.845  11.381
38124W        W97220  43.361  35.550   3.263
38125W        W97221  44.448   7.666   4.260
38126W        W97222   1.770   6.414  11.086
38127W        W97223  38.937  24.625  13.902
38128W        W97224  40.494  42.333  13.332
38129W        W97225  16.643  21.082   0.257
38130W        W97226  30.143  17.598  10.040
38131W        W97227  19.615  13.821   0.920
38132W        W97228  22.191  43.503   0.308
38133W        W97229   4.278  44.376  13.455
38134W        W97230  11.859  43.443  10.458
38135W        W97231  30.510  16.711   2.378
38136W        W97232  12.222  38.370  13.903
38137W        W97233  40.544  17.716  10.589
38138W        W97234  21.557   1.779   4.114
38139W        W97235  40.902  11.714   3.335
38140W        W97236  11.720   4.416  10.576
38141W        W97237  18.287  15.586   1.437
38142W        W97238   5.370  11.198   3.739
38143W        W97239  17.635  35.021  14.860
38144W        W97240  22.250  11.638   3.725
38145W        W97241  23.030  32.523   4.172
38146W        W97242  37.883  30.582   3.696
38147W        W97243  44.372   0.832  14.497
38148W        W97244  43.943  17.068   0.289
38149W        W97245   1.883  27.463   1.342
38150W        W97246  37.388  18.110   9.616
38151W        W97247  23.222  33.965   3.239
38152W        W97248  11.666  37.966  12.348
38153W        W97249  18.219   8.186  11.372
38154W        W97250  42.875  38.066   2.415
38155W        W97251  40.478  35.990   1.260
38156W        W97252  29.014  31.464  14.364
38157W        W97253  30.599  29.660   2.334
38158W        W97254  24.095  13.776  14.788
38159W        W97255  12.183  22.033  13.522
38160W        W97256  27.622   3.379   2.774
38161W        W97257  37.887   3.424  10.131
38162W        W97258  22.681  24.083   0.393
38163W        W97259  11.239  23.059   4.251
38164W        W97260  38.904  44.464   1.341
38165W        W97261  40.413  38.034  14.956
38166W        W97262  44.930   2.438   0.728
38167W        W97263  27.071   3.841   1.344
38168W        W97264   7.892  25.557   0.918
38169W        W97265  10.867   5.259   1.892
38170W        W97266  34.074  16.611   4.180
38171W        W97267  10.735  26.648   0.418
38172W        W97268   4.314  43.815   4.782
38173W        W97269   1.436  44.893   2.178
38174W        W97270  37.527  13.733   2.776
38175W        W97271  31.621   1.921   3.168
38176W        W97272  34.017  39.326  14.455
38177W        W97273   0.750  22.149   3.221
38178W        W97274  24.199   4.253  11.989
38179W        W97275  43.006  16.132   2.368
38180W        W97276   2.818  15.294   2.329
38181W        W97277  44.822  36.872  14.411
38182W        W97278  31.642   4.788  12.879
38183W        W97279  13.242  11.718   1.374
38184W        W97280  33.523  41.900   2.701
38185W        W97281  23.584  12.319  11.039
38186W        W97282  32.029   9.816   2.698
38187W        W97283  32.506   3.844   4.602
38188W        W97284  35.015  32.128   5.229
38189W        W97285  38.486   6.345   4.307
38190W        W97286  35.931  31.468   2.306
38191W        W97287  15.622  25.552  10.929
38192W        W97288  38.936  12.269   2.664
38193W        W97289   8.689  27.502   2.292
38194W        W97290   3.784  24.610  12.938
38195W        W97291  17.138  28.990  13.930
38196W        W97292  16.618  34.892   0.928
38197W        W97293  25.510  43.936   3.345
38198W        W97294  40.972   8.211   3.257
38199W        W97295   2.892  23.694   4.826
38200W        W97296  13.755   4.403  13.798
38201W        W97297   0.969  30.911  13.341
38202W        W97298  14.318  17.239  14.466
38203W        W97299  15.702  42.909   5.082
38204W        W97300  14.295  30.545   2.410
38205W        W97301  26.132  28.142  14.927
38206W        W97302  18.770  28.130   2.213
38207W        W97303   5.933   7.787  12.564
38208W        W97304  15.804   5.325  12.966
38209W        W97305  33.996  12.205   9.959
38210W        W97306   1.899  41.033   3.817
38211W        W97307  40.360   9.188  12.040
38212W        W97308  20.034   6.336  14.917
38213W        W97309   8.346   9.393   4.671
38214W        W97310  21.131  29.575   0.433
38215W        W97311  19.237  30.117  12.366
38216W        W97312  25.080  15.577  12.048
38217W        W97313  18.741   4.868   3.681
38218W        W97314  36.392   0.961   4.179
38219W        W97315  26.694  41.325  12.465
38220W        W97316  42.863  16.178   3.704
38221W        W97317  30.021  30.584   1.924
38222W        W97318  33.617  10.857   4.795
38223W        W97319  16.157  40.053  14.299
38224W        W97320  36.591  41.403   2.330
38225W        W97321  17.178  13.767   4.144
38226W        W97322  30.486  28.165  11.517
38227W        W97323  39.869  32.421   0.796
38228W        W97324  14.269  15.584  10.427
38229W        W97325   9.314  10.196   0.941
38230W        W97326  20.274  32.084  14.877
38231W        W97327  12.830   6.380  13.530
38232W        W97328  33.405  20.667  12.061
38233W        W97329   8.887  17.623  13.877
38234W        W97330  31.119  11.714  12.843
38235W        W97331  40.908  27.001  14.323
38236W        W97332  32.932  33.578   3.719
38237W        W97333  10.177  22.735  10.921
38238W        W97334  42.488  19.168  12.426
38239W        W97335  21.660   2.891   3.177
38240W        W97336   0.756  27.625  11.014
38241W        W97337  37.984  13.846  11.381
38242W        W97338  24.555  43.789   1.414
38243W        W97339  31.078  27.956   2.740
38244W        W97340  42.290  41.344   2.834
38245W        W97341  24.681  16.189  14.357
38246W        W97342  24.547  10.203   3.814
38247W        W97343  20.062  30.999   2.887
38248W        W97344  29.118   9.220   3.252
38249W        W97345   0.834   0.492   0.773
38250W        W97346  34.374   3.324   0.807
38251W        W97347  42.947  42.402  10.528
38252W        W97348  23.694  15.121   3.211
38253W        W97349  42.326  15.816   2.335
38254W        W97350  12.157  23.054  11.508
38255W        W97351  36.929  32.933  12.394
38256W        W97352  41.380  23.237   1.272
38257W        W97353  42.901  16.202   4.757
38258W        W97354   7.256  27.085   2.259
38259W        W97355  19.549  32.030   5.106
38260W        W97356   2.412  11.177   1.778
38261W        W97357  22.124  18.568   2.741
38262W        W97358  35.492  10.201   2.265
38263W        W97359   9.801  38.057   1.752
38264W        W97360  32.106   6.424  13.030
38265W        W97361  43.915  23.551   4.219
38266W        W97362  14.310  40.958   4.314
38267W        W97363   5.844  32.115  14.761
38268W        W97364  43.279  42.481  14.852
38269W        W97365   0.953   6.357   0.939
38270W        W97366  32.888  44.485   2.743
38271W        W97367  15.692  23.715  14.919
38272W        W97368  32.488  42.829   3.385
38273W        W97369  32.491  27.987  11.886
38274W        W97370  11.173  22.234   2.273
38275W        W97371  14.806  19.623  12.451
38276W        W97372   6.398  17.581   4.705
38277W        W97373   7.175  26.504   3.710
38278W        W97374  29.652  38.876   2.201
38279W        W97375  38.447   4.919   1.915
38280W        W97376   4.385  40.054   2.187
38281W        W97377  32.975   0.881   4.712
38282W        W97378  37.078  25.492  14.308
38283W        W97379   6.230  39.876   2.298
38284W        W97380  22.044  37.909   0.392
38285W        W97381  28.533  16.654   3.781
38286W        W97382  41.810   6.716   3.179
38287W        W97383  27.594  24.014  12.350
38288W        W97384  35.486   9.228  12.077
38289W        W97385  41.429  15.118  12.462
38290W        W97386  10.360   5.752  12.983
38291W        W97387   1.315  10.320  11.437
38292W        W97388  21.228  16.782  11.074
38293W        W97389  21.124  44.303   1.250
38294W        W97390  17.153   4.255   2.681
38295W        W97391  24.220  41.866  10.494
38296W        W97392  43.940  37.902  14.482
38297W        W97393  16.267  16.690   3.270
38298W        W97394  27.483  27.074   2.200
38299W        W97395   8.385   1.412   4.815
38300W        W97396  11.313  42.008  12.040
38301W        W97397  28.449  37.411  12.488
38302W        W97398   7.815  10.746   1.245
38303W        W97399  40.498   6.185   3.165
38304W        W97400  35.370  10.257  13.480
38305W        W97401   9.271  15.687  11.969
38306W        W97402   4.234   9.327   0.326
38307W        W97403  36.527  34.999   5.291
38308W        W97404   3.297  20.153  11.471
38309W        W97405  19.572  36.906  11.943
38310W        W97406  14.681   7.812  11.387
38311W        W97407  34.049   1.336  13.907
38312W        W97408  30.621  44.311   0.339
38313W        W97409  11.319  31.066   0.392
38314W        W97410  12.620  34.872  11.016
38315W        W97411  38.876  25.601  12.883
38316W        W97412  17.116  15.149   4.645
38317W        W97413  22.199  41.860  11.477
38318W        W97414  38.375   1.780  11.469
38319W        W97415  28.013   3.798  14.914
38320W        W97416  42.424   3.950   4.610
38321W        W97417   8.808  41.422   2.768
38322W        W97418  19.251  21.743   3.687
38323W        W97419   2.438   6.389  12.352
38324W        W97420  33.004   2.837   3.672
38325W        W97421  12.636  35.382  14.864
38326W        W97422  33.897  14.717  12.043
38327W        W97423  19.059   0.862   1.746
38328W        W97424   5.744  21.669  10.927
38329W        W97425  28.027  44.999   4.346
38330W        W97426  39.962  18.559   2.214
38331W        W97427  19.636   8.210  12.904
38332W        W97428  35.985  44.764  11.408
38333W        W97429  13.659   9.660  11.508
38334W        W97430  10.317  36.351  12.543
38335W        W97431   1.277  23.010   3.757
38336W        W97432  25.043  22.089   4.793
38337W        W97433   7.205   3.228  11.433
38338W        W97434   7.875  40.327   3.844
38339W        W97435  16.618  31.068   9.451
38340W        W97436   4.887  31.907  12.002
38341W        W97437  39.357  13.829  12.470
38342W        W97438  35.098   5.331   2.822
38343W        W97439  33.492  34.090  11.469
38344W        W97440  25.962  30.576   4.644
38345W        W97441  38.361  26.006   2.704
38346W        W97442   0.987   7.721   1.356
38347W        W97443  19.079  37.501   1.287
38348W        W97444  23.606  29.530  13.961
38349W        W97445  17.250  11.370  12.539
38350W        W97446  24.184   4.812   4.626
38351W        W97447  27.998  24.064  11.038
38352W        W97448  11.209  30.618  10.494
38353W        W97449  35.365  26.117   1.699
38354W        W97450  11.325  37.496   4.657
38355W        W97451  26.645   5.837   3.686
38356W        W97452  39.968  25.145  13.324
38357W        W97453  16.652  14.116  14.435
38358W        W97454  21.263   9.226   3.348
38359W        W97455   6.188  33.976  10.472
38360W        W97456  42.019  27.460   0.878
38361W        W97457  23.172  36.481  14.287
38362W        W97458   5.708  30.498   2.223
38363W        W97459   4.921   5.727   4.213
38364W        W97460   3.865  43.955   2.255
38365W        W97461  43.452   0.832   3.817
38366W        W97462  22.733   6.336  10.407
38367W        W97463  42.986  25.669  13.965
38368W        W97464  43.973  39.537  14.422
38369W        W97465  10.855  41.465  12.003
38370W        W97466   1.326  27.629   4.747
38371W        W97467  19.638   1.952  13.818
38372W        W97468   1.322   3.743   1.847
38373W        W97469  39.021   7.177   4.213
38374W        W97470  27.032  31.003  14.901
38375W        W97471  31.630   9.392  13.350
38376W        W97472  25.186  43.964  14.849
38377W        W97473  14.596   9.702   2.856
38378W        W97474  21.695  13.607  12.386
38379W        W97475  22.039   1.933   4.636
38380W        W97476  24.643  18.107   5.216
38381W        W97477  33.950  13.156  12.567
38382W        W97478  31.426   4.821   2.793
38383W        W97479   5.290  30.544  12.560
38384W        W97480  40.307   6.293  12.553
38385W        W97481  23.096   4.420  13.933
38386W        W97482  39.963  10.337  14.386
38387W        W97483  16.625  25.627   2.707
38388W        W97484  34.903  37.087  13.492
38389W        W97485  33.426  40.939   0.412
38390W        W97486  30.062  12.736  13.009
38391W        W97487  27.615  12.286   0.941
38392W        W97488  43.892  25.110  14.373
38393W        W97489   8.742  43.322  14.506
38394W        W97490   4.859  16.700  11.883
38395W        W97491  37.463  28.457  12.416
38396W        W97492   1.388  19.243  11.963
38397W        W97493  44.894  17.232  14.417
38398W        W97494  16.174  11.854   4.674
38399W        W97495   0.890  36.400  11.519
38400W        W97496  39.329  19.744   3.282
38401W        W97497  43.945  39.927   2.352
38402W        W97498  42.968  36.475  13.442
38403W        W97499  28.133  22.539  10.625
38404W        W97500   4.834   1.306  13.465
38405W        W97501  42.954  18.757   1.248
38406W        W97502   4.362  25.601   3.633
38407W        W97503  43.992  33.602  10.128
38408W        W97504   1.741  17.705   1.414
38409W        W97505  42.983  41.862  13.820
38410W        W97506  33.985  24.655   3.691
38411W        W97507   4.941   4.791   0.287
38412W        W97508  41.516  25.182  13.040
38413W        W97509  35.960  14.246  12.011
38414W        W97510  38.857   1.443   3.769
38415W        W97511  11.768   6.412  14.958
38416W        W97512  19.240   4.825   9.934
38417W        W97513  44.283   9.755  13.381
38418W        W97514  10.748   3.234   5.297
38419W        W97515  39.872  19.104  14.485
38420W        W97516   1.880   8.174  10.890
38421W        W97517  26.208  41.427  13.457
38422W        W97518  23.663  41.399   0.767
38423W        W97519   4.251  34.595   3.862
38424W        W97520  19.285  43.337   3.146
38425W        W97521  21.680  18.089   2.353
38426W        W97522  20.207  20.198  12.961
38427W        W97523  31.560  19.272   2.666
38428W        W97524  28.971  33.384  11.983
38429W        W97525  22.661   1.386   2.864
38430W        W97526  37.989   1.325   2.894
38431W        W97527  23.181  19.735   2.706
38432W        W97528  26.653   5.813   1.828
38433W        W97529  22.134  28.007  11.423
38434W        W97530  24.086  41.933  13.899
38435W        W97531  11.184   8.683   0.947
38436W        W97532  20.051  11.855   3.732
38437W        W97533   5.786   5.861   1.911
38438W        W97534   7.880  24.119   2.319
38439W        W97535  20.747  21.615   0.845
38440W        W97536  38.934  29.618  12.555
38441W        W97537  19.686  32.579   3.207
38442W        W97538  25.566  28.444  11.490
38443W        W97539  35.973  18.164   4.285
38444W        W97540  15.168  21.748  13.831
38445W        W97541  35.581  18.101  14.831
38446W        W97542  37.862  28.578   4.247
38447W        W97543   8.256  38.355   3.156
38448W        W97544  15.746  12.707  12.851
38449W        W97545  26.174   8.253   2.756
38450W        W97546   1.295   8.370   0.893
38451W        W97547  21.682  34.530   0.303
38452W        W97548   0.288  23.712  14.014
38453W        W97549  26.505  34.055  12.539
38454W        W97550   1.739   5.801   4.716
38455W        W97551   5.211  22.573  13.401
38456W        W97552  37.080  42.306  10.608
38457W        W97553  28.672  32.980   2.234
38458W        W97554  12.816  14.240  13.470
38459W        W97555  44.326  16.594   2.414
38460W        W97556   8.188  38.002  11.893
38461W        W97557  35.523  13.307  11.043
38462W        W97558  16.195  39.913   4.608
38463W        W97559  31.929  23.228  13.893
38464W        W97560  44.894  23.670  10.602
38465W        W97561  17.120  25.660  14.813
38466W        W97562  22.063  22.693   0.949
38467W        W97563  10.240  36.880   1.709
38468W        W97564  10.208  22.126   4.600
38469W        W97565  21.723  20.547   4.788
38470W        W97566  39.439  18.709  11.028
38471W        W97567   7.314  17.219   2.231
38472W        W97568  37.887   6.310  13.327
38473W        W97569  10.664  36.069   0.863
38474W        W97570   7.906  44.372   1.447
38475W        W97571  37.514  25.984   2.343
38476W        W97572   3.281  42.309   2.181
38477W        W97573  37.377  35.862   4.235
38478W        W97574  15.763  44.940  13.516
38479W        W97575  36.029  42.352   2.292
38480W        W97576  31.404  35.435   4.630
38481W        W97577  25.014  30.583   2.790
38482W        W97578  37.476  38.884  11.919
38483W        W97579  41.410  14.337   2.685
38484W        W97580  26.467  23.622  12.860
38485W        W97581  17.089  34.477  10.043
38486W        W97582  11.344   4.265  12.904
38487W        W97583  31.643  19.083  12.520
38488W        W97584  31.568   6.217  10.955
38489W        W97585  26.483   5.369  10.470
38490W        W97586  22.652  31.931   0.433
38491W        W97587  14.213  25.493  12.389
38492W        W97588  36.495  30.583  14.768
38493W        W97589  24.572  32.595  14.499
38494W        W97590  36.456  20.261   3.646
38495W        W97591   6.762   7.855   2.724
38496W        W97592  33.898  17.099  11.430
38497W        W97593  14.279  14.619  11.563
38498W        W97594  30.516   6.383   0.440
38499W        W97595  35.924  23.712  11.427
38500W        W97596  33.052  35.556  13.437
38501W        W97597  19.556  27.588   4.824
38502W        W97598   4.848  11.682   4.223
38503W        W97599  19.077  14.152   1.793
38504W        W97600  29.542  33.130   4.313
38505W        W97601   5.226  41.871   4.686
38506W        W97602  36.583  22.205   1.450
38507W        W97603  16.744   0.322   1.357
38508W        W97604  32.580  30.038   4.243
38509W        W97605  34.937  38.972   4.194
38510W        W97606  35.080  33.908   2.801
38511W        W97607  35.428  12.142   3.381
38512W        W97608  15.282  19.194  10.492
38513W        W97609  21.252  40.855   0.777
38514W        W97610  21.115  39.471   0.413
38515W        W97611   5.745  16.200  13.847
38516W        W97612  15.277  37.569  12.841
38517W        W97613  29.070  24.493  11.876
38518W        W97614  27.184  14.687  12.975
38519W        W97615   3.453  40.515  11.047
38520W        W97616  32.564  27.451  12.971
38521W        W97617  15.823  12.745   4.300
38522W        W97618  10.838  37.432  13.916
38523W        W97619  24.139   2.943   0.459
38524W        W97620  14.179  38.870  11.938
38525W        W97621  23.659  16.192   1.246
38526W        W97622  25.036  22.531   9.637
38527W        W97623  27.448  13.144   3.216
38528W        W97624  18.626   4.233  13.950
38529W        W97625   0.888   5.351  12.072
38530W        W97626   1.363   4.917  13.937
38531W        W97627  11.373   3.293  13.870
38532W        W97628   7.679   3.228  13.807
38533W        W97629  13.706  14.201   4.813
38534W        W97630  28.064  22.619   2.241
38535W        W97631  40.803  39.845   0.428
38536W        W97632   0.427  43.784  10.969
38537W        W97633  26.145  17.709  14.375
38538W        W97634  43.764  43.775   3.386
38539W        W97635  28.582  23.167   4.214
38540W        W97636   6.719   5.257   0.858
38541W        W97637  21.175  19.756  11.120
38542W        W97638  44.803  16.195   4.801
38543W        W97639  38.996   4.392  13.054
38544W        W97640   2.786  44.950   1.886
38545W        W97641  29.073  14.220   1.697
38546W        W97642   1.373  27.976  13.902
38547W        W97643  39.892   3.388  12.513
38548W        W97644  44.000   1.434   3.300
38549W        W97645  30.009  40.977   3.191
38550W        W97646  41.493  16.240  12.033
38551W        W97647   1.402  25.517   3.185
38552W        W97648  44.325   9.874  10.405
38553W        W97649  20.272  41.980   1.895
38554W        W97650  12.770  19.206  13.417
38555W        W97651   6.419  10.348   2.255
38556W        W97652   3.764  38.050  11.508
38557W        W97653  23.591   6.222  14.823
38558W        W97654  17.250  41.927   3.850
38559W        W97655  31.418  44.317  12.373
38560W        W97656  19.653  24.016   3.327
38561W        W97657  20.697  23.697   0.480
38562W        W97658  33.076  13.286  14.983
38563W        W97659   0.756  25.082  11.473
38564W        W97660  34.923  42.013   4.604
38565W        W97661  23.573  13.640   0.368
38566W        W97662  28.492   8.175  13.321
38567W        W97663   9.774  25.470  12.023
38568W        W97664   3.423  24.634   1.430
38569W        W97665  19.596  26.161   3.834
38570W        W97666  28.522   3.405   4.688
38571W        W97667  27.529  17.600   4.837
38572W        W97668  34.886  10.240  14.953
38573W        W97669  16.266  40.929   4.253
38574W        W97670  17.717  24.503  11.862
38575W        W97671  18.680  32.447   0.768
38576W        W97672  39.945  25.198   4.793
38577W        W97673   5.734  38.463   0.819
38578W        W97674  29.654  14.762  11.536
38579W        W97675   7.876   9.852   3.173
38580W        W97676  31.144  10.183  13.061
38581W        W97677   7.792   8.192   0.775
38582W        W97678  30.124  10.282  12.477
38583W        W97679  21.141  17.298  11.872
38584W        W97680  39.343   6.764   2.683
38585W        W97681  19.656  29.559  11.099
38586W        W97682  44.361  40.362  12.830
38587W        W97683  17.568  33.127  14.877
38588W        W97684  31.044  11.144   1.781
38589W        W97685  12.754  32.593  14.359
38590W        W97686  23.144  42.425  13.844
38591W        W97687  26.958  27.585   4.155
38592W        W97688   7.377   6.419  12.421
38593W        W97689  42.844  29.106   0.469
38594W        W97690   5.399  28.938  14.947
38595W        W97691  41.981  20.130   1.369
38596W        W97692  30.576   0.944  14.498
38597W        W97693  33.567  19.574   5.099
38598W        W97694  28.959  31.027   4.676
38599W        W97695  30.959  44.979   3.855
38600W        W97696  17.259  20.600  12.465
38601W        W97697  26.519  42.861   1.265
38602W        W97698  22.236   6.424  13.017
38603W        W97699  40.308  20.128  10.976
38604W        W97700   5.294  17.284   4.796
38605W        W97701  16.178  20.528   0.792
38606W        W97702  38.883   4.292   0.787
38607W        W97703  40.818  12.716  11.903
38608W        W97704  19.219  10.376   4.188
38609W        W97705  11.746   5.234   1.339
38610W        W97706  14.116  27.179  12.404
38611W        W97707  32.080   0.769   1.726
38612W        W97708  40.928  30.584   2.888
38613W        W97709   8.835  28.969   3.762
38614W        W97710  41.366  41.534  13.310
38615W        W97711  43.407  14.751  12.041
38616W        W97712  20.133  12.338  14.413
38617W        W97713  42.409  28.525  14.788
38618W        W97714  30.970  11.242   3.838
38619W        W97715  41.304   5.353  14.304
38620W        W97716  36.459   7.702  12.569
38621W        W97717  17.638  37.410   4.227
38622W        W97718   6.687  40.478   3.726
38623W        W97719  44.311  14.711  10.537
38624W        W97720  35.421  19.765  10.483
38625W        W97721  42.374  25.611   2.193
38626W        W97722  17.122  44.992  13.846
38627W        W97723  19.552  27.125   0.778
38628W        W97724  38.071  38.554  12.936
38629W        W97725  19.156   9.868   2.261
38630W        W97726  25.575  41.345  13.317
38631W        W97727  23.240   3.398  12.454
38632W        W97728  11.301  13.144   3.772
38633W        W97729  40.992  23.216   1.358
38634W        W97730  43.003  37.542  12.955
38635W        W97731  17.756  15.292  13.802
38636W        W97732   5.265  44.451   4.276
38637W        W97733   6.332  32.490  13.316
38638W        W97734  27.996  10.699   1.845
38639W        W97735  30.606  39.917   3.837
38640W        W97736  41.381   6.331  13.858
38641W        W97737  24.568  38.927  14.303
38642W        W97738  32.521  37.415  12.467
38643W        W97739  25.025  18.778  10.989
38644W        W97740  15.753  39.375  13.045
38645W        W97741   7.402  35.882   2.858
38646W        W97742  17.278  44.442  10.090
38647W        W97743  13.641  15.751  11.527
38648W        W97744   9.780  23.591  13.057
38649W        W97745  22.504  16.768   1.338
38650W        W97746  44.351  31.143   4.673
38651W        W97747  10.179  35.406  13.453
38652W        W97748  11.227  41.042  14.340
38653W        W97749  12.190  44.484  11.930
38654W        W97750  25.187  24.713   1.874
38655W        W97751   5.882  41.872   3.324
38656W        W97752  12.321  33.937   1.242
38657W        W97753  42.981  17.651   3.830
38658W        W97754  23.515  31.099  12.346
38659W        W97755   0.306  23.599  11.897
38660W        W97756  43.012   2.914   2.249
38661W        W97757   1.854   8.837  11.390
38662W        W97758  30.019   4.382   1.426
38663W        W97759  24.225  20.152   1.822
38664W        W97760  14.102  32.068   4.135
38665W        W97761  19.251   8.200  12.832
38666W        W97762  30.557  11.694  10.510
38667W        W97763  10.838   9.650  14.845
38668W        W97764   0.763  21.196   4.762
38669W        W97765  21.113  31.600   3.828
38670W        W97766  22.031  29.132   2.277
38671W        W97767  26.459  37.392   2.261
38672W        W97768  32.057  29.142  12.892
38673W        W97769  12.803  39.547  11.554
38674W        W97770  25.987   0.875   2.284
38675W        W97771   2.464  12.745  12.893
38676W        W97772  40.044  40.441   0.764
38677W        W97773  19.225   1.884  14.807
38678W        W97774  10.302  13.801   3.267
38679W        W97775  27.109  12.813   1.444
38680W        W97776  28.645  29.537  13.057
38681W        W97777  35.422   3.932  10.940
38682W        W97778  40.051  17.750   2.869
38683W        W97779  23.994  12.739  13.827
38684W        W97780  34.985  14.718  10.615
38685W        W97781  42.975  24.119   1.442
38686W        W97782  11.723  42.896  10.583
38687W        W97783  17.673   0.840   4.644
38688W        W97784  35.378  42.343   0.243
38689W        W97785  30.556  11.747  12.422
38690W        W97786  23.501  12.711   1.346
38691W        W97787  38.906   1.387  11.978
38692W        W97788   1.926  32.465  13.474
38693W        W97789  18.631  17.630   2.328
38694W        W97790  36.510  24.153   3.215
38695W        W97791  37.965  30.912   4.338
38696W        W97792  18.721  31.909   4.658
38697W        W97793  10.682  25.977  12.837
38698W        W97794  21.117   3.416   0.420
38699W        W97795  36.495  43.876   3.148
38700W        W97796   2.300  30.414   4.665
38701W        W97797  25.963  11.237   3.730
38702W        W97798  35.900  17.284   5.235
38703W        W97799   5.394  15.316   2.384
38704W        W97800  16.697  26.657  13.806
38705W        W97801  32.070   0.328   4.173
38706W        W97802  28.954  32.992   0.921
38707W        W97803  38.888  34.488   4.287
38708W        W97804  22.245  22.549   1.312
38709W        W97805   2.260  26.654   0.960
38710W        W97806   3.954  31.460  14.333
38711W        W97807  24.124  13.135   2.385
38712W        W97808  37.830  40.405   2.344
38713W        W97809  38.523  28.554  10.628
38714W        W97810  17.712  25.139   0.788
38715W        W97811  25.002  41.001   3.845
38716W        W97812  43.920  20.141   0.911
38717W        W97813   8.358  26.656   2.262
38718W        W97814   4.843  39.988   0.834
38719W        W97815   7.771  30.600   4.732
38720W        W97816  24.523  37.037  12.832
38721W        W97817  24.496  32.511   3.258
38722W        W97818  36.935  28.059  11.539
38723W        W97819  34.577  19.083  13.940
38724W        W97820  31.927  23.549   1.919
38725W        W97821  41.794  28.669   4.781
38726W        W97822  18.577  10.314  14.281
38727W        W97823  14.275  24.675  13.313
38728W        W97824  20.089  18.256  12.416
38729W        W97825   1.958  36.855  13.519
38730W        W97826  10.802  25.634  10.636
38731W        W97827  33.502  41.461  11.604
38732W        W97828  39.923   9.181   1.774
38733W        W97829  11.164  38.428  11.116
38734W        W97830  22.675   2.803   3.211
38735W        W97831  23.621  19.635   2.219
38736W        W97832   8.270   1.242  14.302
38737W        W97833  38.939  18.113  10.107
38738W        W97834   9.190  27.968   4.726
38739W        W97835   5.371   4.386   3.343
38740W        W97836  30.939  44.473   4.835
38741W        W97837   3.834  33.948  11.986
38742W        W97838   9.676  20.246   4.225
38743W        W97839  21.540   0.926   4.691
38744W        W97840  40.898  14.623   3.854
38745W        W97841  31.082  21.701  11.527
38746W        W97842  13.803  27.046   2.795
38747W        W97843  17.242   6.810  11.394
38748W        W97844  32.140  22.224   5.209
38749W        W97845  33.076  44.371   1.359
38750W        W97846  23.126  38.931   0.927
38751W        W97847   0.400  10.872   1.418
38752W        W97848  25.216   4.789   0.768
38753W        W97849  40.828  24.591  11.968
38754W        W97850   0.351  24.025  14.340
38755W        W97851  25.052  39.515   0.836
38756W        W97852  44.265   8.699  12.924
38757W        W97853  36.584  32.983  11.989
38758W        W97854   4.930  43.957  11.093
38759W        W97855   4.277  39.519  13.467
38760W        W97856  40.016  23.671  14.463
38761W        W97857   8.405  20.064   4.248
38762W        W97858   8.357  40.438   2.236
38763W        W97859   9.743  13.623   2.258
38764W        W97860  37.397  36.078   0.289
38765W        W97861  16.201  32.007   4.130
38766W        W97862  38.562   1.462  10.445
38767W        W97863  16.207   1.950   4.310
38768W        W97864   6.207   2.751   3.662
38769W        W97865  20.122   1.813  11.424
38770W        W97866  31.112  43.767  14.030
38771W        W97867   2.451  10.863   3.839
38772W        W97868  10.674  34.473   3.361
38773W        W97869  15.247  19.681  10.588
38774W        W97870   9.790  31.949   3.346
38775W        W97871   6.406   7.826   4.701
38776W        W97872  30.135  36.585   2.319
38777W        W97873  20.707  39.946  10.539
38778W        W97874  27.503  25.027  11.965
38779W        W97875  42.875   2.934   0.955
38780W        W97876   1.971  31.918  14.964
38781W        W97877   0.855   1.750   0.833
38782W        W97878  20.035  31.935  10.617
38783W        W97879  16.262  21.660  13.411
38784W        W97880  32.394  20.652   0.802
38785W        W97881  17.799   9.365   5.194
38786W        W97882  42.999  12.310   1.402
38787W        W97883   0.340   4.363  14.032
38788W        W97884  42.446   9.352   2.368
38789W        W97885  40.478  44.965  11.478
38790W        W97886  23.044  18.078   0.902
38791W        W97887   8.344  18.660   1.694
38792W        W97888  37.488  41.808   0.937
38793W        W97889  21.125  40.847   2.314
38794W        W97890  38.025  32.080   1.331
38795W        W97891  28.675  37.871   2.736
38796W        W97892  20.568  40.956   0.368
38797W        W97893  35.516  44.266   2.676
38798W        W97894  41.850  13.217  13.476
38799W        W97895  17.577   6.367   4.753
38800W        W97896  14.314   5.360   2.900
38801W        W97897  25.670   9.374   2.321
38802W        W97898  27.625  13.812   0.440
38803W        W97899  25.671  12.331   1.416
38804W        W97900  34.590   4.822   2.731
38805W        W97901  24.022   4.934  12.837
38806W        W97902  38.372  39.546  12.476
38807W        W97903   0.315   5.840   0.805
38808W        W97904  36.906  42.863  14.430
38809W        W97905  18.652  33.879  13.509
38810W        W97906  24.984  18.054  13.904
38811W        W97907  43.497   0.901  13.811
38812W        W97908  41.938  23.532  12.506
38813W        W97909  13.232  27.177   5.293
38814W        W97910  10.191   1.858   2.216
38815W        W97911  13.705   6.910   2.744
38816W        W97912  22.206  23.719  12.062
38817W        W97913  28.939  11.135  11.561
38818W        W97914  31.440  26.201  12.436
38819W        W97915  22.177  44.454  13.445
38820W        W97916  15.272   8.870   0.741
38821W        W97917   4.433   9.168   2.262
38822W        W97918  13.216  10.245   1.834
38823W        W97919   6.700  41.356   4.803
38824W        W97920  42.830  18.131  10.488
38825W        W97921  26.166  26.079  12.958
38826W        W97922  43.007  44.329  14.401
38827W        W97923  32.935  10.223   4.621
38828W        W97924  27.620   3.730  12.412
38829W        W97925  36.548  28.602   1.210
38830W        W97926  34.481  11.707   1.768
38831W        W97927  43.896  28.527  12.921
38832W        W97928  18.548   1.921  13.349
38833W        W97929   1.790  20.091   1.873
38834W        W97930  37.405  23.127  14.289
38835W        W97931   2.232  15.112  14.007
38836W        W97932  24.132  22.069  12.958
38837W        W97933  32.954  44.997   0.908
38838W        W97934  22.152   0.761   3.839
38839W        W97935  35.530  32.537   0.791
38840W        W97936   4.361  26.960   1.307
38841W        W97937  22.589  31.977   1.246
38842W        W97938  23.049  10.269  11.018
38843W        W97939  24.626   4.809   0.936
38844W        W97940  16.655  28.983   3.298
38845W        W97941  33.995  30.998  14.996
38846W        W97942  33.507   5.276  12.980
38847W        W97943  43.809  30.572   4.292
38848W        W97944   6.761  13.161  11.954
38849W        W97945  18.720  13.631   1.740
38850W        W97946  17.128  31.994   4.348
38851W        W97947  12.147  23.626  10.920
38852W        W97948  12.181  24.211  10.549
38853W        W97949  25.529  16.244  10.973
38854W        W97950  11.145  14.633   4.812
38855W        W97951  36.942  33.051   3.766
38856W        W97952  32.396  33.922   3.207
38857W        W97953  29.570  14.764  13.469
38858W        W97954   7.837  23.685  12.019
38859W        W97955  13.832  25.212   4.252
38860W        W97956  14.707  22.577  12.006
38861W        W97957  39.816   8.259   1.382
38862W        W97958  33.481   8.901  13.336
38863W        W97959   9.348  35.991  10.444
38864W        W97960  35.592  24.494   5.800
38865W        W97961   5.356  24.061   2.688
38866W        W97962   3.318  11.698   4.619
38867W        W97963  24.086  35.456   9.584
38868W        W97964  10.171   7.396  14.925
38869W        W97965  14.170  30.629   2.775
38870W        W97966  34.873  11.366   2.895
38871W        W97967  14.591   6.719   0.417
38872W        W97968   1.384  43.961   3.164
38873W        W97969   7.299  19.267   1.908
38874W        W97970  37.448   3.296  11.053
38875W        W97971  38.404   8.858   4.266
38876W        W97972  28.003  29.981  12.913
38877W        W97973  32.525  20.637   5.284
38878W        W97974  19.065  18.256   4.151
38879W        W97975  35.421  28.004  11.493
38880W        W97976  22.088  26.571   4.680
38881W        W97977  22.205  21.623  10.934
38882W        W97978  25.645  38.998  14.323
38883W        W97979  13.184  43.845   2.306
38884W        W97980   7.417  11.217   2.374
38885W        W97981  13.730   5.830  13.502
38886W        W97982  29.084  32.493  11.487
38887W        W97983  27.470  41.395  11.481
38888W        W97984  26.014  14.695   2.409
38889W        W97985  28.645  37.345   0.853
38890W        W97986  33.113   1.907  13.510
38891W        W97987  38.554  26.690   3.310
38892W        W97988  11.654  16.733   2.683
38893W        W97989  42.878  41.343  11.053
38894W        W97990  16.798  12.809  12.980
38895W        W97991  42.523  30.948   4.253
38896W        W97992  44.968   0.796   0.742
38897W        W97993  10.320  23.501   4.284
38898W        W97994   8.754   5.353   1.740
38899W        W97995   1.315  19.644  12.343
38900W        W97996  32.043  16.284  11.899
38901W        W97997  26.170  22.144   1.853
38902W        W97998  24.189  29.160  11.523
38903W        W97999  44.388  38.333   0.470
38904W        W98000  36.062  16.610   2.268
38905W        W98001  21.570  32.961  14.957
38906W        W98002  19.124  41.960  14.489
38907W        W98003  29.061  23.990  12.851
38908W        W98004  40.806  14.589   0.433
38909W        W98005  12.149  26.594   0.796
38910W        W98006  18.139   9.162   3.239
38911W        W98007  11.224  42.942  14.386
38912W        W98008  14.320  31.039  13.479
38913W        W98009  36.412  16.783   5.213
38914W        W98010  12.676  30.488  12.425
38915W        W98011  43.276  38.455   3.232
38916W        W98012  24.648  26.629  11.514
38917W        W98013   7.706  26.161  14.810
38918W        W98014  32.465  24.187  11.530
38919W        W98015  11.359  19.552   0.283
38920W        W98016  22.601   9.263   2.391
38921W        W98017   9.645  11.812  14.498
38922W        W98018  12.165  36.003  11.541
38923W        W98019  11.189  11.372   0.934
38924W        W98020  12.731  34.056   1.732
38925W        W98021   7.905   7.283  14.974
38926W        W98022  44.270  36.054   4.636
38927W        W98023  14.171  43.952   2.717
38928W        W98024  19.566  15.316  13.872
38929W        W98025  14.200  32.059   2.386
38930W        W98026   0.950  24.488  11.979
38931W        W98027   8.748   8.316  13.919
38932W        W98028  33.536   5.929  11.089
38933W        W98029  30.992  13.720   0.268
38934W        W98030  43.446   8.288   2.781
38935W        W98031  22.239  39.847  14.299
38936W        W98032   5.923  26.494  10.619
38937W        W98033  38.430  36.010  13.819
38938W        W98034  23.585  35.915   2.742
38939W        W98035  42.334  38.894  12.049
38940W        W98036  15.727  17.305  14.509
38941W        W98037  12.315   1.737   1.736
38942W        W98038   4.337  18.683   0.311
38943W        W98039  24.661  17.271   0.409
38944W        W98040   3.784  19.278  13.044
38945W        W98041   4.300  43.980  11.859
38946W        W98042   0.845  22.661  11.500
38947W        W98043  15.301   5.815   4.328
38948W        W98044   3.226  10.677   2.359
38949W        W98045  11.815  36.563  11.050
38950W        W98046  42.424  43.359   2.709
38951W        W98047   1.837  18.137   1.330
38952W        W98048  30.452  10.801  14.354
38953W        W98049   3.925  26.522  11.444
38954W        W98050  34.964   6.319  11.889
38955W        W98051  40.966   3.346  11.569
38956W        W98052  14.154  27.536  13.325
38957W        W98053  44.457  43.361  10.416
38958W        W98054   2.256  35.385  14.343
38959W        W98055  31.896  34.001  13.327
38960W        W98056  12.136  27.076  13.926
38961W        W98057   2.466   3.328  13.829
38962W        W98058   2.418  28.499   2.294
38963W        W98059   3.764  21.583   4.820
38964W        W98060  24.050  12.173  13.824
38965W        W98061  16.173   3.836  13.838
38966W        W98062  33.021  13.825   3.162
38967W        W98063  16.696  31.544   3.733
38968W        W98064  31.433  24.592   3.698
38969W        W98065  14.750  23.630   3.292
38970W        W98066  12.788  37.555   4.740
38971W        W98067  13.824  38.410   2.788
38972W        W98068  12.799   9.847  11.859
38973W        W98069  30.639  28.437   2.702
38974W        W98070  12.765  27.154   0.295
38975W        W98071  25.099  30.655  12.982
38976W        W98072  12.695   7.763   3.265
38977W        W98073  37.070  27.146  11.989
38978W        W98074   4.935  20.546   5.098
38979W        W98075   4.290   7.741  11.556
38980W        W98076  28.636  29.984   2.278
38981W        W98077  42.931  39.967  11.964
38982W        W98078  34.430   0.963   2.717
38983W        W98079   5.273  12.332  12.084
38984W        W98080   4.861  40.033   1.839
38985W        W98081   9.702  15.210   1.924
38986W        W98082   9.850  13.611   2.815
38987W        W98083  28.585   5.884  12.881
38988W        W98084  39.011   5.416  13.042
38989W        W98085  35.091  28.982  12.938
38990W        W98086  13.219  40.334  14.906
38991W        W98087  25.476  22.076   3.870
38992W        W98088  27.977  16.225  10.526
38993W        W98089  27.585   6.270  13.311
38994W        W98090  38.354  23.219  12.404
38995W        W98091   8.282  32.395   3.651
38996W        W98092  13.780  14.794  12.075
38997W        W98093  19.161  39.968   2.898
38998W        W98094  21.593  43.802   3.824
38999W        W98095  10.339  25.982   3.338
39000W        W98096  16.679  15.823   2.874
39001W        W98097  36.537  18.718  13.513
39002W        W98098  17.220   9.182  12.908
39003W        W98099   5.351  18.149  11.541
39004W        W98100  14.831  10.281  13.398
39005W        W98101   9.678  13.720  11.942
39006W        W98102  22.691   8.771   1.831
39007W        W98103  31.115  33.561   3.654
39008W        W98104  26.004   6.801  11.493
39009W        W98105  14.706  44.381  11.542
39010W        W98106  31.127   0.822   0.386
39011W        W98107  14.772  41.822  10.474
39012W        W98108  10.797   6.782   3.642
39013W        W98109   7.212  13.250   0.308
39014W        W98110   4.204  37.368   0.728
39015W        W98111  28.440   5.316   0.887
39016W        W98112  36.892  40.546  11.496
39017W        W98113  42.923  42.782  10.577
39018W        W98114  34.093  35.099   2.789
39019W        W98115  30.106  27.109   9.989
39020W        W98116  20.057  27.966   4.780
39021W        W98117   8.196  19.252   3.751
39022W        W98118  42.394  15.310   4.647
39023W        W98119  21.141  42.915  13.898
39024W        W98120  35.960  32.917  13.420
39025W        W98121   8.345  14.831  14.962
39026W        W98122  28.572   3.808   4.220
39027W        W98123  28.665  18.605  12.017
39028W        W98124  24.013   0.941   5.210
39029W        W98125   1.337  15.675   2.247
39030W        W98126   7.211  31.088  14.876
39031W        W98127  18.270  29.019   0.751
39032W        W98128   5.706  11.167   2.365
39033W        W98129  15.817   1.775   1.826
39034W        W98130  38.883  13.185  12.880
39035W        W98131  28.178  32.473   1.355
39036W        W98132  42.893  17.142  11.116
39037W        W98133  28.111  28.564   2.312
39038W        W98134   7.787  19.742   2.319
39039W        W98135  12.831  13.201   1.388
39040W        W98136  25.506  44.892  13.482
39041W        W98137   5.209  10.727  13.024
39042W        W98138  35.913  24.062   5.098
39043W        W98139  43.357   9.857   3.649
39044W        W98140  34.930  19.649   0.423
39045W        W98141  37.523   7.680  12.523
39046W        W98142  20.528  22.587   2.784
39047W        W98143  43.356  15.819   5.188
39048W        W98144  29.130   3.365   2.732
39049W        W98145   6.717   5.695   0.833
39050W        W98146  30.545  11.256  12.084
39051W        W98147   6.787   2.848  12.058
39052W        W98148  44.898  25.680   0.412
39053W        W98149  15.734  38.558  13.984
39054W        W98150  32.502   2.831  11.082
39055W        W98151  20.534  12.181   2.348
39056W        W98152  37.075  38.400  12.493
39057W        W98153  37.477   4.805   1.357
39058W        W98154  19.578  11.307  14.860
39059W        W98155  13.154  10.789  12.357
39060W        W98156  33.619  33.534  10.627
39061W        W98157  16.594  35.013  11.467
39062W        W98158  25.636  20.587   2.686
39063W        W98159  39.480  14.793   4.128
39064W        W98160  20.686  32.570   3.867
39065W        W98161  27.609  19.141  12.894
39066W        W98162   7.280   4.943   1.376
39067W        W98163  36.054  31.487  13.959
39068W        W98164   9.288  44.875  13.539
39069W        W98165  11.667  23.529   1.807
39070W        W98166   9.709  18.665   3.173
39071W        W98167  18.247  23.652  12.971
39072W        W98168  32.913  32.606   0.939
39073W        W98169  13.141  33.617  12.358
39074W        W98170  28.957  10.151  10.996
39075W        W98171  23.697  15.734   3.384
39076W        W98172  39.559   5.911  13.021
39077W        W98173  17.140  43.981   4.199
39078W        W98174  15.799   6.368   3.862
39079W        W98175  41.943  15.684  12.844
39080W        W98176  18.752   1.942   1.407
39081W        W98177  26.984  33.963  14.865
39082W        W98178  26.979  29.433   3.723
39083W        W98179  37.915  27.100  14.826
39084W        W98180   2.748  16.647  10.999
39085W        W98181  12.788  23.696   1.808
39086W        W98182  30.480   8.366   3.736
39087W        W98183   0.983  40.358   1.358
39088W        W98184   6.725  21.109  14.954
39089W        W98185  41.415  40.545   0.769
39090W        W98186  11.307  33.087  14.389
39091W        W98187  43.464  25.481   2.403
39092W        W98188  44.765  14.253   2.895
39093W        W98189  44.337  20.135  13.863
39094W        W98190  33.888  15.298  10.145
39095W        W98191  24.081  28.181  12.009
39096W        W98192  28.532  24.033   0.284
39097W        W98193  37.892  22.513   3.792
39098W        W98194  21.153   3.417  13.405
39099W        W98195  34.514  11.845   0.769
39100W        W98196  31.053  40.475   3.676
39101W        W98197  18.669  39.524   1.710
39102W        W98198  29.134  14.185   3.685
39103W        W98199   5.404  40.877  14.927
39104W        W98200  14.159  40.398   3.793
39105W        W98201  28.075  44.808  11.421
39106W        W98202   2.373   8.240   3.174
39107W        W98203  13.200  21.512  13.370
39108W        W98204  20.543   7.380  10.040
39109W        W98205  35.365  32.483  14.367
39110W        W98206  37.507  29.077  11.898
39111W        W98207   2.963  24.118  10.970
39112W        W98208  10.324  17.606   4.323
39113W        W98209  26.639  44.347   5.142
39114W        W98210  17.631   6.343  14.920
39115W        W98211  35.980  42.882   3.174
39116W        W98212  18.596  29.067   0.754
39117W        W98213  16.711  32.107   4.807
39118W        W98214  37.967  34.036  11.979
39119W        W98215  15.700  27.651  14.801
39120W        W98216  28.542  30.042   4.651
39121W        W98217  11.723  34.565   3.337
39122W        W98218  13.615  31.599  11.541
39123W        W98219  35.393  27.942   2.861
39124W        W98220  37.958   0.874  14.900
39125W        W98221  15.609   7.763   3.241
39126W        W98222   4.338  32.412  13.493
39127W        W98223  11.345  21.213  12.379
39128W        W98224  13.171   1.393   2.662
39129W        W98225  23.686   6.746  13.050
39130W        W98226   4.704   6.697   2.890
39131W        W98227  27.603  31.576  13.969
39132W        W98228   6.851  22.239   4.354
39133W        W98229  12.673  42.855  11.987
39134W        W98230  30.047   8.841  12.910
39135W        W98231  16.141  13.662   3.779
39136W        W98232  36.451  35.101   0.916
39137W        W98233  15.737  33.084   4.204
39138W        W98234  10.274  36.004   1.280
39139W        W98235  44.783  25.581  12.832
39140W        W98236  26.486  10.744  13.987
39141W        W98237  22.093  25.008  12.860
39142W        W98238   1.822  26.122   4.183
39143W        W98239  29.574  29.052   2.896
39144W        W98240  14.644  20.030  12.880
39145W        W98241  12.265  30.538   3.208
39146W        W98242  33.118   2.236   2.685
39147W        W98243  41.521  18.250  12.379
39148W        W98244  21.604  35.906   5.186
39149W        W98245  13.290  41.861  10.928
39150W        W98246  18.604  21.687  12.862
39151W        W98247  17.705   3.905   2.861
39152W        W98248  19.251  11.355   0.761
39153W        W98249   2.763  13.341   0.311
39154W        W98250  23.060  15.588  12.433
39155W        W98251  40.979  15.795  13.057
39156W        W98252  17.265  30.035  11.512
39157W        W98253  14.250  22.657  13.978
39158W        W98254  22.722  17.278  10.454
39159W        W98255  30.976  16.688  14.917
39160W        W98256   7.877   1.827  10.961
39161W        W98257  34.592   7.206   0.425
39162W        W98258   0.960  15.317   3.230
39163W        W98259  44.804  14.720  12.357
39164W        W98260   0.949  26.123   3.196
39165W        W98261  42.890  18.672  14.300
39166W        W98262   9.343  44.386  10.441
39167W        W98263  42.515   4.828  10.622
39168W        W98264  17.274  12.796  14.513
39169W        W98265   6.819  16.251  14.432
39170W        W98266  20.252  10.644  12.042
39171W        W98267  24.136  28.562   0.421
39172W        W98268  29.428  15.138   0.323
39173W        W98269  24.088  31.466   1.927
39174W        W98270  11.268  16.247  12.093
39175W        W98271   5.906  27.960   3.324
39176W        W98272   3.952  20.210  14.449
39177W        W98273  12.705  12.733  14.809
39178W        W98274  32.945   7.665   3.318
39179W        W98275  43.305   9.827   0.307
39180W        W98276  25.645  37.426  10.889
39181W        W98277   8.349  32.475  14.904
39182W        W98278  43.769  35.561   0.821
39183W        W98279  21.637  30.102  13.482
39184W        W98280  17.067   1.739   4.629
39185W        W98281  39.921  21.195  14.394
39186W        W98282  26.474  10.315   3.345
39187W        W98283  14.194  13.805  13.458
39188W        W98284  30.004  42.984  14.499
39189W        W98285  22.735   9.285   0.741
39190W        W98286  15.628  12.621   0.391
39191W        W98287  32.036  44.840   1.817
39192W        W98288  34.102  36.506  14.295
39193W        W98289  37.069  19.561  11.035
39194W        W98290  26.097   7.349  11.554
39195W        W98291   5.802  11.632   1.847
39196W        W98292  32.466  39.809   3.260
39197W        W98293  35.854   3.864  12.860
39198W        W98294  10.857  11.218   3.272
39199W        W98295  39.947  33.594   3.712
39200W        W98296  29.527  42.328   1.436
39201W        W98297   7.390  27.545   5.100
39202W        W98298  31.562  41.968  13.963
39203W        W98299  40.402  14.334   2.690
39204W        W98300  30.625  17.273  14.429
39205W        W98301  13.840  24.223   2.783
39206W        W98302  28.496   2.774  10.934
39207W        W98303  39.447  34.914  13.866
39208W        W98304   5.775  38.570   3.721
39209W        W98305  16.783  42.894  14.953
39210W        W98306  23.036  43.449   0.832
39211W        W98307  44.764  44.822   2.710
39212W        W98308  19.163  20.536   1.837
39213W        W98309  38.501  31.967  14.400
39214W        W98310  41.978  19.692  12.096
39215W        W98311  17.776  12.177   4.116
39216W        W98312   5.814  20.031  14.786
39217W        W98313  13.704  29.990   1.799
39218W        W98314  35.415  19.649  14.955
39219W        W98315  41.028   6.335   3.281
39220W        W98316  41.352   7.852  13.487
39221W        W98317  24.588  43.900  14.826
39222W        W98318  14.103  30.649   0.340
39223W        W98319  39.481   8.290   1.292
39224W        W98320  26.994  32.591  13.396
39225W        W98321  29.160  24.510  12.850
39226W        W98322  16.691  22.723   0.842
39227W        W98323   5.286  37.532  10.965
39228W        W98324  12.735   0.928   2.397
39229W        W98325  16.154  26.133   4.171
39230W        W98326  29.561  21.033   4.673
39231W        W98327  39.837  38.892   1.240
39232W        W98328  40.016  10.645   1.739
39233W        W98329  34.885   1.298  13.476
39234W        W98330   9.248  35.543   2.836
39235W        W98331  23.187   5.908   2.671
39236W        W98332   6.897  20.087  14.859
39237W        W98333   0.763  27.140   2.219
39238W        W98334  33.548  40.984  12.949
39239W        W98335  25.171  17.560  12.932
39240W        W98336  42.843  12.835  13.928
39241W        W98337   9.812  25.106  11.938
39242W        W98338  12.661  23.583   3.339
39243W        W98339  16.747  18.134   2.278
39244W        W98340  13.287   7.718  12.043
39245W        W98341  16.772   5.412  11.857
39246W        W98342  33.908   2.334  11.109
39247W        W98343  38.909  12.851   0.429
39248W        W98344  25.987  33.457  11.501
39249W        W98345  20.075  35.535  14.399
39250W        W98346   5.285  14.194   2.265
39251W        W98347   2.388  15.155  12.485
39252W        W98348  37.415  42.312   4.144
39253W        W98349  13.129   6.372  12.871
39254W        W98350  34.602  11.371  14.422
39255W        W98351  25.001   4.275  13.441
39256W        W98352  29.072   8.755  12.569
39257W        W98353  10.731  14.156   4.263
39258W        W98354  11.127  24.560   2.378
39259W        W98355   7.188  32.594  13.910
39260W        W98356  11.149  36.537  11.983
39261W        W98357   7.390  10.216   4.120
39262W        W98358  40.453  28.950   0.916
39263W        W98359  27.484  16.125   3.199
39264W        W98360  32.404   0.849   2.395
39265W        W98361  36.453   9.319   9.994
39266W        W98362  44.009  22.231  11.488
39267W        W98363  18.641  22.715   1.769
39268W        W98364  10.873  33.908  12.534
39269W        W98365   7.709  43.791  14.814
39270W        W98366  13.699  33.393   1.923
39271W        W98367   6.373  17.608   3.338
39272W        W98368   1.283   2.442  13.374
39273W        W98369  44.261   3.415   1.858
39274W        W98370  17.661  22.715   2.281
39275W        W98371   0.477  39.821   2.679
39276W        W98372  29.481  24.498   3.343
39277W        W98373  26.694  22.136  14.346
39278W        W98374  21.163  23.696   0.394
39279W        W98375  43.017  34.097  10.510
39280W        W98376   9.696  30.009   4.264
39281W        W98377  12.331   9.172  10.921
39282W        W98378  15.821  39.435  12.388
39283W        W98379   1.848  32.030  13.007
39284W        W98380  23.197  30.989  14.355
39285W        W98381   2.288  32.434  11.964
39286W        W98382  34.104   3.291   2.727
39287W        W98383  21.208  29.538   4.282
39288W        W98384   7.728  21.582   4.667
39289W        W98385  41.304  29.002  13.329
39290W        W98386  20.199  10.777  10.582
39291W        W98387  15.111   3.828  14.843
39292W        W98388  35.992  42.301  10.495
39293W        W98389  42.454  19.649  10.428
39294W        W98390  20.240   9.764  13.873
39295W        W98391  43.767   2.856   2.851
39296W        W98392  28.068  24.125  12.861
39297W        W98393  15.708  17.649  10.555
39298W        W98394  43.990  33.460  13.911
39299W        W98395  42.885   1.245  11.102
39300W        W98396  30.596  20.124  12.857
39301W        W98397   6.748  16.112  12.340
39302W        W98398  13.685  35.508   2.323
39303W        W98399  23.603  44.314   1.369
39304W        W98400  16.199  25.138  13.938
39305W        W98401  28.605  14.602   0.469
39306W        W98402  35.519   6.340  12.438
39307W        W98403  28.626  21.696  14.495
39308W        W98404  35.414  34.411   1.431
39309W        W98405   8.877  34.516  12.064
39310W        W98406   0.960   8.826   2.826
39311W        W98407   2.273  43.771  10.497
39312W        W98408  40.486  38.473  14.424
39313W        W98409  17.748  19.565   2.899
39314W        W98410   3.248  16.756   4.645
39315W        W98411  19.754  30.560   0.444
39316W        W98412  12.670  39.818   0.349
39317W        W98413  21.112  44.503   4.334
39318W        W98414   4.224   8.337   3.803
39319W        W98415  23.519  40.964   0.878
39320W        W98416  29.001   4.940   2.384
39321W        W98417  34.416  13.628   1.381
39322W        W98418  16.581  14.241   0.832
39323W        W98419  31.531  11.700  12.575
39324W        W98420  43.951  28.652  13.507
39325W        W98421   3.328  12.142   3.709
39326W        W98422  28.512  23.217  11.921
39327W        W98423  10.834  20.077   4.342
39328W        W98424  26.567  30.969  13.013
39329W        W98425  40.515  39.399  14.373
39330W        W98426  32.487  39.439   1.765
39331W        W98427  37.890  43.468   1.879
39332W        W98428  26.202   3.910   4.625
39333W        W98429  27.960   0.886   3.809
39334W        W98430  36.556  10.840   9.445
39335W        W98431  43.873   2.405   0.961
39336W        W98432   5.713  10.754  11.040
39337W        W98433  38.490  21.561   0.807
39338W        W98434   9.152  26.650  11.435
39339W        W98435  17.746  41.297   4.812
39340W        W98436  31.558   0.452  12.355
39341W        W98437  39.455  14.291   1.447
39342W        W98438   9.335  42.381   0.309
39343W        W98439  34.014  22.627  14.311
39344W        W98440  24.150  11.361   3.850
39345W        W98441  42.464  11.867   1.768
39346W        W98442  24.705  38.400   2.198
39347W        W98443   9.749   8.202   3.216
39348W        W98444  17.121  42.455   3.852
39349W        W98445  14.097  14.762  13.312
39350W        W98446   8.668  41.038   1.278
39351W        W98447  26.202  18.061  13.333
39352W        W98448  38.872   5.778   4.654
39353W        W98449  29.577  27.688  11.872
39354W        W98450  21.631  11.628   2.310
39355W        W98451  43.353  42.409   2.391
39356W        W98452  19.662  14.800  11.553
39357W        W98453  33.529  30.126   0.473
39358W        W98454  15.784  11.800   3.869
39359W        W98455  35.500   7.911  10.944
39360W        W98456   8.691  24.603   1.880
39361W        W98457   1.867  36.450  10.901
39362W        W98458  38.459   8.192  13.340
39363W        W98459  20.165  37.368   3.227
39364W        W98460   3.266  41.018   3.373
39365W        W98461   0.855  11.298   4.609
39366W        W98462   0.944  21.195  13.416
39367W        W98463  37.418  22.085  14.480
39368W        W98464  30.583  27.046  11.974
39369W        W98465  33.889   1.362  12.056
39370W        W98466   4.904  30.558  10.039
39371W        W98467   9.826   1.862   2.667
39372W        W98468  10.346  16.705   3.215
39373W        W98469  20.164  12.347  12.530
39374W        W98470  29.648  36.406   3.653
39375W        W98471   6.381   1.941   5.208
39376W        W98472  11.810  12.650   9.535
39377W        W98473  33.959   4.942  13.817
39378W        W98474   5.339  36.356   3.790
39379W        W98475   1.316  26.481   5.251
39380W        W98476  30.629  23.641   1.376
39381W        W98477  35.439  32.446   4.671
39382W        W98478   5.929  34.604  13.338
39383W        W98479   4.724  20.103   2.335
39384W        W98480  40.339   3.791   3.296
39385W        W98481  40.490  44.405  13.378
39386W        W98482  34.890  33.906  14.354
39387W        W98483  39.004  25.649  11.888
39388W        W98484  21.051  20.552   3.638
39389W        W98485  15.806  25.509  13.432
39390W        W98486   2.857  28.479  13.014
39391W        W98487   7.905  43.383  13.010
39392W        W98488   3.382  12.327   2.225
39393W        W98489  41.415   0.979  12.437
39394W        W98490  27.186  40.336  14.418
39395W        W98491  28.079  44.434   1.292
39396W        W98492  24.655  17.697   2.283
39397W        W98493  25.621  34.382  12.831
39398W        W98494   0.474  27.094  12.539
39399W        W98495   1.262  20.138  14.279
39400W        W98496  22.644  13.308  13.058
39401W        W98497  32.474   0.876  10.603
39402W        W98498  28.985   7.701  13.330
39403W        W98499  15.138  12.834   4.779
39404W        W98500  33.026  22.019   5.248
39405W        W98501  38.436  27.569   0.423
39406W        W98502  18.054  34.431   1.240
39407W        W98503  16.597  15.112  14.362
39408W        W98504   3.394  31.633   4.136
39409W        W98505   5.740   3.792   4.214
39410W        W98506  30.019   0.825   2.881
39411W        W98507  22.545  17.782   3.771
39412W        W98508  22.076  18.248  14.399
39413W        W98509  14.633  27.547   1.398
39414W        W98510  30.005   8.185   2.413
39415W        W98511  33.514  44.316  10.100
39416W        W98512  38.353   8.213  10.966
39417W        W98513  35.022  27.681  11.437
39418W        W98514  26.021  24.127  13.026
39419W        W98515  26.683  14.753  14.367
39420W        W98516   4.309  21.182   4.666
39421W        W98517   8.779  25.143   2.334
39422W        W98518  20.566  27.005   3.165
39423W        W98519  10.867   3.221   3.206
39424W        W98520  29.489  34.018   2.842
39425W        W98521   8.176  12.623  13.832
39426W        W98522  40.023  13.139   1.797
39427W        W98523  35.004  40.814   3.173
39428W        W98524   1.294   7.871   0.838
39429W        W98525  19.777   8.764  13.445
39430W        W98526  41.793   6.368  13.478
39431W        W98527  41.798   8.875   5.308
39432W        W98528   2.339  30.140   1.336
39433W        W98529  40.412  20.225  14.470
39434W        W98530  20.601  37.962   3.835
39435W        W98531  20.702  32.889  10.457
39436W        W98532  42.974  13.656  11.570
39437W        W98533   1.410  39.512   2.800
39438W        W98534  25.686  36.914  12.454
39439W        W98535  38.863  39.325  11.385
39440W        W98536  12.651  10.383   4.664
39441W        W98537  19.774  16.773   2.250
39442W        W98538   0.349  24.215  11.997
39443W        W98539  24.501  25.986   0.863
39444W        W98540  41.933  23.093   2.387
39445W        W98541  40.483   2.780  14.927
39446W        W98542  28.564  10.662   0.781
39447W        W98543  35.890   2.410   4.234
39448W        W98544  35.501  42.355  10.967
39449W        W98545  42.399  34.116  10.519
39450W        W98546  14.255  12.676  12.369
39451W        W98547   8.769  32.964   0.252
39452W        W98548  35.015  10.704   2.723
39453W        W98549  24.638  20.076  13.955
39454W        W98550  25.691   0.961   2.777
39455W        W98551  44.350  33.928   4.679
39456W        W98552  24.142  17.213   1.922
39457W        W98553  31.475   1.783   3.837
39458W        W98554  38.403  18.217  10.631
39459W        W98555   5.348   1.471  12.006
39460W        W98556  41.837   3.729  11.878
39461W        W98557  42.471   4.709  11.081
39462W        W98558  22.587   6.706  12.497
39463W        W98559  26.680   9.668   4.248
39464W        W98560   9.853   9.246   2.873
39465W        W98561   8.219  21.521  14.366
39466W        W98562   4.383  12.247  14.371
39467W        W98563  42.816  40.411   0.838
39468W        W98564  17.736   2.256  12.046
39469W        W98565   3.287  11.137   1.841
39470W        W98566   2.876  24.537   1.892
39471W        W98567  32.100  28.642  10.491
39472W        W98568  13.337  14.193  13.804
39473W        W98569  32.548  15.083  12.558
39474W        W98570  35.894  32.033  14.449
39475W        W98571  33.471  32.598   3.154
39476W        W98572  29.629  31.931   4.616
39477W        W98573  34.503  24.113   2.667
39478W        W98574   0.773  25.027  11.108
39479W        W98575   2.328  18.668  12.459
39480W        W98576  22.049  13.254  11.467
39481W        W98577  11.796  18.664   3.752
39482W        W98578  30.553  12.169   0.244
39483W        W98579  17.586  38.041   1.370
39484W        W98580  43.765  43.448  14.943
39485W        W98581  42.993  32.909  13.425
39486W        W98582  39.969   9.646  14.022
39487W        W98583  13.240  35.108  10.584
39488W        W98584  28.624  36.583  14.368
39489W        W98585   8.701  21.119  14.918
39490W        W98586   7.675  15.582   5.096
39491W        W98587  35.451  28.966  10.405
39492W        W98588  15.618   6.300  14.430
39493W        W98589  40.053   5.252   1.928
39494W        W98590  19.169   1.745  10.964
39495W        W98591   1.975   0.847   2.766
39496W        W98592  33.000  16.209   2.246
39497W        W98593   3.411  13.777   4.805
39498W        W98594  34.889  17.665   2.298
39499W        W98595  15.609   6.275  13.433
39500W        W98596  24.504  19.188   2.819
39501W        W98597   7.324  15.115   1.378
39502W        W98598  41.510   7.851  10.437
39503W        W98599  33.050  43.916   4.648
39504W        W98600   3.712  12.166  13.947
39505W        W98601   6.792  17.171   1.229
39506W        W98602  10.240  27.605  12.979
39507W        W98603   3.871  23.624  10.456
39508W        W98604  36.491  30.623   3.686
39509W        W98605  38.554   1.352  13.050
39510W        W98606  43.436  29.014  11.088
39511W        W98607  29.970  23.234  14.797
39512W        W98608  19.247  35.489  11.903
39513W        W98609  18.768  39.353   0.474
39514W        W98610  44.896  37.892  11.018
39515W        W98611   9.725  19.581   3.691
39516W        W98612  40.405  14.202   1.753
39517W        W98613  16.203  16.113  12.415
39518W        W98614  41.865  17.243   2.382
39519W        W98615  23.638  14.108   0.918
39520W        W98616  39.974  21.228   0.249
39521W        W98617  19.220  31.923   4.321
39522W        W98618   4.205   6.716   2.686
39523W        W98619   9.713  20.626  10.986
39524W        W98620  16.170   1.417   2.272
39525W        W98621  13.311  32.038  14.434
39526W        W98622  31.497  17.606   4.324
39527W        W98623   6.697  17.243   3.202
39528W        W98624   3.944  34.591  10.602
39529W        W98625  36.582  40.344  11.058
39530W        W98626  15.812  39.555  13.879
39531W        W98627  13.215   5.299  12.553
39532W        W98628   2.468  13.214  11.434
39533W        W98629  43.327   4.393  11.099
39534W        W98630  27.492   7.779   4.328
39535W        W98631  21.036  21.578   2.883
39536W        W98632  26.024   1.776  13.458
39537W        W98633  33.506  20.619   4.685
39538W        W98634  26.494  10.794   4.723
39539W        W98635  29.003   4.447   4.705
39540W        W98636  26.005   2.724  12.012
39541W        W98637  17.183  42.494   4.776
39542W        W98638   6.756  43.975  11.096
39543W        W98639  17.116  16.592   1.346
39544W        W98640  31.517  20.531  14.385
39545W        W98641   2.883  18.767   1.822
39546W        W98642  16.599   5.358   4.353
39547W        W98643   5.396   6.298   1.377
39548W        W98644  36.523  44.423   1.794
39549W        W98645   7.764  26.977   1.794
39550W        W98646   4.726  43.860   0.866
39551W        W98647  21.137  30.957  11.037
39552W        W98648  23.493  22.568   1.212
39553W        W98649  17.069   1.473  14.871
39554W        W98650  16.183  28.084  14.767
39555W        W98651   1.900   6.755   2.836
39556W        W98652  36.376  44.834   2.302
39557W        W98653   3.433   8.209   2.668
39558W        W98654   5.435   8.881   1.734
39559W        W98655  16.670   9.176   4.807
39560W        W98656  14.291   1.794  13.499
39561W        W98657  34.486  33.480   2.322
39562W        W98658  38.023  38.436  13.310
39563W        W98659  42.497  10.677  11.970
39564W        W98660  16.299  21.033  13.034
39565W        W98661  41.795  36.368  12.374
39566W        W98662  42.359   9.358   2.760
39567W        W98663  37.830  32.016   0.904
39568W        W98664  42.419  30.527  13.977
39569W        W98665  33.885   4.940  11.390
39570W        W98666  23.624  32.905  11.500
39571W        W98667  24.223  21.579  14.326
39572W        W98668  31.903  22.688  10.558
39573W        W98669  18.281  10.189  10.090
39574W        W98670   2.738  24.017  10.558
39575W        W98671  16.569  24.651  11.076
39576W        W98672   2.863  41.517  13.355
39577W        W98673  15.086   5.799  10.576
39578W        W98674   0.866  25.608   0.799
39579W        W98675  24.137  12.179  12.073
39580W        W98676  43.406  21.045  13.975
39581W        W98677  12.650  16.276   0.304
39582W        W98678  25.163  35.424  14.301
39583W        W98679  30.978  36.425   3.220
39584W        W98680  41.371  19.609  11.942
39585W        W98681  38.360   2.302   1.315
39586W        W98682  20.042  25.107   0.907
39587W        W98683  38.037  33.019   0.314
39588W        W98684  15.197  41.874   4.141
39589W        W98685  18.636  26.096  14.912
39590W        W98686   1.971  40.499  14.759
39591W        W98687  40.946   4.710  13.040
39592W        W98688  31.518   2.301  11.988
39593W        W98689  21.537  36.021  14.455
39594W        W98690  14.699  19.098  14.019
39595W        W98691  31.418  40.970   0.301
39596W        W98692  42.496  24.001   2.840
39597W        W98693  37.896  21.237  12.383
39598W        W98694  28.561  41.462  10.583
39599W        W98695  37.379   6.700   4.209
39600W        W98696  40.850  17.648   4.787
39601W        W98697   9.237   7.901   3.817
39602W        W98698  30.631  15.098  14.819
39603W        W98699   3.789  15.214   4.687
39604W        W98700  26.464  32.021   2.700
39605W        W98701  42.509  29.441  13.353
39606W        W98702  26.980  16.112   4.245
39607W        W98703  29.946  15.578   3.346
39608W        W98704  16.774  17.640   2.705
39609W        W98705   8.231  28.624   3.793
39610W        W98706  11.360  14.315   3.666
39611W        W98707  33.126  27.088   2.244
39612W        W98708   5.707   8.801   1.930
39613W        W98709  12.650  34.431   1.397
39614W        W98710  41.875   1.264  13.990
39615W        W98711   8.384  44.802   0.927
39616W        W98712   0.447  39.931  14.893
39617W        W98713  35.410  36.864   2.371
39618W        W98714   5.766  31.071  14.951
39619W        W98715  15.621  38.901  11.530
39620W        W98716  10.164  14.100  13.394
39621W        W98717  39.024  40.827  10.068
39622W        W98718  32.015  14.214   3.251
39623W        W98719   4.907  12.730   1.929
39624W        W98720  26.048  11.165  12.944
39625W        W98721   5.377   7.800   3.246
39626W        W98722  43.385   8.248  10.427
39627W        W98723  39.809  35.515  11.968
39628W        W98724  27.060  30.975  13.509
39629W        W98725   9.820   2.332  13.061
39630W        W98726   3.283   7.855  14.803
39631W        W98727  42.782   2.933   2.776
39632W        W98728  43.458  12.305   2.865
39633W        W98729  33.457   5.335   0.946
39634W        W98730  27.976  11.691  12.955
39635W        W98731  41.797  24.181  14.016
39636W        W98732  24.212  20.724  13.023
39637W        W98733  33.498   7.339  13.468
39638W        W98734   0.940  42.487   3.261
39639W        W98735   5.875  36.985   4.257
39640W        W98736  30.038  33.886  13.432
39641W        W98737  39.032  40.436   3.312
39642W        W98738   4.788  37.564  13.895
39643W        W98739  24.072  17.208   5.293
39644W        W98740   7.175  43.402   1.399
39645W        W98741  20.733  10.241   9.970
39646W        W98742  35.915   2.318   4.611
39647W        W98743   9.332  24.157   5.198
39648W        W98744  44.915   8.290   3.146
39649W        W98745  25.481   6.214  11.857
39650W        W98746  39.863  40.500   2.276
39651W        W98747  17.777   4.439  14.010
39652W        W98748   0.290  25.691   2.179
39653W        W98749   0.485   8.338   2.229
39654W        W98750  14.120  12.309  14.460
39655W        W98751  23.054   9.217   2.879
39656W        W98752  39.341  21.668   3.269
39657W        W98753  15.241  24.050  14.948
39658W        W98754  21.720  24.150  12.035
39659W        W98755   6.891  28.125   0.855
39660W        W98756  36.487  16.796   3.171
39661W        W98757  35.859  43.766  10.565
39662W        W98758  15.585  28.600  14.955
39663W        W98759  14.702  24.604   0.452
39664W        W98760  18.564  18.055  10.940
39665W        W98761  11.156   2.445  13.060
39666W        W98762  36.528  27.073   0.287
39667W        W98763  19.684  27.677   0.390
39668W        W98764  24.622  22.174   1.349
39669W        W98765  39.495  22.104  11.016
39670W        W98766  24.009  14.729   0.756
39671W        W98767  15.151  27.603  13.431
39672W        W98768  39.044  23.553  11.010
39673W        W98769  43.316   7.243  12.430
39674W        W98770  15.798  20.698  13.520
39675W        W98771   1.862  10.219   1.272
39676W        W98772  41.973   7.751  12.349
39677W        W98773  35.381   8.270  11.088
39678W        W98774  11.762  37.842  14.949
39679W        W98775  32.496  43.515  12.353
39680W        W98776  14.690  35.552  14.346
39681W        W98777  16.675  35.541   1.761
39682W        W98778  15.133   3.389  11.462
39683W        W98779  12.357  23.023   1.242
39684W        W98780   7.249  42.944   3.154
39685W        W98781   3.911  18.669   1.428
39686W        W98782  24.482  12.692  13.826
39687W        W98783  11.812  31.987   2.338
39688W        W98784   4.351  28.523   0.436
39689W        W98785  16.074   4.818   9.928
39690W        W98786   2.872  13.164   0.733
39691W        W98787  10.671  42.295   4.347
39692W        W98788  14.272   6.416   2.322
39693W        W98789  16.094  12.847   1.385
39694W        W98790  21.167  33.928   1.278
39695W        W98791  27.636   8.350   0.777
39696W        W98792   8.735  34.007  10.602
39697W        W98793   3.355  25.650   0.942
39698W        W98794  14.140   1.890   1.421
39699W        W98795  31.901  39.330   4.116
39700W        W98796  20.549  43.982  12.553
39701W        W98797  31.017   0.457   4.788
39702W        W98798  37.833  40.342   0.247
39703W        W98799  34.411  21.062  10.955
39704W        W98800   4.850  28.646   2.194
39705W        W98801  11.741  40.936   1.805
39706W        W98802   7.243   6.238   1.710
39707W        W98803  10.647   2.325  13.794
39708W        W98804  13.147  23.056  12.827
39709W        W98805  32.010  34.524  10.452
39710W        W98806  19.677  40.393  11.116
39711W        W98807  43.803  10.318   2.889
39712W        W98808  30.027   5.856  11.084
39713W        W98809  19.120  17.064   2.254
39714W        W98810   7.803  29.961  13.417
39715W        W98811  35.534  12.707   0.368
39716W        W98812  17.629  31.641   0.778
39717W        W98813  10.742  43.890  14.512
39718W        W98814  19.635  32.002   2.256
39719W        W98815  16.314  41.996   2.717
39720W        W98816   5.307   2.861   1.327
39721W        W98817  14.328  27.508   0.287
39722W        W98818  13.307  29.147  11.981
39723W        W98819  34.505   1.762   3.214
39724W        W98820   3.723  35.968   0.880
39725W        W98821  18.284  26.049   0.338
39726W        W98822   9.773  10.754  13.845
39727W        W98823  34.556  20.583  14.442
39728W        W98824   5.865  37.362  10.414
39729W        W98825  22.515  43.830  10.567
39730W        W98826  35.882   3.227  11.022
39731W        W98827  16.216  32.581  13.413
39732W        W98828  41.311  42.283  13.487
39733W        W98829  29.480   9.384  13.417
39734W        W98830  26.527  22.007  12.907
39735W        W98831  43.497  43.850   1.787
39736W        W98832  32.980   4.720   1.931
39737W        W98833  43.318  42.889  14.020
39738W        W98834   0.919  38.512   2.216
39739W        W98835  18.139  18.711   4.663
39740W        W98836  39.941  41.339   0.865
39741W        W98837  24.139  19.648  13.798
39742W        W98838  11.289   9.802   4.252
39743W        W98839  31.404  21.654   4.835
39744W        W98840  19.537  24.997   0.337
39745W        W98841   9.793  37.479  10.938
39746W        W98842  15.660   9.737   5.178
39747W        W98843  20.178  31.934   3.795
39748W        W98844  20.678  35.963  12.952
39749W        W98845  28.983   4.227  14.870
39750W        W98846  39.898  15.686  12.354
39751W        W98847   3.293  10.826   3.649
39752W        W98848  32.056  44.828  11.440
39753W        W98849  26.206   6.872  11.863
39754W        W98850  34.496  25.062   1.806
39755W        W98851  20.699   1.437   1.764
39756W        W98852  31.561  20.199  12.883
39757W        W98853   6.310   7.269   1.408
39758W        W98854  15.798  36.498  14.860
39759W        W98855  20.737  10.371  12.562
39760W        W98856  26.124  31.912   2.736
39761W        W98857  21.721  15.743  14.393
39762W        W98858  34.504  39.930  11.068
39763W        W98859  18.202  34.408  12.038
39764W        W98860  44.834  35.603   2.866
39765W        W98861  41.504  34.887   1.763
39766W        W98862  32.513  39.011   2.245
39767W        W98863  25.539   0.951  12.501
39768W        W98864   8.716  44.770  14.813
39769W        W98865  28.131  38.010  12.519
39770W        W98866  36.538  27.040   2.852
39771W        W98867   2.923  20.590  10.439
39772W        W98868  37.880  12.345   2.268
39773W        W98869   2.886  29.475   3.321
39774W        W98870  34.957  18.785   0.954
39775W        W98871  30.649  39.919   2.807
39776W        W98872  42.524   0.472  13.436
39777W        W98873  31.645  15.112   2.895
39778W        W98874  23.084  20.112  10.104
39779W        W98875  18.558  29.016   1.798
39780W        W98876  43.360  19.627   4.184
39781W        W98877  31.943  42.016   4.354
39782W        W98878  29.479  44.412   3.636
39783W        W98879  10.280  11.365   3.287
39784W        W98880   5.437   5.348   4.604
39785W        W98881  39.384  22.031   2.234
39786W        W98882  20.565  19.620   0.779
39787W        W98883   8.751  27.541  12.529
39788W        W98884   5.384  29.138   1.805
39789W        W98885  36.435  35.894   1.735
39790W        W98886  16.721  27.673   1.426
39791W        W98887  28.975  39.869  11.906
39792W        W98888   0.838  19.624   4.286
39793W        W98889  35.455  28.586  12.566
39794W        W98890   2.261   1.354   4.324
39795W        W98891   3.783  41.381  14.761
39796W        W98892  34.520  15.705   0.941
39797W        W98893  20.116  38.493  11.863
39798W        W98894   6.758  27.999   2.184
39799W        W98895  11.239  16.100  13.971
39800W        W98896  36.015  18.108   4.665
39801W        W98897  12.246  23.235  12.526
39802W        W98898  35.374  28.100  13.443
39803W        W98899  10.660   2.774  11.065
39804W        W98900  27.450  12.319   3.712
39805W        W98901  38.883  39.446   0.346
39806W        W98902   9.242  21.131   4.675
39807W        W98903  11.198  17.186   0.862
39808W        W98904  22.605  38.571  11.598
39809W        W98905  29.634  43.319   3.855
39810W        W98906  32.050  15.764  12.892
39811W        W98907  33.883  43.507   3.826
39812W        W98908   3.739  39.537   1.233
39813W        W98909  17.093  35.073   3.684
39814W        W98910  25.980  23.498  10.512
39815W        W98911  24.164  25.165  13.544
39816W        W98912  19.159  29.072   2.248
39817W        W98913  34.479   3.319   4.762
39818W        W98914   4.247   6.856  13.926
39819W        W98915  25.529   5.344   0.460
39820W        W98916  16.747  31.984  14.354
39821W        W98917  27.131  22.086   3.678
39822W        W98918  34.079  28.142   5.204
39823W        W98919  30.941  37.402   0.347
39824W        W98920  35.551   6.296   1.411
39825W        W98921  32.397   1.970  11.420
39826W        W98922  27.968  37.529   3.728
39827W        W98923  40.307  31.914  12.942
39828W        W98924   3.238  20.632   4.131
39829W        W98925   2.370  39.945  13.972
39830W        W98926  37.930  11.210  13.050
39831W        W98927  25.057  41.372   3.362
39832W        W98928  12.148  37.985   3.649
39833W        W98929  16.185   7.705   1.813
39834W        W98930  34.601  36.081   2.327
39835W        W98931  28.483  32.584   2.383
39836W        W98932  31.032  28.674   0.851
39837W        W98933  28.454   0.357   0.320
39838W        W98934  26.146   2.775   4.348
39839W        W98935   8.672  14.614  12.509
39840W        W98936  26.967  32.042   0.751
39841W        W98937  13.158  17.166  11.052
39842W        W98938  43.294  14.143   0.747
39843W        W98939  43.908  41.449   2.392
39844W        W98940  32.537  40.860   4.706
39845W        W98941  38.495  39.946  14.343
39846W        W98942  42.396  27.476   3.640
39847W        W98943  36.510   8.211  11.052
39848W        W98944  18.050  35.869   3.865
39849W        W98945  25.525  27.550  13.308
39850W        W98946   1.419  40.459  10.910
39851W        W98947  35.415  10.265  14.824
39852W        W98948  17.069  38.888  14.379
39853W        W98949  41.861  23.632   0.748
39854W        W98950  28.624  16.669  11.516
39855W        W98951   0.758  31.614  14.462
39856W        W98952  36.527  31.416   2.691
39857W        W98953  31.474  24.486  14.282
39858W        W98954  40.963  42.392  10.448
39859W        W98955  31.001  43.400   0.384
39860W        W98956  34.997   8.170   4.160
39861W        W98957  40.522   9.809   3.830
39862W        W98958  13.670  13.343   3.692
39863W        W98959  16.599  44.423  12.507
39864W        W98960  15.110  37.477  14.454
39865W        W98961  43.820  38.970  10.435
39866W        W98962  33.536  42.302   1.443
39867W        W98963  25.151  20.133  12.880
39868W        W98964  14.174  38.350  13.915
39869W        W98965   5.257  15.111  12.552
39870W        W98966  35.372  12.803  12.837
39871W        W98967  20.212  29.968  12.989
39872W        W98968  27.683  24.991   0.423
39873W        W98969  42.414   0.978   1.431
39874W        W98970   8.192  40.965   2.308
39875W        W98971  44.907  32.626  13.371
39876W        W98972   1.399   9.166  14.436
39877W        W98973  44.410   3.947   4.759
39878W        W98974  39.476   0.794   1.262
39879W        W98975  42.011  17.259   3.739
39880W        W98976  43.420  27.046  12.053
39881W        W98977  16.089  27.971   1.311
39882W        W98978  14.154  10.193   5.208
39883W        W98979  24.995  11.166   4.247
39884W        W98980  41.402  13.310  11.027
39885W        W98981   9.804  22.571   0.405
39886W        W98982  34.468   0.393   4.133
39887W        W98983  40.939   0.795   4.133
39888W        W98984  16.735  18.172   4.194
39889W        W98985  26.129  22.190  11.948
39890W        W98986  27.572  26.559   2.749
39891W        W98987  37.499   1.930  13.934
39892W        W98988   8.755  11.135  13.408
39893W        W98989  29.100  40.354   1.411
39894W        W98990  17.708  42.886   4.308
39895W        W98991  29.580   2.886  13.357
39896W        W98992  37.510  36.967   0.779
39897W        W98993  23.720   1.336   1.804
39898W        W98994  31.548  37.500   2.832
39899W        W98995   3.897   9.797   3.272
39900W        W98996  36.381  41.491   3.313
39901W        W98997   8.196  13.202   1.890
39902W        W98998  17.557   2.795  11.034
39903W        W98999  34.479   6.397  14.028
39904W        W99000  29.632  27.058   1.293
39905W        W99001  25.691  39.483   2.234
39906W        W99002  27.459  35.518   2.268
39907W        W99003  22.625   9.688   9.443
39908W        W99004  10.769  18.290  11.466
39909W        W99005  41.994  30.420  13.480
39910W        W99006  25.546  30.433   4.115
39911W        W99007  17.563  14.256  11.981
39912W        W99008  17.127   3.390   2.186
39913W        W99009   1.478  33.070   1.349
39914W        W99010   3.294  39.330   2.371
39915W        W99011  39.949  24.151  11.568
39916W        W99012  41.833  38.400  12.501
39917W        W99013  43.851  11.852  13.937
39918W        W99014  27.033  30.419  14.366
39919W        W99015  16.575  13.798  14.413
39920W        W99016  14.656  29.128  12.470
39921W        W99017  11.853  41.494  13.490
39922W        W99018  16.233  29.107  13.382
39923W        W99019   0.950  43.866  10.900
39924W        W99020  40.349  35.419  11.508
39925W        W99021   2.898  42.460  14.987
39926W        W99022  44.305  18.075   1.856
39927W        W99023  11.217  38.945   1.721
39928W        W99024  41.993  16.205  11.098
39929W        W99025  18.284  18.085  13.927
39930W        W99026  19.237   7.793   2.339
39931W        W99027   2.458   6.283   0.375
39932W        W99028  26.963  27.673  13.466
39933W        W99029   8.789  40.947  10.610
39934W        W99030  42.989  16.125  13.486
39935W        W99031  35.869  14.772  11.439
39936W        W99032  19.729   6.196   3.188
39937W        W99033  35.068   3.375  14.333
39938W        W99034  28.652  32.086  10.917
39939W        W99035  43.773  36.006   3.276
39940W        W99036   2.886  33.124  12.540
39941W        W99037  19.650  31.034  14.416
39942W        W99038   8.286  26.110  11.887
39943W        W99039  19.578  35.401  11.041
39944W        W99040  28.109  37.925   0.350
39945W        W99041  35.038  30.575   3.848
39946W        W99042  44.828  28.654  12.081
39947W        W99043  29.155   5.342  13.493
39948W        W99044  26.643  29.918  10.913
39949W        W99045   2.812  43.357   4.189
39950W        W99046   4.793  27.571   0.253
39951W        W99047  10.633   8.303  13.030
39952W        W99048  11.347  23.687   3.697
39953W        W99049  18.697  11.225   1.396
39954W        W99050  22.533  16.732   3.865
39955W        W99051  33.484  19.118  11.895
39956W        W99052  28.027  24.201   2.296
39957W        W99053  26.529  11.639   3.834
39958W        W99054   9.336  10.332  14.786
39959W        W99055   2.725  27.053  11.989
39960W        W99056  27.970  38.003  13.447
39961W        W99057  33.114  12.290  10.645
39962W        W99058  18.781   2.793   3.781
39963W        W99059  30.000  36.851  10.477
39964W        W99060  12.361  37.833  14.932
39965W        W99061  13.313  24.573  14.306
39966W        W99062  27.195  39.328  11.944
39967W        W99063  10.154  27.183  14.836
39968W        W99064  33.028   7.721  11.568
39969W        W99065  20.131   5.212  12.059
39970W        W99066  17.141  42.467   1.901
39971W        W99067   7.185  22.069  14.961
39972W        W99068   7.821  15.159  13.355
39973W        W99069  42.520  20.117  14.880
39974W        W99070  14.317  33.444   2.765
39975W        W99071  33.104  27.503  11.055
39976W        W99072  37.010  24.105  10.429
39977W        W99073  27.468  44.361  12.827
39978W        W99074  40.986  43.796   4.254
39979W        W99075  21.709  40.475   1.858
39980W        W99076  39.336  40.034  10.512
39981W        W99077  39.065  27.990  12.388
39982W        W99078  37.945  41.937   3.786
39983W        W99079  42.800  10.680   3.336
39984W        W99080   0.317  15.645  13.892
39985W        W99081   1.798  27.456  11.454
39986W        W99082   5.912  31.600   2.723
39987W        W99083  13.294  25.007   3.749
39988W        W99084  12.239  24.040   2.719
39989W        W99085  44.476  25.540   0.285
39990W        W99086  13.733   0.852   2.776
39991W        W99087   9.832   9.832   0.419
39992W        W99088  37.486  18.687  14.782
39993W        W99089  35.855  40.853  14.773
39994W        W99090   4.898  28.973   5.095
39995W        W99091  14.181  19.550   3.222
39996W        W99092  40.410  28.097  11.070
39997W        W99093  12.166  15.606   1.261
39998W        W99094  25.636  15.123   1.722
39999W        W99095  39.924  27.460   3.146
40000W        W99096  41.994   1.420   4.190
40001W        W99097  19.122  33.906   3.794
40002W        W99098  38.950  23.050   4.829
40003W        W99099  20.063   8.216  14.785
40004W        W99100  34.090  12.251   2.745
40005W        W99101   6.793  39.952   2.857
40006W        W99102   0.752  37.956  11.567
40007W        W99103   3.232  22.230   4.337
40008W        W99104   0.927  21.675   1.273
40009W        W99105  29.000  44.482   0.379
40010W        W99106  40.419  14.304   5.318
40011W        W99107  33.534   3.227   3.177
40012W        W99108  42.778  26.173   2.232
40013W        W99109  33.115  33.518   1.322
40014W        W99110  14.242  31.118   0.444
40015W        W99111  40.367  15.117   0.866
40016W        W99112   2.947  14.256  13.041
40017W        W99113  10.250   2.927   1.820
40018W        W99114   8.675  34.579  11.033
40019W        W99115  22.715  10.760  13.834
40020W        W99116  33.551  11.299  12.986
40021W        W99117  27.000  41.312   0.805
40022W        W99118  37.896  18.197   2.729
40023W        W99119   7.909   0.920   9.990
40024W        W99120  44.450   6.809   3.371
40025W        W99121   5.336  40.375  13.318
40026W        W99122  25.697  33.560  14.295
40027W        W99123  40.974  23.700   2.717
40028W        W99124  18.742   4.441   3.256
40029W        W99125  25.625  13.717   0.423
40030W        W99126   8.846  10.195  10.003
40031W        W99127  10.371  38.327  14.393
40032W        W99128  27.615   1.855  14.284
40033W        W99129  14.684  25.549  13.518
40034W        W99130  13.217  23.129   3.380
40035W        W99131  16.314  30.975   1.747
40036W        W99132  12.702  12.117  14.378
40037W        W99133  16.101  16.747   1.853
40038W        W99134   9.361  42.944   3.757
40039W        W99135   6.861   9.215   1.787
40040W        W99136  22.613   1.304  10.603
40041W        W99137  27.057   4.349  11.449
40042W        W99138  29.513  42.356   1.882
40043W        W99139  23.506  41.962  12.409
40044W        W99140  11.823  15.691   4.322
40045W        W99141  41.400   0.379   3.342
40046W        W99142  19.219   9.164   3.239
40047W        W99143  31.101  22.635   0.393
40048W        W99144  20.657  20.660  13.443
40049W        W99145   3.290  38.821   2.837
40050W        W99146  18.603  32.416  12.379
40051W        W99147  42.399  25.065  14.981
40052W        W99148  28.504  21.564   3.829
40053W        W99149  44.339  16.178   5.296
40054W        W99150  29.531  22.118   4.115
40055W        W99151  10.866  16.149  13.336
40056W        W99152  17.657  19.147   1.935
40057W        W99153  34.937   1.296  14.482
40058W        W99154  23.999  44.290   2.253
40059W        W99155  29.975  30.148   3.211
40060W        W99156  31.107  30.128  14.393
40061W        W99157  25.496  36.448  14.012
40062W        W99158  40.043  16.129   2.764
40063W        W99159  35.940  15.816   9.657
40064W        W99160   2.901   7.253   4.756
40065W        W99161   8.799  22.042   0.474
40066W        W99162   6.850  29.919  12.457
40067W        W99163  17.755   3.786  14.999
40068W        W99164  43.293  37.862   2.402
40069W        W99165  24.519  27.505   1.270
40070W        W99166  12.313   5.243   0.926
40071W        W99167  19.585   5.261   0.300
40072W        W99168  40.902  18.137  13.470
40073W        W99169  19.718  28.568   2.248
40074W        W99170  38.044  42.867   2.733
40075W        W99171  38.881  42.949   0.261
40076W        W99172  37.362  25.051  13.053
40077W        W99173  17.140  42.776  10.629
40078W        W99174  27.118  42.291   1.294
40079W        W99175  34.398  12.163  12.486
40080W        W99176   3.943   8.384   0.401
40081W        W99177  13.695  16.781   1.824
40082W        W99178  35.491  21.661   4.823
40083W        W99179   0.944  21.080  14.012
40084W        W99180  21.621  26.643   3.202
40085W        W99181  24.197  42.340   2.238
40086W        W99182  37.925   0.837  12.974
40087W        W99183  41.325  37.377   3.865
40088W        W99184   8.897  19.046   2.185
40089W        W99185  18.267  19.538   4.338
40090W        W99186  35.939  44.875  10.919
40091W        W99187  30.998   4.363   4.766
40092W        W99188  18.214  44.393  13.509
40093W        W99189  31.592  43.418  13.920
40094W        W99190  27.651  16.803   0.908
40095W        W99191   1.299  24.550   2.873
40096W        W99192  39.448   5.886   2.703
40097W        W99193  16.695  19.265   3.693
40098W        W99194  22.006  43.016   4.801
40099W        W99195  35.422   8.706  14.900
40100W        W99196  17.647  44.947  14.446
40101W        W99197  35.929  10.708  12.431
40102W        W99198  21.077  17.783  14.795
40103W        W99199  35.599  39.441  13.964
40104W        W99200   6.262   1.299  13.831
40105W        W99201   9.221  42.341   3.802
40106W        W99202  40.877   1.839  14.963
40107W        W99203  19.675  19.653   0.352
40108W        W99204   8.875  41.029   3.706
40109W        W99205  13.155  12.712   4.838
40110W        W99206  20.108   6.764   2.785
40111W        W99207  17.630  10.295  10.498
40112W        W99208  22.700  39.457  11.559
40113W        W99209  41.388  10.679   4.241
40114W        W99210  42.845  15.690   2.787
40115W        W99211   9.285  18.588   4.279
40116W        W99212  39.328   2.749   1.417
40117W        W99213  14.151  43.972   0.751
40118W        W99214  43.813   4.780  11.566
40119W        W99215  25.048  36.558  10.572
40120W        W99216  22.117  10.783  11.094
40121W        W99217  16.200  21.138   0.408
40122W        W99218  40.365  28.143  12.967
40123W        W99219   2.739  11.623   3.825
40124W        W99220  20.131  37.933   3.863
40125W        W99221  40.932   5.287   1.223
40126W        W99222  37.911   8.846   2.795
40127W        W99223  31.454  17.154  13.495
40128W        W99224  26.976  24.586   1.925
40129W        W99225  28.123  40.349  10.968
40130W        W99226   0.314   8.168  11.549
40131W        W99227   3.788  10.726   0.766
40132W        W99228  18.651  20.616   4.150
40133W        W99229  39.517  20.642   3.689
40134W        W99230  27.660  21.556  11.918
40135W        W99231   1.938  15.626  11.943
40136W        W99232  19.246  32.552   2.388
40137W        W99233  18.150  37.385   1.841
40138W        W99234   0.807  35.108  12.530
40139W        W99235  23.984  21.152  10.970
40140W        W99236   7.805   0.299   0.386
40141W        W99237   7.834   3.788  13.514
40142W        W99238  42.471  11.818   4.163
40143W        W99239  34.940  27.107   3.763
40144W        W99240  30.454   1.429   1.326
40145W        W99241  13.602  33.021  10.522
40146W        W99242   3.719  25.702   1.839
40147W        W99243  13.288   1.844   2.796
40148W        W99244   0.857  27.111   4.750
40149W        W99245  28.026  39.386  11.604
40150W        W99246  37.067  10.217   2.285
40151W        W99247  20.057  44.396   1.893
40152W        W99248  23.113  15.635  11.975
40153W        W99249  43.999  29.663   2.264
40154W        W99250  31.538  19.620  10.429
40155W        W99251  33.967   0.790   0.308
40156W        W99252   1.306   9.810  10.452
40157W        W99253   1.311   1.844   2.351
40158W        W99254  18.153  24.492   1.232
40159W        W99255   8.406  27.501  12.070
40160W        W99256  37.363  39.856  14.866
40161W        W99257   1.284   0.386   2.807
40162W        W99258  27.184  13.269  13.887
40163W        W99259  35.908   5.433   2.854
40164W        W99260  36.984  30.143   3.692
40165W        W99261  31.477   5.725   3.152
40166W        W99262  42.849  35.046   5.202
40167W        W99263   0.903  26.139   3.638
40168W        W99264   9.343   3.844  12.907
40169W        W99265  35.411   1.891  12.957
40170W        W99266  29.530   9.200  10.641
40171W        W99267  27.948   3.420   1.930
40172W        W99268  33.467  35.458   1.410
40173W        W99269   0.479  25.140   4.813
40174W        W99270  38.558  22.603   2.408
40175W        W99271  21.171  10.812   5.649
40176W        W99272   0.414   7.187   2.760
40177W        W99273   7.272  26.098   5.179
40178W        W99274  25.708  20.240   1.732
40179W        W99275  19.734  44.461  10.933
40180W        W99276  17.705  42.409   1.876
40181W        W99277  25.005  22.036  14.365
40182W        W99278  25.208  19.759  14.957
40183W        W99279  36.036  41.390  11.029
40184W        W99280  39.907   1.961   2.407
40185W        W99281   1.448  41.002   3.187
40186W        W99282  23.633  30.024   2.348
40187W        W99283  10.280   8.873  12.986
40188W        W99284  38.423  14.298   5.756
40189W        W99285  36.919  34.502   4.648
40190W        W99286  32.624  42.330  12.549
40191W        W99287  26.640  13.702   2.882
40192W        W99288  30.104  24.624  13.500
40193W        W99289  42.316  35.886  10.432
40194W        W99290  21.192  39.467  13.809
40195W        W99291  14.618  19.554   1.321
40196W        W99292  10.808   4.428  13.442
40197W        W99293  42.409   3.832  11.574
40198W        W99294  42.439  13.626   3.298
40199W        W99295  22.060   6.272   2.667
40200W        W99296   2.759  15.617   2.276
40201W        W99297  21.511  36.977  14.924
40202W        W99298  27.577  28.583  13.835
40203W        W99299  43.334  10.646   1.850
40204W        W99300  34.985  33.948   4.223
40205W        W99301  13.157  42.865  11.999
40206W        W99302   3.834   8.301  14.331
40207W        W99303  43.777   1.357  12.543
40208W        W99304  11.249  12.614  11.391
40209W        W99305  44.899  31.557   0.412
40210W        W99306  35.087  16.568  13.381
40211W        W99307  31.447   8.871   2.314
40212W        W99308  17.064  40.960  14.764
40213W        W99309   6.217  17.741   1.285
40214W        W99310  38.512  35.571  13.364
40215W        W99311   8.360  41.347  14.878
40216W        W99312  26.193  35.582   0.950
40217W        W99313  38.002   5.230   0.905
40218W        W99314  18.731   6.815  13.541
40219W        W99315  43.940  38.483  11.109
40220W        W99316  26.578  39.009   3.165
40221W        W99317  18.213  13.178   0.783
40222W        W99318  33.131  36.956   3.691
40223W        W99319  38.379  39.808   2.210
40224W        W99320  27.655  29.537  12.033
40225W        W99321  33.572  41.353  12.075
40226W        W99322  27.491  38.025  11.115
40227W        W99323  27.472  11.809  10.436
40228W        W99324  11.223   6.902   1.240
40229W        W99325   7.227  16.607  14.333
40230W        W99326   7.901   5.263  13.413
40231W        W99327  15.125  42.863   0.408
40232W        W99328  30.651  17.226   4.336
40233W        W99329   8.741  44.423   1.909
40234W        W99330  36.946  43.892  14.431
40235W        W99331  12.728  15.303   1.322
40236W        W99332  21.230  16.639   0.959
40237W        W99333  26.103  30.004  12.388
40238W        W99334   6.373   4.204  12.574
40239W        W99335  28.170  15.632  12.867
40240W        W99336  16.303  17.749  10.509
40241W        W99337  39.058  40.800   3.838
40242W        W99338  24.039   4.368  13.388
40243W        W99339  40.816  34.037   2.356
40244W        W99340  13.229  39.536   3.729
40245W        W99341  19.603  31.607  12.515
40246W        W99342  15.652  19.258  12.545
40247W        W99343  26.007  22.236   0.921
40248W        W99344  18.151   9.329   9.929
40249W        W99345  14.248  25.161   1.749
40250W        W99346  14.127   5.330  11.534
40251W        W99347   9.784   9.201   1.233
40252W        W99348   0.831  32.985   3.812
40253W        W99349   2.388  31.123  11.418
40254W        W99350   6.353  32.614  11.582
40255W        W99351  18.169   7.824  12.484
40256W        W99352  22.518  37.863   0.802
40257W        W99353   9.852  42.885   3.205
40258W        W99354  24.513  32.969   4.619
40259W        W99355  43.356  41.816   1.297
40260W        W99356  13.624  21.529   4.822
40261W        W99357  42.000   3.316  11.398
40262W        W99358  37.385  15.619   4.336
40263W        W99359  20.768   3.944  14.813
40264W        W99360  36.036   3.238  12.823
40265W        W99361   2.868  27.033   3.713
40266W        W99362  34.087   3.728   0.284
40267W        W99363  15.727   4.218   2.817
40268W        W99364  18.189   7.343  11.599
40269W        W99365  22.237  35.872   4.269
40270W        W99366  43.368  11.246   3.232
40271W        W99367  27.088  29.428  10.439
40272W        W99368  27.607  32.583  10.509
40273W        W99369   0.800  29.028   2.868
40274W        W99370  33.554  23.106  11.468
40275W        W99371  34.483  26.015  12.830
40276W        W99372  41.874  33.469  11.971
40277W        W99373   5.339   9.723  10.981
40278W        W99374  37.916  34.408   2.819
40279W        W99375  22.088  19.195   3.279
40280W        W99376   7.298  27.623  14.789
40281W        W99377  15.122   1.404   3.255
40282W        W99378  23.582  37.392   0.771
40283W        W99379  12.341  32.004   0.835
40284W        W99380  19.648  20.053   1.744
40285W        W99381  21.662  21.233  13.401
40286W        W99382   0.915  28.680  14.977
40287W        W99383  22.187  17.798   1.848
40288W        W99384  41.388  15.603  13.880
40289W        W99385  11.202  37.885   4.349
40290W        W99386   1.373  36.875  11.591
40291W        W99387  13.129  28.561   9.668
40292W        W99388  18.583  38.871  11.430
40293W        W99389   9.873   4.207  14.465
40294W        W99390  18.711  12.207   1.913
40295W        W99391   1.754  32.060  13.503
40296W        W99392  43.403  43.917   4.601
40297W        W99393   8.315  43.408  10.435
40298W        W99394  20.577  12.649   1.308
40299W        W99395  25.509  36.578  12.496
40300W        W99396  21.111   3.294   4.182
40301W        W99397  44.478  15.619  11.953
40302W        W99398  32.442   8.674  12.427
40303W        W99399  16.609   1.299  10.893
40304W        W99400  16.100  14.656  10.458
40305W        W99401  18.108  44.974  14.880
40306W        W99402  42.356  19.120  14.336
40307W        W99403   7.834  15.803  10.420
40308W        W99404   6.184  10.279  10.063
40309W        W99405   7.793   9.383   3.677
40310W        W99406  42.351  31.616  12.413
40311W        W99407  21.620  11.284   1.853
40312W        W99408   4.922  20.585   2.178
40313W        W99409   1.318   9.353  13.044
40314W        W99410  39.923   8.796  13.929
40315W        W99411  24.649  34.392  11.566
40316W        W99412  43.329  17.259  10.507
40317W        W99413  13.135  41.007   0.246
40318W        W99414  35.041  23.022   4.764
40319W        W99415  16.678  41.861   1.845
40320W        W99416  27.470   5.862   4.232
40321W        W99417  37.510  38.333  12.019
40322W        W99418  37.538  18.248   3.295
40323W        W99419  33.523  34.033  13.371
40324W        W99420   5.831  23.238   2.416
40325W        W99421  42.485  36.034  11.467
40326W        W99422   2.457   3.440  10.473
40327W        W99423  16.648  33.014   1.428
40328W        W99424  26.536   5.841  14.988
40329W        W99425  14.234  38.042  14.447
40330W        W99426  27.577  43.418   1.883
40331W        W99427  14.213  21.056  11.455
40332W        W99428   9.344  16.237  14.404
40333W        W99429  35.968  29.646   3.201
40334W        W99430  10.182  44.997   2.853
40335W        W99431  26.506   7.388  13.447
40336W        W99432  25.702  35.055  14.852
40337W        W99433  13.814   1.915   4.246
40338W        W99434  13.244  34.457  13.409
40339W        W99435  39.932  36.589  11.535
40340W        W99436  25.537  26.672   3.810
40341W        W99437  27.555   9.775   4.809
40342W        W99438  32.931   2.737  11.928
40343W        W99439  26.178   7.863  12.868
40344W        W99440  28.009  22.046   4.120
40345W        W99441  26.108   2.903   0.400
40346W        W99442   3.238  29.956   2.760
40347W        W99443  20.161   1.886   2.204
40348W        W99444  40.405   7.328   4.705
40349W        W99445  11.733  31.939   3.324
40350W        W99446  33.555  35.891   0.269
40351W        W99447  18.253  15.660   3.633
40352W        W99448   1.346  36.947   3.254
40353W        W99449  35.372   4.708   3.757
40354W        W99450  38.914   9.214  10.978
40355W        W99451  36.076  37.371   1.832
40356W        W99452   3.297   9.749   3.356
40357W        W99453  40.017  31.413  14.480
40358W        W99454  11.362  30.448   0.408
40359W        W99455  18.130   8.209  11.916
40360W        W99456  42.900   9.337   0.374
40361W        W99457   1.885  39.976  13.792
40362W        W99458  11.223  33.879  12.984
40363W        W99459  41.016   1.900  13.853
40364W        W99460  14.647  27.526   0.806
40365W        W99461  38.899  38.968   4.116
40366W        W99462  35.431  21.582  11.864
40367W        W99463  14.158  11.738   0.801
40368W        W99464   8.860   5.301  11.068
40369W        W99465  42.788  15.123   4.747
40370W        W99466  19.249  17.146  10.634
40371W        W99467  27.630  15.634  12.418
40372W        W99468  24.503  40.007  11.901
40373W        W99469  40.522  10.258   3.648
40374W        W99470  17.657  32.086   2.891
40375W        W99471   0.895   9.249  14.423
40376W        W99472  22.239  29.496   2.327
40377W        W99473  43.011  26.638  12.911
40378W        W99474  33.080   8.820  14.836
40379W        W99475  13.705  12.708   0.815
40380W        W99476  43.332   2.370   3.673
40381W        W99477  20.239  43.441  13.331
40382W        W99478   2.439   0.280   0.361
40383W        W99479  11.329   7.393  14.983
40384W        W99480  20.568  40.420  12.873
40385W        W99481  24.149   0.814  11.085
40386W        W99482  26.081  11.341   2.781
40387W        W99483  21.123  33.532   1.410
40388W        W99484   8.749   4.343  14.282
40389W        W99485   6.872   9.156   2.355
40390W        W99486  30.092   2.313  12.424
40391W        W99487   6.792  19.631  11.599
40392W        W99488   0.406   3.457   1.871
40393W        W99489  28.496  20.055   0.947
40394W        W99490  22.142  44.378   3.692
40395W        W99491   1.750  33.476   3.292
40396W        W99492  18.578  39.880  10.009
40397W        W99493  33.382  20.272  12.572
40398W        W99494  28.660  41.987  13.941
40399W        W99495  44.982  43.017  13.813
40400W        W99496  24.119  28.627  14.898
40401W        W99497  15.644  36.369   3.234
40402W        W99498  22.540  23.572   1.806
40403W        W99499  24.152  42.956   9.970
40404W        W99500  14.706  19.136  10.545
40405W        W99501   6.241  38.841  12.375
40406W        W99502  38.934  33.028  11.606
40407W        W99503  31.008   4.335   3.236
40408W        W99504  24.086   8.813  10.455
40409W        W99505  43.502  13.259  14.408
40410W        W99506  41.522  37.999  11.550
40411W        W99507  19.096   9.191   1.803
40412W        W99508  40.378  39.955  14.493
40413W        W99509  43.461  17.236   3.816
40414W        W99510  43.475  11.677   2.253
40415W        W99511   6.201  26.685   0.266
40416W        W99512  44.328  33.952  13.515
40417W        W99513  37.442   5.257   1.831
40418W        W99514  29.644  27.011   4.244
40419W        W99515  28.638   7.322   4.800
40420W        W99516   5.378  41.534   3.257
40421W        W99517  41.983  39.908  11.590
40422W        W99518   9.388   1.310   2.878
40423W        W99519  31.072  11.771   1.276
40424W        W99520  24.171  16.136  13.905
40425W        W99521  28.569  35.407  12.447
40426W        W99522  10.166  12.757   2.740
40427W        W99523  11.152  42.464   3.717
40428W        W99524  34.472  44.368  12.876
40429W        W99525  25.693  22.683   3.247
40430W        W99526  39.858  28.634  12.465
40431W        W99527   4.269  15.145  14.973
40432W        W99528   6.807  23.101   2.882
40433W        W99529  36.973  17.173  14.344
40434W        W99530  39.928  29.950   0.392
40435W        W99531  28.556  43.278   1.794
40436W        W99532   5.802  19.235  12.459
40437W        W99533  18.276  30.967   2.258
40438W        W99534  31.911  31.617  10.433
40439W        W99535   9.736  20.176  11.523
40440W        W99536  29.465  43.315  14.296
40441W        W99537  43.349  28.564   4.762
40442W        W99538   8.809  33.466   3.167
40443W        W99539  19.705  41.968   3.183
40444W        W99540  10.815  28.651  10.479
40445W        W99541   9.362  15.582  10.111
40446W        W99542  39.430  26.111   0.484
40447W        W99543  17.652  21.044   3.282
40448W        W99544  27.052  40.988   4.275
40449W        W99545  37.870  42.495   1.837
40450W        W99546   5.803  23.527   4.632
40451W        W99547  20.740  18.661  10.893
40452W        W99548   3.266  22.735  13.359
40453W        W99549  28.181  41.882   4.678
40454W        W99550  44.948  28.150   2.376
40455W        W99551  37.448  16.121  11.562
40456W        W99552   8.759  11.205   4.138
40457W        W99553   7.777  17.203  12.977
40458W        W99554   4.210  11.787  13.976
40459W        W99555  44.894  21.580   4.715
40460W        W99556  27.171  30.643   4.143
40461W        W99557  38.470  32.993   4.247
40462W        W99558  36.584  41.975  12.012
40463W        W99559   5.773  17.070   4.734
40464W        W99560  37.990  33.475   0.826
40465W        W99561   1.272  38.338   1.296
40466W        W99562  13.283  31.506  11.466
40467W        W99563  32.498  10.293  11.917
40468W        W99564  23.130   6.849   2.221
40469W        W99565   7.290  19.657  13.045
40470W        W99566  10.359  29.075   2.339
40471W        W99567  19.561   6.736  14.358
40472W        W99568  17.634  26.494  14.302
40473W        W99569  35.983  38.485   2.707
40474W        W99570  29.534  44.287  11.538
40475W        W99571  43.299   5.834   3.798
40476W        W99572  10.815  33.433   4.317
40477W        W99573   8.853  15.708   2.382
40478W        W99574   5.710  39.029  12.070
40479W        W99575   4.804   9.309  11.523
40480W        W99576  20.543  20.258  13.963
40481W        W99577   7.233  12.237  13.040
40482W        W99578  25.708  36.356   2.769
40483W        W99579  35.975  43.006   1.777
40484W        W99580  10.718  16.140  11.909
40485W        W99581  30.042  23.672  10.572
40486W        W99582  32.040  41.441   4.803
40487W        W99583  20.658   2.467  11.595
40488W        W99584  44.504   0.479   2.674
40489W        W99585  21.202  41.469   1.311
40490W        W99586  11.698   8.218   4.296
40491W        W99587  13.661  36.441   5.167
40492W        W99588  12.721  44.882   4.184
40493W        W99589  41.799  34.413  10.082
40494W        W99590   5.734  15.775  11.007
40495W        W99591   3.924   6.306   2.712
40496W        W99592  32.110  38.568   4.118
40497W        W99593  38.492  11.646   5.702
40498W        W99594   8.672   8.388  14.504
40499W        W99595   2.241   1.292  11.420
40500W        W99596  20.059  10.287   4.685
40501W        W99597  19.706  35.855   5.211
40502W        W99598  19.201   8.384   4.332
40503W        W99599  44.489   1.461  13.825
40504W        W99600  33.058   8.352   0.767
40505W        W99601  31.999  31.994   3.276
40506W        W99602  21.713   4.304  11.473
40507W        W99603  13.604  36.362   2.748
40508W        W99604  17.612  15.301  12.485
40509W        W99605  30.152   3.791  14.281
40510W        W99606  17.189  21.626  14.494
40511W        W99607  32.473   5.330   0.918
40512W        W99608   3.449   5.417   3.323
40513W        W99609  17.231   2.880   4.638
40514W        W99610  24.531  12.124   3.242
40515W        W99611  24.042  24.588  13.362
40516W        W99612  23.083  34.107   1.328
40517W        W99613   4.285  35.554  12.868
40518W        W99614  43.488  31.000  14.004
40519W        W99615   3.301  13.821   0.289
40520W        W99616  28.597  43.419  11.860
40521W        W99617  22.594  34.118   1.903
40522W        W99618  12.849   5.207  10.514
40523W        W99619  37.412  26.962  14.789
40524W        W99620  21.255  35.433  12.922
40525W        W99621  26.660   8.269   2.366
40526W        W99622  17.781  30.941   0.842
40527W        W99623  23.993  28.043  12.831
40528W        W99624  23.619  34.001   9.924
40529W        W99625  30.016  36.578  10.959
40530W        W99626  16.258   9.392   1.877
40531W        W99627  31.982  38.069   1.920
40532W        W99628  10.871  18.781   3.350
40533W        W99629   7.695  18.703   4.767
40534W        W99630  17.187  31.130  10.049
40535W        W99631  24.565  25.610   1.923
40536W        W99632  11.820   2.913  13.385
40537W        W99633  20.577  10.818   1.914
40538W        W99634   0.762  19.188   0.852
40539W        W99635  26.671  14.769   1.701
40540W        W99636  29.593  38.370  13.843
40541W        W99637   0.766  10.795   3.796
40542W        W99638  17.076  26.510   2.321
40543W        W99639  25.610  17.307   1.241
40544W        W99640  10.205  36.090  14.889
40545W        W99641  16.723  15.240   4.224
40546W        W99642  14.156  34.977   4.768
40547W        W99643  30.542  14.590   1.210
40548W        W99644   3.810  26.119  12.408
40549W        W99645  37.875  11.664  10.926
40550W        W99646  10.383   7.670  10.608
40551W        W99647  17.068  13.781  12.415
40552W        W99648   4.701  44.900   3.813
40553W        W99649  41.477  19.137   0.245
40554W        W99650  13.649  10.276   1.331
40555W        W99651  25.020   8.279  10.458
40556W        W99652  17.707   0.249  12.468
40557W        W99653   2.775  21.092  11.905
40558W        W99654  18.725  23.074  10.440
40559W        W99655   1.454  23.185   2.778
40560W        W99656  36.566  17.185   2.417
40561W        W99657  15.663  29.459  13.876
40562W        W99658   4.282  22.139   0.790
40563W        W99659  43.002  14.250   5.237
40564W        W99660   0.806  29.652  10.522
40565W        W99661  25.676  17.249   9.941
40566W        W99662  30.469  43.845  14.963
40567W        W99663  21.543  43.443   4.260
40568W        W99664  35.095   5.732  11.437
40569W        W99665  24.503  37.034  14.832
40570W        W99666  41.831  13.273  12.972
40571W        W99667  39.381  15.159   0.454
40572W        W99668  38.426  21.251   4.817
40573W        W99669  23.126  15.619  11.510
40574W        W99670  42.929   4.237  13.981
40575W        W99671  22.673  26.559   3.839
40576W        W99672  28.608  40.537   0.769
40577W        W99673  10.665  29.049   0.356
40578W        W99674  33.946  20.203   4.201
40579W        W99675  17.270  40.315  10.404
40580W        W99676  21.203  17.078  10.991
40581W        W99677  19.547  40.508   2.378
40582W        W99678  25.712  37.021   2.692
40583W        W99679  43.834   8.885  12.009
40584W        W99680  14.278  10.820  10.524
40585W        W99681  38.912  14.304   0.966
40586W        W99682  16.671  21.101  11.113
40587W        W99683   9.264  43.833   3.817
40588W        W99684  38.870  22.662  14.942
40589W        W99685  41.930   8.735  10.429
40590W        W99686  40.841  38.981  14.426
40591W        W99687   5.739  42.820  11.038
40592W        W99688  11.758  37.895   0.482
40593W        W99689   7.249  30.606  11.095
40594W        W99690  28.160  12.124  12.438
40595W        W99691  23.045  12.842   3.173
40596W        W99692   5.212   9.873  11.528
40597W        W99693  27.995  10.284  14.295
40598W        W99694  21.758   4.330  12.066
40599W        W99695  31.086  10.207   4.675
40600W        W99696  18.658  14.816  14.912
40601W        W99697  34.120  17.207   1.445
40602W        W99698  44.457  25.503   1.233
40603W        W99699  11.629  26.459  13.466
40604W        W99700  41.879   0.979  12.569
40605W        W99701  12.132   7.892   4.322
40606W        W99702  36.379   1.885   4.167
40607W        W99703  15.612  39.432  14.998
40608W        W99704  16.319  30.995  10.612
40609W        W99705  11.297  35.965  11.115
40610W        W99706  10.869  39.320   2.793
40611W        W99707  39.363  38.568   3.243
40612W        W99708   2.885  19.273  14.499
40613W        W99709  23.218  18.583  11.084
40614W        W99710  35.094  44.876  12.399
40615W        W99711  32.897  43.864  11.036
40616W        W99712  37.544   2.301   3.687
40617W        W99713   7.818  28.075   5.606
40618W        W99714  32.885  20.750   2.291
40619W        W99715  41.316   9.154  13.044
40620W        W99716  10.226   5.922   0.732
40621W        W99717  44.846  14.623  13.989
40622W        W99718  24.086  39.827   4.779
40623W        W99719   2.391  38.488  12.417
40624W        W99720  44.978  33.398  13.830
40625W        W99721  21.196  37.055   0.846
40626W        W99722  31.053  24.993   0.483
40627W        W99723  30.602  10.752   2.403
40628W        W99724  12.133  31.076  12.475
40629W        W99725   4.205  20.647  11.900
40630W        W99726  27.024  22.238  14.513
40631W        W99727   5.431  34.083  11.604
40632W        W99728   6.846  13.161   3.216
40633W        W99729  42.822  18.122  13.985
40634W        W99730  16.084  22.552   0.831
40635W        W99731  31.607  39.005   3.210
40636W        W99732  38.329  42.820  14.926
40637W        W99733  41.002  44.332   0.472
40638W        W99734  12.240   3.312  13.477
40639W        W99735  31.554   6.211   0.345
40640W        W99736   9.266  28.134  14.453
40641W        W99737  18.654   0.981  13.021
40642W        W99738  14.688   5.403  11.089
40643W        W99739  21.539  39.484   2.270
40644W        W99740  10.697  21.642   3.183
40645W        W99741   8.707  32.893   1.744
40646W        W99742  26.965  21.655  11.982
40647W        W99743  28.484  10.286   1.798
40648W        W99744  32.591  23.026   5.154
40649W        W99745  10.199  15.646  13.537
40650W        W99746   4.372  16.669   3.679
40651W        W99747  35.405   5.849  13.472
40652W        W99748  41.995  25.690  12.346
40653W        W99749   1.449   4.816   2.356
40654W        W99750  32.035  17.709   1.865
40655W        W99751  15.758   1.390   3.843
40656W        W99752   8.222  40.972   3.760
40657W        W99753  22.074   6.336  14.837
40658W        W99754   9.879  34.478   1.813
40659W        W99755  22.638  23.494  14.840
40660W        W99756   0.479  29.613  13.861
40661W        W99757  41.973  18.617  11.440
40662W        W99758  23.042  15.656   3.665
40663W        W99759  23.674   5.343  12.394
40664W        W99760  15.117  22.146   0.920
40665W        W99761  28.510  32.530  10.988
40666W        W99762  23.109  16.669   1.713
40667W        W99763   6.778  25.075   2.673
40668W        W99764   1.959  17.224  10.962
40669W        W99765   5.742   4.220  14.305
40670W        W99766  25.502  13.644   1.267
40671W        W99767  15.242  40.987  14.907
40672W        W99768  26.966   5.224  11.019
40673W        W99769  23.637   9.644  10.574
40674W        W99770  34.098  13.206   4.824
40675W        W99771   1.902   9.708  14.276
40676W        W99772  33.096  37.534  10.411
40677W        W99773  40.983  42.485  13.057
40678W        W99774   2.788   7.691   3.848
40679W        W99775  19.285  25.518   2.197
40680W        W99776  11.275  10.652   1.770
40681W        W99777   0.826  40.463  12.848
40682W        W99778  40.450  23.489   4.206
40683W        W99779   8.244  19.195  12.364
40684W        W99780  30.423  15.653  10.910
40685W        W99781  10.643   6.798  14.899
40686W        W99782  38.470   1.244   1.706
40687W        W99783  18.196  16.253   0.337
40688W        W99784  18.205  25.671  11.108
40689W        W99785  14.230  22.149   3.690
40690W        W99786  27.953  42.448   0.950
40691W        W99787  38.014  19.662  14.352
40692W        W99788  38.943  40.041  11.885
40693W        W99789   7.380   7.784   2.753
40694W        W99790  42.026  38.014  10.489
40695W        W99791  32.979  27.463  10.576
40696W        W99792  20.740   1.245   2.736
40697W        W99793  31.036  21.747   3.740
40698W        W99794  15.101  14.807  12.022
40699W        W99795  21.719  20.675  13.412
40700W        W99796  13.346  33.912   3.202
40701W        W99797  24.559  16.643   2.712
40702W        W99798  23.175  41.926   3.154
40703W        W99799  34.988  12.135   1.787
40704W        W99800   4.904  41.795  14.987
40705W        W99801  18.235  29.135   2.244
40706W        W99802  22.586  24.137  13.526
40707W        W99803   8.224   0.255   4.233
40708W        W99804  12.635   8.348   3.154
40709W        W99805  27.175  19.683  13.470
40710W        W99806  28.530   2.286   0.952
40711W        W99807  42.030  35.898   4.269
40712W        W99808  22.071  15.132   1.323
40713W        W99809  25.055  10.197   2.181
40714W        W99810   9.189  13.807   4.142
40715W        W99811  22.741  44.445  10.123
40716W        W99812  28.069  31.074   0.967
40717W        W99813   5.362  29.630  14.504
40718W        W99814   2.938  41.381   2.256
40719W        W99815  38.897  40.045   4.702
40720W        W99816  31.439  44.849  11.906
40721W        W99817  38.325  16.311  12.035
40722W        W99818  43.466  11.667  12.978
40723W        W99819  25.496  23.220  10.911
40724W        W99820  38.541  18.084  11.533
40725W        W99821  38.443  41.873  10.467
40726W        W99822   0.270  23.995   2.410
40727W        W99823  30.547  43.285  10.568
40728W        W99824   9.693  11.810   0.727
40729W        W99825  15.668  35.576  14.854
40730W        W99826  41.803  17.121  10.605
40731W        W99827   6.300  32.580  10.583
40732W        W99828  22.197  28.060   2.738
40733W        W99829  28.575  37.522   0.296
40734W        W99830  35.886   0.471   3.850
40735W        W99831  14.638  40.308  13.063
40736W        W99832  41.420  34.484   3.708
40737W        W99833  12.295  21.663   3.861
40738W        W99834  28.979  29.008  11.398
40739W        W99835  35.891   2.305  14.803
40740W        W99836  16.194   8.697  10.024
40741W        W99837  43.846  34.015   4.621
40742W        W99838  29.989   0.899  12.369
40743W        W99839  39.518  11.812   1.437
40744W        W99840  17.680   7.363   0.427
40745W        W99841  17.081   4.730  11.064
40746W        W99842  14.688  35.962   5.085
40747W        W99843  34.416  40.948  12.458
40748W        W99844  39.836  26.561  10.576
40749W        W99845  24.486  28.078  12.062
40750W        W99846  42.808  43.297  11.928
40751W        W99847  25.176  16.583  13.403
40752W        W99848  34.004   5.897   0.420
40753W        W99849  32.969  20.672   1.395
40754W        W99850  20.248  20.630   0.748
40755W        W99851   8.385   3.458  13.965
40756W        W99852   0.407   7.385   3.270
40757W        W99853  24.105  41.504  14.344
40758W        W99854  24.644  12.159  11.480
40759W        W99855  38.917  16.748  11.092
40760W        W99856   1.246   8.679   2.782
40761W        W99857  42.788   7.716   3.821
40762W        W99858  16.742  29.153  13.339
40763W        W99859  13.748   9.354   3.354
40764W        W99860  34.112   0.458  13.968
40765W        W99861  29.043  12.660  12.949
40766W        W99862   5.854  37.912  11.569
40767W        W99863  38.067  24.654   2.391
40768W        W99864   8.202   4.737  14.955
40769W        W99865  38.040  42.883  14.939
40770W        W99866   5.879  19.062  14.441
40771W        W99867  20.214  10.247  11.991
40772W        W99868   1.788  27.584   1.727
40773W        W99869   5.323  38.490   2.689
40774W        W99870   1.924  31.916   9.971
40775W        W99871  14.323  28.934  13.876
40776W        W99872  22.072  43.284  12.004
40777W        W99873  42.466   9.863   3.228
40778W        W99874  44.959  31.638  14.994
40779W        W99875  16.304  26.659   2.324
40780W        W99876  35.546   3.291   1.389
40781W        W99877   6.181  31.474  13.949
40782W        W99878   7.824   8.276  13.853
40783W        W99879  30.926  27.620  12.410
40784W        W99880  26.564  42.987  13.395
40785W        W99881  18.790  39.385   2.184
40786W        W99882  39.893  25.986   4.202
40787W        W99883  41.513  37.510  10.612
40788W        W99884  12.682  29.154   2.842
40789W        W99885  14.682   1.479   2.667
40790W        W99886  21.523  29.064  14.360
40791W        W99887   9.247  41.867  12.083
40792W        W99888  17.655  29.099   1.348
40793W        W99889   5.301   0.932  14.427
40794W        W99890  30.560  20.636   0.886
40795W        W99891  23.502  34.421   2.833
40796W        W99892   1.482  11.707  11.411
40797W        W99893  27.993   0.929  13.933
40798W        W99894  32.627   7.821   0.845
40799W        W99895  11.245  42.821   4.309
40800W        W99896  25.085  25.015  12.984
40801W        W99897  14.789  22.706   3.261
40802W        W99898  37.461  20.076  10.455
40803W        W99899  31.501  32.091   1.822
40804W        W99900  27.968  42.862  13.487
40805W        W99901   0.436  41.959   4.124
40806W        W99902   1.827  31.423  12.862
40807W        W99903  19.746  34.572   0.897
40808W        W99904  25.696  14.677   3.810
40809W        W99905  14.333  44.351   0.310
40810W        W99906  13.114  14.714   3.766
40811W        W99907  14.602   5.796  14.977
40812W        W99908  25.663  29.028   1.447
40813W        W99909  17.163   6.866  12.948
40814W        W99910   1.413  30.146  14.326
40815W        W99911  22.013  17.250  13.955
40816W        W99912  31.499  37.571  11.036
40817W        W99913   5.421  30.998   2.781
40818W        W99914  43.800  15.240  14.350
40819W        W99915  15.589  23.112  13.544
40820W        W99916  25.652  44.382   2.198
40821W        W99917   0.365  33.583  13.860
40822W        W99918  19.749   5.267   2.854
40823W        W99919  22.096  31.030  14.911
40824W        W99920  30.118  22.733   0.465
40825W        W99921  24.689  35.416  12.837
40826W        W99922  17.210  21.068  12.847
40827W        W99923  17.219  23.235  14.386
40828W        W99924  10.842  36.078  11.964
40829W        W99925  44.815  32.050  13.388
40830W        W99926  30.550  44.810  11.581
40831W        W99927  35.040  42.289   2.404
40832W        W99928  41.526  25.484   3.676
40833W        W99929  12.767   8.710   1.711
40834W        W99930  37.344  23.720  14.917
40835W        W99931   4.291  37.472  12.094
40836W        W99932  17.091  31.495   4.149
40837W        W99933  24.526  30.046   4.130
40838W        W99934  15.210  39.432   2.307
40839W        W99935  44.757  38.902  14.447
40840W        W99936  35.511  33.931  12.972
40841W        W99937  26.613  26.059  11.105
40842W        W99938  27.971  16.619   3.367
40843W        W99939  38.521  17.739  12.359
40844W        W99940   9.653  36.554   3.749
40845W        W99941  42.384  17.233   4.674
40846W        W99942  39.914  25.026   3.683
40847W        W99943  26.664  10.239   2.674
40848W        W99944  14.300  20.748   4.785
40849W        W99945  25.010  27.643  11.559
40850W        W99946  19.224  13.841  12.410
40851W        W99947   5.338   2.370   0.955
40852W        W99948  27.152   0.378  11.435
40853W        W99949   6.861  33.983   4.293
40854W        W99950  35.364  21.713  11.048
40855W        W99951   0.397  26.510   2.859
40856W        W99952  30.958  37.400   0.784
40857W        W99953  20.048   3.437   1.925
40858W        W99954  23.573  30.027   3.332
40859W        W99955   9.166  34.034   1.782
40860W        W99956   7.821  10.761   1.880
40861W        W99957   0.874  29.596   2.241
40862W        W99958  14.313  26.598  14.497
40863W        W99959  11.364  29.938   2.755
40864W        W99960  17.259  14.248   5.298
40865W        W99961  43.830   8.801  13.343
40866W        W99962  43.508  44.903  11.885
40867W        W99963  36.348  32.887   4.633
40868W        W99964  10.280   2.280  14.321
40869W        W99965  39.921  31.014   0.384
40870W        W99966  23.060  43.853  12.831
40871W        W99967   0.943  20.240   2.359
40872W        W99968   2.248  23.034  11.094
40873W        W99969  26.568  30.164  10.405
40874W        W99970  44.456   2.274   0.729
40875W        W99971  21.242  14.715   1.229
40876W        W99972  27.621  20.041  11.973
40877W        W99973  38.356  30.032   1.382
40878W        W99974  39.491  34.427  10.909
40879W        W99975   6.685  25.635   0.373
40880W        W99976  33.605  40.802   2.786
40881W        W99977  42.302   6.846   2.190
40882W        W99978  11.665   8.737  10.083
40883W        W99979  13.785  42.910   1.290
40884W        W99980   3.788   2.258   0.965
40885W        W99981  21.631   1.885   1.279
40886W        W99982  16.574  43.373   3.796
40887W        W99983   2.755  41.503   4.662
40888W        W99984  24.608  27.556  11.492
40889W        W99985   1.873  24.226   0.247
40890W        W99986  30.976  10.247   1.731
40891W        W99987  39.044   9.334   3.176
40892W        W99988  37.086   9.730   1.338
40893W        W99989  17.560  23.071   4.805
40894W        W99990  38.557   1.779   3.728
40895W        W99991  14.170  14.638   4.179
40896W        W99992   2.380  35.548  14.762
40897W        W99993  10.844  25.491  13.037
40898W        W99994  35.055  33.436  11.994
40899W        W99995  20.045  38.460  12.453
40900W        W99996   8.283  20.578  11.018
40901W        W99997   0.891  34.928  12.865
40902W        W99998   3.398  40.002  11.546
40903W        W99999  24.490  20.584   2.769
40904W        W    0   5.271   4.233  11.856
40905W        W    1  32.121  28.657   1.415
40906W        W    2  11.671  32.081   2.828
40907W        W    3  19.085   2.877  14.008
40908W        W    4  31.079  23.733   2.282
40909W        W    5  40.505   4.355   3.149
40910W        W    6  16.315  15.274   0.401
40911W        W    7  21.512  36.501   1.830
40912W        W    8  36.530  41.361  11.879
40913W        W    9   7.337   4.416   1.403
40914W        W   10  42.827  36.026   4.715
40915W        W   11  44.467  26.168  11.096
40916W        W   12  25.538  33.584  12.974
40917W        W   13  26.599  19.723   1.899
40918W        W   14  32.009   5.904  10.494
40919W        W   15  12.687  12.726   3.765
40920W        W   16  21.595  34.428   0.727
40921W        W   17   0.414  39.553  14.818
40922W        W   18  28.066  18.657  12.897
40923W        W   19  28.550  33.512   2.696
40924W        W   20  32.396  15.707   0.442
40925W        W   21  30.154  37.832  12.453
40926W        W   22   3.288   7.364   1.873
40927W        W   23  12.690  33.466  10.422
40928W        W   24  14.279  19.683  11.000
40929W        W   25  20.075  30.422  11.490
40930W        W   26  10.212  41.926   3.304
40931W        W   27   0.983  23.043  13.858
40932W        W   28  29.653   6.204   1.751
40933W        W   29  34.458   3.329   3.696
40934W        W   30  30.440  41.908  13.920
40935W        W   31  16.783  29.972  14.821
40936W        W   32  33.886  11.814  14.309
40937W        W   33  43.399  15.607   4.750
40938W        W   34  10.692  35.060   3.739
40939W        W   35  37.083  38.825  10.990
40940W        W   36  31.101  34.092  11.563
40941W        W   37   4.446   6.296  12.891
40942W        W   38  34.371  10.304  12.064
40943W        W   39  41.965  25.082   1.448
40944W        W   40  39.985  39.861  11.927
40945W        W   41  34.556  21.736   3.254
40946W        W   42   2.368  17.080  10.139
40947W        W   43   5.770   9.744  13.499
40948W        W   44  25.078  18.640   1.416
40949W        W   45  41.398   4.818  14.913
40950W        W   46  11.284  23.053   2.865
40951W        W   47   6.252  31.925  13.955
40952W        W   48  22.537   0.412  12.074
40953W        W   49  37.895  44.883  13.965
40954W        W   50  21.102   9.681  12.875
40955W        W   51  15.588  14.637   3.249
40956W        W   52  21.105  26.011  10.988
40957W        W   53  39.342   9.370  12.873
40958W        W   54  27.613  40.985   0.918
40959W        W   55  26.065  22.117   2.871
40960W        W   56   6.354  42.412   2.377
40961W        W   57  41.838   7.251  13.314
40962W        W   58   6.861   3.932   4.702
40963W        W   59  27.685  30.045  12.553
40964W        W   60   2.896   4.901  11.117
40965W        W   61  16.720  37.878  10.524
40966W        W   62   1.949  28.657  14.937
40967W        W   63  15.672  41.951  12.580
40968W        W   64  43.801  40.420  13.968
40969W        W   65  33.122   6.330   1.885
40970W        W   66   2.905   8.799   0.859
40971W        W   67   3.267  34.102  13.490
40972W        W   68  32.953  19.657  12.983
40973W        W   69  23.139  37.564   5.145
40974W        W   70  19.597  35.866  13.015
40975W        W   71  14.833   5.213   0.355
40976W        W   72   5.254   4.357  10.972
40977W        W   73   7.217  34.908   3.749
40978W        W   74  33.566  28.510  13.835
40979W        W   75  24.679  18.642  13.500
40980W        W   76  35.913   7.346   0.912
40981W        W   77   1.245   0.785  11.987
40982W        W   78  31.080   1.480  13.370
40983W        W   79   2.412  44.417   2.830
40984W        W   80  43.422  14.822  10.536
40985W        W   81  18.279  31.515   1.402
40986W        W   82  16.601  14.171   0.304
40987W        W   83  22.520  42.961  12.939
40988W        W   84   2.408  22.183   0.871
40989W        W   85  12.661  43.306   4.717
40990W        W   86  44.907  26.170   4.743
40991W        W   87  37.987  11.243   0.954
40992W        W   88  23.628   2.440   4.350
40993W        W   89  12.163  41.824  14.970
40994W        W   90  29.508  22.045  10.562
40995W        W   91  34.386  20.265  12.441
40996W        W   92  18.172  12.219   1.884
40997W        W   93  43.468  15.689  11.504
40998W        W   94   2.893  29.623  12.462
40999W        W   95  20.597   6.771   1.291
41000W        W   96   7.380  15.672   0.946
41001W        W   97  21.179  18.655  14.407
41002W        W   98  27.968  44.967  12.026
41003W        W   99   6.898  41.373  14.819
41004W        W  100  35.443   7.354   2.672
41005W        W  101  43.484   7.882   1.787
41006W        W  102  42.888   2.881  14.419
41007W        W  103   3.891  10.694   1.826
41008W        W  104  22.743   6.879  11.560
41009W        W  105  17.761  20.254  11.419
41010W        W  106   5.341  10.170  11.096
41011W        W  107   8.683  33.506   2.671
41012W        W  108  42.382   3.365   0.816
41013W        W  109  36.933  25.050  14.403
41014W        W  110  26.049  44.950  10.589
41015W        W  111  15.777  31.469  13.894
41016W        W  112  23.240  35.041   1.448
41017W        W  113  28.167  20.611  12.060
41018W        W  114  44.780  43.389  12.959
41019W        W  115   2.446  10.282   0.358
41020W        W  116   1.324  38.026   2.382
41021W        W  117  27.973  19.770   4.607
41022W        W  118  24.575  13.314   2.835
41023W        W  119  17.624   4.288  11.398
41024W        W  120  27.131   3.247   0.875
41025W        W  121  35.920   7.908  11.509
41026W        W  122  17.778   7.860   1.410
41027W        W  123  22.543  24.001   1.326
41028W        W  124  19.724  33.434  10.505
41029W        W  125  19.703  44.476  12.458
41030W        W  126  26.703  22.211   3.207
41031W        W  127  37.405  12.312  10.635
41032W        W  128  36.370  17.249  11.572
41033W        W  129  35.494  12.828  13.486
41034W        W  130  40.373  40.514   4.282
41035W        W  131  13.272  26.125  12.538
41036W        W  132  18.289   1.406  14.414
41037W        W  133  39.812  12.665   1.901
41038W        W  134  11.704  27.121   3.689
41039W        W  135   8.698   7.790   3.643
41040W        W  136   8.335  42.954   1.420
41041W        W  137  43.958   5.923  13.376
41042W        W  138  11.303  25.567   2.665
41043W        W  139  22.189  39.330  13.989
41044W        W  140  31.965  32.439   1.792
41045W        W  141   7.685  27.603   3.760
41046W        W  142  31.017   6.320  12.534
41047W        W  143  44.977  30.525   2.823
41048W        W  144  12.316   1.879  10.609
41049W        W  145  19.606   4.908   4.218
41050W        W  146  18.179  20.175   3.724
41051W        W  147  20.575  28.050  12.349
41052W        W  148  32.480  11.694  14.968
41053W        W  149  18.107  25.530   4.196
41054W        W  150  19.229   8.330  14.391
41055W        W  151  32.547  30.620   1.450
41056W        W  152   7.240   5.228  14.784
41057W        W  153   8.298  32.970  11.578
41058W        W  154   7.773  27.061  13.011
41059W        W  155   7.376   1.952  14.913
41060W        W  156  19.756  42.461   4.799
41061W        W  157  25.665  30.587   9.986
41062W        W  158  22.567  38.824   0.959
41063W        W  159  43.918  16.288  14.783
41064W        W  160  35.531  39.042  12.457
41065W        W  161   2.423   2.905   0.455
41066W        W  162  34.055   7.275  12.990
41067W        W  163  12.161  33.585  14.325
41068W        W  164  25.610  42.995  12.067
41069W        W  165  44.909   3.949   1.315
41070W        W  166  42.373  43.971   2.895
41071W        W  167  43.465  31.573  12.408
41072W        W  168  32.604  16.793   1.273
41073W        W  169  17.749  27.059  13.438
41074W        W  170  31.013  19.627   0.274
41075W        W  171  23.684  38.419   3.729
41076W        W  172  37.869  29.462  10.488
41077W        W  173  13.230  12.264   4.684
41078W        W  174  15.140   2.736  12.398
41079W        W  175   0.909  10.811  10.641
41080W        W  176  24.228   1.885  10.104
41081W        W  177   3.789  28.591   1.933
41082W        W  178  17.779  31.927  11.879
41083W        W  179  31.146  10.320   3.827
41084W        W  180  13.300  32.034   0.886
41085W        W  181  27.171  33.041  13.963
41086W        W  182  24.710  17.615  10.080
41087W        W  183  19.175   1.829   4.623
41088W        W  184  43.926  37.083  14.332
41089W        W  185  22.683  31.509  11.371
41090W        W  186   3.833  43.917  14.321
41091W        W  187  10.356   6.348  12.579
41092W        W  188  38.412  41.995  14.335
41093W        W  189   0.457  29.642   1.278
41094W        W  190  27.186  10.245   4.148
41095W        W  191   9.689  34.053   0.272
41096W        W  192   1.887  21.596   4.650
41097W        W  193   7.696  32.090   2.315
41098W        W  194  41.978  41.464   1.286
41099W        W  195  17.748  10.298   2.415
41100W        W  196  24.561  13.838   0.918
41101W        W  197  14.645  14.331   3.181
41102W        W  198  18.559   0.899  14.838
41103W        W  199  22.056  13.607  12.009
41104W        W  200   2.229  29.449  11.544
41105W        W  201  34.005   8.166  10.496
41106W        W  202   9.770  24.714  12.463
41107W        W  203  18.555  34.976   3.740
41108W        W  204  40.866  26.963  10.627
41109W        W  205  43.515  38.040   1.742
41110W        W  206  41.351   8.169   0.950
41111W        W  207  20.062  30.558   3.782
41112W        W  208  23.519  27.670  14.457
41113W        W  209   8.659  31.989  10.565
41114W        W  210  20.710  35.872  11.044
41115W        W  211  40.826  26.497   4.800
41116W        W  212  19.568  20.565  11.104
41117W        W  213  35.455  42.874  10.532
41118W        W  214   8.695  40.001  12.038
41119W        W  215  41.307  34.051   0.781
41120W        W  216   8.890  32.559   2.191
41121W        W  217  35.886  38.496  14.439
41122W        W  218   4.383  40.307  11.384
41123W        W  219   3.453   2.771  12.025
41124W        W  220  20.651  17.295   1.210
41125W        W  221  26.060  13.216  11.932
41126W        W  222  30.562  32.460  14.322
41127W        W  223  28.540  43.016  12.079
41128W        W  224  33.486  37.450  13.519
41129W        W  225  43.368  28.666   4.150
41130W        W  226  22.676  18.742   3.194
41131W        W  227  31.584   5.851   4.678
41132W        W  228  15.133  34.526  13.491
41133W        W  229  37.517  32.043   1.429
41134W        W  230  12.344  35.470   2.746
41135W        W  231  24.171   0.779  13.914
41136W        W  232  41.913  10.277  10.403
41137W        W  233  31.029  13.235  11.009
41138W        W  234   4.321  30.497   0.435
41139W        W  235   6.746  22.056   5.193
41140W        W  236  42.462  37.848  11.412
41141W        W  237  14.612  33.575  11.917
41142W        W  238  37.545  32.050  13.017
41143W        W  239  29.652   7.186   3.331
41144W        W  240  40.884   8.730  13.314
41145W        W  241  26.176  35.055  13.531
41146W        W  242  22.211  12.180  14.998
41147W        W  243  14.815  38.559   0.369
41148W        W  244   5.895  32.968   1.847
41149W        W  245   3.341  38.983   3.850
41150W        W  246  30.472   8.356  10.514
41151W        W  247  36.845  17.235  14.031
41152W        W  248  16.185  42.804   2.253
41153W        W  249  27.989   3.838  11.387
41154W        W  250  20.210  32.903   2.380
41155W        W  251  19.172  37.086  12.879
41156W        W  252   9.353  44.295  13.497
41157W        W  253  41.306  26.464   0.447
41158W        W  254   8.815  26.096  11.072
41159W        W  255  30.586  41.297   2.759
41160W        W  256  26.552  44.289   0.909
41161W        W  257  33.472  24.694  11.936
41162W        W  258  24.639  21.135  14.771
41163W        W  259  32.063  37.938   1.360
41164W        W  260  25.004   4.313   4.728
41165W        W  261  34.603   9.378  12.017
41166W        W  262  28.107  29.122   4.834
41167W        W  263  13.824  30.640   0.890
41168W        W  264  21.246   5.733   0.755
41169W        W  265   1.445  26.147   3.323
41170W        W  266   0.820  30.506   3.197
41171W        W  267  40.411  41.415  10.479
41172W        W  268  34.383  32.975   1.915
41173W        W  269  26.143  10.807  10.546
41174W        W  270   9.720  33.407  11.439
41175W        W  271   9.786  15.084   9.974
41176W        W  272  41.005  20.572   2.211
41177W        W  273  25.588   5.346   3.178
41178W        W  274   8.876  20.172  10.609
41179W        W  275  32.114  23.236  12.433
41180W        W  276  37.479   1.961   4.352
41181W        W  277  39.495   1.428  14.405
41182W        W  278  24.995  43.442   2.887
41183W        W  279  35.412  13.296  14.465
41184W        W  280  27.455  31.625   3.698
41185W        W  281   4.213  26.019  12.542
41186W        W  282  33.879  19.562   4.818
41187W        W  283  41.343  35.498   2.896
41188W        W  284   4.735  13.699  14.811
41189W        W  285  18.675  25.007   5.290
41190W        W  286  36.954  24.495   1.262
41191W        W  287  44.820   8.220  11.984
41192W        W  288  16.291  23.539  10.482
41193W        W  289   3.330  12.118  12.410
41194W        W  290  43.877   3.824  12.076
41195W        W  291  39.511  43.020   9.964
41196W        W  292  39.410  44.346  12.577
41197W        W  293  11.177  26.955   2.822
41198W        W  294  35.070  43.403   1.341
41199W        W  295   2.362  44.818  14.474
41200W        W  296  42.398   3.902   3.259
41201W        W  297  41.808   1.368   0.322
41202W        W  298  20.258  28.541  11.016
41203W        W  299  41.883  41.894   4.138
41204W        W  300  33.449   1.867   3.832
41205W        W  301  41.440  27.157  13.814
41206W        W  302  42.814   4.378   4.174
41207W        W  303  20.613  30.152  13.353
41208W        W  304  19.055  44.481   4.824
41209W        W  305  24.500  36.419   1.389
41210W        W  306  24.046  29.118   2.723
41211W        W  307  15.148  39.822   3.801
41212W        W  308  33.518  39.967   1.430
41213W        W  309  20.579   2.781  13.437
41214W        W  310  34.071   5.782  14.892
41215W        W  311  12.218   1.468  12.926
41216W        W  312  15.594  22.196   0.445
41217W        W  313  43.919  19.115  13.796
41218W        W  314  38.951  43.999  10.070
41219W        W  315  36.935  27.090  13.941
41220W        W  316  27.994   7.695   3.376
41221W        W  317  10.313  25.538   0.809
41222W        W  318   4.827  42.001  13.049
41223W        W  319   6.210  18.613   4.696
41224W        W  320   9.788  13.703   3.683
41225W        W  321  13.809   0.970   4.187
41226W        W  322  30.655  39.063  12.095
41227W        W  323  24.003  23.124   0.838
41228W        W  324  23.178  34.061  10.620
41229W        W  325   4.839  12.662  11.066
41230W        W  326  32.428  22.039  10.068
41231W        W  327  25.516  19.628   0.735
41232W        W  328  35.058   6.876   4.215
41233W        W  329  21.542  16.736   3.297
41234W        W  330  16.294   0.466   2.390
41235W        W  331   5.702  16.241   3.751
41236W        W  332   8.219  26.559  13.885
41237W        W  333  24.176  11.171  14.454
41238W        W  334  12.304  37.067   4.803
41239W        W  335  10.872  36.869   1.275
41240W        W  336  21.532   1.268  14.780
41241W        W  337  43.301  13.143   4.235
41242W        W  338  24.176  23.148   4.627
41243W        W  339  10.668  40.442   1.260
41244W        W  340   4.723   7.724  12.446
41245W        W  341  17.775  36.362   0.942
41246W        W  342  33.977   8.689   3.276
41247W        W  343   8.657  38.477   3.241
41248W        W  344  13.164   6.333   2.317
41249W        W  345  13.740  10.640  12.987
41250W        W  346   1.782  13.609   2.357
41251W        W  347   0.268  32.117  12.440
41252W        W  348  35.553  13.189   4.694
41253W        W  349  32.628  32.543  11.414
41254W        W  350   5.927  33.582  14.029
41255W        W  351  28.526  34.583   5.180
41256W        W  352  13.639  12.138  12.548
41257W        W  353  30.491  32.561   4.182
41258W        W  354  29.112  11.798  14.897
41259W        W  355  36.570  22.548  13.061
41260W        W  356   6.691  31.589  11.887
41261W        W  357  36.438  19.258   0.418
41262W        W  358  37.074  37.018  14.466
41263W        W  359  38.499   8.331   1.229
41264W        W  360  33.542  24.153  12.988
41265W        W  361  40.860  12.217   0.749
41266W        W  362  44.388  27.093  13.481
41267W        W  363  21.661  43.421   4.631
41268W        W  364  27.538  20.157   3.331
41269W        W  365   0.755  39.518  10.978
41270W        W  366   3.907  24.576  12.007
41271W        W  367  22.513  36.464  10.614
41272W        W  368  17.275  33.561  12.918
41273W        W  369   2.323  20.054   3.788
41274W        W  370  31.486  14.096  13.907
41275W        W  371  16.603   2.257  11.991
41276W        W  372  41.016  33.017   3.365
41277W        W  373  24.617  26.614  11.062
41278W        W  374  10.296  10.700  13.064
41279W        W  375  36.966   6.375  12.399
41280W        W  376  29.647  28.611  12.391
41281W        W  377   8.779  34.982   1.902
41282W        W  378  37.904  22.008   4.248
41283W        W  379   3.449  36.891  11.553
41284W        W  380  39.417  27.481  12.532
41285W        W  381  40.321   5.344  14.416
41286W        W  382  19.717  42.994  12.863
41287W        W  383   5.801   5.778  11.579
41288W        W  384  41.312  31.633  12.516
41289W        W  385  13.726  40.406  14.006
41290W        W  386   7.822  23.698   0.286
41291W        W  387   1.294  38.562   3.839
41292W        W  388  11.697  10.780   2.388
41293W        W  389  32.919   1.923  13.035
41294W        W  390  26.662  42.979   3.361
41295W        W  391  18.678  39.821   4.260
41296W        W  392  15.605   2.392  10.953
41297W        W  393  15.818  17.098   4.346
41298W        W  394   9.711  29.927  12.834
41299W        W  395  40.813  12.337   2.795
41300W        W  396  32.901  22.614   3.681
41301W        W  397  13.736  31.113   1.318
41302W        W  398  36.560  11.362   5.113
41303W        W  399  15.712  44.754   4.785
41304W        W  400   8.878  43.887   1.228
41305W        W  401  23.732  41.495   1.392
41306W        W  402  38.859  20.044  10.556
41307W        W  403  13.159   6.268   5.291
41308W        W  404  27.997  14.656  13.342
41309W        W  405  34.406  34.063  14.402
41310W        W  406  32.097  26.538   1.329
41311W        W  407  21.228  38.556  14.981
41312W        W  408  14.629  25.165   3.158
41313W        W  409   6.714   0.876  14.929
41314W        W  410  38.361  15.126   2.880
41315W        W  411  13.774  16.570  14.781
41316W        W  412  37.877  37.380   3.153
41317W        W  413  11.228  24.082  14.827
41318W        W  414  23.107  23.021   0.350
41319W        W  415  22.569  31.009  10.982
41320W        W  416  39.820  15.143  13.492
41321W        W  417  37.339  12.228   3.638
41322W        W  418   3.349  16.204  12.009
41323W        W  419   5.746  44.764   3.146
41324W        W  420  16.184  25.162  10.492
41325W        W  421  42.965  20.579   1.334
41326W        W  422  37.920   8.359  10.483
41327W        W  423   5.827   7.885  11.377
41328W        W  424  27.627   9.244   4.669
41329W        W  425  28.499  17.252   4.335
41330W        W  426  40.997  32.933  12.476
41331W        W  427  27.082  22.139   2.786
41332W        W  428  34.430  24.550  13.792
41333W        W  429  24.213  35.509   4.777
41334W        W  430  34.377  15.252   0.752
41335W        W  431  44.939  20.564  14.451
41336W        W  432   1.913  12.280   3.184
41337W        W  433  26.185  13.314   4.160
41338W        W  434  31.046  43.369   1.725
41339W        W  435  32.505  38.062  10.604
41340W        W  436  16.631  13.702  11.956
41341W        W  437  44.806  16.707  14.997
41342W        W  438   4.724  16.107   2.837
41343W        W  439  38.915  16.587   0.904
41344W        W  440  33.016  28.969   3.237
41345W        W  441  29.535  30.951  10.415
41346W        W  442  24.579  17.555   4.821
41347W        W  443  31.094  29.447   4.282
41348W        W  444  34.088  26.975   9.661
41349W        W  445  36.037  18.719  14.859
41350W        W  446  42.486  22.206   1.439
41351W        W  447   8.687  37.899  12.570
41352W        W  448  36.448  26.532  11.564
41353W        W  449   6.421  20.158  14.821
41354W        W  450  13.325   8.357   0.416
41355W        W  451  12.323  19.139   1.817
41356W        W  452   6.305  28.597  13.422
41357W        W  453  23.008  33.472   1.383
41358W        W  454  11.232   1.934  14.847
41359W        W  455  30.536   3.315   0.918
41360W        W  456   6.418  35.086  12.402
41361W        W  457   7.386  27.671  11.573
41362W        W  458  16.197  10.207  14.482
41363W        W  459   5.372  34.921   4.340
41364W        W  460  25.498  14.115   4.624
41365W        W  461  35.506  34.611  14.827
41366W        W  462  23.991   3.779  13.489
41367W        W  463  11.823  32.901  10.489
41368W        W  464  21.257  27.452  14.822
41369W        W  465   9.714  12.680  10.901
41370W        W  466  20.102  31.928  10.939
41371W        W  467  17.630  13.846   3.714
41372W        W  468  40.427   5.728  14.983
41373W        W  469  23.133  43.979   3.849
41374W        W  470  15.295   4.371   1.696
41375W        W  471  36.558  19.261  14.456
41376W        W  472  38.511   3.233   1.236
41377W        W  473  44.769  31.624   2.842
41378W        W  474  21.048  44.395   3.751
41379W        W  475  41.532  13.270   4.225
41380W        W  476  39.391  18.553   4.211
41381W        W  477  27.080  14.326  12.841
41382W        W  478  25.983   7.347   4.656
41383W        W  479  43.404  19.715   3.716
41384W        W  480  39.516  30.082  10.503
41385W        W  481  37.496  40.886   4.786
41386W        W  482  26.960  22.612   4.137
41387W        W  483  25.616  26.663  10.507
41388W        W  484  11.636  25.187  10.568
41389W        W  485  35.993   7.232   0.336
41390W        W  486  26.208  12.665   4.662
41391W        W  487  42.502  19.080   2.808
41392W        W  488   2.884  13.258   4.353
41393W        W  489  33.615  27.634   3.767
41394W        W  490  36.055  32.074   3.738
41395W        W  491  15.630  39.489   4.795
41396W        W  492  22.150  34.483   3.826
41397W        W  493  14.298  10.713  12.342
41398W        W  494   9.178  11.686   1.715
41399W        W  495  44.975  43.910   4.750
41400W        W  496  35.908   5.736  14.811
41401W        W  497  44.273  33.428  13.325
41402W        W  498  21.589  23.028  13.938
41403W        W  499  18.239   1.346   1.728
41404W        W  500  42.433  40.533   2.326
41405W        W  501   7.760  24.608  13.437
41406W        W  502  37.999  38.940  14.783
41407W        W  503   5.822  30.452   0.745
41408W        W  504   5.803   3.924  11.996
41409W        W  505  12.302  35.997   4.662
41410W        W  506  17.116  15.703   1.862
41411W        W  507   5.221  20.049   3.216
41412W        W  508  41.841   7.416  11.055
41413W        W  509   5.775  44.328   0.407
41414W        W  510  40.869  43.516  10.466
41415W        W  511  30.444  40.960   2.673
41416W        W  512  36.354  35.085  11.598
41417W        W  513  44.440  23.240  14.884
41418W        W  514  13.282  39.497   0.769
41419W        W  515  44.974  44.261  12.086
41420W        W  516  23.672  21.128   0.470
41421W        W  517   1.824   0.406   3.235
41422W        W  518  34.615   7.410  14.468
41423W        W  519  43.856   6.799  14.808
41424W        W  520  27.618  43.395  13.394
41425W        W  521   0.967  20.655  12.372
41426W        W  522  41.816  11.299   0.276
41427W        W  523  39.349  10.336  11.415
41428W        W  524  15.190   6.199  13.020
41429W        W  525  27.621  15.611   9.960
41430W        W  526  20.082  14.703  14.941
41431W        W  527  30.955  44.877   0.855
41432W        W  528  40.858  19.537  11.048
41433W        W  529  29.161   2.330   3.226
41434W        W  530  42.838  38.952   2.840
41435W        W  531  14.782  40.539   2.330
41436W        W  532  10.379  29.616   3.678
41437W        W  533  25.601  42.348   0.319
41438W        W  534  41.839  10.263   3.287
41439W        W  535   7.309   0.398  12.432
41440W        W  536   5.860  20.747   0.962
41441W        W  537  43.459  19.609  11.510
41442W        W  538   0.948   3.429   0.856
41443W        W  539  23.574  27.653   1.712
41444W        W  540  18.766  13.231  12.387
41445W        W  541  18.110  32.066  11.441
41446W        W  542  23.490  44.931  14.359
41447W        W  543   4.771   4.934   1.299
41448W        W  544  10.843  40.368  14.516
41449W        W  545  34.416  13.317   5.183
41450W        W  546  41.867   9.162   2.757
41451W        W  547   9.732   6.796  12.894
41452W        W  548  44.443  36.576  11.383
41453W        W  549  20.062  10.265  10.558
41454W        W  550   4.368  17.765  14.492
41455W        W  551   8.397  33.399  11.409
41456W        W  552  31.066  32.494   0.908
41457W        W  553  40.031  22.997   4.309
41458W        W  554  30.053  25.667   2.737
41459W        W  555  32.431  12.714   1.408
41460W        W  556  27.153  13.639   2.368
41461W        W  557  10.239  20.150   2.373
41462W        W  558  15.759  30.002  14.278
41463W        W  559  40.396  13.219   2.685
41464W        W  560  33.413  34.047  10.438
41465W        W  561  30.614  24.561   2.233
41466W        W  562  11.154  36.445  12.533
41467W        W  563  29.612  14.690   2.406
41468W        W  564  26.545  23.552   2.260
41469W        W  565  42.305  43.368   1.325
41470W        W  566  35.945   2.313   3.810
41471W        W  567   0.485  35.397   1.319
41472W        W  568  15.675  19.076  10.600
41473W        W  569   0.917  40.445  14.856
41474W        W  570  10.787  35.461   2.217
41475W        W  571  32.133  42.493   1.402
41476W        W  572   7.368  11.841  14.779
41477W        W  573  39.387  35.534   3.159
41478W        W  574  43.318  26.505  14.913
41479W        W  575   3.412   4.441  11.085
41480W        W  576  15.126  13.765  11.573
41481W        W  577   1.432  12.219   0.376
41482W        W  578   0.848  30.461   1.852
41483W        W  579  15.285   7.413  12.568
41484W        W  580  28.100   2.256   2.405
41485W        W  581   4.402  22.662   0.858
41486W        W  582  28.548  19.055  11.008
41487W        W  583  12.727  27.940  10.995
41488W        W  584   6.898  34.930   3.231
41489W        W  585  17.742  27.953   3.248
41490W        W  586  28.436  18.562   5.707
41491W        W  587  38.437  14.617  14.800
41492W        W  588  40.451   4.242   0.249
41493W        W  589  16.149   0.402  14.300
41494W        W  590   2.469  25.063   0.876
41495W        W  591  38.862  24.701  12.050
41496W        W  592  20.064  15.646  13.890
41497W        W  593  43.844   0.420   4.228
41498W        W  594   4.381  39.007   0.404
41499W        W  595  29.598  40.540   0.826
41500W        W  596  29.643   7.815  11.508
41501W        W  597  21.110  31.997  14.996
41502W        W  598  28.508  11.322  10.896
41503W        W  599   9.245  22.134   1.866
41504W        W  600  16.128  11.252   4.218
41505W        W  601  41.793  14.734  11.380
41506W        W  602  32.986  13.811   1.327
41507W        W  603  31.572  33.393   2.388
41508W        W  604  31.533  39.341   0.782
41509W        W  605  37.520  26.030  13.351
41510W        W  606   0.374   9.765  14.309
41511W        W  607  37.346  34.014   1.763
41512W        W  608  30.481  10.212  10.971
41513W        W  609   4.439  24.159   0.734
41514W        W  610  19.623  10.162   2.413
41515W        W  611   2.923  27.176   4.353
41516W        W  612  13.176  38.429  13.938
41517W        W  613  13.736  43.007  12.341
41518W        W  614  31.144  33.071  14.842
41519W        W  615  33.556  32.488   2.289
41520W        W  616   5.297  17.647  14.859
41521W        W  617   4.204  11.706   2.873
41522W        W  618  16.204  21.755   1.354
41523W        W  619  40.999  23.661   0.745
41524W        W  620  19.651   8.325   1.799
41525W        W  621  37.479  34.894   4.775
41526W        W  622  18.592  27.620  12.064
41527W        W  623   1.301  16.724  13.847
41528W        W  624  18.717  13.154   0.474
41529W        W  625  14.189  28.546   4.622
41530W        W  626  17.172  14.764   2.407
41531W        W  627   5.785   6.729  13.499
41532W        W  628  35.110  18.118   3.283
41533W        W  629  21.107   9.243   4.155
41534W        W  630   1.354   2.804   1.887
41535W        W  631  39.984  16.215  11.569
41536W        W  632  29.064  16.725   4.837
41537W        W  633   8.208  33.541   1.315
41538W        W  634  42.356   4.231  10.567
41539W        W  635  27.162   0.828   9.948
41540W        W  636   6.228  13.212  11.084
41541W        W  637  28.174   2.377   1.788
41542W        W  638  12.186  36.402  11.583
41543W        W  639  31.463  20.591  12.472
41544W        W  640  33.401   7.221   3.276
41545W        W  641  18.183   2.859  14.466
41546W        W  642  12.785  11.152  10.935
41547W        W  643  33.496  44.334  14.965
41548W        W  644  30.449  24.582   3.667
41549W        W  645   4.381  21.037  14.469
41550W        W  646  20.195  28.067  11.575
41551W        W  647   6.893   2.318  13.950
41552W        W  648  33.594  19.135  12.848
41553W        W  649   1.260  12.666   0.727
41554W        W  650  31.620  12.286  12.559
41555W        W  651   7.400   1.775   4.321
41556W        W  652  40.475   5.373   2.728
41557W        W  653  26.035  40.396  14.391
41558W        W  654  38.448  32.525   2.268
41559W        W  655  35.412  35.027   1.383
41560W        W  656   9.666  13.113  11.518
41561W        W  657  30.003   0.917  12.979
41562W        W  658   9.655  35.369   0.321
41563W        W  659  25.155   8.274   0.297
41564W        W  660  36.982  20.719   0.732
41565W        W  661  40.322  37.543   3.675
41566W        W  662  18.077   6.864  10.905
41567W        W  663  36.476  23.093  11.398
41568W        W  664  12.657  28.151  10.480
41569W        W  665   8.726  36.457   1.851
41570W        W  666   3.301  14.830   3.715
41571W        W  667  18.239   3.938   0.478
41572W        W  668  20.554  42.933   2.243
41573W        W  669   6.312  24.974   4.135
41574W        W  670  21.149  38.460   3.296
41575W        W  671  18.619  32.529   1.249
41576W        W  672  37.531  33.494  12.552
41577W        W  673  15.194  31.140   4.285
41578W        W  674  35.920  29.096  14.002
41579W        W  675  10.803  23.985   4.307
41580W        W  676  14.204  20.239  11.480
41581W        W  677  39.953  29.152  13.830
41582W        W  678  13.665  40.401  13.355
41583W        W  679  32.104  35.364   4.277
41584W        W  680   1.823  30.567  10.627
41585W        W  681  29.954  43.454  11.935
41586W        W  682  37.943  36.958   2.665
41587W        W  683   3.758  44.436   2.687
41588W        W  684   6.916  32.435  13.978
41589W        W  685  41.428  24.020   4.779
41590W        W  686  38.515  31.583  10.945
41591W        W  687  21.223  33.904   4.621
41592W        W  688   9.778   9.326  11.541
41593W        W  689  25.711  33.942  11.609
41594W        W  690  12.622  31.077   2.707
41595W        W  691  17.224   9.703   3.866
41596W        W  692  34.513  11.806  10.958
41597W        W  693   7.866  32.526   0.891
41598W        W  694   9.774  22.065  11.448
41599W        W  695  17.766  11.626  14.431
41600W        W  696  39.948  11.714   4.756
41601W        W  697  31.041  34.077   4.122
41602W        W  698   5.734  15.600   2.235
41603W        W  699   6.785   1.462  12.932
41604W        W  700  22.250   5.914  10.516
41605W        W  701   5.878  37.578   0.731
41606W        W  702  32.957  21.569  12.554
41607W        W  703  39.496  35.600   0.455
41608W        W  704  29.132  32.551  10.574
41609W        W  705   4.318  29.958   1.295
41610W        W  706  11.320  15.167  10.610
41611W        W  707   0.951  20.245  12.863
41612W        W  708  41.320  26.671  10.614
41613W        W  709  37.365  39.822  12.416
41614W        W  710  41.392   2.896  14.509
41615W        W  711  19.747  37.500  14.439
41616W        W  712  14.692  31.946  11.862
41617W        W  713  30.487   6.682  14.352
41618W        W  714   7.759  22.034  13.963
41619W        W  715   4.312  27.973  10.016
41620W        W  716   4.450  40.541  14.828
41621W        W  717   9.170  10.263  13.475
41622W        W  718  15.255   2.278  13.462
41623W        W  719   6.917  41.445   1.443
41624W        W  720  32.532  29.042   1.349
41625W        W  721  39.042  33.874   1.762
41626W        W  722  35.456  14.776   1.370
41627W        W  723   6.330  14.110  13.368
41628W        W  724   2.268  24.603   0.822
41629W        W  725   2.359  44.407   5.215
41630W        W  726  20.535  16.232  12.413
41631W        W  727   9.701   6.882  11.957
41632W        W  728  16.804  35.478  10.093
41633W        W  729  25.552   9.748  14.421
41634W        W  730  23.985  25.171  14.786
41635W        W  731  33.900   6.910  14.284
41636W        W  732   5.364   9.683  14.326
41637W        W  733  19.749  38.833  12.989
41638W        W  734  41.538   8.202   1.823
41639W        W  735  37.489  24.143   5.094
41640W        W  736  14.270  27.657   1.813
41641W        W  737  10.230  19.766   3.715
41642W        W  738   0.954   0.472   3.865
41643W        W  739   7.260   8.678  13.834
41644W        W  740  30.910  10.277   3.289
41645W        W  741  16.317  42.022  11.976
41646W        W  742  42.784  23.233  13.408
41647W        W  743   2.465  19.623   2.811
41648W        W  744  20.708  19.159   2.210
41649W        W  745  12.322  11.305  11.563
41650W        W  746  21.522  12.340  13.443
41651W        W  747  13.242   3.256  11.457
41652W        W  748  17.205  33.443   2.890
41653W        W  749  25.160  18.581   2.814
41654W        W  750  19.754  17.687  14.939
41655W        W  751  42.936  17.154   5.216
41656W        W  752  34.939  42.889  11.949
41657W        W  753   6.767  31.535   0.765
41658W        W  754  31.572  35.374   0.288
41659W        W  755  28.646  39.474  10.916
41660W        W  756  31.051   6.802   1.430
41661W        W  757  13.625  22.721  13.385
41662W        W  758   0.760   8.268  14.921
41663W        W  759  22.552  27.596   4.300
41664W        W  760  19.714  34.888  10.950
41665W        W  761  43.413  30.138   3.353
41666W        W  762  14.313  29.920  10.899
41667W        W  763  37.966  13.341   3.164
41668W        W  764   1.863  13.789   4.324
41669W        W  765   5.735  22.534   4.752
41670W        W  766  17.775  18.615   4.274
41671W        W  767  39.362   9.281   3.669
41672W        W  768  13.715  34.418  10.966
41673W        W  769  13.286  24.082   2.341
41674W        W  770   3.314  12.643  11.103
41675W        W  771   2.912  35.566  10.996
41676W        W  772  13.764  21.171   9.924
41677W        W  773   7.877  17.170   0.936
41678W        W  774  28.025  22.532  14.463
41679W        W  775  41.899  31.640  14.330
41680W        W  776  26.497  30.939   5.291
41681W        W  777  14.227  34.059   4.229
41682W        W  778   7.748  29.927  12.564
41683W        W  779  12.154  22.691   4.133
41684W        W  780  37.920  20.563   4.323
41685W        W  781   2.459  31.020  12.025
41686W        W  782  41.978  11.797  11.959
41687W        W  783   6.868   0.338  12.916
41688W        W  784  43.440  22.124   3.310
41689W        W  785   4.448  41.891   4.654
41690W        W  786  20.568  44.845  10.464
41691W        W  787   3.933   3.327  14.023
41692W        W  788  12.329  13.611  11.488
41693W        W  789  32.519  20.138  10.950
41694W        W  790  22.083  27.597  11.918
41695W        W  791   5.808   2.840   2.181
41696W        W  792   0.432  19.228  12.872
41697W        W  793   7.808  24.130   1.298
41698W        W  794  29.627  16.197  11.909
41699W        W  795   2.879  38.348  13.860
41700W        W  796  41.832  40.390   1.920
41701W        W  797  34.504  25.019  10.137
41702W        W  798  41.892  20.214  13.060
41703W        W  799   5.690   0.299   1.237
41704W        W  800  43.831  17.275  12.926
41705W        W  801  29.918  17.295   0.298
41706W        W  802   6.867  38.497  13.379
41707W        W  803  13.755  16.233  13.416
41708W        W  804  14.722  11.757  11.439
41709W        W  805  22.671  36.492   0.734
41710W        W  806  30.150  37.065   1.784
41711W        W  807  27.563  37.419   1.700
41712W        W  808  19.092   4.727   2.861
41713W        W  809  11.151   2.339  11.919
41714W        W  810   6.317  42.407  10.636
41715W        W  811  20.750  12.626  12.449
41716W        W  812  18.602   1.779   2.790
41717W        W  813  15.598  12.354   2.662
41718W        W  814   8.362  26.178  10.998
41719W        W  815   2.743  43.856  13.046
41720W        W  816  29.650  15.702   4.692
41721W        W  817  14.210  25.512  11.545
41722W        W  818  24.620  28.677   1.845
41723W        W  819  28.971  36.944   4.228
41724W        W  820  10.147  12.150  14.843
41725W        W  821   9.675  30.079   3.262
41726W        W  822  16.289  11.671  14.999
41727W        W  823  10.829  15.771  14.366
41728W        W  824  20.580   2.302   3.719
41729W        W  825  27.123  40.855  13.971
41730W        W  826  14.606  39.495   2.817
41731W        W  827  44.389  14.803   4.744
41732W        W  828  43.480  21.621   1.778
41733W        W  829  27.484   3.353   1.312
41734W        W  830  29.442  38.382  14.281
41735W        W  831   2.232  15.236   0.778
41736W        W  832  37.336  13.213   4.804
41737W        W  833  16.129  34.029   2.214
41738W        W  834  37.338  26.556   5.177
41739W        W  835  21.637   6.253  10.942
41740W        W  836  16.074   6.792   3.284
41741W        W  837  19.616  32.537   2.375
41742W        W  838   0.364  27.057  10.474
41743W        W  839  36.365  20.096   3.337
41744W        W  840  26.686  29.442   2.894
41745W        W  841   5.735   2.811  11.046
41746W        W  842  28.523  37.071   1.926
41747W        W  843   7.256  14.321   3.281
41748W        W  844   8.707  25.211   2.724
41749W        W  845  23.195   1.478  14.375
41750W        W  846   2.783  37.512  14.481
41751W        W  847  26.067  10.680  12.486
41752W        W  848  19.186  24.077   2.263
41753W        W  849   8.248  30.596  13.958
41754W        W  850  41.361   9.302   2.821
41755W        W  851  32.497  20.147   0.783
41756W        W  852  44.275  33.540   3.261
41757W        W  853  12.172  14.688   4.660
41758W        W  854  30.011  19.691  13.332
41759W        W  855   8.381  20.550   0.775
41760W        W  856  21.663  17.247   1.262
41761W        W  857  23.131  41.398   3.244
41762W        W  858   0.452  38.031   2.345
41763W        W  859  24.144   5.269  12.354
41764W        W  860   6.848  24.581   1.896
41765W        W  861  21.663   7.187  12.390
41766W        W  862   2.958  12.119   1.326
41767W        W  863  25.982  36.955  11.476
41768W        W  864  17.174  41.406  13.461
41769W        W  865   2.840  21.662   0.365
41770W        W  866  36.852   3.259  11.443
41771W        W  867  27.197  21.565   1.803
41772W        W  868  16.666  26.959   0.277
41773W        W  869   1.423  10.149   1.211
41774W        W  870  20.724  34.410  14.925
41775W        W  871  14.156  40.035   2.809
41776W        W  872  21.700  13.252  14.294
41777W        W  873  12.234   2.317   3.720
41778W        W  874  40.018  17.687  14.361
41779W        W  875  12.143  41.501  14.512
41780W        W  876  37.340  22.210   3.260
41781W        W  877  41.455  32.481  13.913
41782W        W  878  43.814  37.570   2.747
41783W        W  879  14.135   5.897   3.364
41784W        W  880  34.928  11.811   3.864
41785W        W  881  43.874   0.404   0.934
41786W        W  882   6.287  35.879   5.114
41787W        W  883   8.829  26.600   4.800
41788W        W  884  30.975  39.408  14.317
41789W        W  885  32.613  19.637   2.855
41790W        W  886  36.915   4.262  12.573
41791W        W  887   9.167   1.871   1.771
41792W        W  888   0.920  11.627   2.185
41793W        W  889  23.687  32.636   1.278
41794W        W  890  22.529  41.423   2.670
41795W        W  891  26.059  17.124   2.864
41796W        W  892   2.432  25.141   3.645
41797W        W  893  44.387  34.494   3.356
41798W        W  894  28.583  34.497  14.003
41799W        W  895  18.649   7.782  12.021
41800W        W  896  30.028   3.270   0.832
41801W        W  897  17.621  16.618  14.952
41802W        W  898  19.616  20.664  14.848
41803W        W  899  32.114  26.470   3.232
41804W        W  900   4.228  33.892   0.244
41805W        W  901   3.832   9.834   4.686
41806W        W  902  16.287  23.032  12.026
41807W        W  903  41.921  24.609  10.917
41808W        W  904  39.901   6.723   2.404
41809W        W  905  18.083   4.282   4.250
41810W        W  906  38.056  35.575  14.787
41811W        W  907   3.949  27.151  12.561
41812W        W  908  41.315  16.106  11.121
41813W        W  909  42.922  38.837   3.809
41814W        W  910  34.375  32.588   4.655
41815W        W  911  20.710  28.568  12.508
41816W        W  912  41.453  27.953   4.322
41817W        W  913   0.282  21.060   0.404
41818W        W  914  36.078  31.573   1.236
41819W        W  915   5.723   4.385   3.755
41820W        W  916  39.846  28.061   1.230
41821W        W  917   3.738   6.854  10.433
41822W        W  918  31.453  32.462   0.965
41823W        W  919  10.841  24.579  12.957
41824W        W  920   9.279  31.564   2.253
41825W        W  921  15.791  29.434   0.301
41826W        W  922   4.425  12.362  12.503
41827W        W  923  40.450  26.088   0.959
41828W        W  924  29.966  38.869  11.383
41829W        W  925   1.745  32.014  14.005
41830W        W  926  24.722  41.351   0.882
41831W        W  927  10.737  14.658   3.802
41832W        W  928  31.138  41.533  14.955
41833W        W  929  18.238  17.615   1.422
41834W        W  930  27.660   0.475   4.121
41835W        W  931  17.758   8.839   5.255
41836W        W  932  16.670  18.234  11.534
41837W        W  933  11.713  34.908   0.761
41838W        W  934  28.568   7.370   1.924
41839W        W  935   8.731  31.430   4.238
41840W        W  936   7.287  42.397  11.550
41841W        W  937  21.158  22.105   3.288
41842W        W  938  30.448  13.783   1.318
41843W        W  939   0.952  10.288  13.838
41844W        W  940  32.947   8.363  11.100
41845W        W  941  26.991  41.409   1.367
41846W        W  942  44.876  14.176   1.429
41847W        W  943  20.558  24.540   4.315
41848W        W  944  31.089  26.521   1.798
41849W        W  945  20.606   1.756   3.732
41850W        W  946  30.582   9.766  12.929
41851W        W  947   2.738  26.004   2.274
41852W        W  948   9.699  11.242   2.400
41853W        W  949  23.719  43.908   4.165
41854W        W  950  12.643   1.789   2.367
41855W        W  951   8.898  40.439  12.874
41856W        W  952  37.494  21.717  13.323
41857W        W  953  25.597  34.086   0.311
41858W        W  954   1.431   1.447  13.053
41859W        W  955  28.148  32.006  12.429
41860W        W  956  20.720  20.760   0.924
41861W        W  957  41.878  41.837  10.976
41862W        W  958  29.606  26.531   2.231
41863W        W  959  29.465  26.526   5.129
41864W        W  960  13.795  22.637  11.100
41865W        W  961  18.545  23.510   4.179
41866W        W  962  44.885  12.615   3.701
41867W        W  963  10.737  43.873  11.942
41868W        W  964  29.003  42.949   4.705
41869W        W  965  37.512  29.151   2.389
41870W        W  966  38.998  16.271   1.825
41871W        W  967  18.081  14.699  12.404
41872W        W  968  30.631  42.965  10.042
41873W        W  969  38.395  39.347  11.539
41874W        W  970  29.426  29.498   3.234
41875W        W  971  43.818  35.064  14.896
41876W        W  972   3.941   4.730   3.339
41877W        W  973  27.681  36.906   3.834
41878W        W  974  20.569  23.635   1.724
41879W        W  975  25.540   0.388  12.001
41880W        W  976  22.619  33.584  12.545
41881W        W  977   0.832  15.086  12.453
41882W        W  978  17.651   1.900  14.406
41883W        W  979  36.587  33.944   2.858
41884W        W  980  13.153  26.498   3.819
41885W        W  981  23.995  43.007   0.384
41886W        W  982  29.974  26.522  13.444
41887W        W  983  43.516   4.885  12.028
41888W        W  984  37.846  15.153   1.370
41889W        W  985  11.650  16.145   2.784
41890W        W  986   9.858  33.894   4.701
41891W        W  987  35.889  20.227   1.820
41892W        W  988  11.139  35.553   2.766
41893W        W  989  21.546  22.690   0.371
41894W        W  990  32.569  26.966  11.990
41895W        W  991  26.119   6.209   4.252
41896W        W  992  19.630  29.438  13.543
41897W        W  993  32.545  17.773   2.189
41898W        W  994  26.070  12.246   1.437
41899W        W  995  23.051  29.168  14.915
41900W        W  996  11.802   8.678  14.454
41901W        W  997   8.238   9.317   3.833
41902W        W  998  25.187  29.526  12.080
41903W        W  999  34.405  41.844  10.943
41904W        W 1000  39.055   7.363  13.845
41905W        W 1001  29.547  34.995  12.578
41906W        W 1002  28.638  40.993  12.418
41907W        W 1003   4.396  23.557   2.214
41908W        W 1004  33.957  31.080   0.824
41909W        W 1005  26.607   8.278  11.063
41910W        W 1006  33.906   7.707   0.727
41911W        W 1007   0.378  29.625  14.789
41912W        W 1008  40.805  33.952   1.411
41913W        W 1009   0.336  40.817  11.079
41914W        W 1010  35.866   6.921   4.733
41915W        W 1011  36.543  36.033   2.249
41916W        W 1012  44.816  23.239  13.421
41917W        W 1013  32.120  39.011   3.220
41918W        W 1014   8.362  19.686  14.414
41919W        W 1015  27.643   7.739   0.482
41920W        W 1016   0.318  30.514  10.639
41921W        W 1017  41.027  35.890   0.758
41922W        W 1018  16.142  25.134   3.630
41923W        W 1019  19.168   5.217  12.854
41924W        W 1020  33.398   3.846  14.784
41925W        W 1021  41.496  16.784  13.941
41926W        W 1022  44.298  39.315  14.338
41927W        W 1023  30.582  43.868   2.327
41928W        W 1024   1.467  38.552   1.837
41929W        W 1025  15.240   8.671   3.309
41930W        W 1026  16.146  39.961  10.621
41931W        W 1027  34.116  28.987   4.749
41932W        W 1028  25.987   5.774  11.870
41933W        W 1029  16.165  25.032  12.426
41934W        W 1030  37.493  38.863   1.428
41935W        W 1031  12.327  20.655  14.409
41936W        W 1032  11.828  17.668   3.801
41937W        W 1033  36.557  27.512  12.010
41938W        W 1034  15.743  19.696   0.875
41939W        W 1035  34.096  10.347   0.889
41940W        W 1036  22.104  13.295   4.131
41941W        W 1037  36.591  17.149  12.896
41942W        W 1038  30.607  42.835   0.918
41943W        W 1039  26.641  11.142  10.991
41944W        W 1040   6.314  43.856   3.829
41945W        W 1041  36.090  41.530   1.312
41946W        W 1042   1.785   2.966  11.610
41947W        W 1043  12.277  14.807   3.365
41948W        W 1044  34.463  11.338   3.848
41949W        W 1045  13.236  34.487   1.747
41950W        W 1046  28.085  17.661   1.319
41951W        W 1047  14.733  40.487   4.242
41952W        W 1048  16.183  33.938   2.810
41953W        W 1049   0.387  12.755  13.861
41954W        W 1050  22.222  22.569  11.389
41955W        W 1051  15.807  18.195   1.889
41956W        W 1052  10.279   4.316   2.236
41957W        W 1053  26.701  42.927   0.848
41958W        W 1054  41.347  44.324   2.240
41959W        W 1055   2.448  37.388  12.858
41960W        W 1056  39.426  29.082  14.318
41961W        W 1057   3.859  43.831  11.000
41962W        W 1058  20.560  26.511  12.878
41963W        W 1059  27.138  16.742  12.444
41964W        W 1060  37.055   7.259   1.738
41965W        W 1061   3.337  14.646  11.930
41966W        W 1062   9.725  25.544   0.831
41967W        W 1063  40.526   4.921   3.199
41968W        W 1064  41.508  14.335   3.779
41969W        W 1065  24.521   9.191  12.013
41970W        W 1066  19.584  39.353   4.227
41971W        W 1067   0.386  16.181  14.468
41972W        W 1068  33.461  24.552  14.371
41973W        W 1069   8.667  15.712  12.407
41974W        W 1070  17.779  18.275  13.850
41975W        W 1071  11.650  23.116  11.495
41976W        W 1072  34.575  12.832  10.010
41977W        W 1073  12.293  39.941  12.442
41978W        W 1074  26.207  44.883  13.414
41979W        W 1075   8.700  12.757  10.993
41980W        W 1076  26.097  40.004   1.394
41981W        W 1077  38.049  12.712   1.380
41982W        W 1078  28.121   7.802   2.903
41983W        W 1079  27.493  10.164  12.351
41984W        W 1080   0.971   5.803   4.213
41985W        W 1081  28.669  19.551   3.841
41986W        W 1082   8.739  44.009   2.308
41987W        W 1083   3.769  11.345  13.314
41988W        W 1084  34.403  31.591  11.026
41989W        W 1085  32.575  43.374   0.783
41990W        W 1086  41.320  38.355   2.311
41991W        W 1087  37.360  11.762   1.765
41992W        W 1088  15.301  39.520  11.870
41993W        W 1089  10.317  13.828   1.426
41994W        W 1090  12.714  25.202   1.293
41995W        W 1091  12.785  39.036  12.947
41996W        W 1092   3.382  34.480  12.903
41997W        W 1093  12.357  25.178   4.213
41998W        W 1094  44.397  22.517   4.757
41999W        W 1095  11.344  29.082  13.037
42000W        W 1096  15.084  25.560  11.526
42001W        W 1097  13.660  43.302  14.777
42002W        W 1098  22.030  29.022  14.795
42003W        W 1099  26.526   6.865   4.732
42004W        W 1100   3.721  26.065   5.292
42005W        W 1101   9.765  38.980   1.902
42006W        W 1102   5.758  15.178   1.908
42007W        W 1103   0.439  18.643   2.229
42008W        W 1104  10.661  13.247   1.347
42009W        W 1105  25.053  31.032   0.439
42010W        W 1106  39.056  22.745   5.102
42011W        W 1107   1.472   7.886  10.583
42012W        W 1108   9.848  18.152   1.841
42013W        W 1109  17.730   0.750  11.462
42014W        W 1110  30.943  17.132  14.902
42015W        W 1111   1.947  17.741  12.028
42016W        W 1112  43.386  16.685   0.728
42017W        W 1113   8.365   7.382   2.880
42018W        W 1114  21.720   5.821   1.215
42019W        W 1115  13.348  20.767  10.937
42020W        W 1116  31.451   2.830  13.038
42021W        W 1117  17.304  24.198   4.201
42022W        W 1118   3.826  32.027   1.856
42023W        W 1119  20.734   2.791  11.927
42024W        W 1120  35.883  21.734  10.980
42025W        W 1121   8.729  11.174   0.293
42026W        W 1122   1.346  26.055   4.266
42027W        W 1123  29.631  26.095  14.021
42028W        W 1124  10.281  44.481  11.953
42029W        W 1125   6.197  13.158   0.784
42030W        W 1126  16.681   0.863  10.893
42031W        W 1127   1.255  43.017  12.367
42032W        W 1128  20.534  26.624  10.627
42033W        W 1129   4.762  30.088  14.020
42034W        W 1130  42.417   6.847  10.419
42035W        W 1131  20.762  28.647   1.723
42036W        W 1132  43.770  28.036   0.920
42037W        W 1133   5.711  38.508   1.318
42038W        W 1134  24.052  24.042  12.095
42039W        W 1135   7.219  39.874  11.035
42040W        W 1136  21.136  37.546   5.262
42041W        W 1137  35.971  34.532   4.191
42042W        W 1138  28.952  33.012   9.976
42043W        W 1139  10.834   0.868  14.797
42044W        W 1140  30.614  16.688  14.378
42045W        W 1141  41.346  41.310  12.962
42046W        W 1142   1.826  44.371  11.467
42047W        W 1143  14.121   7.875   3.644
42048W        W 1144  18.189  36.894  10.067
42049W        W 1145  19.261  29.045   0.419
42050W        W 1146   3.795  26.627   0.913
42051W        W 1147  30.968  33.391  13.003
42052W        W 1148   3.928  44.398   0.381
42053W        W 1149   2.874  29.621   0.773
42054W        W 1150  30.928  36.396   1.407
42055W        W 1151  37.951  22.700   4.217
42056W        W 1152  15.809  36.881  14.983
42057W        W 1153   9.259  16.088   5.680
42058W        W 1154  36.503  20.737  11.421
42059W        W 1155  18.608  18.635   4.298
42060W        W 1156   5.364  38.549  13.939
42061W        W 1157  36.916  19.174  14.781
42062W        W 1158  33.028  24.985  13.040
42063W        W 1159   1.265  22.106  11.582
42064W        W 1160  36.553  25.539  10.534
42065W        W 1161  37.880   3.828   0.466
42066W        W 1162  27.679  24.146   4.190
42067W        W 1163  28.184  22.202  13.027
42068W        W 1164  32.902  20.531  14.501
42069W        W 1165  16.238   9.710  13.332
42070W        W 1166  30.659  42.440   2.766
42071W        W 1167   6.276  36.962  11.598
42072W        W 1168   6.887   3.948   3.357
42073W        W 1169  14.175   8.373   0.286
42074W        W 1170  42.465   8.751   3.327
42075W        W 1171   9.192  32.402  14.941
42076W        W 1172  11.207   6.410   2.204
42077W        W 1173  40.367  12.212  13.823
42078W        W 1174  28.652  12.274  13.890
42079W        W 1175  20.622  10.806   5.603
42080W        W 1176   8.733  29.433   2.240
42081W        W 1177  22.622  11.785  13.331
42082W        W 1178  19.049  29.958   1.873
42083W        W 1179  43.985  33.511  12.899
42084W        W 1180  21.096  31.999  12.933
42085W        W 1181  39.843  44.792   0.911
42086W        W 1182  25.150  14.735  13.456
42087W        W 1183  12.244  35.055  14.989
42088W        W 1184  38.831  42.503   2.394
42089W        W 1185  26.002  21.572   2.338
42090W        W 1186   5.434   4.800  12.482
42091W        W 1187  25.216  31.072   1.900
42092W        W 1188   9.861  42.338  10.424
42093W        W 1189   6.324   6.349   4.346
42094W        W 1190  25.218   7.879   4.134
42095W        W 1191  25.688  30.971   4.635
42096W        W 1192  34.519   4.243   3.721
42097W        W 1193  15.620   2.256  12.048
42098W        W 1194  41.789   6.893  11.025
42099W        W 1195   5.835  20.067   0.420
42100W        W 1196   6.300  38.556   3.184
42101W        W 1197  43.998  11.152   3.284
42102W        W 1198  15.583   5.374   1.324
42103W        W 1199  43.795  36.852   3.648
42104W        W 1200   4.326  21.571   3.361
42105W        W 1201  23.077   9.732  14.970
42106W        W 1202  38.949   2.840   2.858
42107W        W 1203  22.625  13.242  10.436
42108W        W 1204   8.786  27.057  13.383
42109W        W 1205   3.230  16.185   4.206
42110W        W 1206  24.558  34.454   2.415
42111W        W 1207  42.842  29.068  10.963
42112W        W 1208  41.478  21.176   2.670
42113W        W 1209  35.583  22.689  10.635
42114W        W 1210  41.972  35.923   5.218
42115W        W 1211  36.584  15.786   5.310
42116W        W 1212  27.567  19.067   4.756
42117W        W 1213  37.536  35.087  10.459
42118W        W 1214  10.796  42.344   4.620
42119W        W 1215  11.360  14.665   5.639
42120W        W 1216  23.724  23.063   3.650
42121W        W 1217  18.551  22.572  13.477
42122W        W 1218  44.466   1.335   1.258
42123W        W 1219  10.699  44.447   3.853
42124W        W 1220  22.616  38.985  12.860
42125W        W 1221   5.767   6.855  12.559
42126W        W 1222  36.454  34.533   0.920
42127W        W 1223   5.806  23.064   9.514
42128W        W 1224  25.061  29.033  13.814
42129W        W 1225  27.501  26.467   1.913
42130W        W 1226  22.600   0.931  14.439
42131W        W 1227   9.172   1.440   1.918
42132W        W 1228   3.768  14.750   3.677
42133W        W 1229  29.430  14.276   3.649
42134W        W 1230  20.606  13.346  14.806
42135W        W 1231   2.759  43.338  12.001
42136W        W 1232   9.722  41.787   3.349
42137W        W 1233   3.837  22.106   1.845
42138W        W 1234   1.942   9.675   4.710
42139W        W 1235  28.606  13.201   2.881
42140W        W 1236  18.106  26.497   3.319
42141W        W 1237   2.278  38.458  12.854
42142W        W 1238  33.116  35.013  12.062
42143W        W 1239  18.277  30.118   4.706
42144W        W 1240  40.425  41.982  12.947
42145W        W 1241  21.236   4.729  11.059
42146W        W 1242  31.100   8.762  11.495
42147W        W 1243  26.998  34.586  10.907
42148W        W 1244   7.173  22.721  14.366
42149W        W 1245  44.902  24.509   1.736
42150W        W 1246  16.131  39.996   4.165
42151W        W 1247  39.478   3.946  10.625
42152W        W 1248  28.955  44.417   2.734
42153W        W 1249  19.163  14.602   3.186
42154W        W 1250   0.454   5.232  10.498
42155W        W 1251  44.895   7.785   1.900
42156W        W 1252  40.913  19.261   2.727
42157W        W 1253   7.718  36.461   1.340
42158W        W 1254  44.473  35.423   1.220
42159W        W 1255  11.191   9.838   3.364
42160W        W 1256   2.309  16.162  14.357
42161W        W 1257   7.717   2.805   2.193
42162W        W 1258  12.171  16.647  13.817
42163W        W 1259   0.447   2.440   0.388
42164W        W 1260  42.998  41.909   4.631
42165W        W 1261  18.262  38.500   2.193
42166W        W 1262  35.594  28.574  13.366
42167W        W 1263  33.488  34.521  11.032
42168W        W 1264   1.440   0.771  13.895
42169W        W 1265  10.715   2.345   2.840
42170W        W 1266   7.860  29.543  11.487
42171W        W 1267  23.039   4.218  12.867
42172W        W 1268  18.271  34.013  12.959
42173W        W 1269  36.499   4.911  10.912
42174W        W 1270  14.799  34.063   4.337
42175W        W 1271  42.977  37.034   3.205
42176W        W 1272  10.851  44.822  12.488
42177W        W 1273   6.853  43.406   4.132
42178W        W 1274   4.930  22.171  12.854
42179W        W 1275  19.047  37.895   4.661
42180W        W 1276  27.462  10.826  11.388
42181W        W 1277  20.196  38.865  13.029
42182W        W 1278  16.290   6.199   4.263
42183W        W 1279  10.336  40.918   0.952
42184W        W 1280  25.688  27.051  10.508
42185W        W 1281   7.887   8.198  10.613
42186W        W 1282  23.489  29.146   2.669
42187W        W 1283   9.676  34.611  11.085
42188W        W 1284  17.711  38.035  10.552
42189W        W 1285  19.143   3.903  11.378
42190W        W 1286   3.225  21.063   3.796
42191W        W 1287  29.952  33.000   4.186
42192W        W 1288  27.184   3.814  13.829
42193W        W 1289  25.153  44.798   3.322
42194W        W 1290  36.495   1.345   0.405
42195W        W 1291  42.343   5.696  12.863
42196W        W 1292  19.657  40.801   3.166
42197W        W 1293  29.158   4.941   4.612
42198W        W 1294   1.943  41.969  14.816
42199W        W 1295  12.808  19.226  12.542
42200W        W 1296  23.514  16.756   1.722
42201W        W 1297  21.548  40.970   2.233
42202W        W 1298   9.842   6.689   3.683
42203W        W 1299  20.273   5.363  14.937
42204W        W 1300  26.993  25.636   4.798
42205W        W 1301  40.959  12.293  13.453
42206W        W 1302  35.552  16.245  13.311
42207W        W 1303  22.601   4.237   1.870
42208W        W 1304  33.011  29.639  14.919
42209W        W 1305  17.610   7.758   0.882
42210W        W 1306  42.413  27.557   1.373
42211W        W 1307  29.594  43.008  12.988
42212W        W 1308  14.300  17.102   4.821
42213W        W 1309  42.310  17.159  11.882
42214W        W 1310  16.627  41.845  13.987
42215W        W 1311  36.027   6.807   0.470
42216W        W 1312   8.164  30.610   1.279
42217W        W 1313   8.743  41.026   3.238
42218W        W 1314  17.748  42.397   0.331
42219W        W 1315   4.702   9.331  11.036
42220W        W 1316  19.685   9.285   2.724
42221W        W 1317  10.858  14.250   3.804
42222W        W 1318  36.552  41.336  12.566
42223W        W 1319  14.727  29.171   4.771
42224W        W 1320  38.563  37.437  11.922
42225W        W 1321  20.641   3.351   1.280
42226W        W 1322  11.822  29.467  12.968
42227W        W 1323  33.923   3.232   3.192
42228W        W 1324  26.562   1.310   2.767
42229W        W 1325  42.381   9.731   0.476
42230W        W 1326   6.238  17.595  12.009
42231W        W 1327  32.016  28.607   1.782
42232W        W 1328  12.658  40.474   4.666
42233W        W 1329  36.509   7.807   0.353
42234W        W 1330  10.368   8.399   4.332
42235W        W 1331  26.174  10.776  13.909
42236W        W 1332   5.366  41.896   2.197
42237W        W 1333  44.411  21.628   0.310
42238W        W 1334  10.147  20.627   1.933
42239W        W 1335   2.372  36.508   1.298
42240W        W 1336  27.584  24.515   2.291
42241W        W 1337  24.028  32.460  10.403
42242W        W 1338  38.491  15.784  12.090
42243W        W 1339  18.051  11.373   2.889
42244W        W 1340   2.759  18.208  13.838
42245W        W 1341   4.777  42.806  11.114
42246W        W 1342   9.770  32.106   3.842
42247W        W 1343   7.371  38.325   3.716
42248W        W 1344  30.533  37.837  10.525
42249W        W 1345  20.226  38.883   4.203
42250W        W 1346  17.595  24.515   2.826
42251W        W 1347  26.627  33.485  14.371
42252W        W 1348  26.973  41.388  13.453
42253W        W 1349   9.316  37.980   1.343
42254W        W 1350   9.862  12.261  14.784
42255W        W 1351  17.706  28.496  12.536
42256W        W 1352  10.841   7.322  13.454
42257W        W 1353  40.432  31.037  11.467
42258W        W 1354   0.386   1.330  14.299
42259W        W 1355  41.483  38.520  12.495
42260W        W 1356   0.401   3.940  14.851
42261W        W 1357  11.128  15.811   0.838
42262W        W 1358  36.076  37.878  14.442
42263W        W 1359   5.298  23.027  14.760
42264W        W 1360  34.563  43.440   0.289
42265W        W 1361  18.556  44.766   2.193
42266W        W 1362  32.462   5.439   3.280
42267W        W 1363  19.565   2.454   4.287
42268W        W 1364   8.378  23.139  13.038
42269W        W 1365  38.932  39.887   0.246
42270W        W 1366  33.544  26.185   3.749
42271W        W 1367  22.157  34.023   4.226
42272W        W 1368  34.106  25.999  13.463
42273W        W 1369   6.732  15.751  11.600
42274W        W 1370  34.888   1.451  12.459
42275W        W 1371   7.876   4.340   3.319
42276W        W 1372  24.983  41.411  12.929
42277W        W 1373   0.817  16.207   1.730
42278W        W 1374  19.601  28.478  11.125
42279W        W 1375  21.080  40.377  10.900
42280W        W 1376  26.627  36.938  13.485
42281W        W 1377  17.557  29.980   4.131
42282W        W 1378  35.957  24.974   5.237
42283W        W 1379  22.234  17.113  12.036
42284W        W 1380  10.760  13.686   2.832
42285W        W 1381  10.634  10.812  14.023
42286W        W 1382  16.150  25.640   0.429
42287W        W 1383  21.234  42.808  12.888
42288W        W 1384  36.899   8.833  14.009
42289W        W 1385  35.468   1.950   0.269
42290W        W 1386  38.393  36.461   0.876
42291W        W 1387  40.445  11.864  10.478
42292W        W 1388  41.974  22.565   0.471
42293W        W 1389  42.783  39.020  14.493
42294W        W 1390  28.634   1.437  11.559
42295W        W 1391  21.580  13.180   2.805
42296W        W 1392  44.758  10.847  12.550
42297W        W 1393  29.032  38.439   0.249
42298W        W 1394  44.390  11.770   1.388
42299W        W 1395  15.615  11.139   2.834
42300W        W 1396  18.270   7.891  11.371
42301W        W 1397  34.055  13.694  13.021
42302W        W 1398  20.615   8.276   3.761
42303W        W 1399  20.179   5.765  10.116
42304W        W 1400   9.394   6.313   0.876
42305W        W 1401  17.578  31.072  11.873
42306W        W 1402   4.240  25.144   5.672
42307W        W 1403  27.448  33.496  13.846
42308W        W 1404  16.642  18.550   2.900
42309W        W 1405  33.469  43.867   3.775
42310W        W 1406  26.607  15.317   3.819
42311W        W 1407  39.005  14.728   5.220
42312W        W 1408  30.596  24.485  13.934
42313W        W 1409  22.621  21.153   0.464
42314W        W 1410  31.984  14.123  12.976
42315W        W 1411  34.377  31.982   4.156
42316W        W 1412   0.965  13.126   1.362
42317W        W 1413  36.490  29.486  10.944
42318W        W 1414  29.988  40.434  10.613
42319W        W 1415  15.599  42.969  11.984
42320W        W 1416  20.597  20.225   3.285
42321W        W 1417  38.485  37.011  13.963
42322W        W 1418   5.245  30.950   2.410
42323W        W 1419  13.834   9.167   1.443
42324W        W 1420  30.564  24.615   0.282
42325W        W 1421  24.573  32.891   3.643
42326W        W 1422  23.699  26.090  12.496
42327W        W 1423   3.868   6.330  14.781
42328W        W 1424  23.198   9.329   0.299
42329W        W 1425  29.944  10.870   0.884
42330W        W 1426   2.276  42.803   4.223
42331W        W 1427  34.088  25.659  14.953
42332W        W 1428   1.290  16.722  11.119
42333W        W 1429  27.644   8.309   4.141
42334W        W 1430  30.951  30.936  12.891
42335W        W 1431  33.517  20.650  12.925
42336W        W 1432  33.129   5.770  13.425
42337W        W 1433  36.896   7.305   1.398
42338W        W 1434  34.456   6.855   2.868
42339W        W 1435  29.011  40.490  13.955
42340W        W 1436  26.028  29.004   1.376
42341W        W 1437   7.717   6.243  11.043
42342W        W 1438  14.666  32.033  13.910
42343W        W 1439   9.805  33.958  13.804
42344W        W 1440  39.917  44.779  10.553
42345W        W 1441   5.829  20.121  13.970
42346W        W 1442  36.035  25.520   1.287
42347W        W 1443  38.836  29.656   2.676
42348W        W 1444  44.794   4.718  14.870
42349W        W 1445  41.369  25.101  12.474
42350W        W 1446   3.386  29.655  14.288
42351W        W 1447  42.286  33.515  13.501
42352W        W 1448   6.321   5.763   3.152
42353W        W 1449  11.670  22.562  11.884
42354W        W 1450  44.433  22.606  13.357
42355W        W 1451  32.575   2.339   1.852
42356W        W 1452  23.193  33.112  11.419
42357W        W 1453  34.930  28.444  12.938
42358W        W 1454  11.634  12.739  11.452
42359W        W 1455  12.819  13.209   0.298
42360W        W 1456   0.749   9.733  10.560
42361W        W 1457   9.261   1.946   5.285
42362W        W 1458  27.952  20.552   0.413
42363W        W 1459  28.443   6.402   0.270
42364W        W 1460   0.480   4.924   0.280
42365W        W 1461  20.198  26.586  10.899
42366W        W 1462  44.273  37.956  12.352
42367W        W 1463  12.329  11.138   4.236
42368W        W 1464   8.816   4.369  10.614
42369W        W 1465  34.591  25.701  14.515
42370W        W 1466   3.361  35.559  14.344
42371W        W 1467  32.030  18.652   0.746
42372W        W 1468   6.257  39.401  12.959
42373W        W 1469  32.506  39.851   2.279
42374W        W 1470  15.581   1.468   4.340
42375W        W 1471  39.462  10.146   0.878
42376W        W 1472  17.564   9.188  13.397
42377W        W 1473  29.086  36.592  14.298
42378W        W 1474   8.390  13.179   1.221
42379W        W 1475  13.834  42.984  14.759
42380W        W 1476  38.976  43.010   1.227
42381W        W 1477  33.442  34.968   4.631
42382W        W 1478   9.820  41.302  13.799
42383W        W 1479  22.203   9.835  12.087
42384W        W 1480  13.160  41.501   0.359
42385W        W 1481  25.594  27.502  11.402
42386W        W 1482   8.247  36.075   0.819
42387W        W 1483  42.917  40.900  11.560
42388W        W 1484  31.915  34.464   3.733
42389W        W 1485   6.248  23.730   0.400
42390W        W 1486  14.628  16.109   4.208
42391W        W 1487  11.334  23.026  12.505
42392W        W 1488  19.546  32.107  12.823
42393W        W 1489  19.255  25.030   4.205
42394W        W 1490   1.810   8.241   0.402
42395W        W 1491  22.065  15.187  14.814
42396W        W 1492  24.588  39.390  13.451
42397W        W 1493   8.772  29.926   1.419
42398W        W 1494  19.568  25.703   3.763
42399W        W 1495   7.909  28.490  12.521
42400W        W 1496   9.241   4.755   0.482
42401W        W 1497  29.502  43.785  12.078
42402W        W 1498  39.881  42.002   4.666
42403W        W 1499  16.276  32.599   3.713
42404W        W 1500  28.459  36.553   5.281
42405W        W 1501  28.503   2.929  14.320
42406W        W 1502  22.707  19.144   1.796
42407W        W 1503   3.936  24.144  11.567
42408W        W 1504  20.690  36.430   5.160
42409W        W 1505   3.903  11.642  13.919
42410W        W 1506  35.083  25.619   3.720
42411W        W 1507  14.619  36.071   2.370
42412W        W 1508  36.423  24.553  10.442
42413W        W 1509  29.558  40.844  10.542
42414W        W 1510  20.536   7.859  10.494
42415W        W 1511  17.584  11.704  13.483
42416W        W 1512  11.804  33.879   1.790
42417W        W 1513   8.697  24.135  11.495
42418W        W 1514  29.162  36.496  13.866
42419W        W 1515  44.003  17.264  13.507
42420W        W 1516  36.487   7.405  13.938
42421W        W 1517   2.312  36.541  12.575
42422W        W 1518  27.573   1.788  11.492
42423W        W 1519   9.185  14.712   2.883
42424W        W 1520   8.301   3.748   1.764
42425W        W 1521  33.062  22.018   4.757
42426W        W 1522  27.053  22.209  11.387
42427W        W 1523  32.948  15.713   0.908
42428W        W 1524  34.096  29.925  14.944
42429W        W 1525  21.206  32.400  13.483
42430W        W 1526  38.527  36.021   2.747
42431W        W 1527  36.352  22.065   4.317
42432W        W 1528  28.135  20.541  12.396
42433W        W 1529  18.124  33.030  14.371
42434W        W 1530  44.319   4.924   2.391
42435W        W 1531  42.795  13.342   0.289
42436W        W 1532  37.463  12.149  11.509
42437W        W 1533  20.723  43.323   4.234
42438W        W 1534   5.300   0.271  14.997
42439W        W 1535  25.993   1.773   0.301
42440W        W 1536  32.079   9.239  14.978
42441W        W 1537  33.394  31.551  13.805
42442W        W 1538  32.037   6.292  11.580
42443W        W 1539  33.024  23.058   3.342
42444W        W 1540  20.527  12.205  12.842
42445W        W 1541  26.084   5.791   1.261
42446W        W 1542  16.149  12.271  15.000
42447W        W 1543  20.544  29.596  12.042
42448W        W 1544  35.597  23.640  11.051
42449W        W 1545  31.927  34.392   0.436
42450W        W 1546  30.566  34.979  14.809
42451W        W 1547  10.856  41.833   2.185
42452W        W 1548  41.421   1.456   4.664
42453W        W 1549  40.457   3.739   1.909
42454W        W 1550  13.197   2.302  14.387
42455W        W 1551   6.809  29.458   2.729
42456W        W 1552   7.806  36.387  14.766
42457W        W 1553  10.688  39.461  14.871
42458W        W 1554  27.072   4.268   3.698
42459W        W 1555  36.569  44.907   4.302
42460W        W 1556  14.303  42.503   2.696
42461W        W 1557  15.138  42.506  11.100
42462W        W 1558  27.972  32.030   4.260
42463W        W 1559  30.017  26.504  11.961
42464W        W 1560  14.107  37.521  14.355
42465W        W 1561   6.219   9.328  10.591
42466W        W 1562  37.522  40.350   0.806
42467W        W 1563   0.984   0.485   3.291
42468W        W 1564   4.842  33.563   4.331
42469W        W 1565  31.994  28.968   1.268
42470W        W 1566  34.061  27.078  14.987
42471W        W 1567  40.946  18.098   3.777
42472W        W 1568   6.327  10.749   0.883
42473W        W 1569  13.339  19.105   3.340
42474W        W 1570  34.915   8.742   4.333
42475W        W 1571  13.266  31.954   1.895
42476W        W 1572   7.364  36.013  12.485
42477W        W 1573  24.719   0.950   3.730
42478W        W 1574  42.413   0.940   1.705
42479W        W 1575  21.189  12.828  11.914
42480W        W 1576   3.860  30.520  14.385
42481W        W 1577  34.531  39.385  12.963
42482W        W 1578  32.497  29.136   2.307
42483W        W 1579  23.605  44.831  13.013
42484W        W 1580  26.175   4.824   3.825
42485W        W 1581   7.732  36.575  10.565
42486W        W 1582   2.339   5.412  14.471
42487W        W 1583  21.674   3.364   4.168
42488W        W 1584  25.080  32.461  12.963
42489W        W 1585  12.248   1.891  14.775
42490W        W 1586   2.233  26.208   0.926
42491W        W 1587  44.785  22.528   1.440
42492W        W 1588  28.133  26.134   0.902
42493W        W 1589  39.345  18.754  11.373
42494W        W 1590  31.026  17.287   1.276
42495W        W 1591  38.391  17.304  14.923
42496W        W 1592  18.131  10.771   4.275
42497W        W 1593  37.357  28.485   0.344
42498W        W 1594  20.091  37.338   0.303
42499W        W 1595  44.855  15.813   2.349
42500W        W 1596  33.082  41.419  12.947
42501W        W 1597  17.741  37.895   5.200
42502W        W 1598  11.276  29.058   4.628
42503W        W 1599  17.703   3.877   4.254
42504W        W 1600  41.836  28.046   3.361
42505W        W 1601  10.807   3.443  14.867
42506W        W 1602  28.518   7.848   0.821
42507W        W 1603  20.638  40.955  11.074
42508W        W 1604   1.813  17.604   0.357
42509W        W 1605  44.943  30.432  11.966
42510W        W 1606  17.162  25.114   2.253
42511W        W 1607  13.790  19.231  12.519
42512W        W 1608  15.283  33.537  12.906
42513W        W 1609   1.276  35.009  14.864
42514W        W 1610  39.345   2.412   0.777
42515W        W 1611   5.722  40.502   0.916
42516W        W 1612  35.446  39.911  14.896
42517W        W 1613  22.651   4.715  14.871
42518W        W 1614  32.558   9.766  11.078
42519W        W 1615  44.482   1.264  14.430
42520W        W 1616  33.980  19.125   5.275
42521W        W 1617  22.187  25.618  11.585
42522W        W 1618  29.932   2.781   3.323
42523W        W 1619  28.174  43.270  13.379
42524W        W 1620  38.918  19.777   1.764
42525W        W 1621  31.025  36.932   0.735
42526W        W 1622  39.384  31.534  14.929
42527W        W 1623  32.446  41.504  12.538
42528W        W 1624  23.178  18.649  14.320
42529W        W 1625  22.171  26.465  12.015
42530W        W 1626  28.086   6.390   5.316
42531W        W 1627  11.333   8.682  12.048
42532W        W 1628  23.533  30.049  14.482
42533W        W 1629  37.561  36.496   5.178
42534W        W 1630  14.764  15.270  11.381
42535W        W 1631  13.693  21.108  14.791
42536W        W 1632  38.904  29.439   5.145
42537W        W 1633  40.439  39.496   1.244
42538W        W 1634  27.067  12.210  11.870
42539W        W 1635  44.925  13.334   3.352
42540W        W 1636   0.263  16.738   2.389
42541W        W 1637   4.770   4.421   0.763
42542W        W 1638   8.262  17.624   5.756
42543W        W 1639  31.479   3.888   1.289
42544W        W 1640  37.391   9.274   4.154
42545W        W 1641  31.509   5.781  12.474
42546W        W 1642   4.407   2.395  10.585
42547W        W 1643  24.025  10.862   0.859
42548W        W 1644  38.896   4.911  10.593
42549W        W 1645   6.843  39.062   1.773
42550W        W 1646   1.742   9.151   1.300
42551W        W 1647   2.944  40.976   2.729
42552W        W 1648  11.315  35.512  13.058
42553W        W 1649  19.100  22.125  11.915
42554W        W 1650  33.904  33.448   0.948
42555W        W 1651  44.780  38.404  13.451
42556W        W 1652  34.090  25.002  12.440
42557W        W 1653  31.015  43.441   3.377
42558W        W 1654  44.460   1.918  14.346
42559W        W 1655   3.404  42.388   0.435
42560W        W 1656  11.304  29.032   4.338
42561W        W 1657  37.392  42.932   1.323
42562W        W 1658  21.691  11.753  14.982
42563W        W 1659  35.052  41.447   0.938
42564W        W 1660  16.154  24.186   0.844
42565W        W 1661  28.014   2.288  11.451
42566W        W 1662  33.381  32.977   1.854
42567W        W 1663  11.816  31.531  10.961
42568W        W 1664  21.137  26.492  14.370
42569W        W 1665  41.451   0.838   3.167
42570W        W 1666  44.891  14.655   2.231
42571W        W 1667  44.343   9.160   5.240
42572W        W 1668   9.801   7.732  13.987
42573W        W 1669   1.363  23.188  13.440
42574W        W 1670   6.240  15.297  13.396
42575W        W 1671   4.322  39.066   4.738
42576W        W 1672  39.359   4.749  11.923
42577W        W 1673  27.091  39.950  13.868
42578W        W 1674  10.640  43.350  13.315
42579W        W 1675  30.560  36.434  12.826
42580W        W 1676  32.064  40.836  14.332
42581W        W 1677  38.978  37.047  14.975
42582W        W 1678  44.911  15.285  13.816
42583W        W 1679   2.250  34.983  12.900
42584W        W 1680  35.865   8.788  13.377
42585W        W 1681  22.516  36.438   4.719
42586W        W 1682   3.900  31.042  14.939
42587W        W 1683  17.662  12.136  13.335
42588W        W 1684  33.020   5.874  12.520
42589W        W 1685  37.069  12.351  12.883
42590W        W 1686   8.330   7.399  14.021
42591W        W 1687  32.107   4.295  14.435
42592W        W 1688  39.053   0.459  12.859
42593W        W 1689  30.007  16.196   0.400
42594W        W 1690  35.010   4.808   2.765
42595W        W 1691  35.550  18.229   1.285
42596W        W 1692  29.056  32.929   2.662
42597W        W 1693  23.994  20.736  12.360
42598W        W 1694   2.331  24.123  13.449
42599W        W 1695   5.336  28.055  10.059
42600W        W 1696  34.981  26.197   0.276
42601W        W 1697  15.282   2.785  13.327
42602W        W 1698  15.266  43.305   1.921
42603W        W 1699  31.960  35.467  14.888
42604W        W 1700  30.083  23.611  13.440
42605W        W 1701   7.194  11.799   0.269
42606W        W 1702  27.590  43.966  13.485
42607W        W 1703  18.758  44.372  10.931
42608W        W 1704  38.560  14.770  10.576
42609W        W 1705   1.871  15.788  14.364
42610W        W 1706  41.441  38.328   2.771
42611W        W 1707   5.393  24.180  13.496
42612W        W 1708  26.063  23.554  13.453
42613W        W 1709   9.154   6.700   0.384
42614W        W 1710  34.462  27.029  10.926
42615W        W 1711   7.384  29.162  14.875
42616W        W 1712  11.276  14.124   9.975
42617W        W 1713   5.194  36.025  14.487
42618W        W 1714   9.171  44.502  14.906
42619W        W 1715  19.597   8.745   0.246
42620W        W 1716  18.615  16.783  11.544
42621W        W 1717  22.744  30.508   3.645
42622W        W 1718  23.144  21.176  12.089
42623W        W 1719   0.796   7.826  12.409
42624W        W 1720  11.674  10.176   2.375
42625W        W 1721  27.504   2.430   3.190
42626W        W 1722   8.802  36.876   4.268
42627W        W 1723  11.849  26.106   4.327
42628W        W 1724  12.278  32.513   2.682
42629W        W 1725   9.265  28.439   1.874
42630W        W 1726  32.434  27.057   1.287
42631W        W 1727  14.200  36.457   0.383
42632W        W 1728  13.619  29.996   3.203
42633W        W 1729  33.973  20.051  11.570
42634W        W 1730   6.370   9.356   1.306
42635W        W 1731  44.369  27.102  13.022
42636W        W 1732  15.292  13.676  11.098
42637W        W 1733  44.929   1.816  12.530
42638W        W 1734   4.906  15.674   0.444
42639W        W 1735  18.265  26.509  10.445
42640W        W 1736  34.885  10.361   2.897
42641W        W 1737   1.302  28.469  14.484
42642W        W 1738  15.246  19.616   0.793
42643W        W 1739  35.444  25.698  14.429
42644W        W 1740  39.051  42.503  11.561
42645W        W 1741  14.178   9.284  10.601
42646W        W 1742  36.537  35.049   4.786
42647W        W 1743  35.482  18.688   1.717
42648W        W 1744  20.109  14.101  12.498
42649W        W 1745  13.238  18.567  14.019
42650W        W 1746  24.998   9.840  10.556
42651W        W 1747  41.513  19.637  11.437
42652W        W 1748   7.352   6.288  11.421
42653W        W 1749  43.383  28.171  10.982
42654W        W 1750  36.427  40.970  14.773
42655W        W 1751  33.887  20.186  13.823
42656W        W 1752   5.791  31.085   1.927
42657W        W 1753  12.611  23.514  11.544
42658W        W 1754   4.314  15.162  12.089
42659W        W 1755   8.885  25.075  13.442
42660W        W 1756  37.993  31.510   4.831
42661W        W 1757   9.663  25.126   0.868
42662W        W 1758  37.530   9.872  12.055
42663W        W 1759  10.722  12.121   2.863
42664W        W 1760  33.381  38.459   0.767
42665W        W 1761  31.482  17.660   1.267
42666W        W 1762  11.262   4.698   3.152
42667W        W 1763  13.127  26.989  12.978
42668W        W 1764  14.647   7.871  10.582
42669W        W 1765  29.637  32.517  11.484
42670W        W 1766  23.667  13.344  14.324
42671W        W 1767   2.865  24.590  14.359
42672W        W 1768  43.392  23.043   2.413
42673W        W 1769  41.465  40.039   3.649
42674W        W 1770  16.252  43.768   0.913
42675W        W 1771  30.909  41.830   1.381
42676W        W 1772   7.903  43.974  13.915
42677W        W 1773   7.328  19.227  10.948
42678W        W 1774  13.640  35.027  13.841
42679W        W 1775  44.467  11.307   0.455
42680W        W 1776  24.702  33.037  10.415
42681W        W 1777   3.309   9.713  11.883
42682W        W 1778  37.367  29.631   0.470
42683W        W 1779  15.742   4.778   0.459
42684W        W 1780  33.577  23.565  14.359
42685W        W 1781  31.017  41.462   0.792
42686W        W 1782  24.178  19.666   2.868
42687W        W 1783  32.577  26.475   3.162
42688W        W 1784  11.268  25.573  12.556
42689W        W 1785  18.585  29.040   1.258
42690W        W 1786  26.005  32.043  14.005
42691W        W 1787  40.846   7.220   3.382
42692W        W 1788   8.780  27.483  12.882
42693W        W 1789  28.936  42.998   1.828
42694W        W 1790  29.653  21.516   4.647
42695W        W 1791  27.638   4.750  12.949
42696W        W 1792  16.203  40.842   4.709
42697W        W 1793  36.081  23.614  13.476
42698W        W 1794  37.838  43.889  14.469
42699W        W 1795  40.810  37.894  12.561
42700W        W 1796  40.890  41.391  13.919
42701W        W 1797  39.047  32.104  14.330
42702W        W 1798  39.980   1.947   1.266
42703W        W 1799  30.917  13.806  12.051
42704W        W 1800  23.223  39.381   3.728
42705W        W 1801  11.715  16.607  12.454
42706W        W 1802  22.061  15.166   1.905
42707W        W 1803  33.535  33.498  11.426
42708W        W 1804  29.038   1.779   0.938
42709W        W 1805  12.329  26.039  14.461
42710W        W 1806  21.625  40.347  13.483
42711W        W 1807  20.259  11.659  12.860
42712W        W 1808   7.773  36.539   3.228
42713W        W 1809  34.934  25.569  10.556
42714W        W 1810  22.723  19.088  12.422
42715W        W 1811  24.224   7.332  14.350
42716W        W 1812  20.549   6.191   4.132
42717W        W 1813   5.702   9.843   0.831
42718W        W 1814  38.422  33.979   0.451
42719W        W 1815   0.777   8.279   3.685
42720W        W 1816   8.345  37.042  10.954
42721W        W 1817  25.045  19.717  11.070
42722W        W 1818  38.851  31.409   0.759
42723W        W 1819  19.723  30.015   1.268
42724W        W 1820  37.856   8.666   0.293
42725W        W 1821  41.936  19.654  14.794
42726W        W 1822  27.989  44.466  13.053
42727W        W 1823   8.864  37.915  13.891
42728W        W 1824   6.818  32.512   0.760
42729W        W 1825  19.040   3.357  14.316
42730W        W 1826  26.664   5.752  13.544
42731W        W 1827  30.475  30.622  13.998
42732W        W 1828   5.796   0.853   3.714
42733W        W 1829   1.825  15.136  13.392
42734W        W 1830  32.100  21.719   1.375
42735W        W 1831  30.432  20.165   1.232
42736W        W 1832  31.104   1.955   0.874
42737W        W 1833  28.103  42.344  12.488
42738W        W 1834  33.499  19.580  13.954
42739W        W 1835   4.790  30.605  12.842
42740W        W 1836   4.757   3.848   1.753
42741W        W 1837  10.292  28.933   0.411
42742W        W 1838  27.090  43.486  12.017
42743W        W 1839  32.943  30.427  13.520
42744W        W 1840  11.150   6.414  10.639
42745W        W 1841  33.574  13.765   0.382
42746W        W 1842  10.774   6.904   1.385
42747W        W 1843  12.333  39.449  13.988
42748W        W 1844  39.460  16.636  13.505
42749W        W 1845   2.818  19.571   0.309
42750W        W 1846  27.495  14.152   3.834
42751W        W 1847  28.093   2.791  11.392
42752W        W 1848  16.723  35.565  14.935
42753W        W 1849  16.757  24.031   1.247
42754W        W 1850   6.222  33.528  12.021
42755W        W 1851  34.880   0.975   1.918
42756W        W 1852  40.333   0.389   0.283
42757W        W 1853  22.596  24.028   2.669
42758W        W 1854  24.993  21.567   0.882
42759W        W 1855  30.629  23.732  10.111
42760W        W 1856  25.581  25.621  13.366
42761W        W 1857  20.226  35.934   1.274
42762W        W 1858  39.549  27.650   1.762
42763W        W 1859  24.615  20.266   3.256
42764W        W 1860  23.075  32.493   2.741
42765W        W 1861  34.413  15.617  13.986
42766W        W 1862  43.981  23.124   2.687
42767W        W 1863   0.349  43.891  12.004
42768W        W 1864  19.130   8.277   1.817
42769W        W 1865  13.844  29.030   1.890
42770W        W 1866  36.502  13.340  14.781
42771W        W 1867  29.052   2.783   4.836
42772W        W 1868  35.484  22.737  14.929
42773W        W 1869  38.528   0.758   1.901
42774W        W 1870   1.768  23.089   2.415
42775W        W 1871  34.604  12.819  14.816
42776W        W 1872  38.931  29.168  14.826
42777W        W 1873   2.299   8.341   0.342
42778W        W 1874   6.295  42.030  12.842
42779W        W 1875   9.273  14.643  13.026
42780W        W 1876  12.679   2.271   3.371
42781W        W 1877   8.844  19.669  11.996
42782W        W 1878  30.488  44.260   1.818
42783W        W 1879  43.887  42.966  13.845
42784W        W 1880  27.568  23.199   2.326
42785W        W 1881  36.392   3.410   0.932
42786W        W 1882  20.214   1.925  13.527
42787W        W 1883  10.360  38.389   0.758
42788W        W 1884   7.805  21.088  13.885
42789W        W 1885  18.648  21.068  10.626
42790W        W 1886  41.817  26.104   0.438
42791W        W 1887  22.033  13.793   2.216
42792W        W 1888   9.194  11.633  11.997
42793W        W 1889  37.977  42.808   4.788
42794W        W 1890  33.938  43.812  12.083
42795W        W 1891  30.563  35.572  13.451
42796W        W 1892  14.831  13.192   2.667
42797W        W 1893   5.221  29.485   2.810
42798W        W 1894  15.695  16.718   3.214
42799W        W 1895   5.351  26.574   1.371
42800W        W 1896   3.418   5.261   1.804
42801W        W 1897  26.608   6.293  14.764
42802W        W 1898  41.921  19.078  13.957
42803W        W 1899  10.259  30.455  14.929
42804W        W 1900  16.210  37.492  11.983
42805W        W 1901  42.349  29.994  14.938
42806W        W 1902  28.517   1.242   3.754
42807W        W 1903  17.790  35.544   4.828
42808W        W 1904  12.796  23.025  10.939
42809W        W 1905  37.461  16.297  13.906
42810W        W 1906  41.793  34.051  11.543
42811W        W 1907   5.234  44.825   0.263
42812W        W 1908  30.628  25.977   4.186
42813W        W 1909  44.838  10.272   2.212
42814W        W 1910  31.127  15.091  10.975
42815W        W 1911  34.990  20.156  10.077
42816W        W 1912  24.692  18.052  13.422
42817W        W 1913  20.268  15.084  12.923
42818W        W 1914  35.936   3.460   1.406
42819W        W 1915  39.349   6.756   3.731
42820W        W 1916  34.481  16.685   3.243
42821W        W 1917   2.820   4.224   4.776
42822W        W 1918  13.777  31.113  14.355
42823W        W 1919  27.690  24.180   3.721
42824W        W 1920  11.194  31.607  13.383
42825W        W 1921   3.861  23.043   3.692
42826W        W 1922   9.796   3.745   2.296
42827W        W 1923  39.886   9.738  13.328
42828W        W 1924   4.803  16.151   3.685
42829W        W 1925  26.163  36.429  12.884
42830W        W 1926  37.930  20.117   0.372
42831W        W 1927  15.319  10.683   4.738
42832W        W 1928  43.337  11.856   0.352
42833W        W 1929  38.858  10.853  12.885
42834W        W 1930  26.085  24.195   1.300
42835W        W 1931  25.148   4.817   1.320
42836W        W 1932  10.782  20.758   4.815
42837W        W 1933  14.231   1.454   4.717
42838W        W 1934  43.425  44.498  13.378
42839W        W 1935  38.064  11.632   3.792
42840W        W 1936  26.178  22.188   9.935
42841W        W 1937  12.150  12.815  14.349
42842W        W 1938   3.428  38.395   4.246
42843W        W 1939  40.463  39.026   0.340
42844W        W 1940   0.950  33.932  13.353
42845W        W 1941  42.928   8.380  14.014
42846W        W 1942   0.361  40.482   4.713
42847W        W 1943  41.480  24.664   0.807
42848W        W 1944  18.639   1.459  12.990
42849W        W 1945   6.854   3.248  14.417
42850W        W 1946  41.294  13.809   3.655
42851W        W 1947  33.436  37.525  12.467
42852W        W 1948  44.480  22.697  10.478
42853W        W 1949   0.964  44.295   0.282
42854W        W 1950  42.838  12.240   0.340
42855W        W 1951  14.664  10.811  12.095
42856W        W 1952  29.565  42.375   0.932
42857W        W 1953   2.305   0.786   4.200
42858W        W 1954   5.286   8.276   1.738
42859W        W 1955  42.871  21.694   1.234
42860W        W 1956  43.353  39.500  11.507
42861W        W 1957   2.865  17.231  12.480
42862W        W 1958  36.503  23.695   4.641
42863W        W 1959  38.064  28.150   3.315
42864W        W 1960  18.156  28.161  13.425
42865W        W 1961  17.625  26.622   4.211
42866W        W 1962  34.930  12.192  13.340
42867W        W 1963  22.554  29.157  11.059
42868W        W 1964  28.468   0.277   4.767
42869W        W 1965   6.397   4.262  11.460
42870W        W 1966  16.308  42.483  12.433
42871W        W 1967   2.825  31.081   3.681
42872W        W 1968  30.427  35.417  12.930
42873W        W 1969  33.069  19.704   0.437
42874W        W 1970  20.224  13.765  10.406
42875W        W 1971  31.115  36.990  10.122
42876W        W 1972   8.171  12.306   1.900
42877W        W 1973   6.343  43.815  12.880
42878W        W 1974   9.341  29.445   4.173
42879W        W 1975   8.401  33.109  13.025
42880W        W 1976  35.597   7.765  12.015
42881W        W 1977  32.609  34.576  12.399
42882W        W 1978  17.241  20.108  11.439
42883W        W 1979   3.835  10.729  13.997
42884W        W 1980  19.040  28.676  11.393
42885W        W 1981  14.775   8.247  14.908
42886W        W 1982  15.621  41.461  11.492
42887W        W 1983  36.357   3.726  11.068
42888W        W 1984  41.918  31.086  11.567
42889W        W 1985  15.765   9.282   4.327
42890W        W 1986  19.771  16.108  12.935
42891W        W 1987  34.879  34.526  13.489
42892W        W 1988   0.272  28.544  14.482
42893W        W 1989  38.974  42.796   4.648
42894W        W 1990  33.591   6.356  14.990
42895W        W 1991  20.231  29.098   4.124
42896W        W 1992  11.184   0.843   1.364
42897W        W 1993   7.234  41.929   1.932
42898W        W 1994  23.029  10.178   0.353
42899W        W 1995  27.140   8.367   4.224
42900W        W 1996  17.661  14.645   1.406
42901W        W 1997   9.680  34.488  14.468
42902W        W 1998  43.392  42.349  14.005
42903W        W 1999   8.268  34.568   3.359
42904W        W 2000   9.809  42.805  11.462
42905W        W 2001  40.506  41.984  13.908
42906W        W 2002  27.197   3.721   2.762
42907W        W 2003  16.720  28.596  13.490
42908W        W 2004   5.932  41.410   4.334
42909W        W 2005  40.527   6.724   0.319
42910W        W 2006  44.898   2.313   1.426
42911W        W 2007  30.139  18.117   3.296
42912W        W 2008  13.335  13.729  14.430
42913W        W 2009  21.567  29.576  10.637
42914W        W 2010  17.122   8.217   2.835
42915W        W 2011  13.719   3.852   2.796
42916W        W 2012   3.285  10.877   4.821
42917W        W 2013  38.475  21.650   2.190
42918W        W 2014  33.620  43.498  13.904
42919W        W 2015  33.620  27.489  11.391
42920W        W 2016  28.543  11.748   2.266
42921W        W 2017  23.538  31.531   0.898
42922W        W 2018  36.899  11.208   2.728
42923W        W 2019  11.814   0.877   2.836
42924W        W 2020  43.925  39.523  12.394
42925W        W 2021   2.449  38.009  10.447
42926W        W 2022   2.908  16.638  13.831
42927W        W 2023   1.360   5.208  12.462
42928W        W 2024  22.025  36.882  14.987
42929W        W 2025  36.552   6.767  11.932
42930W        W 2026   5.255  40.373  14.996
42931W        W 2027  30.646  15.224   2.886
42932W        W 2028  12.816  29.955   2.863
42933W        W 2029  39.487  10.352   3.663
42934W        W 2030  25.118  39.028  13.934
42935W        W 2031   8.789   2.318   3.751
42936W        W 2032  27.010  23.204  13.946
42937W        W 2033   4.334  15.082   0.366
42938W        W 2034  21.041  34.542   4.623
42939W        W 2035  41.348   9.179  14.925
42940W        W 2036  16.183  35.512   3.202
42941W        W 2037   2.865  43.315  14.793
42942W        W 2038  16.649  11.336   4.769
42943W        W 2039  29.975  38.407  13.980
42944W        W 2040  28.530  22.555   0.260
42945W        W 2041  15.751   8.196   1.341
42946W        W 2042  13.715  17.591   2.224
42947W        W 2043  39.061   1.932  10.502
42948W        W 2044  42.905  34.869  14.973
42949W        W 2045  43.439  19.679   5.270
42950W        W 2046  13.329  21.233   0.785
42951W        W 2047  32.559  13.677  12.948
42952W        W 2048  32.089  28.597   4.820
42953W        W 2049  20.117   9.298  14.997
42954W        W 2050  24.202  19.734   0.878
42955W        W 2051  18.788  19.705   5.288
42956W        W 2052  11.333  44.422  10.560
42957W        W 2053  31.646  35.940  11.542
42958W        W 2054  39.847  20.729   0.258
42959W        W 2055  14.219  23.199   2.901
42960W        W 2056  38.544  28.014   0.747
42961W        W 2057  33.928   6.713  12.973
42962W        W 2058  29.141  32.487   0.303
42963W        W 2059  15.173   9.680  12.015
42964W        W 2060   4.415   1.756  14.783
42965W        W 2061  21.600  35.533   0.430
42966W        W 2062  11.129  39.512   3.781
42967W        W 2063   3.823  32.011   2.851
42968W        W 2064  27.597  27.110   0.369
42969W        W 2065  13.197   7.774  13.039
42970W        W 2066  23.561   4.865  11.427
42971W        W 2067  34.492  15.306  11.070
42972W        W 2068  13.802  26.635  11.465
42973W        W 2069  18.733  44.865  11.062
42974W        W 2070   5.923   6.855   4.167
42975W        W 2071  26.052   5.908   2.810
42976W        W 2072  36.422  24.483   3.680
42977W        W 2073  40.364  23.541  13.853
42978W        W 2074   1.851  44.758  12.875
42979W        W 2075  15.630  29.466   3.165
42980W        W 2076  20.740  41.010  12.025
42981W        W 2077  33.445  20.660   1.916
42982W        W 2078   5.294  31.466  11.872
42983W        W 2079  37.880   0.926  14.514
42984W        W 2080  11.165   9.233   0.359
42985W        W 2081  38.392  30.600   2.772
42986W        W 2082  30.035   8.800   0.430
42987W        W 2083  43.937  33.614   3.284
42988W        W 2084  26.632  43.381   0.894
42989W        W 2085  11.166   2.941  14.834
42990W        W 2086  26.963  17.306   3.212
42991W        W 2087  28.132   3.739   0.787
42992W        W 2088  19.050  32.039  10.963
42993W        W 2089  21.136  43.319   4.116
42994W        W 2090  31.581   1.346   3.171
42995W        W 2091  18.264  26.046   2.300
42996W        W 2092  35.911  19.748   2.385
42997W        W 2093   4.361  28.479   2.761
42998W        W 2094  29.994  17.782   3.816
42999W        W 2095  23.229   2.279   4.247
43000W        W 2096  30.925  23.630  10.425
43001W        W 2097   1.783  16.645  12.937
43002W        W 2098   8.224  23.602   1.913
43003W        W 2099   8.223  43.863   2.663
43004W        W 2100  42.998  10.283   1.703
43005W        W 2101  36.973   6.248  11.086
43006W        W 2102  40.938  38.838   1.794
43007W        W 2103  33.379   6.751   4.814
43008W        W 2104  26.164  29.530  10.924
43009W        W 2105   9.388  19.172  14.819
43010W        W 2106  39.013   0.842   2.810
43011W        W 2107   2.836  44.493   4.255
43012W        W 2108  12.725  12.758  10.418
43013W        W 2109   8.822  33.010   3.756
43014W        W 2110  16.199  44.790  12.015
43015W        W 2111  26.999  24.688   0.382
43016W        W 2112   9.299  11.788   2.187
43017W        W 2113  17.242  21.720   3.780
43018W        W 2114   4.254  10.371  12.884
43019W        W 2115   2.401  23.063  14.468
43020W        W 2116  32.580  40.323  11.917
43021W        W 2117  38.450  20.536   2.325
43022W        W 2118  29.644   2.810   1.908
43023W        W 2119  24.707   7.269  12.977
43024W        W 2120  11.191  31.629   4.350
43025W        W 2121  12.314   3.386  12.386
43026W        W 2122   7.244  41.934   5.124
43027W        W 2123  37.844  41.804  12.435
43028W        W 2124  25.120  24.109  14.289
43029W        W 2125  28.101   2.320  14.893
43030W        W 2126   3.425  44.385   2.805
43031W        W 2127  24.530   2.869   1.870
43032W        W 2128  18.743   3.781  10.582
43033W        W 2129  10.306  38.431   2.749
43034W        W 2130   8.225  36.554   0.331
43035W        W 2131   3.871  44.922  13.324
43036W        W 2132   6.773  17.687  13.445
43037W        W 2133  42.448   1.865   4.175
43038W        W 2134   1.777  44.394   9.955
43039W        W 2135  29.476  28.583   1.732
43040W        W 2136  42.006  23.025   3.212
43041W        W 2137  44.277   2.375   2.769
43042W        W 2138  16.768  10.819  13.046
43043W        W 2139  10.162  23.029   4.600
43044W        W 2140  43.332  23.134  13.009
43045W        W 2141  30.628  14.173   1.876
43046W        W 2142  18.135  41.433  11.890
43047W        W 2143  13.684  18.125   2.720
43048W        W 2144  35.468  43.362  11.902
43049W        W 2145  34.447  31.050  14.956
43050W        W 2146   6.305   0.854   2.413
43051W        W 2147   2.393  40.526  11.112
43052W        W 2148  31.993  44.798   2.313
43053W        W 2149  35.036  39.054  10.975
43054W        W 2150  14.701  36.582  13.409
43055W        W 2151  31.134  11.353   2.709
43056W        W 2152   9.716   0.790  11.102
43057W        W 2153  32.522   5.861   0.482
43058W        W 2154  37.362  30.015  14.862
43059W        W 2155   2.794  37.069   2.706
43060W        W 2156  24.618   2.269   2.868
43061W        W 2157  28.566  40.397   2.888
43062W        W 2158  38.400  14.120   3.213
43063W        W 2159   2.248  36.522   2.714
43064W        W 2160  40.374  19.750  14.295
43065W        W 2161   3.824   9.337  10.992
43066W        W 2162  24.487  19.226  12.491
43067W        W 2163  37.916  18.753  10.563
43068W        W 2164  39.862  20.089   4.215
43069W        W 2165   0.249  12.810   0.328
43070W        W 2166  33.113   6.231   3.803
43071W        W 2167  41.370  27.677   3.379
43072W        W 2168  25.099  36.044  10.114
43073W        W 2169  40.843  23.229   4.796
43074W        W 2170  22.644  13.332   1.289
43075W        W 2171   4.317  31.488  11.560
43076W        W 2172   2.277  27.487  13.917
43077W        W 2173  38.055  25.011   2.860
43078W        W 2174  23.683  38.454   0.865
43079W        W 2175  20.598   0.396   4.672
43080W        W 2176  11.240   0.363  11.589
43081W        W 2177  26.613   2.870   0.771
43082W        W 2178  17.573  28.579  13.048
43083W        W 2179  29.166  11.627   2.778
43084W        W 2180   7.331   5.400   1.789
43085W        W 2181  14.772  15.241   3.322
43086W        W 2182   6.885  29.139  12.035
43087W        W 2183  33.039  37.052  12.525
43088W        W 2184   4.216  26.206   0.732
43089W        W 2185  18.189   6.677   4.334
43090W        W 2186  33.489  25.003   0.258
43091W        W 2187  13.845   6.892   4.833
43092W        W 2188   0.833  35.484   2.874
43093W        W 2189  41.805  39.879   0.959
43094W        W 2190  19.743   2.955  11.082
43095W        W 2191  34.972  29.063   2.273
43096W        W 2192  40.514  23.120   3.162
43097W        W 2193  23.157  34.012  12.092
43098W        W 2194  28.041  38.918   0.950
43099W        W 2195  31.035  18.089  14.973
43100W        W 2196  40.350  14.655  11.453
43101W        W 2197  33.048  35.596   2.254
43102W        W 2198   1.360  27.470  12.044
43103W        W 2199  44.328  21.666  13.980
43104W        W 2200  36.366  33.499   2.307
43105W        W 2201   2.251  41.844  10.508
43106W        W 2202  37.842   1.455   4.188
43107W        W 2203  40.530  32.034  13.314
43108W        W 2204  29.169   5.773   3.770
43109W        W 2205  44.448  20.094  14.492
43110W        W 2206  39.868   9.369  13.355
43111W        W 2207  44.346  41.463   2.757
43112W        W 2208  25.625  13.114  12.372
43113W        W 2209  43.442  18.701  13.007
43114W        W 2210  31.153  12.649  14.762
43115W        W 2211  14.808  14.761  12.987
43116W        W 2212  41.488  28.583   4.630
43117W        W 2213  13.763  12.234  13.830
43118W        W 2214  44.888  25.155  13.417
43119W        W 2215   1.295  19.711  14.865
43120W        W 2216  23.728   0.275  12.445
43121W        W 2217  11.229  22.030  12.079
43122W        W 2218  43.782  18.097   0.394
43123W        W 2219  20.212   9.254   3.165
43124W        W 2220  43.393  10.674   3.697
43125W        W 2221  13.767   0.356  12.041
43126W        W 2222  25.524  25.110  12.907
43127W        W 2223  42.871  26.474  10.109
43128W        W 2224  28.463  34.564  11.584
43129W        W 2225  26.988  32.414   4.183
43130W        W 2226  42.822  26.656   2.347
43131W        W 2227  19.601  32.422  11.057
43132W        W 2228   6.401   3.946  13.525
43133W        W 2229  31.463   2.359   3.707
43134W        W 2230  43.280   3.742   0.434
43135W        W 2231   1.849  30.005  13.854
43136W        W 2232  21.726  37.528   1.778
43137W        W 2233  40.400  27.064  11.388
43138W        W 2234  14.789   5.706  12.976
43139W        W 2235  36.554  12.358   0.443
43140W        W 2236  10.690  17.305   5.096
43141W        W 2237  36.944  33.001   3.319
43142W        W 2238  20.097   6.381   3.649
43143W        W 2239   0.983  13.761   1.423
43144W        W 2240  21.247  21.118  13.832
43145W        W 2241  15.756  17.099   0.881
43146W        W 2242  10.767  40.960   0.381
43147W        W 2243  38.832  30.162   2.392
43148W        W 2244  23.024  11.798   1.762
43149W        W 2245  14.655   3.925   4.137
43150W        W 2246   6.240  39.350   1.763
43151W        W 2247  12.776  40.992   1.917
43152W        W 2248  30.529  16.567  11.081
43153W        W 2249  12.120   3.265  11.028
43154W        W 2250  23.179  40.417  13.889
43155W        W 2251  27.040  20.150  12.838
43156W        W 2252  16.230  26.951   0.444
43157W        W 2253  16.688   4.784   2.669
43158W        W 2254  43.775  27.453   1.368
43159W        W 2255  14.209   7.256   0.314
43160W        W 2256  24.229  15.328  10.902
43161W        W 2257  11.749  40.399   0.398
43162W        W 2258  37.419  30.538  14.338
43163W        W 2259   7.236  10.645  12.474
43164W        W 2260  21.146  31.018  12.563
43165W        W 2261  20.571  13.754   0.379
43166W        W 2262  17.176  25.578  12.947
43167W        W 2263  29.010  27.452  13.033
43168W        W 2264   8.319  38.326  14.865
43169W        W 2265  34.583  35.014  13.351
43170W        W 2266  17.721  38.358  11.946
43171W        W 2267  43.769   1.920   3.846
43172W        W 2268   5.326  13.845   0.316
43173W        W 2269   8.277  40.802   4.169
43174W        W 2270  41.830  23.696  14.326
43175W        W 2271  38.052  14.639  10.913
43176W        W 2272   2.904  12.666  12.843
43177W        W 2273  13.133  30.947   4.135
43178W        W 2274  31.635  12.274   3.255
43179W        W 2275  41.459  40.823   2.210
43180W        W 2276  24.593  43.902  13.992
43181W        W 2277  37.409  20.044   2.234
43182W        W 2278  36.405   5.841   2.322
43183W        W 2279  26.087  30.434  12.075
43184W        W 2280  18.779  42.779   0.453
43185W        W 2281  28.662  34.420   4.820
43186W        W 2282  36.443  38.066   0.791
43187W        W 2283  18.726  14.117  13.017
43188W        W 2284  33.890   8.343   1.222
43189W        W 2285  43.471  15.708  12.480
43190W        W 2286  11.745  37.349   2.839
43191W        W 2287  21.574  25.995   2.814
43192W        W 2288  35.070   3.890   2.219
43193W        W 2289  16.184  28.514  14.847
43194W        W 2290   3.318  16.137  14.300
43195W        W 2291  38.422  20.213  13.512
43196W        W 2292  40.012  37.570   2.221
43197W        W 2293  36.062  35.442  14.516
43198W        W 2294   2.361  34.432  10.534
43199W        W 2295  18.627  21.122   1.302
43200W        W 2296  23.605  33.515  12.496
43201W        W 2297   5.426  40.801  14.499
43202W        W 2298   8.190  32.565  12.519
43203W        W 2299  26.130   6.854  12.869
43204W        W 2300  11.722  16.130   1.239
43205W        W 2301  32.620  11.715   2.258
43206W        W 2302  20.699  23.120   4.229
43207W        W 2303  39.417   9.853   9.478
43208W        W 2304  31.468  36.469  14.309
43209W        W 2305  19.078  14.333  14.420
43210W        W 2306  20.734  21.075   0.479
43211W        W 2307  10.787  39.340   3.368
43212W        W 2308  10.309  40.033  12.513
43213W        W 2309  17.105  39.987   3.302
43214W        W 2310  35.955   5.228   3.757
43215W        W 2311  19.145  33.013  10.573
43216W        W 2312  22.517  17.226  12.578
43217W        W 2313  11.316  23.149   2.185
43218W        W 2314  43.854  13.647   0.852
43219W        W 2315  14.176  12.327   0.787
43220W        W 2316  18.183  32.142   0.798
43221W        W 2317  21.201   8.163  11.376
43222W        W 2318   4.296  33.041   3.869
43223W        W 2319  44.326  22.735   1.416
43224W        W 2320  26.658  17.693  11.495
43225W        W 2321  44.413  17.682   2.703
43226W        W 2322  17.590  43.394  13.377
43227W        W 2323   4.404  36.094  13.005
43228W        W 2324   1.929  10.791  11.968
43229W        W 2325   4.868  16.192  14.298
43230W        W 2326  35.569  43.863  14.009
43231W        W 2327  10.695  28.619   3.869
43232W        W 2328   5.228  14.823  11.891
43233W        W 2329   7.291  44.349  11.077
43234W        W 2330  44.831   5.431  11.502
43235W        W 2331  11.236  22.729  12.514
43236W        W 2332   1.852   2.381   2.825
43237W        W 2333  11.838  22.685   0.392
43238W        W 2334  28.649   5.293   1.318
43239W        W 2335  10.184  25.701  12.897
43240W        W 2336  36.090  24.021  11.996
43241W        W 2337  18.683  17.788  11.465
43242W        W 2338  37.939  39.916  13.819
43243W        W 2339  35.922  23.163  14.276
43244W        W 2340  43.772  26.556   3.166
43245W        W 2341  28.547  13.754   3.736
43246W        W 2342  10.638   1.858  11.457
43247W        W 2343  37.050  33.456   0.825
43248W        W 2344  25.499   9.294   4.685
43249W        W 2345   5.877   9.202  13.515
43250W        W 2346  27.490  18.207   4.258
43251W        W 2347  43.940  35.517   1.398
43252W        W 2348  13.115   3.938  11.024
43253W        W 2349  44.438  19.284   9.978
43254W        W 2350  35.072  29.496  10.924
43255W        W 2351  29.008  28.084  11.889
43256W        W 2352  27.452  10.819  13.799
43257W        W 2353  16.134  34.584  11.115
43258W        W 2354  30.472  20.763  14.299
43259W        W 2355  17.739  12.830  13.506
43260W        W 2356  33.117  30.644   2.276
43261W        W 2357  44.986  31.058   1.742
43262W        W 2358  13.800   3.847   3.721
43263W        W 2359   5.767  20.242  13.501
43264W        W 2360   1.460  36.033  13.536
43265W        W 2361   7.672  39.838  14.991
43266W        W 2362   5.345   2.374   0.309
43267W        W 2363  14.236  26.029  11.898
43268W        W 2364  26.129  31.975   4.658
43269W        W 2365  27.534   1.459   1.315
43270W        W 2366  22.120  28.475  11.081
43271W        W 2367   0.770  32.436   2.856
43272W        W 2368  40.905  41.939   4.718
43273W        W 2369  44.840  20.189   2.813
43274W        W 2370  21.630   1.936  12.068
43275W        W 2371  34.590  43.794  13.461
43276W        W 2372  35.378  40.814  12.910
43277W        W 2373  18.268   8.666   1.699
43278W        W 2374  30.961  44.823   4.623
43279W        W 2375  42.003   1.953   2.192
43280W        W 2376  34.531  39.824   4.117
43281W        W 2377  28.936  26.058   3.782
43282W        W 2378  34.097  30.588  11.934
43283W        W 2379  40.481  32.492  12.465
43284W        W 2380  27.049  29.666  14.459
43285W        W 2381  38.418  18.586   3.825
43286W        W 2382   3.776  18.656   4.662
43287W        W 2383  37.849  41.293   1.276
43288W        W 2384  11.706  17.265  11.098
43289W        W 2385  31.563  43.299   2.399
43290W        W 2386  24.639  34.951   1.249
43291W        W 2387  17.585   3.461  11.956
43292W        W 2388   2.841   0.312   1.242
43293W        W 2389  23.166   4.872  12.828
43294W        W 2390   0.975  20.150   1.892
43295W        W 2391  34.459  41.487   4.755
43296W        W 2392  39.891   8.768   4.352
43297W        W 2393  15.683   3.795  14.462
43298W        W 2394  24.698  12.129   0.874
43299W        W 2395  18.557  39.386  10.147
43300W        W 2396   7.403  29.122  13.531
43301W        W 2397  29.579  14.777   4.768
43302W        W 2398  37.549  24.015   4.718
43303W        W 2399  20.225  27.135  13.902
43304W        W 2400   0.277   9.294  14.004
43305W        W 2401  25.010  34.386  12.096
43306W        W 2402  20.732  19.557  13.999
43307W        W 2403   3.798  25.092   2.295
43308W        W 2404  29.085   0.806   4.704
43309W        W 2405  39.024   6.819  10.418
43310W        W 2406  22.123  19.561   2.810
43311W        W 2407  14.723   7.356   0.245
43312W        W 2408  14.237   0.306  13.529
43313W        W 2409  20.667  17.185  13.864
43314W        W 2410  32.936  42.842   4.156
43315W        W 2411  30.989  12.231  13.381
43316W        W 2412  36.097  16.107  13.024
43317W        W 2413   9.651  10.276   0.941
43318W        W 2414  37.992   9.663  14.028
43319W        W 2415   8.849   1.326  12.539
43320W        W 2416  17.682  25.039   0.434
43321W        W 2417  22.076  28.577   3.355
43322W        W 2418  25.509  35.056  14.290
43323W        W 2419  33.074   5.731   0.927
43324W        W 2420  38.510  38.896  12.854
43325W        W 2421  25.485   5.906  13.911
43326W        W 2422  12.821   4.247   1.401
43327W        W 2423  30.153  23.696   1.801
43328W        W 2424  17.740  35.445  11.082
43329W        W 2425   3.254  32.439  12.527
43330W        W 2426   6.376  24.555  14.955
43331W        W 2427  13.132  25.061  10.079
43332W        W 2428  37.568  12.821  11.993
43333W        W 2429  39.393  17.655   4.207
43334W        W 2430  25.079  43.862   4.614
43335W        W 2431  39.955  39.001  13.055
43336W        W 2432   5.212  40.978   4.701
43337W        W 2433  28.593  16.777  14.950
43338W        W 2434  39.497  13.205   0.287
43339W        W 2435  42.900  23.517   0.874
43340W        W 2436   5.802   8.206   2.380
43341W        W 2437  11.814  28.611  12.416
43342W        W 2438  44.769   9.159  11.510
43343W        W 2439   6.831   2.751  11.374
43344W        W 2440   9.170  11.824  12.350
43345W        W 2441   6.893  27.588  14.374
43346W        W 2442   6.761  15.258  10.920
43347W        W 2443   9.292  25.513   3.828
43348W        W 2444  36.453  22.602   0.458
43349W        W 2445  12.819  15.312  14.805
43350W        W 2446  14.214   8.878  12.863
43351W        W 2447   6.705  10.270   0.740
43352W        W 2448  42.823  24.691  14.444
43353W        W 2449  35.040  28.128   3.296
43354W        W 2450  25.713   1.262   2.311
43355W        W 2451  15.121  13.653  14.403
43356W        W 2452  27.027  18.162   3.642
43357W        W 2453  37.365  16.675  12.006
43358W        W 2454   9.330   2.276  11.074
43359W        W 2455  39.435  24.150  13.392
43360W        W 2456  11.864   5.760  12.960
43361W        W 2457  39.456  34.970   0.476
43362W        W 2458  15.695   2.846  13.889
43363W        W 2459  11.254   0.469   0.431
43364W        W 2460  36.953   7.825   3.359
43365W        W 2461  44.381   0.771   2.765
43366W        W 2462  20.125  44.323   2.276
43367W        W 2463  12.800   0.338  12.067
43368W        W 2464   2.759  43.272   0.478
43369W        W 2465  17.612  35.373  14.394
43370W        W 2466  30.103  16.808   3.201
43371W        W 2467   8.272  25.593  11.409
43372W        W 2468   3.761  34.527   2.737
43373W        W 2469  24.578   0.278   1.417
43374W        W 2470  21.623   9.818  10.136
43375W        W 2471   6.782  14.193  14.764
43376W        W 2472   5.254  25.181  13.031
43377W        W 2473  24.095  40.384  13.897
43378W        W 2474  26.607  38.478  11.452
43379W        W 2475  15.288   4.356  12.409
43380W        W 2476  32.123  39.426   0.328
43381W        W 2477  33.078  26.494   0.376
43382W        W 2478  27.060   7.890   1.226
43383W        W 2479   9.721  28.108   4.630
43384W        W 2480  39.859  30.047   2.385
43385W        W 2481  16.581  37.923  13.493
43386W        W 2482  22.642  38.448  11.075
43387W        W 2483   6.872  34.471  13.821
43388W        W 2484  34.607  12.331  13.921
43389W        W 2485  20.652  35.969   9.469
43390W        W 2486  44.299  13.737   4.303
43391W        W 2487   7.676  37.926  12.044
43392W        W 2488  40.922   4.353  11.115
43393W        W 2489  17.649  40.530   1.910
43394W        W 2490  19.754  15.321   1.379
43395W        W 2491  39.963  12.692  12.959
43396W        W 2492  11.172  17.604  14.478
43397W        W 2493   5.371  28.560   2.860
43398W        W 2494  10.771  36.085   2.898
43399W        W 2495  38.396  28.974   0.334
43400W        W 2496  24.021  26.510   1.358
43401W        W 2497  26.100  40.477   2.744
43402W        W 2498  11.359   6.808  11.996
43403W        W 2499  28.604  10.296   0.858
43404W        W 2500  16.099  36.351   2.834
43405W        W 2501  15.319  28.437  14.025
43406W        W 2502  24.649  31.902   4.338
43407W        W 2503  15.609  13.320  11.124
43408W        W 2504  36.067  15.755  13.807
43409W        W 2505  32.409  29.100  13.361
43410W        W 2506  28.460  39.813   4.806
43411W        W 2507  17.699  28.443  14.310
43412W        W 2508  14.718   5.348  12.087
43413W        W 2509  42.454   2.886   1.815
43414W        W 2510   4.424  26.655  10.444
43415W        W 2511  21.514  34.926   4.603
43416W        W 2512  29.046  37.402  11.382
43417W        W 2513  17.775  34.068  14.515
43418W        W 2514  33.074  16.750  13.826
43419W        W 2515   5.805  39.821   1.837
43420W        W 2516  29.155  17.304  11.950
43421W        W 2517   3.259  40.882  11.591
43422W        W 2518  40.475   6.795   0.844
43423W        W 2519  25.626   8.187  12.012
43424W        W 2520  19.176  40.471   3.250
43425W        W 2521   2.773  21.738   2.800
43426W        W 2522  32.522  10.152  11.596
43427W        W 2523  30.118  15.198   1.854
43428W        W 2524   2.349  40.863  14.769
43429W        W 2525  13.755  18.262  10.947
43430W        W 2526  35.032   3.934  14.362
43431W        W 2527  17.123  29.598  11.476
43432W        W 2528  18.103   6.746   3.214
43433W        W 2529  35.052  31.646  13.015
43434W        W 2530  34.581  29.087   1.433
43435W        W 2531  43.949  31.898   4.830
43436W        W 2532  12.662   0.744  14.449
43437W        W 2533   0.423   7.670  12.928
43438W        W 2534   1.365  44.344  14.012
43439W        W 2535   7.815  33.103  14.460
43440W        W 2536  38.520   3.915  11.117
43441W        W 2537  32.994  12.209   3.300
43442W        W 2538  14.726  23.609   3.637
43443W        W 2539   0.971  14.795   0.761
43444W        W 2540   2.415  37.854  13.831
43445W        W 2541  13.226  19.739   5.267
43446W        W 2542  20.200   9.382  11.528
43447W        W 2543  12.319  39.457  12.029
43448W        W 2544   2.747  30.651   3.697
43449W        W 2545  31.132  29.483  11.869
43450W        W 2546  31.404  41.508  14.949
43451W        W 2547  13.280  34.559  13.842
43452W        W 2548  13.333  25.606  14.773
43453W        W 2549   3.734  23.664   4.195
43454W        W 2550   8.272  19.207   4.653
43455W        W 2551  42.801  11.229   3.843
43456W        W 2552   7.753  44.821   1.900
43457W        W 2553  26.988  30.429  10.161
43458W        W 2554  29.669  28.530   2.833
43459W        W 2555  28.038  41.397  14.990
43460W        W 2556  35.008  28.086  12.486
43461W        W 2557  42.026  41.803   3.680
43462W        W 2558   8.311  19.598  10.415
43463W        W 2559  38.022  16.797  12.941
43464W        W 2560   2.926   0.976   2.884
43465W        W 2561  25.163  39.354  12.920
43466W        W 2562  20.608  32.616   2.365
43467W        W 2563  36.362  36.031   1.294
43468W        W 2564   6.361  41.825  13.801
43469W        W 2565  13.302  37.531  14.498
43470W        W 2566  20.541  14.832  14.863
43471W        W 2567  39.404  10.788  13.342
43472W        W 2568  43.470   7.185  14.495
43473W        W 2569   4.709  42.474   2.190
43474W        W 2570  36.857  24.973  11.089
43475W        W 2571  15.204   6.908   1.324
43476W        W 2572   0.293  44.856   2.295
43477W        W 2573  15.292  34.380   4.343
43478W        W 2574  17.607  20.271   2.842
43479W        W 2575  12.627  16.746  10.960
43480W        W 2576  42.813  39.339   1.765
43481W        W 2577   3.773  44.922  10.982
43482W        W 2578  34.423  44.793   2.864
43483W        W 2579  43.971  32.626   1.695
43484W        W 2580  39.363   1.257  10.918
43485W        W 2581   9.229   7.255   0.889
43486W        W 2582  43.954   2.851   3.652
43487W        W 2583   3.225  13.731  12.957
43488W        W 2584  43.922  26.953  12.564
43489W        W 2585   0.267  26.675   0.334
43490W        W 2586  38.537  22.160   3.856
43491W        W 2587  43.775   0.875  13.370
43492W        W 2588   4.861  15.285  13.928
43493W        W 2589   3.777  29.487  13.008
43494W        W 2590  39.375  43.826  13.016
43495W        W 2591   9.753   3.897   1.761
43496W        W 2592   9.823  10.671   4.309
43497W        W 2593  17.126   2.766   0.434
43498W        W 2594  36.565  20.604  14.303
43499W        W 2595  41.929  21.596  14.031
43500W        W 2596  33.048  16.665  12.360
43501W        W 2597  41.893  11.133  13.369
43502W        W 2598  38.055   3.377  13.358
43503W        W 2599  32.637  27.170   0.407
43504W        W 2600  18.752  39.431  11.864
43505W        W 2601  28.466   6.820  12.532
43506W        W 2602   0.872  17.213   4.827
43507W        W 2603   6.336  37.877  10.545
43508W        W 2604   5.316   0.979   2.724
43509W        W 2605  20.154  13.744   1.264
43510W        W 2606   6.226  41.301  11.097
43511W        W 2607  31.498  44.427  11.887
43512W        W 2608  10.180  19.280   4.268
43513W        W 2609  23.135   5.755   3.189
43514W        W 2610  37.488   7.240  14.481
43515W        W 2611  10.694  14.795  10.421
43516W        W 2612  15.744  17.577  11.004
43517W        W 2613  26.015  29.584   2.212
43518W        W 2614  21.189  29.556   1.839
43519W        W 2615  20.119  35.960   2.200
43520W        W 2616   0.401  21.699  11.938
43521W        W 2617  32.101   4.322   3.823
43522W        W 2618   8.321  33.879  10.417
43523W        W 2619   2.304  17.674  12.514
43524W        W 2620  21.225   0.310  10.915
43525W        W 2621   8.238  18.742   4.798
43526W        W 2622  38.392  22.029   1.785
43527W        W 2623  36.590  12.178  13.897
43528W        W 2624  41.349  28.595  14.447
43529W        W 2625   4.280  32.079   2.294
43530W        W 2626  14.106   5.773  10.550
43531W        W 2627  26.023  34.083   0.360
43532W        W 2628  22.603  40.486   1.332
43533W        W 2629  11.361   2.253   3.833
43534W        W 2630  29.446  15.286  11.920
43535W        W 2631  19.204  35.988   3.167
43536W        W 2632  23.664  14.689   1.344
43537W        W 2633  10.654  13.602   2.201
43538W        W 2634  30.146  28.024  11.478
43539W        W 2635  15.316  13.604   4.331
43540W        W 2636   5.201  10.717   3.734
43541W        W 2637   5.876   7.832   0.376
43542W        W 2638  32.896   9.245  14.904
43543W        W 2639  30.075   8.282   3.326
43544W        W 2640  32.130  20.091  10.427
43545W        W 2641  39.461  15.123   2.838
43546W        W 2642  22.555  34.459   1.877
43547W        W 2643  37.538   3.251   0.851
43548W        W 2644   0.925   7.686  10.597
43549W        W 2645  36.069  26.089   2.246
43550W        W 2646  19.662  22.206   0.954
43551W        W 2647  30.919  16.146   0.243
43552W        W 2648   7.666  32.492  14.303
43553W        W 2649  33.923   1.473   0.367
43554W        W 2650  33.046  41.017   4.737
43555W        W 2651  31.037  14.596   4.714
43556W        W 2652  35.098   4.318  10.965
43557W        W 2653  29.623  23.092  10.548
43558W        W 2654  26.097   7.852  14.334
43559W        W 2655  15.217  43.392  13.835
43560W        W 2656   5.729  43.994   4.801
43561W        W 2657  17.160  16.200   0.883
43562W        W 2658  39.379  23.129  12.861
43563W        W 2659  32.541  41.963  14.827
43564W        W 2660  36.004  20.653  12.534
43565W        W 2661  27.539  11.201   0.827
43566W        W 2662   3.321   2.884  14.302
43567W        W 2663   3.304  34.921  11.874
43568W        W 2664  27.152  22.166  13.520
43569W        W 2665   4.737  43.992  12.013
43570W        W 2666  21.244   7.885   3.698
43571W        W 2667  42.031  29.918  14.859
43572W        W 2668   7.347  23.187  11.974
43573W        W 2669  19.667  28.677  14.315
43574W        W 2670  33.460  17.723  12.535
43575W        W 2671  38.012  43.372  11.486
43576W        W 2672  38.054  17.099  14.842
43577W        W 2673   7.231   5.908  13.795
43578W        W 2674  40.532   4.399  13.029
43579W        W 2675  40.445  20.665  10.992
43580W        W 2676   3.309  27.978   3.224
43581W        W 2677  38.476  18.615  14.946
43582W        W 2678   8.254  34.438  11.022
43583W        W 2679   8.171   5.696  10.611
43584W        W 2680  38.412  31.572   4.608
43585W        W 2681   2.805  23.552   3.202
43586W        W 2682   4.944  35.404   0.917
43587W        W 2683  36.937  43.314  10.514
43588W        W 2684  22.723  11.831   2.806
43589W        W 2685  10.792  29.535  14.412
43590W        W 2686  31.905  12.666   2.287
43591W        W 2687  30.923  40.505  14.007
43592W        W 2688  27.637  19.611   1.837
43593W        W 2689  40.030  30.433  11.993
43594W        W 2690  35.556   2.439  12.997
43595W        W 2691  41.528  21.661  10.887
43596W        W 2692   3.404  29.494   1.310
43597W        W 2693  26.049  15.806  10.421
43598W        W 2694  25.584  17.154  11.993
43599W        W 2695   8.393  40.355  13.386
43600W        W 2696   0.781  42.783   1.259
43601W        W 2697  10.305   8.210   3.695
43602W        W 2698  34.527  16.713  11.554
43603W        W 2699  27.595   6.387   4.205
43604W        W 2700  20.253  15.130  10.488
43605W        W 2701  12.615  17.559   4.310
43606W        W 2702  31.106  28.604   4.735
43607W        W 2703  11.360   3.422  13.344
43608W        W 2704   0.774  24.049  14.760
43609W        W 2705  40.334  14.258  14.315
43610W        W 2706  26.144  21.664  13.798
43611W        W 2707   4.312  15.690  12.386
43612W        W 2708  26.582  43.423   1.399
43613W        W 2709   0.853  18.573  11.454
43614W        W 2710  11.696  35.450   4.206
43615W        W 2711   3.880  41.016  14.930
43616W        W 2712  19.671  36.079   4.730
43617W        W 2713  11.182  41.379   2.297
43618W        W 2714   1.811  13.829  12.083
43619W        W 2715  43.500   1.334   2.245
43620W        W 2716   4.357  33.889  12.065
43621W        W 2717  14.825  37.895  13.895
43622W        W 2718  20.616  35.551  13.547
43623W        W 2719  43.956  12.185  13.031
43624W        W 2720  20.075  13.174   2.289
43625W        W 2721  42.494  35.432   3.744
43626W        W 2722  16.213  17.748   3.638
43627W        W 2723   4.267   1.364   1.835
43628W        W 2724  11.677  14.812   1.358
43629W        W 2725   5.275  33.101   2.743
43630W        W 2726  22.015  11.277  14.769
43631W        W 2727  32.892  35.384  14.464
43632W        W 2728  26.165  18.168   9.990
43633W        W 2729  33.992   8.305  14.282
43634W        W 2730  18.103  22.177  11.476
43635W        W 2731   4.411  21.566   2.759
43636W        W 2732  30.025  32.135   5.164
43637W        W 2733   5.904   5.709  12.826
43638W        W 2734  16.626  10.759  14.883
43639W        W 2735  12.612  24.059  11.454
43640W        W 2736  25.669  41.384  10.507
43641W        W 2737  22.247  37.511   4.339
43642W        W 2738  42.369   5.809   0.929
43643W        W 2739  36.024  24.164   4.153
43644W        W 2740  35.913  23.114  13.888
43645W        W 2741   3.789   0.411   2.765
43646W        W 2742  39.064   8.198  10.930
43647W        W 2743  31.618  26.579   4.169
43648W        W 2744  18.714  16.570  10.492
43649W        W 2745  16.108  29.639  10.959
43650W        W 2746  29.113  40.543  13.499
43651W        W 2747  34.373  23.550  13.057
43652W        W 2748   4.888   2.767  13.406
43653W        W 2749  39.326  19.252   1.838
43654W        W 2750   6.895  13.295   4.812
43655W        W 2751  11.838  31.563   3.857
43656W        W 2752  13.791   7.865  10.519
43657W        W 2753  41.792   1.380  10.980
43658W        W 2754  27.182   2.928   3.210
43659W        W 2755  37.019  40.873  14.965
43660W        W 2756  31.490  41.911   3.357
43661W        W 2757  38.390  31.565   0.399
43662W        W 2758  38.931  33.892   3.712
43663W        W 2759  40.454  15.729  14.488
43664W        W 2760  40.820  10.177   1.326
43665W        W 2761  29.929  39.385  11.020
43666W        W 2762  32.997  27.190   3.743
43667W        W 2763   1.930   8.887  15.000
43668W        W 2764  28.582  44.874  11.055
43669W        W 2765  25.638   5.914  11.584
43670W        W 2766  32.917   8.866  13.911
43671W        W 2767  36.966   5.706  13.058
43672W        W 2768  12.172  14.681   3.848
43673W        W 2769  15.617  10.337   2.218
43674W        W 2770  43.295  34.402  11.504
43675W        W 2771  14.593  13.632  13.320
43676W        W 2772  34.878  27.162  13.543
43677W        W 2773  28.143   5.778   1.414
43678W        W 2774   4.880  14.287  12.903
43679W        W 2775  43.468  22.740  14.835
43680W        W 2776  24.047  39.037  10.600
43681W        W 2777  34.098   3.374   1.299
43682W        W 2778  21.552  35.372  11.052
43683W        W 2779  19.778  37.363   2.780
43684W        W 2780  33.493  39.357  14.916
43685W        W 2781  34.968  37.057   1.282
43686W        W 2782  14.833  24.596   3.170
43687W        W 2783  28.981  41.007   0.738
43688W        W 2784  34.435   2.953  10.608
43689W        W 2785  35.517   2.947   4.744
43690W        W 2786  30.623   4.884   1.887
43691W        W 2787   8.851  16.649  12.477
43692W        W 2788  38.389  34.915   3.286
43693W        W 2789  19.769   9.863   9.454
43694W        W 2790  20.094   4.862  12.417
43695W        W 2791  23.560  23.036  12.389
43696W        W 2792  27.017  40.409  11.092
43697W        W 2793   1.350   4.267  14.428
43698W        W 2794   0.258  12.222   4.186
43699W        W 2795  17.261  19.589  11.905
43700W        W 2796   5.215  37.419  12.906
43701W        W 2797   5.882  39.484   2.733
43702W        W 2798  39.430   1.284   3.160
43703W        W 2799  27.588  36.078  14.304
43704W        W 2800  22.622  23.081  11.992
43705W        W 2801  41.880  12.144   0.864
43706W        W 2802  23.657   0.930   1.810
43707W        W 2803  24.593  44.431   0.279
43708W        W 2804  27.657  31.029   3.820
43709W        W 2805   3.849  13.658  14.391
43710W        W 2806  38.016   4.773   2.286
43711W        W 2807  15.113  16.748  14.449
43712W        W 2808  10.281   7.174  11.454
43713W        W 2809   6.873  35.995  11.435
43714W        W 2810  24.986  42.003   1.327
43715W        W 2811   5.434  24.103  14.452
43716W        W 2812  27.184   4.862  14.929
43717W        W 2813  33.604   2.407  13.008
43718W        W 2814  22.577  35.433   3.771
43719W        W 2815  14.752  37.416   4.319
43720W        W 2816   3.895  36.039   0.353
43721W        W 2817  27.033  13.320  11.935
43722W        W 2818   7.676  17.669  13.430
43723W        W 2819  10.728  44.800   3.342
43724W        W 2820  12.673  16.180  14.364
43725W        W 2821   9.786  28.446   2.181
43726W        W 2822  26.650  21.082  13.794
43727W        W 2823  19.780   0.814  11.524
43728W        W 2824  43.378  16.209  12.371
43729W        W 2825  25.689  10.762  12.013
43730W        W 2826  11.210  12.672  13.990
43731W        W 2827  42.985  26.529  10.976
43732W        W 2828   6.874   9.678   1.386
43733W        W 2829  26.190  17.782   3.870
43734W        W 2830   7.721  19.102   1.893
43735W        W 2831   8.816  32.952   2.221
43736W        W 2832  43.979  19.052  12.439
43737W        W 2833  42.827  37.009  10.423
43738W        W 2834  39.831   2.395   4.338
43739W        W 2835  23.992  36.040   3.658
43740W        W 2836   9.207  44.849   1.694
43741W        W 2837  28.551   4.242  12.085
43742W        W 2838  29.163  34.588  13.538
43743W        W 2839  21.587  21.134   3.664
43744W        W 2840  44.901  13.642   4.330
43745W        W 2841  24.017  15.093   4.278
43746W        W 2842  13.735   5.734  11.600
43747W        W 2843   1.293  21.193  13.037
43748W        W 2844  31.472   3.333   2.802
43749W        W 2845   1.776  20.703  10.608
43750W        W 2846  28.135   3.344  10.644
43751W        W 2847  24.641  32.985  14.958
43752W        W 2848  20.045  12.308  11.869
43753W        W 2849   2.376  26.653   0.457
43754W        W 2850  31.906  34.925   1.346
43755W        W 2851  34.387  34.121  12.063
43756W        W 2852  10.150  32.067   4.318
43757W        W 2853  38.871  35.916  12.446
43758W        W 2854  34.461  26.069  13.543
43759W        W 2855  12.752  15.796   3.182
43760W        W 2856  19.266  31.435  14.968
43761W        W 2857  39.542  13.114   0.812
43762W        W 2858  24.194  30.551  10.441
43763W        W 2859  20.036  40.428  10.114
43764W        W 2860   3.901  44.349   4.699
43765W        W 2861  13.652  27.054   1.305
43766W        W 2862  44.505  25.145   2.858
43767W        W 2863  20.066  18.143   2.830
43768W        W 2864  42.781  43.398   2.398
43769W        W 2865  39.529  13.673   2.296
43770W        W 2866  27.565  38.071  14.459
43771W        W 2867  25.200  29.946   1.275
43772W        W 2868  24.509  40.885   3.845
43773W        W 2869  34.892  17.280   0.770
43774W        W 2870   9.830   0.772  14.353
43775W        W 2871  23.497  25.575   4.605
43776W        W 2872  23.621  21.082   1.330
43777W        W 2873   6.184  35.498  11.002
43778W        W 2874  14.106  31.030   1.735
43779W        W 2875  39.365  14.311  13.503
43780W        W 2876  10.647  11.232   0.836
43781W        W 2877  36.591  35.076   2.358
43782W        W 2878  31.067  17.799   5.233
43783W        W 2879   3.457   8.696   0.765
43784W        W 2880  13.228  35.079  13.375
43785W        W 2881  19.102  19.051  13.931
43786W        W 2882   9.859  22.522   2.404
43787W        W 2883  42.906  43.445  14.966
43788W        W 2884  40.338   1.959   4.247
43789W        W 2885  20.574  25.029  11.952
43790W        W 2886  23.621  19.088  11.081
43791W        W 2887  39.478  17.301   2.320
43792W        W 2888  10.875  18.582  11.381
43793W        W 2889  26.143  11.176   1.296
43794W        W 2890  34.998  18.634   4.733
43795W        W 2891  38.884  13.692   5.130
43796W        W 2892  43.379  20.743  11.374
43797W        W 2893   6.819  30.138   2.897
43798W        W 2894  35.040   1.349   1.357
43799W        W 2895  37.446  30.008  10.941
43800W        W 2896  14.101  35.376   2.268
43801W        W 2897  29.423  17.162  12.975
43802W        W 2898  29.428   8.660  11.464
43803W        W 2899   8.758  11.778  12.084
43804W        W 2900  19.571   7.369  11.380
43805W        W 2901  14.332  34.517   3.807
43806W        W 2902  12.220   0.392   3.285
43807W        W 2903  20.739  37.567  11.459
43808W        W 2904  41.864   8.267  13.983
43809W        W 2905  25.638  22.745  10.058
43810W        W 2906  20.116  10.194  14.505
43811W        W 2907   5.391  34.102  10.465
43812W        W 2908  40.465  38.892   2.270
43813W        W 2909  21.740  25.550   0.749
43814W        W 2910  17.254  23.136  12.025
43815W        W 2911  40.343  16.270  12.006
43816W        W 2912  30.105  39.456   1.288
43817W        W 2913  29.020  32.008   0.251
43818W        W 2914  38.436   5.824  10.521
43819W        W 2915   7.172  17.786  13.407
43820W        W 2916  24.133  27.041   0.809
43821W        W 2917  31.582  18.288  11.093
43822W        W 2918  31.125  23.194   0.283
43823W        W 2919  12.634  14.262  12.884
43824W        W 2920  43.817  39.445  10.540
43825W        W 2921  14.158  19.201  12.376
43826W        W 2922  31.935   2.280  11.916
43827W        W 2923  37.402   8.784  11.423
43828W        W 2924   1.370  36.574  11.546
43829W        W 2925   3.298  43.352  12.024
43830W        W 2926  17.289  31.915  12.887
43831W        W 2927  23.609  34.089   0.454
43832W        W 2928  44.456  18.093   2.879
43833W        W 2929  25.569  12.656   5.131
43834W        W 2930  38.365  23.049   4.135
43835W        W 2931  11.370  17.717   3.254
43836W        W 2932  13.343  36.424   1.764
43837W        W 2933  20.736  24.139   1.420
43838W        W 2934  30.652  26.553  12.470
43839W        W 2935  13.695   1.899   1.749
43840W        W 2936   3.885  44.802  12.860
43841W        W 2937  28.930  25.070   4.174
43842W        W 2938  33.592  36.490   4.120
43843W        W 2939  22.213  18.081  11.572
43844W        W 2940  10.771  25.980  10.416
43845W        W 2941  15.660  38.036   4.729
43846W        W 2942  24.171  44.436  10.533
43847W        W 2943   0.807  27.993  11.129
43848W        W 2944  16.622  25.116   3.170
43849W        W 2945   0.867  44.814  11.503
43850W        W 2946  31.496  11.279  14.434
43851W        W 2947   0.825  14.184   2.846
43852W        W 2948  30.974  35.854   3.745
43853W        W 2949  20.065  20.105   1.288
43854W        W 2950   0.326   7.368   2.328
43855W        W 2951  14.210  33.380  14.997
43856W        W 2952  44.348  37.956  14.877
43857W        W 2953  34.485  24.642  14.312
43858W        W 2954   2.295  36.095  11.556
43859W        W 2955   5.933  13.811  13.535
43860W        W 2956  12.337  32.064   2.809
43861W        W 2957  19.730  35.915  14.442
43862W        W 2958  15.215  17.685   2.350
43863W        W 2959  13.337  26.133   4.824
43864W        W 2960  37.032  43.298  11.856
43865W        W 2961  18.633  20.250  13.322
43866W        W 2962  13.327  32.457  13.927
43867W        W 2963  26.078   1.480   3.816
43868W        W 2964  25.471  30.119  11.024
43869W        W 2965  13.252  15.727  12.942
43870W        W 2966   9.861  44.293   4.314
43871W        W 2967   5.826  35.907  13.031
43872W        W 2968  14.311  28.050  11.033
43873W        W 2969  27.543   2.942  13.982
43874W        W 2970   4.944  26.537  11.001
43875W        W 2971  15.156  30.528  13.819
43876W        W 2972  29.970   1.288   3.298
43877W        W 2973  34.396  36.409   4.181
43878W        W 2974  15.775  25.107  13.354
43879W        W 2975   1.902  22.745   2.402
43880W        W 2976  31.071  37.457   1.908
43881W        W 2977  40.469  29.047  14.326
43882W        W 2978  26.132  24.718  10.976
43883W        W 2979  29.517  33.046   1.741
43884W        W 2980  20.067  24.483  11.086
43885W        W 2981  19.684  23.038  11.005
43886W        W 2982  25.669  41.411  12.899
43887W        W 2983  24.148  34.495   4.121
43888W        W 2984   3.800  14.212   1.782
43889W        W 2985  37.862  34.068   0.451
43890W        W 2986  16.132  15.635  12.424
43891W        W 2987  22.746   5.838   2.790
43892W        W 2988  23.690  19.241  13.827
43893W        W 2989  37.976  44.913   0.845
43894W        W 2990   8.887  22.122   4.208
43895W        W 2991   1.805  18.085   0.346
43896W        W 2992  40.484  17.609   1.852
43897W        W 2993  12.747  18.561  11.931
43898W        W 2994  17.291  11.332  13.793
43899W        W 2995  24.523  28.949   0.323
43900W        W 2996   7.761  36.441   2.822
43901W        W 2997  35.062  16.694   9.963
43902W        W 2998  30.451  10.833   4.687
43903W        W 2999  17.564  38.485  11.108
43904W        W 3000  22.121  38.360   0.245
43905W        W 3001   1.888  43.964  11.880
43906W        W 3002   0.304  39.004   2.794
43907W        W 3003  29.424  28.446  14.890
43908W        W 3004   7.206  23.548   4.698
43909W        W 3005  13.750  13.643  13.899
43910W        W 3006  33.600  29.062   1.728
43911W        W 3007  11.314  22.703  10.594
43912W        W 3008  38.487   9.191  12.877
43913W        W 3009  30.554  26.665   4.187
43914W        W 3010   6.425  31.152   3.708
43915W        W 3011  43.502  31.949   4.186
43916W        W 3012   1.861  12.614   0.333
43917W        W 3013  11.358  31.059  12.434
43918W        W 3014  42.819  17.269  14.761
43919W        W 3015   9.872  25.503   1.351
43920W        W 3016  16.232  18.279   5.223
43921W        W 3017  22.675  35.969  10.443
43922W        W 3018  34.107  34.896   4.204
43923W        W 3019  26.182  10.353  12.999
43924W        W 3020  37.842  43.372   2.407
43925W        W 3021  41.864  38.511   4.743
43926W        W 3022   9.353  14.135   3.871
43927W        W 3023  21.108  11.270  10.046
43928W        W 3024  13.131  31.136  12.436
43929W        W 3025   2.777  31.594  12.094
43930W        W 3026   6.336   9.651  14.333
43931W        W 3027  37.467   4.215  11.377
43932W        W 3028  36.559  39.009   0.966
43933W        W 3029   0.468   3.313  14.794
43934W        W 3030   3.946  16.710  11.940
43935W        W 3031  41.402  14.803  13.447
43936W        W 3032  21.745  30.994  10.509
43937W        W 3033  19.695   6.258  14.979
43938W        W 3034  29.931  39.543  12.836
43939W        W 3035  26.179  12.760  13.004
43940W        W 3036  31.004  13.754   4.748
43941W        W 3037  10.832  24.182  12.446
43942W        W 3038  12.299  15.762  13.928
43943W        W 3039  21.221  17.765   4.736
43944W        W 3040  11.854  43.379  10.957
43945W        W 3041  16.261  41.844  14.862
43946W        W 3042  24.564  40.020  10.914
43947W        W 3043  11.642  24.125  11.026
43948W        W 3044  19.257  25.693  14.873
43949W        W 3045   5.812  18.668  14.508
43950W        W 3046  30.590  13.192   3.271
43951W        W 3047  42.401  33.078   4.354
43952W        W 3048  36.875  41.390   3.840
43953W        W 3049  15.794  30.646   4.271
43954W        W 3050  44.354  14.241   1.374
43955W        W 3051  44.482  13.176   0.477
43956W        W 3052   3.904  27.479  14.308
43957W        W 3053  24.152  11.147   2.802
43958W        W 3054  38.370   7.196   2.735
43959W        W 3055  24.132  43.818  14.879
43960W        W 3056  13.814   2.405   4.803
43961W        W 3057  15.595  25.695   2.834
43962W        W 3058  24.570  32.975  12.355
43963W        W 3059   1.839   3.215  14.856
43964W        W 3060  11.369  16.142   2.292
43965W        W 3061  40.873   9.294   0.347
43966W        W 3062  41.478  22.252   3.686
43967W        W 3063  19.272  17.086   4.790
43968W        W 3064  24.626  41.983   2.902
43969W        W 3065  12.834  17.105  13.053
43970W        W 3066  38.398   0.421   1.904
43971W        W 3067  11.195  14.129   0.254
43972W        W 3068  44.472  23.012  14.375
43973W        W 3069  36.351  11.228  14.284
43974W        W 3070  20.145  36.349  14.353
43975W        W 3071   1.843  41.934  11.891
43976W        W 3072  19.175  44.930  10.618
43977W        W 3073  12.716  44.295   4.757
43978W        W 3074   7.765  43.918   3.154
43979W        W 3075  32.574  26.472   1.768
43980W        W 3076  33.076  25.605  12.032
43981W        W 3077  33.070   7.837  13.825
43982W        W 3078  11.787  11.854  13.915
43983W        W 3079  13.694  43.827  13.933
43984W        W 3080  15.584  37.348   5.595
43985W        W 3081  27.064  39.351  11.373
43986W        W 3082  18.086  16.162   0.918
43987W        W 3083  41.913  43.984   4.762
43988W        W 3084  34.873   5.702  13.326
43989W        W 3085  16.583  31.095   4.793
43990W        W 3086   3.351  28.444   4.161
43991W        W 3087  24.221  11.244  11.447
43992W        W 3088  21.191   2.426   3.710
43993W        W 3089  35.918  29.118  12.397
43994W        W 3090  14.775  10.156   1.417
43995W        W 3091  27.125  24.979  14.943
43996W        W 3092  24.649   5.280   2.676
43997W        W 3093  32.899  18.674  14.914
43998W        W 3094  27.061  12.837  11.878
43999W        W 3095  33.998  32.585   1.414
44000W        W 3096  19.172  35.584  11.395
44001W        W 3097  29.156   1.462   0.438
44002W        W 3098   0.906  11.645  14.873
44003W        W 3099  44.453  14.707   4.268
44004W        W 3100  43.811  33.061   4.284
44005W        W 3101  37.851  38.384  11.104
44006W        W 3102  27.675  32.601   5.726
44007W        W 3103  39.344  24.589   2.799
44008W        W 3104  28.476  27.015  11.498
44009W        W 3105  36.861   2.307  11.104
44010W        W 3106  19.102  26.141  14.314
44011W        W 3107  23.218  27.045   0.736
44012W        W 3108  23.068  19.130   3.196
44013W        W 3109  29.635  43.804   3.818
44014W        W 3110  22.066  21.607   0.275
44015W        W 3111  21.037  20.107   2.269
44016W        W 3112   3.776  17.266  11.075
44017W        W 3113  38.935  33.915  11.082
44018W        W 3114  19.156  32.114  12.348
44019W        W 3115  15.658   5.432  14.980
44020W        W 3116  33.458  19.571  14.842
44021W        W 3117   6.741  18.109   2.383
44022W        W 3118   5.260  13.310   3.352
44023W        W 3119  37.979  27.687  11.916
44024W        W 3120  38.454  29.008  13.522
44025W        W 3121  14.818  19.179   3.702
44026W        W 3122  40.359  18.053  14.318
44027W        W 3123  17.573  18.059  12.361
44028W        W 3124  24.019  38.467   1.258
44029W        W 3125  32.456  15.596  13.829
44030W        W 3126  17.111  39.409   1.922
44031W        W 3127   5.707  18.776  11.519
44032W        W 3128  39.481  19.263   0.408
44033W        W 3129  18.177  23.723  10.527
44034W        W 3130  42.819  24.219   0.834
44035W        W 3131  27.577  27.161   4.332
44036W        W 3132   7.677   5.744  12.928
44037W        W 3133   4.771   9.656  13.875
44038W        W 3134   9.320  29.976  10.913
44039W        W 3135  23.202  38.929   2.826
44040W        W 3136  32.898  41.877  14.773
44041W        W 3137   4.238   5.240  13.498
44042W        W 3138  14.266  39.818  11.901
44043W        W 3139  24.036  25.964  14.431
44044W        W 3140  21.045  44.842   0.896
44045W        W 3141  17.300  15.764   3.167
44046W        W 3142  24.155  37.439   0.256
44047W        W 3143   1.846  33.894  13.415
44048W        W 3144  22.564  36.409  12.939
44049W        W 3145  29.501  24.673   0.301
44050W        W 3146  41.875   4.941  14.428
44051W        W 3147  26.024  37.515  14.465
44052W        W 3148  25.137   2.906  10.532
44053W        W 3149  40.439  34.973  12.017
44054W        W 3150  40.038   2.727  11.094
44055W        W 3151  41.342   8.879  14.509
44056W        W 3152  39.527  42.523   2.834
44057W        W 3153  30.451  21.099   5.182
44058W        W 3154  28.476   5.909   3.703
44059W        W 3155  42.804   3.244   2.282
44060W        W 3156  16.707  25.484   2.413
44061W        W 3157  40.517  39.380   3.306
44062W        W 3158  13.705  20.222  12.468
44063W        W 3159  34.982  33.923   3.339
44064W        W 3160   9.756  40.857  11.899
44065W        W 3161   1.840  31.544   0.424
44066W        W 3162  37.995   8.282  10.117
44067W        W 3163  29.664  42.470   3.774
44068W        W 3164  25.527  39.458  10.899
44069W        W 3165  43.324   9.752   4.692
44070W        W 3166  40.975  30.984   3.666
44071W        W 3167  40.022   6.837   1.830
44072W        W 3168  32.529  10.701  14.867
44073W        W 3169  16.601  39.055  11.944
44074W        W 3170  44.760  27.492  10.973
44075W        W 3171  40.466   1.864  14.288
44076W        W 3172  34.416  37.886   0.402
44077W        W 3173  16.593  11.154   0.437
44078W        W 3174  12.727  26.567  14.355
44079W        W 3175  40.548  31.446   2.888
44080W        W 3176  13.748   1.404  13.922
44081W        W 3177  44.493  23.681  10.012
44082W        W 3178  24.004  16.674  11.583
44083W        W 3179  35.912  39.499   4.321
44084W        W 3180  21.587  41.005  13.895
44085W        W 3181  39.930  39.536   0.459
44086W        W 3182  30.505  41.489   2.416
44087W        W 3183   7.845   9.182   4.301
44088W        W 3184  38.383  23.696   1.731
44089W        W 3185  27.044  30.570  11.055
44090W        W 3186  35.580  40.487  11.501
44091W        W 3187  44.756  14.722   4.327
44092W        W 3188   0.986   6.875  13.337
44093W        W 3189  44.840   7.176  13.335
44094W        W 3190  10.347  33.554  14.940
44095W        W 3191  28.563  22.621   3.321
44096W        W 3192   8.353  25.553   0.961
44097W        W 3193  43.809  10.722   0.752
44098W        W 3194  17.581  17.668  11.894
44099W        W 3195  17.194  31.413  11.450
44100W        W 3196   4.436  42.444  12.359
44101W        W 3197   5.765   4.329   4.346
44102W        W 3198  41.500  39.906   2.371
44103W        W 3199  14.787  14.134   5.255
44104W        W 3200  23.569  32.910  11.106
44105W        W 3201  29.127   6.921  14.782
44106W        W 3202   7.771  30.537   4.291
44107W        W 3203   2.276  42.824   2.842
44108W        W 3204  24.553  38.562   3.630
44109W        W 3205  32.408  42.883   0.874
44110W        W 3206  25.020  16.621  12.988
44111W        W 3207   3.239  27.586   1.703
44112W        W 3208  15.087  37.837   9.551
44113W        W 3209  22.036   7.813   4.717
44114W        W 3210  19.745  38.430  13.005
44115W        W 3211   6.282  25.539  14.973
44116W        W 3212  19.630  23.649   0.331
44117W        W 3213  31.929  35.555  13.361
44118W        W 3214  27.046  37.437  13.023
44119W        W 3215  19.660  23.029  14.340
44120W        W 3216   4.369  26.999   9.534
44121W        W 3217   7.311  31.597  11.381
44122W        W 3218  34.916   6.390   3.225
44123W        W 3219  22.618  16.628   3.262
44124W        W 3220  34.015  39.898   2.261
44125W        W 3221  40.416  42.978   0.872
44126W        W 3222  10.809  24.202   2.212
44127W        W 3223  37.491  33.882   4.222
44128W        W 3224  33.890  34.561   2.785
44129W        W 3225   0.791  39.040  14.828
44130W        W 3226  23.058  14.101   2.311
44131W        W 3227  28.464  18.646   2.664
44132W        W 3228   3.738  43.347   4.250
44133W        W 3229  26.475  43.428  12.543
44134W        W 3230   7.366   8.727   0.395
44135W        W 3231  17.722  28.056   2.205
44136W        W 3232  29.936  38.893   3.303
44137W        W 3233  30.491   6.348  10.588
44138W        W 3234  39.004   7.278   1.304
44139W        W 3235  43.901  37.371  11.127
44140W        W 3236  26.995  25.527  10.486
44141W        W 3237  20.144   8.679   0.398
44142W        W 3238  24.113  20.646   2.776
44143W        W 3239  30.450  29.634   4.620
44144W        W 3240  31.531  37.501  10.482
44145W        W 3241  34.582  21.581   4.300
44146W        W 3242  33.499  24.014  14.759
44147W        W 3243  29.637  31.605  14.861
44148W        W 3244   1.827  24.149  14.918
44149W        W 3245   3.857   8.163  11.588
44150W        W 3246  43.384  40.949   2.303
44151W        W 3247   7.827  44.920   1.274
44152W        W 3248  11.353  13.659  12.478
44153W        W 3249  33.131  19.142  14.966
44154W        W 3250  16.690   2.883  13.524
44155W        W 3251  24.059  11.698   4.710
44156W        W 3252  20.584  44.425   0.350
44157W        W 3253  24.210  29.159   0.302
44158W        W 3254  34.482   8.199  14.878
44159W        W 3255  35.390  32.584   0.425
44160W        W 3256  23.568  40.869   0.367
44161W        W 3257  32.130   3.453   1.221
44162W        W 3258  14.100  21.240   2.335
44163W        W 3259  12.810  20.121   0.817
44164W        W 3260  38.926  25.556   1.382
44165W        W 3261  19.204  31.601   2.874
44166W        W 3262   5.864   7.721   2.223
44167W        W 3263  37.379  35.927  10.536
44168W        W 3264   5.820   0.289  11.563
44169W        W 3265  24.144   2.413   0.376
44170W        W 3266  29.531  19.175   0.343
44171W        W 3267  20.672   9.299  12.481
44172W        W 3268  33.528  17.295   0.431
44173W        W 3269  29.964  43.917   2.842
44174W        W 3270  27.547  16.726   3.167
44175W        W 3271   2.369  33.386   0.772
44176W        W 3272  25.524  28.443  12.852
44177W        W 3273   9.385  39.944   4.765
44178W        W 3274  21.118  33.500   3.348
44179W        W 3275  33.996  15.280  12.339
44180W        W 3276  43.330  18.087   4.179
44181W        W 3277  18.566  31.502  11.414
44182W        W 3278  12.786   6.701  14.000
44183W        W 3279  32.114  29.087   4.626
44184W        W 3280  43.764   4.233  11.968
44185W        W 3281  25.711  20.688  13.465
44186W        W 3282  15.205  14.718  10.520
44187W        W 3283   2.384  33.404  14.314
44188W        W 3284  42.513  41.321  11.456
44189W        W 3285  19.204  27.647  14.346
44190W        W 3286  38.869  42.520   4.311
44191W        W 3287  11.141  11.265  11.919
44192W        W 3288  24.024   2.326   2.894
44193W        W 3289  21.660  26.516   5.299
44194W        W 3290  10.313  28.661   0.763
44195W        W 3291  25.598   0.414  13.957
44196W        W 3292  14.591  43.950   1.273
44197W        W 3293  16.122  19.730   1.831
44198W        W 3294  44.341  29.470   1.421
44199W        W 3295  22.219  38.472   4.616
44200W        W 3296   8.669  28.059  14.018
44201W        W 3297  38.472   0.763  10.468
44202W        W 3298  18.073   2.760  12.021
44203W        W 3299  37.050  29.563  10.939
44204W        W 3300  18.775  26.054   3.299
44205W        W 3301  18.648  33.122   4.298
44206W        W 3302  10.862  13.785  14.365
44207W        W 3303  41.512  11.161   2.726
44208W        W 3304  10.384  21.027  13.933
44209W        W 3305  39.484  44.269   4.260
44210W        W 3306  10.641  35.424   4.699
44211W        W 3307  35.549  10.708   0.298
44212W        W 3308   4.294  21.092  11.403
44213W        W 3309  32.002   1.473  14.895
44214W        W 3310  31.568  14.262  11.403
44215W        W 3311  17.294  39.445  14.827
44216W        W 3312  24.983  23.002   0.474
44217W        W 3313  34.414  44.973   4.328
44218W        W 3314  44.958  34.471  12.434
44219W        W 3315  20.726  23.087  13.972
44220W        W 3316  39.507  18.170   4.352
44221W        W 3317  11.733  30.915  10.444
44222W        W 3318  30.119  39.375   3.682
44223W        W 3319  32.599  23.168  13.415
44224W        W 3320  30.008  38.902  14.348
44225W        W 3321  16.801  24.155  12.470
44226W        W 3322  17.629  12.722  14.353
44227W        W 3323   0.442  15.238  13.948
44228W        W 3324  37.054  20.061   3.853
44229W        W 3325  21.163  16.256  11.887
44230W        W 3326   1.267  25.483  12.526
44231W        W 3327  33.888  24.606  14.965
44232W        W 3328  22.012  11.805  13.461
44233W        W 3329   4.873  24.500   2.351
44234W        W 3330  15.703  38.366   1.313
44235W        W 3331  32.065  33.512   4.269
44236W        W 3332  29.092  36.412   5.248
44237W        W 3333   6.233  39.035   4.147
44238W        W 3334  16.218  42.957   2.730
44239W        W 3335  39.930  21.707  13.523
44240W        W 3336  19.638  33.071  12.368
44241W        W 3337   8.678  11.745  12.878
44242W        W 3338   3.378  30.640  11.055
44243W        W 3339  18.638   3.351   1.840
44244W        W 3340  32.560  37.883  13.984
44245W        W 3341  39.843   0.411   4.294
44246W        W 3342  30.433  35.895  10.986
44247W        W 3343   1.454   0.926  11.499
44248W        W 3344   0.747  34.479   0.792
44249W        W 3345  14.685  22.163   0.263
44250W        W 3346  10.270   5.882  13.965
44251W        W 3347  25.135  37.543   0.361
44252W        W 3348  41.513  11.311   4.116
44253W        W 3349  10.840   7.342   1.423
44254W        W 3350  24.715  27.173   0.457
44255W        W 3351  35.531  37.968  13.350
44256W        W 3352  28.108  17.710  10.437
44257W        W 3353  11.646  12.780   0.482
44258W        W 3354   5.737  22.573  13.885
44259W        W 3355  36.959  14.791  14.972
44260W        W 3356  18.206  25.485  14.801
44261W        W 3357  23.492  30.646   0.419
44262W        W 3358  38.365  40.433  11.559
44263W        W 3359  19.213  18.632   1.262
44264W        W 3360   1.302  23.505  13.958
44265W        W 3361  34.027  40.348   1.290
44266W        W 3362   3.862  39.035   0.847
44267W        W 3363   1.797  42.887   0.834
44268W        W 3364  38.490  11.746  12.982
44269W        W 3365  24.640  32.003  12.366
44270W        W 3366  42.364  42.843   3.338
44271W        W 3367  19.259  19.739  14.989
44272W        W 3368  29.118   3.852  11.955
44273W        W 3369  13.661  16.112  12.363
44274W        W 3370  10.382  24.227   2.869
44275W        W 3371   4.869  16.635  11.545
44276W        W 3372  40.993  27.159   1.360
44277W        W 3373   4.268  31.575   3.172
44278W        W 3374  24.615   8.313  14.480
44279W        W 3375  11.715   2.738  11.077
44280W        W 3376  25.519  37.437  12.021
44281W        W 3377  31.416  28.606  11.590
44282W        W 3378  26.989  42.013  13.830
44283W        W 3379   0.974  44.926   3.758
44284W        W 3380  32.537   5.433  10.404
44285W        W 3381  18.220   9.271  11.995
44286W        W 3382  15.696  38.405   4.141
44287W        W 3383   7.831  34.100  13.528
44288W        W 3384  21.520  32.637  13.406
44289W        W 3385  26.171   4.907   2.898
44290W        W 3386  30.454  11.266  13.390
44291W        W 3387   8.364   3.720   0.358
44292W        W 3388  12.187  29.083   3.288
44293W        W 3389  36.999  36.975  10.604
44294W        W 3390  36.540  22.680  10.446
44295W        W 3391  40.504  23.577   1.246
44296W        W 3392   2.745  11.670  13.990
44297W        W 3393  44.391  43.438   4.140
44298W        W 3394   0.289   6.859   0.326
44299W        W 3395   2.342  23.557   1.264
44300W        W 3396  36.555  37.418   3.325
44301W        W 3397  34.387   9.718  11.491
44302W        W 3398  44.277  18.674   2.662
44303W        W 3399   7.232  23.162  13.364
44304W        W 3400   2.759  25.102   3.240
44305W        W 3401  13.811  38.030  14.499
44306W        W 3402   6.886  30.618   2.194
44307W        W 3403  29.522  19.619  10.501
44308W        W 3404  38.515  11.168  12.495
44309W        W 3405   3.265  15.762   0.911
44310W        W 3406  20.033  12.298   3.314
44311W        W 3407  35.038  35.381  12.012
44312W        W 3408   1.483  36.942   1.884
44313W        W 3409  22.519  12.124   0.820
44314W        W 3410  42.282   6.304   0.893
44315W        W 3411  22.544  18.685  13.531
44316W        W 3412   5.437  17.720   2.827
44317W        W 3413   5.781  12.343  14.456
44318W        W 3414  34.060  30.484   1.779
44319W        W 3415  40.010  20.178  12.011
44320W        W 3416   9.333  27.599  12.945
44321W        W 3417  15.586   4.873  11.906
44322W        W 3418  31.407  20.185  14.430
44323W        W 3419   2.842  28.042  11.575
44324W        W 3420  35.999  19.257   2.254
44325W        W 3421  31.124  24.670  14.290
44326W        W 3422  40.478   8.815  13.375
44327W        W 3423  16.075   1.335  11.589
44328W        W 3424   3.435  27.035  14.959
44329W        W 3425   2.841  43.830  14.276
44330W        W 3426   2.232   5.199   1.775
44331W        W 3427  34.931  23.657   3.385
44332W        W 3428   3.769  44.836  12.349
44333W        W 3429  20.699  31.449   3.375
44334W        W 3430  27.964  27.115  12.025
44335W        W 3431  30.447  10.380  13.829
44336W        W 3432  35.077  38.441   1.703
44337W        W 3433  34.032   4.728   0.922
44338W        W 3434  27.125  18.781  11.540
44339W        W 3435  32.520  14.173  12.881
44340W        W 3436  34.452  32.542  14.783
44341W        W 3437  21.597  13.634   5.595
44342W        W 3438  42.863  32.900   1.790
44343W        W 3439  13.179   5.820  11.875
44344W        W 3440  29.973   9.379  12.044
44345W        W 3441   1.397  44.858   4.656
44346W        W 3442  19.105  12.143   3.232
44347W        W 3443  21.611  41.388   2.284
44348W        W 3444  31.068  39.480   4.271
44349W        W 3445  34.891  41.450  12.949
44350W        W 3446  21.740  22.132  11.540
44351W        W 3447  17.068  11.702   0.308
44352W        W 3448  19.761   6.367   2.792
44353W        W 3449  13.281  35.393  14.295
44354W        W 3450  14.826  12.313   4.793
44355W        W 3451   4.735   4.815  14.383
44356W        W 3452  44.432  29.607   4.347
44357W        W 3453   8.327  15.108   2.720
44358W        W 3454  34.075  28.077  11.927
44359W        W 3455  18.109  26.078   2.799
44360W        W 3456  16.232   8.174  12.091
44361W        W 3457  39.418  29.033   0.370
44362W        W 3458  21.106  27.516  11.905
44363W        W 3459  31.940   8.774  12.345
44364W        W 3460  28.588  11.282   3.676
44365W        W 3461  29.040  20.738   1.858
44366W        W 3462  32.464  10.864   4.775
44367W        W 3463  31.464  30.148   3.826
44368W        W 3464  18.091   5.706   0.746
44369W        W 3465  28.165  34.451   3.166
44370W        W 3466  21.575  35.056   1.273
44371W        W 3467  15.798  11.632  11.032
44372W        W 3468   9.740  12.804  13.525
44373W        W 3469  27.633  26.700   3.325
44374W        W 3470  18.153   1.891   4.809
44375W        W 3471  44.921   6.909  13.350
44376W        W 3472  34.872  44.398  14.774
44377W        W 3473  29.464  36.534   3.188
44378W        W 3474  22.556  42.320   2.277
44379W        W 3475  15.792  38.541  10.994
44380W        W 3476  14.303   5.849  11.556
44381W        W 3477  11.206   1.411  14.004
44382W        W 3478  20.227  32.609  10.610
44383W        W 3479  14.129  43.999  13.317
44384W        W 3480  20.036   1.245  12.907
44385W        W 3481  22.510   7.245   2.817
44386W        W 3482  29.639  26.201   2.872
44387W        W 3483  37.511  17.245  14.985
44388W        W 3484  28.629  38.473  11.478
44389W        W 3485  23.088  38.356  11.051
44390W        W 3486   1.876  22.163   4.171
44391W        W 3487  10.645  24.715  14.298
44392W        W 3488  39.446  24.591   4.773
44393W        W 3489  33.445  21.598  12.002
44394W        W 3490  21.681  22.202   0.819
44395W        W 3491   8.308  17.769   0.340
44396W        W 3492  20.043  13.199  10.440
44397W        W 3493  24.986  44.820  12.386
44398W        W 3494  10.641  35.372   3.349
44399W        W 3495  20.254   2.372  10.632
44400W        W 3496  40.989  38.050  13.994
44401W        W 3497  26.987  11.842   4.711
44402W        W 3498  18.178  29.549  11.019
44403W        W 3499   6.749  29.558  14.852
44404W        W 3500  14.726   8.788  14.346
44405W        W 3501  31.056  12.746  12.865
44406W        W 3502  40.368  43.276  13.421
44407W        W 3503  29.618  29.625  13.531
44408W        W 3504   5.389  22.143  14.288
44409W        W 3505  35.042  26.623   2.363
44410W        W 3506  32.891  28.959  12.489
44411W        W 3507  22.675  17.671  11.968
44412W        W 3508  34.459  25.057   4.282
44413W        W 3509  11.204  11.193  10.442
44414W        W 3510  23.667  15.725  13.942
44415W        W 3511   6.359   1.843  13.836
44416W        W 3512  41.981   5.821  13.406
44417W        W 3513  26.553  12.795  11.524
44418W        W 3514   7.326  39.055  11.044
44419W        W 3515   7.728   9.819   2.341
44420W        W 3516  12.139   6.233  13.016
44421W        W 3517   9.153  33.062   1.334
44422W        W 3518  25.965   7.388  10.572
44423W        W 3519   3.358  39.814   0.272
44424W        W 3520  34.092   4.286   0.382
44425W        W 3521  39.927  13.821   1.852
44426W        W 3522  26.109   0.760   3.170
44427W        W 3523   4.418  39.327   0.356
44428W        W 3524  22.184  14.804   2.336
44429W        W 3525  16.619   0.898   4.148
44430W        W 3526  16.290  30.604  13.900
44431W        W 3527   7.309  27.626   0.477
44432W        W 3528  27.088  19.259  10.936
44433W        W 3529  30.496  16.123   5.179
44434W        W 3530  41.387  23.995   1.860
44435W        W 3531  35.092  24.210  12.087
44436W        W 3532   7.679  24.598   1.428
44437W        W 3533  36.991  28.448  10.997
44438W        W 3534  18.626  14.265  13.407
44439W        W 3535  39.531  12.127   0.849
44440W        W 3536  20.658  17.298   1.794
44441W        W 3537  16.670  15.235   2.279
44442W        W 3538  18.561   8.841   3.371
44443W        W 3539  36.061  31.935   1.877
44444W        W 3540  22.522  22.195   1.259
44445W        W 3541  23.563  42.490  13.795
44446W        W 3542  28.969  22.163   0.776
44447W        W 3543  23.581  35.408   3.369
44448W        W 3544  31.010  12.347  14.292
44449W        W 3545   9.345  34.018  11.526
44450W        W 3546   0.749  12.166  11.876
44451W        W 3547  23.060  27.073  12.469
44452W        W 3548  37.360  13.768  10.486
44453W        W 3549  25.031   4.859  11.372
44454W        W 3550  33.971  16.780   2.859
44455W        W 3551  16.701   8.707   0.284
44456W        W 3552   2.843  29.452   4.810
44457W        W 3553  13.682  19.538   1.929
44458W        W 3554  10.724  39.550  10.559
44459W        W 3555  14.717   3.797  11.092
44460W        W 3556  38.526  15.163  12.951
44461W        W 3557   4.877  11.646  10.437
44462W        W 3558  31.073  14.701  13.405
44463W        W 3559  25.004   6.221  13.518
44464W        W 3560  19.116  22.579   0.730
44465W        W 3561  23.192  30.090   2.205
44466W        W 3562  33.494  21.536  14.913
44467W        W 3563   8.874  35.474  12.897
44468W        W 3564  12.142  31.009  10.540
44469W        W 3565  16.186  28.547   3.166
44470W        W 3566  33.588   2.322  11.599
44471W        W 3567   3.867   2.305   1.406
44472W        W 3568  24.559  34.386   4.711
44473W        W 3569  42.313  28.561  14.308
44474W        W 3570  14.691  26.595   1.794
44475W        W 3571  12.634   4.825   2.831
44476W        W 3572  24.034   3.287   1.761
44477W        W 3573   9.691  32.482  11.128
44478W        W 3574  36.055  19.776  14.802
44479W        W 3575  40.872  24.617   2.735
44480W        W 3576  28.452  40.516  10.537
44481W        W 3577  23.609  26.509   2.182
44482W        W 3578  40.023   5.423   3.848
44483W        W 3579   4.863  10.640   0.381
44484W        W 3580  42.392  27.968  14.395
44485W        W 3581  35.861  41.466   0.394
44486W        W 3582  16.121  32.470  11.094
44487W        W 3583  44.800   8.714   2.254
44488W        W 3584  18.629  10.852   1.886
44489W        W 3585  31.042   2.227  11.873
44490W        W 3586  27.573  27.172  11.613
44491W        W 3587  31.445  13.706   2.255
44492W        W 3588  28.140  18.199   0.309
44493W        W 3589  20.226  19.775  12.998
44494W        W 3590   4.827  33.101  13.392
44495W        W 3591  42.968   4.319   2.807
44496W        W 3592  18.738  36.549   0.261
44497W        W 3593   5.777  41.921   0.468
44498W        W 3594   5.811  42.428   4.197
44499W        W 3595  11.213  31.614  11.929
44500W        W 3596  23.592  18.051  11.029
44501W        W 3597   3.916   3.365  12.900
44502W        W 3598  16.663  17.769   3.694
44503W        W 3599  40.811   0.289   0.837
44504W        W 3600  25.515  14.655  12.576
44505W        W 3601   7.883   3.897  11.026
44506W        W 3602  17.285  23.137   3.183
44507W        W 3603  43.515   6.370  14.413
44508W        W 3604  11.639   1.853   4.633
44509W        W 3605  35.500   5.918   1.280
44510W        W 3606   6.347  37.393   4.331
44511W        W 3607  13.723  24.221  13.340
44512W        W 3608  29.091   7.797   1.902
44513W        W 3609  39.034  42.386   1.797
44514W        W 3610  20.106  14.282   2.903
44515W        W 3611  26.205   0.985  11.029
44516W        W 3612  30.123  22.065  13.030
44517W        W 3613  44.440  31.572   0.753
44518W        W 3614  23.682  34.541  13.909
44519W        W 3615   7.905  41.016   4.697
44520W        W 3616   9.680  36.019  10.617
44521W        W 3617  34.992  23.998  11.449
44522W        W 3618   0.352  14.292  11.993
44523W        W 3619  30.148   8.229   1.798
44524W        W 3620  38.480  39.944   0.950
44525W        W 3621  31.970  39.366  10.574
44526W        W 3622  37.083  21.217   3.326
44527W        W 3623   7.358  41.341  11.592
44528W        W 3624  18.758   3.443   0.338
44529W        W 3625  17.138  29.142   3.176
44530W        W 3626  28.630  34.886  11.921
44531W        W 3627  12.185  33.010  10.496
44532W        W 3628  15.660   4.393  10.458
44533W        W 3629  36.903  14.709  10.580
44534W        W 3630  21.517  20.638  11.604
44535W        W 3631  30.594  20.075  10.475
44536W        W 3632   4.255  26.032  14.789
44537W        W 3633   7.731  20.192  11.123
44538W        W 3634  23.638  14.666  10.467
44539W        W 3635  24.154  39.446  14.379
44540W        W 3636   1.241   7.716  13.815
44541W        W 3637  33.511  41.810  11.591
44542W        W 3638  36.483  16.752  13.036
44543W        W 3639   6.761  39.526   3.295
44544W        W 3640  28.052  41.310   2.712
44545W        W 3641  16.572  44.758  13.923
44546W        W 3642  30.979  36.897  10.590
44547W        W 3643   7.306   4.833   4.345
44548W        W 3644  36.534  11.846  13.876
44549W        W 3645  44.493  36.994  10.889
44550W        W 3646   8.895   5.894   3.794
44551W        W 3647  24.035   6.368   4.221
44552W        W 3648  25.055  17.655  13.333
44553W        W 3649  35.441   3.381   1.923
44554W        W 3650  22.200  21.221  11.508
44555W        W 3651   6.876  17.630   4.732
44556W        W 3652  33.955  40.420   4.615
44557W        W 3653  34.099  31.012  12.884
44558W        W 3654  10.291  14.766   0.425
44559W        W 3655  43.425  24.076   0.866
44560W        W 3656  39.507  21.082   1.695
44561W        W 3657   3.262  14.224  12.484
44562W        W 3658  18.613  25.107  13.984
44563W        W 3659   0.986  24.724   2.663
44564W        W 3660  15.601   9.314   2.810
44565W        W 3661  22.529  10.802  10.937
44566W        W 3662  28.940   5.907   2.383
44567W        W 3663   1.887  30.580   0.349
44568W        W 3664  26.175  39.051   0.829
44569W        W 3665  27.447  22.133  12.356
44570W        W 3666   8.264  22.996   4.272
44571W        W 3667  35.565  31.112  12.496
44572W        W 3668   2.898  17.167  13.373
44573W        W 3669  17.561  40.996  11.000
44574W        W 3670  33.081  29.515  11.105
44575W        W 3671   5.439   3.899  13.431
44576W        W 3672   9.152  23.238   0.834
44577W        W 3673  31.968  22.631   1.730
44578W        W 3674  41.821   0.912  12.905
44579W        W 3675  40.499  32.107  11.444
44580W        W 3676  30.911  41.860   1.863
44581W        W 3677  32.108   0.821   2.691
44582W        W 3678   5.694  25.528  12.963
44583W        W 3679  35.366  22.669   1.213
44584W        W 3680   6.377  40.939   0.481
44585W        W 3681  23.717   3.279   0.422
44586W        W 3682  40.961  24.496   0.797
44587W        W 3683  41.039  39.063  12.360
44588W        W 3684   2.242  43.982   0.944
44589W        W 3685  12.671  38.469   0.419
44590W        W 3686  41.853  32.460   3.836
44591W        W 3687   5.316   7.226  14.447
44592W        W 3688  28.535   3.798  14.869
44593W        W 3689   3.229   4.704  14.950
44594W        W 3690  34.484  15.650   1.722
44595W        W 3691   3.294  26.123   3.750
44596W        W 3692  27.014  26.955  12.512
44597W        W 3693  25.055  26.534   4.182
44598W        W 3694  27.474  22.165   0.363
44599W        W 3695  22.166  43.849   0.456
44600W        W 3696  25.595  19.670  11.092
44601W        W 3697  10.660  20.116  12.022
44602W        W 3698   8.727  36.360   0.411
44603W        W 3699  41.353   5.707   1.285
44604W        W 3700   3.235  43.921  12.358
44605W        W 3701  33.079  43.341  11.982
44606W        W 3702  19.195   7.282  11.048
44607W        W 3703  29.087  17.241   1.838
44608W        W 3704   4.316  11.339  14.324
44609W        W 3705  41.356   9.774   0.343
44610W        W 3706  15.697  19.615   3.362
44611W        W 3707  23.580  18.549   5.296
44612W        W 3708   0.262  11.277   2.197
44613W        W 3709  19.247  41.000   1.844
44614W        W 3710  16.239  23.643   0.277
44615W        W 3711  30.493  31.953  14.957
44616W        W 3712  25.690  44.770   4.150
44617W        W 3713  15.105  20.040   3.846
44618W        W 3714   4.412  16.625  10.966
44619W        W 3715  21.135  25.061   1.737
44620W        W 3716   1.297  19.546  14.281
44621W        W 3717  41.914  43.950   1.780
44622W        W 3718  19.047  16.132  13.810
44623W        W 3719  44.275  11.634   4.773
44624W        W 3720   4.360  43.783  12.518
44625W        W 3721   3.422  33.095   4.654
44626W        W 3722  30.552   5.702   1.266
44627W        W 3723  14.105  31.424   1.789
44628W        W 3724  32.927  39.379   4.777
44629W        W 3725   1.856  10.350   1.911
44630W        W 3726  11.868  38.024  14.028
44631W        W 3727  18.606   0.255  14.327
44632W        W 3728  24.485   8.229  13.427
44633W        W 3729  12.140   8.388   2.828
44634W        W 3730  24.227  14.729   0.378
44635W        W 3731  39.839  43.392  12.465
44636W        W 3732  33.388  28.993  14.411
44637W        W 3733  38.028  10.790   4.736
44638W        W 3734  44.421  30.952   2.730
44639W        W 3735  40.959  29.931  14.357
44640W        W 3736  12.702  22.196  11.971
44641W        W 3737  22.130   9.721   9.537
44642W        W 3738  23.124  34.986   3.212
44643W        W 3739  44.258   4.804   0.285
44644W        W 3740  37.574   9.822   2.747
44645W        W 3741   6.315  39.473   3.250
44646W        W 3742  14.205  21.161   3.251
44647W        W 3743   1.932  25.152   4.636
44648W        W 3744  15.256  40.444  12.418
44649W        W 3745  40.005  33.502  12.522
44650W        W 3746  27.999  16.122  11.989
44651W        W 3747   8.344  30.014  14.495
44652W        W 3748   8.669  29.022   2.363
44653W        W 3749  44.915  36.079   3.822
44654W        W 3750  41.027  42.487   3.290
44655W        W 3751  31.981  33.967   2.263
44656W        W 3752  20.768   5.932   4.160
44657W        W 3753  38.857  27.156   2.839
44658W        W 3754   7.765  13.731   0.772
44659W        W 3755  12.705  36.022  11.874
44660W        W 3756  19.283  28.965  11.411
44661W        W 3757  19.053  24.127   1.695
44662W        W 3758  35.967  37.087   1.300
44663W        W 3759  38.906   3.404  14.478
44664W        W 3760  33.874  27.451   1.931
44665W        W 3761  38.035  26.609  13.010
44666W        W 3762  41.005  10.214  11.474
44667W        W 3763   0.372  15.200   2.818
44668W        W 3764  42.515  18.068   3.799
44669W        W 3765  11.657   4.321  11.922
44670W        W 3766   1.422  19.581   4.309
44671W        W 3767  23.195  23.590  12.060
44672W        W 3768  12.814   3.740  12.045
44673W        W 3769   0.790  44.894   3.152
44674W        W 3770  18.201  35.500   5.130
44675W        W 3771  10.252  37.845  10.956
44676W        W 3772   2.814   7.353  13.939
44677W        W 3773  40.832  26.662   2.202
44678W        W 3774  36.391  44.869   0.841
44679W        W 3775  42.352  11.715   3.346
44680W        W 3776   2.882  26.456  10.433
44681W        W 3777  44.831  44.265   3.797
44682W        W 3778  43.514  41.504  11.033
44683W        W 3779  13.785  18.235  10.570
44684W        W 3780   4.294   1.376  14.490
44685W        W 3781   3.307  31.924  10.635
44686W        W 3782  33.515  29.048   0.807
44687W        W 3783  30.576  23.096   1.391
44688W        W 3784  10.346  25.492  14.964
44689W        W 3785   0.260  37.504   4.228
44690W        W 3786  33.118  19.091   4.182
44691W        W 3787  12.645   5.238   3.731
44692W        W 3788  28.042  38.434   0.834
44693W        W 3789   0.981  37.476   4.341
44694W        W 3790  35.034  44.965   4.636
44695W        W 3791  16.216   5.762  11.981
44696W        W 3792  33.416  26.610   0.847
44697W        W 3793   7.303  37.927  13.350
44698W        W 3794  37.553   3.269  10.564
44699W        W 3795  28.137  42.358   4.611
44700W        W 3796  24.221  34.098   4.220
44701W        W 3797  31.632  22.192   4.198
44702W        W 3798  38.040  24.510  13.455
44703W        W 3799  16.123   1.239  14.870
44704W        W 3800  16.190  12.834  10.416
44705W        W 3801  12.127  13.628   2.772
44706W        W 3802  27.634  10.809  12.551
44707W        W 3803  16.149  43.781  14.504
44708W        W 3804  33.567  34.513   3.275
44709W        W 3805  24.618   5.269   0.947
44710W        W 3806  38.480  41.324  10.568
44711W        W 3807  30.565  40.857  11.950
44712W        W 3808  25.671  28.001   2.826
44713W        W 3809  29.155  13.737   4.789
44714W        W 3810  44.914   1.331  13.936
44715W        W 3811  17.649  30.651   3.322
44716W        W 3812  17.140  20.149  10.588
44717W        W 3813  13.832  42.426  13.541
44718W        W 3814  12.338   3.887   1.324
44719W        W 3815  17.082  17.657   3.192
44720W        W 3816  34.368  30.128   4.643
44721W        W 3817  30.960  28.932  12.427
44722W        W 3818  31.966   0.348  12.945
44723W        W 3819  20.737   8.330  10.487
44724W        W 3820  30.505   1.463   3.373
44725W        W 3821  14.783   0.272  13.002
44726W        W 3822  38.000  35.013   9.995
44727W        W 3823   0.252  29.942  10.937
44728W        W 3824  11.783  40.054  13.318
44729W        W 3825  18.687  10.269   3.329
44730W        W 3826  20.138  29.498   3.309
44731W        W 3827  43.982  13.844  14.886
44732W        W 3828  26.559   3.834   4.272
44733W        W 3829   8.681  35.014   2.418
44734W        W 3830  29.037  16.653  11.371
44735W        W 3831  21.105  23.012   1.834
44736W        W 3832  33.966   0.411  12.852
44737W        W 3833  43.347  13.336  10.564
44738W        W 3834  42.416   8.391   1.843
44739W        W 3835  11.319  11.352  12.420
44740W        W 3836  11.323   8.381   3.352
44741W        W 3837  14.706  16.778  14.773
44742W        W 3838  38.057  21.646   3.290
44743W        W 3839  41.955   7.207   3.736
44744W        W 3840  36.512  29.455  13.989
44745W        W 3841  40.304   7.333  14.387
44746W        W 3842  21.648  15.678  11.916
44747W        W 3843  24.557   3.905  11.563
44748W        W 3844  26.137  10.703   4.339
44749W        W 3845  31.906  32.558   2.337
44750W        W 3846  12.276  22.151   1.348
44751W        W 3847  35.092   8.890  10.513
44752W        W 3848   7.288  18.550   0.445
44753W        W 3849  26.101  32.892   3.666
44754W        W 3850  20.038  19.159  10.543
44755W        W 3851  42.831  19.148   0.421
44756W        W 3852  11.837  25.010  13.804
44757W        W 3853   3.342  11.276   2.814
44758W        W 3854  33.578  27.477   2.683
44759W        W 3855  36.903  35.980   1.381
44760W        W 3856  26.503  42.014   1.792
44761W        W 3857  23.621  40.031   1.796
44762W        W 3858  41.460   8.188   2.400
44763W        W 3859  18.180  34.890  10.147
44764W        W 3860  17.603  35.367   9.485
44765W        W 3861  40.005  21.079   3.643
44766W        W 3862  27.151  15.238  11.412
44767W        W 3863   3.886  13.303  12.095
44768W        W 3864  40.339  17.253   3.182
44769W        W 3865  22.510  27.102   4.693
44770W        W 3866   7.701   7.684   3.728
44771W        W 3867  20.705  12.116  10.953
44772W        W 3868  23.157  35.445   1.731
44773W        W 3869  43.781  27.617  14.955
44774W        W 3870  11.765  22.216  10.893
44775W        W 3871   4.884  14.154   4.709
44776W        W 3872  40.956   8.877  11.092
44777W        W 3873  24.561   8.272   3.744
44778W        W 3874  41.427   1.857   3.289
44779W        W 3875  16.095   8.681   4.296
44780W        W 3876   3.854  24.179   3.697
44781W        W 3877  38.018   4.892  12.426
44782W        W 3878  32.082  39.024   0.327
44783W        W 3879   0.975  22.622  10.539
44784W        W 3880   6.715  24.117   1.894
44785W        W 3881   4.941   8.775  14.971
44786W        W 3882  34.942  13.265  13.847
44787W        W 3883  43.400   5.249  12.426
44788W        W 3884  34.436   6.806   3.831
44789W        W 3885   7.795  41.345   1.895
44790W        W 3886  33.461  23.547   2.860
44791W        W 3887  33.102  36.966   3.385
44792W        W 3888  33.077  42.897  14.984
44793W        W 3889  37.909  19.264   0.875
44794W        W 3890  39.482  18.728  10.090
44795W        W 3891  22.667  34.433  12.922
44796W        W 3892  39.841  25.484   0.763
44797W        W 3893   9.811   8.673   4.313
44798W        W 3894  11.789  42.317   2.731
44799W        W 3895   3.810  16.125  11.519
44800W        W 3896  11.229  34.895   1.826
44801W        W 3897   4.368  32.417   0.320
44802W        W 3898  20.059  33.054  14.472
44803W        W 3899   5.283  19.207  13.481
44804W        W 3900   1.863  38.426  10.600
44805W        W 3901  39.037  35.025  14.828
44806W        W 3902  44.439  33.874  12.532
44807W        W 3903   6.186  23.686   1.797
44808W        W 3904   1.301  19.112   1.377
44809W        W 3905  35.586  34.401  10.472
44810W        W 3906  32.095  43.462  11.042
44811W        W 3907  31.624  22.229   3.216
44812W        W 3908  21.163  43.306   4.659
44813W        W 3909   9.692   7.220   3.773
44814W        W 3910  32.485  12.830   2.195
44815W        W 3911  36.915  43.926  11.882
44816W        W 3912  39.369  21.098   2.819
44817W        W 3913  23.668   5.805  10.476
44818W        W 3914  33.529  10.343   4.211
44819W        W 3915  13.226  29.620   3.800
44820W        W 3916  25.069   2.767   1.848
44821W        W 3917   0.289  30.040   0.732
44822W        W 3918  35.996   0.804   4.825
44823W        W 3919  17.180  12.754   3.706
44824W        W 3920  34.971   4.229  14.363
44825W        W 3921  38.359   7.329  11.442
44826W        W 3922  41.324   3.946   0.259
44827W        W 3923  43.363  13.624   0.738
44828W        W 3924  35.029  12.669   1.431
44829W        W 3925   3.832   3.238   1.374
44830W        W 3926  21.123  23.071  13.352
44831W        W 3927  43.513  22.745   4.709
44832W        W 3928  20.266  33.945   1.422
44833W        W 3929  10.761   5.302  13.372
44834W        W 3930  30.046  28.499  14.364
44835W        W 3931   1.822   1.466  11.447
44836W        W 3932  32.948  33.415  12.016
44837W        W 3933   3.863  29.056   3.674
44838W        W 3934  39.349  32.476  12.961
44839W        W 3935  26.692  10.812  12.829
44840W        W 3936  12.722   2.826   1.325
44841W        W 3937  33.100   9.655   3.373
44842W        W 3938  12.284  27.668  11.022
44843W        W 3939  30.062  19.715  12.881
44844W        W 3940  11.769  29.092  14.995
44845W        W 3941  23.583  24.592  12.036
44846W        W 3942  35.439  26.089   3.809
44847W        W 3943   8.654  25.487   1.432
44848W        W 3944  14.293  42.028   3.860
44849W        W 3945  32.469  11.298  13.851
44850W        W 3946  30.125   8.277   3.659
44851W        W 3947  20.220  34.946  14.959
44852W        W 3948  44.802  16.663   3.220
44853W        W 3949  30.472   7.669   4.704
44854W        W 3950  22.504  28.481  10.100
44855W        W 3951  33.604  16.675   0.373
44856W        W 3952  37.085  43.447  14.949
44857W        W 3953  35.101   2.304   2.871
44858W        W 3954  30.976   3.804   0.477
44859W        W 3955  40.015  28.531   2.674
44860W        W 3956   6.270  36.378   2.720
44861W        W 3957   9.744  32.020   5.109
44862W        W 3958  14.798  10.325   0.366
44863W        W 3959  24.603   0.482  10.566
44864W        W 3960  31.110   6.832  13.026
44865W        W 3961  30.079  29.169   1.448
44866W        W 3962  17.116   0.939  14.315
44867W        W 3963   9.188  18.667  13.504
44868W        W 3964  32.920  12.707   1.267
44869W        W 3965  12.772   5.282   0.336
44870W        W 3966  29.944  22.534   1.433
44871W        W 3967  28.642  12.709   4.197
44872W        W 3968  33.558  38.325  13.374
44873W        W 3969   8.845   1.818  14.286
44874W        W 3970  26.980   9.836   3.284
44875W        W 3971  14.284  26.208  12.533
44876W        W 3972  43.275  43.777   0.854
44877W        W 3973   3.783  25.550  13.457
44878W        W 3974  33.042  32.129   2.888
44879W        W 3975   3.890  36.580  11.510
44880W        W 3976   1.276  12.154  13.988
44881W        W 3977  33.621   0.364  10.068
44882W        W 3978  20.062  24.153  10.416
44883W        W 3979  24.499  13.229   1.815
44884W        W 3980  31.641  24.229   1.694
44885W        W 3981  36.892  25.472   3.197
44886W        W 3982  15.590  16.795   0.479
44887W        W 3983   2.820  14.284  13.484
44888W        W 3984  12.261  33.431   1.298
44889W        W 3985   1.355  33.936  12.995
44890W        W 3986  28.119  32.055  13.387
44891W        W 3987  44.492  43.316  12.999
44892W        W 3988  23.090  11.819   3.327
44893W        W 3989  29.444  41.306  13.851
44894W        W 3990  38.445  11.151   5.601
44895W        W 3991  10.688  20.060   4.831
44896W        W 3992  12.152   8.330  10.985
44897W        W 3993  42.970  28.035   1.437
44898W        W 3994  24.177  20.061  14.822
44899W        W 3995  43.293  13.668  13.408
44900W        W 3996  16.761  14.229  11.957
44901W        W 3997  19.693   1.884  11.016
44902W        W 3998  11.357  27.489   3.870
44903W        W 3999  15.174   5.717  12.417
44904W        W 4000  12.271  24.119  14.286
44905W        W 4001  15.155   8.388  12.092
44906W        W 4002  36.577  33.031   0.737
44907W        W 4003   0.849  43.392   0.326
44908W        W 4004  27.447  44.311   1.763
44909W        W 4005  22.596  23.588   4.167
44910W        W 4006   3.908  42.859   4.619
44911W        W 4007  40.943  26.487   1.896
44912W        W 4008  30.563  40.988  11.423
44913W        W 4009  37.076  30.559   2.200
44914W        W 4010   2.282  38.479   3.300
44915W        W 4011  39.966  14.653  13.936
44916W        W 4012  11.661  20.206   4.298
44917W        W 4013   5.818  18.066   4.759
44918W        W 4014  37.859  25.545   3.680
44919W        W 4015  13.221  13.682   0.336
44920W        W 4016   9.730  22.250   0.345
44921W        W 4017  22.048   7.767   2.375
44922W        W 4018  38.960   5.369   2.342
44923W        W 4019  16.765  42.789   1.236
44924W        W 4020  44.337  29.033   1.406
44925W        W 4021  18.228  33.030   5.254
44926W        W 4022   9.809  32.057   0.769
44927W        W 4023  27.135   2.906  12.952
44928W        W 4024  24.646  32.058   3.815
44929W        W 4025  42.015  43.905   0.319
44930W        W 4026  33.472   5.932  14.368
44931W        W 4027  16.809  34.569   0.870
44932W        W 4028  13.230  38.075  13.947
44933W        W 4029  24.210  24.074   1.922
44934W        W 4030  17.126  30.641   1.817
44935W        W 4031  28.571   3.870  12.072
44936W        W 4032   1.455   3.882  14.281
44937W        W 4033  40.882  37.882  10.533
44938W        W 4034  27.130  34.025  10.087
44939W        W 4035  20.224  28.136   2.265
44940W        W 4036  18.173  44.997   1.262
44941W        W 4037  39.041  10.179   0.759
44942W        W 4038  23.600  17.210   4.232
44943W        W 4039  21.663  13.342   2.255
44944W        W 4040  44.493  23.188  13.357
44945W        W 4041  26.089  23.625   2.212
44946W        W 4042  19.173  21.196  13.423
44947W        W 4043  15.762  20.268  14.466
44948W        W 4044   3.894   0.438   0.781
44949W        W 4045  23.726  37.986  12.511
44950W        W 4046  10.730  42.404  13.013
44951W        W 4047  13.784  19.103   3.367
44952W        W 4048   4.845   2.721  10.567
44953W        W 4049  44.926   2.949   1.788
44954W        W 4050  23.023  38.334  12.931
44955W        W 4051  41.430  17.708  10.963
44956W        W 4052  26.983  26.034  12.533
44957W        W 4053  20.208   8.217  13.399
44958W        W 4054  24.703   4.341   0.883
44959W        W 4055  17.284  21.604   0.769
44960W        W 4056  31.022  23.556   9.948
44961W        W 4057  36.928  27.071  11.517
44962W        W 4058  27.172  44.261   1.432
44963W        W 4059  11.212  16.264  11.414
44964W        W 4060  17.672  23.075  13.481
44965W        W 4061  14.246   5.347   4.691
44966W        W 4062  44.818  34.884   4.345
44967W        W 4063  18.086  32.502   0.909
44968W        W 4064  21.150  14.334   0.248
44969W        W 4065  19.570  23.713  12.531
44970W        W 4066  29.953  41.519  10.418
44971W        W 4067  10.329   5.233   4.286
44972W        W 4068  27.527  16.312  13.410
44973W        W 4069  20.246  33.612  14.990
44974W        W 4070  43.456  34.061   0.925
44975W        W 4071  20.043  39.354  11.416
44976W        W 4072  38.047  43.990  14.908
44977W        W 4073  31.416  21.035  11.057
44978W        W 4074  16.283   7.263   4.798
44979W        W 4075  11.688  32.538  14.882
44980W        W 4076  22.654  36.079  11.412
44981W        W 4077  19.628   5.807   3.273
44982W        W 4078   7.831   7.899  11.120
44983W        W 4079  13.692  17.142  14.451
44984W        W 4080  29.550  34.036   0.846
44985W        W 4081   9.767  27.635   0.752
44986W        W 4082   1.483   9.846  11.880
44987W        W 4083  44.986  29.160  10.598
44988W        W 4084  28.983   6.848  11.117
44989W        W 4085  21.018  17.615  12.937
44990W        W 4086  18.111  29.939   1.717
44991W        W 4087  31.996  19.118  12.475
44992W        W 4088   4.344  27.955  11.381
44993W        W 4089  11.170  39.833  11.557
44994W        W 4090  41.815   1.969   1.749
44995W        W 4091   0.781  24.708   1.309
44996W        W 4092  21.674  28.567   2.304
44997W        W 4093  22.100  27.124   0.802
44998W        W 4094  10.346   4.437  14.833
44999W        W 4095  22.590  41.299  11.415
45000W        W 4096  31.931  42.445  10.562
45001W        W 4097   7.895  26.604   2.799
45002W        W 4098  37.582  16.186   0.427
45003W        W 4099   5.829  25.152  11.475
45004W        W 4100  17.149  19.569   0.248
45005W        W 4101   8.688  27.948   2.815
45006W        W 4102  27.657  24.595   4.180
45007W        W 4103  38.382  25.152   0.470
45008W        W 4104  18.784   6.371   1.908
45009W        W 4105  41.464  18.146   1.825
45010W        W 4106  36.541  11.214  13.395
45011W        W 4107  17.176  13.664   2.256
45012W        W 4108  20.538  35.876   2.346
45013W        W 4109   0.416   5.200   0.296
45014W        W 4110  10.854  39.885  12.082
45015W        W 4111  29.099   7.824  10.566
45016W        W 4112   5.719  14.627  13.419
45017W        W 4113   8.272   4.773   1.846
45018W        W 4114  39.368   0.311  11.977
45019W        W 4115  30.925  39.359   2.196
45020W        W 4116  32.892  15.252  12.864
45021W        W 4117   8.396  13.732  10.502
45022W        W 4118   3.814  22.527   4.183
45023W        W 4119  44.412   8.165  10.927
45024W        W 4120  35.489  35.394  11.467
45025W        W 4121  19.158  40.952   4.702
45026W        W 4122  37.979  24.480  13.034
45027W        W 4123   1.420  23.150  12.386
45028W        W 4124  35.977  41.312   2.671
45029W        W 4125  23.113   4.713   1.365
45030W        W 4126   2.726   1.386   2.727
45031W        W 4127  44.493  21.070  12.870
45032W        W 4128  22.621  40.038   4.140
45033W        W 4129  44.785  20.203  14.943
45034W        W 4130   7.863  36.357  12.543
45035W        W 4131  16.671  14.154  12.343
45036W        W 4132  17.304  39.452  13.974
45037W        W 4133   7.764  40.318  12.036
45038W        W 4134  14.331  26.011   1.830
45039W        W 4135  42.918  31.075   5.160
45040W        W 4136  33.059  12.762   2.377
45041W        W 4137  26.999  28.108   4.756
45042W        W 4138  39.962   9.173   2.771
45043W        W 4139  41.001  42.825   2.663
45044W        W 4140  28.061  14.258   2.725
45045W        W 4141  20.091   8.187   1.378
45046W        W 4142  23.494  39.057   3.226
45047W        W 4143  31.066   4.439  12.950
45048W        W 4144  26.492   2.750  13.527
45049W        W 4145  15.094  27.531  13.000
45050W        W 4146  40.483  20.142   2.378
45051W        W 4147  35.602  38.974  13.313
45052W        W 4148  31.404  19.222   0.733
45053W        W 4149   6.206  36.078   3.316
45054W        W 4150  29.474   0.775  14.457
45055W        W 4151  29.113  21.608  13.884
45056W        W 4152   1.819  24.158  14.020
45057W        W 4153  40.495  25.668   1.776
45058W        W 4154  41.509  10.756  11.531
45059W        W 4155  21.582   0.983  13.329
45060W        W 4156  26.580  18.622  14.448
45061W        W 4157   1.865  23.631  10.921
45062W        W 4158  28.467  28.056  10.615
45063W        W 4159  29.954  37.493  14.002
45064W        W 4160   9.302   9.155  13.893
45065W        W 4161  18.091  40.938   2.896
45066W        W 4162   6.293  35.089   2.280
45067W        W 4163  36.033  21.645  13.843
45068W        W 4164   8.301  12.751   0.886
45069W        W 4165  19.283  37.922  14.923
45070W        W 4166  19.625  14.608  12.359
45071W        W 4167  36.943   7.409  14.914
45072W        W 4168   6.369  14.728  11.947
45073W        W 4169  16.724   0.902   4.614
45074W        W 4170  32.046  22.226   3.741
45075W        W 4171  24.998  38.516   2.841
45076W        W 4172  22.641  20.641  10.607
45077W        W 4173  22.591  30.653   5.098
45078W        W 4174  10.744  14.696  14.331
45079W        W 4175   9.261  33.076   0.472
45080W        W 4176  26.071  42.874  11.582
45081W        W 4177  21.635  15.740  10.102
45082W        W 4178  23.198  41.362   2.331
45083W        W 4179  26.575  11.758   5.183
45084W        W 4180  42.442  44.900  13.925
45085W        W 4181  18.637  35.855  14.298
45086W        W 4182  39.498  16.287  12.073
45087W        W 4183  32.110   9.198   3.704
45088W        W 4184   5.804  33.940  13.845
45089W        W 4185  20.167  17.589   3.754
45090W        W 4186   4.208  14.727  14.488
45091W        W 4187  39.818  29.571  12.481
45092W        W 4188   9.695  20.081   1.244
45093W        W 4189  43.352  39.551  12.408
45094W        W 4190  42.411  16.149  14.385
45095W        W 4191   3.746  26.653  11.072
45096W        W 4192  39.398   9.805  12.480
45097W        W 4193  32.439   5.240  13.467
45098W        W 4194   3.385  32.101  14.509
45099W        W 4195  40.957  34.869   2.814
45100W        W 4196  22.570   6.283   5.119
45101W        W 4197  15.106  17.194  13.062
45102W        W 4198  18.740  29.988  13.521
45103W        W 4199  43.301   4.823   3.360
45104W        W 4200  25.217   4.384   1.756
45105W        W 4201  18.752  32.635  13.838
45106W        W 4202   3.948  21.644  12.083
45107W        W 4203  26.555   9.318  13.891
45108W        W 4204  27.451  19.278  10.932
45109W        W 4205  20.768   4.231   1.217
45110W        W 4206  15.095  36.422  10.959
45111W        W 4207  33.512  40.905  13.903
45112W        W 4208   3.721  24.074   5.192
45113W        W 4209  18.760   8.268  14.508
45114W        W 4210  38.370   9.775  12.381
45115W        W 4211   3.218  37.887  12.354
45116W        W 4212  17.106  14.308   4.143
45117W        W 4213  41.428  27.498   0.422
45118W        W 4214  29.657  14.194   1.856
45119W        W 4215  38.057  29.550  11.391
45120W        W 4216  13.104  43.443   1.765
45121W        W 4217   7.770  18.755   0.250
45122W        W 4218  39.381  29.098   1.415
45123W        W 4219  12.779   8.766  13.346
45124W        W 4220  44.906  25.164  13.903
45125W        W 4221  18.223  41.899  12.441
45126W        W 4222  25.974   2.739  13.037
45127W        W 4223  37.421  39.965   3.357
45128W        W 4224  31.108  25.110   1.223
45129W        W 4225  36.385   0.982  13.322
45130W        W 4226   0.891  18.296   2.754
45131W        W 4227  12.348  21.592   3.231
45132W        W 4228  42.392   2.448  12.442
45133W        W 4229  32.055   7.285  13.936
45134W        W 4230  22.745  30.064   4.787
45135W        W 4231  12.634  17.669  13.841
45136W        W 4232  38.016  21.712  11.566
45137W        W 4233  20.069   9.720   2.811
45138W        W 4234  14.638  23.140  11.058
45139W        W 4235  32.424  41.795  13.516
45140W        W 4236  32.038  22.660   4.260
45141W        W 4237   0.961  29.616   1.377
45142W        W 4238  13.808  28.184  12.081
45143W        W 4239  11.132  11.842  13.533
45144W        W 4240   3.359   1.865  13.496
45145W        W 4241  30.034  27.097   3.793
45146W        W 4242  33.007  15.159  12.357
45147W        W 4243   3.377  24.692  10.028
45148W        W 4244   0.388  36.401  12.438
45149W        W 4245  34.445  11.257  12.883
45150W        W 4246  23.122  12.813  13.804
45151W        W 4247  38.569  40.530   0.777
45152W        W 4248  39.502  40.444   4.609
45153W        W 4249  42.819  24.096  13.052
45154W        W 4250  36.463   0.306  12.387
45155W        W 4251   5.754  40.416  10.896
45156W        W 4252   9.352  29.961  14.954
45157W        W 4253  41.502  22.081  11.569
45158W        W 4254   3.445   2.230  13.063
45159W        W 4255  13.619  23.516   3.639
45160W        W 4256  10.775   6.211   4.191
45161W        W 4257   8.273   9.770  11.869
45162W        W 4258  37.365  20.239  13.983
45163W        W 4259  19.771  25.131   2.414
45164W        W 4260  12.636  11.848   1.744
45165W        W 4261  36.931   7.859   2.843
45166W        W 4262  35.460  43.323   3.824
45167W        W 4263  41.873  25.131  14.349
45168W        W 4264  31.535   1.284   4.325
45169W        W 4265   1.889   5.825  10.628
45170W        W 4266   0.289   8.272   0.367
45171W        W 4267   7.870  28.638   3.795
45172W        W 4268  20.053  19.210   4.158
45173W        W 4269  20.168  24.715  12.956
45174W        W 4270  41.494  17.246  12.486
45175W        W 4271   0.273  14.256  14.894
45176W        W 4272  25.033   3.796   1.892
45177W        W 4273   3.834  12.779  11.593
45178W        W 4274  25.142  39.393  12.091
45179W        W 4275   4.226  39.373  12.397
45180W        W 4276  23.987  43.833  13.311
45181W        W 4277  22.746  17.134   9.945
45182W        W 4278  34.086  41.789   0.854
45183W        W 4279  26.125  38.038  11.482
45184W        W 4280   8.235   2.888   1.271
45185W        W 4281   2.317  11.627  10.476
45186W        W 4282  27.684  44.831  11.965
45187W        W 4283  42.787  35.359   4.150
45188W        W 4284   0.905  41.468  10.452
45189W        W 4285  29.527  38.465  12.994
45190W        W 4286  22.154  24.555  12.359
45191W        W 4287  24.566   8.292   9.576
45192W        W 4288  26.601  22.219  10.435
45193W        W 4289  17.775  43.482   1.321
45194W        W 4290  32.531  25.192   0.962
45195W        W 4291   3.347  13.753   4.344
45196W        W 4292  40.520   8.266   4.673
45197W        W 4293  29.473  23.648  13.421
45198W        W 4294  26.675  27.629   2.270
45199W        W 4295   8.258   0.354   2.387
45200W        W 4296  44.909  27.561   2.763
45201W        W 4297  23.589  12.142   0.253
45202W        W 4298   3.748  22.039   1.346
45203W        W 4299   2.354  23.208   0.337
45204W        W 4300  36.949  22.530  10.894
45205W        W 4301  14.303  20.214  12.953
45206W        W 4302  39.464  44.368  12.917
45207W        W 4303  28.995   9.664   4.232
45208W        W 4304  28.488  40.857  13.910
45209W        W 4305   6.864  32.014   1.414
45210W        W 4306  32.429  42.002  11.002
45211W        W 4307   8.736  13.775   2.303
45212W        W 4308  28.098   2.253  10.896
45213W        W 4309  28.025  44.414   2.810
45214W        W 4310  36.502  44.951   4.662
45215W        W 4311   0.821  38.909   2.217
45216W        W 4312  20.645   6.902   1.909
45217W        W 4313  18.698  13.247   4.324
45218W        W 4314  42.891  14.118  12.858
45219W        W 4315  34.602  17.648  13.499
45220W        W 4316   6.909  14.336  13.502
45221W        W 4317   9.195  43.938   4.312
45222W        W 4318   9.209   7.208  10.626
45223W        W 4319   1.327   1.298  13.501
45224W        W 4320  40.014  42.793  13.497
45225W        W 4321  37.952  30.644  12.434
45226W        W 4322  19.578  10.756  14.499
45227W        W 4323   6.898  27.126  12.979
45228W        W 4324  18.632  42.340  10.570
45229W        W 4325  35.459  27.669   4.726
45230W        W 4326  13.149  37.418  10.048
45231W        W 4327   8.857  43.832  11.588
45232W        W 4328  28.649  16.784  10.487
45233W        W 4329  35.071  16.733  10.478
45234W        W 4330   7.378  38.383  13.957
45235W        W 4331  15.259  38.850  13.041
45236W        W 4332  17.091  44.922   4.125
45237W        W 4333  25.647   3.726   3.756
45238W        W 4334  20.070   3.368   4.189
45239W        W 4335  26.038   9.382  12.506
45240W        W 4336  14.683  24.685   1.333
45241W        W 4337  41.440  11.744  13.538
45242W        W 4338  23.555  25.555   1.293
45243W        W 4339  21.247  26.005   3.334
45244W        W 4340  13.796   8.386   3.742
45245W        W 4341  32.394  18.104  10.955
45246W        W 4342   8.710  11.143   3.354
45247W        W 4343  29.028  41.505  13.971
45248W        W 4344   5.781  21.151  11.124
45249W        W 4345  26.610   8.862  11.033
45250W        W 4346  18.714  43.839  13.474
45251W        W 4347  39.362  30.437  11.983
45252W        W 4348  35.951   5.226   1.361
45253W        W 4349  41.971   4.367   3.328
45254W        W 4350  16.784  15.182  10.941
45255W        W 4351  15.634  22.710  11.003
45256W        W 4352  33.105  32.509   3.230
45257W        W 4353  43.987   0.827  13.842
45258W        W 4354   0.429   6.879   1.423
45259W        W 4355   7.699  36.373  13.365
45260W        W 4356  22.063  37.014   4.820
45261W        W 4357  23.176  12.200  13.874
45262W        W 4358  24.122  15.613   2.250
45263W        W 4359  43.433   9.841   0.830
45264W        W 4360  19.164  34.522   4.134
45265W        W 4361  31.592   1.753  13.403
45266W        W 4362  13.311  38.363  12.824
45267W        W 4363  27.535  17.073  13.497
45268W        W 4364   3.407  31.505   0.895
45269W        W 4365  44.006  16.145   1.901
45270W        W 4366  38.992  14.722   3.650
45271W        W 4367  13.802  38.545   2.190
45272W        W 4368  33.399  19.088  11.599
45273W        W 4369   4.342  30.972  10.406
45274W        W 4370  23.170  34.005  14.367
45275W        W 4371  21.665   0.748  12.424
45276W        W 4372  11.171   8.681   3.380
45277W        W 4373  30.141   5.272  13.338
45278W        W 4374  28.008  43.895   1.247
45279W        W 4375  30.061  32.003   1.419
45280W        W 4376  29.991   6.809  12.852
45281W        W 4377  35.444   4.792  13.862
45282W        W 4378  28.052  18.285  13.440
45283W        W 4379  31.122  19.241  11.856
45284W        W 4380   1.371  28.571   3.205
45285W        W 4381  18.581   6.784   2.188
45286W        W 4382   1.380  19.767  13.922
45287W        W 4383  40.329  14.706  11.881
45288W        W 4384  28.009  20.574  13.413
45289W        W 4385  24.168  39.958   3.714
45290W        W 4386  25.495  34.603   5.141
45291W        W 4387  23.165   3.296  13.456
45292W        W 4388  16.226   9.794  14.780
45293W        W 4389   6.321  31.473   1.812
45294W        W 4390  17.614  36.580  10.012
45295W        W 4391  31.899   5.378  12.366
45296W        W 4392  36.081  13.152   0.787
45297W        W 4393  10.267   8.861   3.217
45298W        W 4394  24.147  15.179   2.795
45299W        W 4395  39.499  36.351   4.228
45300W        W 4396  28.479  31.948   0.960
45301W        W 4397  25.104  31.149  13.517
45302W        W 4398   0.882  39.358  13.856
45303W        W 4399  40.867   9.325   4.237
45304W        W 4400  44.460  20.615   4.197
45305W        W 4401   4.889  38.514  14.948
45306W        W 4402  14.281  13.622  11.083
45307W        W 4403  42.778  35.389  13.400
45308W        W 4404   4.338  15.243  11.395
45309W        W 4405  22.628  33.023   2.276
45310W        W 4406  25.003   3.782   0.868
45311W        W 4407  44.984  16.261  12.423
45312W        W 4408  17.203  10.189   2.250
45313W        W 4409  39.883  16.103   4.681
45314W        W 4410  30.995  35.067   2.671
45315W        W 4411  26.690  23.599  10.467
45316W        W 4412  42.319  16.605   0.449
45317W        W 4413  25.137  13.261   3.869
45318W        W 4414  16.214  26.569   4.309
45319W        W 4415  43.906  23.168   1.876
45320W        W 4416  28.068  21.661  11.579
45321W        W 4417   8.836  41.890  12.452
45322W        W 4418  39.343  12.738   0.428
45323W        W 4419  43.862  31.080  14.794
45324W        W 4420   1.878  10.682  11.032
45325W        W 4421  14.321  31.592   4.308
45326W        W 4422  18.567   8.308   2.275
45327W        W 4423  23.501   9.301   3.652
45328W        W 4424  30.600   1.783  14.444
45329W        W 4425  28.979   1.840   3.644
45330W        W 4426  26.524  23.499  12.533
45331W        W 4427  13.751  15.803   2.410
45332W        W 4428  44.914  23.531   4.658
45333W        W 4429   0.879  17.776   0.885
45334W        W 4430  39.448   9.251  10.609
45335W        W 4431  21.658  29.558  13.013
45336W        W 4432  29.988   3.281   4.319
45337W        W 4433   1.417   8.174   1.787
45338W        W 4434  10.375  24.212   5.322
45339W        W 4435  22.710  35.852  14.822
45340W        W 4436  33.004   8.346   4.350
45341W        W 4437  17.679   2.316   4.207
45342W        W 4438  17.720  21.701  14.435
45343W        W 4439  14.692  30.415   1.777
45344W        W 4440   8.161  14.211   3.187
45345W        W 4441  19.698  35.878  12.093
45346W        W 4442  15.173  11.354  14.348
45347W        W 4443  16.743  32.103  10.511
45348W        W 4444  24.096   0.265  12.488
45349W        W 4445  10.671   5.247   4.237
45350W        W 4446  33.526   0.430  13.499
45351W        W 4447  42.462  28.159   0.901
45352W        W 4448  37.541  44.897  14.804
45353W        W 4449   7.383   7.714   3.676
45354W        W 4450   7.842  23.624   3.268
45355W        W 4451   2.751  39.556  13.006
45356W        W 4452  33.997  34.913  12.007
45357W        W 4453  35.511  28.639   3.776
45358W        W 4454  30.603   7.876  11.932
45359W        W 4455   0.413  29.099   1.358
45360W        W 4456  16.597  25.658  13.450
45361W        W 4457  41.890  37.998   0.449
45362W        W 4458  43.007  37.873  12.059
45363W        W 4459  33.954   0.370   2.775
45364W        W 4460  42.291  34.041   0.793
45365W        W 4461  41.961  30.418   3.806
45366W        W 4462  21.531  19.066   9.614
45367W        W 4463   5.880  23.651  14.875
45368W        W 4464  41.519   9.707  10.424
45369W        W 4465   4.398  42.503   2.799
45370W        W 4466   7.666  30.464   0.915
45371W        W 4467   4.344  11.629   0.871
45372W        W 4468  36.999   4.888  11.929
45373W        W 4469  13.800  16.290   2.191
45374W        W 4470  12.791  30.446  12.869
45375W        W 4471  15.783  34.023  13.423
45376W        W 4472  23.237   5.727   2.288
45377W        W 4473  42.795   1.250   1.766
45378W        W 4474  37.023  11.795   1.733
45379W        W 4475  23.029  29.065  13.369
45380W        W 4476  36.888  38.368   4.223
45381W        W 4477  41.376   5.699   4.248
45382W        W 4478  15.752  29.613   2.415
45383W        W 4479  24.056  33.552  11.555
45384W        W 4480   4.920  22.685   4.204
45385W        W 4481  26.181  41.406   2.339
45386W        W 4482  42.886  22.109  14.998
45387W        W 4483  10.139  31.993  12.573
45388W        W 4484  12.765  43.953  14.436
45389W        W 4485  13.610   3.727   1.424
45390W        W 4486  26.668  35.076   3.260
45391W        W 4487  22.085   7.340   3.629
45392W        W 4488  43.408  17.675  12.998
45393W        W 4489  33.988  20.590  12.492
45394W        W 4490   5.804   0.391   0.448
45395W        W 4491  36.981  35.867  11.934
45396W        W 4492  20.745  14.223   0.849
45397W        W 4493  32.917  43.507   2.878
45398W        W 4494  17.679  32.045   2.339
45399W        W 4495  41.533  11.786   4.825
45400W        W 4496  43.303  11.217   0.889
45401W        W 4497  32.141  15.638   4.326
45402W        W 4498  37.507  41.813  12.977
45403W        W 4499  32.000  14.622  14.305
45404W        W 4500  22.552  35.091  12.415
45405W        W 4501  25.513  27.986   3.789
45406W        W 4502   7.342  13.327   1.319
45407W        W 4503  19.619  32.990   4.711
45408W        W 4504  32.121  11.304  11.878
45409W        W 4505  35.067  16.243  12.947
45410W        W 4506  19.743  23.157  14.960
45411W        W 4507  41.894   1.873   0.334
45412W        W 4508  21.083  18.665   2.778
45413W        W 4509  24.977  40.971   0.256
45414W        W 4510  43.355   7.411  11.019
45415W        W 4511   5.794  41.897   2.326
45416W        W 4512  16.202  34.894  13.936
45417W        W 4513  42.341  22.141  13.341
45418W        W 4514  13.655  33.037   2.790
45419W        W 4515  18.246  24.995  11.982
45420W        W 4516  22.513  38.540   3.629
45421W        W 4517  30.452  16.129   0.857
45422W        W 4518   6.428  34.891  14.898
45423W        W 4519  38.475  32.953  11.404
45424W        W 4520  41.406  17.273  11.051
45425W        W 4521   3.938  13.335   4.693
45426W        W 4522  10.363   9.792   0.280
45427W        W 4523  44.354  28.637   2.356
45428W        W 4524  10.234  32.008  10.908
45429W        W 4525   5.412  40.035  13.010
45430W        W 4526  11.173   3.744  12.526
45431W        W 4527   5.902  40.448   2.188
45432W        W 4528   8.215  18.135   4.288
45433W        W 4529  13.121   4.711  12.408
45434W        W 4530  13.219  17.211   5.222
45435W        W 4531  18.272  11.241  14.968
45436W        W 4532  12.792  27.979  12.350
45437W        W 4533  16.581   5.322  11.012
45438W        W 4534  41.470  34.539  10.639
45439W        W 4535  19.062  27.950   2.862
45440W        W 4536  10.377  42.818   4.765
45441W        W 4537  11.728  13.312  12.977
45442W        W 4538  22.661  15.587   2.873
45443W        W 4539  44.767  20.739  12.371
45444W        W 4540  10.241   4.746   2.413
45445W        W 4541  39.384  24.004   0.864
45446W        W 4542  29.521  12.294  14.835
45447W        W 4543  20.172  33.563   3.762
45448W        W 4544  15.110  34.873   2.284
45449W        W 4545  26.085   2.951   3.858
45450W        W 4546  14.178  21.064   1.893
45451W        W 4547   1.962  20.127  12.406
45452W        W 4548  19.573   6.301  11.584
45453W        W 4549  11.821  13.166   5.296
45454W        W 4550  42.948  15.819  12.533
45455W        W 4551  14.766  15.767   4.791
45456W        W 4552  17.686  34.580   2.371
45457W        W 4553  23.229  33.927   1.695
45458W        W 4554  11.144  18.258   1.851
45459W        W 4555  37.582  18.192   9.947
45460W        W 4556  13.176  34.912   0.732
45461W        W 4557  26.653  37.389   1.344
45462W        W 4558  16.600  14.805   3.844
45463W        W 4559   3.431  13.701  12.463
45464W        W 4560  27.652  39.842  11.458
45465W        W 4561   3.854   2.279  13.941
45466W        W 4562   4.827  23.657  14.300
45467W        W 4563  44.388  43.917   0.925
45468W        W 4564  44.353  36.902  13.035
45469W        W 4565  24.554  24.538   3.762
45470W        W 4566  33.609  16.285  14.292
45471W        W 4567   3.899  15.258  11.093
45472W        W 4568  17.716   9.770  10.616
45473W        W 4569  43.771  36.020  12.532
45474W        W 4570   8.168  19.225   0.351
45475W        W 4571  10.636  26.086   1.748
45476W        W 4572  10.709  28.033  10.558
45477W        W 4573  12.710  24.617  14.030
45478W        W 4574  23.660  24.480  12.549
45479W        W 4575  15.737  20.584  10.887
45480W        W 4576  34.105  10.792   1.267
45481W        W 4577   0.881  15.605   1.874
45482W        W 4578  11.338   7.210   1.304
45483W        W 4579  33.463  36.444   3.811
45484W        W 4580  23.143  19.548   5.687
45485W        W 4581   1.382  16.632  14.837
45486W        W 4582  17.158   0.788  13.017
45487W        W 4583  10.252  39.882  11.429
45488W        W 4584  23.236  43.489  11.071
45489W        W 4585   2.957   1.300   0.939
45490W        W 4586   8.163  24.015  14.996
45491W        W 4587  14.728  17.775  10.925
45492W        W 4588  19.061  20.151   3.730
45493W        W 4589  14.237  24.075  14.916
45494W        W 4590  32.056   6.186   3.653
45495W        W 4591  40.898  14.687  14.468
45496W        W 4592   9.284  16.144   0.909
45497W        W 4593  19.570  27.483  11.502
45498W        W 4594  19.731   8.868  14.772
45499W        W 4595  38.453  31.609   3.632
45500W        W 4596  39.453  27.069  13.037
45501W        W 4597   5.859  41.977  10.982
45502W        W 4598   8.805  27.182   4.217
45503W        W 4599  40.053  24.641  13.029
45504W        W 4600   3.779   5.315  10.567
45505W        W 4601  26.073  12.126  14.438
45506W        W 4602  42.296  38.528   0.780
45507W        W 4603   1.441  32.113  10.591
45508W        W 4604   0.870  14.683   0.400
45509W        W 4605   6.866  36.945   1.380
45510W        W 4606  25.563  10.697   4.795
45511W        W 4607  28.560  22.646  10.603
45512W        W 4608   7.903  24.125  14.835
45513W        W 4609  20.528  34.451   1.418
45514W        W 4610  29.525  33.424   2.722
45515W        W 4611  12.349  44.884   2.835
45516W        W 4612  22.549  11.834  14.019
45517W        W 4613  31.035  20.759   4.118
45518W        W 4614   4.848  44.968   1.257
45519W        W 4615  32.486  13.637   2.359
45520W        W 4616  10.178  29.506  10.489
45521W        W 4617  38.836  19.184  13.887
45522W        W 4618  21.555  28.439  11.049
45523W        W 4619  30.094  11.759   3.778
45524W        W 4620  20.112  16.808  14.820
45525W        W 4621  29.581  33.934   4.765
45526W        W 4622  20.725  28.651  13.060
45527W        W 4623  28.549  16.158   2.262
45528W        W 4624  28.445  26.169   3.160
45529W        W 4625  15.696  20.546   3.308
45530W        W 4626  30.502  13.135  13.522
45531W        W 4627  33.904   4.378  14.386
45532W        W 4628  40.481  21.556   3.850
45533W        W 4629  33.573  25.999  13.896
45534W        W 4630  19.668  39.024   3.715
45535W        W 4631  25.589   8.399  14.004
45536W        W 4632  40.328  36.856   0.393
45537W        W 4633  20.642  12.689   2.314
45538W        W 4634   3.762  11.621   1.872
45539W        W 4635  13.707   0.893  14.762
45540W        W 4636   5.825  20.047   3.333
45541W        W 4637  10.682  25.070   4.335
45542W        W 4638  20.184  22.017  11.110
45543W        W 4639  23.522  26.577   3.721
45544W        W 4640  12.262  42.357   4.177
45545W        W 4641  30.486  11.301  10.579
45546W        W 4642  34.929  24.063  13.902
45547W        W 4643  21.025  10.170   0.817
45548W        W 4644  22.551  44.406   3.218
45549W        W 4645  41.922  40.474  13.033
45550W        W 4646  15.766  13.689  13.983
45551W        W 4647   9.328  24.713   5.569
45552W        W 4648  40.822  34.371   0.760
45553W        W 4649   4.446  29.171  14.816
45554W        W 4650  17.096  40.312   4.789
45555W        W 4651  21.093   3.951  13.870
45556W        W 4652  29.992  22.688   2.726
45557W        W 4653  40.456   6.246   4.679
45558W        W 4654  11.155   0.327  14.025
45559W        W 4655  15.783  15.595   1.252
45560W        W 4656  16.568   0.485   1.753
45561W        W 4657  34.606  27.632  13.521
45562W        W 4658  30.967  35.568  12.354
45563W        W 4659  44.285  18.734  10.425
45564W        W 4660  27.571  33.118   3.689
45565W        W 4661  39.005   5.737  14.425
45566W        W 4662  23.039  12.838  10.986
45567W        W 4663  28.958  43.930   0.291
45568W        W 4664  25.565  37.562   1.428
45569W        W 4665  38.434  28.980   1.851
45570W        W 4666   4.298  23.143   0.390
45571W        W 4667  43.331  41.326   2.185
45572W        W 4668   2.450  41.458  13.797
45573W        W 4669  18.784   5.906   2.729
45574W        W 4670   5.405   2.837   3.289
45575W        W 4671   5.261   3.238  11.574
45576W        W 4672   5.222  34.029   2.685
45577W        W 4673  22.519   3.882  13.430
45578W        W 4674  39.411  36.472  14.779
45579W        W 4675  37.038  24.157  12.557
45580W        W 4676   6.817   6.760   0.268
45581W        W 4677  41.997  37.879  12.357
45582W        W 4678   7.381  20.693   1.321
45583W        W 4679   1.269  22.541  13.965
45584W        W 4680  37.546  29.013  11.612
45585W        W 4681  30.520  17.601   2.765
45586W        W 4682  35.983  42.908  10.113
45587W        W 4683  29.606   9.850  12.450
45588W        W 4684  24.623  37.918  13.020
45589W        W 4685  40.480  42.982   3.233
45590W        W 4686  40.949  19.541   4.641
45591W        W 4687  12.255  26.127   2.370
45592W        W 4688  18.237   6.246  11.946
45593W        W 4689   5.433  33.889  11.912
45594W        W 4690  40.004  20.073   0.913
45595W        W 4691  13.705  18.078  12.073
45596W        W 4692  23.553  24.695   0.831
45597W        W 4693   9.368  33.573   3.367
45598W        W 4694  10.176   5.261  11.110
45599W        W 4695  22.720  20.620  11.023
45600W        W 4696  35.370  28.547   1.429
45601W        W 4697   9.224  18.640  13.895
45602W        W 4698  30.038  26.139   1.401
45603W        W 4699  22.138  29.035  10.642
45604W        W 4700   1.953  29.044  11.505
45605W        W 4701   1.245   3.722  10.930
45606W        W 4702  29.664  17.767   4.193
45607W        W 4703  29.163   1.754   2.329
45608W        W 4704  35.538  20.558   4.678
45609W        W 4705   1.875   0.411   1.359
45610W        W 4706  14.332  40.371  14.311
45611W        W 4707  13.719  27.511   2.237
45612W        W 4708  16.200  28.015   3.311
45613W        W 4709  12.694  23.239   3.649
45614W        W 4710  10.790  37.049   3.206
45615W        W 4711  44.808  18.104  14.769
45616W        W 4712   2.356  31.528  13.461
45617W        W 4713  21.612   6.880  13.922
45618W        W 4714  23.204   8.218  13.049
45619W        W 4715  35.552   2.370   3.661
45620W        W 4716  18.289  33.385   2.802
45621W        W 4717   2.739  43.973   3.813
45622W        W 4718  27.464  35.434  10.992
45623W        W 4719  43.278   0.287  11.455
45624W        W 4720   2.825   9.153  13.799
45625W        W 4721  34.525   4.450   4.255
45626W        W 4722  27.011  20.634  14.002
45627W        W 4723  44.481   0.789   4.726
45628W        W 4724  15.667  27.623  12.492
45629W        W 4725  19.590  32.954  11.894
45630W        W 4726   5.753   4.808  14.327
45631W        W 4727  28.639   3.719  14.294
45632W        W 4728   7.260  34.543   4.195
45633W        W 4729   6.349   1.900  11.919
45634W        W 4730  34.907  21.725  11.920
45635W        W 4731  28.092  10.679   0.861
45636W        W 4732  31.981   1.396   1.870
45637W        W 4733  37.905  43.851   1.238
45638W        W 4734  14.176  17.766   2.716
45639W        W 4735  40.900  43.348   4.297
45640W        W 4736  28.540  19.733   3.306
45641W        W 4737  18.053  25.198   3.315
45642W        W 4738  24.186   4.367  14.397
45643W        W 4739  44.479  25.568   2.291
45644W        W 4740  16.120  31.070  14.951
45645W        W 4741  10.854  23.022  12.425
45646W        W 4742  21.623   9.216  14.026
45647W        W 4743  20.582  41.521  12.371
45648W        W 4744  34.948  28.618   1.438
45649W        W 4745  39.437  17.170   1.838
45650W        W 4746  16.760  18.164  10.927
45651W        W 4747  17.643   5.201  10.599
45652W        W 4748   3.822  15.117  14.925
45653W        W 4749   7.382  15.794  12.918
45654W        W 4750   9.855  30.562   3.849
45655W        W 4751  22.547   6.877  10.951
45656W        W 4752  34.082  14.113  14.924
45657W        W 4753  42.370  26.484  14.463
45658W        W 4754  23.714  34.395   4.187
45659W        W 4755  41.855  19.539  12.980
45660W        W 4756   2.848   2.897  14.279
45661W        W 4757  40.382  16.133   1.229
45662W        W 4758   5.363  42.418   0.888
45663W        W 4759  19.091   2.284   3.674
45664W        W 4760  27.663   1.351  10.564
45665W        W 4761  16.780   6.221   1.853
45666W        W 4762   9.782  38.057  11.947
45667W        W 4763  32.998  11.735  14.475
45668W        W 4764  32.116  13.740   4.751
45669W        W 4765  41.817  21.171  10.068
45670W        W 4766  42.473  43.929   3.824
45671W        W 4767   7.214   4.922  14.024
45672W        W 4768  26.130  23.083  12.419
45673W        W 4769  22.121  41.357   1.769
45674W        W 4770  15.241  23.523   3.857
45675W        W 4771  22.200  14.280   4.121
45676W        W 4772   2.375  44.851   4.222
45677W        W 4773  18.678  24.691  13.940
45678W        W 4774   2.251  14.172  11.403
45679W        W 4775   9.181   0.310  10.606
45680W        W 4776  40.900   8.350  14.982
45681W        W 4777  14.776  14.652  10.504
45682W        W 4778  14.339   0.273  12.835
45683W        W 4779  34.108  14.173   1.766
45684W        W 4780   7.690  24.667   3.666
45685W        W 4781  43.955   8.806   2.783
45686W        W 4782   1.351  42.324   3.681
45687W        W 4783  38.557  23.136  11.899
45688W        W 4784  42.439  39.901  10.510
45689W        W 4785   7.883  29.095   9.955
45690W        W 4786  42.485  24.652   1.433
45691W        W 4787   6.195  43.902   1.392
45692W        W 4788  43.767  16.685  11.401
45693W        W 4789  23.632  11.839   1.265
45694W        W 4790   4.248  25.522   2.662
45695W        W 4791  21.064  15.713  11.892
45696W        W 4792  44.336   8.183   2.867
45697W        W 4793   1.297   7.212   2.215
45698W        W 4794  17.570  16.713   2.418
45699W        W 4795  13.235  27.995  10.489
45700W        W 4796  10.700  28.625  12.001
45701W        W 4797  24.048  22.050  14.420
45702W        W 4798  14.818  15.187   0.286
45703W        W 4799  33.438  29.530  11.082
45704W        W 4800  11.637  10.147  14.957
45705W        W 4801  16.575  12.267   3.262
45706W        W 4802  40.417  30.001  14.296
45707W        W 4803  35.853  40.031  10.436
45708W        W 4804  26.605  20.704   1.391
45709W        W 4805  19.138  21.642  13.903
45710W        W 4806  24.597  22.193  11.951
45711W        W 4807  34.581   6.865   4.687
45712W        W 4808  19.133  17.709  12.354
45713W        W 4809  31.106  35.928   2.876
45714W        W 4810  33.963  44.988   4.636
45715W        W 4811  43.466  40.986  10.557
45716W        W 4812  14.339  37.572   0.806
45717W        W 4813  18.585  22.139  14.864
45718W        W 4814  35.007  16.566   1.258
45719W        W 4815  27.072   7.778  10.605
45720W        W 4816  16.254  17.184  11.975
45721W        W 4817  39.924   3.245  11.418
45722W        W 4818   1.787   2.427  12.478
45723W        W 4819  19.246  24.193  12.519
45724W        W 4820  21.683  41.373  14.376
45725W        W 4821   6.701  32.528  10.425
45726W        W 4822  10.875  18.612   4.352
45727W        W 4823   9.385  13.316  11.446
45728W        W 4824  14.698   7.699   2.886
45729W        W 4825  17.635   1.302  12.857
45730W        W 4826  12.666  28.130   0.732
45731W        W 4827  33.877   9.149   1.404
45732W        W 4828  23.595  44.927  12.436
45733W        W 4829  22.176  22.230   3.343
45734W        W 4830  14.665  29.597   0.320
45735W        W 4831  37.905   4.826   0.263
45736W        W 4832  32.518  34.922  13.438
45737W        W 4833  16.622  43.335  10.468
45738W        W 4834  40.041  41.869   4.169
45739W        W 4835  40.426  10.190  14.815
45740W        W 4836  14.688  27.491   3.335
45741W        W 4837  33.977  21.074  14.876
45742W        W 4838  26.092  32.508   3.369
45743W        W 4839   8.301  41.924  12.415
45744W        W 4840  11.312  34.070   2.811
45745W        W 4841  32.414  28.146  10.046
45746W        W 4842  19.189  34.115   0.726
45747W        W 4843  40.491  11.640  12.923
45748W        W 4844  19.157  35.929  12.353
45749W        W 4845  27.074  15.195   3.150
45750W        W 4846  41.498  40.424   0.447
45751W        W 4847  31.137  28.611  10.614
45752W        W 4848  34.374  43.433  12.843
45753W        W 4849  39.422  32.985  11.033
45754W        W 4850  25.596  26.008   0.950
45755W        W 4851  40.444  30.452  12.442
45756W        W 4852  18.779  32.958   5.316
45757W        W 4853  27.998   1.366   0.414
45758W        W 4854  10.231   4.713  14.930
45759W        W 4855   9.723   7.748   0.378
45760W        W 4856  19.234   7.226   0.735
45761W        W 4857  20.688  41.950  14.405
45762W        W 4858  28.628  43.898  13.537
45763W        W 4859   7.355  17.587   1.368
45764W        W 4860  21.688  10.160   5.773
45765W        W 4861   8.247  27.007  12.009
45766W        W 4862  21.663  34.382  14.901
45767W        W 4863  22.701  20.769  12.875
45768W        W 4864  26.108   8.848  10.507
45769W        W 4865  30.103  28.479  14.012
45770W        W 4866  42.483  24.091   1.226
45771W        W 4867   4.348   8.712  11.933
45772W        W 4868   2.913  15.688  10.535
45773W        W 4869  26.561   2.831   3.656
45774W        W 4870   1.315  35.881   2.752
45775W        W 4871  14.299  24.079  10.475
45776W        W 4872  12.745  38.966   3.264
45777W        W 4873  35.362   5.416   0.376
45778W        W 4874  22.714  11.300   3.163
45779W        W 4875   7.853   5.315  12.418
45780W        W 4876  18.156  20.614   2.193
45781W        W 4877  27.514  36.561   0.255
45782W        W 4878  33.522  34.553   2.893
45783W        W 4879  42.360  13.279  14.027
45784W        W 4880  23.996  20.090  13.833
45785W        W 4881   8.288   4.229  10.601
45786W        W 4882  25.052   3.947   3.251
45787W        W 4883  22.122  22.663   1.786
45788W        W 4884  34.522  38.566  14.335
45789W        W 4885  40.361  18.700   1.399
45790W        W 4886  32.941   0.918  12.927
45791W        W 4887   2.387  39.857  12.970
45792W        W 4888   1.374  42.473  12.830
45793W        W 4889  23.059  44.791  12.555
45794W        W 4890  35.496   5.778  13.043
45795W        W 4891  20.206  13.774   2.677
45796W        W 4892  16.672  38.486   4.633
45797W        W 4893  21.073  34.927   3.757
45798W        W 4894  30.008  17.084   1.363
45799W        W 4895  26.201   2.386   2.707
45800W        W 4896  36.041  34.984  13.436
45801W        W 4897  26.702  30.027   1.445
45802W        W 4898  31.946  42.908   4.174
45803W        W 4899  34.489  30.432   0.325
45804W        W 4900  42.856   3.905  13.486
45805W        W 4901  18.120  31.145  10.578
45806W        W 4902  17.584  42.775   3.810
45807W        W 4903  23.085  33.875   2.398
45808W        W 4904   6.240  30.617  10.968
45809W        W 4905   3.794  27.101  13.409
45810W        W 4906  11.279  18.721  13.509
45811W        W 4907  38.505   8.801  11.433
45812W        W 4908  34.536  34.069   4.301
45813W        W 4909  40.808  14.232   1.327
45814W        W 4910  10.806  44.919   4.127
45815W        W 4911  25.503  15.283   3.846
45816W        W 4912   8.244  11.235  13.415
45817W        W 4913  29.927  41.882  13.041
45818W        W 4914  32.126  27.476   3.228
45819W        W 4915  41.041  26.953  10.953
45820W        W 4916  30.940  25.189  14.293
45821W        W 4917   2.406  23.719  13.503
45822W        W 4918   7.774  43.843  11.063
45823W        W 4919  23.590  27.960  11.008
45824W        W 4920  33.990  34.067   3.778
45825W        W 4921  37.567  13.222  10.515
45826W        W 4922  27.481  25.520  12.993
45827W        W 4923  14.224  12.128  13.908
45828W        W 4924  30.514   4.393  11.436
45829W        W 4925  15.746  10.828   0.425
45830W        W 4926  10.712  43.911  14.775
45831W        W 4927  34.464  23.628   3.294
45832W        W 4928  31.959  23.126   1.880
45833W        W 4929  44.374  13.291  14.006
45834W        W 4930  18.753  18.773   3.213
45835W        W 4931   1.410  26.617  13.348
45836W        W 4932   7.174  12.162   2.721
45837W        W 4933  40.358  40.972   0.347
45838W        W 4934  19.623   2.298  14.846
45839W        W 4935   9.823   7.714  14.297
45840W        W 4936  36.429  32.433  12.987
45841W        W 4937   8.656  15.722  10.093
45842W        W 4938   4.361  38.837  10.533
45843W        W 4939  43.406  20.640  11.002
45844W        W 4940  24.197   5.375  14.440
45845W        W 4941  39.891  38.048   2.308
45846W        W 4942   8.336  35.374  14.319
45847W        W 4943  27.004  29.155   1.767
45848W        W 4944  39.460  13.152   3.172
45849W        W 4945  33.424  28.662   0.899
45850W        W 4946  13.619   1.818  13.996
45851W        W 4947  23.158  16.710  11.009
45852W        W 4948   7.699  33.990   4.763
45853W        W 4949  13.307  34.968  11.857
45854W        W 4950  39.481  22.728   0.348
45855W        W 4951  13.306  13.233  13.901
45856W        W 4952  29.592  30.029   3.747
45857W        W 4953  10.242  37.866   2.178
45858W        W 4954  36.525  24.597   0.886
45859W        W 4955  28.562  14.660  11.955
45860W        W 4956   8.864  26.020   4.738
45861W        W 4957   0.463  27.086  14.010
45862W        W 4958  30.651  31.965   0.904
45863W        W 4959  31.505  27.464  12.878
45864W        W 4960  24.497  28.511   2.826
45865W        W 4961  22.610  38.475  12.034
45866W        W 4962   4.323   6.777  13.461
45867W        W 4963  15.780  10.381  12.832
45868W        W 4964  30.467  24.554   2.775
45869W        W 4965  13.244  28.000   5.187
45870W        W 4966   1.946  39.489  11.051
45871W        W 4967   4.316  15.654   0.751
45872W        W 4968  42.510  13.172   4.125
45873W        W 4969  39.949  30.611   4.268
45874W        W 4970  16.075   8.383   3.305
45875W        W 4971  28.574  11.284  14.004
45876W        W 4972   6.284  28.105   1.234
45877W        W 4973  13.648  12.195  11.588
45878W        W 4974  36.054  43.972   4.809
45879W        W 4975  12.838  11.737  14.363
45880W        W 4976  25.654  14.145   2.675
45881W        W 4977  29.929  42.812  13.818
45882W        W 4978  16.137  10.285  12.580
45883W        W 4979  22.731  32.505   4.819
45884W        W 4980  17.150  21.153   4.617
45885W        W 4981  39.377  38.369  12.468
45886W        W 4982   3.332  11.307   3.758
45887W        W 4983  24.184  35.869   2.824
45888W        W 4984  21.596  34.577  12.095
45889W        W 4985   3.954  15.228  13.908
45890W        W 4986  17.265  34.883   0.890
45891W        W 4987  38.530  37.010  10.574
45892W        W 4988   5.806  14.829  10.507
45893W        W 4989  24.642  44.300  10.994
45894W        W 4990  16.733  32.078  13.951
45895W        W 4991  28.613  36.545   0.420
45896W        W 4992   7.815  44.897   2.674
45897W        W 4993  19.552  27.619   2.844
45898W        W 4994   8.235   0.337  13.893
45899W        W 4995  36.920  26.080   3.717
45900W        W 4996  20.717  40.426   3.252
45901W        W 4997  34.526  39.839  12.081
45902W        W 4998   3.289  32.895   1.306
45903W        W 4999  27.541   6.882  14.515
45904W        W 5000  19.633  29.100  14.861
45905W        W 5001  24.638   0.297   2.327
45906W        W 5002  43.764  44.956   2.805
45907W        W 5003   9.799   9.281  12.580
45908W        W 5004   4.807  20.224  11.081
45909W        W 5005  11.308   0.431  12.869
45910W        W 5006   7.318  26.151  12.541
45911W        W 5007  28.113  10.737  11.892
45912W        W 5008  22.511  36.471   2.669
45913W        W 5009   3.765  12.142   4.243
45914W        W 5010  38.990   0.293  10.615
45915W        W 5011  40.373   3.733  13.051
45916W        W 5012  21.177  38.891   0.345
45917W        W 5013  21.204  42.935   1.821
45918W        W 5014  44.407   9.376  12.982
45919W        W 5015   8.888  15.241   4.728
45920W        W 5016  14.179   5.854  12.350
45921W        W 5017  10.193   8.685  14.991
45922W        W 5018  27.129  38.839  14.442
45923W        W 5019  17.595   8.344  10.630
45924W        W 5020  26.619   8.285  11.405
45925W        W 5021  10.797  31.496   3.812
45926W        W 5022  23.210   0.805  11.000
45927W        W 5023  43.827  19.128   0.419
45928W        W 5024  25.095  14.665   3.236
45929W        W 5025  15.662  40.937  13.815
45930W        W 5026  25.166  29.665   2.684
45931W        W 5027  15.184  27.567   0.293
45932W        W 5028  25.156   6.817   3.683
45933W        W 5029   0.889  31.978   4.730
45934W        W 5030  32.039  19.240   3.215
45935W        W 5031  13.292  40.469  14.351
45936W        W 5032   3.799  31.061  11.858
45937W        W 5033  20.597  30.628   1.855
45938W        W 5034  21.167  35.461   5.247
45939W        W 5035  19.607  33.981  11.509
45940W        W 5036  19.737   9.883  13.491
45941W        W 5037  28.530  16.683  11.924
45942W        W 5038   0.935  12.757  13.477
45943W        W 5039  40.312  24.593   3.642
45944W        W 5040  26.682  42.817  14.904
45945W        W 5041  17.659   8.187   4.223
45946W        W 5042  16.275   7.771  14.437
45947W        W 5043  39.320  31.487  11.479
45948W        W 5044  17.632  33.416  12.478
45949W        W 5045  29.670  44.980   3.381
45950W        W 5046  29.543   9.257  14.445
45951W        W 5047  15.181  21.697  14.837
45952W        W 5048  37.444  18.755   4.680
45953W        W 5049   7.180  15.585   4.623
45954W        W 5050  30.636  23.659  10.516
45955W        W 5051  27.454  10.868  10.935
45956W        W 5052  24.025  17.767   3.714
45957W        W 5053   0.893  38.410   0.900
45958W        W 5054  27.641  13.756  13.522
45959W        W 5055  24.719  34.551   3.307
45960W        W 5056  37.581  11.798  12.016
45961W        W 5057  38.443   9.664  14.317
45962W        W 5058  43.007  23.707  12.515
45963W        W 5059  31.461  44.274   0.266
45964W        W 5060   3.411   6.351   2.411
45965W        W 5061  40.896  36.538   3.186
45966W        W 5062  37.559  37.012  13.882
45967W        W 5063   9.301  14.599   1.279
45968W        W 5064   6.416  27.175  11.395
45969W        W 5065  22.527  32.548   0.339
45970W        W 5066   5.880  17.069   0.923
45971W        W 5067   7.197  41.361  13.477
45972W        W 5068   5.328   7.718  14.349
45973W        W 5069  40.490  24.620  13.062
45974W        W 5070  24.162   7.720   4.714
45975W        W 5071  36.450  27.182  11.395
45976W        W 5072  27.638  40.000  14.345
45977W        W 5073  17.144   6.842  12.397
45978W        W 5074  14.761  10.716   0.965
45979W        W 5075  38.955  23.718   2.331
45980W        W 5076   3.327   8.867  10.037
45981W        W 5077   9.739   3.822  10.437
45982W        W 5078   0.818   9.314   4.743
45983W        W 5079  26.638   4.322   3.840
45984W        W 5080  31.914  37.567   0.943
45985W        W 5081   4.895  36.570   1.377
45986W        W 5082  11.631  44.903  12.090
45987W        W 5083   7.265   4.397   4.330
45988W        W 5084  20.574  21.749  10.621
45989W        W 5085  21.136  15.284  14.926
45990W        W 5086  13.808   0.276  10.458
45991W        W 5087  32.985  43.477  11.595
45992W        W 5088  19.093  35.566  14.446
45993W        W 5089  34.084  23.207  10.516
45994W        W 5090  20.564  24.719   0.453
45995W        W 5091  32.948  31.519  10.584
45996W        W 5092  31.941  39.432   0.920
45997W        W 5093   8.255  41.947   4.618
45998W        W 5094  30.155   5.794   1.822
45999W        W 5095  33.054  14.193  13.394
46000W        W 5096   0.969  42.869   3.676
46001W        W 5097  43.457  22.583   4.200
46002W        W 5098  29.500  37.402  14.968
46003W        W 5099  38.941  42.419  10.623
46004W        W 5100   6.703  23.707  10.611
46005W        W 5101  37.863   0.488   4.768
46006W        W 5102  22.046  38.516  14.947
46007W        W 5103  18.256   9.325   5.140
46008W        W 5104  39.023  19.098   4.819
46009W        W 5105  40.434   8.238   4.125
46010W        W 5106  25.564  18.757  13.355
46011W        W 5107  32.439  17.088   4.733
46012W        W 5108   2.895   8.353   0.789
46013W        W 5109  40.349   9.385  12.528
46014W        W 5110   8.820  12.723   4.305
46015W        W 5111  30.646   9.352  13.400
46016W        W 5112  23.194  19.540   3.158
46017W        W 5113  35.101  11.706  11.935
46018W        W 5114  31.070  43.455   2.711
46019W        W 5115   5.829  14.287  11.081
46020W        W 5116  44.478  10.823  13.832
46021W        W 5117  15.278  11.709  13.529
46022W        W 5118  38.514  34.082   2.188
46023W        W 5119   0.944  12.746  10.909
46024W        W 5120  44.268  30.917   0.883
46025W        W 5121   4.751  15.785   1.427
46026W        W 5122  40.933   4.427  10.606
46027W        W 5123   6.224  41.321   4.124
46028W        W 5124  35.946  35.894  11.054
46029W        W 5125  24.700  19.684  13.370
46030W        W 5126  12.280  15.326  12.420
46031W        W 5127  15.148  43.319   2.666
46032W        W 5128  13.782  34.591  12.888
46033W        W 5129  41.491   2.953   2.885
46034W        W 5130  17.677  27.484   4.820
46035W        W 5131   2.866  19.216   0.248
46036W        W 5132  33.434  21.705   3.192
46037W        W 5133  33.107  15.218   0.830
46038W        W 5134  33.536  11.299  12.490
46039W        W 5135   8.329  24.128   5.191
46040W        W 5136  41.303   8.756   1.363
46041W        W 5137   6.690  14.186   3.833
46042W        W 5138   4.941   9.707   4.712
46043W        W 5139  22.722  24.061   4.257
46044W        W 5140  17.565  21.516   2.246
46045W        W 5141  22.162  42.884  10.459
46046W        W 5142  13.841  43.448   4.235
46047W        W 5143   9.651  24.010  13.038
46048W        W 5144  16.148  15.309   3.684
46049W        W 5145  42.027   2.451   0.751
46050W        W 5146  31.019   6.798  13.956
46051W        W 5147  28.634  36.554   2.670
46052W        W 5148  34.519  28.622  13.473
46053W        W 5149  12.687  38.033  10.551
46054W        W 5150  17.123  37.992   4.832
46055W        W 5151  44.801  44.962  14.820
46056W        W 5152  14.762  35.924  13.485
46057W        W 5153  31.532   9.665  11.964
46058W        W 5154  15.797  37.351   0.466
46059W        W 5155   5.325  26.181   0.301
46060W        W 5156  31.442  24.031   3.177
46061W        W 5157  16.080   8.239  14.318
46062W        W 5158  15.215  16.149   3.255
46063W        W 5159  15.287  14.791   1.709
46064W        W 5160  21.675  37.950   0.915
46065W        W 5161  21.142   7.887   4.279
46066W        W 5162  43.919   7.712  13.006
46067W        W 5163  30.457  42.916  14.012
46068W        W 5164  30.518   2.907  10.985
46069W        W 5165  21.634  42.797   4.142
46070W        W 5166  16.141   8.291  10.959
46071W        W 5167  32.913  38.855  12.079
46072W        W 5168  14.640   5.358  11.588
46073W        W 5169   7.890  37.839   0.887
46074W        W 5170  32.909   8.221  11.524
46075W        W 5171  39.977   9.304   3.843
46076W        W 5172  44.986   5.740  11.077
46077W        W 5173   7.904   8.303  14.476
46078W        W 5174  39.383  39.501  12.975
46079W        W 5175  35.074  29.590   2.828
46080W        W 5176  44.881   4.841  10.950
46081W        W 5177  17.191  44.850  12.029
46082W        W 5178  41.442  39.342  14.829
46083W        W 5179  24.538   8.279  13.853
46084W        W 5180  44.281   6.221   0.463
46085W        W 5181  41.403  22.151  12.970
46086W        W 5182  35.931  36.011  13.884
46087W        W 5183  36.893  13.701  13.949
46088W        W 5184  25.093   9.312  14.394
46089W        W 5185  27.197  16.636   0.290
46090W        W 5186   7.351  38.527   4.681
46091W        W 5187  11.624  27.546   5.677
46092W        W 5188  19.669  37.001   5.659
46093W        W 5189  13.181  18.743   3.711
46094W        W 5190  24.092  40.386   4.643
46095W        W 5191   2.935  39.369  11.925
46096W        W 5192   3.808  15.291   1.434
46097W        W 5193  40.886  35.030  11.379
46098W        W 5194  42.309  16.680  11.536
46099W        W 5195  43.840  43.317  12.834
46100W        W 5196  10.803   2.945  10.591
46101W        W 5197  38.351   2.468   1.914
46102W        W 5198   0.368  25.007   0.944
46103W        W 5199  37.507  19.263   3.150
46104W        W 5200  22.519  36.427  11.418
46105W        W 5201  22.219  38.418  11.576
46106W        W 5202   2.324  42.330   2.264
46107W        W 5203  10.316  26.625  14.392
46108W        W 5204   7.323  16.123  11.513
46109W        W 5205   5.838   6.376  14.817
46110W        W 5206  40.308  15.701  12.521
46111W        W 5207  21.613  33.875  12.556
46112W        W 5208  29.565  31.561   1.750
46113W        W 5209   1.336  40.007   1.815
46114W        W 5210  30.617  19.182   2.201
46115W        W 5211  37.447   0.847   5.171
46116W        W 5212  10.775  18.113  10.966
46117W        W 5213   9.345  35.433  12.521
46118W        W 5214  43.911  24.514  12.073
46119W        W 5215   4.738  27.086  13.885
46120W        W 5216  24.605  44.382   4.598
46121W        W 5217  38.341  18.563  12.398
46122W        W 5218  28.105  15.195  13.956
46123W        W 5219  25.610  10.645   0.347
46124W        W 5220  34.112   2.265   3.342
46125W        W 5221  13.730   5.236  13.446
46126W        W 5222  36.888  12.826  14.461
46127W        W 5223  28.123  17.585   2.873
46128W        W 5224  18.570  39.551  11.108
46129W        W 5225  22.221  24.190  13.978
46130W        W 5226   0.791  43.783  14.492
46131W        W 5227  24.160  43.935   1.749
46132W        W 5228  43.887  23.512   3.299
46133W        W 5229  34.599  20.598   2.208
46134W        W 5230  14.183  23.489  13.917
46135W        W 5231  41.390  10.336  12.368
46136W        W 5232  29.008  36.956  12.868
46137W        W 5233  11.157  41.846   0.926
46138W        W 5234   0.877  27.663  13.025
46139W        W 5235  25.693  39.864  13.424
46140W        W 5236  24.659  43.828   0.952
46141W        W 5237  29.510  42.871   2.750
46142W        W 5238  26.641   3.402  10.584
46143W        W 5239   6.331  13.699   3.781
46144W        W 5240  41.484  18.061  13.435
46145W        W 5241  18.752  34.524   0.437
46146W        W 5242  13.326   5.423   1.833
46147W        W 5243  12.757   3.227   0.865
46148W        W 5244  32.546   8.347   0.331
46149W        W 5245   9.260   0.265  13.931
46150W        W 5246  24.622   9.158   2.703
46151W        W 5247  29.022  44.758   0.465
46152W        W 5248  16.606  24.714  11.962
46153W        W 5249  44.426  35.873   0.275
46154W        W 5250  16.188  44.325   3.730
46155W        W 5251  23.094  42.964  12.442
46156W        W 5252  34.493   5.350  11.533
46157W        W 5253  40.520  20.097   0.348
46158W        W 5254  43.330  25.134   0.337
46159W        W 5255  28.996  21.633   1.817
46160W        W 5256   7.366   3.300  11.111
46161W        W 5257  26.973  16.747  14.286
46162W        W 5258  23.092   6.866  11.881
46163W        W 5259  25.701  35.033  12.358
46164W        W 5260   6.314   7.317   4.346
46165W        W 5261  27.033  22.683   3.664
46166W        W 5262  38.333   2.812  13.413
46167W        W 5263   4.209   2.346  14.935
46168W        W 5264  36.551  23.525   5.246
46169W        W 5265  25.671  14.664  11.867
46170W        W 5266  44.875  13.216   2.764
46171W        W 5267   8.173   3.313   2.315
46172W        W 5268  32.435   4.876   1.903
46173W        W 5269  31.533   4.848  13.882
46174W        W 5270  32.621   0.764   4.314
46175W        W 5271  30.023   0.308  13.514
46176W        W 5272  38.056  29.510   1.842
46177W        W 5273  12.249  44.304  12.976
46178W        W 5274  26.521   4.321  13.813
46179W        W 5275  32.000  23.666  13.342
46180W        W 5276  12.205  24.547  12.342
46181W        W 5277  20.149   1.429  14.928
46182W        W 5278  43.987   8.161   0.792
46183W        W 5279  19.713  25.976   4.633
46184W        W 5280  29.609  33.927  13.006
46185W        W 5281   3.745   4.788   0.800
46186W        W 5282  23.225  26.469  14.435
46187W        W 5283  12.625   0.799   0.365
46188W        W 5284  31.422  42.876   3.771
46189W        W 5285  37.389   0.983   1.439
46190W        W 5286  34.989  20.227  12.404
46191W        W 5287  22.711  21.588   0.896
46192W        W 5288  11.143  43.465  10.587
46193W        W 5289  40.479  38.997  12.579
46194W        W 5290  19.057  26.983   2.895
46195W        W 5291  13.235  39.949  12.346
46196W        W 5292  22.745  39.550  10.943
46197W        W 5293  29.959   5.341  11.515
46198W        W 5294  27.955  18.613   2.766
46199W        W 5295  32.994  29.644   3.341
46200W        W 5296  38.010  25.490  10.588
46201W        W 5297   4.266  34.447  12.353
46202W        W 5298  31.077  14.156   1.785
46203W        W 5299  28.065  32.583   1.728
46204W        W 5300   5.750  23.103  14.761
46205W        W 5301  21.517   6.388   1.898
46206W        W 5302  13.318   1.840   5.322
46207W        W 5303   2.437   1.735  12.024
46208W        W 5304  40.027  13.743   3.168
46209W        W 5305  41.997  24.991  13.967
46210W        W 5306  14.798  19.772   3.181
46211W        W 5307   9.204  28.636  14.770
46212W        W 5308   3.850  39.338  11.023
46213W        W 5309   8.374  12.715  14.994
46214W        W 5310  22.059  23.126  14.340
46215W        W 5311   4.325  30.001  10.510
46216W        W 5312  23.631   4.305  13.919
46217W        W 5313  37.944  43.487   3.171
46218W        W 5314   4.882  13.222   4.688
46219W        W 5315  39.857  33.595  14.858
46220W        W 5316   9.679  17.755   1.741
46221W        W 5317   1.942   9.717   0.753
46222W        W 5318  22.062  43.812  14.012
46223W        W 5319  25.974  13.804  10.461
46224W        W 5320   3.792  40.398  12.981
46225W        W 5321  40.359  39.347  11.412
46226W        W 5322   5.290  40.974  11.505
46227W        W 5323  29.129   5.306   4.744
46228W        W 5324  25.508  14.815   0.389
46229W        W 5325  19.155  38.357  13.330
46230W        W 5326  36.571  35.377  12.070
46231W        W 5327  17.197   7.414  12.877
46232W        W 5328  13.764   6.311  11.544
46233W        W 5329  19.680  29.032   1.291
46234W        W 5330  25.090  18.709   2.263
46235W        W 5331   2.229  23.621  13.985
46236W        W 5332  25.204  24.608   0.450
46237W        W 5333  38.879  30.003   3.154
46238W        W 5334  24.541   1.838  12.076
46239W        W 5335  32.421  35.903  12.544
46240W        W 5336  34.924  43.835  12.826
46241W        W 5337  33.011   3.341  14.801
46242W        W 5338  11.720  41.997  13.484
46243W        W 5339  22.699  22.532   2.334
46244W        W 5340   9.203  26.634   2.871
46245W        W 5341   1.254  29.483  14.383
46246W        W 5342  30.979  36.917   1.914
46247W        W 5343  12.291   6.871   2.280
46248W        W 5344  35.568   0.951  14.979
46249W        W 5345  17.576  22.593   0.254
46250W        W 5346  27.000  39.981   1.918
46251W        W 5347  34.091  13.623   2.244
46252W        W 5348  18.122   0.325  13.001
46253W        W 5349   4.784  16.223   3.219
46254W        W 5350   2.878  10.204   3.331
46255W        W 5351   0.369  17.257   0.872
46256W        W 5352  33.595   6.869  13.443
46257W        W 5353  25.096   4.227   4.202
46258W        W 5354  18.129  26.493   2.321
46259W        W 5355   9.200   1.301  13.430
46260W        W 5356  14.220  37.006  13.498
46261W        W 5357  37.553  32.394   0.454
46262W        W 5358   3.280  33.026  11.598
46263W        W 5359  39.841  27.178  11.527
46264W        W 5360  15.756   2.789   4.340
46265W        W 5361   9.739  27.531   3.737
46266W        W 5362   8.730   4.343  11.911
46267W        W 5363  19.550   2.761  13.903
46268W        W 5364  25.026   5.933   4.114
46269W        W 5365   2.811  13.774   2.676
46270W        W 5366  17.197  16.095  11.116
46271W        W 5367  26.156  30.979   1.734
46272W        W 5368  38.559  27.160   0.410
46273W        W 5369  43.859  31.634  11.977
46274W        W 5370  41.037  39.882  13.808
46275W        W 5371  17.740  29.469   1.266
46276W        W 5372  22.746  20.653   3.372
46277W        W 5373   2.375  10.201   4.659
46278W        W 5374  38.560  27.049  13.927
46279W        W 5375  22.211  34.867  12.056
46280W        W 5376   7.753  39.046   3.635
46281W        W 5377   4.821  35.518  14.807
46282W        W 5378  32.538  43.443   3.185
46283W        W 5379  44.411   2.343   2.182
46284W        W 5380   4.861  21.065  10.068
46285W        W 5381  12.715  12.763   4.765
46286W        W 5382  16.726  19.158  11.417
46287W        W 5383  20.686  21.220   4.354
46288W        W 5384  34.377  18.109   3.774
46289W        W 5385  33.949   4.802  11.968
46290W        W 5386  31.952   3.279  12.406
46291W        W 5387  29.165  33.918  11.426
46292W        W 5388  23.693  17.692  11.445
46293W        W 5389  11.780   1.921   1.272
46294W        W 5390  42.332  17.710  14.896
46295W        W 5391  13.838  37.551  14.772
46296W        W 5392  39.824  41.529  11.393
46297W        W 5393   8.836  30.908  12.879
46298W        W 5394  20.093  32.489   3.737
46299W        W 5395  42.505  23.536   4.213
46300W        W 5396  37.579  34.904  10.932
46301W        W 5397  12.764  16.101  11.994
46302W        W 5398  42.460  24.654   2.249
46303W        W 5399   5.712  16.182  12.346
46304W        W 5400  29.575  19.630   3.653
46305W        W 5401   4.292  32.897   2.417
46306W        W 5402   7.871  38.923   1.749
46307W        W 5403  18.247   9.154   1.905
46308W        W 5404  22.624   6.357  11.030
46309W        W 5405  23.657  15.649   1.777
46310W        W 5406  34.390   7.693   4.677
46311W        W 5407  15.311  33.623   1.829
46312W        W 5408   7.855  27.445  13.797
46313W        W 5409   9.268  26.167  12.544
46314W        W 5410   5.266  12.818  12.998
46315W        W 5411  36.856  39.516  12.555
46316W        W 5412  27.571  29.561   3.345
46317W        W 5413  20.621  12.246  13.529
46318W        W 5414  43.855  25.042  13.405
46319W        W 5415  32.947  39.810  14.818
46320W        W 5416  17.609  26.702   0.905
46321W        W 5417  16.770  44.881  11.996
46322W        W 5418  21.543  28.976   0.362
46323W        W 5419  31.545  22.598  13.936
46324W        W 5420  14.671  35.518   0.298
46325W        W 5421  11.269  32.982  11.549
46326W        W 5422  14.710  18.711  14.414
46327W        W 5423  25.632  40.936  13.360
46328W        W 5424  16.691   0.753   0.463
46329W        W 5425   5.708  29.961   4.203
46330W        W 5426  12.717  11.282  13.341
46331W        W 5427  25.106  36.348   1.420
46332W        W 5428  25.162  25.612  10.895
46333W        W 5429  28.052  25.522  12.917
46334W        W 5430  31.996  12.127   2.344
46335W        W 5431  32.960  26.473  14.300
46336W        W 5432  27.056  37.390  11.122
46337W        W 5433  23.520   5.253  13.431
46338W        W 5434   1.430  28.000  13.008
46339W        W 5435  35.990  24.127  14.478
46340W        W 5436  14.743  20.560  10.406
46341W        W 5437  23.058  28.040  11.478
46342W        W 5438  28.631  24.720  13.542
46343W        W 5439   4.825  31.456   2.708
46344W        W 5440  15.759  27.454   1.876
46345W        W 5441  22.508  26.567  14.389
46346W        W 5442  32.100  41.460   3.799
46347W        W 5443  44.455  36.076  10.623
46348W        W 5444  37.457  44.415   1.731
46349W        W 5445  32.137  42.849  13.946
46350W        W 5446   9.183  14.154   4.328
46351W        W 5447  44.872  21.038  12.553
46352W        W 5448  17.114  25.681  10.578
46353W        W 5449  21.087   6.408   2.209
46354W        W 5450  36.589  37.427  10.492
46355W        W 5451  39.000  35.467  11.104
46356W        W 5452  22.645  40.432  12.426
46357W        W 5453  42.906  10.655  12.069
46358W        W 5454  18.636   2.887  13.398
46359W        W 5455  15.225  11.295  10.963
46360W        W 5456  31.909  41.851  11.447
46361W        W 5457  33.889   7.911  12.393
46362W        W 5458  39.315  37.571   3.754
46363W        W 5459   9.707  43.841  11.996
46364W        W 5460  14.731  32.547   1.850
46365W        W 5461  28.073  42.495   0.362
46366W        W 5462  26.983  25.124   0.912
46367W        W 5463  24.533  42.912   2.244
46368W        W 5464  24.579  36.074  13.348
46369W        W 5465  43.307  16.605  10.980
46370W        W 5466  40.411  30.427   1.879
46371W        W 5467  32.033  42.910  12.093
46372W        W 5468  24.071   1.354   4.331
46373W        W 5469  32.930  12.336   0.824
46374W        W 5470   8.365  15.608  12.917
46375W        W 5471  13.195  28.182  12.416
46376W        W 5472  18.723  36.977  12.495
46377W        W 5473  11.133  25.637  10.451
46378W        W 5474  15.748   8.862   4.650
46379W        W 5475   2.918   5.869  11.396
46380W        W 5476  19.690  39.061   3.174
46381W        W 5477  27.138  17.225   2.369
46382W        W 5478  37.567  31.075   0.869
46383W        W 5479   3.796  17.661  12.980
46384W        W 5480  17.776  23.551   0.363
46385W        W 5481  11.686   2.907  12.431
46386W        W 5482   3.312  28.107   0.451
46387W        W 5483   2.906   0.851   1.707
46388W        W 5484  10.714  42.980   2.694
46389W        W 5485  25.494  19.694   4.705
46390W        W 5486  10.799  31.485  13.055
46391W        W 5487  33.085   0.385  14.974
46392W        W 5488  11.670  10.258  11.073
46393W        W 5489  27.465  18.143  11.521
46394W        W 5490  44.810  40.355   3.355
46395W        W 5491   3.795  10.351   0.744
46396W        W 5492   2.745  19.640  10.959
46397W        W 5493   3.889   1.354  11.014
46398W        W 5494  34.080  42.022   2.882
46399W        W 5495   8.271  30.627   1.848
46400W        W 5496  33.042  41.789   3.847
46401W        W 5497  14.610  35.382   0.891
46402W        W 5498   8.785  36.846   2.767
46403W        W 5499  30.481  13.157   0.917
46404W        W 5500  29.135  34.034  14.464
46405W        W 5501  35.536  43.892  10.996
46406W        W 5502  32.557  26.634  11.418
46407W        W 5503  12.794  26.134  11.474
46408W        W 5504  43.273  21.617  13.024
46409W        W 5505  40.831  11.292  12.851
46410W        W 5506  13.309  43.882   0.778
46411W        W 5507  10.707  42.402   3.862
46412W        W 5508  29.048  14.785   2.671
46413W        W 5509   6.321  26.001   0.440
46414W        W 5510   1.740  38.416  12.471
46415W        W 5511  28.614  29.051   1.430
46416W        W 5512   3.909   7.345   3.359
46417W        W 5513  18.651   0.352   2.787
46418W        W 5514   5.883  22.227   2.408
46419W        W 5515  19.161  21.652  13.377
46420W        W 5516  35.939  30.647   1.850
46421W        W 5517   8.675  42.395   3.711
46422W        W 5518  18.060  15.751  13.501
46423W        W 5519  42.498   0.865   4.155
46424W        W 5520  20.626  34.380   4.819
46425W        W 5521  37.935  19.084   3.747
46426W        W 5522  29.459  20.590  11.083
46427W        W 5523  27.175   8.319   2.817
46428W        W 5524  23.116  10.315   2.826
46429W        W 5525  39.998  18.677   2.884
46430W        W 5526  26.474  44.358   1.754
46431W        W 5527  23.102  19.135   0.452
46432W        W 5528  36.419  36.384  13.995
46433W        W 5529  28.183  25.610  12.460
46434W        W 5530  32.411  18.772   0.382
46435W        W 5531   4.780  22.602   3.797
46436W        W 5532   8.676  25.165   0.742
46437W        W 5533  31.409  39.404   3.723
46438W        W 5534   4.402  25.048   0.873
46439W        W 5535  20.219  27.069   4.341
46440W        W 5536   6.246  33.419  13.909
46441W        W 5537  20.525  42.477   0.355
46442W        W 5538  33.106  35.589   2.724
46443W        W 5539  22.580   5.390   4.665
46444W        W 5540   8.292  14.800  11.860
46445W        W 5541  24.023  36.517   0.366
46446W        W 5542   0.933  36.477   1.339
46447W        W 5543  18.281  33.976  13.809
46448W        W 5544  12.195  16.264   2.681
46449W        W 5545  44.768   2.929   3.866
46450W        W 5546  12.704  36.963  11.434
46451W        W 5547  29.521  34.605  14.836
46452W        W 5548  30.445  21.083   1.843
46453W        W 5549  27.091   8.744  12.876
46454W        W 5550  17.625  25.206  14.853
46455W        W 5551  26.037  12.178   4.751
46456W        W 5552  35.586  16.224   0.799
46457W        W 5553  37.416   0.799   0.348
46458W        W 5554  17.190  14.805   4.247
46459W        W 5555   1.905  12.321   1.246
46460W        W 5556  29.598  28.045  10.613
46461W        W 5557  23.546  41.533  14.765
46462W        W 5558  32.635  12.669  13.407
46463W        W 5559  43.844  32.404  12.481
46464W        W 5560  28.587   6.247   1.841
46465W        W 5561  40.510   7.773   1.828
46466W        W 5562  37.967  10.713   3.768
46467W        W 5563  19.160  12.231  12.453
46468W        W 5564  17.778  26.537  12.055
46469W        W 5565  23.125  44.422  10.404
46470W        W 5566  32.435  23.163   0.878
46471W        W 5567  16.163  22.169   3.359
46472W        W 5568  31.920  29.590   3.158
46473W        W 5569   6.894  35.367   1.289
46474W        W 5570  31.147  18.772   3.290
46475W        W 5571   0.769  15.165  13.391
46476W        W 5572   9.670  12.677   0.444
46477W        W 5573  14.685  17.618   0.811
46478W        W 5574   8.315  10.176   0.765
46479W        W 5575  33.425  15.631   3.196
46480W        W 5576  26.023   2.363  14.467
46481W        W 5577  27.629  26.483  14.013
46482W        W 5578  40.916  28.170   1.279
46483W        W 5579  37.929   1.930  14.300
46484W        W 5580  28.510   6.704  11.434
46485W        W 5581   5.924  43.450  11.470
46486W        W 5582  39.432  44.349  13.803
46487W        W 5583  35.060  30.132  14.886
46488W        W 5584  33.428  18.218  14.464
46489W        W 5585   5.339  23.684   3.717
46490W        W 5586  16.255  30.444  12.006
46491W        W 5587  17.161  25.646   0.951
46492W        W 5588  31.562   5.904   2.257
46493W        W 5589   4.773   8.899   0.358
46494W        W 5590  22.719  23.174  10.031
46495W        W 5591  41.499  38.908  11.523
46496W        W 5592  38.503  13.824  13.525
46497W        W 5593  23.569  31.962  10.150
46498W        W 5594  12.808  14.173  12.086
46499W        W 5595  42.419  33.898  12.977
46500W        W 5596   3.744   1.893  10.643
46501W        W 5597   0.788  15.102   1.351
46502W        W 5598  30.030  33.505  14.515
46503W        W 5599   1.894  32.986   4.719
46504W        W 5600   0.916  17.759   2.346
46505W        W 5601   6.771  26.045   0.775
46506W        W 5602   3.954  18.553  10.563
46507W        W 5603  23.149  35.012  14.838
46508W        W 5604  44.334  10.728  10.087
46509W        W 5605  23.604  34.001   3.382
46510W        W 5606  22.051  28.956   0.886
46511W        W 5607  41.441   3.286   0.353
46512W        W 5608  14.640  12.137  13.455
46513W        W 5609  38.986  36.588  14.466
46514W        W 5610  21.093   8.730   3.856
46515W        W 5611  31.060  43.870  13.049
46516W        W 5612  43.295  33.550   3.791
46517W        W 5613   6.365  22.241   2.305
46518W        W 5614  38.565   7.343   4.241
46519W        W 5615  13.789   3.238  10.576
46520W        W 5616  14.203  36.071  10.938
46521W        W 5617  24.051  43.423  13.039
46522W        W 5618  10.269   5.293  12.056
46523W        W 5619  17.117  28.518  11.918
46524W        W 5620  43.312  17.741   0.320
46525W        W 5621   9.393  41.346   1.789
46526W        W 5622   3.940  18.746  13.880
46527W        W 5623  26.602  37.972  12.831
46528W        W 5624  42.831  38.338  14.784
46529W        W 5625  37.873   3.224   1.363
46530W        W 5626  42.801   6.756  12.947
46531W        W 5627   3.311   8.233   4.689
46532W        W 5628  17.269   5.228  12.007
46533W        W 5629   1.263   4.754   4.121
46534W        W 5630  21.533   2.252   3.698
46535W        W 5631  28.595   0.762   0.727
46536W        W 5632  44.350  16.227   0.353
46537W        W 5633  21.117   7.745  14.029
46538W        W 5634  42.500   1.876   0.305
46539W        W 5635  12.360  44.753   3.830
46540W        W 5636  36.030  41.942  14.779
46541W        W 5637  15.627   9.868  10.408
46542W        W 5638  26.602  35.972   0.467
46543W        W 5639  18.684  10.805  12.003
46544W        W 5640   5.209   6.378  11.121
46545W        W 5641  30.128  17.581   1.284
46546W        W 5642  21.575  33.075   1.249
46547W        W 5643  34.875  13.801  14.474
46548W        W 5644   6.711  42.285   1.806
46549W        W 5645  20.050   1.800  11.000
46550W        W 5646  33.476  44.889   0.805
46551W        W 5647  39.019   9.228  10.637
46552W        W 5648  12.238  26.636   1.405
46553W        W 5649  36.513  39.925  11.893
46554W        W 5650  33.936  32.998   2.280
46555W        W 5651   2.392  15.223  13.446
46556W        W 5652   7.908  37.468  14.361
46557W        W 5653  40.039   0.778   2.250
46558W        W 5654  16.697   4.261  10.943
46559W        W 5655  25.584   6.184  14.415
46560W        W 5656  16.794  10.732   2.356
46561W        W 5657  39.946  42.402   1.895
46562W        W 5658  24.211  30.101   1.285
46563W        W 5659   1.323  42.796   4.261
46564W        W 5660  22.122  43.430  11.461
46565W        W 5661  22.529  13.777  11.495
46566W        W 5662  27.517  34.398  11.509
46567W        W 5663  37.433   4.297   0.454
46568W        W 5664   2.266   9.671  12.368
46569W        W 5665   3.338  31.097   3.252
46570W        W 5666   3.746   2.737  14.277
46571W        W 5667  19.166  29.922   0.862
46572W        W 5668  38.413  27.465  14.285
46573W        W 5669  35.425  28.512  13.808
46574W        W 5670  24.185   9.766  13.498
46575W        W 5671  36.982   3.715  11.494
46576W        W 5672  36.496  27.098  12.037
46577W        W 5673  30.585  42.994  12.022
46578W        W 5674   4.698  25.516   5.270
46579W        W 5675  33.051  32.106  13.406
46580W        W 5676  14.805  33.571   4.722
46581W        W 5677   3.418   2.834   4.118
46582W        W 5678  29.468  18.749   0.437
46583W        W 5679  15.165  37.579   0.272
46584W        W 5680   3.803  10.356  11.936
46585W        W 5681  24.707  38.845   3.149
46586W        W 5682  30.117  18.126  12.068
46587W        W 5683  24.216   0.414   1.267
46588W        W 5684   0.423  24.499   3.750
46589W        W 5685   9.341  24.554   3.167
46590W        W 5686   7.355  36.912  11.983
46591W        W 5687  12.172   5.206  10.522
46592W        W 5688  21.683  33.004  10.983
46593W        W 5689   9.749  12.318  12.052
46594W        W 5690  41.880  26.677   3.283
46595W        W 5691  42.471  28.168   3.230
46596W        W 5692  19.074  39.019   0.355
46597W        W 5693  15.137   5.277   1.302
46598W        W 5694   0.805  28.516   0.368
46599W        W 5695  33.123  27.525  11.600
46600W        W 5696  14.767  32.978   4.157
46601W        W 5697  12.817   1.977  12.927
46602W        W 5698  26.125   6.761  14.950
46603W        W 5699   8.305  41.308  13.469
46604W        W 5700  23.080  17.086   0.838
46605W        W 5701   3.892  11.682  10.425
46606W        W 5702  33.903  21.745   4.785
46607W        W 5703  11.245  10.196  13.426
46608W        W 5704  25.155  11.765   2.665
46609W        W 5705   5.423  12.202   0.447
46610W        W 5706  37.058  40.883  10.492
46611W        W 5707   7.285  33.482  13.891
46612W        W 5708  18.070  27.184   2.892
46613W        W 5709  14.747  34.995  11.063
46614W        W 5710  18.189  33.113  12.948
46615W        W 5711   8.240   4.888  13.419
46616W        W 5712  43.392  44.969   2.394
46617W        W 5713  33.423  10.183   2.707
46618W        W 5714  21.612  42.300  11.389
46619W        W 5715  20.230  16.764   2.219
46620W        W 5716  30.620  19.684   2.178
46621W        W 5717  37.876  38.462  14.771
46622W        W 5718   9.316  40.336   3.684
46623W        W 5719  31.553   6.820   3.299
46624W        W 5720  34.986  24.013   3.331
46625W        W 5721  37.401  16.267   4.119
46626W        W 5722  17.065   6.845   3.864
46627W        W 5723  44.389  31.427   2.867
46628W        W 5724   9.251  18.134   3.317
46629W        W 5725  44.781   5.328   2.231
46630W        W 5726  30.946  13.690  13.336
46631W        W 5727  13.285  23.581   0.892
46632W        W 5728  11.834  25.159   4.616
46633W        W 5729  11.782  31.042  11.936
46634W        W 5730  24.160   1.303  13.915
46635W        W 5731  38.374  12.162  13.997
46636W        W 5732   6.353  22.009  12.472
46637W        W 5733  30.952   0.905   2.763
46638W        W 5734   4.252  40.858   0.851
46639W        W 5735  24.014   6.730  14.965
46640W        W 5736  14.732  14.638  10.915
46641W        W 5737  24.036  13.345   1.320
46642W        W 5738   4.846  28.978  11.568
46643W        W 5739   8.285   0.847   0.341
46644W        W 5740   7.360  18.145   1.375
46645W        W 5741  19.642  29.946   3.777
46646W        W 5742   8.252   9.149   4.321
46647W        W 5743  19.702   4.288  11.387
46648W        W 5744   1.791  25.594  10.577
46649W        W 5745  23.567  30.088   4.208
46650W        W 5746  24.024  18.087   0.883
46651W        W 5747   3.372  14.790  10.460
46652W        W 5748  28.159   6.344  11.863
46653W        W 5749   5.790   2.365  11.554
46654W        W 5750  17.566  36.442  11.545
46655W        W 5751  36.453  39.813   5.177
46656W        W 5752  23.631   5.915  11.860
46657W        W 5753  20.663   8.338   5.664
46658W        W 5754  39.888  30.559   3.743
46659W        W 5755  11.856  27.947   4.817
46660W        W 5756  28.175  11.237  13.019
46661W        W 5757  20.196  43.317  14.354
46662W        W 5758  33.547   2.799   5.088
46663W        W 5759  32.113  41.010  12.427
46664W        W 5760  36.414  33.931   0.323
46665W        W 5761  19.757   3.808  12.921
46666W        W 5762  25.487  25.206   9.988
46667W        W 5763  35.467  25.467  13.906
46668W        W 5764  13.251  24.166  13.421
46669W        W 5765  41.923  22.074   1.292
46670W        W 5766  38.009  17.646  11.129
46671W        W 5767  22.640  14.606  13.894
46672W        W 5768   0.363  13.823  10.943
46673W        W 5769  15.155  30.586  14.886
46674W        W 5770  11.749  39.036  11.076
46675W        W 5771  39.854  22.603   4.258
46676W        W 5772   5.380  35.103  14.512
46677W        W 5773  29.650  40.431  11.879
46678W        W 5774  34.080  25.578   1.874
46679W        W 5775  12.816  26.148  13.886
46680W        W 5776  26.176   0.789  14.409
46681W        W 5777  11.230   1.439  12.069
46682W        W 5778  18.286  25.710  12.086
46683W        W 5779  25.053  16.232  11.490
46684W        W 5780  17.096  38.969   3.365
46685W        W 5781  28.578  23.035  10.578
46686W        W 5782  26.956  23.089   2.887
46687W        W 5783  43.938  42.396   0.251
46688W        W 5784  17.128  31.620  13.877
46689W        W 5785  18.275  11.159   2.383
46690W        W 5786  29.569  26.645   1.343
46691W        W 5787  25.968  28.571   4.642
46692W        W 5788  13.721  10.727  14.481
46693W        W 5789  21.168  26.176  10.490
46694W        W 5790  20.045  16.590   4.757
46695W        W 5791  19.613   4.825   2.337
46696W        W 5792  26.623  36.868  13.840
46697W        W 5793   8.320  22.040   3.234
46698W        W 5794  12.650  12.694  12.001
46699W        W 5795  17.226  15.314  10.038
46700W        W 5796   6.212  24.980  11.892
46701W        W 5797  40.008  35.597   1.787
46702W        W 5798  31.531  31.999  10.959
46703W        W 5799   2.399  38.827   1.372
46704W        W 5800  34.538  21.548   0.258
46705W        W 5801  42.307  34.417  12.462
46706W        W 5802  39.814  20.646  14.340
46707W        W 5803   9.183   6.880   1.903
46708W        W 5804  27.608  39.978  10.476
46709W        W 5805  34.521  27.194  11.580
46710W        W 5806  30.596  34.082  10.564
46711W        W 5807   6.235   9.871  12.067
46712W        W 5808  19.588  16.200  14.426
46713W        W 5809  40.375  22.524   3.187
46714W        W 5810  35.359  15.091   1.932
46715W        W 5811  15.167  29.986  12.577
46716W        W 5812   0.406  39.432   0.393
46717W        W 5813  38.328  12.338   4.141
46718W        W 5814   9.865  40.463  12.545
46719W        W 5815  32.129  21.699   3.214
46720W        W 5816  34.408  19.161   0.260
46721W        W 5817  13.283  42.449  10.461
46722W        W 5818  19.568  25.541  13.833
46723W        W 5819  36.368  31.613  12.833
46724W        W 5820   2.807  42.850   1.756
46725W        W 5821  25.510  11.826  13.423
46726W        W 5822  18.743   5.199  11.558
46727W        W 5823   6.731   3.835  14.786
46728W        W 5824  23.514  36.454  14.367
46729W        W 5825  33.116  24.217  13.942
46730W        W 5826  37.518  27.499  14.991
46731W        W 5827  18.625   2.950  10.910
46732W        W 5828  15.125  30.111  12.948
46733W        W 5829  28.961   5.784  11.423
46734W        W 5830   2.945   1.754  14.825
46735W        W 5831  19.143  27.031  11.904
46736W        W 5832   6.240  11.849   1.724
46737W        W 5833  31.911  21.038  12.476
46738W        W 5834  41.294  20.051   0.809
46739W        W 5835   8.742   9.819   2.843
46740W        W 5836  21.047  17.145   2.278
46741W        W 5837   1.946   2.376  10.586
46742W        W 5838  15.205   2.391   3.728
46743W        W 5839  29.949  40.440  13.841
46744W        W 5840  30.553   1.909   1.249
46745W        W 5841  27.127  42.409   2.760
46746W        W 5842  10.247   6.874  10.641
46747W        W 5843  17.150  23.608  11.584
46748W        W 5844  36.982  16.719   2.247
46749W        W 5845  33.110   4.797  12.428
46750W        W 5846  10.791  10.848   3.251
46751W        W 5847   1.409  34.607  12.001
46752W        W 5848  38.057  15.639  10.986
46753W        W 5849  30.416  23.734   2.684
46754W        W 5850  31.601  42.522  13.373
46755W        W 5851  43.014  42.027   4.126
46756W        W 5852  35.422  16.201   0.424
46757W        W 5853   6.305  31.048   3.269
46758W        W 5854  38.067  25.693  11.516
46759W        W 5855  16.702  41.510   3.866
46760W        W 5856  19.732   5.819  10.638
46761W        W 5857  31.923  21.681  13.902
46762W        W 5858  21.624  11.657   1.706
46763W        W 5859  25.586   4.879  13.853
46764W        W 5860  14.099  18.769   0.325
46765W        W 5861   1.802  35.512  12.349
46766W        W 5862  30.630   9.233  12.407
46767W        W 5863  13.348  11.753  13.960
46768W        W 5864  31.434  31.062  11.089
46769W        W 5865   2.944   5.429  12.986
46770W        W 5866  34.895  23.088  12.902
46771W        W 5867  19.136  39.818   4.658
46772W        W 5868   5.201  22.111  14.856
46773W        W 5869  40.813  43.884   3.680
46774W        W 5870  11.315  27.183  12.951
46775W        W 5871   1.839  13.217   3.825
46776W        W 5872  32.087  42.902  12.389
46777W        W 5873  35.059  39.405  14.826
46778W        W 5874   5.836  18.575  12.353
46779W        W 5875  24.707  32.032  13.021
46780W        W 5876  18.767  32.522  14.977
46781W        W 5877  42.300  32.512  11.990
46782W        W 5878  39.519  11.236  13.462
46783W        W 5879  19.198  40.902  11.067
46784W        W 5880  33.467  19.770  12.044
46785W        W 5881   2.468  40.873  12.828
46786W        W 5882  19.627  31.981   3.237
46787W        W 5883   4.409   2.858  13.399
46788W        W 5884  21.149   7.896  12.059
46789W        W 5885  26.167   7.772   1.804
46790W        W 5886  15.083  39.523   0.923
46791W        W 5887  19.771  42.513   2.758
46792W        W 5888  21.679  25.488  13.926
46793W        W 5889   2.304   2.767   1.746
46794W        W 5890  20.676   2.455   3.252
46795W        W 5891  33.444  18.109  13.531
46796W        W 5892  24.501  31.929   4.696
46797W        W 5893  33.456  15.273   9.489
46798W        W 5894  24.025  40.437  14.842
46799W        W 5895  20.609   3.882   2.293
46800W        W 5896  39.954   7.727   9.957
46801W        W 5897   6.709  41.842   2.368
46802W        W 5898   8.740  29.016   1.311
46803W        W 5899  10.788  12.116  14.508
46804W        W 5900  27.184  28.473   2.239
46805W        W 5901  29.558  36.039   1.402
46806W        W 5902  29.971  25.053  10.596
46807W        W 5903  13.106  15.649   1.406
46808W        W 5904  11.845  23.170  14.321
46809W        W 5905  37.571  19.544  12.574
46810W        W 5906  30.071  32.562   3.829
46811W        W 5907  44.777  43.503   2.297
46812W        W 5908  14.832  22.226   0.816
46813W        W 5909  23.015   6.291  14.890
46814W        W 5910   5.226  33.545   4.183
46815W        W 5911  42.997  21.728   3.793
46816W        W 5912  42.431  23.693   3.361
46817W        W 5913  41.303  23.234  13.511
46818W        W 5914   5.799  39.983  13.400
46819W        W 5915  40.940  18.195  10.622
46820W        W 5916  14.143   8.252  14.938
46821W        W 5917  13.659  43.468   1.911
46822W        W 5918   1.348  34.424  13.956
46823W        W 5919   1.414  32.628   1.254
46824W        W 5920   6.187  31.511  14.449
46825W        W 5921  28.936  43.353   4.187
46826W        W 5922  36.047  30.443   2.218
46827W        W 5923  44.981  24.111  14.957
46828W        W 5924   6.734  27.477  11.556
46829W        W 5925  25.992  42.958  12.996
46830W        W 5926  27.562  18.119  10.549
46831W        W 5927   2.927  44.774   0.461
46832W        W 5928  19.111  32.954  11.964
46833W        W 5929  41.301  25.587   2.734
46834W        W 5930  11.136  36.045  12.380
46835W        W 5931  21.754   3.247  10.477
46836W        W 5932   1.731   0.931  13.312
46837W        W 5933  24.630  14.118   1.734
46838W        W 5934   1.745   8.400   1.757
46839W        W 5935  20.573  36.361  10.133
46840W        W 5936  32.629   6.866   1.727
46841W        W 5937  32.429  13.613   2.818
46842W        W 5938  18.761  37.040   0.936
46843W        W 5939   2.260  34.881   3.258
46844W        W 5940  30.651  25.013  13.958
46845W        W 5941  29.060  12.209   3.758
46846W        W 5942  31.595   8.689   1.288
46847W        W 5943  13.328  14.162  14.331
46848W        W 5944  20.245  17.282   2.180
46849W        W 5945  32.567  18.546   2.253
46850W        W 5946   4.378  36.557   2.371
46851W        W 5947  43.484  39.809   2.707
46852W        W 5948   4.273  10.753   0.842
46853W        W 5949  42.782  28.536  13.978
46854W        W 5950  23.085   5.811  11.592
46855W        W 5951  26.185  17.176   3.261
46856W        W 5952  32.894  33.398  12.396
46857W        W 5953  38.445  19.220   3.306
46858W        W 5954  23.022  26.128  10.945
46859W        W 5955  38.571  15.629   3.184
46860W        W 5956  25.689   9.644   4.635
46861W        W 5957  14.219  22.099   3.315
46862W        W 5958  28.107  23.143   2.891
46863W        W 5959  24.985  34.915   2.248
46864W        W 5960   2.761   3.276  10.073
46865W        W 5961  22.665  44.771   3.631
46866W        W 5962  19.607  27.046   2.800
46867W        W 5963  11.834   8.774   2.700
46868W        W 5964  28.656  15.156  11.093
46869W        W 5965   4.308   9.258   1.836
46870W        W 5966   8.316   2.784   0.939
46871W        W 5967  24.054  44.833   0.461
46872W        W 5968  12.260   3.305  11.943
46873W        W 5969  16.743   1.304  10.612
46874W        W 5970  35.913  35.436   2.328
46875W        W 5971   5.728  20.551   1.451
46876W        W 5972  34.548   6.361   3.645
46877W        W 5973  16.774  26.126   2.179
46878W        W 5974  32.061   1.883  12.026
46879W        W 5975  44.944  36.898   2.339
46880W        W 5976  43.866  10.235  11.552
46881W        W 5977  44.372  30.932  14.300
46882W        W 5978   5.806  16.714   3.350
46883W        W 5979  24.586  22.697   3.733
46884W        W 5980  44.906  19.082   3.816
46885W        W 5981  15.739  16.657  10.060
46886W        W 5982  40.811  13.612  11.051
46887W        W 5983   9.258  44.866   4.632
46888W        W 5984  36.927  25.481  11.446
46889W        W 5985   7.367   5.241   2.340
46890W        W 5986  22.141  13.774  11.073
46891W        W 5987  22.584  24.525  12.937
46892W        W 5988   2.230  41.424   3.311
46893W        W 5989   3.931  39.461   0.309
46894W        W 5990  22.659  31.507   0.289
46895W        W 5991  44.258  14.830   3.260
46896W        W 5992  43.410  17.563   3.820
46897W        W 5993  38.018   7.827  11.543
46898W        W 5994  30.992  20.090  13.813
46899W        W 5995  26.077   8.207  10.927
46900W        W 5996  27.503  14.237   2.378
46901W        W 5997  14.153  12.661   4.277
46902W        W 5998  11.646  42.963  14.428
46903W        W 5999   2.368  42.960   0.440
46904W        W 6000  23.665   8.684  14.780
46905W        W 6001  10.355  16.094   2.402
46906W        W 6002  35.100  16.315   1.805
46907W        W 6003  25.481  31.071  11.458
46908W        W 6004  15.121  28.934  14.335
46909W        W 6005   4.713   2.765  14.997
46910W        W 6006   4.387   7.844  12.460
46911W        W 6007  35.060  26.636  13.042
46912W        W 6008  13.143  25.686  13.059
46913W        W 6009  42.789  17.126  12.895
46914W        W 6010  39.371  23.096   4.343
46915W        W 6011  12.735   0.494  14.928
46916W        W 6012  19.168  42.521  12.842
46917W        W 6013   2.836  11.709  12.505
46918W        W 6014  44.313  29.049   3.630
46919W        W 6015  11.662  31.506  13.848
46920W        W 6016  33.449   9.646  12.896
46921W        W 6017  18.157  10.853  11.985
46922W        W 6018   6.851  12.651  11.107
46923W        W 6019  20.219  29.512  13.431
46924W        W 6020   2.915   9.242  10.636
46925W        W 6021  25.197   6.786  12.095
46926W        W 6022  27.653   8.816   3.796
46927W        W 6023  37.412  28.094   2.690
46928W        W 6024  38.537  34.497   1.867
46929W        W 6025  11.630  39.011   2.383
46930W        W 6026  20.652  30.433  14.392
46931W        W 6027  24.973  42.881  11.980
46932W        W 6028  35.443  28.067  14.951
46933W        W 6029  26.132  16.658  11.932
46934W        W 6030  24.702   8.345   4.270
46935W        W 6031   1.929   0.317   1.918
46936W        W 6032  16.196  22.642   2.743
46937W        W 6033  37.563  23.195   3.368
46938W        W 6034  15.789  44.757   0.266
46939W        W 6035   4.228  34.100   3.636
46940W        W 6036  31.050  41.002   4.789
46941W        W 6037  36.085  29.605   3.828
46942W        W 6038   7.910  10.674   4.118
46943W        W 6039  18.286  27.029  12.518
46944W        W 6040  32.454   4.399  12.499
46945W        W 6041  12.272   9.197  14.387
46946W        W 6042   9.808  35.521   2.795
46947W        W 6043  10.672   1.752   3.741
46948W        W 6044  25.683  28.672   4.335
46949W        W 6045  25.166  22.507  13.947
46950W        W 6046  33.560  35.551  11.923
46951W        W 6047   3.318   1.914   1.779
46952W        W 6048  20.644  26.974  14.836
46953W        W 6049  15.687  39.321  11.096
46954W        W 6050   2.380  29.008  10.552
46955W        W 6051  24.571  36.097   1.355
46956W        W 6052  15.590  20.579   4.181
46957W        W 6053  27.456  20.269   0.447
46958W        W 6054  19.201  43.899  10.617
46959W        W 6055  36.437  18.603   2.303
46960W        W 6056   1.376   9.833   3.267
46961W        W 6057  41.486  15.272   1.402
46962W        W 6058  30.110  29.622  14.857
46963W        W 6059   0.422  36.375   4.775
46964W        W 6060  32.067  40.903   4.801
46965W        W 6061  13.106   1.381  10.963
46966W        W 6062  17.225  34.505  13.980
46967W        W 6063  18.748  42.994   3.185
46968W        W 6064  14.247  22.501   2.698
46969W        W 6065  23.068   2.392   2.410
46970W        W 6066  43.996  43.893  12.962
46971W        W 6067  41.487   7.349   1.260
46972W        W 6068  25.531  12.726   2.403
46973W        W 6069  18.718   5.295  12.983
46974W        W 6070  16.686   4.365  13.415
46975W        W 6071  43.420  25.685   3.691
46976W        W 6072  26.969   0.483  12.410
46977W        W 6073   9.270  15.098   1.899
46978W        W 6074   8.173   9.221  12.505
46979W        W 6075  11.235  24.088  14.444
46980W        W 6076  36.967  34.917   0.322
46981W        W 6077  39.841   6.209   4.319
46982W        W 6078  18.111  21.198   3.366
46983W        W 6079  44.297  42.377   1.269
46984W        W 6080  23.506  10.183   4.189
46985W        W 6081  38.328  26.613   1.294
46986W        W 6082  31.544  30.558  12.356
46987W        W 6083  15.204  44.355   1.391
46988W        W 6084   1.867  38.361   0.772
46989W        W 6085  23.494  38.515   4.712
46990W        W 6086  18.098  27.511   3.736
46991W        W 6087  16.257  22.669   3.349
46992W        W 6088  33.471  36.063  13.997
46993W        W 6089  10.809  21.121  11.929
46994W        W 6090  16.657  30.423  13.046
46995W        W 6091  15.581  42.303   1.339
46996W        W 6092  40.351  21.025   3.223
46997W        W 6093  18.642  31.084  11.418
46998W        W 6094  33.980   0.752   1.792
46999W        W 6095   2.948  24.706   3.234
47000W        W 6096   5.881  40.851   4.666
47001W        W 6097  30.419  27.032  13.385
47002W        W 6098  22.601   8.676  11.405
47003W        W 6099  26.593   0.438  13.938
47004W        W 6100  23.141  30.097  11.871
47005W        W 6101  44.259  33.382   4.297
47006W        W 6102   0.819  17.212  13.492
47007W        W 6103   8.204  14.723   1.728
47008W        W 6104  19.777  37.051   1.394
47009W        W 6105  20.155   4.909   4.776
47010W        W 6106   2.739  32.139   2.188
47011W        W 6107  33.976   6.918   1.299
47012W        W 6108  21.649  12.678   5.120
47013W        W 6109  29.013  31.484   1.255
47014W        W 6110  18.765  23.185  14.829
47015W        W 6111  30.908  35.545   3.823
47016W        W 6112  40.356  16.242   0.769
47017W        W 6113  34.410  43.932   3.279
47018W        W 6114  10.843  36.532   2.293
47019W        W 6115  24.551   5.799  13.383
47020W        W 6116  20.137  41.409   0.887
47021W        W 6117   5.795  30.082  14.406
47022W        W 6118  16.142  43.977  13.547
47023W        W 6119  29.998  13.317   3.721
47024W        W 6120  40.372  22.014  12.034
47025W        W 6121  43.826  22.120   2.781
47026W        W 6122   0.251   3.938   0.243
47027W        W 6123  39.028  23.177   3.670
47028W        W 6124  23.158  36.847   5.087
47029W        W 6125  37.077   8.197  10.111
47030W        W 6126  27.002  12.698   0.818
47031W        W 6127   6.292  31.014  11.921
47032W        W 6128  44.904  33.538   3.831
47033W        W 6129  38.342  34.414   3.756
47034W        W 6130   1.814  32.043  14.364
47035W        W 6131  33.916  36.593  10.900
47036W        W 6132  24.178  15.823  14.847
47037W        W 6133   8.725   3.218  11.581
47038W        W 6134  19.088  37.550  14.998
47039W        W 6135  30.585   3.724   3.324
47040W        W 6136  18.658  34.954  13.047
47041W        W 6137  41.344  33.605   4.680
47042W        W 6138  30.615  33.449   3.337
47043W        W 6139   4.240  20.175  11.590
47044W        W 6140  31.943   5.853   4.122
47045W        W 6141   0.853  14.799   1.844
47046W        W 6142  23.997  13.604  13.829
47047W        W 6143   8.199  42.945  14.822
47048W        W 6144   1.277  36.999   2.753
47049W        W 6145  17.625  44.390  11.521
47050W        W 6146  26.640  17.685  12.499
47051W        W 6147  32.420  28.175   2.701
47052W        W 6148  12.750  17.121  14.857
47053W        W 6149  41.502  26.616  11.124
47054W        W 6150  43.808  25.713   1.698
47055W        W 6151  39.438  12.162   3.789
47056W        W 6152  23.730   0.763   3.364
47057W        W 6153   8.859   0.838  13.844
47058W        W 6154  17.760  35.950  11.874
47059W        W 6155   1.276  17.260  13.387
47060W        W 6156  32.472  33.984   4.257
47061W        W 6157  16.165   1.900  13.993
47062W        W 6158  42.858  16.636   1.704
47063W        W 6159  12.789  32.517   1.213
47064W        W 6160   9.297   8.402  11.021
47065W        W 6161  13.230  11.190  13.463
47066W        W 6162   0.933  44.933  11.882
47067W        W 6163  12.246  32.915  12.851
47068W        W 6164  10.176  22.582   1.401
47069W        W 6165   1.382  14.141  11.380
47070W        W 6166   6.310  34.576   0.815
47071W        W 6167  41.984   4.392  14.000
47072W        W 6168  43.887  39.010  13.991
47073W        W 6169   1.941   2.763   4.617
47074W        W 6170  42.845  28.175   0.765
47075W        W 6171   5.358   0.427  10.630
47076W        W 6172  23.557   7.671  12.058
47077W        W 6173  34.461  24.578  11.581
47078W        W 6174   0.816  30.117  12.481
47079W        W 6175   2.909   2.849  11.596
47080W        W 6176   2.459  41.847  11.507
47081W        W 6177  19.173  27.083   4.672
47082W        W 6178  36.975  22.535  13.845
47083W        W 6179   6.362  37.867   2.680
47084W        W 6180  25.057  32.471   3.694
47085W        W 6181  23.153  40.002  10.444
47086W        W 6182  42.885  34.480   0.267
47087W        W 6183  17.687  20.698   4.607
47088W        W 6184  34.007  12.691  11.977
47089W        W 6185  18.779   5.291  14.975
47090W        W 6186  23.573  26.011  11.055
47091W        W 6187  13.332   9.332  12.897
47092W        W 6188  15.193   1.239  14.355
47093W        W 6189   2.913  33.513   4.351
47094W        W 6190  19.249  22.021  13.039
47095W        W 6191  25.133   9.370   0.243
47096W        W 6192  29.534  20.660   4.621
47097W        W 6193   4.297  39.919  13.499
47098W        W 6194  28.090  13.126  12.346
47099W        W 6195   6.303  24.533  11.077
47100W        W 6196  25.130  15.155  13.313
47101W        W 6197  42.929   9.386   4.638
47102W        W 6198  31.031  16.110   2.877
47103W        W 6199  37.061  10.187   1.275
47104W        W 6200  38.835  31.519   4.621
47105W        W 6201  21.707  18.758  10.928
47106W        W 6202  26.619  26.589  11.862
47107W        W 6203  20.726  13.202  11.924
47108W        W 6204  29.575  12.187  14.283
47109W        W 6205  18.680   4.726  11.941
47110W        W 6206   7.726  44.887  13.816
47111W        W 6207  31.527  40.334   3.346
47112W        W 6208  32.028  38.389  11.968
47113W        W 6209  35.889  27.513   4.335
47114W        W 6210   2.331  16.624   1.856
47115W        W 6211  17.173  19.713  12.405
47116W        W 6212  44.310  31.472  11.903
47117W        W 6213  30.978  41.896  14.797
47118W        W 6214  41.003   8.270  14.510
47119W        W 6215  22.648  32.526   0.807
47120W        W 6216  35.997  14.245   2.417
47121W        W 6217  30.909   9.229   4.196
47122W        W 6218  14.126  36.896   1.803
47123W        W 6219  19.073  40.473  13.035
47124W        W 6220  10.680  30.592  12.350
47125W        W 6221   7.226  42.362   3.169
47126W        W 6222  12.153  32.626   0.461
47127W        W 6223  33.885  39.876  12.897
47128W        W 6224  12.337  10.292   3.752
47129W        W 6225  39.934  35.898  11.529
47130W        W 6226   0.290   1.812  14.946
47131W        W 6227  42.997  15.610   4.169
47132W        W 6228  13.723  18.686  10.146
47133W        W 6229  39.059  40.519  13.521
47134W        W 6230  42.829  32.527  12.992
47135W        W 6231   4.406  40.866   1.848
47136W        W 6232   4.269  40.817  13.839
47137W        W 6233  37.993  37.844   0.411
47138W        W 6234  20.074  26.591   2.893
47139W        W 6235   6.232   2.933   0.300
47140W        W 6236  25.026   2.290   3.279
47141W        W 6237   5.895  20.170   4.769
47142W        W 6238  27.518  31.984  12.546
47143W        W 6239  43.301  34.613   2.270
47144W        W 6240  28.579   6.396  14.772
47145W        W 6241  39.515  21.090  14.870
47146W        W 6242  35.588  21.244   1.783
47147W        W 6243  19.736  17.752   4.781
47148W        W 6244  39.834  22.216  11.856
47149W        W 6245   6.206  41.957  14.848
47150W        W 6246   8.179   7.814   3.267
47151W        W 6247   4.246  26.563   2.789
47152W        W 6248  14.216  17.700   1.314
47153W        W 6249  32.512  43.933   2.185
47154W        W 6250  16.149  39.939  14.823
47155W        W 6251   6.341  32.417  14.359
47156W        W 6252  22.738  16.714  14.297
47157W        W 6253  17.224  34.424  12.423
47158W        W 6254  36.094  37.440  13.056
47159W        W 6255   2.834  27.177  13.848
47160W        W 6256  29.587  28.930  10.537
47161W        W 6257  41.459   6.686   2.282
47162W        W 6258   2.428  32.634   4.711
47163W        W 6259  23.601  10.718  11.505
47164W        W 6260   8.296  37.452   1.841
47165W        W 6261  31.519  24.483   1.926
47166W        W 6262  36.449  19.770   3.289
47167W        W 6263  33.014  44.281  14.275
47168W        W 6264  28.121   2.966  14.872
47169W        W 6265  25.672  16.702   4.196
47170W        W 6266  18.600  23.219  14.454
47171W        W 6267  41.866  44.355  11.534
47172W        W 6268  24.149  33.416   4.141
47173W        W 6269  30.545  35.535   0.895
47174W        W 6270  22.192  19.561  13.397
47175W        W 6271   8.836  40.316   4.601
47176W        W 6272  22.181  43.377  10.946
47177W        W 6273  30.965  27.610   1.330
47178W        W 6274  31.597  19.053  14.953
47179W        W 6275  24.599   4.370  12.919
47180W        W 6276  26.979  24.517  12.521
47181W        W 6277  20.158  44.294   4.193
47182W        W 6278  39.864  12.171   1.807
47183W        W 6279  43.407  17.158   0.942
47184W        W 6280  25.023  34.555  11.460
47185W        W 6281  26.700  44.956  12.345
47186W        W 6282  33.401  43.449   3.174
47187W        W 6283   0.891  25.083   5.132
47188W        W 6284  18.091  16.756   4.143
47189W        W 6285  13.300  33.465   2.376
47190W        W 6286  15.289   6.701   2.361
47191W        W 6287  21.726  11.843  10.002
47192W        W 6288  23.718  34.925   2.240
47193W        W 6289  20.573  40.049   2.731
47194W        W 6290  27.946  13.177  13.811
47195W        W 6291   2.327  14.107   2.888
47196W        W 6292  32.614  41.294   5.166
47197W        W 6293  25.605  25.564  12.860
47198W        W 6294  11.709  28.027   2.204
47199W        W 6295  28.606  36.911   0.406
47200W        W 6296   3.321   8.162   0.786
47201W        W 6297  18.769  13.240   1.817
47202W        W 6298  10.208  41.826  10.556
47203W        W 6299  36.372   3.860   2.379
47204W        W 6300  16.627  43.794   3.267
47205W        W 6301  17.116  42.359  10.587
47206W        W 6302  34.047  31.462  13.054
47207W        W 6303  25.492   9.679  12.924
47208W        W 6304  20.231  16.808  13.374
47209W        W 6305  24.005  33.091  13.453
47210W        W 6306  18.093  22.736  12.516
47211W        W 6307   6.781  18.244   1.407
47212W        W 6308  36.857  29.921  13.904
47213W        W 6309  34.609   6.228  10.621
47214W        W 6310   7.300  42.944   1.224
47215W        W 6311  40.849  22.102   0.255
47216W        W 6312  41.401  16.608  14.809
47217W        W 6313  41.311   3.293   3.843
47218W        W 6314  34.094  33.998  12.960
47219W        W 6315   6.275  22.161   2.862
47220W        W 6316  17.147  26.028   2.682
47221W        W 6317  18.555  12.159   2.382
47222W        W 6318  27.056  21.756   2.277
47223W        W 6319  44.490   3.864   0.902
47224W        W 6320  13.647  34.497  13.505
47225W        W 6321  21.184  17.167   2.680
47226W        W 6322   9.851  26.144   0.421
47227W        W 6323  38.072   9.172   9.607
47228W        W 6324  25.507  27.609  14.451
47229W        W 6325   0.875  43.373  13.831
47230W        W 6326  38.979  38.044   4.189
47231W        W 6327  11.846  11.210   4.206
47232W        W 6328   6.689   9.815   2.779
47233W        W 6329   8.382   3.216   0.289
47234W        W 6330  32.061   8.899   1.375
47235W        W 6331   0.848  35.932   3.765
47236W        W 6332  27.080  10.796  13.969
47237W        W 6333  23.233  36.371   0.461
47238W        W 6334   4.438  23.188   3.788
47239W        W 6335  25.977  23.030   0.281
47240W        W 6336  38.478  36.445   2.797
47241W        W 6337  40.916  22.680   1.417
47242W        W 6338  31.081   2.287   1.930
47243W        W 6339  27.659  43.498   0.269
47244W        W 6340   9.732  38.904  11.107
47245W        W 6341  19.065  25.065   0.859
47246W        W 6342  30.986   4.748   3.372
47247W        W 6343   9.738  26.060  12.358
47248W        W 6344  22.651  20.523  12.018
47249W        W 6345  20.578  35.109  11.107
47250W        W 6346  44.290   5.337   2.808
47251W        W 6347  35.499  22.115  13.446
47252W        W 6348  41.876   1.783  14.377
47253W        W 6349  29.588  16.232  13.484
47254W        W 6350   9.356  40.863  10.483
47255W        W 6351  15.762   0.455   1.888
47256W        W 6352  31.586   2.445  13.045
47257W        W 6353  37.529  40.945   0.740
47258W        W 6354  24.552  35.407   1.910
47259W        W 6355  25.644  16.229   1.882
47260W        W 6356  32.912  25.108  11.891
47261W        W 6357  44.291   2.279  10.927
47262W        W 6358  11.345  17.794   3.734
47263W        W 6359  31.066   6.818   4.342
47264W        W 6360  23.553  37.970  11.964
47265W        W 6361  21.651  24.038  12.443
47266W        W 6362   6.728   6.920   3.785
47267W        W 6363  18.252  21.108  13.460
47268W        W 6364  20.657  13.635   0.959
47269W        W 6365  11.335  44.266  14.015
47270W        W 6366   7.781  17.168  12.003
47271W        W 6367  15.306  25.641   4.804
47272W        W 6368   2.265  16.252   3.269
47273W        W 6369   0.805  23.680  10.019
47274W        W 6370  34.071  35.086  13.357
47275W        W 6371  12.810  44.788   0.471
47276W        W 6372  27.945  19.761  14.324
47277W        W 6373  27.635  22.638   1.253
47278W        W 6374   0.404  38.435  13.472
47279W        W 6375   7.764  28.077   9.613
47280W        W 6376  37.514  29.008  10.912
47281W        W 6377   9.763  38.383  14.935
47282W        W 6378  13.200  33.032  13.905
47283W        W 6379  18.171  17.210   0.827
47284W        W 6380  27.991  23.674  11.462
47285W        W 6381  21.018   9.746   3.838
47286W        W 6382   1.453   4.257   1.244
47287W        W 6383  42.957   5.211   3.803
47288W        W 6384  31.645  23.601   5.206
47289W        W 6385  28.533  19.155   4.146
47290W        W 6386   7.191   9.394  11.875
47291W        W 6387   7.727  24.154  13.509
47292W        W 6388   1.839  19.276  11.941
47293W        W 6389  24.131  14.798   2.296
47294W        W 6390  26.537  38.059  12.537
47295W        W 6391  39.983  22.177   4.238
47296W        W 6392  32.596  40.418   0.313
47297W        W 6393   4.801  29.118  10.610
47298W        W 6394  38.068  34.592   1.842
47299W        W 6395  10.235   1.433  10.936
47300W        W 6396   8.167  22.629   3.187
47301W        W 6397  12.652   0.940   1.871
47302W        W 6398  44.289  21.087   3.748
47303W        W 6399  44.953  42.007  13.051
47304W        W 6400   8.819  32.411   3.206
47305W        W 6401   9.679  24.693  13.388
47306W        W 6402  43.839   3.450   0.420
47307W        W 6403  27.007  41.393   2.342
47308W        W 6404  13.808  41.012   0.757
47309W        W 6405  27.004  44.859  14.002
47310W        W 6406  15.297   7.286  12.918
47311W        W 6407  40.836  27.004  12.044
47312W        W 6408  31.618  29.103  13.860
47313W        W 6409  22.154   1.308  13.874
47314W        W 6410  14.338   9.776  14.831
47315W        W 6411  26.612  26.688  13.798
47316W        W 6412  12.699  32.101   1.728
47317W        W 6413  17.238  33.997   4.603
47318W        W 6414  16.785  40.430  13.941
47319W        W 6415  33.957  20.656   0.908
47320W        W 6416   8.706   4.740  14.936
47321W        W 6417  13.626  29.548   3.322
47322W        W 6418  15.781  18.747  10.438
47323W        W 6419  29.117  35.984  14.895
47324W        W 6420  10.677  17.204  12.435
47325W        W 6421  33.580  18.097  10.624
47326W        W 6422   9.185  27.530  14.890
47327W        W 6423  41.948  25.506  13.447
47328W        W 6424  24.520  39.974  13.334
47329W        W 6425  30.507  34.378  10.611
47330W        W 6426   0.364  39.368   0.895
47331W        W 6427  15.603   5.380  11.410
47332W        W 6428  43.506  40.828  13.320
47333W        W 6429   7.326  32.030   0.737
47334W        W 6430  33.404  30.023   2.368
47335W        W 6431   1.741  33.454  10.947
47336W        W 6432  18.555  44.349   4.342
47337W        W 6433   8.881  21.561   2.405
47338W        W 6434  37.950  41.477  11.092
47339W        W 6435  30.016  40.987   2.710
47340W        W 6436  34.973  38.995   3.819
47341W        W 6437  11.149  14.310   1.298
47342W        W 6438   8.339  23.537  12.475
47343W        W 6439  41.347  15.168   0.256
47344W        W 6440  34.025  19.728  13.861
47345W        W 6441   6.684  32.498   4.119
47346W        W 6442   4.441  30.502   3.249
47347W        W 6443  10.759  36.575   4.600
47348W        W 6444  38.420  29.050   0.876
47349W        W 6445   6.219   9.884   0.798
47350W        W 6446   0.967  28.650   2.416
47351W        W 6447  43.344  38.376   4.225
47352W        W 6448  35.384   7.800  14.333
47353W        W 6449  30.124  28.559   4.326
47354W        W 6450   0.393  15.177  14.308
47355W        W 6451  36.940  11.704  11.118
47356W        W 6452  15.311  31.513   1.793
47357W        W 6453  41.450  42.920  13.359
47358W        W 6454  22.168  22.073   0.354
47359W        W 6455  15.801  13.121  11.492
47360W        W 6456  17.220  28.161  10.906
47361W        W 6457  43.839   2.306  12.890
47362W        W 6458  26.148  41.512   1.386
47363W        W 6459   7.280  15.788  14.857
47364W        W 6460   3.729  19.771   1.783
47365W        W 6461  41.867  37.434   0.911
47366W        W 6462  39.810   6.378  13.955
47367W        W 6463  35.003  33.612   4.130
47368W        W 6464   7.772  23.584   0.966
47369W        W 6465  30.939  16.291  14.764
47370W        W 6466  27.495   3.390   4.179
47371W        W 6467  16.741  14.221   2.206
47372W        W 6468   7.293   0.770  11.063
47373W        W 6469  40.461   2.958  13.935
47374W        W 6470  35.884  16.707  10.099
47375W        W 6471  23.552   5.727  12.988
47376W        W 6472   0.895  28.473   2.860
47377W        W 6473   2.318  18.290   3.790
47378W        W 6474   7.672  11.840   1.862
47379W        W 6475   9.676  35.065  11.524
47380W        W 6476  19.738  38.853  11.023
47381W        W 6477  42.343  14.265  11.967
47382W        W 6478  40.448   4.750   0.326
47383W        W 6479   5.224   0.977   3.809
47384W        W 6480  37.009   1.294  10.921
47385W        W 6481  31.048  15.719   9.511
47386W        W 6482  40.880   4.818   1.232
47387W        W 6483  18.207   3.814  13.042
47388W        W 6484  12.209   4.770  13.321
47389W        W 6485  22.042  30.093  13.439
47390W        W 6486  37.909   3.227  14.012
47391W        W 6487  32.404  23.559   3.789
47392W        W 6488  40.986  32.543  13.398
47393W        W 6489  38.862  10.709   2.681
47394W        W 6490   8.373  12.677  11.984
47395W        W 6491  14.207  42.453   1.758
47396W        W 6492   6.407   2.228  14.403
47397W        W 6493  22.226  21.683   4.318
47398W        W 6494  44.929   4.211   0.384
47399W        W 6495   6.406  26.684  12.375
47400W        W 6496  20.233  19.108  13.819
47401W        W 6497  43.279   9.224   3.835
47402W        W 6498  40.479  18.291   3.824
47403W        W 6499  13.141  12.712  11.117
47404W        W 6500   3.922  27.168  12.899
47405W        W 6501   4.825  15.314   1.914
47406W        W 6502  11.281  20.542  12.363
47407W        W 6503  41.365  34.525   2.381
47408W        W 6504  27.974  28.486  11.607
47409W        W 6505  37.036  29.613   1.292
47410W        W 6506  13.181  13.625   4.133
47411W        W 6507  16.681  23.156  12.385
47412W        W 6508  23.110  10.793  10.896
47413W        W 6509  17.608  29.558   3.288
47414W        W 6510  36.900  28.125   0.904
47415W        W 6511  42.804   5.225   1.919
47416W        W 6512  18.234  12.195  14.430
47417W        W 6513  39.490  35.416   2.296
47418W        W 6514  23.512  16.570  14.450
47419W        W 6515   4.447  24.479  11.910
47420W        W 6516  40.032  16.654  10.625
47421W        W 6517   8.380  17.291   3.719
47422W        W 6518  34.917  38.927   1.323
47423W        W 6519  14.218   5.693  13.387
47424W        W 6520   2.728   5.873   4.273
47425W        W 6521  33.405   9.860  11.101
47426W        W 6522  18.265   5.834   3.150
47427W        W 6523  16.611  16.142  12.071
47428W        W 6524  39.352  26.981   4.699
47429W        W 6525  31.612   4.871   2.199
47430W        W 6526  21.646  37.916   5.182
47431W        W 6527  30.619  28.668  10.436
47432W        W 6528  17.217  36.879  12.917
47433W        W 6529  15.106  28.118   1.834
47434W        W 6530   0.457  28.654  13.963
47435W        W 6531  25.692  25.967  10.520
47436W        W 6532   6.403   8.385  14.831
47437W        W 6533  44.924   2.317  12.047
47438W        W 6534   2.855  37.582   2.375
47439W        W 6535  24.224  40.342  11.588
47440W        W 6536   5.394  35.106  13.994
47441W        W 6537  32.067  33.070   2.739
47442W        W 6538   2.755  11.276   4.612
47443W        W 6539  37.550  44.433  13.334
47444W        W 6540  44.353  33.889   0.964
47445W        W 6541  34.572  36.865  12.936
47446W        W 6542  21.170  37.942  11.991
47447W        W 6543  22.162  37.880  12.910
47448W        W 6544  32.016  42.793   5.119
47449W        W 6545  34.872  14.238  14.900
47450W        W 6546  22.046  40.806  13.405
47451W        W 6547   7.834  44.872  10.485
47452W        W 6548  32.939  43.908   2.275
47453W        W 6549  10.823  12.801  11.489
47454W        W 6550  16.580   9.232  11.058
47455W        W 6551   8.829  24.563  10.901
47456W        W 6552  43.946  11.278  14.319
47457W        W 6553  41.496   0.789  11.606
47458W        W 6554  30.567  11.254   3.169
47459W        W 6555  41.528   1.298   3.702
47460W        W 6556  12.760  29.173  12.949
47461W        W 6557  44.909   2.867   3.148
47462W        W 6558  36.540   4.333   4.809
47463W        W 6559  15.812  33.504   5.195
47464W        W 6560  14.822  15.659   2.306
47465W        W 6561  19.569  30.923  13.339
47466W        W 6562  37.541  13.841  11.541
47467W        W 6563  43.402   8.765  10.604
47468W        W 6564   0.269  33.894  14.390
47469W        W 6565  18.074  14.221   1.903
47470W        W 6566  40.812   5.726  14.415
47471W        W 6567  29.470  29.120  14.850
47472W        W 6568  19.600  35.945  12.385
47473W        W 6569  18.098  16.247   1.873
47474W        W 6570  42.445  42.446  10.908
47475W        W 6571  29.458  27.551   3.631
47476W        W 6572  21.563   0.468   4.189
47477W        W 6573  42.509  15.154   0.877
47478W        W 6574  27.522  22.238  13.526
47479W        W 6575  31.429  37.345  13.470
47480W        W 6576  39.874  15.638   1.772
47481W        W 6577  20.652  38.998   2.264
47482W        W 6578  34.101  25.074   9.933
47483W        W 6579  23.701   4.417  11.055
47484W        W 6580   1.893  12.779   4.742
47485W        W 6581   8.839  13.836  14.278
47486W        W 6582  31.036  42.373  10.605
47487W        W 6583  23.235  26.579  10.579
47488W        W 6584   7.202   4.915   2.354
47489W        W 6585  40.398  10.371  13.022
47490W        W 6586  42.890  10.833  10.936
47491W        W 6587  34.029   4.722  14.485
47492W        W 6588  22.526  39.476  14.841
47493W        W 6589  15.610  37.353   2.379
47494W        W 6590  36.925  12.190  14.442
47495W        W 6591   8.830   7.352   4.741
47496W        W 6592  40.875  12.346  14.301
47497W        W 6593  18.120  27.005   4.286
47498W        W 6594   4.860   8.193   0.951
47499W        W 6595  15.804  15.179   3.852
47500W        W 6596   9.194  30.939  13.902
47501W        W 6597  18.239  17.098  12.957
47502W        W 6598  20.070  12.777   0.415
47503W        W 6599   1.811   3.850  14.286
47504W        W 6600   5.355  12.162   1.817
47505W        W 6601  31.004  38.986  14.879
47506W        W 6602  40.396  31.521   3.642
47507W        W 6603  28.439  11.857  11.917
47508W        W 6604  26.968   2.438   1.266
47509W        W 6605   1.755  15.751  10.029
47510W        W 6606   3.342  25.531   3.326
47511W        W 6607  28.034  40.463  13.834
47512W        W 6608   4.921   5.362  12.505
47513W        W 6609   4.700   8.674   4.242
47514W        W 6610   9.180  21.625   4.273
47515W        W 6611   9.264  27.476   0.307
47516W        W 6612  41.529  32.910   2.204
47517W        W 6613  12.127  33.919   2.240
47518W        W 6614   5.211   4.922  13.488
47519W        W 6615  11.292  22.210  12.523
47520W        W 6616  16.758  31.136  13.340
47521W        W 6617  14.334  22.592   4.681
47522W        W 6618   5.292  37.355  10.450
47523W        W 6619  17.114  10.772  13.064
47524W        W 6620  43.395  25.211  11.389
47525W        W 6621  17.115  26.476  12.418
47526W        W 6622  17.684  34.014  14.974
47527W        W 6623  40.843   2.933  12.021
47528W        W 6624  18.055  38.390  11.124
47529W        W 6625   8.703   7.825   2.897
47530W        W 6626  18.695   1.915   0.330
47531W        W 6627  31.491  34.021   4.137
47532W        W 6628  43.484  25.975   3.352
47533W        W 6629  16.108   7.679   2.350
47534W        W 6630  25.623  44.899   4.812
47535W        W 6631  13.672  31.954   1.886
47536W        W 6632  32.482  11.131  14.358
47537W        W 6633   1.883  10.172  13.399
47538W        W 6634  12.281  25.080   0.339
47539W        W 6635  10.310  10.743   4.244
47540W        W 6636  39.560  37.555  10.498
47541W        W 6637  21.045   3.796   2.198
47542W        W 6638  30.449  32.926   0.795
47543W        W 6639  36.099  33.518   3.667
47544W        W 6640   4.858  25.549   4.772
47545W        W 6641   8.762  10.830   3.179
47546W        W 6642  38.963   4.239  14.854
47547W        W 6643  28.573  29.962  11.903
47548W        W 6644  29.650  35.551   0.852
47549W        W 6645   4.878  41.986   0.285
47550W        W 6646   1.292  38.520   0.953
47551W        W 6647   1.405  21.630   2.410
47552W        W 6648  31.463  20.164  10.560
47553W        W 6649  13.242   1.880  10.470
47554W        W 6650  30.064   2.729  11.539
47555W        W 6651  11.736   4.809   4.717
47556W        W 6652  11.634  17.061  14.408
47557W        W 6653  42.912   8.718   0.386
47558W        W 6654  20.194  31.906   2.310
47559W        W 6655  22.157  44.789  14.395
47560W        W 6656  24.516  27.601   2.198
47561W        W 6657  13.311  11.653   4.301
47562W        W 6658   6.381  21.742  14.760
47563W        W 6659   2.798  26.476   2.415
47564W        W 6660  24.979  44.433   2.814
47565W        W 6661  21.020  21.167   0.380
47566W        W 6662  39.497  16.684   0.373
47567W        W 6663   9.191  37.034   2.710
47568W        W 6664  24.133  27.109   1.410
47569W        W 6665  25.639  27.457   4.713
47570W        W 6666  16.692   4.760  11.119
47571W        W 6667  13.778  28.594   0.902
47572W        W 6668  24.512  29.004   1.871
47573W        W 6669  30.630   7.718  10.589
47574W        W 6670  29.147  33.575  12.527
47575W        W 6671  31.992   0.274   2.678
47576W        W 6672   7.699  13.771  14.834
47577W        W 6673   5.329  27.189  12.069
47578W        W 6674  29.439  15.777   2.259
47579W        W 6675   9.765  14.320   0.806
47580W        W 6676  22.037   8.397  12.424
47581W        W 6677  26.669   0.871  10.496
47582W        W 6678  22.505  42.335  11.906
47583W        W 6679  41.968   8.672  13.018
47584W        W 6680  13.310  33.992   9.581
47585W        W 6681  33.894  12.319   0.453
47586W        W 6682  33.982   2.430   1.270
47587W        W 6683  18.144   8.777   1.240
47588W        W 6684  27.183  19.242  14.765
47589W        W 6685   6.359  10.303   0.761
47590W        W 6686  20.565  12.798  12.927
47591W        W 6687  18.611   5.735  13.405
47592W        W 6688  43.441  23.561   3.768
47593W        W 6689   3.304  10.645   0.840
47594W        W 6690  35.547  31.945   0.785
47595W        W 6691  11.128  22.706   0.374
47596W        W 6692   8.869  12.635  10.593
47597W        W 6693  34.903  30.543   2.707
47598W        W 6694   5.356  22.725  12.550
47599W        W 6695  21.650  28.145  14.354
47600W        W 6696   2.963  41.413   0.794
47601W        W 6697  37.365   1.941  13.440
47602W        W 6698   2.392  16.724   2.228
47603W        W 6699  43.950  16.572  13.444
47604W        W 6700   3.240  37.881   4.656
47605W        W 6701  35.591  19.593   3.671
47606W        W 6702  19.211  39.026  12.941
47607W        W 6703  34.374  36.357  14.907
47608W        W 6704  18.167  40.345  12.893
47609W        W 6705  15.130  30.569   5.228
47610W        W 6706  44.439  11.272   3.298
47611W        W 6707  40.994  38.824  12.880
47612W        W 6708  38.331  37.437  12.431
47613W        W 6709   1.377  39.039   2.408
47614W        W 6710  25.566  33.513   1.394
47615W        W 6711  44.465  27.451  13.316
47616W        W 6712  39.065  26.631  12.558
47617W        W 6713  13.622  23.185   4.233
47618W        W 6714  13.832  24.063   1.271
47619W        W 6715  29.432  29.062   2.325
47620W        W 6716  14.728  41.431   2.199
47621W        W 6717   1.972  20.108  13.999
47622W        W 6718  25.992  16.808  11.391
47623W        W 6719  22.140  19.262  13.064
47624W        W 6720   0.368  33.047  10.423
47625W        W 6721  27.989   4.244   0.933
47626W        W 6722  41.374  36.082  13.433
47627W        W 6723  31.416  32.132  12.095
47628W        W 6724  35.581  31.631   4.689
47629W        W 6725   5.255  25.171   0.964
47630W        W 6726   1.255   6.351   1.241
47631W        W 6727   4.841   3.336  14.813
47632W        W 6728  34.425   5.886  14.908
47633W        W 6729  38.883   7.280   0.746
47634W        W 6730  31.540  16.599   2.671
47635W        W 6731   8.784   9.170  13.926
47636W        W 6732  40.437   0.265  12.997
47637W        W 6733  35.510  34.397   2.836
47638W        W 6734  22.103  11.249  13.042
47639W        W 6735   8.857  22.662  13.424
47640W        W 6736  18.220  15.157   1.901
47641W        W 6737  35.915   7.886   1.762
47642W        W 6738  21.693  17.719  14.414
47643W        W 6739  29.102   4.313  13.843
47644W        W 6740   1.906  33.429   2.707
47645W        W 6741  37.086  28.972  11.563
47646W        W 6742   5.867  16.316   1.835
47647W        W 6743  19.672   9.243   1.904
47648W        W 6744  31.104  31.105  11.424
47649W        W 6745  22.135  33.003   4.817
47650W        W 6746   2.727  13.794   4.789
47651W        W 6747   0.747  40.441  10.515
47652W        W 6748  33.062  44.460  13.341
47653W        W 6749   0.391  37.517   2.816
47654W        W 6750  42.322  34.111  13.969
47655W        W 6751  27.646  33.032  10.545
47656W        W 6752  35.105  39.031   4.649
47657W        W 6753  37.549  12.271   3.289
47658W        W 6754  43.309  24.671  11.431
47659W        W 6755  37.884  27.541   3.652
47660W        W 6756  41.039  37.436  10.977
47661W        W 6757   6.896  17.664  14.338
47662W        W 6758  28.588  32.536  11.948
47663W        W 6759  17.626   7.841  12.078
47664W        W 6760  41.947   2.921   0.279
47665W        W 6761  37.837  31.568  13.335
47666W        W 6762  33.057  33.923   2.392
47667W        W 6763   1.972  10.310  14.278
47668W        W 6764  21.153  32.439   2.878
47669W        W 6765  26.080  40.469  14.957
47670W        W 6766  43.805  44.967  14.763
47671W        W 6767  14.249  32.135   0.322
47672W        W 6768   4.255  11.678  13.384
47673W        W 6769  37.345  40.329   1.862
47674W        W 6770  25.194  27.157  14.406
47675W        W 6771  26.660  38.450  11.065
47676W        W 6772  30.512  27.566   4.777
47677W        W 6773  18.083  39.838  10.978
47678W        W 6774  28.966  41.805  11.538
47679W        W 6775  12.613   1.379  12.878
47680W        W 6776  19.748  30.621   2.381
47681W        W 6777  24.092  28.998   3.853
47682W        W 6778  23.576  37.563   9.605
47683W        W 6779  44.330   1.368   1.926
47684W        W 6780  20.542  21.144   1.757
47685W        W 6781  10.832  12.644   3.294
47686W        W 6782  20.711  27.167  10.937
47687W        W 6783  34.445  13.177  12.863
47688W        W 6784  34.566   1.746  14.917
47689W        W 6785  13.164   7.284   1.241
47690W        W 6786   2.279  13.613  12.059
47691W        W 6787  38.032  38.007  13.364
47692W        W 6788  31.056  10.209   4.304
47693W        W 6789  26.165  27.649  13.486
47694W        W 6790  35.895   2.775  13.840
47695W        W 6791  13.250  29.466   1.817
47696W        W 6792  17.632  31.476   2.874
47697W        W 6793   9.362  39.938   1.229
47698W        W 6794  16.288  19.194   3.189
47699W        W 6795  26.489  41.974  10.953
47700W        W 6796  18.155   1.950  12.896
47701W        W 6797  34.114   4.823  12.477
47702W        W 6798   3.933  34.497  14.021
47703W        W 6799  37.349   3.748   0.958
47704W        W 6800  30.434  20.050  14.823
47705W        W 6801   2.434  31.535  12.839
47706W        W 6802  33.499   0.472   1.881
47707W        W 6803  19.041  12.174   2.387
47708W        W 6804  33.127  42.907   1.449
47709W        W 6805   0.824  40.380   1.909
47710W        W 6806  24.056  28.622   2.752
47711W        W 6807   0.762  34.470  13.518
47712W        W 6808  41.453  36.486  12.851
47713W        W 6809   0.747  43.512   4.217
47714W        W 6810  26.480  27.539   4.146
47715W        W 6811   5.883   8.793  13.004
47716W        W 6812  15.730  26.024  11.471
47717W        W 6813  16.080  20.199   0.861
47718W        W 6814  28.517  10.815  10.924
47719W        W 6815  17.264  22.711  13.471
47720W        W 6816  38.472   8.803  12.882
47721W        W 6817  41.817  16.566  14.953
47722W        W 6818  17.757  43.504  10.566
47723W        W 6819  16.712  18.166   1.280
47724W        W 6820  27.580  11.206   3.716
47725W        W 6821  15.727  30.929  13.469
47726W        W 6822  11.322  33.988  13.465
47727W        W 6823  32.952  18.086   0.784
47728W        W 6824  34.381  34.866   1.291
47729W        W 6825  43.413   8.365  13.994
47730W        W 6826   8.267  30.419  12.019
47731W        W 6827  40.864   3.246   2.306
47732W        W 6828   1.276   5.860   2.854
47733W        W 6829  28.979  31.994  11.058
47734W        W 6830  43.767  24.590   4.205
47735W        W 6831  18.755   1.950   3.302
47736W        W 6832  13.610  16.640   3.667
47737W        W 6833  18.172  20.142  10.897
47738W        W 6834   6.892  39.048   2.290
47739W        W 6835   5.326  41.475  14.342
47740W        W 6836  20.054  16.084   1.402
47741W        W 6837  16.594   6.387  12.449
47742W        W 6838   9.739  21.154   2.893
47743W        W 6839  23.582   9.263   3.233
47744W        W 6840   7.745   3.715   2.232
47745W        W 6841  34.922  28.155   1.925
47746W        W 6842   9.673  26.582  10.958
47747W        W 6843  34.439  15.111   1.757
47748W        W 6844  23.048  18.713   3.737
47749W        W 6845   8.830  39.508  14.436
47750W        W 6846  38.024   4.943   4.824
47751W        W 6847   1.929  23.072  13.465
47752W        W 6848  43.929  28.105  13.412
47753W        W 6849   4.699  31.902   2.328
47754W        W 6850  35.099  41.862  12.560
47755W        W 6851  12.689  40.318  13.914
47756W        W 6852  29.641  34.605   2.674
47757W        W 6853  33.414  15.583   3.671
47758W        W 6854  12.701  11.833   2.880
47759W        W 6855  22.635  23.637  13.022
47760W        W 6856  43.008  14.181  13.471
47761W        W 6857  32.613  39.553  11.513
47762W        W 6858  28.169   9.176  14.993
47763W        W 6859  32.545   6.221   2.780
47764W        W 6860   1.391  28.563   2.347
47765W        W 6861   4.344  10.818  10.403
47766W        W 6862  42.777  23.114  13.844
47767W        W 6863  12.748  35.006   3.641
47768W        W 6864  18.203  39.916  12.502
47769W        W 6865  21.023  26.522  10.912
47770W        W 6866   3.771   3.372  14.980
47771W        W 6867   0.943  21.049  11.992
47772W        W 6868  30.593   5.823  10.603
47773W        W 6869   7.749  33.494  14.914
47774W        W 6870  25.008  31.516   0.852
47775W        W 6871   3.772  20.111  13.369
47776W        W 6872  44.913  12.215  12.033
47777W        W 6873  16.099  24.593  14.790
47778W        W 6874  25.613  28.164  10.090
47779W        W 6875   4.705  27.469  14.024
47780W        W 6876   6.885  30.614   0.414
47781W        W 6877   4.390  13.704   1.427
47782W        W 6878  40.972  15.187  12.567
47783W        W 6879  22.189  18.773  10.562
47784W        W 6880  25.533  22.067   4.622
47785W        W 6881   6.724  14.672   3.300
47786W        W 6882  10.368  33.406  13.047
47787W        W 6883  40.443   1.468  14.442
47788W        W 6884  21.538  12.763   3.724
47789W        W 6885  21.188  29.012  13.937
47790W        W 6886   4.233  13.716   3.665
47791W        W 6887   8.758  26.076  13.052
47792W        W 6888  17.585  12.280   3.793
47793W        W 6889  24.651  44.324   1.843
47794W        W 6890   9.687  41.850  14.941
47795W        W 6891  20.725  41.300  13.053
47796W        W 6892   6.358  26.511  14.800
47797W        W 6893  42.513  31.147  14.381
47798W        W 6894   1.745   7.740   3.818
47799W        W 6895  18.087  20.174  11.508
47800W        W 6896  11.626  10.763  11.597
47801W        W 6897  26.997  32.934  10.607
47802W        W 6898  14.703  30.586  13.894
47803W        W 6899   1.817   4.717   3.750
47804W        W 6900  40.859  19.725  12.006
47805W        W 6901  17.789   8.187   3.740
47806W        W 6902  28.495  16.215  10.937
47807W        W 6903  32.603   7.688  13.943
47808W        W 6904  20.545  43.907   0.314
47809W        W 6905  28.061  29.954   3.324
47810W        W 6906  40.808  35.383  13.047
47811W        W 6907  16.178  27.643   9.476
47812W        W 6908  29.643  42.500  10.517
47813W        W 6909   9.355  32.514  12.024
47814W        W 6910  20.232  12.150  10.615
47815W        W 6911  15.592  35.946   2.260
47816W        W 6912  28.649  10.243   2.390
47817W        W 6913  26.149  35.395  13.419
47818W        W 6914  38.340   2.833  10.966
47819W        W 6915   7.301   3.809   3.696
47820W        W 6916  22.707  26.176  10.547
47821W        W 6917  44.501  36.901  12.062
47822W        W 6918  35.101  10.273   4.617
47823W        W 6919   6.372   8.660  11.084
47824W        W 6920  31.966  17.250   2.413
47825W        W 6921  24.526   0.757   1.247
47826W        W 6922  41.462  33.978   0.303
47827W        W 6923  22.177  13.346   1.761
47828W        W 6924  17.090  40.534  13.049
47829W        W 6925  24.084  12.802   0.793
47830W        W 6926  11.269  32.595  12.433
47831W        W 6927   7.279  31.609   1.926
47832W        W 6928  34.025  11.206  14.888
47833W        W 6929  22.245  15.637  10.494
47834W        W 6930   4.352  22.549   1.934
47835W        W 6931  38.015  44.454  14.871
47836W        W 6932  30.979  31.509   3.307
47837W        W 6933   7.283  26.660  12.032
47838W        W 6934  44.901  38.943  12.386
47839W        W 6935  30.457  29.068   2.737
47840W        W 6936  19.200  42.857   2.209
47841W        W 6937  35.557  36.532   1.819
47842W        W 6938  26.540  11.807   0.363
47843W        W 6939  30.627  20.163  13.944
47844W        W 6940  25.468  38.067  13.828
47845W        W 6941  11.787  16.690  14.467
47846W        W 6942   2.758  18.568  14.855
47847W        W 6943   1.867  36.569  13.881
47848W        W 6944  29.611  33.572  10.565
47849W        W 6945  13.168  32.929   4.223
47850W        W 6946  26.516  23.133  13.400
47851W        W 6947  24.582   9.650   4.665
47852W        W 6948  19.261   0.364   0.251
47853W        W 6949   2.309  15.199   1.270
47854W        W 6950  36.894  36.409   1.854
47855W        W 6951  37.464  19.238  12.472
47856W        W 6952  28.999  26.975  12.472
47857W        W 6953  43.366  24.538  11.104
47858W        W 6954   4.215  22.640   2.804
47859W        W 6955  10.296   0.810   2.695
47860W        W 6956  24.159   2.727   4.784
47861W        W 6957  10.279   7.271   4.698
47862W        W 6958   5.755  17.681  12.475
47863W        W 6959  37.490  44.947   4.291
47864W        W 6960  29.562  29.141  13.328
47865W        W 6961   9.788  15.290  12.998
47866W        W 6962  21.124  13.128  13.425
47867W        W 6963   3.858  28.587  11.934
47868W        W 6964  19.284  43.279   1.350
47869W        W 6965  17.563  41.865  14.804
47870W        W 6966  36.445  30.617   2.410
47871W        W 6967  36.580  41.302  14.415
47872W        W 6968  35.003  31.069  12.971
47873W        W 6969  43.493  15.696  11.042
47874W        W 6970  17.731   9.280   2.407
47875W        W 6971  23.711  39.949   0.896
47876W        W 6972  29.046  35.026   0.435
47877W        W 6973  11.219  12.649   2.688
47878W        W 6974  40.954   6.761  11.079
47879W        W 6975   9.844  21.625   4.708
47880W        W 6976  30.158  33.505   1.299
47881W        W 6977   1.740  14.678  12.829
47882W        W 6978   7.679  17.248  11.085
47883W        W 6979  14.237   2.370  12.533
47884W        W 6980  35.857  30.659   2.879
47885W        W 6981   1.402  17.724  11.580
47886W        W 6982  43.878   0.362  14.383
47887W        W 6983  27.687  40.983  14.490
47888W        W 6984  42.931   1.343   2.889
47889W        W 6985  30.656  22.603  12.405
47890W        W 6986  28.034  36.999   0.367
47891W        W 6987  40.362  17.174   1.429
47892W        W 6988  21.019  32.086   3.647
47893W        W 6989  17.264   9.732   2.758
47894W        W 6990   4.400  43.932   1.721
47895W        W 6991   4.277  23.055  13.876
47896W        W 6992   0.873  10.357   5.253
47897W        W 6993  23.209   6.726  14.448
47898W        W 6994  26.652  31.035  11.410
47899W        W 6995  22.109   5.334   3.700
47900W        W 6996   2.451  37.562   2.251
47901W        W 6997   2.965  41.927  12.044
47902W        W 6998  21.233  21.199  13.309
47903W        W 6999  27.666  20.068  12.376
47904W        W 7000  36.886   5.386  12.579
47905W        W 7001  31.501  28.130  13.019
47906W        W 7002  13.137  15.708   2.406
47907W        W 7003  27.189  26.175  10.964
47908W        W 7004   4.450  19.167   3.301
47909W        W 7005   7.254  16.768   4.774
47910W        W 7006  42.935  14.622   1.784
47911W        W 7007  19.552  13.159  14.881
47912W        W 7008  25.691  28.125  13.947
47913W        W 7009  23.093  27.619  11.384
47914W        W 7010  14.611  30.074   0.454
47915W        W 7011  24.591  26.612  14.367
47916W        W 7012   2.911  24.700  12.519
47917W        W 7013  26.162  24.118   3.699
47918W        W 7014  20.573  28.609   2.288
47919W        W 7015   3.339   1.881  10.955
47920W        W 7016  15.612  26.483  10.980
47921W        W 7017  17.149  14.701  10.458
47922W        W 7018  10.652  32.535  14.761
47923W        W 7019  24.990  44.328   4.163
47924W        W 7020  26.515   6.347  11.456
47925W        W 7021  32.091   1.817  12.517
47926W        W 7022  23.039   0.381   4.275
47927W        W 7023   3.258  10.772   0.365
47928W        W 7024   5.919  34.539  14.278
47929W        W 7025  21.758  43.369   2.761
47930W        W 7026  30.105  18.645  14.458
47931W        W 7027  36.051  32.397  13.507
47932W        W 7028   9.351  44.388   0.368
47933W        W 7029  20.725  21.648  13.505
47934W        W 7030  20.575  19.755  11.450
47935W        W 7031  39.386  29.452  14.515
47936W        W 7032  42.503  32.892  13.850
47937W        W 7033  37.418  39.002   5.278
47938W        W 7034  35.522  24.654   2.408
47939W        W 7035  25.653  10.878   0.909
47940W        W 7036  43.293  25.992   0.861
47941W        W 7037   7.367  34.107  12.366
47942W        W 7038  27.038  34.452   1.383
47943W        W 7039  22.996  26.089  13.529
47944W        W 7040  20.751   3.845   4.168
47945W        W 7041  19.234  40.033  14.981
47946W        W 7042   8.323  12.718  11.055
47947W        W 7043   7.714  41.018   0.404
47948W        W 7044  35.923  34.879  14.900
47949W        W 7045  27.479  38.474  10.512
47950W        W 7046  31.511  12.665   0.380
47951W        W 7047  26.144   9.182   0.421
47952W        W 7048  29.110  17.775  12.910
47953W        W 7049   4.342  22.008  11.954
47954W        W 7050  40.314  30.541   3.747
47955W        W 7051  24.101  38.841   9.946
47956W        W 7052  12.679  19.595  11.555
47957W        W 7053   6.809  13.832   4.179
47958W        W 7054   9.203  34.940  11.502
47959W        W 7055   1.247   7.843  14.289
47960W        W 7056  15.247  41.916   2.378
47961W        W 7057  22.085  25.482  11.022
47962W        W 7058  44.827  36.045  10.570
47963W        W 7059  34.993  35.008   2.685
47964W        W 7060  27.675  34.051   3.341
47965W        W 7061  31.986  16.222  12.418
47966W        W 7062  12.830  31.598  12.558
47967W        W 7063  10.665  41.298  12.393
47968W        W 7064   3.403  27.987  13.044
47969W        W 7065  27.168  23.530   2.401
47970W        W 7066   0.441   7.371  12.351
47971W        W 7067  28.665  19.588  14.924
47972W        W 7068  29.064  10.774   2.281
47973W        W 7069  20.582  37.039  12.992
47974W        W 7070  43.448  34.536  13.442
47975W        W 7071  39.902  39.436  14.824
47976W        W 7072   9.371  11.744  14.400
47977W        W 7073  42.416  41.381   4.264
47978W        W 7074  36.997  35.522  14.986
47979W        W 7075  34.942  27.620   4.183
47980W        W 7076  30.946  17.163  12.034
47981W        W 7077   0.294   0.443  14.849
47982W        W 7078   6.800   3.894   4.231
47983W        W 7079   8.229   9.745  10.996
47984W        W 7080  39.853  44.441  10.628
47985W        W 7081   8.693   0.943   1.760
47986W        W 7082   9.297  29.947   1.374
47987W        W 7083  32.908  34.555   3.367
47988W        W 7084  21.538  32.440   0.841
47989W        W 7085  20.745  35.374   4.788
47990W        W 7086  23.695  33.593  11.493
47991W        W 7087  18.618  25.646   3.196
47992W        W 7088  28.043  28.579   4.690
47993W        W 7089  18.098  30.947   4.328
47994W        W 7090  31.109   7.701  12.071
47995W        W 7091  43.904  22.644   0.922
47996W        W 7092  42.906  26.060   1.816
47997W        W 7093  28.481  10.197   1.358
47998W        W 7094   1.739  27.597   4.176
47999W        W 7095  33.984  23.121  13.459
48000W        W 7096  29.142  21.069  14.417
48001W        W 7097   4.892  13.725   2.202
48002W        W 7098   0.490  18.677  14.827
48003W        W 7099  33.120  12.338   0.440
48004W        W 7100   6.847  20.687   3.351
48005W        W 7101  32.904  26.113   0.357
48006W        W 7102  42.991  17.616  13.483
48007W        W 7103  12.318  17.294  12.823
48008W        W 7104  36.032   6.182  13.826
48009W        W 7105  28.483   3.782  11.595
48010W        W 7106  21.184  19.157   4.220
48011W        W 7107   5.917  37.505   3.683
48012W        W 7108  26.022   8.371   0.918
48013W        W 7109  34.906  20.128  13.452
48014W        W 7110  12.176  30.033   3.812
48015W        W 7111  16.211   3.297  10.530
48016W        W 7112   5.841  36.508  12.921
48017W        W 7113  16.135  13.814  14.760
48018W        W 7114  39.319  21.027  13.493
48019W        W 7115   6.790  37.865  13.978
48020W        W 7116  13.752  17.706  14.941
48021W        W 7117   2.254  40.961  14.323
48022W        W 7118  34.031   9.820  13.505
48023W        W 7119   3.927  38.840   1.760
48024W        W 7120  31.116  19.542   9.980
48025W        W 7121  13.272  17.754  13.314
48026W        W 7122  13.152  21.744   0.379
48027W        W 7123  39.442   7.173  14.458
48028W        W 7124   1.763  24.508  13.315
48029W        W 7125  37.018   1.413  11.898
48030W        W 7126  20.675  33.898   3.255
48031W        W 7127  23.209  10.794  13.445
48032W        W 7128  27.598  42.791   4.124
48033W        W 7129  35.450  30.028  13.041
48034W        W 7130   0.826  29.490   3.824
48035W        W 7131   6.183  37.061   4.253
48036W        W 7132  33.542  23.120   1.283
48037W        W 7133  43.304   2.386  12.418
48038W        W 7134  40.431  40.507   0.263
48039W        W 7135  42.937  34.524   3.648
48040W        W 7136  42.368  44.277  11.070
48041W        W 7137   6.384  25.149   1.337
48042W        W 7138  15.629  13.339   2.357
48043W        W 7139  35.558   1.853  14.323
48044W        W 7140  29.588  29.541  10.591
48045W        W 7141  19.251  39.823  12.916
48046W        W 7142  38.906  28.056   0.870
48047W        W 7143  27.958  42.012   0.427
48048W        W 7144  11.162  21.222   0.409
48049W        W 7145  42.376   2.805  12.082
48050W        W 7146  32.968  43.902   2.866
48051W        W 7147  41.535  35.006  10.411
48052W        W 7148  36.395  13.650   1.883
48053W        W 7149  23.063  27.591   0.755
48054W        W 7150  35.061  33.394  10.532
48055W        W 7151  19.779   3.338   2.880
48056W        W 7152  11.726  39.033   4.212
48057W        W 7153  14.688  42.319   4.326
48058W        W 7154  42.452  35.584  14.995
48059W        W 7155  21.670  19.134  12.935
48060W        W 7156   2.328  38.390   2.826
48061W        W 7157  30.164   7.906  14.497
48062W        W 7158  26.578  10.846  13.501
48063W        W 7159  11.287   3.349   1.931
48064W        W 7160  16.137  30.578  10.077
48065W        W 7161  44.953   6.866  13.801
48066W        W 7162  44.416   4.839   4.649
48067W        W 7163  13.307  33.403  14.434
48068W        W 7164  32.118  12.165  10.577
48069W        W 7165  26.495  44.861  12.952
48070W        W 7166  31.008   2.402   2.684
48071W        W 7167  36.080  20.084   3.220
48072W        W 7168  20.064  27.671  12.395
48073W        W 7169  36.476  15.214   2.335
48074W        W 7170  29.666   1.408   1.337
48075W        W 7171  11.650   2.436  11.429
48076W        W 7172  35.005  27.134   3.324
48077W        W 7173   6.877   7.720  13.983
48078W        W 7174  15.734  16.186  14.842
48079W        W 7175   0.466  37.338   1.704
48080W        W 7176  40.438  11.763   0.748
48081W        W 7177  17.285  19.244   2.739
48082W        W 7178  16.139  26.057  13.977
48083W        W 7179  25.993  22.520  13.474
48084W        W 7180  16.254  15.698   2.199
48085W        W 7181  31.047  31.529   0.786
48086W        W 7182  16.106  43.495  12.999
48087W        W 7183  33.609  34.545   1.274
48088W        W 7184   7.208  18.295  12.026
48089W        W 7185  37.553   8.715   4.762
48090W        W 7186  12.745  25.160  12.491
48091W        W 7187  26.113   1.386  13.987
48092W        W 7188  40.029  21.582  11.593
48093W        W 7189   9.241  25.624   1.713
48094W        W 7190  24.645   0.280   3.278
48095W        W 7191   8.696  12.677  12.531
48096W        W 7192  42.406   8.161   4.716
48097W        W 7193   7.776  17.765  11.611
48098W        W 7194  21.229   1.331   9.920
48099W        W 7195  21.660   3.832   2.347
48100W        W 7196   5.351   5.708   1.388
48101W        W 7197  17.118  10.639  14.886
48102W        W 7198   1.954  21.036   4.172
48103W        W 7199  12.627  35.497   2.179
48104W        W 7200  14.708  17.190   5.162
48105W        W 7201  25.210  37.018   2.375
48106W        W 7202  29.645   1.851  14.348
48107W        W 7203  15.604  10.654   0.894
48108W        W 7204  12.726  18.741   3.309
48109W        W 7205  39.902   0.837  10.896
48110W        W 7206  30.127  40.308   2.845
48111W        W 7207  36.444  11.828   2.668
48112W        W 7208  31.585   7.748   3.758
48113W        W 7209  29.624  32.136  10.559
48114W        W 7210   1.973  30.521  13.826
48115W        W 7211  22.682  23.049   2.663
48116W        W 7212  44.883  42.977   3.384
48117W        W 7213  21.175   4.273   0.282
48118W        W 7214  31.449  13.347   4.669
48119W        W 7215  37.398  13.127  10.090
48120W        W 7216  16.726  14.803  12.053
48121W        W 7217   4.352  26.643  12.388
48122W        W 7218   2.461  44.827   0.888
48123W        W 7219   2.835  14.111   1.734
48124W        W 7220  36.004   7.192   2.216
48125W        W 7221  39.036   4.286   4.245
48126W        W 7222  42.983  19.266  12.012
48127W        W 7223  18.623  17.636  11.958
48128W        W 7224  17.589  40.944   0.479
48129W        W 7225  38.545   4.769   2.236
48130W        W 7226  42.893   8.309  13.408
48131W        W 7227   6.420  26.556   0.817
48132W        W 7228  23.194  36.399  13.532
48133W        W 7229  33.501  15.296   5.655
48134W        W 7230   6.211  42.935  11.027
48135W        W 7231  10.650   5.803  13.972
48136W        W 7232  23.523   5.239   2.902
48137W        W 7233  10.769  28.087   3.852
48138W        W 7234  21.570   8.242  12.494
48139W        W 7235   0.470  44.348  10.576
48140W        W 7236   6.341  39.901  13.312
48141W        W 7237  26.964  30.461  12.523
48142W        W 7238  20.731   7.779  13.525
48143W        W 7239  25.705  41.838  13.473
48144W        W 7240  27.470  35.975   2.844
48145W        W 7241  19.064  40.930   0.300
48146W        W 7242  43.957  20.573  11.911
48147W        W 7243   8.290  34.045  11.442
48148W        W 7244  25.099  13.285  12.922
48149W        W 7245  35.966  22.624   4.344
48150W        W 7246  26.524  37.930  14.861
48151W        W 7247  42.445  14.162  13.525
48152W        W 7248  10.703  15.635   0.881
48153W        W 7249  29.102   7.294   3.350
48154W        W 7250  21.662  27.597  10.616
48155W        W 7251   8.374  16.759   0.340
48156W        W 7252  35.033   9.379  10.976
48157W        W 7253  32.998   8.792   1.381
48158W        W 7254  16.236  43.987   2.835
48159W        W 7255   0.906   4.750  11.061
48160W        W 7256  10.635  26.634  14.390
48161W        W 7257  27.994  19.269  12.567
48162W        W 7258  43.818  30.013  14.921
48163W        W 7259  33.459  21.599   2.673
48164W        W 7260  23.608   4.917   4.649
48165W        W 7261  10.232   7.811   1.345
48166W        W 7262  36.583  44.295  14.946
48167W        W 7263   7.382   3.349   2.728
48168W        W 7264  14.617  36.937   2.328
48169W        W 7265  40.931  17.072   4.604
48170W        W 7266  24.631  40.340   1.281
48171W        W 7267   3.844  27.588   3.825
48172W        W 7268  25.476  36.018  12.461
48173W        W 7269  39.386  18.584   2.825
48174W        W 7270  13.301  14.663   1.283
48175W        W 7271  21.166  36.922  12.425
48176W        W 7272  24.203   3.906  10.636
48177W        W 7273  43.479  32.578   2.249
48178W        W 7274  15.680   9.706   0.306
48179W        W 7275  24.568  35.999  12.560
48180W        W 7276   1.865  10.340   4.609
48181W        W 7277  17.110   7.826   2.183
48182W        W 7278  36.967  32.542  14.944
48183W        W 7279  29.038  12.124   0.941
48184W        W 7280  39.357  34.421   0.923
48185W        W 7281  28.642  40.803  11.889
48186W        W 7282  21.060   3.433  10.465
48187W        W 7283  39.355  11.842   0.348
48188W        W 7284  21.049   6.303  14.871
48189W        W 7285  26.475  36.071  12.394
48190W        W 7286  34.430  37.999   4.292
48191W        W 7287  43.991  11.634  10.928
48192W        W 7288  22.535  35.537  12.886
48193W        W 7289   4.752  31.437   2.367
48194W        W 7290  11.832   2.412   3.172
48195W        W 7291  18.708   0.434   0.460
48196W        W 7292  33.902  31.024  13.522
48197W        W 7293  28.142  33.493  13.423
48198W        W 7294   9.836  36.346  11.021
48199W        W 7295  21.705  35.013  13.360
48200W        W 7296  26.648  40.808   2.381
48201W        W 7297  44.382  42.314   2.774
48202W        W 7298  30.007   0.354   1.248
48203W        W 7299  42.303   1.860   2.890
48204W        W 7300  44.911  26.963   1.809
48205W        W 7301  10.848  41.933   1.343
48206W        W 7302  13.119  26.104   0.436
48207W        W 7303  24.152  34.956   4.215
48208W        W 7304  30.954  10.317   2.817
48209W        W 7305  22.501  43.886   0.332
48210W        W 7306  12.713   4.377  11.086
48211W        W 7307  16.762   2.282  12.987
48212W        W 7308   5.848  28.561  10.632
48213W        W 7309   3.354  44.859  10.902
48214W        W 7310  29.952   4.234   1.712
48215W        W 7311  44.829  12.779  11.001
48216W        W 7312  29.447  33.514  13.452
48217W        W 7313  34.027  14.739   2.330
48218W        W 7314  33.463  33.481   4.655
48219W        W 7315  23.002   8.661  10.631
48220W        W 7316   6.424   0.286   2.270
48221W        W 7317  42.458  38.374  14.849
48222W        W 7318  44.503  44.330   3.769
48223W        W 7319  38.048   2.801   0.837
48224W        W 7320   8.171  39.031  10.950
48225W        W 7321  37.884  35.027  12.941
48226W        W 7322   8.307  29.479  12.569
48227W        W 7323  18.710  35.064   0.243
48228W        W 7324  30.648  38.865   3.668
48229W        W 7325  24.527  32.399  13.416
48230W        W 7326  34.102  17.696  12.882
48231W        W 7327  24.168  26.988  10.552
48232W        W 7328  12.162  14.588   1.451
48233W        W 7329  18.548  18.587   0.372
48234W        W 7330  40.049  26.049   3.217
48235W        W 7331   4.298   0.881  10.938
48236W        W 7332  24.217   5.358   3.860
48237W        W 7333   9.194  22.536   3.796
48238W        W 7334   7.215  41.037  10.422
48239W        W 7335  43.326  34.471   0.304
48240W        W 7336  21.551  13.791  14.280
48241W        W 7337  29.496  34.003  14.913
48242W        W 7338   2.723   6.276  14.758
48243W        W 7339  23.611  10.329   4.706
48244W        W 7340  38.982   4.229   2.714
48245W        W 7341  24.691  24.047  14.973
48246W        W 7342  44.424  12.756   4.355
48247W        W 7343  33.414  13.807  13.352
48248W        W 7344  19.641  20.749  12.350
48249W        W 7345  35.538  24.153   5.126
48250W        W 7346  31.910  14.777   1.888
48251W        W 7347  25.083  10.343   0.964
48252W        W 7348  12.158  26.059  13.440
48253W        W 7349  18.712  29.030  11.044
48254W        W 7350  37.554  41.033  14.905
48255W        W 7351  26.692   7.254   2.872
48256W        W 7352  21.549  18.723   2.841
48257W        W 7353  13.713  21.646   0.907
48258W        W 7354  31.423  16.654   2.409
48259W        W 7355   5.769  15.186   0.429
48260W        W 7356  18.201  27.137  11.941
48261W        W 7357  23.688  29.129  11.515
48262W        W 7358  42.807  27.105  13.326
48263W        W 7359  10.351   8.891   3.845
48264W        W 7360   6.735   7.302  12.430
48265W        W 7361  17.703  24.666   0.740
48266W        W 7362  19.088   4.749   1.213
48267W        W 7363   2.724  28.505   4.180
48268W        W 7364  13.758  15.170  12.461
48269W        W 7365  31.445  38.989  12.436
48270W        W 7366  41.987  36.940   4.301
48271W        W 7367  31.638  13.685   3.654
48272W        W 7368   5.380  18.720  11.875
48273W        W 7369  29.615  41.322   3.654
48274W        W 7370  12.143  14.205  11.126
48275W        W 7371  43.312   9.828   1.293
48276W        W 7372  12.644  40.322  12.410
48277W        W 7373  30.509   7.366  10.509
48278W        W 7374   0.398  30.138   1.788
48279W        W 7375  15.146  22.248   3.859
48280W        W 7376  44.330  37.575  12.020
48281W        W 7377  16.164  11.340  14.781
48282W        W 7378  23.549  36.358   1.776
48283W        W 7379  13.318   9.850  14.839
48284W        W 7380  14.295  29.497   3.337
48285W        W 7381  14.241  35.083  10.581
48286W        W 7382  44.343  20.651   2.247
48287W        W 7383   6.852   3.859  13.871
48288W        W 7384  24.120  16.709  13.367
48289W        W 7385  23.665  17.651   2.358
48290W        W 7386  37.503  44.811   0.298
48291W        W 7387   8.865  35.486   1.828
48292W        W 7388  18.573   5.323   2.219
48293W        W 7389  44.394  14.247   2.742
48294W        W 7390   9.735  40.341   4.680
48295W        W 7391  25.560   6.778  13.536
48296W        W 7392  36.377  15.117  11.985
48297W        W 7393  24.713  32.570  11.861
48298W        W 7394  23.024   4.808   1.717
48299W        W 7395  43.498  38.414  12.368
48300W        W 7396  19.114  19.058   1.815
48301W        W 7397  32.539  16.094  12.897
48302W        W 7398   8.290   6.720   0.349
48303W        W 7399  32.912   7.832  12.342
48304W        W 7400  35.860  36.932   4.174
48305W        W 7401  10.350  25.686  13.347
48306W        W 7402  27.663   5.841   1.323
48307W        W 7403  39.984   2.448  11.471
48308W        W 7404  28.536  13.279   0.881
48309W        W 7405  33.603  17.203  13.887
48310W        W 7406  44.876  26.165  11.566
48311W        W 7407  14.158  11.739  10.441
48312W        W 7408  17.208  32.991   2.393
48313W        W 7409  20.747  40.322   2.836
48314W        W 7410  36.986  14.678   1.768
48315W        W 7411   6.728  36.471  14.797
48316W        W 7412  42.832  44.318   3.851
48317W        W 7413  24.669  26.169  13.417
48318W        W 7414  42.476  25.651  11.534
48319W        W 7415  18.083   1.741  14.368
48320W        W 7416  29.979  40.009  14.299
48321W        W 7417  41.892  32.044   3.738
48322W        W 7418  37.449  25.704   3.266
48323W        W 7419   5.345  30.916  13.856
48324W        W 7420  12.214  26.971  11.129
48325W        W 7421   9.676  30.998   3.871
48326W        W 7422  32.394  39.438  12.989
48327W        W 7423   5.697  28.054  14.915
48328W        W 7424  12.652  41.390  13.310
48329W        W 7425  43.858  17.799   1.831
48330W        W 7426  32.038  17.668   0.958
48331W        W 7427   4.763  21.694  10.556
48332W        W 7428  38.537  12.181   3.186
48333W        W 7429  18.590  31.950  14.993
48334W        W 7430   4.804  16.739   1.296
48335W        W 7431  39.558  25.512   4.636
48336W        W 7432  22.190  30.506  13.501
48337W        W 7433  43.311   4.718  13.914
48338W        W 7434  11.739  32.914   1.291
48339W        W 7435  14.259   0.985   1.888
48340W        W 7436  28.178  40.368  12.968
48341W        W 7437   0.981   6.740   0.434
48342W        W 7438  18.656  42.375  11.036
48343W        W 7439  44.338  19.685  14.810
48344W        W 7440  14.593  38.353   3.837
48345W        W 7441  14.593  10.851  12.403
48346W        W 7442  37.499  23.026  11.433
48347W        W 7443  36.987  10.690   3.175
48348W        W 7444  23.213  24.001   1.262
48349W        W 7445  30.465  28.935  12.851
48350W        W 7446  41.029   3.328   0.956
48351W        W 7447  38.541  12.130  11.964
48352W        W 7448   3.216   7.880  14.327
48353W        W 7449  30.430  38.379  10.580
48354W        W 7450  16.223  44.856   0.393
48355W        W 7451  34.399  37.461  12.533
48356W        W 7452   9.672  39.040  10.068
48357W        W 7453  36.542  21.057   3.231
48358W        W 7454  30.467  25.533  14.837
48359W        W 7455  11.304   2.752   1.900
48360W        W 7456  33.962   9.383  10.407
48361W        W 7457  21.148  35.922   0.928
48362W        W 7458  42.932  34.118  11.921
48363W        W 7459  20.570  22.535  11.525
48364W        W 7460  15.676  42.015  11.005
48365W        W 7461  40.416   2.746   0.346
48366W        W 7462  16.702  31.045   4.183
48367W        W 7463  20.545  23.135   2.808
48368W        W 7464   3.247  27.663   2.224
48369W        W 7465   2.400  41.922   2.299
48370W        W 7466  42.370  23.522  13.545
48371W        W 7467  43.291  36.432   2.206
48372W        W 7468  14.307  16.719   0.483
48373W        W 7469  44.819   3.787   1.787
48374W        W 7470  40.853  36.478   4.165
48375W        W 7471  11.188  29.504   0.387
48376W        W 7472  34.115  11.740   2.724
48377W        W 7473  25.978  40.040   4.817
48378W        W 7474  18.613  20.755  10.543
48379W        W 7475  20.756  12.673  14.422
48380W        W 7476  22.155  27.619  10.493
48381W        W 7477  22.509   2.863   0.248
48382W        W 7478  24.569  39.058  10.443
48383W        W 7479  22.198  14.287  14.498
48384W        W 7480  33.919  24.995   1.758
48385W        W 7481  23.502  37.448   1.441
48386W        W 7482  36.088  17.297  10.496
48387W        W 7483   1.920  17.708   4.190
48388W        W 7484  31.498  28.030   2.869
48389W        W 7485  37.941  12.624  14.367
48390W        W 7486   8.277  20.762  14.946
48391W        W 7487   5.881  17.633   3.697
48392W        W 7488  38.906  34.415  10.132
48393W        W 7489  15.705  38.488  11.604
48394W        W 7490   1.272  33.585   1.798
48395W        W 7491   1.772  30.124   0.363
48396W        W 7492  12.810  25.965  10.605
48397W        W 7493  38.846  32.540  10.910
48398W        W 7494  13.657  25.973   1.270
48399W        W 7495  38.982  31.466   1.427
48400W        W 7496  28.530  21.238   3.264
48401W        W 7497  16.569  12.359   4.738
48402W        W 7498  40.529  11.169   3.803
48403W        W 7499  22.561  21.196   2.748
48404W        W 7500  26.190  27.600  14.865
48405W        W 7501  23.097  40.344  12.917
48406W        W 7502  12.227  38.546  13.482
48407W        W 7503  19.538  19.178   2.270
48408W        W 7504  22.504   3.825  12.886
48409W        W 7505  41.426  31.111   0.936
48410W        W 7506  14.785  31.121  14.411
48411W        W 7507   5.414  13.775  12.477
48412W        W 7508  44.269  38.442  13.907
48413W        W 7509  18.625  18.072   3.179
48414W        W 7510  18.717  26.686   2.205
48415W        W 7511  23.095  20.554  14.845
48416W        W 7512  23.694  35.563   9.998
48417W        W 7513  32.495  37.430   4.211
48418W        W 7514  42.775  20.628   2.891
48419W        W 7515  39.344   3.840  11.590
48420W        W 7516   6.205  34.107  13.537
48421W        W 7517  13.305  31.079   1.410
48422W        W 7518  32.538  10.835  12.967
48423W        W 7519  40.975  18.686   0.288
48424W        W 7520  22.536  37.028   3.782
48425W        W 7521  22.582  38.869   3.825
48426W        W 7522  27.018  18.050   1.362
48427W        W 7523  23.593  22.559   0.363
48428W        W 7524  43.847  21.635  10.591
48429W        W 7525  20.139   6.376  14.458
48430W        W 7526  43.294   4.929   0.940
48431W        W 7527   1.889  40.513  12.459
48432W        W 7528  24.093  32.965   2.264
48433W        W 7529   4.224  42.849  13.456
48434W        W 7530  38.952  25.662   0.960
48435W        W 7531   7.872  40.930  11.086
48436W        W 7532  34.088  32.943   0.475
48437W        W 7533  29.646  22.526   0.783
48438W        W 7534   3.409  17.675   0.832
48439W        W 7535   0.913   9.300  13.530
48440W        W 7536   2.960  35.109   3.332
48441W        W 7537  22.070  38.033  13.440
48442W        W 7538  13.707  17.705  13.457
48443W        W 7539  14.203   0.861  14.422
48444W        W 7540   6.318  12.212   4.797
48445W        W 7541   5.732  23.669  11.910
48446W        W 7542  31.569  28.948  10.944
48447W        W 7543   3.827  12.250  13.354
48448W        W 7544  44.299   2.795  13.448
48449W        W 7545  10.168  41.519   1.227
48450W        W 7546  34.966   4.384  14.894
48451W        W 7547  21.233  16.293  14.353
48452W        W 7548  21.559  34.959   1.877
48453W        W 7549  44.399   7.181  13.888
48454W        W 7550  42.897  40.833   4.693
48455W        W 7551   8.175  41.000  11.384
48456W        W 7552  33.484  22.190  12.824
48457W        W 7553  29.019  20.534   1.367
48458W        W 7554  35.875  38.332  10.433
48459W        W 7555  39.336   7.304   4.806
48460W        W 7556  41.984  33.000  13.980
48461W        W 7557  10.276   4.796  12.529
48462W        W 7558   6.353  24.184  10.928
48463W        W 7559  33.912  12.137  14.828
48464W        W 7560  33.879  19.281  14.322
48465W        W 7561   5.695  15.150   1.274
48466W        W 7562  19.681  19.679  13.448
48467W        W 7563  13.112  31.975  11.386
48468W        W 7564  29.657  44.963   4.764
48469W        W 7565  26.961  21.724   0.790
48470W        W 7566   2.349  27.065   4.155
48471W        W 7567   2.322   3.389   3.233
48472W        W 7568  30.636  28.533   1.435
48473W        W 7569  42.318  31.920   2.770
48474W        W 7570  39.384  26.005  13.808
48475W        W 7571  18.617   2.406  11.014
48476W        W 7572  29.656  22.551   5.261
48477W        W 7573  15.307  31.145   4.636
48478W        W 7574  42.927  38.392  12.530
48479W        W 7575  10.336  13.242   1.448
48480W        W 7576  22.057  37.401  13.848
48481W        W 7577  40.908  41.935   2.352
48482W        W 7578  38.933  25.984  12.514
48483W        W 7579  10.704  12.644  11.904
48484W        W 7580  10.831  15.625  11.866
48485W        W 7581  31.091  26.126   0.742
48486W        W 7582   0.791  22.018   3.805
48487W        W 7583  33.576  43.986  12.024
48488W        W 7584   7.880  20.553   2.370
48489W        W 7585  27.675  29.971   2.303
48490W        W 7586  13.261  19.162   2.300
48491W        W 7587   6.283  21.755   4.288
48492W        W 7588  33.391  39.436  11.075
48493W        W 7589  23.497  24.132   3.229
48494W        W 7590  14.678  38.836  12.570
48495W        W 7591   0.409  42.984   2.354
48496W        W 7592  33.396  11.679  11.541
48497W        W 7593  25.692   2.253  12.860
48498W        W 7594  30.115  34.103   3.667
48499W        W 7595  24.995   5.225  14.975
48500W        W 7596  34.028  34.560  14.478
48501W        W 7597  31.116  20.093  12.901
48502W        W 7598  24.102   9.301   1.721
48503W        W 7599  44.291   6.254  13.450
48504W        W 7600  44.438  21.228   4.264
48505W        W 7601  39.865  26.668   0.799
48506W        W 7602  34.492  23.018   5.128
48507W        W 7603  40.011  35.097  10.464
48508W        W 7604  16.699   8.400  11.583
48509W        W 7605  29.043   3.237   5.309
48510W        W 7606  17.158   8.810  10.501
48511W        W 7607  34.598  14.150  12.895
48512W        W 7608  25.180  33.604   1.844
48513W        W 7609  19.123   7.385   2.843
48514W        W 7610  18.096  18.568   4.332
48515W        W 7611  25.534  28.151  12.390
48516W        W 7612  23.226  12.220   9.951
48517W        W 7613  11.766  17.253   2.843
48518W        W 7614   7.214  22.713   0.405
48519W        W 7615  37.050   0.779   1.316
48520W        W 7616  35.901   1.339  13.865
48521W        W 7617  36.080  12.174  10.914
48522W        W 7618  34.524  30.019  13.922
48523W        W 7619  34.450  42.295   4.275
48524W        W 7620  44.318  28.647   1.222
48525W        W 7621  39.424  44.401   0.954
48526W        W 7622   6.682  32.101  13.064
48527W        W 7623  23.125  16.088  10.639
48528W        W 7624  24.492  34.909   1.739
48529W        W 7625  27.186   3.435  10.556
48530W        W 7626  26.099  10.750   1.750
48531W        W 7627  29.120  31.579   3.751
48532W        W 7628  14.723  36.545   0.384
48533W        W 7629  38.045  11.174   1.385
48534W        W 7630  30.539  28.187   4.338
48535W        W 7631   1.805  31.442   0.741
48536W        W 7632   9.735  20.185   0.350
48537W        W 7633  39.046  30.654   0.358
48538W        W 7634  14.780  35.971   0.297
48539W        W 7635   9.372  12.764  12.931
48540W        W 7636  10.297   0.432   0.268
48541W        W 7637  30.423  18.699  10.942
48542W        W 7638  24.583  13.769  14.363
48543W        W 7639  38.061  16.585   3.148
48544W        W 7640  16.117  19.613   2.269
48545W        W 7641   4.721  30.158  11.122
48546W        W 7642  16.251  24.719  10.546
48547W        W 7643  43.483  30.472  11.996
48548W        W 7644   0.815   6.831   3.651
48549W        W 7645   8.207   3.748   0.798
48550W        W 7646  41.372  15.672   2.893
48551W        W 7647  33.959  42.468   3.650
48552W        W 7648   4.204  14.114  11.903
48553W        W 7649  24.129   8.706  12.383
48554W        W 7650  32.032  22.598   1.268
48555W        W 7651  38.500   0.328  11.984
48556W        W 7652  39.512  23.074   0.393
48557W        W 7653  44.003  28.532  14.761
48558W        W 7654  33.891   6.751   0.448
48559W        W 7655  25.638   0.436   1.815
48560W        W 7656  40.935  15.722  12.072
48561W        W 7657  24.146  18.260  11.061
48562W        W 7658  25.158  40.546   3.192
48563W        W 7659  39.888  10.635   1.446
48564W        W 7660  39.063  25.093  10.943
48565W        W 7661  16.755  30.932   0.748
48566W        W 7662  38.903   6.885   4.813
48567W        W 7663  10.239  33.509   4.740
48568W        W 7664  20.158  29.053  12.528
48569W        W 7665  28.501   0.431   2.773
48570W        W 7666   4.823  22.523  13.047
48571W        W 7667  10.227  30.437   3.318
48572W        W 7668  27.060  40.969   3.274
48573W        W 7669  28.583   4.699   3.721
48574W        W 7670  19.625  27.559  14.011
48575W        W 7671  33.129  26.135   3.272
48576W        W 7672  12.805  17.560   4.612
48577W        W 7673   2.894  14.736  13.059
48578W        W 7674  25.567  20.560   4.354
48579W        W 7675  11.714  24.510  12.824
48580W        W 7676   9.748   4.927   1.406
48581W        W 7677  26.644  25.989  11.893
48582W        W 7678   5.224  12.313   3.178
48583W        W 7679  20.182  31.574  10.948
48584W        W 7680  32.045   1.354   0.382
48585W        W 7681   9.810  13.747   3.354
48586W        W 7682  11.824  29.526   2.289
48587W        W 7683  11.748   2.852   2.397
48588W        W 7684   7.197  40.899  12.835
48589W        W 7685  40.838  11.802  10.580
48590W        W 7686   4.722  32.553  10.468
48591W        W 7687  32.452  25.094  13.355
48592W        W 7688  21.733  31.409   2.793
48593W        W 7689  34.902   5.263   3.765
48594W        W 7690  20.619  44.278  12.086
48595W        W 7691  14.757  18.750  12.465
48596W        W 7692  37.870  30.602   1.777
48597W        W 7693  40.440   5.914   0.254
48598W        W 7694  29.150  40.348  11.128
48599W        W 7695  13.180  25.126  13.848
48600W        W 7696  39.813  22.060   2.697
48601W        W 7697  15.279  22.689   0.244
48602W        W 7698  12.657  22.186  10.435
48603W        W 7699  38.006  39.385   1.765
48604W        W 7700  44.811   9.717   4.644
48605W        W 7701  30.107  22.698   1.904
48606W        W 7702  34.471  17.695   3.686
48607W        W 7703  14.758  36.071  14.484
48608W        W 7704  41.860  37.087  11.468
48609W        W 7705  26.139  35.859   1.421
48610W        W 7706  11.781  24.013   0.270
48611W        W 7707   7.706  40.823   4.188
48612W        W 7708  24.103   9.305  12.891
48613W        W 7709  17.103  33.574  14.286
48614W        W 7710  19.273  35.048  14.991
48615W        W 7711   0.269  23.548  14.799
48616W        W 7712  39.906  10.773  14.416
48617W        W 7713  30.599   9.254   1.823
48618W        W 7714  42.783   6.289  12.850
48619W        W 7715  35.983  26.998   1.769
48620W        W 7716   0.866  29.061   2.261
48621W        W 7717  33.048  15.778   0.262
48622W        W 7718   6.235  41.806  13.346
48623W        W 7719  40.812  28.004  14.286
48624W        W 7720   3.322   3.799   3.632
48625W        W 7721  19.621   5.430   2.312
48626W        W 7722   9.719  22.119   3.374
48627W        W 7723  25.041   3.878  13.345
48628W        W 7724  18.234   6.383   3.848
48629W        W 7725  21.236  17.780  13.311
48630W        W 7726  39.365   9.857  12.877
48631W        W 7727   1.426  26.145   0.385
48632W        W 7728   1.466   6.863  10.895
48633W        W 7729  17.137  32.406   1.892
48634W        W 7730  19.718  18.607  13.338
48635W        W 7731   8.204  16.247  14.030
48636W        W 7732  16.228  27.096   4.731
48637W        W 7733   9.280  13.134   1.294
48638W        W 7734  21.184  31.947   1.832
48639W        W 7735  28.005  13.253  11.092
48640W        W 7736  30.079  18.212  10.933
48641W        W 7737  23.602   1.478  14.942
48642W        W 7738  13.118  36.488  10.975
48643W        W 7739   6.420  24.155   1.354
48644W        W 7740  27.151  28.078   0.809
48645W        W 7741  27.164  22.691  11.448
48646W        W 7742  39.963  26.618   4.270
48647W        W 7743  40.348  30.054  13.934
48648W        W 7744   3.736  23.998   2.207
48649W        W 7745  16.692  44.948  10.904
48650W        W 7746   2.392  19.086   4.778
48651W        W 7747  24.159  29.998  14.508
48652W        W 7748  36.381  33.904   1.242
48653W        W 7749  21.087  27.673   3.817
48654W        W 7750  29.476  19.615  13.055
48655W        W 7751  10.812  32.101  13.057
48656W        W 7752  25.574  21.616   0.840
48657W        W 7753  20.217  39.022   0.343
48658W        W 7754  35.954   3.362   4.317
48659W        W 7755  28.088  39.389  13.365
48660W        W 7756  15.133  36.537   4.663
48661W        W 7757   3.742   1.824   0.319
48662W        W 7758  10.742  40.019   1.231
48663W        W 7759   9.376  12.308   1.325
48664W        W 7760   8.259   8.655   0.263
48665W        W 7761  23.639   5.793  11.029
48666W        W 7762  21.171  36.099   9.560
48667W        W 7763  10.300  42.503  10.934
48668W        W 7764  31.044   7.799   3.250
48669W        W 7765  27.616  35.473   4.151
48670W        W 7766  26.576   0.797  13.911
48671W        W 7767   6.897  17.170  12.479
48672W        W 7768  23.706  42.394  11.060
48673W        W 7769  12.730  31.112   9.963
48674W        W 7770  27.039  23.690  14.321
48675W        W 7771   6.745  22.059  13.407
48676W        W 7772  37.083   5.283   4.344
48677W        W 7773  31.001   1.430   0.316
48678W        W 7774   7.277   2.747   1.324
48679W        W 7775   6.801  19.737   0.247
48680W        W 7776  32.582   7.343   2.706
48681W        W 7777   2.902  24.198  10.026
48682W        W 7778   0.912  43.774  14.993
48683W        W 7779  28.167  16.786  14.331
48684W        W 7780   5.364   5.839   4.143
48685W        W 7781  19.755  25.194   3.248
48686W        W 7782   3.843   2.265  11.447
48687W        W 7783  38.557  27.003   2.207
48688W        W 7784  40.015  41.937  14.932
48689W        W 7785  14.190  14.226  13.963
48690W        W 7786  33.543   1.428  14.476
48691W        W 7787  11.720  38.498  12.420
48692W        W 7788  21.727   4.814   2.310
48693W        W 7789  15.302  16.781   4.331
48694W        W 7790   5.858   3.901   2.291
48695W        W 7791   1.816   0.253   4.257
48696W        W 7792  14.809  40.053  11.531
48697W        W 7793  38.033  24.222   4.217
48698W        W 7794  36.092  43.360   2.698
48699W        W 7795  23.139  10.839  11.884
48700W        W 7796   9.772  10.330  14.848
48701W        W 7797   3.374  31.032   4.634
48702W        W 7798  20.142  32.440   1.918
48703W        W 7799  22.508  29.149   0.919
48704W        W 7800  16.222  26.569  13.522
48705W        W 7801  28.549  40.353   1.341
48706W        W 7802   6.748   5.244  10.959
48707W        W 7803  27.130  30.105   2.331
48708W        W 7804  41.475  33.126  13.998
48709W        W 7805  34.967  35.854   5.208
48710W        W 7806  24.548  18.634  14.807
48711W        W 7807   5.219  43.280   4.213
48712W        W 7808  20.122  18.251   4.724
48713W        W 7809  17.085   0.262   0.869
48714W        W 7810  42.483  16.778  12.974
48715W        W 7811  38.544  39.410  14.031
48716W        W 7812  12.314  31.606   1.434
48717W        W 7813  24.584  28.043   4.744
48718W        W 7814   5.317   8.759   4.344
48719W        W 7815   5.753  14.297  12.066
48720W        W 7816  17.112  43.841  14.005
48721W        W 7817  26.992  23.168  14.461
48722W        W 7818  16.767   1.798  14.461
48723W        W 7819   9.764  20.207   4.664
48724W        W 7820  27.036  44.898   1.763
48725W        W 7821  20.535  35.947  12.010
48726W        W 7822  11.240  29.071  11.476
48727W        W 7823  12.145   1.316   0.450
48728W        W 7824  26.123  12.118  10.457
48729W        W 7825   0.391   6.372  10.523
48730W        W 7826  27.171  29.999  10.934
48731W        W 7827   1.284   1.922  12.051
48732W        W 7828  27.452  39.527   0.342
48733W        W 7829  29.921  25.977   3.291
48734W        W 7830  23.066  16.159  14.840
48735W        W 7831  30.035  39.951  13.511
48736W        W 7832  24.540  43.367   4.345
48737W        W 7833  24.141  26.001  11.029
48738W        W 7834   0.382  32.626   1.932
48739W        W 7835  20.137  37.852   4.839
48740W        W 7836  16.710  11.792  11.593
48741W        W 7837  21.106  14.213   4.767
48742W        W 7838  21.153   9.285  12.879
48743W        W 7839   9.675  16.281  14.873
48744W        W 7840  33.908  30.427  10.955
48745W        W 7841   1.906  43.489  14.405
48746W        W 7842  44.312  19.224   2.780
48747W        W 7843  18.123  10.725  12.339
48748W        W 7844  44.915   1.894   0.938
48749W        W 7845   5.737  38.840  11.107
48750W        W 7846  26.204  36.875  14.807
48751W        W 7847   5.403   8.391   3.756
48752W        W 7848  29.588  39.559  13.843
48753W        W 7849  22.064  33.609   3.345
48754W        W 7850  31.933  10.343  12.466
48755W        W 7851   5.344  26.012  13.468
48756W        W 7852  18.050  26.983  10.994
48757W        W 7853  30.564  38.964   5.188
48758W        W 7854  18.738  33.913   1.385
48759W        W 7855  31.944  29.941  14.881
48760W        W 7856  20.069  23.556   0.322
48761W        W 7857   5.841  29.658   3.178
48762W        W 7858   5.292  16.700  14.793
48763W        W 7859  35.530  14.174  12.571
48764W        W 7860  15.736   7.346  13.419
48765W        W 7861  12.791   6.720   1.733
48766W        W 7862  39.939  22.631  10.559
48767W        W 7863   3.319  18.203  11.076
48768W        W 7864  29.081   1.463   3.370
48769W        W 7865  20.721  15.753   2.873
48770W        W 7866  42.847   5.722   2.268
48771W        W 7867  32.424  21.238  12.064
48772W        W 7868  37.490  40.474   3.703
48773W        W 7869  37.434  41.810   2.241
48774W        W 7870   7.693   1.827   2.706
48775W        W 7871  32.895  17.768   2.688
48776W        W 7872  43.365  30.000   4.237
48777W        W 7873   2.459  18.600  13.817
48778W        W 7874  39.390  29.556  13.945
48779W        W 7875  19.775  41.462  10.888
48780W        W 7876   8.872   7.780   0.325
48781W        W 7877  19.082   8.164  11.424
48782W        W 7878  40.523  41.486   2.834
48783W        W 7879   9.760  34.514   2.860
48784W        W 7880  42.312  44.773   3.862
48785W        W 7881  29.174  34.961   9.957
48786W        W 7882   7.275  10.818   4.205
48787W        W 7883  27.468  15.750  10.445
48788W        W 7884  34.948  10.873   1.903
48789W        W 7885  10.358  36.365   4.259
48790W        W 7886  11.327   8.899   4.746
48791W        W 7887  12.197  16.796  10.437
48792W        W 7888  34.984  19.608   2.790
48793W        W 7889  26.568  14.648   4.157
48794W        W 7890   4.818  19.756   1.241
48795W        W 7891  36.922  16.754   0.343
48796W        W 7892  27.506  23.657   4.147
48797W        W 7893   0.923  33.430  11.996
48798W        W 7894   7.787  43.994  11.975
48799W        W 7895   1.376  12.677  13.395
48800W        W 7896   1.923  11.300   3.748
48801W        W 7897  15.788  17.615  11.975
48802W        W 7898  38.484  33.424   3.203
48803W        W 7899  31.539  10.647  11.880
48804W        W 7900   6.184  22.665   1.270
48805W        W 7901  41.026  32.614  13.052
48806W        W 7902  29.532  29.462  11.997
48807W        W 7903   5.920  42.889  10.628
48808W        W 7904   5.239   9.200   0.885
48809W        W 7905  38.884  36.939  13.353
48810W        W 7906  18.691  13.835   2.844
48811W        W 7907  44.973  26.702   4.648
48812W        W 7908  44.263  30.525  14.851
48813W        W 7909   5.430  42.890   0.482
48814W        W 7910  33.015  36.489  13.930
48815W        W 7911   7.772  14.719  13.928
48816W        W 7912  43.510  22.064   2.708
48817W        W 7913  18.699  38.066   1.894
48818W        W 7914  44.470   8.677   5.085
48819W        W 7915  26.549  22.623   1.371
48820W        W 7916  36.032  24.500   3.842
48821W        W 7917  23.235  19.282  14.317
48822W        W 7918  21.155   6.251   4.795
48823W        W 7919  18.648   5.841  12.981
48824W        W 7920  32.094  18.605  11.525
48825W        W 7921  19.150  38.569  14.030
48826W        W 7922  44.429  24.623   2.859
48827W        W 7923   3.326   7.678   2.268
48828W        W 7924  31.582  36.855  13.461
48829W        W 7925  35.547   3.403   4.122
48830W        W 7926  19.152  13.611  14.928
48831W        W 7927   9.672  19.166  12.342
48832W        W 7928  32.923  30.596   3.293
48833W        W 7929  28.939  41.036  13.459
48834W        W 7930  43.427  25.497   1.322
48835W        W 7931   7.262  42.794   0.798
48836W        W 7932  43.769  15.280  13.965
48837W        W 7933  31.430  23.222  14.431
48838W        W 7934  43.933  24.498   3.659
48839W        W 7935  42.312  31.467   2.414
48840W        W 7936  22.016  38.444   4.118
48841W        W 7937  36.918  30.632   4.644
48842W        W 7938  43.401  37.035  11.966
48843W        W 7939   6.709  28.013  11.887
48844W        W 7940  28.107   5.425  14.916
48845W        W 7941  35.041  12.684   0.254
48846W        W 7942  27.657  30.922   2.714
48847W        W 7943  31.954  17.759   0.301
48848W        W 7944   2.875  37.556  13.058
48849W        W 7945  20.562  26.024   1.772
48850W        W 7946   0.891  17.159   0.819
48851W        W 7947  33.610  37.949   3.270
48852W        W 7948  11.859  43.826   3.341
48853W        W 7949   6.389  27.607  10.517
48854W        W 7950  37.336  41.306   1.758
48855W        W 7951  17.187  11.732   0.762
48856W        W 7952  13.169  36.864   2.275
48857W        W 7953   9.290   2.756   3.337
48858W        W 7954  37.379  27.012  10.427
48859W        W 7955  26.594  29.616  13.059
48860W        W 7956  22.144  16.291  11.121
48861W        W 7957  40.825  44.345   0.868
48862W        W 7958  31.083  13.830   0.946
48863W        W 7959  19.773  27.187   1.698
48864W        W 7960  24.005  14.203  11.105
48865W        W 7961  34.028  17.744   2.877
48866W        W 7962  13.253   4.313   3.664
48867W        W 7963  10.148  30.924  12.894
48868W        W 7964  31.596   6.422   2.765
48869W        W 7965  43.494  23.582  10.903
48870W        W 7966  20.653  19.771  13.369
48871W        W 7967   6.770   2.261   2.334
48872W        W 7968  29.540  10.779   2.892
48873W        W 7969  30.915  19.172  12.835
48874W        W 7970  40.810  14.779   2.787
48875W        W 7971  36.582  23.041  13.436
48876W        W 7972   4.333  39.035  12.453
48877W        W 7973  41.417  34.044  13.318
48878W        W 7974  40.895  29.109   4.133
48879W        W 7975  20.196  18.117  10.927
48880W        W 7976  38.443  26.547  12.931
48881W        W 7977  10.633  17.303   2.737
48882W        W 7978  13.275  14.263   2.194
48883W        W 7979  42.781  24.107   2.696
48884W        W 7980  24.188   1.253   1.774
48885W        W 7981  24.043  22.688   3.180
48886W        W 7982  12.349  42.453  11.000
48887W        W 7983   2.850  31.548  13.314
48888W        W 7984   2.914   6.404   0.952
48889W        W 7985   3.254   8.863  10.456
48890W        W 7986   0.835  43.908  13.492
48891W        W 7987  33.462  15.153  11.517
48892W        W 7988  29.055  40.340  14.462
48893W        W 7989  37.578  22.065  11.019
48894W        W 7990  28.499  36.993  14.342
48895W        W 7991  12.627  31.951   4.274
48896W        W 7992   9.240   1.902  14.322
48897W        W 7993  39.512  18.153   2.213
48898W        W 7994  18.671  40.974   1.855
48899W        W 7995   3.723   5.321  12.935
48900W        W 7996  44.860  25.048  11.896
48901W        W 7997  19.747  35.384  12.520
48902W        W 7998  11.230  43.400   1.438
48903W        W 7999   7.215   1.453  11.056
48904W        W 8000   3.949  26.002  12.078
48905W        W 8001  11.650  38.930   1.865
48906W        W 8002   7.676   4.345  11.519
48907W        W 8003  36.053   6.694  10.993
48908W        W 8004   9.770  29.664  13.374
48909W        W 8005   3.766  19.239  10.946
48910W        W 8006  30.563   1.797   3.840
48911W        W 8007  17.176  13.277   3.349
48912W        W 8008   9.694  21.757  10.578
48913W        W 8009  15.712  33.488  13.487
48914W        W 8010  37.498   9.848  11.041
48915W        W 8011   5.346   5.731   1.881
48916W        W 8012  23.570   3.949  11.990
48917W        W 8013  12.696  43.860  10.428
48918W        W 8014  40.429  33.544   2.306
48919W        W 8015  36.374   4.887   0.343
48920W        W 8016  38.935   4.793  13.460
48921W        W 8017  29.488  21.746  14.431
48922W        W 8018   2.731  38.495   2.384
48923W        W 8019  41.927   6.841  14.822
48924W        W 8020  39.393  38.062   0.780
48925W        W 8021  14.715  34.548   1.715
48926W        W 8022  21.634   0.895   1.729
48927W        W 8023  44.304  23.565  13.981
48928W        W 8024  32.007  36.957   0.445
48929W        W 8025  29.165  19.134   2.205
48930W        W 8026  11.330  38.357  14.009
48931W        W 8027  33.101  41.389   0.409
48932W        W 8028  31.022  18.787   0.269
48933W        W 8029  44.955  40.805   2.359
48934W        W 8030  26.953  25.989   0.872
48935W        W 8031  12.191   6.758   0.956
48936W        W 8032   1.458  16.729  13.031
48937W        W 8033   1.324  28.974   0.377
48938W        W 8034  11.224  41.354   4.181
48939W        W 8035  41.416  36.876  13.862
48940W        W 8036  41.873   9.771  10.080
48941W        W 8037  18.267  43.964  13.057
48942W        W 8038  43.859  20.068  12.346
48943W        W 8039   2.359   6.742  10.407
48944W        W 8040   6.743   1.290  12.505
48945W        W 8041  42.926  12.739   2.772
48946W        W 8042  42.334   9.859   2.825
48947W        W 8043  38.391  14.202   3.727
48948W        W 8044  28.048  11.238   2.707
48949W        W 8045  27.956  21.239   4.793
48950W        W 8046  15.120  17.677  11.913
48951W        W 8047  31.623  14.192   0.281
48952W        W 8048  26.201   4.313  12.983
48953W        W 8049  13.216  39.471   0.454
48954W        W 8050   4.316   4.386  13.842
48955W        W 8051  38.876  21.175   4.751
48956W        W 8052  44.826  14.594   2.707
48957W        W 8053  39.494  21.078   0.353
48958W        W 8054   8.848  24.724   3.711
48959W        W 8055  17.697  10.801   2.364
48960W        W 8056  16.720  31.616  10.547
48961W        W 8057   2.765  28.659   3.351
48962W        W 8058  25.512   3.800   2.872
48963W        W 8059  35.057  14.121  14.392
48964W        W 8060   9.169  43.482  13.050
48965W        W 8061  30.640  25.135   5.292
48966W        W 8062  11.745   9.231   0.447
48967W        W 8063  10.738   9.263   0.935
48968W        W 8064  11.687  37.541  10.450
48969W        W 8065  10.671   2.332   0.317
48970W        W 8066  21.559  19.549  13.805
48971W        W 8067  33.988  36.916   1.446
48972W        W 8068  34.494  23.066   2.710
48973W        W 8069   7.207   1.782  14.461
48974W        W 8070  21.100   7.417  10.900
48975W        W 8071  16.244  21.064   3.834
48976W        W 8072  23.500  12.747  13.048
48977W        W 8073  35.545   3.365  12.051
48978W        W 8074  32.003   3.457  13.817
48979W        W 8075  36.873  17.569   3.789
48980W        W 8076  18.576  35.002  13.378
48981W        W 8077  42.428   2.866  13.979
48982W        W 8078  16.261   0.886   2.366
48983W        W 8079  42.881  10.254   0.820
48984W        W 8080  19.567  22.030  14.872
48985W        W 8081   2.923  42.290   4.712
48986W        W 8082  16.073  44.347   1.227
48987W        W 8083  14.627  28.968   4.352
48988W        W 8084  16.309  12.641   2.862
48989W        W 8085   4.349  10.714   3.793
48990W        W 8086  43.324  12.716   1.217
48991W        W 8087  33.413  27.147   3.743
48992W        W 8088   0.805  23.166  12.489
48993W        W 8089  40.411  19.670   2.355
48994W        W 8090  39.905  14.675   1.777
48995W        W 8091  39.413  25.486  14.502
48996W        W 8092   5.841   8.306   3.214
48997W        W 8093  20.731  41.406  14.029
48998W        W 8094   9.307  27.058  13.924
48999W        W 8095   6.909  28.170  14.850
49000W        W 8096  15.178  32.111  12.945
49001W        W 8097  43.490  24.093  13.475
49002W        W 8098  38.046  36.046  12.826
49003W        W 8099  24.664  28.931  14.816
49004W        W 8100  27.606  15.709  12.862
49005W        W 8101  35.397  30.575  14.296
49006W        W 8102   9.153  19.709  11.541
49007W        W 8103   7.343   2.341   1.230
49008W        W 8104   7.788  30.947   4.285
49009W        W 8105  13.768   4.908   1.857
49010W        W 8106   7.376  29.951   1.764
49011W        W 8107  22.174   9.884  13.894
49012W        W 8108  20.048   5.879  12.563
49013W        W 8109  13.697  30.530  12.492
49014W        W 8110  11.807  25.994  12.070
49015W        W 8111  32.473   5.922   3.164
49016W        W 8112  13.790   3.432   4.200
49017W        W 8113  11.328  21.033  10.625
49018W        W 8114  34.604  11.660   4.695
49019W        W 8115  40.426  44.303   4.116
49020W        W 8116   0.344  26.614  14.401
49021W        W 8117   2.267   7.808  10.552
49022W        W 8118  26.624  13.727  11.063
49023W        W 8119  24.031  11.799  12.580
49024W        W 8120   4.277  24.208  10.643
49025W        W 8121  34.530  22.611  13.529
49026W        W 8122  14.242   4.373  13.043
49027W        W 8123   5.248  38.556   3.632
49028W        W 8124  33.109   6.728   1.354
49029W        W 8125  17.605   6.397   4.215
49030W        W 8126  30.058  14.701  13.400
49031W        W 8127   8.337  20.112   0.860
49032W        W 8128  34.065  41.408   4.762
49033W        W 8129  10.759  20.762   9.510
49034W        W 8130  13.680   2.349  10.580
49035W        W 8131   8.828  36.901   2.344
49036W        W 8132   2.460  28.679   0.907
49037W        W 8133   4.899  10.280  13.906
49038W        W 8134  20.040  20.073  12.554
49039W        W 8135  18.631  23.639   3.300
49040W        W 8136  44.844  22.561   3.782
49041W        W 8137  35.497  15.781  14.381
49042W        W 8138  24.704  21.056   4.237
49043W        W 8139  30.552  31.099  11.507
49044W        W 8140   1.237  13.221   4.797
49045W        W 8141  12.784   3.819  12.946
49046W        W 8142   0.872  18.217   4.194
49047W        W 8143  19.610  14.710  11.973
49048W        W 8144  13.677   0.938   3.839
49049W        W 8145  29.669   0.305  12.537
49050W        W 8146  18.122  10.154  12.965
49051W        W 8147  31.612  40.358   4.708
49052W        W 8148   7.180  42.941  10.496
49053W        W 8149  36.397  29.064  14.447
49054W        W 8150  13.604  14.329  12.999
49055W        W 8151  19.065   8.228   4.747
49056W        W 8152  37.411  16.682   1.275
49057W        W 8153  17.701   3.441  14.871
49058W        W 8154   3.281  24.504   4.166
49059W        W 8155  24.589   5.881  14.818
49060W        W 8156  18.742  42.510   0.374
49061W        W 8157  13.328  27.483   3.210
49062W        W 8158  43.486  44.346  11.438
49063W        W 8159  33.973  27.100   5.218
49064W        W 8160  38.878  26.955   3.786
49065W        W 8161   9.271  28.110   4.325
49066W        W 8162  39.464  34.010   3.794
49067W        W 8163   6.211   9.687   3.301
49068W        W 8164  31.939  23.024   1.298
49069W        W 8165  15.091  27.092   3.836
49070W        W 8166   5.363  43.866   0.758
49071W        W 8167  25.155  13.185   0.376
49072W        W 8168  44.318  24.154   2.184
49073W        W 8169  30.989  34.520  12.406
49074W        W 8170  13.774  11.206  12.921
49075W        W 8171   3.296  37.921  14.451
49076W        W 8172  27.691  41.800  12.444
49077W        W 8173  16.692  24.509   1.227
49078W        W 8174  33.552  34.877   2.874
49079W        W 8175   7.220  26.957  11.517
49080W        W 8176  17.063   8.789   2.232
49081W        W 8177   3.305  29.948   3.230
49082W        W 8178  21.148  27.151  13.829
49083W        W 8179  21.081  19.754   3.741
49084W        W 8180   4.703  36.433   0.308
49085W        W 8181  15.193  11.828   0.415
49086W        W 8182   3.236   5.287  14.857
49087W        W 8183  11.321  39.019   1.426
49088W        W 8184  34.371  35.082  13.054
49089W        W 8185  25.001  25.159  14.491
49090W        W 8186  24.110  20.663   5.266
49091W        W 8187   9.737   2.906  14.011
49092W        W 8188  38.514  20.031  11.029
49093W        W 8189  17.303  17.244   4.675
49094W        W 8190  12.800  42.491   0.764
49095W        W 8191   3.718  26.186   3.789
49096W        W 8192  32.626  17.581   4.826
49097W        W 8193   0.367  34.945  13.823
49098W        W 8194  37.345  21.586   1.384
49099W        W 8195  11.703  14.680   4.156
49100W        W 8196   9.152   9.177   0.331
49101W        W 8197  19.061  44.890  14.766
49102W        W 8198  32.493  41.388  10.909
49103W        W 8199   4.744   5.875   0.325
49104W        W 8200  27.596   8.779  11.465
49105W        W 8201  10.158  29.012   4.751
49106W        W 8202   1.452   9.178  12.018
49107W        W 8203  44.860  35.374   4.114
49108W        W 8204  15.153  41.853  11.539
49109W        W 8205  15.683  19.581   0.289
49110W        W 8206  39.353   6.798   0.749
49111W        W 8207  44.458  14.148  14.922
49112W        W 8208   8.286  42.813  14.327
49113W        W 8209  18.194  35.410  13.060
49114W        W 8210  22.719   0.313   4.762
49115W        W 8211   2.873  31.901  11.980
49116W        W 8212  40.914  19.110   3.709
49117W        W 8213  20.243  28.531   0.319
49118W        W 8214  15.318  36.854   3.212
49119W        W 8215   3.459  14.212   1.860
49120W        W 8216  40.973   2.374  11.032
49121W        W 8217  37.877  29.442   0.323
49122W        W 8218  42.866  33.601  12.925
49123W        W 8219  44.405  16.602  10.428
49124W        W 8220  10.266  10.288  12.017
49125W        W 8221  34.956  28.177   2.355
49126W        W 8222  31.031  41.918   3.701
49127W        W 8223  33.961  29.074   4.222
49128W        W 8224  41.475  13.211  11.562
49129W        W 8225  17.760  32.115  13.950
49130W        W 8226  24.616  17.639   2.699
49131W        W 8227  20.257   3.892   3.161
49132W        W 8228   0.839  36.905  13.027
49133W        W 8229   7.885  20.080  11.911
49134W        W 8230  24.019  13.691   2.714
49135W        W 8231  41.510  27.510  12.081
49136W        W 8232  42.918  27.642  13.317
49137W        W 8233  11.824  44.385  10.618
49138W        W 8234  24.002  17.760  12.060
49139W        W 8235  18.271  31.605   3.717
49140W        W 8236  37.357  35.965   2.706
49141W        W 8237  39.831  43.830  11.891
49142W        W 8238  41.003   1.798   2.664
49143W        W 8239  12.253  37.922  11.551
49144W        W 8240  31.058  19.754   3.635
49145W        W 8241   2.358  25.016   4.818
49146W        W 8242  33.559  14.821   0.855
49147W        W 8243  36.994   7.386   0.874
49148W        W 8244  42.501  11.748  12.024
49149W        W 8245  15.732  24.117  14.367
49150W        W 8246  17.640  20.037   4.663
49151W        W 8247   2.735  32.949  12.980
49152W        W 8248   1.796   8.314  14.317
49153W        W 8249  11.251  33.895  10.468
49154W        W 8250  12.349  15.751   2.342
49155W        W 8251  35.019  18.584   1.287
49156W        W 8252  19.137  14.158  13.483
49157W        W 8253  20.588  44.955   2.302
49158W        W 8254  31.110  44.993  11.568
49159W        W 8255   9.345  38.544  13.392
49160W        W 8256  28.667  26.973   2.284
49161W        W 8257  26.583  29.574   3.203
49162W        W 8258  37.359   8.846   0.896
49163W        W 8259   6.695   4.892  10.572
49164W        W 8260  42.491  28.035  13.506
49165W        W 8261  32.584   3.365   4.133
49166W        W 8262  11.756  42.293   4.217
49167W        W 8263  13.219  12.612  10.061
49168W        W 8264   2.767  37.555  14.844
49169W        W 8265  13.146  18.676  14.329
49170W        W 8266  28.544  15.308   3.168
49171W        W 8267  41.304  32.051   2.295
49172W        W 8268  37.965  17.720   0.352
49173W        W 8269  34.051  41.409   3.681
49174W        W 8270  10.843  21.644   1.700
49175W        W 8271  18.600   1.866   4.795
49176W        W 8272  37.363   7.318   2.687
49177W        W 8273   1.846  28.107  12.082
49178W        W 8274  39.976  40.928   3.630
49179W        W 8275  18.236  20.057  13.950
49180W        W 8276  31.013  10.632  12.043
49181W        W 8277   4.922   7.819   4.752
49182W        W 8278  44.377  17.235   3.850
49183W        W 8279  23.723  16.162   0.402
49184W        W 8280  19.243  28.575   4.669
49185W        W 8281  28.547  12.639  10.517
49186W        W 8282  31.547  35.054   3.728
49187W        W 8283  21.603  41.476  14.812
49188W        W 8284  12.331  43.857  11.121
49189W        W 8285  20.093  42.383   2.850
49190W        W 8286  17.127  23.531  14.288
49191W        W 8287  18.198  32.962  11.565
49192W        W 8288  16.757  39.916  13.812
49193W        W 8289   5.355   2.883  11.590
49194W        W 8290  30.011  28.995  10.564
49195W        W 8291  14.805   3.421   3.268
49196W        W 8292   5.893  10.280  12.449
49197W        W 8293  43.476  12.268   0.884
49198W        W 8294   1.750  17.564  11.093
49199W        W 8295  41.529  39.374   1.212
49200W        W 8296  30.563   5.821  14.374
49201W        W 8297  12.224  32.601   2.327
49202W        W 8298   4.351   9.211  10.594
49203W        W 8299  36.506  37.930  13.808
49204W        W 8300  21.646  31.080   4.220
49205W        W 8301  19.212   1.434  13.545
49206W        W 8302  27.039  35.975  13.958
49207W        W 8303   5.898   5.309   2.848
49208W        W 8304  12.197  14.751  14.292
49209W        W 8305  23.042  22.640   0.751
49210W        W 8306  19.731  14.139  13.330
49211W        W 8307  23.731   9.780   1.800
49212W        W 8308  14.594  25.587  11.515
49213W        W 8309  35.893  22.560  10.560
49214W        W 8310  25.205  37.426  12.443
49215W        W 8311  25.005  27.612   1.294
49216W        W 8312  43.819  34.383   4.190
49217W        W 8313  41.789  11.798   4.656
49218W        W 8314   7.238  22.573  10.458
49219W        W 8315  43.320  17.731   4.816
49220W        W 8316  12.336  22.029   3.755
49221W        W 8317  21.227   5.299   1.311
49222W        W 8318  13.277  10.863   4.324
49223W        W 8319  25.479  12.240   0.774
49224W        W 8320  10.737  44.897   1.311
49225W        W 8321   2.889   0.798  10.636
49226W        W 8322  32.593  43.286   3.771
49227W        W 8323  33.543  15.308  13.007
49228W        W 8324   4.702  21.572   3.314
49229W        W 8325  34.466  12.661  12.061
49230W        W 8326  30.622  21.575   0.349
49231W        W 8327  34.873  10.770   3.277
49232W        W 8328   0.780  42.511   3.647
49233W        W 8329  27.471   8.765   2.821
49234W        W 8330  25.969  19.213   0.780
49235W        W 8331  22.102  21.252  13.363
49236W        W 8332  23.102  36.919  14.023
49237W        W 8333  22.069  29.441  10.596
49238W        W 8334  25.649  18.292  10.491
49239W        W 8335  40.350  22.706  13.361
49240W        W 8336  27.598   1.940   2.361
49241W        W 8337  35.866  42.521   3.245
49242W        W 8338  37.498  43.797   0.853
49243W        W 8339  12.132  35.601   1.256
49244W        W 8340  23.576   7.719   2.834
49245W        W 8341  15.223   0.295  14.000
49246W        W 8342  10.349  42.866  12.568
49247W        W 8343  19.090  43.488  11.989
49248W        W 8344  19.261  40.342  10.034
49249W        W 8345  27.083  24.181   2.887
49250W        W 8346   0.877   2.841  13.914
49251W        W 8347   5.278  22.733  11.517
49252W        W 8348  23.011  28.977   1.694
49253W        W 8349  33.577  18.214  11.534
49254W        W 8350  40.348  43.367   0.249
49255W        W 8351  27.151  29.053  14.309
49256W        W 8352  33.397  23.189   1.797
49257W        W 8353  19.228   3.897  13.039
49258W        W 8354  13.789  42.498   0.950
49259W        W 8355  33.039  38.016   1.927
49260W        W 8356  13.271  42.957   4.321
49261W        W 8357  10.813  42.915  12.380
49262W        W 8358  13.716   4.750   1.217
49263W        W 8359   9.264  26.632   0.412
49264W        W 8360  21.696  26.047  14.421
49265W        W 8361  18.172  30.080  11.965
49266W        W 8362  40.007  42.373  10.601
49267W        W 8363  25.647  29.085  12.482
49268W        W 8364   1.795  38.833   3.658
49269W        W 8365  28.097   2.275  13.536
49270W        W 8366  32.001  18.152   3.329
49271W        W 8367   6.779  44.443  13.963
49272W        W 8368  12.281  34.962  11.989
49273W        W 8369  33.479  23.645  12.450
49274W        W 8370  20.713  15.170  10.526
49275W        W 8371  43.951  41.476  13.808
49276W        W 8372  19.223  21.120   3.723
49277W        W 8373  18.174   1.400  13.547
49278W        W 8374  24.601   7.698  14.918
49279W        W 8375  34.545  28.464  14.343
49280W        W 8376  33.511   4.748  11.415
49281W        W 8377  26.958   6.297  14.777
49282W        W 8378  27.076  40.883  12.360
49283W        W 8379  42.807  29.010  12.573
49284W        W 8380   4.739   1.774  13.792
49285W        W 8381  13.743  26.199  13.511
49286W        W 8382  15.651  42.933  10.894
49287W        W 8383   2.915  36.972   4.770
49288W        W 8384   1.352  40.988   2.671
49289W        W 8385  36.574  14.255   2.703
49290W        W 8386  22.998  22.105   4.211
49291W        W 8387  11.127  21.547  13.340
49292W        W 8388  30.607  15.160  11.935
49293W        W 8389  20.577  25.081   3.796
49294W        W 8390  25.668  44.316  14.859
49295W        W 8391  24.994   1.947   1.362
49296W        W 8392  10.321  37.054  11.966
49297W        W 8393  25.097  20.573   0.757
49298W        W 8394  26.638   4.220   0.362
49299W        W 8395   3.333  24.078  12.563
49300W        W 8396   0.324   4.941  13.846
49301W        W 8397   4.863   8.835   1.801
49302W        W 8398  41.824  42.978   3.238
49303W        W 8399  44.425  44.462  10.916
49304W        W 8400  25.474  22.575   0.374
49305W        W 8401   1.409  22.660   0.256
49306W        W 8402  12.196   6.920  12.365
49307W        W 8403  11.678  22.052  11.915
49308W        W 8404   0.396  40.949   0.420
49309W        W 8405  40.024  23.212  10.408
49310W        W 8406  42.854  29.566   2.834
49311W        W 8407   6.677   5.244   0.253
49312W        W 8408  36.096   7.692   3.843
49313W        W 8409  18.081   5.700   2.677
49314W        W 8410  13.277  31.614   0.375
49315W        W 8411   7.752  42.000   4.795
49316W        W 8412  13.718   6.853  14.901
49317W        W 8413   1.925  16.595  14.953
49318W        W 8414   6.427  36.571  11.110
49319W        W 8415  21.657  33.960  11.383
49320W        W 8416  42.422  14.160   3.306
49321W        W 8417  10.747   4.820  13.985
49322W        W 8418  42.407  10.138   2.402
49323W        W 8419  42.923  42.950  14.289
49324W        W 8420   5.431  44.340  12.921
49325W        W 8421  28.043  32.977  14.803
49326W        W 8422  24.575  30.132  10.972
49327W        W 8423  19.203  39.399   1.357
49328W        W 8424  29.614  12.343   3.835
49329W        W 8425  11.189  15.577   4.330
49330W        W 8426  42.957  41.529  13.039
49331W        W 8427  42.938  33.605   4.244
49332W        W 8428  23.507  23.703  11.893
49333W        W 8429  14.181  15.633  12.898
49334W        W 8430  40.022  21.587   2.277
49335W        W 8431   4.936  30.636   2.264
49336W        W 8432  32.936  31.512  12.900
49337W        W 8433  27.062  18.682  13.388
49338W        W 8434  31.050  16.640   1.290
49339W        W 8435  16.677  12.802   3.249
49340W        W 8436  11.821   5.701   4.715
49341W        W 8437   2.850   1.868   2.853
49342W        W 8438  17.657  40.025  12.377
49343W        W 8439   3.237  35.584   1.356
49344W        W 8440  39.389  24.086   3.231
49345W        W 8441  38.507  43.959  10.483
49346W        W 8442  32.486  33.615  13.005
49347W        W 8443  39.836  44.790   4.244
49348W        W 8444  28.639  19.700   2.417
49349W        W 8445  15.823  36.593  13.397
49350W        W 8446  29.038  15.261   2.289
49351W        W 8447  41.815  27.584  13.454
49352W        W 8448  21.139   5.275   1.757
49353W        W 8449   4.387   4.250   0.420
49354W        W 8450   5.799  30.535  11.935
49355W        W 8451  14.693  43.849   2.347
49356W        W 8452   2.446  13.818   3.294
49357W        W 8453  33.496  40.421   0.912
49358W        W 8454  30.088   1.833  12.040
49359W        W 8455  13.621   4.238   1.336
49360W        W 8456   6.812  40.526  13.028
49361W        W 8457   4.822  26.015   2.320
49362W        W 8458  10.324   6.784  14.983
49363W        W 8459  12.844  23.658   4.163
49364W        W 8460  21.124  17.291   1.261
49365W        W 8461  26.152  39.366  13.352
49366W        W 8462  44.259  26.492  10.055
49367W        W 8463   5.719  23.027   1.699
49368W        W 8464  24.575  25.004  11.593
49369W        W 8465   4.849  39.957  10.989
49370W        W 8466   0.751  10.205   0.771
49371W        W 8467  41.987  38.491  12.887
49372W        W 8468  44.929   4.308  14.484
49373W        W 8469  34.042  17.130   0.731
49374W        W 8470   4.421  38.427   1.418
49375W        W 8471  18.166  39.879   0.843
49376W        W 8472  18.624  13.629  12.413
49377W        W 8473  41.307  41.977   3.350
49378W        W 8474  18.236  25.189  11.107
49379W        W 8475   2.292  28.467   0.370
49380W        W 8476  22.047  24.128   4.259
49381W        W 8477  33.001  27.512   1.826
49382W        W 8478  26.184  13.708   0.454
49383W        W 8479  18.721  39.012   1.732
49384W        W 8480  14.819  27.448   0.284
49385W        W 8481  29.055  19.190  12.388
49386W        W 8482  10.860  31.056   0.381
49387W        W 8483   8.768  40.984  12.919
49388W        W 8484  37.541  17.656   9.559
49389W        W 8485   4.871  35.601   3.652
49390W        W 8486  30.040  20.127  14.366
49391W        W 8487  39.482  12.298  12.990
49392W        W 8488  16.115  27.565  14.871
49393W        W 8489  31.412  14.810   0.290
49394W        W 8490  17.168   8.335  12.899
49395W        W 8491  31.048  11.703   9.956
49396W        W 8492  21.058  34.098  11.558
49397W        W 8493   7.764  41.511  11.091
49398W        W 8494   4.298  19.264  13.056
49399W        W 8495  36.533   1.848  12.350
49400W        W 8496  44.350  14.324  11.934
49401W        W 8497  41.993  21.086   4.310
49402W        W 8498   6.919  23.497  11.588
49403W        W 8499  40.535  42.865  14.786
49404W        W 8500   7.691  25.030  14.477
49405W        W 8501  30.635   2.763   4.622
49406W        W 8502   7.346   7.218  11.928
49407W        W 8503  23.022  11.729  13.060
49408W        W 8504  13.628  42.451   3.684
49409W        W 8505  31.457  15.197  11.126
49410W        W 8506  44.983  20.111   4.230
49411W        W 8507   2.949  44.849   1.404
49412W        W 8508   1.789  41.023   1.816
49413W        W 8509  35.098   1.467   3.745
49414W        W 8510  30.584  34.967  13.910
49415W        W 8511  11.818   7.843  12.517
49416W        W 8512   7.739   9.311   1.341
49417W        W 8513  28.442  16.700   4.645
49418W        W 8514  43.510   3.275   0.779
49419W        W 8515   6.800  14.646   1.879
49420W        W 8516  41.322  39.874  11.871
49421W        W 8517  18.728  27.013   1.865
49422W        W 8518  30.994  44.940   4.264
49423W        W 8519   2.797   2.828   0.343
49424W        W 8520  43.453   0.463   1.715
49425W        W 8521  24.034   4.812   3.238
49426W        W 8522  20.724  14.270  10.972
49427W        W 8523   8.710  23.179  12.877
49428W        W 8524  42.891   9.830   1.842
49429W        W 8525  26.136   5.216  11.558
49430W        W 8526  14.764   0.324   3.779
49431W        W 8527  16.601  32.053   3.726
49432W        W 8528  44.368  22.158   4.767
49433W        W 8529  31.043  26.157  12.345
49434W        W 8530  27.973  28.990  14.343
49435W        W 8531  23.167  36.857   0.795
49436W        W 8532  44.977   1.276  13.378
49437W        W 8533  44.286  31.615  11.485
49438W        W 8534  30.944   1.909  13.430
49439W        W 8535  37.520  42.832   4.152
49440W        W 8536  37.372  32.030   3.870
49441W        W 8537  12.180  15.723  11.918
49442W        W 8538  11.741   7.387  14.993
49443W        W 8539   5.438  10.202   4.836
49444W        W 8540   8.323  21.210  12.839
49445W        W 8541  17.768  36.004  12.876
49446W        W 8542   0.754  15.214   0.433
49447W        W 8543   9.882  40.944  12.973
49448W        W 8544  26.076  11.240   3.225
49449W        W 8545   9.829  21.622   3.828
49450W        W 8546  13.611   5.810  13.048
49451W        W 8547  10.153   3.853  14.907
49452W        W 8548  32.132  21.678  14.904
49453W        W 8549  29.030  26.540   2.759
49454W        W 8550   7.359  12.730  12.554
49455W        W 8551  31.493  27.093  14.351
49456W        W 8552  20.668  41.316   3.863
49457W        W 8553  11.831  27.194  11.397
49458W        W 8554   6.218  24.569   0.303
49459W        W 8555  13.274  13.351  12.443
49460W        W 8556   1.899  35.058  12.046
49461W        W 8557  40.463  24.657   3.156
49462W        W 8558  23.027  37.908   4.247
49463W        W 8559  11.626  35.419  12.062
49464W        W 8560  18.684  13.647  10.420
49465W        W 8561   7.300  22.085  14.459
49466W        W 8562   7.845  44.996   4.281
49467W        W 8563  42.359  44.804  12.076
49468W        W 8564  38.381  17.284  13.399
49469W        W 8565  17.297  42.031   1.775
49470W        W 8566   9.774  38.039  12.530
49471W        W 8567  22.739   7.807   0.457
49472W        W 8568  30.633  44.879  12.848
49473W        W 8569  14.132  32.616   3.241
49474W        W 8570  11.700  14.171  10.516
49475W        W 8571  28.555  16.666   0.726
49476W        W 8572  37.391  36.538  10.502
49477W        W 8573  26.149  15.312  13.958
49478W        W 8574  10.715  11.669   0.307
49479W        W 8575   2.774   2.917   4.619
49480W        W 8576  17.664  20.767  10.943
49481W        W 8577  43.515   7.710  11.537
49482W        W 8578  26.514  21.549  14.378
49483W        W 8579   1.244  20.728   1.324
49484W        W 8580  24.138   2.293   3.192
49485W        W 8581   2.448  22.095   1.383
49486W        W 8582  12.663  33.985  11.067
49487W        W 8583  17.063  42.955  11.540
49488W        W 8584   2.388   7.234   1.812
49489W        W 8585  25.080   8.725   1.756
49490W        W 8586  38.429  42.849   2.856
49491W        W 8587  18.071  19.553   2.207
49492W        W 8588  25.538  13.684   2.671
49493W        W 8589   7.286  13.735  10.609
49494W        W 8590  33.516  42.434  14.820
49495W        W 8591  20.226  13.198  10.991
49496W        W 8592   9.824   2.729  11.036
49497W        W 8593  18.133  42.360  12.935
49498W        W 8594  23.027   3.417  10.893
49499W        W 8595  20.139   2.735  11.056
49500W        W 8596  11.183  24.667  14.775
49501W        W 8597  18.280  32.554  11.443
49502W        W 8598  40.947  10.725  13.791
49503W        W 8599  17.740  35.048   4.195
49504W        W 8600   8.228  26.041   3.866
49505W        W 8601  19.735  12.264   2.335
49506W        W 8602   1.247  33.562  10.534
49507W        W 8603  40.383  37.372  14.024
49508W        W 8604  21.736  44.926  12.060
49509W        W 8605  44.455  25.002  10.990
49510W        W 8606  36.555  21.516   0.851
49511W        W 8607  19.617  26.457  10.550
49512W        W 8608  22.217  19.618  11.571
49513W        W 8609  44.434  36.507   0.839
49514W        W 8610  25.029  22.567  14.842
49515W        W 8611  19.727  13.351   1.695
49516W        W 8612  21.091  32.077  10.004
49517W        W 8613   3.420  40.035   2.783
49518W        W 8614  33.116  37.018   1.279
49519W        W 8615   5.770  40.323  13.924
49520W        W 8616  21.670  28.449   2.686
49521W        W 8617  35.977  14.812  10.504
49522W        W 8618  35.424  27.108   9.983
49523W        W 8619  21.229  16.287  13.459
49524W        W 8620  24.514   7.247   1.287
49525W        W 8621  37.017   2.801   1.265
49526W        W 8622  35.893  27.950  12.910
49527W        W 8623  19.651  28.088   4.610
49528W        W 8624  20.555  16.206   3.659
49529W        W 8625  16.651  21.581  14.856
49530W        W 8626  38.921  39.030  10.952
49531W        W 8627  43.996   8.290  12.021
49532W        W 8628  39.893  21.145   3.193
49533W        W 8629   2.337  11.162   1.357
49534W        W 8630  16.672   0.299  14.848
49535W        W 8631   9.785  26.130  10.627
49536W        W 8632  22.727  16.773  12.541
49537W        W 8633  22.213   9.189   2.857
49538W        W 8634   7.722   4.247   1.882
49539W        W 8635  21.162  29.957   3.729
49540W        W 8636   8.835  14.226  14.462
49541W        W 8637  26.063  24.718   3.751
49542W        W 8638  23.580  10.828   0.458
49543W        W 8639   7.206  44.303   4.644
49544W        W 8640  20.201  29.113   5.194
49545W        W 8641  10.768   3.374   1.298
49546W        W 8642  31.016   2.738  14.276
49547W        W 8643  10.274  14.790  12.876
49548W        W 8644   7.384  44.418   4.329
49549W        W 8645  36.536  27.612   0.436
49550W        W 8646  17.715  15.327  14.991
49551W        W 8647  17.096  33.053  11.898
49552W        W 8648  10.786   3.836   0.333
49553W        W 8649  17.303  33.448  11.507
49554W        W 8650  28.445  36.078   0.895
49555W        W 8651  29.452  31.561   2.216
49556W        W 8652  43.339  33.444   4.600
49557W        W 8653  22.703  38.393   2.834
49558W        W 8654  13.830  32.972   4.208
49559W        W 8655   7.371   3.741   3.244
49560W        W 8656  31.457   7.337   0.965
49561W        W 8657  20.122  11.731   4.135
49562W        W 8658  26.113  12.703   0.257
49563W        W 8659  24.528  15.139  13.326
49564W        W 8660  29.602   2.819  14.343
49565W        W 8661  36.428  34.932  13.011
49566W        W 8662  41.025  27.149  13.018
49567W        W 8663   8.821  14.318  11.521
49568W        W 8664   9.343  24.718  14.909
49569W        W 8665  42.480  43.411  13.958
49570W        W 8666  31.017  22.035  13.391
49571W        W 8667   5.695  16.641  10.957
49572W        W 8668  24.701  24.650  13.931
49573W        W 8669  15.710   0.815  12.546
49574W        W 8670  13.184  25.166   0.791
49575W        W 8671   9.246  11.130  13.793
49576W        W 8672  13.699   7.302   0.847
49577W        W 8673   1.338  20.544  11.429
49578W        W 8674   9.376  40.310   3.356
49579W        W 8675  38.929  38.903   2.832
49580W        W 8676   7.231  36.978  10.436
49581W        W 8677  29.006   9.266  12.042
49582W        W 8678  16.108   1.964   4.684
49583W        W 8679  21.141  23.490   4.753
49584W        W 8680   3.377  15.201   2.894
49585W        W 8681   0.263  38.530  10.920
49586W        W 8682  10.835  34.885  12.464
49587W        W 8683  20.157  43.473  13.864
49588W        W 8684  16.172   6.898   3.634
49589W        W 8685  11.650  14.724   9.960
49590W        W 8686   7.780   3.261   4.820
49591W        W 8687  10.279  43.807  14.376
49592W        W 8688  34.102  37.524   0.904
49593W        W 8689  13.810   5.332   4.676
49594W        W 8690   7.831  38.035   4.183
49595W        W 8691  24.010   8.400   2.203
49596W        W 8692  13.340  30.138  12.549
49597W        W 8693  22.656  37.912   0.270
49598W        W 8694  39.514   4.831  13.509
49599W        W 8695  41.009   2.773  10.615
49600W        W 8696  39.491  40.914   1.360
49601W        W 8697  25.516  25.990   4.259
49602W        W 8698   7.880  19.727   1.726
49603W        W 8699  11.689  18.673  11.598
49604W        W 8700  37.006  20.648  11.567
49605W        W 8701  22.161  42.445   3.284
49606W        W 8702   5.249  38.907   1.898
49607W        W 8703  42.968   3.338   0.436
49608W        W 8704  26.201   1.266  14.397
49609W        W 8705  25.212   5.297   2.407
49610W        W 8706  11.320  17.786  13.865
49611W        W 8707  15.116  20.216  14.437
49612W        W 8708  39.497  42.808   3.363
49613W        W 8709  32.603  16.304   0.898
49614W        W 8710  37.845  24.672  12.409
49615W        W 8711  14.740  37.042  13.939
49616W        W 8712  32.476  23.173  12.453
49617W        W 8713  18.636   7.357  12.541
49618W        W 8714   2.744  31.936   0.914
49619W        W 8715  41.393  41.938   3.827
49620W        W 8716  13.342  20.149  11.108
49621W        W 8717  19.233  14.821   1.261
49622W        W 8718  32.000  18.179  11.089
49623W        W 8719  39.474  24.719  10.945
49624W        W 8720   9.245  30.459  14.977
49625W        W 8721   8.896  26.509   3.633
49626W        W 8722   2.936  14.687  13.797
49627W        W 8723  32.635  34.952   2.894
49628W        W 8724  26.975  27.056   0.271
49629W        W 8725  29.543  25.670  12.425
49630W        W 8726  23.147   0.814   3.153
49631W        W 8727  20.591   8.220   1.872
49632W        W 8728   8.845   8.808  12.971
49633W        W 8729   6.425  24.090  13.313
49634W        W 8730  26.020  11.359  14.866
49635W        W 8731  26.607  25.123   1.897
49636W        W 8732  38.953  37.884   3.151
49637W        W 8733   4.920   3.719   2.193
49638W        W 8734  42.797  34.497  13.903
49639W        W 8735  23.114  15.248   0.767
49640W        W 8736  21.211   0.410  11.455
49641W        W 8737  14.296  36.083  12.481
49642W        W 8738  19.701  17.637   3.793
49643W        W 8739  30.042  13.229  10.508
49644W        W 8740  35.370  18.165   2.783
49645W        W 8741  39.811  44.375   0.755
49646W        W 8742  13.301   4.394  13.411
49647W        W 8743   3.951  23.626  13.492
49648W        W 8744  35.998  27.183  11.856
49649W        W 8745  38.836  23.157  12.448
49650W        W 8746  32.908  36.076   3.372
49651W        W 8747   5.916  21.099  12.503
49652W        W 8748  15.812   3.866   1.763
49653W        W 8749   9.222  24.697   5.251
49654W        W 8750  17.663  15.767  14.782
49655W        W 8751  30.421  18.679   3.381
49656W        W 8752  32.518  40.810   2.776
49657W        W 8753  13.332   9.284   0.277
49658W        W 8754  14.137   1.731  10.557
49659W        W 8755  13.291  30.133   1.433
49660W        W 8756  29.008   4.270   4.333
49661W        W 8757  42.028  28.070   1.750
49662W        W 8758   7.302  27.007  13.338
49663W        W 8759  29.479  29.532   1.296
49664W        W 8760  43.850  38.408  12.484
49665W        W 8761  38.372  15.800  10.529
49666W        W 8762  25.539  43.349   4.827
49667W        W 8763  23.020   9.310  13.791
49668W        W 8764   6.359  12.248  11.464
49669W        W 8765  25.468  21.186  13.834
49670W        W 8766  31.513  38.980  10.892
49671W        W 8767   5.870  27.614  10.995
49672W        W 8768  15.679  21.542  13.439
49673W        W 8769  18.053  41.295  13.018
49674W        W 8770   8.701  35.033  14.922
49675W        W 8771  10.333   9.710   2.689
49676W        W 8772  15.597  24.599  12.538
49677W        W 8773  23.049  30.495   1.401
49678W        W 8774  38.374   1.859   0.392
49679W        W 8775   9.153  42.914   4.762
49680W        W 8776   5.198  30.962  10.905
49681W        W 8777   4.232  20.629  14.991
49682W        W 8778   6.391   5.720  11.005
49683W        W 8779  33.587  16.154  14.922
49684W        W 8780  25.594  17.247   2.306
49685W        W 8781  16.270   3.892   3.662
49686W        W 8782  36.491  43.933   2.877
49687W        W 8783  23.985   5.793  11.066
49688W        W 8784  36.869  22.101  10.424
49689W        W 8785  42.996  37.011  12.088
49690W        W 8786   2.374  12.640   9.970
49691W        W 8787  41.474   1.853  13.515
49692W        W 8788  23.145  29.116  10.994
49693W        W 8789  42.352  10.382  11.414
49694W        W 8790  21.186  12.185   2.202
49695W        W 8791   0.299  33.907   2.784
49696W        W 8792  29.584  33.086  12.916
49697W        W 8793   3.343   0.418   4.673
49698W        W 8794  20.553  27.479  14.809
49699W        W 8795  13.164   7.832   0.451
49700W        W 8796  17.157  34.961  14.279
49701W        W 8797   7.410  18.156  13.826
49702W        W 8798  30.547   7.804  11.499
49703W        W 8799  11.182  16.246   1.450
49704W        W 8800  16.203  30.587   0.327
49705W        W 8801   1.968  38.568   2.324
49706W        W 8802  44.445  27.665  12.356
49707W        W 8803  29.986  42.799  10.480
49708W        W 8804   6.921  13.197  11.526
49709W        W 8805  37.550  32.004   0.856
49710W        W 8806  22.050  40.489   3.297
49711W        W 8807  42.293  24.559   4.773
49712W        W 8808  38.549  24.152   2.354
49713W        W 8809   2.913  32.996   1.877
49714W        W 8810  33.464  39.016   4.797
49715W        W 8811  20.272  28.055  11.068
49716W        W 8812   6.727  41.443  10.445
49717W        W 8813  10.361  34.005  14.879
49718W        W 8814  32.985  14.773   4.177
49719W        W 8815  10.363  41.799   1.282
49720W        W 8816  11.785  37.481  14.026
49721W        W 8817  15.144  10.230   2.688
49722W        W 8818  30.146  23.689   0.268
49723W        W 8819  18.194  12.168   3.237
49724W        W 8820   7.775  26.979  11.058
49725W        W 8821  10.756  20.132   0.868
49726W        W 8822  13.282  27.683  12.981
49727W        W 8823  15.645  19.139   2.823
49728W        W 8824  33.013  14.256   1.321
49729W        W 8825  10.230  29.571   1.306
49730W        W 8826  16.608  43.292   2.870
49731W        W 8827  24.037  31.587  14.512
49732W        W 8828   6.204  30.991   4.682
49733W        W 8829  32.122   8.161  12.955
49734W        W 8830  21.135  29.133  10.001
49735W        W 8831  13.722  33.499  12.572
49736W        W 8832  27.485  43.449  12.003
49737W        W 8833  37.513  14.174   0.407
49738W        W 8834  28.602  21.057  12.977
49739W        W 8835  36.967   8.202   3.844
49740W        W 8836  39.877   7.215   0.405
49741W        W 8837  41.387  18.648  11.050
49742W        W 8838  17.703  26.496  10.618
49743W        W 8839   7.863  42.337  14.291
49744W        W 8840  41.382  10.365  12.072
49745W        W 8841  28.582   9.155  13.484
49746W        W 8842   1.371  41.431  14.770
49747W        W 8843  40.917  29.464  14.032
49748W        W 8844  26.081  30.543  10.888
49749W        W 8845   7.682  12.690  12.868
49750W        W 8846  33.879  12.337   4.751
49751W        W 8847   1.345  43.004   4.815
49752W        W 8848  44.823  35.458   0.346
49753W        W 8849  10.825  11.641   1.859
49754W        W 8850  17.072   8.783  14.858
49755W        W 8851  14.646  28.030   2.796
49756W        W 8852  17.571  36.922   1.431
49757W        W 8853   9.752  19.148  13.845
49758W        W 8854  40.985   9.696   0.924
49759W        W 8855  19.593  34.105   2.286
49760W        W 8856   9.192  21.045  12.446
49761W        W 8857   2.261  10.350   2.725
49762W        W 8858  38.517   2.266   0.874
49763W        W 8859  35.427  13.298   0.367
49764W        W 8860   1.870  18.215  12.542
49765W        W 8861  23.596   5.704   3.699
49766W        W 8862  19.769   2.738   3.202
49767W        W 8863  18.155  31.455   2.230
49768W        W 8864  20.622  10.634   2.201
49769W        W 8865  42.926  16.099   0.388
49770W        W 8866  44.364  19.106   2.345
49771W        W 8867  16.740  25.688   0.456
49772W        W 8868  39.556  19.658   1.404
49773W        W 8869  14.171  36.519   2.195
49774W        W 8870  35.526  18.082   1.837
49775W        W 8871  39.546   0.958   2.243
49776W        W 8872   9.869   3.375  12.937
49777W        W 8873  16.746  25.027   3.852
49778W        W 8874  14.690  26.178  10.895
49779W        W 8875  15.235  33.503  12.093
49780W        W 8876  21.677  33.539  10.043
49781W        W 8877  10.167  13.207  10.931
49782W        W 8878  35.415  36.976  11.537
49783W        W 8879  14.812  20.029  13.324
49784W        W 8880  41.505  34.918  11.571
49785W        W 8881  23.061  13.282   3.689
49786W        W 8882  13.649  22.516  13.817
49787W        W 8883  38.863  26.101  13.413
49788W        W 8884  33.897  25.971  14.023
49789W        W 8885   6.370  19.039  12.464
49790W        W 8886  25.125  23.501  14.283
49791W        W 8887  11.305  32.552   0.842
49792W        W 8888   0.368   4.312  13.390
49793W        W 8889  14.648  39.363  14.340
49794W        W 8890  35.052  27.197   2.295
49795W        W 8891  43.961   0.756  10.946
49796W        W 8892  29.473  12.298  11.962
49797W        W 8893  14.760  34.020  13.860
49798W        W 8894  28.032  22.620  12.847
49799W        W 8895  16.677  19.137  12.482
49800W        W 8896  34.446  23.693  13.839
49801W        W 8897  29.125  24.571   3.219
49802W        W 8898  15.703  22.030  14.326
49803W        W 8899  39.954   3.818   4.738
49804W        W 8900   7.835   9.385  12.457
49805W        W 8901  41.998  27.169  11.957
49806W        W 8902  11.203   6.335   4.652
49807W        W 8903  29.015   5.230  11.991
49808W        W 8904   9.822  37.923  12.963
49809W        W 8905   0.896  30.479   4.181
49810W        W 8906   1.403  15.614   4.814
49811W        W 8907  26.483   0.828  12.906
49812W        W 8908  31.566   7.813  13.406
49813W        W 8909  40.834  30.422  11.031
49814W        W 8910  39.387  41.492  13.999
49815W        W 8911   1.454  40.901  14.845
49816W        W 8912  42.945   6.349   4.193
49817W        W 8913  41.455  22.670   0.455
49818W        W 8914  25.218  41.402  11.893
49819W        W 8915  22.522  33.419   1.273
49820W        W 8916  42.521  24.016   0.958
49821W        W 8917   4.913   4.903  11.573
49822W        W 8918  34.025  32.054   0.367
49823W        W 8919  40.906  44.779  11.963
49824W        W 8920   6.196  30.076   3.685
49825W        W 8921  43.343   5.219   2.697
49826W        W 8922   7.397   7.893   1.229
49827W        W 8923  12.786  16.103  13.381
49828W        W 8924  31.421  18.571   4.163
49829W        W 8925   2.279   2.910  13.360
49830W        W 8926  23.101   1.321   4.822
49831W        W 8927   3.348  22.727   4.199
49832W        W 8928  19.055  17.611   2.665
49833W        W 8929   3.792  29.059  14.020
49834W        W 8930  36.873  10.219   0.817
49835W        W 8931  19.246  25.505  12.389
49836W        W 8932  44.992   6.183   2.763
49837W        W 8933  23.703  38.820   0.328
49838W        W 8934  34.411  17.294   2.220
49839W        W 8935   9.187  21.104   3.174
49840W        W 8936  17.723   4.801  11.597
49841W        W 8937  32.550  41.368   3.743
49842W        W 8938   6.803   1.818  11.010
49843W        W 8939  26.537  41.504   3.724
49844W        W 8940  31.583  12.770   1.776
49845W        W 8941   9.700   5.784   1.214
49846W        W 8942   8.229  33.053   2.188
49847W        W 8943  15.231  25.995   1.434
49848W        W 8944  33.483  20.061   3.676
49849W        W 8945  29.598  21.625  12.930
49850W        W 8946  36.845  12.809  12.073
49851W        W 8947   1.459  12.290   3.727
49852W        W 8948  37.530  44.956   0.865
49853W        W 8949  36.480  35.908   0.339
49854W        W 8950  21.714  38.997  14.295
49855W        W 8951  12.263  23.095   1.871
49856W        W 8952  29.051  40.381  11.861
49857W        W 8953  41.021  39.485  11.923
49858W        W 8954  19.671  31.096   3.265
49859W        W 8955  39.045  23.722   4.273
49860W        W 8956  38.033  32.103  14.469
49861W        W 8957  39.864   8.729   4.699
49862W        W 8958  25.643  27.033   4.767
49863W        W 8959   8.351  22.519  11.487
49864W        W 8960  13.754  34.050  11.930
49865W        W 8961   9.321  30.047  14.500
49866W        W 8962  32.616  27.960   0.793
49867W        W 8963  26.657  19.707   1.445
49868W        W 8964  30.161  37.008   2.775
49869W        W 8965  29.059  39.956  11.418
49870W        W 8966  30.525  18.643  10.475
49871W        W 8967   0.363  36.841  14.500
49872W        W 8968  27.525  32.503  12.534
49873W        W 8969  34.869  25.010  12.841
49874W        W 8970  42.875  28.577   4.179
49875W        W 8971   3.859  33.614  14.866
49876W        W 8972  15.144   3.440  11.860
49877W        W 8973   8.779  34.991   4.254
49878W        W 8974  35.110  26.542   0.272
49879W        W 8975  35.604  18.704  12.986
49880W        W 8976  29.518  43.884   3.201
49881W        W 8977   0.841   5.402   2.681
49882W        W 8978  44.368  34.403  14.380
49883W        W 8979   9.179   0.378  14.459
49884W        W 8980  24.209  24.509  12.452
49885W        W 8981   9.331  41.472  10.436
49886W        W 8982  26.027  23.138  10.995
49887W        W 8983  24.723   4.254   0.449
49888W        W 8984   9.884  26.964   4.679
49889W        W 8985  31.417  25.088   2.878
49890W        W 8986  11.311  13.237   4.250
49891W        W 8987  35.891  39.879   0.895
49892W        W 8988   8.240  29.158   4.115
49893W        W 8989  17.714  33.024   0.901
49894W        W 8990  29.099  21.729   3.652
49895W        W 8991   2.890  26.660  13.545
49896W        W 8992  39.897  24.002  13.052
49897W        W 8993  15.313  11.204  12.456
49898W        W 8994   4.327   3.878   4.654
49899W        W 8995   0.756   7.286   0.332
49900W        W 8996  21.053  20.044  10.522
49901W        W 8997  13.326  22.997   2.405
49902W        W 8998  29.658  27.517  13.967
49903W        W 8999   4.746  38.461   2.888
49904W        W 9000  32.056  42.836   2.774
49905W        W 9001  43.860  33.061   0.755
49906W        W 9002   7.713  23.648   1.230
49907W        W 9003  31.564  31.009   3.701
49908W        W 9004  23.544  19.211  11.432
49909W        W 9005  30.460  44.463  11.612
49910W        W 9006   0.342  13.624  12.824
49911W        W 9007  21.045  42.285  13.872
49912W        W 9008  18.672  36.486  14.905
49913W        W 9009  42.982  25.673   5.218
49914W        W 9010  34.567  43.864   2.239
49915W        W 9011  29.643  16.648   4.189
49916W        W 9012   8.856  24.079  13.538
49917W        W 9013  32.480   8.745   3.173
49918W        W 9014   0.451   1.323   1.249
49919W        W 9015  25.019  18.752   3.191
49920W        W 9016   6.676  26.174   2.744
49921W        W 9017  24.042  43.841   2.783
49922W        W 9018  21.591  31.589  12.352
49923W        W 9019  24.051  35.603  10.988
49924W        W 9020  18.586   9.821   0.784
49925W        W 9021  24.132  31.082  13.879
49926W        W 9022  27.513  29.621   0.362
49927W        W 9023  20.696  37.976  12.529
49928W        W 9024   5.379  35.099  10.993
49929W        W 9025  30.959  12.296   4.661
49930W        W 9026  32.432  18.781  11.610
49931W        W 9027  13.676  17.169   4.154
49932W        W 9028  38.021  26.576   3.149
49933W        W 9029  28.506  38.556   1.911
49934W        W 9030  13.640  35.880   3.177
49935W        W 9031   2.231  30.438   2.746
49936W        W 9032   2.965  29.109   3.287
49937W        W 9033   0.926  21.068  11.495
49938W        W 9034  14.102  44.357   3.757
49939W        W 9035  22.640   6.840   0.353
49940W        W 9036   2.301  37.543  10.467
49941W        W 9037  26.621  43.881   0.751
49942W        W 9038  28.629  44.958  10.443
49943W        W 9039   4.430  36.089   0.412
49944W        W 9040  29.921  26.112  12.393
49945W        W 9041  27.619   7.395   4.824
49946W        W 9042  21.230  44.310  10.594
49947W        W 9043   8.161  44.870   4.344
49948W        W 9044  35.589   8.334  14.384
49949W        W 9045   4.901  35.045   3.153
49950W        W 9046   8.373  25.042  12.022
49951W        W 9047   2.758  35.087   1.758
49952W        W 9048  26.102  31.943   1.339
49953W        W 9049  17.751  14.115   0.419
49954W        W 9050   6.905  35.597   4.121
49955W        W 9051  39.422   3.718   3.645
49956W        W 9052  30.464  42.334  12.578
49957W        W 9053  36.393  19.129   0.796
49958W        W 9054   0.977  31.999   3.728
49959W        W 9055  17.134  25.657  10.947
49960W        W 9056  34.022  15.258  11.951
49961W        W 9057  21.085  36.939  12.888
49962W        W 9058  13.334  33.455  11.424
49963W        W 9059  13.790   0.354   4.153
49964W        W 9060   5.229  23.642  12.446
49965W        W 9061  20.204  28.989  14.362
49966W        W 9062  20.525   1.826   1.344
49967W        W 9063  30.944  10.323  14.804
49968W        W 9064   9.739   6.680  14.423
49969W        W 9065  36.460   0.818   2.773
49970W        W 9066  18.717  25.498   1.729
49971W        W 9067  24.566  15.279   1.247
49972W        W 9068  27.562  17.750   2.730
49973W        W 9069  41.469  22.135  14.489
49974W        W 9070  17.649  34.478  11.531
49975W        W 9071  39.369   2.381   3.752
49976W        W 9072   4.915  25.584  10.641
49977W        W 9073  22.202  39.957  14.849
49978W        W 9074  10.272  28.115  12.070
49979W        W 9075  17.116  32.894  13.875
49980W        W 9076   8.187  16.688  13.890
49981W        W 9077   7.732  29.467  13.058
49982W        W 9078  38.361   2.844   4.214
49983W        W 9079  14.613  38.344   1.812
49984W        W 9080  30.583  15.767   1.369
49985W        W 9081  18.149  37.042  12.004
49986W        W 9082   0.251  43.493  13.515
49987W        W 9083  24.503  34.953  12.055
49988W        W 9084  37.983  10.856  12.558
49989W        W 9085  42.844  32.966  13.883
49990W        W 9086  37.902  29.175   4.237
49991W        W 9087  17.155  26.177   0.772
49992W        W 9088   9.839  36.918   3.744
49993W        W 9089  17.639   3.839  12.945
49994W        W 9090   3.268  13.107   0.360
49995W        W 9091   0.349  27.551  14.412
49996W        W 9092   9.149  12.670  13.519
49997W        W 9093  42.033  24.497   0.409
49998W        W 9094  17.301   1.973   2.248
49999W        W 9095  25.713  42.425   2.283
50000W        W 9096  13.648  24.607  11.540
50001W        W 9097  17.095  43.992   3.784
50002W        W 9098  39.533  13.260  14.760
50003W        W 9099  36.508  16.218  12.052
50004W        W 9100  22.202  31.523  12.846
50005W        W 9101  37.964   5.306   4.305
50006W        W 9102  17.647   6.723  13.901
50007W        W 9103  36.583  19.641   0.903
50008W        W 9104  43.772  34.060   0.883
50009W        W 9105   0.988  28.103   5.261
50010W        W 9106  44.307  44.295   4.823
50011W        W 9107  40.514  22.719   4.179
50012W        W 9108  28.448  44.336   2.286
50013W        W 9109  13.768  29.929  12.459
50014W        W 9110  26.953  37.958  10.146
50015W        W 9111  30.982  43.000  10.051
50016W        W 9112  14.756   9.243   0.813
50017W        W 9113  31.628  31.094   4.630
50018W        W 9114  34.981  38.833   5.186
50019W        W 9115  38.366  12.347   2.372
50020W        W 9116  12.611  43.408   3.240
50021W        W 9117   7.227  11.271  12.461
50022W        W 9118  44.815  31.429  13.841
50023W        W 9119  29.960  38.858   4.700
50024W        W 9120  31.411  27.514   0.812
50025W        W 9121   4.354   0.819   4.233
50026W        W 9122  38.958  43.904   1.429
50027W        W 9123  36.997  24.679   2.768
50028W        W 9124  38.993  20.063   3.201
50029W        W 9125  28.156  20.097  13.062
50030W        W 9126  15.613  28.147   0.366
50031W        W 9127  28.997   1.915  13.794
50032W        W 9128  31.077  17.783  10.033
50033W        W 9129  38.502   7.734  10.420
50034W        W 9130  43.329  42.864  12.941
50035W        W 9131   3.233   8.384   2.223
50036W        W 9132  13.683   9.216  10.529
50037W        W 9133  21.239  28.986   2.866
50038W        W 9134  23.733  33.969  11.392
50039W        W 9135   6.263  22.169   4.168
50040W        W 9136  30.623  34.892   2.806
50041W        W 9137  14.284   1.766  12.045
50042W        W 9138  32.052  28.487  11.964
50043W        W 9139  42.370   0.805   2.677
50044W        W 9140  40.815  16.117  11.920
50045W        W 9141  12.787  25.147  13.803
50046W        W 9142  35.868  41.917  10.565
50047W        W 9143   6.386   6.420  13.525
50048W        W 9144  42.994  44.869   4.798
50049W        W 9145  29.434  17.742   2.832
50050W        W 9146   0.752  23.624   4.314
50051W        W 9147  37.005  29.433  13.933
50052W        W 9148   1.820  24.683   0.881
50053W        W 9149   0.835  40.859  11.997
50054W        W 9150   2.837  12.322   4.341
50055W        W 9151   5.713  15.278  12.363
50056W        W 9152   6.712   6.886   3.234
50057W        W 9153   4.758  10.646   1.336
50058W        W 9154  36.018  24.980  12.488
50059W        W 9155  29.573  37.848  10.490
50060W        W 9156  12.309  26.526  11.435
50061W        W 9157   7.834  20.205  10.463
50062W        W 9158  14.686  16.630   5.797
50063W        W 9159  42.910  13.644   1.802
50064W        W 9160   3.389  29.625   2.765
50065W        W 9161  32.446   6.356   3.651
50066W        W 9162  23.495   6.240   4.135
50067W        W 9163  15.689  44.907  12.447
50068W        W 9164  20.029  30.038   2.796
50069W        W 9165  39.000   0.248  14.442
50070W        W 9166  32.068  26.091   4.796
50071W        W 9167  14.242   5.345   2.178
50072W        W 9168  31.478  24.072  12.866
50073W        W 9169  36.427  19.645   5.321
50074W        W 9170  24.505  34.954  11.420
50075W        W 9171   4.816   2.400  11.936
50076W        W 9172  44.886  41.538  11.388
50077W        W 9173  30.008  33.566   2.301
50078W        W 9174  34.115  17.795   1.763
50079W        W 9175  36.098   7.860   1.377
50080W        W 9176  37.363   3.765   3.703
50081W        W 9177   5.436  23.490  13.456
50082W        W 9178   0.334   5.220  13.959
50083W        W 9179  26.107  26.991  14.301
50084W        W 9180  40.496  35.899  11.585
50085W        W 9181  20.758   0.898  13.000
50086W        W 9182   4.803  44.835  12.046
50087W        W 9183  25.210  28.182   2.238
50088W        W 9184  10.287  39.901   1.332
50089W        W 9185   2.877  37.450   5.296
50090W        W 9186  10.648  10.679  11.450
50091W        W 9187  41.343  36.029  14.820
50092W        W 9188  32.625  27.468  10.406
50093W        W 9189  15.741  41.391   9.997
50094W        W 9190  39.317  16.572   4.798
50095W        W 9191  34.397   1.313   1.761
50096W        W 9192  28.616  14.117   2.891
50097W        W 9193  14.773  14.616   0.423
50098W        W 9194  13.194  37.989  12.458
50099W        W 9195  20.118   1.902   0.425
50100W        W 9196  13.197  22.514  10.640
50101W        W 9197   2.287  43.933   0.328
50102W        W 9198   6.192   2.271   2.876
50103W        W 9199  36.356  40.042  13.490
50104W        W 9200  25.059  22.530  12.398
50105W        W 9201   1.762   3.253   1.742
50106W        W 9202  41.325  26.988   4.200
50107W        W 9203  23.601  14.135  12.566
50108W        W 9204  30.597  38.560   3.806
50109W        W 9205  40.855  39.434   0.268
50110W        W 9206  40.836   1.239  12.073
50111W        W 9207  35.055  24.571  14.872
50112W        W 9208   1.246  40.540   0.479
50113W        W 9209   9.249  38.372  12.580
50114W        W 9210  17.179   8.814  11.450
50115W        W 9211  38.417   9.775   0.763
50116W        W 9212  28.087  17.696  14.921
50117W        W 9213  12.768   9.200  13.389
50118W        W 9214  34.529  29.058  12.465
50119W        W 9215  22.178   4.699  13.399
50120W        W 9216  21.637  12.773  10.151
50121W        W 9217  42.427  30.021  12.094
50122W        W 9218  42.804  13.727   4.198
50123W        W 9219  17.121  27.945   1.854
50124W        W 9220  35.525  20.079   4.686
50125W        W 9221  24.630  27.464   3.175
50126W        W 9222  33.400  43.934  10.059
50127W        W 9223   4.377  23.561  13.853
50128W        W 9224  17.626  36.973  11.077
50129W        W 9225  43.794  23.008  14.413
50130W        W 9226  15.160  25.070   1.784
50131W        W 9227  38.917  20.046   1.741
50132W        W 9228   9.650  11.198  10.927
50133W        W 9229  30.456  23.035   4.784
50134W        W 9230  33.524   5.373   1.809
50135W        W 9231  44.836  27.591   1.896
50136W        W 9232  44.816   7.392   2.307
50137W        W 9233  15.318  43.408  14.413
50138W        W 9234  17.771  38.932  11.505
50139W        W 9235  39.995  31.148   4.226
50140W        W 9236  25.559  13.230   0.918
50141W        W 9237  41.306  19.076  10.974
50142W        W 9238  13.117  37.038  12.350
50143W        W 9239  10.356  42.950  10.460
50144W        W 9240  34.515  28.122  11.029
50145W        W 9241  41.981   1.758  12.385
50146W        W 9242  24.620  44.916   2.315
50147W        W 9243  16.688  21.585   3.239
50148W        W 9244  29.640  44.877  13.389
50149W        W 9245  28.070  12.825   2.187
50150W        W 9246   4.724  10.832  14.321
50151W        W 9247   1.823  37.423   1.890
50152W        W 9248   4.839  33.012  10.149
50153W        W 9249  16.722  29.086   0.758
50154W        W 9250  15.130  30.571   0.764
50155W        W 9251  19.079  43.295   2.811
50156W        W 9252   7.783  39.878   1.428
50157W        W 9253  30.914  31.938   2.775
50158W        W 9254  42.370   3.724  11.937
50159W        W 9255  41.959  32.392  11.034
50160W        W 9256  19.251  25.962   3.337
50161W        W 9257  39.061  24.009   3.267
50162W        W 9258   2.360  35.387  13.377
50163W        W 9259  39.004  29.983   1.857
50164W        W 9260  44.786   8.239   0.469
50165W        W 9261   1.752  18.114  13.453
50166W        W 9262  25.166  13.657   0.445
50167W        W 9263  23.547  21.138   4.288
50168W        W 9264  39.324  13.340  14.326
50169W        W 9265  26.504  33.005  14.885
50170W        W 9266   7.906  17.264   1.240
50171W        W 9267  24.503   2.331   1.714
50172W        W 9268  25.005  44.489   1.402
50173W        W 9269  21.184  32.534   1.417
50174W        W 9270   1.939  14.293  13.837
50175W        W 9271  33.051  20.105  13.349
50176W        W 9272   7.694  23.579   4.318
50177W        W 9273  18.253  27.445  11.032
50178W        W 9274  24.008  22.049   3.741
50179W        W 9275   1.271  21.155   0.866
50180W        W 9276  14.747  26.489  11.968
50181W        W 9277  30.574  15.725   2.382
50182W        W 9278   2.431   6.190  14.776
50183W        W 9279  39.507  20.158  12.369
50184W        W 9280  41.008  22.545  10.906
50185W        W 9281  39.998  12.766  14.396
50186W        W 9282  28.648  41.873   1.769
50187W        W 9283  24.640   3.285   3.746
50188W        W 9284   1.932  26.114   1.389
50189W        W 9285  21.602  12.788   0.772
50190W        W 9286   0.970  41.362  11.392
50191W        W 9287   9.734  35.068  10.987
50192W        W 9288  15.817   0.987  12.029
50193W        W 9289  34.488  43.879  12.531
50194W        W 9290  27.665  21.159   3.193
50195W        W 9291  12.343  25.963   1.425
50196W        W 9292  25.001  29.570   1.805
50197W        W 9293  24.493  39.453   2.801
50198W        W 9294  26.046  20.072  14.387
50199W        W 9295  31.590  43.935   1.859
50200W        W 9296   9.264  32.610   1.734
50201W        W 9297  29.172  26.700   0.784
50202W        W 9298  11.138  34.964  11.927
50203W        W 9299  15.623  21.156  11.408
50204W        W 9300  13.270  40.924  14.433
50205W        W 9301  39.511  26.645  11.907
50206W        W 9302  28.145  10.151  12.896
50207W        W 9303  38.488  14.207  11.497
50208W        W 9304   8.832  43.793   1.823
50209W        W 9305  12.322  18.632   2.321
50210W        W 9306  33.091  27.498  13.358
50211W        W 9307  41.434  16.690  11.890
50212W        W 9308   9.847  42.461  10.914
50213W        W 9309  35.580  29.543  13.921
50214W        W 9310   8.407  23.173  11.556
50215W        W 9311  29.077  12.232  13.347
50216W        W 9312  24.610  39.872   3.336
50217W        W 9313   3.244   6.768   3.312
50218W        W 9314  29.924  18.764   3.145
50219W        W 9315  41.027  38.532  12.411
50220W        W 9316  39.437  35.042  13.457
50221W        W 9317  24.520  32.895   1.440
50222W        W 9318  12.355  37.413   2.768
50223W        W 9319  25.580   6.739   1.847
50224W        W 9320   5.908  33.088  13.410
50225W        W 9321  19.676  13.824   4.239
50226W        W 9322  35.055  17.301   2.190
50227W        W 9323  17.112  39.925   5.183
50228W        W 9324  12.738   1.348   1.251
50229W        W 9325  23.536  43.407  14.286
50230W        W 9326  41.833   5.760  11.388
50231W        W 9327  22.662  35.021  11.496
50232W        W 9328  12.653  23.039   2.378
50233W        W 9329  26.185  14.795  14.981
50234W        W 9330  18.654  36.951   1.850
50235W        W 9331  32.105   9.717   1.699
50236W        W 9332   6.294  43.816  14.876
50237W        W 9333  14.166   3.356  12.974
50238W        W 9334  16.204  42.784  12.383
50239W        W 9335  18.103  29.622   1.933
50240W        W 9336  20.590  13.273  11.494
50241W        W 9337  10.248  33.018  13.526
50242W        W 9338  15.309   8.297   0.452
50243W        W 9339  29.976  14.107  11.575
50244W        W 9340  22.130  33.068  10.423
50245W        W 9341  33.434  19.725  10.427
50246W        W 9342   7.900  18.281  14.294
50247W        W 9343  10.147   0.843  13.418
50248W        W 9344  38.386   6.889   2.359
50249W        W 9345  26.508  24.547   0.454
50250W        W 9346  38.892   3.943   3.644
50251W        W 9347  31.470  40.935  13.327
50252W        W 9348   9.799   2.827  10.437
50253W        W 9349  37.486  13.311  14.930
50254W        W 9350   1.287  12.228   1.401
50255W        W 9351  32.036  38.828   5.181
50256W        W 9352  16.721  30.635   3.833
50257W        W 9353  44.934   5.291  10.463
50258W        W 9354  16.314  37.918   4.685
50259W        W 9355  32.123  38.353  10.411
50260W        W 9356  16.801  21.229   3.297
50261W        W 9357  22.034   9.779   2.212
50262W        W 9358  22.746   1.391  12.948
50263W        W 9359  11.675  28.975   3.329
50264W        W 9360  20.098  27.025  12.545
50265W        W 9361  43.284  20.765  14.939
50266W        W 9362  35.420  36.496  14.460
50267W        W 9363  17.216  24.482   4.185
50268W        W 9364  22.210  42.295   2.194
50269W        W 9365   0.769  33.448   3.161
50270W        W 9366  36.906   5.826   4.692
50271W        W 9367  24.630  43.476  11.961
50272W        W 9368  27.095   8.698  10.456
50273W        W 9369   7.822  26.200  13.481
50274W        W 9370  23.489  38.333  12.522
50275W        W 9371  17.756  36.051  14.406
50276W        W 9372   3.423  13.271   2.368
50277W        W 9373  35.464  18.176  13.939
50278W        W 9374  23.537  14.183   1.755
50279W        W 9375  18.766  42.777  13.417
50280W        W 9376  42.292  40.506  12.488
50281W        W 9377  37.358   3.834  10.414
50282W        W 9378  15.108  23.070  10.639
50283W        W 9379  28.675  40.995  12.922
50284W        W 9380   4.375  38.539  13.014
50285W        W 9381  22.562  20.233   2.276
50286W        W 9382  28.671  22.613  14.336
50287W        W 9383  16.262  37.359  12.869
50288W        W 9384  37.362  30.587   4.119
50289W        W 9385  14.306   8.876  14.476
50290W        W 9386  37.866  32.399   1.360
50291W        W 9387  44.279  10.879  11.971
50292W        W 9388  23.213  25.205   3.262
50293W        W 9389   8.680   7.680   0.806
50294W        W 9390   7.321  20.652   0.935
50295W        W 9391   6.307   3.225   0.967
50296W        W 9392   5.198  27.135   2.855
50297W        W 9393  26.508  12.633  11.118
50298W        W 9394  44.010  11.220   4.143
50299W        W 9395  35.358  28.076   2.197
50300W        W 9396  29.068  35.580   2.229
50301W        W 9397  11.145  21.102   1.366
50302W        W 9398  24.073   5.223  13.043
50303W        W 9399  37.419   1.950  11.033
50304W        W 9400  15.783  19.687  14.880
50305W        W 9401  36.842  22.655   4.213
50306W        W 9402  33.060  18.049   1.865
50307W        W 9403  36.013   1.898   0.747
50308W        W 9404  22.545  12.814   0.252
50309W        W 9405  10.840  38.538   3.834
50310W        W 9406  26.209  27.669  10.624
50311W        W 9407  21.682  44.475   3.794
50312W        W 9408  33.625  22.699   4.232
50313W        W 9409  27.489  18.086  14.765
50314W        W 9410   6.343  34.887   5.142
50315W        W 9411  28.475  17.650  12.863
50316W        W 9412  38.436  38.944   0.296
50317W        W 9413  27.058   6.355  13.810
50318W        W 9414   9.219  10.683  14.424
50319W        W 9415  13.622  27.054  11.480
50320W        W 9416  25.524  38.016   2.772
50321W        W 9417  32.631  41.879   4.703
50322W        W 9418  18.121  31.933  13.317
50323W        W 9419  31.029   1.917  10.016
50324W        W 9420  27.623  21.691   1.369
50325W        W 9421  14.788  42.957   1.419
50326W        W 9422  40.414  14.140  14.835
50327W        W 9423  33.623  13.280   1.739
50328W        W 9424  29.509  13.844  14.389
50329W        W 9425  19.718   4.265  12.391
50330W        W 9426  12.337  17.788  14.293
50331W        W 9427   4.702  26.609   1.314
50332W        W 9428  20.637  36.503   1.239
50333W        W 9429  20.551  27.545  10.447
50334W        W 9430  29.541  23.692   4.177
50335W        W 9431  39.560   1.458   0.311
50336W        W 9432  25.561  14.740   2.734
50337W        W 9433   6.422  27.108   2.686
50338W        W 9434  18.105  38.480  12.857
50339W        W 9435  37.004   1.865   2.685
50340W        W 9436  21.699  27.532   4.735
50341W        W 9437  36.383   3.435  12.408
50342W        W 9438  32.942  41.856  13.032
50343W        W 9439   0.366  19.595   0.388
50344W        W 9440  35.871  42.992  11.427
50345W        W 9441  33.083   2.878  11.586
50346W        W 9442  20.116  44.860  14.941
50347W        W 9443  37.347   8.167   4.633
50348W        W 9444  12.276  38.347   2.415
50349W        W 9445  43.876   5.241  11.876
50350W        W 9446  40.988  44.280  10.466
50351W        W 9447  32.509   7.383  14.820
50352W        W 9448  25.965  11.761  13.814
50353W        W 9449  43.430   9.868  11.504
50354W        W 9450   6.332   9.193   4.187
50355W        W 9451  36.990  21.561   3.257
50356W        W 9452  40.942  42.004  14.488
50357W        W 9453  31.404  33.025   1.854
50358W        W 9454  44.785   1.747  10.946
50359W        W 9455  32.542   2.967  12.865
50360W        W 9456  39.936   1.466   1.803
50361W        W 9457  24.593  23.108   3.644
50362W        W 9458   2.448  38.398  10.526
50363W        W 9459  18.253  27.176  10.462
50364W        W 9460  20.641  30.604   2.722
50365W        W 9461  33.119  38.517   4.817
50366W        W 9462  11.757  11.861  12.003
50367W        W 9463  40.906  44.992  13.542
50368W        W 9464  36.978  12.769  12.826
50369W        W 9465   4.297  26.647  12.955
50370W        W 9466  31.415  30.099  10.953
50371W        W 9467  31.934  15.773   9.989
50372W        W 9468  42.819  25.700   1.916
50373W        W 9469  44.262  10.869  11.425
50374W        W 9470  26.140  13.820  10.975
50375W        W 9471   6.839  15.282   3.298
50376W        W 9472  24.647  17.216   5.307
50377W        W 9473  31.056  20.534   0.763
50378W        W 9474  32.573  34.874  10.154
50379W        W 9475  31.529  36.358  10.971
50380W        W 9476  18.566  38.834  13.842
50381W        W 9477  25.651  39.880  11.088
50382W        W 9478  30.437  30.152   3.190
50383W        W 9479   2.934  33.571  11.499
50384W        W 9480   3.342  43.508  10.581
50385W        W 9481  35.591  41.451  10.910
50386W        W 9482  23.185   1.381  14.819
50387W        W 9483  13.160  43.823  14.341
50388W        W 9484   9.166   2.876   1.707
50389W        W 9485  35.475  44.494   1.728
50390W        W 9486  38.543  31.981  13.809
50391W        W 9487  11.832  31.098   1.254
50392W        W 9488  36.048   5.773   4.614
50393W        W 9489  24.662  25.639  11.896
50394W        W 9490  10.659   3.320  10.912
50395W        W 9491  14.644   5.371   3.682
50396W        W 9492   4.448   1.941   3.352
50397W        W 9493  30.655  21.518   3.181
50398W        W 9494  42.816  16.796   4.222
50399W        W 9495  42.432  17.732  13.849
50400W        W 9496   2.453  42.509  13.470
50401W        W 9497  29.142  34.584  12.500
50402W        W 9498   4.300  29.442   3.188
50403W        W 9499  30.558  39.529   4.794
50404W        W 9500  18.284  36.939  13.838
50405W        W 9501  22.182  34.089  13.466
50406W        W 9502  19.719  42.436  13.541
50407W        W 9503  15.769   4.346  14.926
50408W        W 9504   0.251  29.946  12.078
50409W        W 9505  37.547  33.386  13.496
50410W        W 9506  44.963  40.935  12.838
50411W        W 9507  22.695   5.428   3.796
50412W        W 9508  32.074  29.474  13.797
50413W        W 9509  29.162   4.373   2.238
50414W        W 9510  13.282   3.363  14.436
50415W        W 9511   0.332  32.574  14.997
50416W        W 9512  35.511  25.102   4.199
50417W        W 9513  14.768  18.235  12.406
50418W        W 9514  42.479  33.420   1.411
50419W        W 9515  17.756  18.737  12.386
50420W        W 9516  20.684   4.890  13.486
50421W        W 9517  31.096  11.170   0.275
50422W        W 9518   7.871  39.366   1.381
50423W        W 9519   3.933  12.124   3.669
50424W        W 9520  23.646  26.981  10.911
50425W        W 9521  23.125  30.548   2.392
50426W        W 9522   5.695  10.731  13.820
50427W        W 9523   5.784  17.083  14.405
50428W        W 9524  25.636   0.909  11.464
50429W        W 9525  30.458   3.938   1.258
50430W        W 9526  15.678  22.206  11.129
50431W        W 9527  20.610  13.245   1.899
50432W        W 9528  33.603  11.747  12.403
50433W        W 9529  10.205  36.435  11.531
50434W        W 9530  25.162   6.228  13.980
50435W        W 9531  35.895  35.971   0.474
50436W        W 9532   6.902  40.932  14.407
50437W        W 9533  11.789  23.570  12.928
50438W        W 9534  29.461  42.947   1.244
50439W        W 9535  15.140  19.758   4.290
50440W        W 9536  19.598  38.896   0.403
50441W        W 9537  41.991  42.964  10.095
50442W        W 9538   1.790  28.638  11.871
50443W        W 9539  14.589  10.280   2.716
50444W        W 9540  13.194   3.223   3.230
50445W        W 9541  44.819  14.610   1.286
50446W        W 9542  35.080  27.031  13.942
50447W        W 9543  10.329  30.463   1.860
50448W        W 9544  34.076  35.078   3.743
50449W        W 9545  41.318  42.511  14.920
50450W        W 9546  36.498  37.451   1.263
50451W        W 9547  22.516  20.109  14.026
50452W        W 9548  37.970   1.801   0.822
50453W        W 9549  36.954  26.623  12.078
50454W        W 9550  26.073  10.267   3.821
50455W        W 9551  25.684  43.916   0.315
50456W        W 9552  25.662  15.711  11.542
50457W        W 9553  12.342  19.194  12.091
50458W        W 9554  35.469  28.117   0.261
50459W        W 9555  12.711   2.951   3.846
50460W        W 9556  40.367  13.184   0.765
50461W        W 9557  25.600  15.183   4.733
50462W        W 9558   7.328  19.632  11.612
50463W        W 9559  39.869  39.032   4.606
50464W        W 9560   4.860  44.324  10.632
50465W        W 9561  15.598   4.716   4.242
50466W        W 9562  32.609  39.559   4.806
50467W        W 9563   7.870  28.037  10.983
50468W        W 9564  20.596  33.390  12.920
50469W        W 9565   4.286  37.495  12.347
50470W        W 9566  19.282   4.349  14.758
50471W        W 9567  13.719   7.417  10.599
50472W        W 9568  16.577   1.895   2.668
50473W        W 9569  30.565  18.604  12.998
50474W        W 9570  10.332  41.927   0.464
50475W        W 9571  27.074  24.637   2.310
50476W        W 9572  28.997  35.964   0.410
50477W        W 9573  26.007  30.476  10.537
50478W        W 9574  22.651  12.243   3.674
50479W        W 9575   4.332   1.470   4.260
50480W        W 9576  12.152  38.050  11.912
50481W        W 9577  30.508  42.015   3.697
50482W        W 9578  20.676   7.270   2.219
50483W        W 9579  30.059   3.916   2.806
50484W        W 9580   6.861  40.542  11.056
50485W        W 9581  10.271  37.421   5.190
50486W        W 9582  12.169  26.590  12.830
50487W        W 9583  31.939  39.462  12.068
50488W        W 9584  14.257  27.034  13.403
50489W        W 9585   4.932  42.930   2.861
50490W        W 9586   0.839   4.209   0.807
50491W        W 9587  27.138  30.650  12.914
50492W        W 9588  32.102  26.580  11.585
50493W        W 9589   4.741  23.077   1.241
50494W        W 9590  33.106  40.314  13.943
50495W        W 9591   2.740  27.119   5.134
50496W        W 9592  16.187  23.159  13.026
50497W        W 9593  11.365   8.901   1.293
50498W        W 9594  41.961  44.295   1.446
50499W        W 9595  44.792   9.247   4.150
50500W        W 9596  11.857  30.138  11.523
50501W        W 9597  44.860  41.947   4.621
50502W        W 9598  31.439  27.565   3.817
50503W        W 9599  35.565  43.798   0.925
50504W        W 9600  44.919  27.057  11.587
50505W        W 9601  17.642   5.285   2.342
50506W        W 9602   1.942  18.068   1.724
50507W        W 9603  31.059  40.515   2.196
50508W        W 9604  10.167   9.330  10.895
50509W        W 9605  17.152  41.457   1.411
50510W        W 9606   5.232   9.163   2.732
50511W        W 9607  18.734   5.372  13.419
50512W        W 9608  19.237  28.012  14.308
50513W        W 9609   2.373  30.571  13.041
50514W        W 9610  11.324  34.411  10.583
50515W        W 9611  28.094  29.667  10.602
50516W        W 9612   6.419  29.994  12.425
50517W        W 9613   7.362  18.225  12.348
50518W        W 9614  41.415  35.962  11.057
50519W        W 9615  15.635  40.835  12.948
50520W        W 9616  32.897  41.842   0.822
50521W        W 9617  19.203  42.472   1.825
50522W        W 9618  27.493  18.705   3.856
50523W        W 9619  23.585  10.778  14.984
50524W        W 9620  43.857  37.913  12.505
50525W        W 9621  37.951  30.448   4.287
50526W        W 9622   4.396  32.008   1.748
50527W        W 9623  39.894   4.793   2.762
50528W        W 9624  26.186   9.694   3.237
50529W        W 9625   1.848   5.724   0.441
50530W        W 9626  27.668   4.265  13.378
50531W        W 9627   9.222  22.729   1.716
50532W        W 9628  34.923  31.897   2.670
50533W        W 9629  25.110  32.068   1.925
50534W        W 9630   9.238   7.301   2.725
50535W        W 9631  35.464  27.089   2.839
50536W        W 9632  39.508   1.883   3.764
50537W        W 9633  25.644   1.815  10.984
50538W        W 9634  16.255  36.471   4.118
50539W        W 9635  43.921  15.802  13.999
50540W        W 9636  18.183   4.218   1.365
50541W        W 9637   7.225  21.100   4.220
50542W        W 9638   7.798  35.044   4.798
50543W        W 9639  17.667  35.463  11.942
50544W        W 9640  34.882  13.243  14.286
50545W        W 9641  39.951  44.933   3.326
50546W        W 9642   8.880  24.216   1.448
50547W        W 9643  10.255   5.321   3.300
50548W        W 9644  10.764  12.759   4.219
50549W        W 9645  29.171  36.982   3.735
50550W        W 9646  20.702  21.707  12.843
50551W        W 9647   4.847   1.953  14.413
50552W        W 9648   2.264  30.129   2.696
50553W        W 9649  24.009   6.751  10.970
50554W        W 9650   9.354  32.438   1.415
50555W        W 9651   0.433  36.035  12.548
50556W        W 9652  40.937  10.670   4.794
50557W        W 9653  41.905  12.119   0.399
50558W        W 9654   8.817   6.335   3.300
50559W        W 9655  38.889  31.445  10.404
50560W        W 9656  41.369  25.116   0.422
50561W        W 9657  22.218  10.699   2.786
50562W        W 9658  12.175  39.996   1.888
50563W        W 9659   4.769   6.406  14.440
50564W        W 9660   4.856   9.717   2.264
50565W        W 9661  22.677  20.258   1.393
50566W        W 9662  31.074  38.932   0.942
50567W        W 9663  37.985  14.292  11.929
50568W        W 9664  32.565  33.496   4.657
50569W        W 9665  42.003  19.689  11.517
50570W        W 9666  41.501  30.132   1.752
50571W        W 9667  37.541  25.695   3.844
50572W        W 9668  36.876  27.644   0.882
50573W        W 9669  32.968   2.436   0.419
50574W        W 9670  18.189  32.565   1.212
50575W        W 9671  24.705   6.892   1.263
50576W        W 9672  27.996   9.235   3.684
50577W        W 9673  36.088  33.420   0.367
50578W        W 9674   2.741   0.283  14.820
50579W        W 9675  29.128   9.846   3.327
50580W        W 9676   3.389  15.115   3.186
50581W        W 9677  40.476  13.347   4.336
50582W        W 9678  18.180  29.509   0.742
50583W        W 9679  23.218  22.729   0.404
50584W        W 9680  10.807  27.036  14.021
50585W        W 9681  27.639   0.819  11.516
50586W        W 9682  29.054  23.218  11.909
50587W        W 9683   6.331  34.945   3.234
50588W        W 9684  11.725  12.259  11.065
50589W        W 9685  20.046  13.829  10.028
50590W        W 9686   2.758  33.502  10.943
50591W        W 9687  37.531  30.158  10.500
50592W        W 9688  11.785  41.496   4.765
50593W        W 9689   5.360  13.282  10.640
50594W        W 9690  18.696  42.490  13.384
50595W        W 9691   6.229  10.725   3.202
50596W        W 9692   4.855  31.123  13.913
50597W        W 9693  10.711  29.998  12.876
50598W        W 9694  38.875   5.328  10.580
50599W        W 9695  33.607  34.526  12.565
50600W        W 9696  11.683  11.275  13.887
50601W        W 9697  30.556  38.964   0.795
50602W        W 9698  36.536  16.116  11.497
50603W        W 9699   0.247   3.364   1.252
50604W        W 9700   5.773  33.393   2.411
50605W        W 9701   0.889   4.751   0.883
50606W        W 9702   0.773  13.801   0.773
50607W        W 9703   1.881   3.431  13.468
50608W        W 9704  26.005  42.966  14.851
50609W        W 9705  30.522  11.328   2.322
50610W        W 9706   9.305  27.448  10.901
50611W        W 9707  37.876  19.760  10.433
50612W        W 9708  10.278  33.398  13.540
50613W        W 9709  28.989  44.395   2.229
50614W        W 9710  32.489  26.104  12.578
50615W        W 9711   1.833   6.843   2.355
50616W        W 9712  18.738  38.026   4.651
50617W        W 9713  40.388  37.971   3.825
50618W        W 9714  34.457   9.310   0.402
50619W        W 9715   4.292   5.412   3.217
50620W        W 9716  31.544   0.939  13.309
50621W        W 9717   9.734   9.826   1.254
50622W        W 9718  36.048  33.394   4.721
50623W        W 9719  16.211   9.230  13.485
50624W        W 9720   8.883  12.792   1.840
50625W        W 9721  30.470  32.556  12.882
50626W        W 9722  13.764  37.578   3.863
50627W        W 9723  20.559  35.896  13.999
50628W        W 9724  20.643  31.899   0.903
50629W        W 9725  26.551   7.681   0.466
50630W        W 9726  43.417  14.777   3.669
50631W        W 9727  26.661  37.959  11.005
50632W        W 9728  42.992  44.404   0.773
50633W        W 9729  28.510   6.385  13.824
50634W        W 9730  26.679  35.921   3.792
50635W        W 9731   0.965  17.296   1.776
50636W        W 9732  32.621  35.406  11.035
50637W        W 9733   7.667  39.997   4.674
50638W        W 9734  39.868  35.033   3.186
50639W        W 9735  19.253  32.975  11.551
50640W        W 9736   2.340   9.322  12.964
50641W        W 9737  31.584  31.587  13.333
50642W        W 9738  11.257   7.336   2.291
50643W        W 9739   6.182  36.863   0.378
50644W        W 9740   8.768  23.003   1.844
50645W        W 9741  37.918   7.365  11.388
50646W        W 9742  29.941   2.386  12.923
50647W        W 9743  44.311  16.573   4.824
50648W        W 9744  36.063  22.696  12.563
50649W        W 9745  37.523  35.453  13.955
50650W        W 9746  28.162  20.235   2.348
50651W        W 9747   8.816  28.527   1.744
50652W        W 9748  15.685  44.259   0.483
50653W        W 9749  14.736  19.619   4.212
50654W        W 9750  12.846  19.133  11.122
50655W        W 9751  14.266  40.897  10.958
50656W        W 9752  31.072  41.896  14.381
50657W        W 9753   8.357  26.952   3.153
50658W        W 9754  30.572   4.326  10.110
50659W        W 9755  20.172  44.430  14.963
50660W        W 9756  19.637  18.160  12.885
50661W        W 9757  44.905   4.290  13.048
50662W        W 9758  41.435  38.847  13.960
50663W        W 9759  33.401   1.794   0.755
50664W        W 9760  28.657  38.875  12.516
50665W        W 9761  37.876  31.586   0.327
50666W        W 9762  18.113   0.880  14.444
50667W        W 9763  18.085   8.302   1.867
50668W        W 9764  23.165  17.168   1.421
50669W        W 9765  18.133  41.902   3.760
50670W        W 9766  17.707  10.224  14.498
50671W        W 9767  17.294  32.596   9.959
50672W        W 9768  15.717   0.252   3.828
50673W        W 9769  40.319  40.901  11.924
50674W        W 9770  32.542  27.067   0.883
50675W        W 9771  21.029  37.427   0.259
50676W        W 9772  43.956  36.451  14.359
50677W        W 9773  25.652  31.132  13.914
50678W        W 9774   3.822  12.163  11.046
50679W        W 9775  34.394   4.913   4.811
50680W        W 9776  37.492  21.700   3.660
50681W        W 9777  15.636   5.903   0.300
50682W        W 9778  36.505  25.056   2.737
50683W        W 9779  34.878  41.465   5.139
50684W        W 9780  22.167  39.884  13.050
50685W        W 9781   6.389   8.373  14.382
50686W        W 9782  41.792  13.321  11.992
50687W        W 9783  32.139  26.953  12.419
50688W        W 9784  27.193  43.875  13.984
50689W        W 9785  27.045  39.541   0.787
50690W        W 9786   1.253   2.314   4.753
50691W        W 9787   9.673  18.720  12.508
50692W        W 9788  22.218  41.359   1.238
50693W        W 9789  13.174  31.102   5.320
50694W        W 9790   3.880  22.730  10.572
50695W        W 9791  25.183  23.592   0.439
50696W        W 9792  33.605  30.950  14.430
50697W        W 9793  35.364  18.214  11.517
50698W        W 9794  38.036  27.595   3.259
50699W        W 9795  39.402  39.970  12.849
50700W        W 9796   7.743  35.389  12.027
50701W        W 9797  30.622  24.113   2.797
50702W        W 9798  35.103   1.448   2.852
50703W        W 9799  28.582  30.625  10.525
50704W        W 9800  14.225  18.586  14.404
50705W        W 9801  16.295  12.293  14.275
50706W        W 9802  28.983  39.935   4.736
50707W        W 9803  24.051  27.658   0.767
50708W        W 9804  24.562  35.958   2.817
50709W        W 9805   4.359  36.058  14.988
50710W        W 9806  32.937   6.818  13.007
50711W        W 9807  37.063  36.420   3.292
50712W        W 9808  11.733  23.212   0.875
50713W        W 9809   4.758  23.735  11.116
50714W        W 9810  25.659  40.020   4.818
50715W        W 9811  26.162   3.441   3.258
50716W        W 9812  30.045  31.436   4.795
50717W        W 9813   3.906   1.467   4.618
50718W        W 9814   8.316  39.508  13.050
50719W        W 9815  29.586   5.727  13.985
50720W        W 9816  17.293  12.273  14.475
50721W        W 9817  20.587  14.160   2.858
50722W        W 9818  21.197  24.620   5.276
50723W        W 9819  26.524  33.467  12.976
50724W        W 9820  32.632  44.929  12.877
50725W        W 9821  32.939  11.165  11.043
50726W        W 9822  27.646  18.266   2.697
50727W        W 9823  11.233   9.696  11.415
50728W        W 9824  34.479   9.221   1.250
50729W        W 9825  26.597  40.955  14.365
50730W        W 9826  24.509  10.837   5.263
50731W        W 9827  20.739  43.371  11.934
50732W        W 9828  29.941  18.546   3.840
50733W        W 9829  34.107   3.236  12.364
50734W        W 9830  44.399  39.920  13.408
50735W        W 9831  43.292  18.117  11.876
50736W        W 9832  42.815   4.274   3.724
50737W        W 9833  23.611   3.846   3.361
50738W        W 9834  25.060  34.606  12.933
50739W        W 9835  27.152  25.531  14.854
50740W        W 9836  34.468  42.014  14.917
50741W        W 9837  21.052   3.356   5.255
50742W        W 9838  25.029  32.495  13.432
50743W        W 9839  44.972  13.668  10.998
50744W        W 9840  29.617  27.539   1.822
50745W        W 9841  43.887  35.463  11.387
50746W        W 9842  39.411   0.812  11.102
50747W        W 9843  40.941  39.824   3.660
50748W        W 9844  19.563   3.380   0.828
50749W        W 9845  12.359  31.635  12.550
50750W        W 9846  33.415  42.788  12.941
50751W        W 9847  14.738  33.009  13.986
50752W        W 9848  22.681  30.528  11.890
50753W        W 9849  23.106  36.091  14.424
50754W        W 9850  44.832  30.418   0.481
50755W        W 9851   4.747  28.171   1.270
50756W        W 9852  10.807  12.219  12.374
50757W        W 9853  22.700  39.505   2.858
50758W        W 9854  27.027  26.520  12.865
50759W        W 9855  30.986  36.029   5.250
50760W        W 9856   6.203  38.005  13.414
50761W        W 9857   7.704  11.833  10.970
50762W        W 9858  31.003  14.699  13.950
50763W        W 9859  16.576  11.257  11.908
50764W        W 9860   4.217  42.353   1.861
50765W        W 9861  11.285   7.381  12.891
50766W        W 9862   6.877  19.683  14.482
50767W        W 9863  44.487  21.550   1.776
50768W        W 9864   5.369  36.535  11.573
50769W        W 9865   7.770   2.274   0.854
50770W        W 9866  24.093  30.032   4.185
50771W        W 9867   9.184  29.965   3.822
50772W        W 9868   6.729  25.485  10.096
50773W        W 9869  28.518  11.215  11.509
50774W        W 9870   0.412  13.601  13.911
50775W        W 9871  34.053   7.401   2.380
50776W        W 9872  44.883  30.953   3.298
50777W        W 9873  22.237  10.759   1.433
50778W        W 9874  15.228  17.775  11.122
50779W        W 9875  23.508   9.825   0.432
50780W        W 9876  24.537   0.869   0.342
50781W        W 9877  21.219   7.408  10.070
50782W        W 9878   0.830  40.469   0.901
50783W        W 9879  38.948   1.324  14.867
50784W        W 9880  12.776  29.471  12.060
50785W        W 9881  18.119  12.783   2.743
50786W        W 9882  18.206   7.335  10.544
50787W        W 9883   8.717  16.611   1.820
50788W        W 9884   9.723   5.293  14.959
50789W        W 9885  16.251  44.861  10.901
50790W        W 9886  25.161  32.476  10.546
50791W        W 9887  20.553  27.971   2.334
50792W        W 9888  15.787   5.842  12.492
50793W        W 9889  24.167  23.190  10.475
50794W        W 9890   2.426  43.364   1.875
50795W        W 9891  35.395  30.559  14.008
50796W        W 9892   0.763  38.848  14.331
50797W        W 9893  36.099  21.551   0.947
50798W        W 9894  26.104   7.882   3.353
50799W        W 9895  33.933  12.132   4.292
50800W        W 9896  34.375  42.920   2.768
50801W        W 9897   9.244   2.739  11.505
50802W        W 9898  36.551  24.182  13.876
50803W        W 9899  14.778   5.350  13.938
50804W        W 9900  17.642  15.805  12.472
50805W        W 9901  44.411  23.199  12.418
50806W        W 9902  42.819  32.121  11.446
50807W        W 9903  40.487   5.312  13.501
50808W        W 9904  13.768  44.340   1.836
50809W        W 9905  29.057  33.588   2.728
50810W        W 9906  41.454  33.593  14.489
50811W        W 9907  33.104  42.835   5.122
50812W        W 9908  14.228  16.783  14.360
50813W        W 9909  41.002  27.994  13.891
50814W        W 9910  26.609  14.652  11.488
50815W        W 9911  43.777  15.649  14.848
50816W        W 9912  13.649  44.884   3.334
50817W        W 9913   6.772  15.111  11.537
50818W        W 9914   3.326   7.240   2.310
50819W        W 9915  18.242  32.003   1.887
50820W        W 9916  12.652  43.436  10.620
50821W        W 9917  26.611  28.461  10.562
50822W        W 9918  14.668  22.152  13.321
50823W        W 9919  39.961  43.916   2.299
50824W        W 9920  30.144   8.804   4.274
50825W        W 9921  25.967  24.053   4.772
50826W        W 9922  41.027  37.380  12.453
50827W        W 9923  44.983  32.997   1.702
50828W        W 9924   5.784  25.182  14.902
50829W        W 9925   7.839  27.662   0.432
50830W        W 9926  23.995   0.949   2.179
50831W        W 9927  28.448  13.715  12.485
50832W        W 9928   9.791   7.816  11.890
50833W        W 9929  33.970   1.971  12.349
50834W        W 9930  27.079  32.523  13.959
50835W        W 9931  14.097  15.659  12.457
50836W        W 9932  41.504  29.166   2.257
50837W        W 9933  17.723  35.458   4.344
50838W        W 9934  33.083  10.209  12.540
50839W        W 9935  19.156  11.842   2.329
50840W        W 9936  26.064  21.665   3.854
50841W        W 9937  13.249   2.425  10.429
50842W        W 9938  30.089   0.409  14.861
50843W        W 9939  40.975  10.701   2.224
50844W        W 9940  30.936  13.226   1.374
50845W        W 9941  37.445  28.645  12.931
50846W        W 9942  32.399  26.616   1.412
50847W        W 9943  41.933  18.120   4.219
50848W        W 9944  21.753  24.499  11.861
50849W        W 9945  20.180  11.286   0.354
50850W        W 9946  44.969  22.043   0.392
50851W        W 9947  28.550  15.672  13.864
50852W        W 9948  39.541  29.008   0.820
50853W        W 9949  44.891  16.232   3.252
50854W        W 9950   3.436  25.528  11.966
50855W        W 9951  11.744  28.946  12.990
50856W        W 9952   6.842  35.480   3.244
50857W        W 9953  17.066  36.447  12.494
50858W        W 9954  30.431  44.923  13.848
50859W        W 9955  44.956  39.548   4.224
50860W        W 9956   5.366  23.698  12.943
50861W        W 9957   7.885   9.861  13.468
50862W        W 9958   4.444  43.513   2.768
50863W        W 9959  42.803   9.832  12.381
50864W        W 9960  29.955   4.896  10.464
50865W        W 9961  26.175   8.295   1.333
50866W        W 9962   8.820  19.102   2.820
50867W        W 9963  39.366  36.940  13.496
50868W        W 9964  44.896  13.621  12.983
50869W        W 9965  16.609  18.685   3.819
50870W        W 9966  19.687   5.273  14.797
50871W        W 9967  28.116   0.797  11.965
50872W        W 9968  34.997  14.307  12.895
50873W        W 9969  20.726  31.963  14.822
50874W        W 9970  19.779  36.470  11.528
50875W        W 9971  20.608   1.816   0.898
50876W        W 9972  26.474  28.538  14.999
50877W        W 9973  32.469   2.403  12.080
50878W        W 9974  31.921  13.245  13.338
50879W        W 9975  34.405  22.210  13.979
50880W        W 9976  25.580  41.795   4.701
50881W        W 9977   8.739  10.296   3.225
50882W        W 9978  18.622  23.642  12.392
50883W        W 9979   1.355  33.039   2.807
50884W        W 9980  39.388  10.295  13.849
50885W        W 9981  26.078  37.438  14.942
50886W        W 9982   7.394   7.735   0.813
50887W        W 9983   3.331  11.713   5.208
50888W        W 9984  42.452  15.315  13.834
50889W        W 9985   8.347  41.910  13.057
50890W        W 9986  32.114  41.798   0.302
50891W        W 9987   7.283  24.010   0.270
50892W        W 9988  40.028  15.690   0.743
50893W        W 9989  28.074  11.627   4.711
50894W        W 9990  32.435  24.553  14.861
50895W        W 9991   0.952  37.547   9.988
50896W        W 9992  38.006   3.955  12.865
50897W        W 9993   1.473  34.549   3.689
50898W        W 9994   7.741  42.952   1.885
50899W        W 9995  14.599  41.521   3.806
50900W        W 9996   2.320   2.313   4.835
50901W        W 9997  20.221   9.756   1.433
50902W        W 9998  12.280  40.440  13.063
50903W        W 9999   7.909   6.356  14.886
50904W        W10000  11.151   8.162   0.911
50905W        W10001  42.398   4.704   2.688
50906W        W10002  28.600  13.624  11.973
50907W        W10003   3.360   7.239  13.379
50908W        W10004   6.713   0.941  12.395
50909W        W10005  28.137   6.287   4.127
50910W        W10006   5.889   3.900   4.629
50911W        W10007  27.099  27.994  10.631
50912W        W10008  30.979  31.582   2.190
50913W        W10009  35.986  17.556  12.859
50914W        W10010  39.858   5.286  14.414
50915W        W10011  12.816  26.971   4.670
50916W        W10012  39.499   2.899   0.806
50917W        W10013  23.686  13.656   1.833
50918W        W10014   7.387  34.071  10.996
50919W        W10015   4.364  42.431   4.275
50920W        W10016  42.331  10.733   3.735
50921W        W10017  22.198  37.865   4.660
50922W        W10018  24.081  13.146   3.642
50923W        W10019  43.856  19.550   0.939
50924W        W10020  32.486  25.644   5.273
50925W        W10021   8.684  23.149   2.202
50926W        W10022   2.864   6.284   1.323
50927W        W10023  24.052   5.218  11.415
50928W        W10024  22.676  28.513   3.238
50929W        W10025  42.007  33.970  14.498
50930W        W10026  41.455  34.527  11.544
50931W        W10027  43.435  21.189   4.795
50932W        W10028   5.718  26.537  14.276
50933W        W10029  38.964   8.871  12.061
50934W        W10030   6.803   2.311   4.320
50935W        W10031   3.382  21.583   4.815
50936W        W10032  13.829   4.222   3.850
50937W        W10033  31.403  22.745  13.502
50938W        W10034  23.500  20.088  13.318
50939W        W10035   0.371  19.596   1.904
50940W        W10036  13.735  34.613  12.055
50941W        W10037  43.935  41.041   2.287
50942W        W10038  12.787  23.059   2.670
50943W        W10039  33.074  43.904   0.477
50944W        W10040  36.046   5.237   0.870
50945W        W10041  40.359  28.575   0.408
50946W        W10042  13.759   7.230   3.823
50947W        W10043  44.468  42.516  13.865
50948W        W10044  26.530   2.442  14.918
50949W        W10045  22.060  22.193  13.503
50950W        W10046  41.034  19.047  13.929
50951W        W10047  21.550  20.632   2.413
50952W        W10048   2.374  39.328  13.450
50953W        W10049  11.294  28.945  10.933
50954W        W10050  37.557  34.054  10.640
50955W        W10051  17.715  19.282   1.259
50956W        W10052   5.924  35.446  13.906
50957W        W10053  16.204   4.914   0.928
50958W        W10054  24.576   8.255   5.734
50959W        W10055  22.693  38.829  11.451
50960W        W10056  33.992  16.224   4.162
50961W        W10057  24.220  32.097   0.461
50962W        W10058  13.782   9.224   4.663
50963W        W10059  21.154  31.139   4.231
50964W        W10060   5.855  40.043   4.132
50965W        W10061   8.893  31.076  11.424
50966W        W10062  36.867  18.123  12.005
50967W        W10063   8.769  37.861   1.747
50968W        W10064  32.393  28.541  11.589
50969W        W10065   0.261   9.687  11.936
50970W        W10066   8.227   1.430  13.419
50971W        W10067  26.180  28.042  11.080
50972W        W10068   8.316   9.698   0.873
50973W        W10069   7.252  11.249   0.851
50974W        W10070  27.089   6.841  12.351
50975W        W10071   6.825   5.263  12.087
50976W        W10072  21.583  10.635   2.733
50977W        W10073  14.203   6.323  13.009
50978W        W10074  31.410  44.306  13.471
50979W        W10075   6.737   0.469  14.980
50980W        W10076  31.472  32.092   4.659
50981W        W10077  26.110   8.850   4.801
50982W        W10078  33.998  36.967   3.858
50983W        W10079  14.296  17.246   2.666
50984W        W10080  31.591  27.562  12.556
50985W        W10081   6.839  21.032  14.378
50986W        W10082  44.394  43.422  12.555
50987W        W10083  11.789  22.096  13.978
50988W        W10084  10.242  42.454   2.702
50989W        W10085   3.918  29.460  12.089
50990W        W10086  38.874   8.207  12.992
50991W        W10087  43.976   9.690   2.403
50992W        W10088  43.369  38.873  10.992
50993W        W10089  13.319   4.443   2.348
50994W        W10090  14.702  34.047  13.436
50995W        W10091  27.138  41.817  12.040
50996W        W10092  14.681   7.391   3.677
50997W        W10093  32.630   1.739   2.309
50998W        W10094  27.061  33.422  14.402
50999W        W10095  40.950  31.133   1.323
51000W        W10096  37.545  44.894   2.211
51001W        W10097  16.133  21.147  13.540
51002W        W10098  11.664  36.400  11.421
51003W        W10099  19.215  28.089   0.333
51004W        W10100  22.092   5.372   2.199
51005W        W10101  30.048  12.812   1.284
51006W        W10102  26.981   0.803   3.279
51007W        W10103  42.283   3.238  10.506
51008W        W10104   5.414   1.370  14.366
51009W        W10105  40.851  32.919   4.750
51010W        W10106  31.948   9.768  11.001
51011W        W10107  43.458  20.634  14.397
51012W        W10108  17.289  31.505   1.832
51013W        W10109   6.746  10.341  10.609
51014W        W10110  22.172  20.542  12.081
51015W        W10111   8.328  40.022  10.983
51016W        W10112  25.177  11.311  13.054
51017W        W10113  36.853  12.703   2.670
51018W        W10114  32.551  22.243   2.821
51019W        W10115   2.755   3.224   0.862
51020W        W10116  28.593  11.171  14.404
51021W        W10117  40.411  13.232  12.401
51022W        W10118  22.040  15.736  12.550
51023W        W10119   5.880  30.059   4.651
51024W        W10120   1.335  33.878   0.444
51025W        W10121  42.915  31.426   4.631
51026W        W10122  15.617  18.704   0.839
51027W        W10123  25.135  29.097  12.387
51028W        W10124   7.309  21.543  12.499
51029W        W10125  30.522  10.265   5.163
51030W        W10126  16.092  36.386   1.261
51031W        W10127  17.275   2.402  12.967
51032W        W10128  37.546   6.355   2.851
51033W        W10129   0.357   9.734  12.512
51034W        W10130  29.008  38.048   1.269
51035W        W10131   1.974  19.655  11.490
51036W        W10132   0.841  44.431  13.961
51037W        W10133   1.271  24.187  13.455
51038W        W10134  34.068  18.585   2.736
51039W        W10135  13.808   4.270   2.895
51040W        W10136   8.732   2.244   5.183
51041W        W10137   1.314  12.634   1.306
51042W        W10138  26.166  31.052  12.997
51043W        W10139   5.261  10.819   2.276
51044W        W10140  18.770  42.888  13.968
51045W        W10141  38.529  41.450  11.393
51046W        W10142   3.712  12.747   2.379
51047W        W10143  34.462  41.846   0.840
51048W        W10144  22.545  28.064   0.417
51049W        W10145  30.522  35.024  11.042
51050W        W10146   1.377  40.417  14.331
51051W        W10147   9.267  43.362   1.340
51052W        W10148  21.584  38.951   1.721
51053W        W10149   8.775  23.052  11.490
51054W        W10150  38.866  36.475   2.384
51055W        W10151  37.839  28.538  10.605
51056W        W10152  19.628  31.490   1.285
51057W        W10153   2.957  23.038   0.314
51058W        W10154   3.245   0.411  13.857
51059W        W10155  27.544  26.982  14.872
51060W        W10156  26.552  15.817  10.612
51061W        W10157   7.705  44.767  13.372
51062W        W10158  40.314  24.191   0.968
51063W        W10159  12.721  23.624  14.384
51064W        W10160  29.042  29.116   4.677
51065W        W10161  15.114  14.783   0.316
51066W        W10162  17.661   3.310   3.381
51067W        W10163   0.758  34.542   4.635
51068W        W10164   0.748  38.420  13.333
51069W        W10165  14.677  18.744   2.753
51070W        W10166   5.277  19.722  14.463
51071W        W10167  25.663   3.714  12.053
51072W        W10168  13.158  22.115  14.487
51073W        W10169  38.442  35.476  11.434
51074W        W10170  11.843  36.358   3.297
51075W        W10171  28.103  28.458  14.850
51076W        W10172  10.747   5.929   0.365
51077W        W10173   4.784  42.465   1.888
51078W        W10174  43.486  39.913  12.567
51079W        W10175  44.308  31.489  13.514
51080W        W10176   1.754  33.056   3.223
51081W        W10177   0.911  32.087   5.200
51082W        W10178  11.735   7.750  13.950
51083W        W10179  10.354  20.534   4.330
51084W        W10180  37.441  15.690   2.724
51085W        W10181   8.886  43.838  10.089
51086W        W10182   8.382  37.559  11.930
51087W        W10183  42.299  32.908   3.196
51088W        W10184  23.692  41.456  13.442
51089W        W10185  18.726  27.447  11.390
51090W        W10186  10.309   8.283  13.341
51091W        W10187  23.087  23.113   9.980
51092W        W10188  30.025  35.918   9.971
51093W        W10189  44.281  16.624  11.543
51094W        W10190  38.325   8.326   4.325
51095W        W10191  17.735   8.743   0.349
51096W        W10192  16.145   1.913  11.951
51097W        W10193  37.014  21.617   4.169
51098W        W10194  21.562   1.930  14.926
51099W        W10195  12.731  36.000  10.404
51100W        W10196  24.006  38.023   3.760
51101W        W10197   8.850  23.074  13.941
51102W        W10198  10.662  11.640   0.902
51103W        W10199   4.820  22.995  11.476
51104W        W10200  11.184  24.684   1.296
51105W        W10201   0.252  12.310  11.981
51106W        W10202  21.055  42.820   4.121
51107W        W10203  17.269   4.937  13.035
51108W        W10204  40.370  22.038   1.771
51109W        W10205  14.176   7.806  13.454
51110W        W10206  38.412  11.255   1.878
51111W        W10207  44.263  31.543   3.652
51112W        W10208  21.612  39.822   2.352
51113W        W10209  28.181  10.167   4.716
51114W        W10210  20.098  27.085   2.301
51115W        W10211  20.044   5.733   1.363
51116W        W10212  21.070  21.258   3.312
51117W        W10213  31.495   3.446   4.689
51118W        W10214   4.246  19.777   0.900
51119W        W10215  30.659  43.271   2.400
51120W        W10216  28.967   2.955  10.957
51121W        W10217  23.694   9.719  10.095
51122W        W10218   8.214  10.139   1.832
51123W        W10219   5.882   5.339  14.968
51124W        W10220  41.373  22.154  14.859
51125W        W10221  28.487  13.162  11.502
51126W        W10222  22.140  32.620  13.040
51127W        W10223  36.433  23.632   1.313
51128W        W10224  20.711  11.147   5.719
51129W        W10225  27.958  14.179   4.189
51130W        W10226  19.108  34.871  12.095
51131W        W10227  10.861  41.355  12.865
51132W        W10228  26.174  28.137  12.917
51133W        W10229  22.210  29.996  13.902
51134W        W10230  19.552  14.788   2.726
51135W        W10231  27.681  22.136   4.262
51136W        W10232  23.565  36.512  10.976
51137W        W10233  22.711   2.321   2.840
51138W        W10234  24.611  35.396  13.539
51139W        W10235  15.216  43.809  12.569
51140W        W10236   1.431   2.938  14.358
51141W        W10237  39.054   5.234   3.706
51142W        W10238  37.053  44.436  12.038
51143W        W10239  12.734  28.650   3.160
51144W        W10240   1.819  29.959  11.937
51145W        W10241   8.240   9.751   2.317
51146W        W10242  40.438   8.331   3.305
51147W        W10243  44.409  22.077  12.932
51148W        W10244  31.505  40.462  12.471
51149W        W10245   4.229  13.235  10.977
51150W        W10246  23.034  16.113   1.372
51151W        W10247  19.092  28.571   2.285
51152W        W10248   6.702   5.322   3.175
51153W        W10249  39.541   7.758  11.041
51154W        W10250   1.286   6.344   0.371
51155W        W10251  25.020  21.112   4.714
51156W        W10252  36.502  44.408  12.032
51157W        W10253  40.386  17.184  11.393
51158W        W10254  37.913  20.585   4.597
51159W        W10255  20.046   7.744   5.240
51160W        W10256  30.112  44.899   3.149
51161W        W10257  27.660  19.215   2.267
51162W        W10258   5.263   6.873   2.699
51163W        W10259   9.185   4.409  10.508
51164W        W10260   9.717  12.755   2.860
51165W        W10261  44.471  24.196   4.175
51166W        W10262  37.485   5.737   3.218
51167W        W10263  13.831  42.972   5.111
51168W        W10264   7.789  20.679  11.045
51169W        W10265   0.892   3.738   2.703
51170W        W10266  16.588   3.851  10.606
51171W        W10267   4.716  25.599  12.000
51172W        W10268  30.563  40.490  11.919
51173W        W10269  33.954   2.441  11.920
51174W        W10270  25.559   8.889   0.933
51175W        W10271  13.735  29.549   2.400
51176W        W10272  37.922  27.518  11.097
51177W        W10273  23.161  13.769   0.245
51178W        W10274  20.713  41.937   3.771
51179W        W10275  36.420  29.602   0.902
51180W        W10276  34.560  13.231   3.661
51181W        W10277  30.111  10.687  10.514
51182W        W10278   7.747  32.056   4.645
51183W        W10279  34.030  11.235   3.304
51184W        W10280  10.746   9.235  13.321
51185W        W10281  16.225   9.744   1.880
51186W        W10282  32.555   1.830  13.005
51187W        W10283   4.398  33.524   2.710
51188W        W10284  32.485   9.744   2.881
51189W        W10285  35.432  31.054  12.084
51190W        W10286  22.511  30.108   4.257
51191W        W10287  10.772   0.814   1.908
51192W        W10288  38.839  21.127  10.109
51193W        W10289  13.172  37.439  11.860
51194W        W10290   6.225  21.737   1.380
51195W        W10291  25.163   1.868  11.472
51196W        W10292  29.588  36.359  14.816
51197W        W10293  33.383  26.974  12.001
51198W        W10294   9.835  17.603  11.976
51199W        W10295  34.017  44.835   0.450
51200W        W10296  15.132  40.882   2.270
51201W        W10297   7.189  23.631   1.418
51202W        W10298  34.066  10.798   3.633
51203W        W10299  41.898  12.708   1.445
51204W        W10300   4.313  19.146   1.449
51205W        W10301  30.096  11.135   2.863
51206W        W10302  16.161  13.162   0.406
51207W        W10303   1.478  10.693   4.192
51208W        W10304  30.441   9.381  10.919
51209W        W10305  33.906  27.686  11.420
51210W        W10306   4.805  23.560   4.259
51211W        W10307   0.941   0.402  11.896
51212W        W10308  23.681  26.171  11.553
51213W        W10309  14.150   9.872   1.449
51214W        W10310  18.234  29.134   1.330
51215W        W10311  18.646  29.022   4.797
51216W        W10312  20.591  30.567  12.879
51217W        W10313   6.767  29.555   1.422
51218W        W10314  14.208  22.590   0.405
51219W        W10315  28.997  37.925   2.392
51220W        W10316  29.546  18.146   1.711
51221W        W10317   7.301  36.483  14.862
51222W        W10318  10.780  38.396   1.694
51223W        W10319  27.094  29.959   3.303
51224W        W10320  31.920   7.232  11.018
51225W        W10321  34.034  35.474   1.210
51226W        W10322   8.889  10.193   5.266
51227W        W10323  24.990   2.226  12.343
51228W        W10324  28.660  44.413   0.752
51229W        W10325  13.818  16.597  13.470
51230W        W10326  39.916  18.724  13.053
51231W        W10327  26.047   9.860  12.470
51232W        W10328  14.244   5.268   3.663
51233W        W10329  28.944  14.213  12.512
51234W        W10330  12.687  34.557  12.422
51235W        W10331  38.018  25.971   0.740
51236W        W10332   6.740  16.577  12.344
51237W        W10333  23.735  36.359  12.848
51238W        W10334  42.990  36.536   4.183
51239W        W10335  26.958  43.366   1.720
51240W        W10336   4.333  27.040   1.882
51241W        W10337  35.887  30.020   2.328
51242W        W10338  10.254   7.190  10.128
51243W        W10339  41.493  12.145   1.718
51244W        W10340  38.830   1.925   3.823
51245W        W10341  18.264   6.821  13.017
51246W        W10342  34.925  35.075   5.134
51247W        W10343  43.286  41.843  12.871
51248W        W10344  20.687  18.279   2.366
51249W        W10345  30.427   8.831   0.382
51250W        W10346  36.351  40.868   2.822
51251W        W10347  27.526  37.965  10.008
51252W        W10348  10.295  37.927   0.848
51253W        W10349  31.421  32.598  11.994
51254W        W10350  42.911  19.232  14.279
51255W        W10351  23.106  11.195  12.878
51256W        W10352  17.293  20.701   0.891
51257W        W10353  19.262   0.907   1.319
51258W        W10354  12.727  21.222  13.834
51259W        W10355   3.401  12.228  14.992
51260W        W10356  40.327  26.622   2.232
51261W        W10357  11.194  24.722  12.358
51262W        W10358  26.622  15.817   1.725
51263W        W10359  27.588  24.056  13.890
51264W        W10360  35.867  23.511   9.944
51265W        W10361  24.494   0.759  11.446
51266W        W10362   7.226  35.068   4.747
51267W        W10363  19.647   7.873  11.506
51268W        W10364  25.699  22.068   1.725
51269W        W10365  26.489   4.764   3.287
51270W        W10366  37.039   6.830   0.308
51271W        W10367  10.692  35.081  10.466
51272W        W10368  18.552  42.790  11.469
51273W        W10369  44.446   8.280   1.421
51274W        W10370  17.146   2.778  11.374
51275W        W10371  41.024  24.185   1.254
51276W        W10372   4.856  34.896   0.243
51277W        W10373  21.094  24.644   4.233
51278W        W10374  27.671  29.667   1.777
51279W        W10375  44.831  39.893  10.501
51280W        W10376  13.815  42.415   1.783
51281W        W10377  19.682   8.783  12.045
51282W        W10378  42.901  17.779  14.779
51283W        W10379   5.360  20.713  12.051
51284W        W10380   5.213  26.121   5.140
51285W        W10381  10.869   7.388  13.978
51286W        W10382  35.492  34.109  14.458
51287W        W10383   2.281   5.721   2.730
51288W        W10384  13.782  39.041   0.472
51289W        W10385  22.675  12.160   1.389
51290W        W10386   8.886  31.109  12.054
51291W        W10387  18.674  25.548   3.692
51292W        W10388  33.547  12.852  10.580
51293W        W10389   5.691  42.430  14.824
51294W        W10390   1.733  13.130   4.788
51295W        W10391  14.109  29.123   0.884
51296W        W10392  18.763  35.446   0.785
51297W        W10393  32.903  43.505   0.792
51298W        W10394  29.560  30.426  11.111
51299W        W10395   2.281  28.483  12.827
51300W        W10396  24.516   3.331  11.960
51301W        W10397   7.761  10.155  10.586
51302W        W10398  30.070  10.660  14.407
51303W        W10399  14.199  38.933  10.510
51304W        W10400  32.515  23.991   1.213
51305W        W10401  28.943  13.810  13.856
51306W        W10402  44.425  44.878   4.154
51307W        W10403  10.842   4.886   2.710
51308W        W10404  14.316  40.015  14.926
51309W        W10405  26.520  25.706   1.918
51310W        W10406  36.488   0.955  14.830
51311W        W10407  28.111  24.617   4.113
51312W        W10408   2.782   5.875   2.357
51313W        W10409  39.851  39.909  13.312
51314W        W10410  23.696   2.382   1.297
51315W        W10411  10.199  34.912  10.004
51316W        W10412   2.307  33.878   0.908
51317W        W10413  26.049  13.122  13.002
51318W        W10414   8.871  17.765  14.978
51319W        W10415  21.254  24.637  14.767
51320W        W10416  18.082  41.916   4.167
51321W        W10417  27.525  26.635  12.519
51322W        W10418  28.970  21.047  12.426
51323W        W10419  19.271  29.925  11.090
51324W        W10420   1.299  37.369  13.516
51325W        W10421  23.591  44.447   3.641
51326W        W10422  41.387  18.630   0.325
51327W        W10423  19.541  37.355   1.407
51328W        W10424  42.845   6.201  13.874
51329W        W10425  21.020   0.828   0.930
51330W        W10426  16.106  17.126   0.264
51331W        W10427  14.107  24.115   2.811
51332W        W10428  36.022  27.187   0.378
51333W        W10429  44.324  10.342  10.627
51334W        W10430   6.280   9.646  10.542
51335W        W10431  11.745  20.692   4.178
51336W        W10432  16.687  19.622  13.798
51337W        W10433  27.562   9.301  13.530
51338W        W10434  14.775  22.663   2.228
51339W        W10435  24.524  26.084  10.606
51340W        W10436  31.480   9.874  13.006
51341W        W10437  24.520  21.616   2.252
51342W        W10438  40.312  30.916   4.287
51343W        W10439  19.224   4.325  12.948
51344W        W10440  14.238  19.077  11.966
51345W        W10441  23.132  11.731  13.885
51346W        W10442  24.647   9.286  12.453
51347W        W10443  20.181  40.381  10.966
51348W        W10444  11.181  35.917  13.336
51349W        W10445   8.398  18.573   2.753
51350W        W10446  35.555  17.276  14.016
51351W        W10447  15.686  31.969   0.935
51352W        W10448   7.374  27.994  14.799
51353W        W10449  10.193  21.545  14.818
51354W        W10450   6.311  19.654  10.085
51355W        W10451  11.680  29.919   3.868
51356W        W10452  32.606   7.793   4.673
51357W        W10453  36.346   9.777  13.438
51358W        W10454  13.184   4.725   0.472
51359W        W10455  19.746  16.744  11.410
51360W        W10456   7.356  30.123  13.879
51361W        W10457  25.543  44.876   2.846
51362W        W10458   6.705  16.274   1.392
51363W        W10459  13.795  18.235  13.046
51364W        W10460  38.859   7.342  10.518
51365W        W10461  31.587  30.520  13.409
51366W        W10462  29.436  34.376   4.257
51367W        W10463  35.930  14.105  13.314
51368W        W10464  43.921  39.886  13.426
51369W        W10465  13.716  13.765   9.932
51370W        W10466  33.956  33.482  11.874
51371W        W10467  13.140   8.806  10.524
51372W        W10468  38.950  39.358  10.477
51373W        W10469  29.489  40.352   2.203
51374W        W10470  27.183   1.298   3.766
51375W        W10471  28.606  13.307  11.995
51376W        W10472  13.800   4.211   4.653
51377W        W10473  15.785  42.856   0.254
51378W        W10474  13.620  20.558  12.461
51379W        W10475   8.804  11.223   4.757
51380W        W10476  21.523  14.716  14.994
51381W        W10477  19.552  17.760  14.299
51382W        W10478  28.676  30.059   3.753
51383W        W10479  24.123  21.752   2.800
51384W        W10480   0.792  41.468  10.137
51385W        W10481   7.403  41.020  12.371
51386W        W10482  30.945  16.118  13.825
51387W        W10483  38.995  35.366  13.808
51388W        W10484   3.865  18.279   0.878
51389W        W10485  22.721  14.129   0.845
51390W        W10486  28.664   6.292  12.380
51391W        W10487  26.616   4.286  11.117
51392W        W10488  30.074  17.086   1.865
51393W        W10489  36.046  33.563   2.397
51394W        W10490  40.022  12.150   2.178
51395W        W10491  21.748   5.434  10.446
51396W        W10492  19.565  23.640  13.798
51397W        W10493  10.192   5.428  13.530
51398W        W10494  20.632   3.333   2.760
51399W        W10495   4.432  26.991  11.099
51400W        W10496  26.569  12.695  13.869
51401W        W10497  24.110  44.344  12.022
51402W        W10498  44.823   5.723  14.984
51403W        W10499  33.024  27.446   4.830
51404W        W10500  40.340   7.296   5.228
51405W        W10501   9.775  35.071   3.684
51406W        W10502  19.713  25.997  12.354
51407W        W10503  30.540  13.635   4.141
51408W        W10504   3.330  41.951   5.121
51409W        W10505  16.112  21.552  12.415
51410W        W10506  30.139  22.174  14.919
51411W        W10507   3.258  43.807  11.923
51412W        W10508  26.160   4.227   1.697
51413W        W10509  19.107   7.904   1.868
51414W        W10510  21.059  31.957  13.500
51415W        W10511  44.010   7.403   4.686
51416W        W10512   6.911  25.168   0.297
51417W        W10513  36.066   5.197  11.887
51418W        W10514   5.817  26.617  11.022
51419W        W10515   9.767  25.487   2.744
51420W        W10516  42.821  29.101  11.503
51421W        W10517  11.310   8.256   2.869
51422W        W10518  20.632   9.325  10.584
51423W        W10519   2.360   7.767   2.266
51424W        W10520   9.215   2.772   2.867
51425W        W10521   2.315  32.469  13.486
51426W        W10522  11.365   3.954   4.149
51427W        W10523  42.439  13.232  11.092
51428W        W10524  20.230  34.549   1.269
51429W        W10525  39.439   1.883   3.279
51430W        W10526   4.400  23.140  13.365
51431W        W10527   6.751   4.848  13.794
51432W        W10528   4.404  42.925   1.746
51433W        W10529  21.663   4.810   0.882
51434W        W10530   6.418  38.414  13.381
51435W        W10531  44.870   5.692  10.511
51436W        W10532  25.472  31.902   0.319
51437W        W10533   7.773   0.451  13.917
51438W        W10534   5.331  36.912   1.240
51439W        W10535  19.709   7.790   3.232
51440W        W10536  44.287   4.749   4.216
51441W        W10537  12.804   0.956   3.280
51442W        W10538  37.367  22.169  13.874
51443W        W10539  41.460  44.959  13.057
51444W        W10540  16.162  17.175  13.035
51445W        W10541  13.209   1.836  11.120
51446W        W10542  22.581  10.286   5.092
51447W        W10543  30.546  34.460  12.489
51448W        W10544  43.351  33.614  13.479
51449W        W10545  35.852  41.486  10.599
51450W        W10546   8.274  31.013   1.449
51451W        W10547  40.357  35.918   0.290
51452W        W10548  24.075  32.468  11.076
51453W        W10549  10.633  38.537  12.495
51454W        W10550  43.805  37.445   3.758
51455W        W10551  35.931   7.766   2.187
51456W        W10552  11.666  14.681  14.511
51457W        W10553  37.561  35.417   3.274
51458W        W10554  38.993   1.270  12.541
51459W        W10555  13.690  40.996  14.833
51460W        W10556  32.120  25.072  12.008
51461W        W10557  37.885  30.019  14.395
51462W        W10558  19.182  15.637  14.296
51463W        W10559  18.706  26.171   0.821
51464W        W10560  33.094   1.939   3.378
51465W        W10561  13.195  34.070  14.318
51466W        W10562  22.521  42.406  13.309
51467W        W10563  14.188  44.270   2.754
51468W        W10564  31.936  34.875  14.027
51469W        W10565  24.163  22.546   2.828
51470W        W10566  17.792  43.380  12.573
51471W        W10567  27.576  14.182   3.321
51472W        W10568   9.234  31.998   3.380
51473W        W10569   3.308  26.462  10.913
51474W        W10570  38.413   3.314   4.747
51475W        W10571  44.830  33.457  10.086
51476W        W10572  20.167  29.448  12.887
51477W        W10573   0.331   2.780  13.504
51478W        W10574   4.257  31.960   3.351
51479W        W10575  25.566  28.958   5.263
51480W        W10576  15.599  35.021   0.943
51481W        W10577  22.608  37.897  11.092
51482W        W10578  42.846   6.677   2.356
51483W        W10579  22.532  38.364   4.726
51484W        W10580  17.080  26.553   3.681
51485W        W10581  12.622  14.313  14.287
51486W        W10582  21.026  21.108  14.464
51487W        W10583  23.156   3.826  13.499
51488W        W10584  34.050  35.379   2.301
51489W        W10585  34.906  19.042  10.046
51490W        W10586  44.955  36.849  13.918
51491W        W10587  13.336  11.290   0.910
51492W        W10588  17.642  16.792   4.213
51493W        W10589   0.357  10.750   1.775
51494W        W10590  34.400  14.773   1.791
51495W        W10591  40.346  27.647   1.921
51496W        W10592  42.856  12.765  13.496
51497W        W10593  22.502  35.103  13.377
51498W        W10594  20.201  38.359   4.716
51499W        W10595  25.525  12.247  11.051
51500W        W10596  27.126  23.520   3.758
51501W        W10597   1.414  40.918  11.475
51502W        W10598  25.697  24.711  10.518
51503W        W10599  11.219  18.263  14.999
51504W        W10600  25.063   8.745   0.833
51505W        W10601   6.195  33.493   1.373
51506W        W10602  34.096  14.312  10.421
51507W        W10603  11.792  42.891   0.727
51508W        W10604  12.653  42.436  13.006
51509W        W10605  16.183  35.556  12.086
51510W        W10606  14.600  27.537  12.412
51511W        W10607  33.074  22.661  11.087
51512W        W10608  15.236  30.539   2.698
51513W        W10609  32.560   6.413  14.828
51514W        W10610  15.205  11.268   3.327
51515W        W10611  10.159  18.180   1.777
51516W        W10612  24.153  35.873  12.008
51517W        W10613   1.426  34.579  14.852
51518W        W10614   0.370  21.249  13.369
51519W        W10615  28.591   5.716   0.247
51520W        W10616  32.970   8.203   4.677
51521W        W10617   8.828   7.313   2.278
51522W        W10618  16.614  29.496   2.718
51523W        W10619  33.898  32.436   3.631
51524W        W10620  23.001  21.127   0.280
51525W        W10621   6.250  20.709  14.993
51526W        W10622  15.592  31.124   4.730
51527W        W10623  39.478   0.869   3.672
51528W        W10624   7.299  30.077  12.026
51529W        W10625   0.950   0.273  13.000
51530W        W10626   2.250   0.472  13.031
51531W        W10627   6.821  10.230  11.442
51532W        W10628   8.822   5.787   2.231
51533W        W10629  19.104  41.413   2.689
51534W        W10630  21.220   8.802  12.370
51535W        W10631   4.337  43.898  13.530
51536W        W10632  20.666  36.857   1.763
51537W        W10633  39.829   5.254   0.877
51538W        W10634  15.195  19.080   1.908
51539W        W10635  23.043  21.695  12.903
51540W        W10636  42.440   2.728   4.717
51541W        W10637  44.822   5.741  12.372
51542W        W10638  19.072  42.957  11.579
51543W        W10639  36.403  26.116  10.122
51544W        W10640  23.573  39.547  11.989
51545W        W10641  21.693   3.320   1.216
51546W        W10642   8.272  29.992   2.858
51547W        W10643  42.838  10.267  10.527
51548W        W10644  26.556  24.174  12.955
51549W        W10645   0.909  27.530   0.901
51550W        W10646  31.404  43.363   3.696
51551W        W10647  31.102  41.345  12.519
51552W        W10648   9.668  25.530   1.867
51553W        W10649  18.737  42.438   2.193
51554W        W10650   4.785   5.417  10.051
51555W        W10651  40.884  14.283   2.803
51556W        W10652  32.891   2.817  14.837
51557W        W10653  43.448  15.132  12.448
51558W        W10654  36.948   9.347   1.312
51559W        W10655  35.011   1.450  10.602
51560W        W10656   9.332  32.545  12.353
51561W        W10657  13.288  14.293   1.219
51562W        W10658  39.959  37.862   3.739
51563W        W10659   0.914  39.390   3.276
51564W        W10660  33.485  11.232  11.373
51565W        W10661  35.365  42.970   1.296
51566W        W10662  24.556  29.556  14.502
51567W        W10663   6.189   6.690  13.315
51568W        W10664  28.634  32.017   3.317
51569W        W10665   8.199  14.710   4.647
51570W        W10666  41.428  29.448   2.252
51571W        W10667  26.145  15.813  12.506
51572W        W10668  38.980  22.657  11.875
51573W        W10669   7.807  12.839   3.296
51574W        W10670   2.273  24.658   1.239
51575W        W10671   7.747  25.598   1.812
51576W        W10672  16.746  35.465   2.877
51577W        W10673  43.922   2.379  14.313
51578W        W10674  36.936  16.795  12.349
51579W        W10675   3.829  34.990   2.209
51580W        W10676  39.332  30.546  11.401
51581W        W10677  35.537  29.018   3.285
51582W        W10678  17.062   3.393  10.422
51583W        W10679  38.917   5.767   3.690
51584W        W10680  33.434  10.195  10.924
51585W        W10681  40.415   7.225  12.960
51586W        W10682  32.092  31.967   4.122
51587W        W10683  24.528  23.164  11.980
51588W        W10684  23.221  29.651   0.726
51589W        W10685  32.582  41.307  13.518
51590W        W10686  11.622  21.084  11.005
51591W        W10687   8.702   9.664  12.344
51592W        W10688  34.548  26.097  14.949
51593W        W10689  24.115  20.530  14.429
51594W        W10690  22.647  31.592   0.839
51595W        W10691  41.384  24.647   3.798
51596W        W10692  40.007  25.082  12.390
51597W        W10693  34.112   4.366   4.312
51598W        W10694  10.757  30.513  10.534
51599W        W10695   5.352  34.099   3.712
51600W        W10696   9.695  26.974   2.265
51601W        W10697  30.538  42.492  10.637
51602W        W10698  24.140   4.842   2.901
51603W        W10699  44.775  39.413  13.836
51604W        W10700   0.449  40.319  14.317
51605W        W10701  38.516  19.116   2.231
51606W        W10702   0.857   4.745  12.547
51607W        W10703  43.350   4.404   3.862
51608W        W10704  42.955   7.803   4.832
51609W        W10705  18.656  34.932  13.904
51610W        W10706  43.439  31.088   0.923
51611W        W10707  37.410  37.543   2.798
51612W        W10708  15.723  37.552   1.926
51613W        W10709   7.307  32.023   3.147
51614W        W10710  20.125   0.416   3.636
51615W        W10711   8.852  33.993  12.911
51616W        W10712  36.007  34.089  13.821
51617W        W10713  21.544  30.934   1.791
51618W        W10714  34.085  34.549  10.976
51619W        W10715  44.410  28.463  14.289
51620W        W10716   7.360  28.464  10.078
51621W        W10717  38.356   4.745  14.847
51622W        W10718  38.519   2.294  12.425
51623W        W10719  14.308  25.999   3.668
51624W        W10720  41.382  31.520   3.255
51625W        W10721  16.602   0.798  11.569
51626W        W10722  23.494  43.463   2.835
51627W        W10723   8.808   1.309   4.156
51628W        W10724   3.457   3.713  10.472
51629W        W10725  37.953   5.772   3.701
51630W        W10726   1.368  28.071  14.908
51631W        W10727  10.201   0.827  13.804
51632W        W10728  12.344  37.062  13.323
51633W        W10729  13.612  21.716   1.830
51634W        W10730  32.462  42.356   0.799
51635W        W10731  17.214  13.171   4.650
51636W        W10732  19.656  44.916   4.231
51637W        W10733  44.305   0.859   5.221
51638W        W10734   2.417  30.946   1.788
51639W        W10735  17.581   8.770   0.813
51640W        W10736   0.911  28.590  11.867
51641W        W10737  17.125  19.545   5.312
51642W        W10738  23.129  20.633   1.821
51643W        W10739  16.795  12.197   4.126
51644W        W10740  33.117  28.573   1.873
51645W        W10741  14.629  17.634  14.984
51646W        W10742  34.535  34.900   4.172
51647W        W10743  26.033  43.372  13.523
51648W        W10744  33.965  14.198  11.051
51649W        W10745  25.062  40.913   1.733
51650W        W10746  20.099  32.098   9.988
51651W        W10747   3.786  28.032   2.819
51652W        W10748  40.001  21.166   4.611
51653W        W10749  36.029  42.987   1.370
51654W        W10750  31.036  40.983  13.842
51655W        W10751  30.487  20.242  12.479
51656W        W10752  21.545  10.674   5.222
51657W        W10753  33.063  43.484  10.971
51658W        W10754  20.188  14.183  10.630
51659W        W10755   1.444  26.036  14.790
51660W        W10756   5.202   2.258   4.305
51661W        W10757  29.075  32.414   1.351
51662W        W10758  28.476  27.679   4.777
51663W        W10759  37.954  28.600  14.815
51664W        W10760  24.019  31.541   0.402
51665W        W10761  39.484  21.746  10.494
51666W        W10762  10.349  36.958  13.966
51667W        W10763  34.973  31.487   4.739
51668W        W10764  27.564   8.834   2.264
51669W        W10765  37.926  15.117   4.295
51670W        W10766   7.700  43.005  12.506
51671W        W10767  13.214  20.082  14.796
51672W        W10768   3.770  14.132   2.747
51673W        W10769   3.244  23.594  13.418
51674W        W10770  17.613  40.974  11.896
51675W        W10771  10.245  15.111  14.785
51676W        W10772  38.844   7.242   4.640
51677W        W10773   6.689  35.553  14.023
51678W        W10774  22.597   3.446   4.780
51679W        W10775  11.686  37.845  10.638
51680W        W10776  32.609  29.604  12.033
51681W        W10777  21.656  39.974  12.519
51682W        W10778   2.749  31.578   4.192
51683W        W10779  41.397  28.967  10.531
51684W        W10780  33.529  28.991  10.027
51685W        W10781  35.911  24.054  13.038
51686W        W10782   3.392   0.969   4.350
51687W        W10783  44.469  23.110  11.429
51688W        W10784   8.900  37.522   3.290
51689W        W10785   4.856  29.585   1.879
51690W        W10786  33.046  44.806   3.284
51691W        W10787  18.095  34.051   1.862
51692W        W10788   7.763  22.084   1.812
51693W        W10789  22.097  37.573  13.375
51694W        W10790  43.501   9.799  10.473
51695W        W10791   6.869  18.132   4.308
51696W        W10792  39.491  32.895   4.683
51697W        W10793   4.881  14.656  13.853
51698W        W10794   8.399  20.163   4.837
51699W        W10795   3.305  35.587  10.915
51700W        W10796  25.083   1.471  13.829
51701W        W10797  24.135   7.212   4.815
51702W        W10798  33.536  13.170   0.326
51703W        W10799  35.472  15.202   0.293
51704W        W10800  19.239  11.863   1.365
51705W        W10801  36.088   5.781   4.206
51706W        W10802  35.525  29.126  12.396
51707W        W10803  17.172   6.731   2.819
51708W        W10804   8.278  30.162  11.587
51709W        W10805  19.669  16.704   0.247
51710W        W10806   1.974  37.057  11.032
51711W        W10807   1.422  32.979   0.764
51712W        W10808  30.033  40.478   1.751
51713W        W10809   5.401  39.871   4.714
51714W        W10810  16.077  29.565  11.556
51715W        W10811  12.740  25.034  14.836
51716W        W10812   4.398  35.580  14.336
51717W        W10813   0.475  23.224  11.104
51718W        W10814  22.505  27.035  11.120
51719W        W10815   0.455  16.139  10.404
51720W        W10816  29.483  33.603   0.299
51721W        W10817  37.496  18.552  14.364
51722W        W10818   6.292  29.645   5.151
51723W        W10819  28.491  26.673  10.449
51724W        W10820   2.435   5.809  12.889
51725W        W10821   3.786  26.176  11.403
51726W        W10822  13.289  42.973  12.443
51727W        W10823  24.536  26.979   4.788
51728W        W10824  28.988  12.782  11.460
51729W        W10825  21.750   2.449   4.831
51730W        W10826  11.336  35.029   3.187
51731W        W10827  19.269   9.149  11.554
51732W        W10828  34.473  20.043   1.800
51733W        W10829  42.906  41.490  14.479
51734W        W10830  35.496   9.727   4.765
51735W        W10831  28.052  28.052   9.933
51736W        W10832  26.073  10.348  12.476
51737W        W10833  42.805  18.134   4.233
51738W        W10834  40.848  28.136  11.047
51739W        W10835  43.021  13.295  12.877
51740W        W10836  22.542  30.952   0.829
51741W        W10837  12.183  19.643  12.965
51742W        W10838  38.395   0.302  14.766
51743W        W10839   5.693  27.592   2.282
51744W        W10840   5.396  21.253   1.826
51745W        W10841  30.523  42.808   3.226
51746W        W10842   5.216  24.045   3.352
51747W        W10843  21.186  39.948   1.856
51748W        W10844  27.079  11.765   1.842
51749W        W10845  18.113  34.062   4.234
51750W        W10846  21.241  43.505  14.884
51751W        W10847  42.852  43.918  11.406
51752W        W10848   4.325  28.171   0.777
51753W        W10849   8.761   0.809  12.028
51754W        W10850   5.352  41.451  12.892
51755W        W10851  41.343   6.390  11.562
51756W        W10852  22.726  10.315  12.360
51757W        W10853  23.173   3.882  12.344
51758W        W10854  39.933   7.330   1.213
51759W        W10855   5.267  37.442   0.408
51760W        W10856  14.660  40.505  13.390
51761W        W10857  12.779  32.929   3.663
51762W        W10858  29.630  40.804   2.220
51763W        W10859  24.625  36.443   1.809
51764W        W10860   2.307  43.511  13.460
51765W        W10861  16.301   4.382   2.706
51766W        W10862  27.022  29.530  10.119
51767W        W10863  25.202  24.083  13.816
51768W        W10864  21.677  15.156   0.305
51769W        W10865  21.149  39.463  12.919
51770W        W10866  29.005  31.460  13.526
51771W        W10867  43.313  29.528  13.322
51772W        W10868   3.333  43.352  13.406
51773W        W10869  41.836  29.133  10.458
51774W        W10870  25.182  13.186  11.124
51775W        W10871   6.815  19.535   3.780
51776W        W10872  34.881   2.315   2.202
51777W        W10873  25.552  39.059   2.315
51778W        W10874  21.719  35.089   0.847
51779W        W10875   7.309   7.708   1.807
51780W        W10876  27.047  34.111   1.696
51781W        W10877   2.306   8.306  10.618
51782W        W10878  33.878  25.069  14.478
51783W        W10879  43.924  33.569  14.323
51784W        W10880  24.559  41.302  12.466
51785W        W10881  22.055  17.295  12.435
51786W        W10882  16.255   4.415  11.972
51787W        W10883   6.806  33.500   3.784
51788W        W10884   4.736  33.965  14.760
51789W        W10885  10.253  32.493  14.512
51790W        W10886  22.021  23.074  10.636
51791W        W10887  36.387  44.351  11.055
51792W        W10888  17.116  23.697   0.777
51793W        W10889  41.907   2.410  10.957
51794W        W10890  29.961  28.636   2.252
51795W        W10891  39.952   7.807   4.653
51796W        W10892   5.407  18.767  14.758
51797W        W10893  39.417  37.411  11.062
51798W        W10894  24.488  35.029  10.158
51799W        W10895  18.150  18.567  13.343
51800W        W10896   2.814   3.232  12.508
51801W        W10897  35.010  12.698  12.370
51802W        W10898   6.416  39.386   0.480
51803W        W10899  15.786   2.949   4.726
51804W        W10900   4.698  25.477   0.923
51805W        W10901  36.927  44.428  13.412
51806W        W10902   8.397  16.708  11.094
51807W        W10903  41.860  32.948  12.558
51808W        W10904  44.504  15.666  10.077
51809W        W10905  33.523  42.782  11.960
51810W        W10906   4.413   3.362   3.345
51811W        W10907  19.596  38.831   0.745
51812W        W10908  27.472   2.945   3.818
51813W        W10909  25.058  19.187   0.790
51814W        W10910   3.371  23.002  14.376
51815W        W10911  12.850  29.466  10.506
51816W        W10912   1.844  38.003   3.309
51817W        W10913  25.499  18.586   3.755
51818W        W10914  43.515  22.198   0.941
51819W        W10915  28.672  28.580  14.309
51820W        W10916   2.754  14.811  10.924
51821W        W10917  21.105   4.267  10.524
51822W        W10918  43.844  10.730  11.881
51823W        W10919  13.139   6.862   2.413
51824W        W10920  11.295  21.202   1.917
51825W        W10921   4.224  33.516  14.022
51826W        W10922  30.989   3.894  14.481
51827W        W10923  35.428  11.265  13.029
51828W        W10924  39.899   9.714   3.266
51829W        W10925  43.811   8.164  14.829
51830W        W10926  11.268  40.413   1.825
51831W        W10927   9.374  34.436   3.714
51832W        W10928  33.467  32.618  10.018
51833W        W10929  30.058  15.295  13.814
51834W        W10930  22.620  23.988  10.121
51835W        W10931  25.006  30.588   4.774
51836W        W10932   9.789  15.610  11.601
51837W        W10933   2.467  20.060   2.797
51838W        W10934  40.883   9.315  12.428
51839W        W10935  32.438  38.454  11.096
51840W        W10936  14.210  17.101  10.943
51841W        W10937  30.090  33.436   3.768
51842W        W10938  23.076  39.416   2.786
51843W        W10939   3.265  29.459   4.781
51844W        W10940  32.533  32.633  11.084
51845W        W10941  10.170  14.333  11.378
51846W        W10942  26.955  28.099  14.869
51847W        W10943  15.212  24.701   2.246
51848W        W10944  22.028  35.928  10.456
51849W        W10945  32.100   5.225   4.135
51850W        W10946  29.021  17.228  14.987
51851W        W10947  14.283  18.729  13.000
51852W        W10948  39.349  26.135   3.238
51853W        W10949  14.114   0.846  11.118
51854W        W10950  21.741  30.056   2.878
51855W        W10951  10.232  31.988   1.389
51856W        W10952  31.012  33.057  12.091
51857W        W10953  29.166  25.105   2.239
51858W        W10954  19.763   3.862  13.855
51859W        W10955  42.935   0.431  10.977
51860W        W10956  42.794  27.536  11.969
51861W        W10957  34.482   7.371  12.577
51862W        W10958   0.811  13.833  13.934
51863W        W10959   4.447   6.203   1.700
51864W        W10960  41.402  14.596  11.909
51865W        W10961   7.171  18.687   0.936
51866W        W10962   8.272  30.491  13.441
51867W        W10963  28.538   4.324   1.418
51868W        W10964   9.346   5.346   4.345
51869W        W10965  11.272  11.652   2.345
51870W        W10966  28.152  41.007  13.946
51871W        W10967  33.031  28.014   1.779
51872W        W10968  43.772   6.287   4.744
51873W        W10969  34.447  30.645  14.841
51874W        W10970   9.860   5.435   4.191
51875W        W10971  21.592  14.593   2.301
51876W        W10972   2.351  14.305  13.822
51877W        W10973  32.044   0.489  13.424
51878W        W10974  38.849  16.290   4.736
51879W        W10975  40.480  14.697  13.872
51880W        W10976  34.499  20.113   4.711
51881W        W10977  44.354  36.406  14.489
51882W        W10978   6.796   6.229  12.882
51883W        W10979   4.710  12.155   2.279
51884W        W10980  31.409  18.700   0.284
51885W        W10981  23.224  22.036   9.550
51886W        W10982  15.599   8.245  14.410
51887W        W10983  30.061  25.167   0.789
51888W        W10984  10.857   3.398  11.466
51889W        W10985  39.916  17.695   0.443
51890W        W10986   2.451   3.937   1.413
51891W        W10987   2.268   7.843  12.528
51892W        W10988  18.656  44.469   0.428
51893W        W10989   7.772  14.289  14.838
51894W        W10990  27.133  25.160  13.012
51895W        W10991  40.914   3.773  10.994
51896W        W10992   9.357   0.813   3.807
51897W        W10993  19.247   2.423  11.392
51898W        W10994  13.254  21.119  13.862
51899W        W10995   0.798  29.512  13.317
51900W        W10996  21.661  35.028  10.947
51901W        W10997   9.335  15.303   5.275
51902W        W10998  34.576   0.899  13.021
51903W        W10999  15.096  13.249   4.222
51904W        W11000  42.419  33.084  13.515
51905W        W11001  10.875  14.099   5.565
51906W        W11002  32.439  14.700  12.018
51907W        W11003  31.575   4.330  11.112
51908W        W11004  29.962  10.765  11.413
51909W        W11005  15.197  15.161  12.947
51910W        W11006   0.437  40.906  12.449
51911W        W11007  33.028  39.475  10.625
51912W        W11008   2.753   4.825  12.887
51913W        W11009  23.076  39.490  14.889
51914W        W11010  40.371  30.120  11.932
51915W        W11011  10.768  21.553   0.949
51916W        W11012  16.632   8.842   4.684
51917W        W11013  39.907  27.156  14.832
51918W        W11014  17.728  12.251  11.443
51919W        W11015   6.842   3.719   0.839
51920W        W11016  43.005  32.982  12.479
51921W        W11017  15.688  43.316  13.477
51922W        W11018  38.487   0.785   4.676
51923W        W11019  44.308   3.281   2.181
51924W        W11020   3.332   8.686  11.922
51925W        W11021   5.761  34.924  10.900
51926W        W11022  19.634  22.017  14.006
51927W        W11023   4.899   2.414  11.452
51928W        W11024  12.177  23.013  14.842
51929W        W11025  33.474  32.534  14.777
51930W        W11026  14.205  32.944  13.368
51931W        W11027  21.102  37.833   3.767
51932W        W11028  27.654  30.075  14.395
51933W        W11029  28.560  31.501  11.068
51934W        W11030   7.836  13.833   0.373
51935W        W11031  44.911  40.893  11.517
51936W        W11032  43.465   2.806  11.898
51937W        W11033  23.645  19.056   0.779
51938W        W11034  29.427  25.511  11.433
51939W        W11035  39.976   5.302  12.911
51940W        W11036  29.562  40.950   0.450
51941W        W11037  38.066  12.170   4.297
51942W        W11038  36.494  20.553  13.500
51943W        W11039  13.224  41.028  13.809
51944W        W11040   1.325  10.827   0.825
51945W        W11041  10.364  21.253  11.870
51946W        W11042  40.851  40.956  11.601
51947W        W11043  14.805  37.959  12.916
51948W        W11044  37.517   9.318  14.356
51949W        W11045  37.901  40.531  10.483
51950W        W11046  37.954  44.347  12.464
51951W        W11047  30.581  43.882   0.273
51952W        W11048  37.884  13.732  11.062
51953W        W11049  25.592   2.858  10.974
51954W        W11050  17.760  17.561  14.017
51955W        W11051  35.464   2.241  13.944
51956W        W11052  44.313  43.492   2.730
51957W        W11053  19.671  27.686  13.023
51958W        W11054  42.282  30.456  11.104
51959W        W11055  43.813  43.906  14.779
51960W        W11056   1.370  37.364  11.377
51961W        W11057  13.273  13.779  12.475
51962W        W11058  33.020  40.004  13.329
51963W        W11059  40.347   7.329   4.119
51964W        W11060   6.253  24.101   9.515
51965W        W11061  44.965  35.045  13.919
51966W        W11062  43.478  25.469  11.481
51967W        W11063  32.476   1.742  12.403
51968W        W11064  20.584   9.740  12.341
51969W        W11065  11.345  40.537  13.878
51970W        W11066  14.753  10.648  11.563
51971W        W11067  22.174   4.811  12.856
51972W        W11068  24.087  40.442   0.343
51973W        W11069  28.071  19.228  14.405
51974W        W11070  32.512  25.099  14.474
51975W        W11071   7.671   8.851   0.920
51976W        W11072  35.890  26.490  14.854
51977W        W11073   4.868  19.184   2.902
51978W        W11074  31.061  32.405  14.286
51979W        W11075  33.536  32.571   2.889
51980W        W11076   8.829   3.441   2.864
51981W        W11077  11.192  29.006  12.448
51982W        W11078   2.274  12.656  12.012
51983W        W11079  24.519   4.377   1.432
51984W        W11080  22.158  14.784   1.401
51985W        W11081  36.850  18.278   0.436
51986W        W11082  44.332   5.854   3.263
51987W        W11083  13.302  10.333   5.303
51988W        W11084  27.553  30.113  13.422
51989W        W11085  41.960  29.115   0.747
51990W        W11086  44.296  31.150  11.908
51991W        W11087  41.832  42.812  13.335
51992W        W11088  18.727  12.856   3.827
51993W        W11089  33.089  15.606  14.836
51994W        W11090  10.325  38.360  13.500
51995W        W11091  44.381   4.238   3.799
51996W        W11092   5.794  35.863  13.982
51997W        W11093  41.854  19.147   0.769
51998W        W11094  26.463  10.640  11.963
51999W        W11095  20.269   2.403   3.316
52000W        W11096   3.420  18.283  12.541
52001W        W11097  19.673   6.755  12.988
52002W        W11098  35.571  44.298  11.554
52003W        W11099  36.069  43.772  13.812
52004W        W11100  15.306  29.138   1.918
52005W        W11101  37.457  10.876  14.509
52006W        W11102  41.789  32.091   4.720
52007W        W11103  30.107  22.176  13.957
52008W        W11104  13.313  40.995  12.029
52009W        W11105  43.806  24.683  10.969
52010W        W11106  11.311   5.411  13.909
52011W        W11107  29.585  19.597  11.922
52012W        W11108   6.421  10.146  14.889
52013W        W11109  14.728  26.536  10.572
52014W        W11110  42.030  34.081   2.397
52015W        W11111  10.820  38.033   4.733
52016W        W11112  35.565  42.958   0.357
52017W        W11113  15.108  26.160   2.364
52018W        W11114  36.904  19.680  11.522
52019W        W11115   1.392  15.654  13.360
52020W        W11116  25.164  13.261  12.517
52021W        W11117   2.400   5.420  12.444
52022W        W11118  38.500  13.628   4.211
52023W        W11119  14.591   3.359   1.819
52024W        W11120  34.556   2.807   2.347
52025W        W11121  43.812   8.678   4.344
52026W        W11122  17.302  31.586  12.932
52027W        W11123   3.740  25.179   4.653
52028W        W11124   2.461  25.671  10.527
52029W        W11125  39.537  40.870   3.837
52030W        W11126  36.907  33.625  11.882
52031W        W11127  16.131  25.143  14.855
52032W        W11128  40.041  19.114  13.919
52033W        W11129  30.488   9.228  13.987
52034W        W11130  36.439   8.224   2.762
52035W        W11131  27.163   1.329   4.762
52036W        W11132   7.233  17.797   0.468
52037W        W11133   7.883  23.491   2.228
52038W        W11134   3.418  14.246   3.671
52039W        W11135  29.154  16.172   0.961
52040W        W11136  12.266  31.556  13.821
52041W        W11137  12.234  10.647  13.402
52042W        W11138   8.212  32.468  14.007
52043W        W11139  26.095   9.884  10.943
52044W        W11140  22.664  19.751  14.286
52045W        W11141  21.744   5.767  14.931
52046W        W11142   5.340  37.062   4.246
52047W        W11143   6.404  28.108  11.463
52048W        W11144  24.490  29.546  12.838
52049W        W11145  22.599  33.879  12.514
52050W        W11146  25.037  24.663  12.953
52051W        W11147  30.132  28.003  14.511
52052W        W11148   6.697  28.099  12.917
52053W        W11149   8.840   0.435   0.284
52054W        W11150   8.331   3.929   2.844
52055W        W11151  40.494  21.230  14.491
52056W        W11152  10.780  10.339  11.064
52057W        W11153  28.566  31.096  11.026
52058W        W11154   6.370  36.516  14.321
52059W        W11155   2.777  17.216  11.122
52060W        W11156   7.882  28.012   3.685
52061W        W11157  27.151  15.226   0.767
52062W        W11158  24.507  14.833   1.934
52063W        W11159  16.246   0.830  12.990
52064W        W11160   1.334  35.593  10.477
52065W        W11161  37.899  18.558  10.133
52066W        W11162  28.933  33.038  11.115
52067W        W11163   3.372  17.241  10.914
52068W        W11164  22.582  31.139  10.610
52069W        W11165  22.245  32.060  12.971
52070W        W11166  43.825  15.207   1.304
52071W        W11167   8.671   4.372   3.339
52072W        W11168  16.135  16.242   1.870
52073W        W11169  43.322  12.698  13.492
52074W        W11170  21.061  13.696  13.310
52075W        W11171   0.894  20.739   4.194
52076W        W11172  24.667   1.935  12.380
52077W        W11173  26.164  11.689  11.899
52078W        W11174  34.398   8.187   4.734
52079W        W11175  31.563   3.415   3.302
52080W        W11176  42.962   1.293  14.780
52081W        W11177  21.142  15.797  12.489
52082W        W11178  37.026   9.714  11.870
52083W        W11179  27.504   2.341   0.902
52084W        W11180  39.442  18.099  14.032
52085W        W11181  20.655  12.207  14.363
52086W        W11182  28.455  32.136   2.875
52087W        W11183   7.407   4.775  14.842
52088W        W11184   9.152   7.880  10.989
52089W        W11185  30.454  13.172   4.640
52090W        W11186   3.338  18.216  13.417
52091W        W11187  44.883  27.127   3.636
52092W        W11188  10.203  13.649  10.623
52093W        W11189  22.186   3.345   3.760
52094W        W11190  41.945  13.333   4.736
52095W        W11191  19.145  11.714   3.745
52096W        W11192  41.883  35.984  13.049
52097W        W11193  21.257  33.523  13.004
52098W        W11194  41.913  33.581   0.353
52099W        W11195  33.986  28.043   0.387
52100W        W11196  31.902   8.680   2.298
52101W        W11197  28.670  22.203   3.635
52102W        W11198  29.077  38.921   1.915
52103W        W11199  26.694  29.474  11.976
52104W        W11200  31.445  43.819  13.538
52105W        W11201  31.546  12.262  14.433
52106W        W11202  20.251  31.050  14.785
52107W        W11203   1.762  23.571  12.521
52108W        W11204  15.236  34.079   1.871
52109W        W11205  28.536  36.558   0.733
52110W        W11206  21.148  44.307   5.308
52111W        W11207  17.640   6.396   0.277
52112W        W11208   1.459  21.682   1.245
52113W        W11209  21.680  32.961  13.374
52114W        W11210  31.578   6.800   0.396
52115W        W11211  18.186  37.380  10.036
52116W        W11212   9.216   3.739  11.030
52117W        W11213  13.751  33.429  10.966
52118W        W11214  30.019  42.418  12.948
52119W        W11215   4.444  19.039  12.563
52120W        W11216  18.738   9.869   3.344
52121W        W11217  31.625  30.020  14.802
52122W        W11218  13.180  11.250  12.364
52123W        W11219  38.472  23.085  12.981
52124W        W11220   5.311  28.993   4.323
52125W        W11221  39.035  40.368   4.210
52126W        W11222  38.418   4.889   0.931
52127W        W11223   7.853   4.900  11.088
52128W        W11224  21.096  11.263   1.842
52129W        W11225  37.880   1.858  14.000
52130W        W11226  36.568  44.397   3.753
52131W        W11227  20.654  33.126   3.678
52132W        W11228  30.492  28.114   1.718
52133W        W11229  20.273   2.321   0.292
52134W        W11230  11.664   2.917   0.296
52135W        W11231  17.693  40.966   9.585
52136W        W11232  14.660  26.503   0.780
52137W        W11233  36.984   9.178  13.886
52138W        W11234  23.572   4.319   4.220
52139W        W11235   1.349  18.257   4.257
52140W        W11236   6.846  37.410   0.922
52141W        W11237  28.459  10.655   4.824
52142W        W11238  43.990  25.609  13.359
52143W        W11239  44.770  43.964  11.976
52144W        W11240  11.730  20.591   5.140
52145W        W11241  26.497  27.644  14.806
52146W        W11242  37.373  14.196  10.418
52147W        W11243  20.693  18.254  11.570
52148W        W11244  18.237   2.829  13.962
52149W        W11245  34.949   0.252  12.089
52150W        W11246  26.146  42.792  13.443
52151W        W11247  12.685  16.152   2.849
52152W        W11248  12.674  18.715  14.454
52153W        W11249   2.336  35.973  14.411
52154W        W11250  42.350  19.738  14.514
52155W        W11251  22.526  21.611   1.360
52156W        W11252  29.446  27.177   4.634
52157W        W11253  37.502  44.886   2.856
52158W        W11254  35.532  35.986  10.982
52159W        W11255  14.715  14.125   2.757
52160W        W11256  27.011   3.401   1.726
52161W        W11257   8.890  12.838  13.050
52162W        W11258  38.481  22.670  11.421
52163W        W11259  41.389   0.346  10.554
52164W        W11260  29.009  23.097   2.690
52165W        W11261  27.463   5.920  12.379
52166W        W11262   0.266   8.685   3.648
52167W        W11263   9.258  22.722  10.945
52168W        W11264  38.869   3.459   1.858
52169W        W11265  16.795   3.434   2.806
52170W        W11266  29.961  39.046   4.158
52171W        W11267  26.462  29.564   1.355
52172W        W11268   1.472  30.445   2.316
52173W        W11269  37.025  41.461  11.510
52174W        W11270   3.921  28.940   2.877
52175W        W11271  38.453   8.313  14.403
52176W        W11272  39.467  28.646  13.896
52177W        W11273   6.823  18.169   0.333
52178W        W11274  26.540   9.644  14.301
52179W        W11275  15.313  12.122  11.884
52180W        W11276  33.029  15.194  12.067
52181W        W11277  23.128   5.382   0.818
52182W        W11278  14.202  25.581  12.867
52183W        W11279  43.354  24.995   3.225
52184W        W11280  41.383  41.471  14.995
52185W        W11281  10.633  21.023  14.808
52186W        W11282  15.305   2.329  10.998
52187W        W11283  43.407  40.868   2.845
52188W        W11284  44.326  40.332   4.289
52189W        W11285   0.380   9.834   3.173
52190W        W11286   4.369  11.709  12.521
52191W        W11287  26.062  20.596  14.408
52192W        W11288   5.823  21.548   3.338
52193W        W11289  36.408  43.891  12.355
52194W        W11290   1.308   9.158   3.752
52195W        W11291  30.545  33.566  14.301
52196W        W11292  38.374  24.529   2.239
52197W        W11293  37.874  14.619   2.226
52198W        W11294  12.117  10.230   4.179
52199W        W11295  32.892  27.041   9.998
52200W        W11296  33.971  32.554  11.899
52201W        W11297  18.288  23.663  11.951
52202W        W11298   4.821   7.354  11.604
52203W        W11299   9.207  20.263   4.154
52204W        W11300  37.880  42.427  11.478
52205W        W11301  27.099   2.812  14.359
52206W        W11302   2.362   5.388  11.531
52207W        W11303  40.006  23.580   0.866
52208W        W11304   7.264  12.846  12.071
52209W        W11305  34.958  36.460  14.516
52210W        W11306  34.421  20.077  14.976
52211W        W11307  33.972  26.025   3.356
52212W        W11308  14.664  25.206   2.720
52213W        W11309  28.052  40.968  11.392
52214W        W11310  19.145  26.108   4.614
52215W        W11311  12.703  38.033   2.682
52216W        W11312  25.038  44.325  14.338
52217W        W11313  17.069  15.161  11.988
52218W        W11314  44.293  21.234   2.867
52219W        W11315   9.384  13.121  14.966
52220W        W11316  24.092  20.607   1.814
52221W        W11317  32.918  30.163  10.605
52222W        W11318  12.714   3.446   4.733
52223W        W11319  29.536  24.081  13.905
52224W        W11320   2.862  14.733  12.546
52225W        W11321  16.301  38.411  10.520
52226W        W11322  38.930  39.902   2.276
52227W        W11323  11.674  22.605   4.341
52228W        W11324   0.325  36.935   2.901
52229W        W11325  25.622  41.332   0.922
52230W        W11326  21.698  31.060  12.029
52231W        W11327   1.744   6.424   3.369
52232W        W11328  27.587  12.807   1.730
52233W        W11329  10.313  30.958   4.823
52234W        W11330  18.645  19.698  10.623
52235W        W11331  32.472  34.478  12.827
52236W        W11332  43.776  17.282   4.192
52237W        W11333  10.346  44.362  11.526
52238W        W11334   9.701   3.229  13.499
52239W        W11335  12.742  35.864  11.585
52240W        W11336  43.012   4.798  12.907
52241W        W11337  14.678  35.017   2.227
52242W        W11338  37.895  20.702   0.328
52243W        W11339   3.716  30.439  14.808
52244W        W11340  12.795  13.753   1.874
52245W        W11341  10.347   0.954  11.079
52246W        W11342   8.802  27.670   4.337
52247W        W11343   4.918  24.560  13.939
52248W        W11344  14.701  33.593   2.796
52249W        W11345   1.252   4.246  13.313
52250W        W11346  26.528  40.338  12.997
52251W        W11347  29.079  36.860  10.615
52252W        W11348   0.885  39.933   3.326
52253W        W11349  26.171  32.945  14.286
52254W        W11350  34.482  23.557  11.610
52255W        W11351   7.769  23.692  10.607
52256W        W11352  25.476  39.831  14.960
52257W        W11353  28.988  44.288  12.428
52258W        W11354  23.628  26.596  12.567
52259W        W11355   2.795  28.070  14.844
52260W        W11356  42.839  41.793   3.792
52261W        W11357  35.110  30.502   3.341
52262W        W11358  20.221  10.155   0.809
52263W        W11359  11.857  18.788   0.481
52264W        W11360  23.656  34.458   9.481
52265W        W11361  43.391  43.372   3.278
52266W        W11362  38.346  16.309  12.348
52267W        W11363  32.426  43.923   2.848
52268W        W11364  44.503  11.673  14.859
52269W        W11365  28.038  33.613   2.251
52270W        W11366  23.505  38.897  12.342
52271W        W11367   7.215  26.996   9.934
52272W        W11368  10.768  14.319   3.377
52273W        W11369  22.077  22.183  10.407
52274W        W11370  43.473  33.923   0.293
52275W        W11371  26.646  26.178   2.183
52276W        W11372  40.835  11.705   0.819
52277W        W11373  25.202  43.992  12.074
52278W        W11374  42.915  41.313   1.437
52279W        W11375  13.321   5.372   3.274
52280W        W11376  13.732  28.493   2.838
52281W        W11377   3.255  30.984   4.311
52282W        W11378  10.262  30.955   2.675
52283W        W11379   9.333  15.213   1.432
52284W        W11380  12.346  32.400   3.856
52285W        W11381  25.100   2.940   2.357
52286W        W11382  18.683  42.404   1.779
52287W        W11383  18.148  42.371  11.990
52288W        W11384  42.942  33.994  13.309
52289W        W11385  42.337  24.089   2.182
52290W        W11386  26.701  21.564   3.156
52291W        W11387  14.143  17.136  10.095
52292W        W11388   6.187  28.674  10.550
52293W        W11389  43.443  15.743   2.875
52294W        W11390  24.098  18.188  12.461
52295W        W11391  42.783  40.417   1.254
52296W        W11392   5.390  34.098   4.330
52297W        W11393  36.914   9.160  13.064
52298W        W11394  35.548  34.089   2.313
52299W        W11395   5.423  15.294  13.424
52300W        W11396  36.009  26.578   4.241
52301W        W11397  11.723  37.838  14.307
52302W        W11398  44.795  34.000  11.393
52303W        W11399  23.548  21.212  14.385
52304W        W11400  12.649  38.478   3.385
52305W        W11401  16.694  15.110  14.902
52306W        W11402  10.283  40.313  14.447
52307W        W11403  18.572  15.218  10.581
52308W        W11404   9.205  38.525  12.995
52309W        W11405  23.056  30.058  13.900
52310W        W11406  39.864  42.463   2.272
52311W        W11407  16.702  29.571  14.787
52312W        W11408   4.354  21.197  10.414
52313W        W11409  35.498  27.087  10.570
52314W        W11410  15.732  15.762   2.856
52315W        W11411  16.219  36.974  13.530
52316W        W11412  39.393  34.874   2.833
52317W        W11413  37.569  13.321   5.169
52318W        W11414   1.376  17.621  14.508
52319W        W11415  10.842  36.404   0.918
52320W        W11416  31.536  18.656   3.187
52321W        W11417  38.458  22.704  12.833
52322W        W11418  23.612  20.670   1.727
52323W        W11419  25.164   8.406  11.412
52324W        W11420   9.180  31.095   1.311
52325W        W11421  22.205  15.620  13.525
52326W        W11422   6.382  35.985   2.208
52327W        W11423   4.826  41.030   3.743
52328W        W11424  17.238  32.132  14.377
52329W        W11425   8.348  14.616  10.890
52330W        W11426  40.520  27.499   4.694
52331W        W11427  33.880  26.658   1.871
52332W        W11428  29.083  29.465  11.413
52333W        W11429  14.754   8.192   4.639
52334W        W11430   6.765  30.924   2.829
52335W        W11431  22.554  44.828  11.485
52336W        W11432  13.295  44.985  11.508
52337W        W11433  11.763  36.869   4.631
52338W        W11434  31.042  27.141  11.955
52339W        W11435  42.386  27.955  12.413
52340W        W11436  21.748  21.210   4.203
52341W        W11437  21.232  22.144   2.842
52342W        W11438  35.449  43.443   0.811
52343W        W11439  42.922  44.951  13.915
52344W        W11440  36.528  22.077   2.236
52345W        W11441   0.361  34.964  12.956
52346W        W11442   7.231   3.335  12.576
52347W        W11443  22.612   7.204  13.807
52348W        W11444   7.269  22.059  10.643
52349W        W11445  25.011   9.692   2.896
52350W        W11446  29.536   9.356   1.816
52351W        W11447  10.205   0.309   1.854
52352W        W11448  41.368   9.799  12.491
52353W        W11449  31.531  35.093  12.481
52354W        W11450  16.669  23.623  10.626
52355W        W11451  38.371  28.074   3.297
52356W        W11452  42.393  18.189   1.321
52357W        W11453  39.051   0.393   2.196
52358W        W11454  40.545  19.163   2.698
52359W        W11455  17.603  25.519   4.625
52360W        W11456  12.788   9.779  13.413
52361W        W11457  40.311  39.934   0.463
52362W        W11458   2.328  16.169   1.748
52363W        W11459  17.770  30.583  14.289
52364W        W11460   3.294  31.533  11.484
52365W        W11461   3.758  26.112  13.546
52366W        W11462   8.266  13.648   3.168
52367W        W11463   0.830   2.945  13.375
52368W        W11464   0.970  42.336   2.183
52369W        W11465  20.213  44.896   0.426
52370W        W11466  22.251  41.533  14.923
52371W        W11467  42.527   1.879   3.154
52372W        W11468  37.503  39.357   1.356
52373W        W11469  38.526  29.948  12.972
52374W        W11470  36.551  34.571  12.927
52375W        W11471  23.619  35.593  11.465
52376W        W11472  31.635  16.168   2.898
52377W        W11473  44.431   6.901  10.922
52378W        W11474  41.884   8.300   2.182
52379W        W11475  33.558  29.136   0.296
52380W        W11476  19.134  17.615   2.323
52381W        W11477   3.400  16.109   3.382
52382W        W11478   7.886  28.141   0.353
52383W        W11479  22.622   2.241   3.375
52384W        W11480  44.780  32.045  11.509
52385W        W11481  25.172   2.343   1.771
52386W        W11482  29.440  15.606  13.343
52387W        W11483  18.134  33.467  12.461
52388W        W11484   2.907   3.928  12.562
52389W        W11485  40.937  36.384   2.840
52390W        W11486  34.115  34.422   2.216
52391W        W11487  34.898  11.142   1.395
52392W        W11488  42.850  19.127   1.893
52393W        W11489  25.638  38.405  11.101
52394W        W11490  12.836  12.655  12.511
52395W        W11491  29.515  42.348  14.386
52396W        W11492  10.680   6.241  12.000
52397W        W11493   1.380  13.284  12.068
52398W        W11494  17.267  10.350  11.055
52399W        W11495  12.286  28.123   0.424
52400W        W11496  39.345  37.906  10.585
52401W        W11497  44.011  28.584   4.662
52402W        W11498  23.199  35.479  12.927
52403W        W11499   5.373  43.427   1.450
52404W        W11500  35.411  26.011  14.449
52405W        W11501  39.314   2.407   1.846
52406W        W11502  10.307  25.042   5.267
52407W        W11503  23.702   5.255   1.921
52408W        W11504  32.504  33.560  12.385
52409W        W11505   8.824  10.305   0.263
52410W        W11506   5.267  38.426  14.359
52411W        W11507  27.151  15.106  14.357
52412W        W11508   5.322  39.887  14.462
52413W        W11509  19.139  24.598   1.785
52414W        W11510   8.284   0.857  10.490
52415W        W11511  31.594  29.612   4.622
52416W        W11512  40.353  23.190  13.945
52417W        W11513  44.890  44.777  14.026
52418W        W11514  32.602  38.360  10.515
52419W        W11515  42.967  25.552   4.741
52420W        W11516  41.426   0.401   2.377
52421W        W11517   3.845  37.879   3.823
52422W        W11518  30.623   7.282   3.775
52423W        W11519  44.312  43.390  11.509
52424W        W11520  13.106  36.027  13.428
52425W        W11521  32.949  18.112   1.391
52426W        W11522   9.379  30.627   2.245
52427W        W11523  28.446  15.708   0.961
52428W        W11524  31.533   8.897   1.780
52429W        W11525  42.486  39.872   2.773
52430W        W11526   9.212  38.551   4.656
52431W        W11527  14.128  22.137  11.055
52432W        W11528   0.987  32.014  12.556
52433W        W11529  36.557   4.298   1.217
52434W        W11530   0.798  33.889   2.267
52435W        W11531  29.008  26.035  14.017
52436W        W11532  19.186  39.382  13.891
52437W        W11533  12.285  18.200   3.166
52438W        W11534  43.906  37.893  10.944
52439W        W11535  22.227  15.820   3.832
52440W        W11536   4.439   5.192  10.983
52441W        W11537  11.847  44.914   4.348
52442W        W11538   4.839  26.496  14.828
52443W        W11539  30.985  17.556   3.368
52444W        W11540   0.787  10.141  14.960
52445W        W11541  33.576   9.320   0.324
52446W        W11542   8.699  33.601   2.355
52447W        W11543  12.768   8.243   1.909
52448W        W11544  38.568  18.779   0.325
52449W        W11545  18.170  31.490   0.775
52450W        W11546  10.151  40.006  11.027
52451W        W11547  13.642  28.655   3.232
52452W        W11548   9.668   4.841  11.558
52453W        W11549  15.201  38.071   0.349
52454W        W11550  19.057   0.957  12.011
52455W        W11551   2.320   4.268   2.770
52456W        W11552  32.517   0.396   3.775
52457W        W11553  34.074  14.112  13.491
52458W        W11554  12.205  37.030  10.507
52459W        W11555  43.349  42.364  10.617
52460W        W11556  35.860   6.781  13.896
52461W        W11557   0.902  16.777   3.301
52462W        W11558  37.390  44.301  14.817
52463W        W11559  35.516   0.841  11.871
52464W        W11560  11.372  28.046   2.705
52465W        W11561   4.832  38.414  12.568
52466W        W11562  31.116  24.639  14.933
52467W        W11563  38.411   3.934  14.383
52468W        W11564   6.679  21.634  13.376
52469W        W11565  43.443  19.126  13.827
52470W        W11566  35.492   8.295   2.793
52471W        W11567  28.977  44.273  12.900
52472W        W11568   9.333  15.313  14.308
52473W        W11569  40.030  23.189  14.281
52474W        W11570  41.526   7.363  13.018
52475W        W11571  24.569  39.904   1.837
52476W        W11572  11.288  20.581   4.688
52477W        W11573   1.966  16.582   1.409
52478W        W11574   9.197  35.378   0.893
52479W        W11575  33.464   8.321  12.084
52480W        W11576   3.894  43.492  13.061
52481W        W11577  27.528  42.365   4.723
52482W        W11578   6.832  21.254   2.771
52483W        W11579   8.799  35.518   3.313
52484W        W11580  34.109  13.671   1.396
52485W        W11581  30.420   2.465   1.367
52486W        W11582  23.087  32.562  14.511
52487W        W11583  21.241  36.879   2.664
52488W        W11584  39.942  13.822   0.246
52489W        W11585  28.067  33.619   1.732
52490W        W11586   9.686  43.971   4.709
52491W        W11587  39.463  32.920   4.248
52492W        W11588  41.825  15.139   4.737
52493W        W11589   0.257   6.293   1.353
52494W        W11590  12.128  31.576  10.969
52495W        W11591  35.965  13.268  13.040
52496W        W11592  17.776  21.627   3.336
52497W        W11593  32.972  14.695   5.234
52498W        W11594  32.553  35.533   2.794
52499W        W11595   4.281   8.878  13.034
52500W        W11596  34.489  16.687   1.317
52501W        W11597  29.116  14.600   3.289
52502W        W11598  25.104  40.986  12.062
52503W        W11599  27.470  37.886   1.405
52504W        W11600  32.995  19.074   2.844
52505W        W11601  37.882  31.068  14.497
52506W        W11602  17.718   7.728   1.761
52507W        W11603  39.906   9.319   0.878
52508W        W11604  25.028   1.876  13.942
52509W        W11605  38.351  32.914  14.992
52510W        W11606  25.207  30.439  12.019
52511W        W11607  17.171  35.090   4.350
52512W        W11608  33.526  34.046   2.370
52513W        W11609  17.103   1.880  14.970
52514W        W11610  30.596  43.391   3.300
52515W        W11611  39.526   7.402   2.305
52516W        W11612  11.222  44.849   4.253
52517W        W11613  15.176  24.074  12.419
52518W        W11614  15.752  15.322  12.339
52519W        W11615  12.166  19.590  13.978
52520W        W11616  10.802  20.526   3.383
52521W        W11617   1.935   4.291  14.463
52522W        W11618  11.680  22.714   2.834
52523W        W11619  34.553   6.883   2.348
52524W        W11620  24.532  25.044   4.750
52525W        W11621  43.467  20.762   3.323
52526W        W11622  19.724  12.682   4.298
52527W        W11623  44.468  33.619   0.308
52528W        W11624  33.442  13.680   2.273
52529W        W11625  38.073   1.951   4.605
52530W        W11626  18.109  19.237   3.802
52531W        W11627  13.193  34.065  11.561
52532W        W11628  34.071  24.224   3.273
52533W        W11629  20.601  31.421   1.823
52534W        W11630  16.262   4.864   3.267
52535W        W11631   1.238  28.973   2.784
52536W        W11632  38.904   8.317   2.313
52537W        W11633  24.103  14.737   4.627
52538W        W11634  21.086   5.425  12.427
52539W        W11635  43.407  11.205   4.193
52540W        W11636  21.579   8.376   2.888
52541W        W11637   0.297  25.085   3.755
52542W        W11638  22.646  32.998   0.944
52543W        W11639  30.433  27.496   2.306
52544W        W11640  40.475  42.376   2.357
52545W        W11641  28.018  13.189   5.141
52546W        W11642  18.645   9.725  12.471
52547W        W11643   3.277  38.502  14.293
52548W        W11644  29.067  42.479   0.329
52549W        W11645  23.576   7.676   1.855
52550W        W11646  20.084  31.127   0.944
52551W        W11647  16.648  25.538  11.064
52552W        W11648  12.227  25.573  11.599
52553W        W11649  31.585   1.349  11.541
52554W        W11650   3.874  31.560  13.900
52555W        W11651   3.295  29.472  11.980
52556W        W11652  32.038  17.785   4.767
52557W        W11653   3.837  12.124  11.578
52558W        W11654  35.412  28.075  11.894
52559W        W11655  37.361   2.447  10.566
52560W        W11656  10.848  24.996   2.234
52561W        W11657  24.185  12.165   3.283
52562W        W11658  22.209  34.372   2.739
52563W        W11659  40.025  40.304   1.225
52564W        W11660  28.022  22.685  13.917
52565W        W11661  39.934  11.205  13.514
52566W        W11662  35.362  15.157  11.482
52567W        W11663   8.831  26.663   1.842
52568W        W11664  17.558  32.597  13.542
52569W        W11665  38.554   3.277   3.670
52570W        W11666  28.593  27.118  14.377
52571W        W11667  44.775  31.990  13.000
52572W        W11668  15.618  37.953  10.562
52573W        W11669  16.749  44.340   4.154
52574W        W11670   6.207  18.624  10.603
52575W        W11671  15.646  22.248   1.885
52576W        W11672   7.281  37.059   0.376
52577W        W11673  30.978   6.295  14.354
52578W        W11674  44.309  28.630  11.554
52579W        W11675   0.408  39.036   4.811
52580W        W11676  39.436  42.379   0.908
52581W        W11677  40.528   1.247   1.228
52582W        W11678  26.161  12.660  13.949
52583W        W11679  19.562   1.389   4.218
52584W        W11680  14.168  22.717   1.276
52585W        W11681  39.061  17.753   3.200
52586W        W11682  24.595  31.998  14.458
52587W        W11683  37.929  37.028  12.351
52588W        W11684   7.285  41.414   4.625
52589W        W11685   5.425   1.884  12.011
52590W        W11686   3.327  18.555  11.960
52591W        W11687  22.066  28.970  12.829
52592W        W11688  33.500   5.790  13.313
52593W        W11689   0.297   7.249  11.952
52594W        W11690  41.296  10.772  14.417
52595W        W11691  34.920  18.136   3.737
52596W        W11692  19.774  13.687  11.438
52597W        W11693  24.195   4.854   5.289
52598W        W11694  39.391  38.847  10.568
52599W        W11695  40.931   0.961   0.388
52600W        W11696  13.256  22.048   1.855
52601W        W11697  11.326  26.985   0.331
52602W        W11698  21.636   1.758   1.792
52603W        W11699  23.549  24.707   3.756
52604W        W11700  19.081   9.710  14.326
52605W        W11701  18.696  38.873   4.636
52606W        W11702  26.075   2.881  10.935
52607W        W11703   0.985   6.851  14.285
52608W        W11704  16.583  32.533   0.398
52609W        W11705  35.033  34.479  10.126
52610W        W11706   0.755   8.891   3.817
52611W        W11707  42.494  11.337   3.355
52612W        W11708  23.132  33.885   3.793
52613W        W11709   3.747  21.035   5.158
52614W        W11710   1.751   6.196  14.892
52615W        W11711   0.838  37.963  10.520
52616W        W11712  20.176   5.819   3.335
52617W        W11713   3.918  20.038   0.922
52618W        W11714  38.401  27.452   1.212
52619W        W11715  24.647  14.720  13.913
52620W        W11716  26.957  26.612   1.718
52621W        W11717  15.586  10.821  13.355
52622W        W11718  18.767  22.179  11.564
52623W        W11719  12.838   7.242  12.921
52624W        W11720   7.714  16.594   0.341
52625W        W11721  24.684  25.061   2.315
52626W        W11722  29.058  30.159   2.332
52627W        W11723  23.643  15.256  11.496
52628W        W11724   8.258   9.240  13.040
52629W        W11725  23.601  27.048   4.810
52630W        W11726  42.938   7.271  14.955
52631W        W11727  39.061  15.263   1.337
52632W        W11728  40.546  42.903  11.032
52633W        W11729   5.378  30.569   4.771
52634W        W11730  13.311   7.210   2.324
52635W        W11731  26.518  25.036   4.310
52636W        W11732   3.281  36.952   1.889
52637W        W11733   4.746  19.091   3.650
52638W        W11734  20.075   3.343   3.835
52639W        W11735  21.204  10.833   4.737
52640W        W11736  21.592  43.482  12.341
52641W        W11737   8.232  31.445   0.457
52642W        W11738  29.461  35.054  13.841
52643W        W11739  32.103   2.789   1.731
52644W        W11740  13.643   9.730   1.727
52645W        W11741  39.056  26.648  13.436
52646W        W11742  42.374   7.213   2.731
52647W        W11743  36.035  17.235   2.356
52648W        W11744  11.229  17.223  13.922
52649W        W11745  28.986   9.336  11.393
52650W        W11746   5.739  14.764  11.479
52651W        W11747  16.197  21.250  13.933
52652W        W11748   4.437  27.590  14.382
52653W        W11749  34.904  34.925  12.542
52654W        W11750  33.874  19.631   1.214
52655W        W11751   1.907  42.954  13.033
52656W        W11752  12.259  25.084  12.943
52657W        W11753  17.757   9.671  12.907
52658W        W11754  29.470  34.519   3.773
52659W        W11755   7.395  27.464  13.504
52660W        W11756  30.908   5.863   4.771
52661W        W11757  40.523  20.170  14.869
52662W        W11758  30.907  19.647  13.952
52663W        W11759  22.662   3.298  14.295
52664W        W11760   1.790  32.034   1.379
52665W        W11761   8.680  19.660   2.734
52666W        W11762  21.756  38.468   2.178
52667W        W11763  22.716   5.761  11.023
52668W        W11764   6.902  39.880  12.575
52669W        W11765   0.759  21.729   0.826
52670W        W11766   2.404  37.839   2.889
52671W        W11767  35.960  42.866   2.780
52672W        W11768  15.625  34.954  12.342
52673W        W11769  30.149  32.527  12.458
52674W        W11770  38.376  22.734   4.316
52675W        W11771  14.769  13.837  11.957
52676W        W11772  30.044  30.027  14.810
52677W        W11773  26.487  38.829   2.177
52678W        W11774  33.129  16.685  12.048
52679W        W11775  25.589  42.421   1.714
52680W        W11776  18.249  24.037   4.824
52681W        W11777  11.835  36.882   3.779
52682W        W11778  23.626  32.886   4.622
52683W        W11779  14.805  38.005  14.499
52684W        W11780  17.220   8.836   3.145
52685W        W11781   1.845  31.060  11.070
52686W        W11782  41.458  13.287   0.818
52687W        W11783  14.155  42.403  12.353
52688W        W11784   4.723  42.429   4.619
52689W        W11785  41.879  11.837  11.014
52690W        W11786   4.900  13.610  12.384
52691W        W11787  14.321  14.258  11.019
52692W        W11788  19.229  38.933  10.897
52693W        W11789  17.755  41.897  12.575
52694W        W11790   2.355  15.087   0.328
52695W        W11791  36.471  27.511  14.927
52696W        W11792  35.478  11.292   3.680
52697W        W11793  13.331  40.389   1.326
52698W        W11794   6.240  39.952  10.416
52699W        W11795  31.565   9.254   0.956
52700W        W11796  18.275  31.141   4.791
52701W        W11797   6.262  44.923   0.736
52702W        W11798   6.289  16.596  10.564
52703W        W11799  22.695  32.098  11.495
52704W        W11800   6.413  41.411  10.536
52705W        W11801  11.687  31.535   2.417
52706W        W11802  16.272  14.214   4.148
52707W        W11803   1.381  36.529  12.932
52708W        W11804  19.738  15.638   0.299
52709W        W11805   4.413  41.315   4.328
52710W        W11806  26.613   8.208  12.346
52711W        W11807   0.303  43.812  14.809
52712W        W11808  40.906  24.071   4.661
52713W        W11809  33.991  29.012   3.345
52714W        W11810  13.333  21.236  12.365
52715W        W11811  19.081  31.581  14.340
52716W        W11812  14.768  11.287  10.990
52717W        W11813   3.280  44.414   4.208
52718W        W11814  42.317   8.301  12.556
52719W        W11815  16.101  40.547   3.761
52720W        W11816   6.339   3.235   2.779
52721W        W11817   0.900  32.923  11.487
52722W        W11818  19.198  31.502   1.886
52723W        W11819  19.272   2.337  13.402
52724W        W11820   0.307   5.797   2.813
52725W        W11821  18.267  13.269  12.994
52726W        W11822   3.918  40.020  10.474
52727W        W11823  26.094  30.128   2.705
52728W        W11824  16.204  44.427  13.951
52729W        W11825  12.358  27.463  13.980
52730W        W11826  10.649  15.788   2.896
52731W        W11827  32.983  11.707   4.810
52732W        W11828  23.025  10.150  11.877
52733W        W11829  10.312  18.212   4.232
52734W        W11830  12.233  38.548  14.888
52735W        W11831  12.296  36.025   2.859
52736W        W11832  18.074  22.202   0.959
52737W        W11833  25.694  40.453  13.950
52738W        W11834  24.144  42.283   0.259
52739W        W11835  32.123  21.161   3.342
52740W        W11836  30.598  42.943  11.379
52741W        W11837  40.314  43.766   1.219
52742W        W11838  30.058   5.772   2.280
52743W        W11839  27.511  21.753   0.936
52744W        W11840  31.132  14.307   3.689
52745W        W11841   2.920   2.379   0.923
52746W        W11842  23.677  31.931  10.444
52747W        W11843  11.288   1.420   4.776
52748W        W11844  17.620   4.261   1.861
52749W        W11845   5.909  15.803   4.223
52750W        W11846   1.738   3.917   2.230
52751W        W11847   2.344  34.428  11.934
52752W        W11848  11.205  24.137   1.737
52753W        W11849  41.504   9.231   2.198
52754W        W11850  26.033  30.481  13.830
52755W        W11851   7.746  31.648   0.822
52756W        W11852   0.786  25.512  10.476
52757W        W11853  35.944  19.581  10.505
52758W        W11854   7.260  14.765   3.736
52759W        W11855  42.372  25.026   1.246
52760W        W11856  36.014  42.956  13.525
52761W        W11857   6.801  12.672   2.796
52762W        W11858   7.802  38.537  14.825
52763W        W11859  23.013  22.199  14.885
52764W        W11860  40.508  12.351   4.654
52765W        W11861  15.149  12.214   1.306
52766W        W11862  38.476  39.468   2.301
52767W        W11863  21.116  40.946  11.410
52768W        W11864   6.910  20.526   1.879
52769W        W11865  10.702  21.594   4.741
52770W        W11866  43.909   0.256   4.666
52771W        W11867  35.531   6.279  12.920
52772W        W11868  15.791   8.819  13.499
52773W        W11869  37.424  40.853  11.485
52774W        W11870  35.973  10.650  14.013
52775W        W11871  21.755  42.283  13.839
52776W        W11872  11.372  10.775  14.803
52777W        W11873  33.506   4.405   2.782
52778W        W11874  26.136  24.216   1.804
52779W        W11875  44.338  10.377   0.404
52780W        W11876  39.537  32.458   3.385
52781W        W11877   4.706  17.098  11.104
52782W        W11878  37.937  39.543   4.333
52783W        W11879  16.280  28.542  13.334
52784W        W11880  15.676  27.457   2.267
52785W        W11881  20.234  34.052   4.149
52786W        W11882  35.895  25.217  13.833
52787W        W11883  37.959  37.043   4.329
52788W        W11884  29.609  26.101   4.185
52789W        W11885  21.165  28.059   5.222
52790W        W11886  30.916  11.230   4.681
52791W        W11887  35.875  33.935   0.438
52792W        W11888  19.537  37.495  11.421
52793W        W11889  13.738  26.049  10.431
52794W        W11890  33.386  15.292   3.383
52795W        W11891  28.443   0.344  12.465
52796W        W11892  15.646   9.812   2.865
52797W        W11893  29.998  11.769  12.947
52798W        W11894   5.707  33.125  11.066
52799W        W11895  32.495  40.374   3.868
52800W        W11896  10.649  12.261   4.783
52801W        W11897  33.964  30.111  12.471
52802W        W11898  34.053  43.874   3.292
52803W        W11899  29.120  16.130   3.384
52804W        W11900  42.033  30.536   1.861
52805W        W11901  25.492  18.161   1.397
52806W        W11902  44.807  15.700   3.770
52807W        W11903  14.667   2.257  12.348
52808W        W11904  39.844  28.076   2.214
52809W        W11905  27.129  20.189   2.358
52810W        W11906  36.862  12.312  12.565
52811W        W11907   9.784  38.489  11.113
52812W        W11908  41.480  43.890  13.974
52813W        W11909  41.033  16.628  13.526
52814W        W11910  30.619  14.152  13.795
52815W        W11911  12.628  13.686  14.961
52816W        W11912  18.751   3.947  13.432
52817W        W11913   1.273  44.276   2.237
52818W        W11914  30.914  42.408  12.012
52819W        W11915  13.339   1.251   3.384
52820W        W11916  21.724  21.066  11.015
52821W        W11917   5.827  10.821  14.798
52822W        W11918  22.041   7.899  14.328
52823W        W11919  43.876  14.104   4.289
52824W        W11920   4.254  12.850   4.197
52825W        W11921  41.847  12.631   4.244
52826W        W11922  42.024   3.876   2.378
52827W        W11923  34.102  32.502   2.810
52828W        W11924  24.490  34.045  13.538
52829W        W11925  34.554  22.570  12.047
52830W        W11926  30.958  29.522  11.522
52831W        W11927  17.243  14.176   3.190
52832W        W11928   3.426   8.679  12.371
52833W        W11929  16.700   4.254  11.527
52834W        W11930  16.213   7.827   0.397
52835W        W11931  31.902  21.082   3.869
52836W        W11932  42.983  22.090   3.220
52837W        W11933   2.910  24.187  13.362
52838W        W11934  24.684  20.047   2.855
52839W        W11935  20.683   5.278   2.670
52840W        W11936  27.625  38.960   3.251
52841W        W11937  14.589  36.584  12.481
52842W        W11938  21.204  37.560  11.461
52843W        W11939  27.688  16.756  14.374
52844W        W11940  14.782   5.386   2.245
52845W        W11941  14.710  14.102  13.452
52846W        W11942  19.630   4.408   2.322
52847W        W11943  10.797  19.770  12.898
52848W        W11944   4.926   2.337   1.284
52849W        W11945   1.270  13.717  13.524
52850W        W11946   7.409  18.548  13.545
52851W        W11947  17.302  32.109   2.290
52852W        W11948  22.671  15.092   1.911
52853W        W11949  30.942   3.283  13.492
52854W        W11950  20.591  21.221  12.062
52855W        W11951  19.129  17.590  13.937
52856W        W11952   8.350   6.194  11.983
52857W        W11953  25.050  43.499   4.123
52858W        W11954   4.410  18.554   1.743
52859W        W11955  21.584   3.861   4.119
52860W        W11956  41.022  17.735  11.093
52861W        W11957  13.234  38.903  11.496
52862W        W11958   7.254  15.778  11.935
52863W        W11959  29.918  44.891  14.995
52864W        W11960   0.811   1.796   1.329
52865W        W11961  11.739  43.484   3.790
52866W        W11962  30.443  10.267   2.880
52867W        W11963  20.071   2.947   3.204
52868W        W11964  32.439  22.094   5.124
52869W        W11965  40.978  34.988   3.204
52870W        W11966  41.918  31.535   3.321
52871W        W11967  32.045   9.188   1.851
52872W        W11968  22.110  21.183  14.357
52873W        W11969  37.450   3.438  12.004
52874W        W11970  34.391  14.217  11.559
52875W        W11971  24.061   3.813   2.301
52876W        W11972   3.777  17.755   3.323
52877W        W11973   9.647  23.094  12.431
52878W        W11974  33.535   1.955  10.152
52879W        W11975  12.319  29.918  13.914
52880W        W11976  43.808  39.517   2.308
52881W        W11977   3.767  26.683  13.015
52882W        W11978   8.259  20.094  11.501
52883W        W11979  39.387  32.495  14.318
52884W        W11980  40.389  37.507  12.383
52885W        W11981   6.855  10.235   3.338
52886W        W11982   1.738  31.009  11.521
52887W        W11983  34.587  13.310  12.016
52888W        W11984  25.575  44.814  12.368
52889W        W11985  30.940  20.675   1.714
52890W        W11986  36.087  18.763   1.335
52891W        W11987  36.041  17.689   5.101
52892W        W11988  19.575  22.162   3.725
52893W        W11989  25.094  26.073  14.985
52894W        W11990  36.025  16.211  11.948
52895W        W11991   9.652  27.527  10.914
52896W        W11992  36.048  43.872   0.880
52897W        W11993  14.302  11.709  13.797
52898W        W11994  33.024  22.546  13.022
52899W        W11995  43.802   1.893  13.843
52900W        W11996  26.475   3.437   0.296
52901W        W11997  26.692  10.305   4.799
52902W        W11998  35.026   2.279   1.891
52903W        W11999  36.076   9.795  10.897
52904W        W12000  20.737  42.311   2.303
52905W        W12001  32.929  15.162   1.748
52906W        W12002  18.679  37.480   0.783
52907W        W12003  20.699  19.662   3.231
52908W        W12004  13.664  40.942   0.349
52909W        W12005  37.875  31.035   0.480
52910W        W12006  31.984  12.658  12.929
52911W        W12007  37.862  24.180   1.820
52912W        W12008  10.739  26.153   4.748
52913W        W12009  12.705  37.987  13.440
52914W        W12010  21.106  21.602   3.165
52915W        W12011  30.429  39.919   2.351
52916W        W12012  19.758  13.734   1.845
52917W        W12013  44.863  34.450  14.877
52918W        W12014  28.481   1.366   2.718
52919W        W12015  21.099  38.538  12.036
52920W        W12016  43.457  42.431   4.228
52921W        W12017  17.595  43.867  11.612
52922W        W12018  17.098   3.730  13.885
52923W        W12019  11.321  29.547  13.375
52924W        W12020  10.807   9.649   3.675
52925W        W12021   6.775  18.194   2.763
52926W        W12022  42.338  34.516   4.150
52927W        W12023  34.942  35.051  13.980
52928W        W12024   5.737  17.240  13.424
52929W        W12025  35.522  15.712   1.382
52930W        W12026  18.566  13.766  12.929
52931W        W12027  26.496  31.947  12.972
52932W        W12028   4.920   6.856  13.979
52933W        W12029  11.189  23.161  11.434
52934W        W12030  15.577   8.886   0.414
52935W        W12031  42.886  43.012  11.541
52936W        W12032  14.665  37.336   4.780
52937W        W12033   6.243  17.307  13.034
52938W        W12034   4.381  14.699  10.997
52939W        W12035  25.213  22.022  13.814
52940W        W12036  16.744   4.806  11.467
52941W        W12037  28.623  21.232  12.055
52942W        W12038  41.979  28.507  14.278
52943W        W12039  19.764  35.914  13.824
52944W        W12040  44.859  12.733   0.953
52945W        W12041  10.754   6.689  13.002
52946W        W12042   6.810   4.233   3.720
52947W        W12043  36.890   8.163  11.868
52948W        W12044  23.570  29.432  13.045
52949W        W12045  19.563  10.189   1.859
52950W        W12046   3.923   2.352   4.633
52951W        W12047  14.610  16.681  10.039
52952W        W12048  16.232  40.925   0.396
52953W        W12049  27.687  20.571   9.929
52954W        W12050  33.083  42.295  10.492
52955W        W12051  33.607  40.970  10.405
52956W        W12052  30.076  12.804   1.860
52957W        W12053   7.261  37.552  12.368
52958W        W12054   6.855   3.418  13.488
52959W        W12055  17.125  44.318   0.436
52960W        W12056  11.691  10.735   4.324
52961W        W12057  20.567  14.718  14.330
52962W        W12058  30.657  38.495  12.563
52963W        W12059  30.010   3.356  12.877
52964W        W12060  26.126  25.140   2.249
52965W        W12061  23.985  16.670  12.355
52966W        W12062  42.302  14.223   3.767
52967W        W12063  21.103   0.969  12.410
52968W        W12064  27.016  27.130   2.203
52969W        W12065  37.058  38.352   2.414
52970W        W12066  44.279  41.419   3.254
52971W        W12067  29.563  21.055   1.867
52972W        W12068  43.829  24.140   0.853
52973W        W12069  34.030  31.411  14.381
52974W        W12070  32.489  27.182  13.464
52975W        W12071  42.804   7.249   0.353
52976W        W12072  22.995  19.636   1.387
52977W        W12073  42.512   2.367  10.530
52978W        W12074  33.500   0.876   3.168
52979W        W12075  38.023  41.405  12.470
52980W        W12076  35.882  21.708  12.863
52981W        W12077   6.374  28.182  10.958
52982W        W12078  12.703   1.949  13.859
52983W        W12079  30.085  30.553   4.129
52984W        W12080  26.501  10.835  14.323
52985W        W12081   3.355  38.355  10.934
52986W        W12082  41.807  26.487   0.864
52987W        W12083  38.891   5.754  10.015
52988W        W12084  10.856  14.640   9.964
52989W        W12085  25.585   3.454  13.430
52990W        W12086  29.565  31.027  12.029
52991W        W12087  23.665  11.223  13.991
52992W        W12088  18.091  31.064   2.815
52993W        W12089  12.181   0.744  10.469
52994W        W12090   5.878  24.555  14.871
52995W        W12091  38.476  32.592  14.497
52996W        W12092  14.788  28.525   0.440
52997W        W12093  42.005  17.732   3.851
52998W        W12094   5.438   4.376   2.764
52999W        W12095  26.977   1.780   4.734
53000W        W12096  13.638  11.147   1.277
53001W        W12097  14.588  21.599  13.817
53002W        W12098  37.534  36.918  11.381
53003W        W12099  23.047  25.018   0.473
53004W        W12100  13.333  26.043  14.460
53005W        W12101   8.763  32.955   4.683
53006W        W12102  38.449  13.127  14.338
53007W        W12103  21.690  35.395   1.897
53008W        W12104  32.520  41.293   1.220
53009W        W12105  43.915  39.496  14.984
53010W        W12106  27.475  18.074  13.511
53011W        W12107  33.588  37.542   3.152
53012W        W12108  10.312   7.392  12.860
53013W        W12109  43.949  15.259   0.337
53014W        W12110  24.664  22.998   3.283
53015W        W12111  21.647   5.904  10.108
53016W        W12112  44.441  12.134  14.807
53017W        W12113  28.615  17.758   3.310
53018W        W12114  19.276   2.306  12.974
53019W        W12115  33.516   8.674   0.245
53020W        W12116  15.708   3.248   4.666
53021W        W12117  29.450  21.224   2.783
53022W        W12118  31.517  29.175   2.354
53023W        W12119  39.889  36.843   4.764
53024W        W12120  10.692  31.015  11.493
53025W        W12121   5.753  26.588  13.971
53026W        W12122   3.421  21.698  12.344
53027W        W12123   1.269   2.873   0.284
53028W        W12124  19.617  11.809   0.437
53029W        W12125  15.162  14.321  13.430
53030W        W12126  14.257  21.020  12.011
53031W        W12127  23.121  14.650   0.906
53032W        W12128  15.738  44.888   3.283
53033W        W12129  19.699  23.546  10.426
53034W        W12130  36.035  12.264  14.299
53035W        W12131  17.753  37.830  13.402
53036W        W12132  44.332  15.600  14.988
53037W        W12133  42.299  18.784   2.895
53038W        W12134  30.589  32.117  10.534
53039W        W12135  44.309  39.449   4.184
53040W        W12136  35.916  24.713  14.766
53041W        W12137  22.676   3.746  14.508
53042W        W12138  43.492   0.893   2.688
53043W        W12139   2.907  28.971   4.687
53044W        W12140  16.770  24.542   1.823
53045W        W12141  35.059  40.519  13.375
53046W        W12142   4.824  23.204  10.890
53047W        W12143  14.319  28.943   0.478
53048W        W12144  22.075  39.412  12.827
53049W        W12145  34.500  38.872  10.916
53050W        W12146  20.616  43.985   1.828
53051W        W12147  35.956  10.234   2.708
53052W        W12148  13.652   2.323   0.893
53053W        W12149  27.558  10.870  14.440
53054W        W12150   3.330  17.755   4.325
53055W        W12151  27.645  33.921   0.460
53056W        W12152   2.264   3.892  14.486
53057W        W12153  17.276  12.301   0.380
53058W        W12154  31.994  14.806   2.399
53059W        W12155  35.072  19.678   0.744
53060W        W12156  25.659  31.539   2.889
53061W        W12157  30.043  35.071   0.420
53062W        W12158  42.870  42.791  13.413
53063W        W12159  40.963  11.211   4.269
53064W        W12160  43.516  24.605  10.505
53065W        W12161  15.185  31.120  13.039
53066W        W12162  17.622  25.524  10.904
53067W        W12163  13.776  11.819  14.328
53068W        W12164   9.786  25.511   4.759
53069W        W12165  20.743  41.950  12.558
53070W        W12166   7.354   2.437   1.923
53071W        W12167  18.624  18.261  14.358
53072W        W12168  14.214  18.172   2.398
53073W        W12169  17.626  33.386  13.862
53074W        W12170   0.947  26.538   1.695
53075W        W12171  28.985  36.031   3.238
53076W        W12172   2.923  42.405  13.374
53077W        W12173   6.249  20.527   2.711
53078W        W12174  23.682   0.303   4.157
53079W        W12175  15.689   5.725  14.315
53080W        W12176  38.070  16.637   1.414
53081W        W12177  16.672  11.792   1.922
53082W        W12178  18.740   9.677  14.362
53083W        W12179   2.821  31.072  12.572
53084W        W12180   5.234  33.544  10.055
53085W        W12181   9.313  13.825   2.706
53086W        W12182  36.842   7.773   1.370
53087W        W12183  33.046  36.460  14.474
53088W        W12184  11.346  23.735  13.333
53089W        W12185  40.385   0.310  11.459
53090W        W12186  25.576  16.639  12.524
53091W        W12187  29.000  44.895   3.727
53092W        W12188  21.520  13.229   1.226
53093W        W12189  21.062  38.901   4.119
53094W        W12190   8.837   6.318  10.642
53095W        W12191  19.154  15.705  11.550
53096W        W12192   1.473  35.075  10.571
53097W        W12193   7.253  42.795  12.545
53098W        W12194  10.741   2.874   3.303
53099W        W12195   5.300  14.813  13.906
53100W        W12196   6.241   5.766   1.291
53101W        W12197   8.871  12.767   0.342
53102W        W12198   3.251  22.110  14.002
53103W        W12199  27.136  36.593  13.814
53104W        W12200   0.374  41.428   1.772
53105W        W12201   2.749  15.703  13.339
53106W        W12202  16.147  41.988  12.366
53107W        W12203  30.605   9.867   4.136
53108W        W12204  41.924  32.892   3.681
53109W        W12205  37.485  33.920  10.893
53110W        W12206  14.686  10.850   4.803
53111W        W12207  34.904  21.080   4.672
53112W        W12208  19.688  21.580   0.437
53113W        W12209   6.333   5.783   2.819
53114W        W12210  22.239   8.710   3.338
53115W        W12211  26.601  42.394  13.856
53116W        W12212   2.403  38.825  14.890
53117W        W12213  39.942  15.215   1.240
53118W        W12214  17.077  20.587  14.027
53119W        W12215  34.400   3.794  11.954
53120W        W12216  19.075  10.179   0.941
53121W        W12217   7.696   4.836  13.321
53122W        W12218   8.294  38.076   1.371
53123W        W12219  28.613  37.338  12.867
53124W        W12220  31.973  18.117  11.583
53125W        W12221  38.051  28.507  13.957
53126W        W12222  24.583  43.476  13.498
53127W        W12223  35.385  28.930   1.848
53128W        W12224  35.862  39.396  12.007
53129W        W12225  33.608  13.324  10.428
53130W        W12226   9.347  10.744  10.504
53131W        W12227  17.712  39.925  10.442
53132W        W12228  16.803  38.073   4.715
53133W        W12229  19.683  24.990   0.740
53134W        W12230  22.217  43.887  10.891
53135W        W12231  35.492  34.463  13.053
53136W        W12232  31.594  28.158   0.284
53137W        W12233  34.562  12.837   5.195
53138W        W12234  36.879   7.405   4.658
53139W        W12235  32.944  11.633  13.875
53140W        W12236   4.361  20.537   1.245
53141W        W12237  33.983  38.014  13.057
53142W        W12238   2.873  38.054   1.907
53143W        W12239  21.672  23.627   4.227
53144W        W12240  43.955  21.027  11.976
53145W        W12241  18.721  44.814   3.261
53146W        W12242  17.193  18.198  11.610
53147W        W12243  40.933  20.055  14.506
53148W        W12244   2.242  39.434  14.832
53149W        W12245  10.284   4.810   4.823
53150W        W12246  36.399  43.491   3.313
53151W        W12247  13.179  19.281   1.263
53152W        W12248   1.776  25.520   0.818
53153W        W12249  10.808   8.813  11.948
53154W        W12250   7.771  21.574   1.306
53155W        W12251   6.244  22.547   2.865
53156W        W12252   9.205   3.315  11.475
53157W        W12253  27.943  31.623  11.412
53158W        W12254  30.605  27.970  12.459
53159W        W12255  40.925  36.922  11.053
53160W        W12256  25.016  38.061   1.708
53161W        W12257  21.213   4.796   1.835
53162W        W12258  13.261  26.536   1.856
53163W        W12259  37.563  23.065   2.349
53164W        W12260  18.078  40.314  14.834
53165W        W12261  35.531  42.352   3.210
53166W        W12262  34.551  33.488  12.344
53167W        W12263  44.951  16.281  12.980
53168W        W12264  11.347  25.593  11.909
53169W        W12265   9.748  35.446   2.275
53170W        W12266  28.485  15.647   3.272
53171W        W12267   4.781   2.753  12.576
53172W        W12268   2.379  30.091  10.476
53173W        W12269   0.259  29.008   1.906
53174W        W12270  44.830   3.900  13.843
53175W        W12271   5.693  13.762  10.434
53176W        W12272  28.004  39.907  13.395
53177W        W12273   9.358   8.381   3.730
53178W        W12274   4.407  40.013   3.335
53179W        W12275  16.641  10.253  12.429
53180W        W12276  28.035   4.394   2.262
53181W        W12277  15.111  22.613  13.037
53182W        W12278  13.709  36.350  13.434
53183W        W12279  21.218  27.663   2.384
53184W        W12280  27.108   7.866   3.290
53185W        W12281   7.718  44.435   1.746
53186W        W12282   9.152  37.043  12.541
53187W        W12283   5.825  30.941   2.745
53188W        W12284   0.797  35.577  13.904
53189W        W12285  15.787  19.625  14.326
53190W        W12286  22.582   9.194   1.449
53191W        W12287  37.452   5.733  13.476
53192W        W12288  32.525  20.687   3.190
53193W        W12289   3.351   9.317  12.865
53194W        W12290   7.187   3.928   4.293
53195W        W12291  44.996  12.194   0.855
53196W        W12292   5.886   9.854   4.236
53197W        W12293  36.062  28.622   2.767
53198W        W12294  21.165  22.251  12.566
53199W        W12295  37.360   6.183  14.445
53200W        W12296  39.439  35.886   2.267
53201W        W12297  27.570  42.440   0.480
53202W        W12298   2.813  32.467   1.375
53203W        W12299   6.691  43.428   0.833
53204W        W12300  37.845  32.987  14.760
53205W        W12301  16.764  37.056  14.773
53206W        W12302  37.415   1.314  13.907
53207W        W12303  30.605  14.302   3.302
53208W        W12304   5.692   5.839   4.651
53209W        W12305   5.861  34.900   0.450
53210W        W12306  16.097  34.889   1.824
53211W        W12307  25.994   4.888   4.352
53212W        W12308  32.591   1.915  10.599
53213W        W12309   6.862   4.213  12.417
53214W        W12310  42.889   0.888   3.208
53215W        W12311  28.110   3.230  13.439
53216W        W12312  26.963  43.344  12.446
53217W        W12313   4.215  26.047  10.512
53218W        W12314  12.362  32.488   1.763
53219W        W12315  15.716  14.732   3.789
53220W        W12316  22.518  24.989  14.882
53221W        W12317   9.692   3.939   3.277
53222W        W12318   0.253  38.382   3.300
53223W        W12319  27.105  35.917  10.919
53224W        W12320  20.691  42.808  12.545
53225W        W12321  37.400   5.843  14.386
53226W        W12322  34.108  29.138   1.872
53227W        W12323  12.361   7.871  11.902
53228W        W12324   3.322  27.502   3.824
53229W        W12325  23.640  27.156  14.468
53230W        W12326  15.789  13.267   4.786
53231W        W12327  12.773   1.407  13.937
53232W        W12328  29.508  24.698   4.813
53233W        W12329  15.652  31.484  11.399
53234W        W12330  42.425  13.785  14.981
53235W        W12331  24.696  22.587   0.727
53236W        W12332   3.785  32.966  11.899
53237W        W12333   6.733  28.632  14.398
53238W        W12334  30.929  36.900   0.259
53239W        W12335  32.907  19.699  10.638
53240W        W12336  11.193  30.558   0.861
53241W        W12337  13.317  32.054   4.243
53242W        W12338  14.627  39.904   0.764
53243W        W12339  31.643  31.584  14.849
53244W        W12340  33.554  17.203  11.581
53245W        W12341  10.833  18.143   4.206
53246W        W12342   6.300  35.510  12.063
53247W        W12343  22.519  16.173   2.667
53248W        W12344  19.176  35.375  13.903
53249W        W12345  37.000  12.714  14.838
53250W        W12346  41.323  23.592   3.701
53251W        W12347   2.933   8.350   3.322
53252W        W12348  31.152  37.410   3.157
53253W        W12349  16.147  25.975   0.273
53254W        W12350  38.044   8.678   1.765
53255W        W12351  18.668   8.765   2.749
53256W        W12352  33.543  33.998   1.866
53257W        W12353  38.832   8.288   4.269
53258W        W12354  18.755  19.676   3.320
53259W        W12355  33.079  11.157  13.548
53260W        W12356  29.613  30.994   1.323
53261W        W12357  17.215  36.005   3.231
53262W        W12358  17.126  37.552   2.746
53263W        W12359  20.678   2.758  14.982
53264W        W12360  37.558  36.076  10.924
53265W        W12361   5.908  25.009   1.309
53266W        W12362  31.545  19.780  12.478
53267W        W12363  35.491  22.737   4.136
53268W        W12364  28.138  10.784  10.474
53269W        W12365  35.104  25.593   1.735
53270W        W12366  30.922   7.678   3.780
53271W        W12367  28.942   2.452  12.065
53272W        W12368  12.781  38.456   4.299
53273W        W12369  28.158  29.519  14.954
53274W        W12370  42.953  28.169   1.771
53275W        W12371  10.219  40.479   3.270
53276W        W12372  14.240  35.861  14.915
53277W        W12373  43.905  21.616   3.223
53278W        W12374   7.366  19.558   2.808
53279W        W12375   9.682  41.305  14.458
53280W        W12376  13.755  43.306   3.328
53281W        W12377  27.953  12.140  13.940
53282W        W12378  42.993  25.207  12.938
53283W        W12379  17.784  32.536   0.864
53284W        W12380   6.416   6.883  12.364
53285W        W12381  21.590  36.994  13.974
53286W        W12382   6.268  28.110   0.833
53287W        W12383  12.172  34.538   3.691
53288W        W12384   7.750  27.099   2.350
53289W        W12385  24.694  11.665  10.562
53290W        W12386  31.513   8.685  14.925
53291W        W12387   7.729   4.255  14.894
53292W        W12388   1.460   8.741  12.384
53293W        W12389   2.761  22.046   1.924
53294W        W12390   2.407  42.391   0.277
53295W        W12391  30.648   9.162  10.531
53296W        W12392  22.736  40.515  12.940
53297W        W12393  40.965   9.689  13.390
53298W        W12394  29.920   3.347  10.901
53299W        W12395   8.797  43.380   0.915
53300W        W12396  22.103  10.777  11.979
53301W        W12397  27.639  12.776   4.206
53302W        W12398  28.653   1.416   0.374
53303W        W12399   3.876  27.197   1.400
53304W        W12400  32.048   2.279   1.863
53305W        W12401  15.240   8.655   4.153
53306W        W12402   9.700  40.842  13.888
53307W        W12403   0.272  14.594   1.390
53308W        W12404   2.453   6.878   3.686
53309W        W12405  44.961  21.083  13.823
53310W        W12406  18.214  39.498  11.956
53311W        W12407  43.345  14.187   1.262
53312W        W12408  16.258  19.674   3.716
53313W        W12409   8.378  18.752   1.422
53314W        W12410  24.637  11.170   4.683
53315W        W12411  35.077  33.057   2.736
53316W        W12412  34.387  14.279  11.098
53317W        W12413  24.716  18.667   1.928
53318W        W12414   3.281  27.951  11.108
53319W        W12415  18.185   7.267   3.704
53320W        W12416   1.911  21.534   1.419
53321W        W12417   3.793  36.003  13.866
53322W        W12418  21.558  15.215  12.824
53323W        W12419  18.737  26.959   2.397
53324W        W12420   2.814  26.703  12.365
53325W        W12421   7.815  29.146   4.655
53326W        W12422  43.322  33.941   3.193
53327W        W12423  42.979  32.904  11.091
53328W        W12424  13.746   9.307   1.726
53329W        W12425  22.163  35.914  13.794
53330W        W12426  22.029  32.988   2.785
53331W        W12427  31.612  32.047   3.721
53332W        W12428  41.964   7.770  12.827
53333W        W12429  17.220  29.147   0.306
53334W        W12430   9.248  44.438  11.978
53335W        W12431  30.604  21.195   0.460
53336W        W12432  13.682  10.650   3.325
53337W        W12433  26.583  37.367   4.285
53338W        W12434   6.806   9.652  11.964
53339W        W12435  15.092  22.633  13.956
53340W        W12436   0.843   9.196   1.385
53341W        W12437  18.569  17.664  13.976
53342W        W12438  40.391  14.286  10.559
53343W        W12439  35.997  44.793  13.542
53344W        W12440  11.317  17.650  13.345
53345W        W12441  17.197  19.720  10.061
53346W        W12442  41.535  10.876   3.346
53347W        W12443   9.746   1.893  12.925
53348W        W12444  35.561   7.793  10.429
53349W        W12445  31.905  22.733  13.429
53350W        W12446   4.808  13.749   0.728
53351W        W12447  27.598  23.546  13.892
53352W        W12448   4.832   7.849  13.063
53353W        W12449   5.336   3.386   3.774
53354W        W12450  42.317  42.843   0.285
53355W        W12451  27.010  34.987  10.536
53356W        W12452   9.222   2.394   3.160
53357W        W12453  31.961  44.436  14.777
53358W        W12454   1.338   5.344  11.904
53359W        W12455  31.512  18.677  12.942
53360W        W12456  27.022   5.734  11.543
53361W        W12457  34.423  40.370   3.158
53362W        W12458  14.634  10.788  10.570
53363W        W12459  37.363   2.789  10.416
53364W        W12460  20.741  25.542  13.027
53365W        W12461  27.013  31.068   2.825
53366W        W12462  32.481   3.763  11.003
53367W        W12463  41.026  22.624   3.754
53368W        W12464  43.409  42.404   1.366
53369W        W12465  25.065  33.467  11.928
53370W        W12466   9.394  25.078   1.861
53371W        W12467  11.792  20.054   1.217
53372W        W12468  34.045  25.564  13.364
53373W        W12469  33.027   4.941  11.430
53374W        W12470   1.869  44.430   2.316
53375W        W12471   1.447  14.611  11.373
53376W        W12472   0.985  43.009  14.395
53377W        W12473  11.734  16.759   1.403
53378W        W12474   1.731  32.140  10.511
53379W        W12475  12.664  22.641   3.705
53380W        W12476  39.975  21.115  14.937
53381W        W12477  27.600  27.475   0.749
53382W        W12478  24.109  12.183   0.889
53383W        W12479  25.097  20.257   1.733
53384W        W12480  36.475  17.075   5.174
53385W        W12481   0.804  41.294  14.342
53386W        W12482   4.806  30.093  11.943
53387W        W12483  26.669  13.755   2.194
53388W        W12484  16.229  38.416   2.704
53389W        W12485  41.389   1.313   1.905
53390W        W12486  41.504  10.231   2.682
53391W        W12487   1.456   5.436   1.398
53392W        W12488  33.985  33.063   3.343
53393W        W12489  22.078  15.750   1.229
53394W        W12490  13.790   7.346   2.208
53395W        W12491  16.233  17.276  11.438
53396W        W12492  38.934  13.625  12.470
53397W        W12493  20.270  21.561  11.022
53398W        W12494  25.139  28.628  14.468
53399W        W12495  15.593  23.736  13.008
53400W        W12496  13.789  42.836   3.847
53401W        W12497   3.818  12.342  12.926
53402W        W12498   4.724  28.009  12.090
53403W        W12499  39.885  13.772   0.756
53404W        W12500  29.583  39.943  13.829
53405W        W12501  37.341  29.141   3.191
53406W        W12502   7.293  11.736  11.455
53407W        W12503  24.571  27.069  14.837
53408W        W12504  27.457   1.468  12.956
53409W        W12505  42.289  12.334   1.795
53410W        W12506  34.937  32.454  13.020
53411W        W12507   3.926  30.557  10.429
53412W        W12508   9.888  30.650   3.211
53413W        W12509  16.656  29.438   4.651
53414W        W12510  41.946  28.996  11.496
53415W        W12511  34.878   8.321  10.461
53416W        W12512  23.116   9.705   9.924
53417W        W12513  25.145  19.071   4.288
53418W        W12514  22.235  11.858   2.302
53419W        W12515  25.979  13.773   3.637
53420W        W12516   9.737  21.619   0.458
53421W        W12517  32.442  31.044  11.591
53422W        W12518  34.967  43.980  12.442
53423W        W12519  22.236  20.574   2.259
53424W        W12520  10.859  38.036   0.790
53425W        W12521  13.240  27.502   0.807
53426W        W12522  38.982  42.959  13.984
53427W        W12523   7.200  22.611  12.388
53428W        W12524  28.177  30.430  12.883
53429W        W12525  24.541   0.304  12.516
53430W        W12526  27.082   1.858  11.942
53431W        W12527  23.989  25.499   0.878
53432W        W12528   8.366  31.414  12.526
53433W        W12529  32.033   0.984   0.422
53434W        W12530  39.957  39.445  13.963
53435W        W12531  17.115  17.668   0.764
53436W        W12532  37.908   1.287  14.802
53437W        W12533  10.850   5.372   2.295
53438W        W12534  27.460  29.172  11.598
53439W        W12535   4.798  18.271  14.428
53440W        W12536  15.737  23.684  13.503
53441W        W12537  13.122  15.768  11.122
53442W        W12538  16.582  23.987  10.465
53443W        W12539  24.127  16.700  12.880
53444W        W12540  32.087  19.259   2.819
53445W        W12541  12.125  43.293   0.357
53446W        W12542  13.722  29.621   2.675
53447W        W12543   1.447   3.837   4.600
53448W        W12544  12.142  39.003   3.841
53449W        W12545  43.489  33.521   0.348
53450W        W12546  38.468  30.531  11.612
53451W        W12547   0.910  41.872   3.207
53452W        W12548  15.670  27.512   4.612
53453W        W12549  10.376  23.064  13.869
53454W        W12550  12.194   3.803   0.790
53455W        W12551  19.766  39.811   2.901
53456W        W12552  44.487   2.267  13.973
53457W        W12553   2.736  37.955   0.289
53458W        W12554  26.501  30.158   4.235
53459W        W12555   9.856  44.767   4.673
53460W        W12556   7.793  27.957  14.941
53461W        W12557   3.832  27.039  11.946
53462W        W12558  35.082  39.351   1.267
53463W        W12559  43.320   5.394   4.157
53464W        W12560  42.963   6.367  11.409
53465W        W12561  29.602  30.517  10.477
53466W        W12562  30.069  30.540  13.881
53467W        W12563  14.125  15.677   5.155
53468W        W12564  42.336  13.318   0.472
53469W        W12565  24.666  27.508  11.880
53470W        W12566   9.762  32.401  13.841
53471W        W12567  19.165   1.429  14.883
53472W        W12568  18.288   4.705  14.841
53473W        W12569  38.046  12.850   3.220
53474W        W12570  28.579  28.983  14.431
53475W        W12571  33.431  14.170   3.650
53476W        W12572  13.676   6.707  12.404
53477W        W12573  19.265  20.030  11.932
53478W        W12574  34.981   0.874   5.114
53479W        W12575  15.265   1.802  12.540
53480W        W12576  12.787  23.094  14.023
53481W        W12577  42.284  20.161  10.508
53482W        W12578  10.215  32.579   2.756
53483W        W12579  38.515  30.593  12.974
53484W        W12580   0.309   5.723  12.506
53485W        W12581   7.244  24.535  14.303
53486W        W12582   7.368  13.295   2.884
53487W        W12583  36.865  41.482   0.284
53488W        W12584  28.564  19.135  11.458
53489W        W12585  40.870  40.411   0.946
53490W        W12586  12.132  44.936   1.254
53491W        W12587   0.884  13.728   3.312
53492W        W12588  23.009  11.269  13.842
53493W        W12589  31.555  33.102  13.481
53494W        W12590  32.021  28.137   1.419
53495W        W12591  15.759   1.923  11.903
53496W        W12592  25.706   5.257   4.163
53497W        W12593  15.306   2.318  11.421
53498W        W12594  10.792  36.994  12.942
53499W        W12595   1.840  21.187  12.885
53500W        W12596   6.338   2.720   2.851
53501W        W12597  42.390   0.924   3.763
53502W        W12598  41.310  21.050  12.441
53503W        W12599  26.129  40.970  13.836
53504W        W12600  33.408  38.514   2.833
53505W        W12601  26.698   5.872  12.005
53506W        W12602  24.210  34.452   3.670
53507W        W12603  23.594   6.731   2.403
53508W        W12604  21.116  31.478  13.952
53509W        W12605  23.068   2.382  14.833
53510W        W12606  23.183  15.673  11.073
53511W        W12607   2.415  29.084  11.011
53512W        W12608   9.890  26.996   2.868
53513W        W12609  19.136  15.095  12.525
53514W        W12610  31.424   5.376   3.264
53515W        W12611   7.892  36.965  14.303
53516W        W12612  25.034   4.375   2.362
53517W        W12613  17.197  16.759  14.980
53518W        W12614  43.836  20.238   4.823
53519W        W12615  13.163  29.448  12.339
53520W        W12616  43.980   6.860   0.358
53521W        W12617   9.843   9.781   3.237
53522W        W12618   1.969  25.481   2.852
53523W        W12619  33.524  34.004   2.832
53524W        W12620  38.031  16.131  12.344
53525W        W12621  38.009  44.998  14.380
53526W        W12622  11.729  43.965  14.894
53527W        W12623  11.831   4.720  10.514
53528W        W12624   2.383   0.766   0.904
53529W        W12625  16.674  15.237  12.416
53530W        W12626  10.767  23.095   0.730
53531W        W12627  17.801  31.534   3.855
53532W        W12628  42.345   3.291  11.591
53533W        W12629   9.240  37.881   4.726
53534W        W12630   7.228  20.069  10.920
53535W        W12631  11.268  41.353  13.486
53536W        W12632   5.785  21.087   3.309
53537W        W12633  43.288   2.802  14.496
53538W        W12634  31.028  34.547  10.521
53539W        W12635  30.595  28.655   3.342
53540W        W12636  23.620  17.086  13.966
53541W        W12637   6.803  38.415   3.778
53542W        W12638   7.739  43.440  13.798
53543W        W12639   7.887  41.339  14.833
53544W        W12640   3.232  13.230   3.838
53545W        W12641  16.204  24.140   0.413
53546W        W12642  26.020  18.116   2.386
53547W        W12643  26.955  36.964   3.194
53548W        W12644  17.596  25.092   2.775
53549W        W12645  25.192  19.545  11.499
53550W        W12646  34.115   5.392  12.530
53551W        W12647  12.735  41.030   4.623
53552W        W12648  19.134  31.993   2.373
53553W        W12649  24.718   3.451   4.710
53554W        W12650  27.687   8.815   0.917
53555W        W12651  40.465  19.093   2.411
53556W        W12652  36.539  38.453   1.291
53557W        W12653   9.691  41.420   2.749
53558W        W12654  35.384  31.053   2.333
53559W        W12655  40.492  15.720  10.979
53560W        W12656  40.355   4.378  11.117
53561W        W12657   7.804   1.775  12.496
53562W        W12658  13.628  35.399   0.887
53563W        W12659   1.851   2.741  14.823
53564W        W12660  22.119  32.529   2.366
53565W        W12661  38.427  32.463   3.841
53566W        W12662   4.733  28.436  12.421
53567W        W12663  19.541  40.926   4.635
53568W        W12664  37.025  18.116   0.931
53569W        W12665  24.676  11.694   1.700
53570W        W12666  38.509  18.592   4.165
53571W        W12667  24.586  41.792  12.840
53572W        W12668  17.099  22.152   3.236
53573W        W12669  22.716  40.303   1.704
53574W        W12670  42.943  30.503   0.256
53575W        W12671  41.366  17.191  10.436
53576W        W12672  28.497  36.590   4.797
53577W        W12673   6.797  10.188  14.895
53578W        W12674  36.863   3.237   2.352
53579W        W12675   6.707  24.220  13.984
53580W        W12676   3.872  32.973   1.283
53581W        W12677  15.720  29.036  12.974
53582W        W12678  10.252   9.364   4.117
53583W        W12679  20.174  12.274   1.429
53584W        W12680  27.467  14.707  11.492
53585W        W12681  18.251  17.272  10.999
53586W        W12682   6.239   1.895   4.616
53587W        W12683  34.046  36.079   0.326
53588W        W12684  29.426  19.177   2.859
53589W        W12685  25.032  25.153   1.838
53590W        W12686  36.560  17.211  14.827
53591W        W12687  12.688  32.494   1.751
53592W        W12688  27.008  14.685   4.722
53593W        W12689  18.105  20.247   0.789
53594W        W12690  23.167  36.510   3.194
53595W        W12691  10.290  17.184   1.347
53596W        W12692  12.126   0.248  12.353
53597W        W12693  16.593  30.013   1.393
53598W        W12694   5.405  16.756   0.845
53599W        W12695  11.234  29.645  12.828
53600W        W12696  25.195   9.225  13.013
53601W        W12697  17.584  41.943   2.726
53602W        W12698  34.047   1.352  12.865
53603W        W12699  42.290  11.228  13.854
53604W        W12700  19.040   9.344  13.308
53605W        W12701  37.939  40.903   1.300
53606W        W12702  39.490  29.461   2.208
53607W        W12703  44.460  31.954  10.938
53608W        W12704  37.435  43.785   1.342
53609W        W12705  26.674  44.839  14.384
53610W        W12706  13.788  28.138   4.759
53611W        W12707  23.559  30.973  13.972
53612W        W12708  29.957   9.251   4.196
53613W        W12709  16.660   5.415   1.695
53614W        W12710  40.892  27.972  12.991
53615W        W12711  42.405  18.699  12.456
53616W        W12712  25.212  14.649   1.240
53617W        W12713  27.062  40.986  14.361
53618W        W12714  29.149  23.570  12.576
53619W        W12715  18.688  29.007  13.807
53620W        W12716  21.227   2.948   4.644
53621W        W12717  32.053  34.598   2.288
53622W        W12718  13.139  40.039  10.956
53623W        W12719  40.938  10.226  14.937
53624W        W12720  15.649  14.748  12.994
53625W        W12721  31.916  10.856   4.742
53626W        W12722  26.566  29.614   1.810
53627W        W12723  39.964  12.770   1.312
53628W        W12724   1.734  25.684  12.823
53629W        W12725  18.613  44.870  11.555
53630W        W12726   1.441  41.855  14.812
53631W        W12727  17.685  16.155   1.885
53632W        W12728  29.557  19.068  11.401
53633W        W12729  37.977  29.661   2.714
53634W        W12730  32.580   2.771   4.164
53635W        W12731  36.544   1.412  11.556
53636W        W12732  34.894  40.525   4.768
53637W        W12733  34.875   6.805  14.990
53638W        W12734  39.958   1.322   4.645
53639W        W12735  23.143  12.352   3.244
53640W        W12736  43.979  42.937   3.784
53641W        W12737  26.622  29.133  10.498
53642W        W12738  14.338  27.957   3.639
53643W        W12739  31.125   0.820   4.600
53644W        W12740  41.897  12.150   4.783
53645W        W12741  28.494  12.703  13.497
53646W        W12742   2.397   8.858   2.315
53647W        W12743  31.599  13.299  10.578
53648W        W12744   5.746   4.311   4.780
53649W        W12745  25.696   4.721  14.375
53650W        W12746  29.989  13.309   2.223
53651W        W12747   7.318   7.332   2.717
53652W        W12748  22.043   9.863   1.232
53653W        W12749  41.303   7.172  10.900
53654W        W12750   1.437  26.489   4.726
53655W        W12751  15.701  11.703   5.179
53656W        W12752  35.962  22.047  11.934
53657W        W12753   9.214  43.417   0.869
53658W        W12754  27.025  26.008   4.160
53659W        W12755  44.823  23.193   2.244
53660W        W12756   8.179  38.991   1.767
53661W        W12757   8.396  43.398  11.857
53662W        W12758  43.862   0.746  12.546
53663W        W12759   8.679  40.428   4.147
53664W        W12760  38.422   5.258  12.940
53665W        W12761  22.166  17.587  10.609
53666W        W12762   8.329  37.552  10.442
53667W        W12763   5.366  14.299   3.813
53668W        W12764  18.646  12.804   0.898
53669W        W12765   9.214   0.923   4.616
53670W        W12766  34.445  27.153   0.823
53671W        W12767  43.834  23.597  10.999
53672W        W12768  20.641  38.024  11.901
53673W        W12769   4.926  17.276   1.212
53674W        W12770  34.874  22.087   3.320
53675W        W12771  20.165  28.139   3.238
53676W        W12772  34.030  41.985  10.541
53677W        W12773  43.304  43.996  10.632
53678W        W12774  44.382  35.927   2.786
53679W        W12775   0.459  42.419  13.800
53680W        W12776  24.981   4.365   3.361
53681W        W12777   6.403   5.828   3.630
53682W        W12778  19.656  43.491  14.335
53683W        W12779  35.458   5.720   3.367
53684W        W12780  16.623   8.680  13.950
53685W        W12781  26.163  26.153   4.213
53686W        W12782  33.462   7.372   4.142
53687W        W12783  17.097   9.316   4.320
53688W        W12784  15.793  23.156   2.400
53689W        W12785  23.219  30.615  13.466
53690W        W12786  22.583  22.244   0.840
53691W        W12787  21.161  13.636  14.277
53692W        W12788  13.722  25.614   0.245
53693W        W12789  38.564   8.800  14.971
53694W        W12790  41.319  29.635  12.384
53695W        W12791   9.788  38.987  12.577
53696W        W12792   1.439  28.996   4.640
53697W        W12793   2.881  31.561   0.479
53698W        W12794  40.842  22.539  11.549
53699W        W12795  34.925  42.861   2.362
53700W        W12796  36.556  38.380  11.094
53701W        W12797  42.387  37.405   3.651
53702W        W12798  23.011   7.417  10.484
53703W        W12799   1.381  19.118  12.891
53704W        W12800  36.414  42.414   2.687
53705W        W12801  40.342  20.707   2.363
53706W        W12802   6.835  18.239  13.518
53707W        W12803  44.494  25.162   3.263
53708W        W12804  20.160   0.798   2.877
53709W        W12805  26.004  37.984   2.760
53710W        W12806  29.535  29.936   0.816
53711W        W12807  20.604  44.265  12.346
53712W        W12808  29.571  24.977  11.091
53713W        W12809  33.557  24.494   3.154
53714W        W12810  28.181  20.069   0.362
53715W        W12811  23.579  20.536   0.734
53716W        W12812  33.598  31.584   0.802
53717W        W12813   7.296  33.085   2.729
53718W        W12814   0.852   7.869  14.339
53719W        W12815  31.130  12.748  10.475
53720W        W12816   5.314  25.578   0.343
53721W        W12817  36.501  43.459   1.715
53722W        W12818  19.628  19.707   1.357
53723W        W12819  21.066  38.838   3.736
53724W        W12820  12.730  30.946   0.442
53725W        W12821   3.234   8.248   4.213
53726W        W12822  13.253  14.151   3.703
53727W        W12823  40.805  22.624   1.876
53728W        W12824  34.458  18.602   4.233
53729W        W12825   9.758  22.085  12.008
53730W        W12826   2.238  33.482  12.879
53731W        W12827  35.949  22.654  14.005
53732W        W12828  17.649  19.727  10.576
53733W        W12829  41.505  44.885  12.559
53734W        W12830  13.351  26.676  14.996
53735W        W12831  25.091  32.088   4.302
53736W        W12832  41.998  22.639   0.967
53737W        W12833  16.183  14.708   2.890
53738W        W12834  34.453  31.976  10.602
53739W        W12835  15.666   4.312   2.207
53740W        W12836  36.527  44.977   3.751
53741W        W12837   7.408  40.446   4.232
53742W        W12838  14.669   7.343   2.316
53743W        W12839  35.908  25.195   1.348
53744W        W12840  24.140   5.905  10.051
53745W        W12841   8.656   5.252   2.309
53746W        W12842  38.048  26.498  13.446
53747W        W12843   0.751  26.685  10.036
53748W        W12844  40.371  14.626   0.467
53749W        W12845  40.523  27.110  12.370
53750W        W12846  31.404  16.709  11.436
53751W        W12847  10.360  14.310  12.402
53752W        W12848  16.135  43.308   0.730
53753W        W12849   7.709  35.946   4.611
53754W        W12850  38.057  15.624  14.770
53755W        W12851  17.246  37.455   0.356
53756W        W12852  43.344  36.499  11.910
53757W        W12853   5.693  33.940   4.189
53758W        W12854  17.713  39.016   1.738
53759W        W12855   0.466  15.116   3.837
53760W        W12856  22.717   5.691   3.688
53761W        W12857  13.258   8.843   2.381
53762W        W12858  26.977   0.452  10.912
53763W        W12859  32.081  29.557  12.909
53764W        W12860  25.218  39.826  14.368
53765W        W12861   1.381  17.728  13.807
53766W        W12862  29.494  18.187   0.859
53767W        W12863  18.066  18.125  10.434
53768W        W12864  15.124  26.465  11.560
53769W        W12865  17.293  29.147  12.946
53770W        W12866  34.098  33.948  12.030
53771W        W12867  39.004  42.007   1.426
53772W        W12868   4.860  15.219  11.383
53773W        W12869  19.632  41.857  14.867
53774W        W12870   5.433  15.587  14.868
53775W        W12871  24.983  17.590   1.813
53776W        W12872  31.468  29.110   0.835
53777W        W12873   0.291  41.904  13.930
53778W        W12874  20.076  10.798   2.244
53779W        W12875  23.187  18.187  10.602
53780W        W12876   3.715  20.124   3.300
53781W        W12877  10.279  43.995   4.342
53782W        W12878   1.271  25.118  12.912
53783W        W12879  34.489   4.867  14.386
53784W        W12880  36.407  42.785   4.632
53785W        W12881   3.260  12.842   4.659
53786W        W12882  17.232  30.116   0.920
53787W        W12883  43.390  21.658  10.414
53788W        W12884  19.160  23.702  11.565
53789W        W12885  31.030  17.696  11.392
53790W        W12886  36.854  44.892  14.991
53791W        W12887  16.306   6.353   3.305
53792W        W12888  24.489  29.096  13.029
53793W        W12889  13.263   1.279  14.791
53794W        W12890  24.144  28.435   0.777
53795W        W12891  42.325  10.227  10.417
53796W        W12892  44.361   6.373   3.321
53797W        W12893  31.089  10.164  11.081
53798W        W12894  37.567  40.892   3.210
53799W        W12895  19.134  40.387   1.749
53800W        W12896   6.198  28.118  14.492
53801W        W12897  35.004  35.507  14.390
53802W        W12898  41.839  16.606   2.892
53803W        W12899   0.274  22.097  11.881
53804W        W12900  32.568  17.285  12.863
53805W        W12901  15.672  30.654  15.000
53806W        W12902  21.183  26.481  12.884
53807W        W12903  41.930   0.905   1.402
53808W        W12904   6.833   7.334  12.921
53809W        W12905  38.565  30.027  10.976
53810W        W12906   3.367  15.607  13.347
53811W        W12907  24.682  12.759  14.888
53812W        W12908  12.673  34.940  13.337
53813W        W12909  37.556  31.604  13.936
53814W        W12910  18.138  10.726   5.572
53815W        W12911  19.581  37.874   2.261
53816W        W12912  40.320  21.175   2.221
53817W        W12913   4.292  31.952  14.495
53818W        W12914   8.824  34.505  14.885
53819W        W12915  18.711  31.536   2.325
53820W        W12916   8.235  37.453  13.321
53821W        W12917   3.803  15.246  14.341
53822W        W12918  15.153  35.448  13.931
53823W        W12919   4.206  26.675  13.388
53824W        W12920  27.638  32.054  13.953
53825W        W12921  20.659   0.434   1.386
53826W        W12922  43.289  20.144   4.776
53827W        W12923   3.261   3.926  12.442
53828W        W12924  14.186  43.483  11.932
53829W        W12925  44.286   7.749   2.231
53830W        W12926   5.211  19.600  12.000
53831W        W12927  27.145  40.411   0.317
53832W        W12928  34.609  22.746  14.510
53833W        W12929  43.911  21.056   2.220
53834W        W12930   1.854  33.625   0.728
53835W        W12931   8.759  21.226   4.814
53836W        W12932  26.505  39.542  11.908
53837W        W12933  41.515  30.655  11.501
53838W        W12934  43.308   6.382  10.056
53839W        W12935  43.475  37.446   1.711
53840W        W12936   9.379  19.175   1.321
53841W        W12937   0.953   3.233   4.297
53842W        W12938  20.139  44.486  12.565
53843W        W12939  28.983  41.883   1.297
53844W        W12940  43.806  38.994  13.512
53845W        W12941  35.855  41.410   4.259
53846W        W12942  43.986  11.679   3.237
53847W        W12943   8.332  23.690   0.884
53848W        W12944   4.249  14.694   2.833
53849W        W12945  25.106  35.595   1.422
53850W        W12946  20.679  30.044   1.764
53851W        W12947  24.027  30.997  12.081
53852W        W12948  32.045  11.763   0.923
53853W        W12949  13.687  42.513   4.204
53854W        W12950  11.225   6.836  14.331
53855W        W12951  26.093   7.298   0.824
53856W        W12952  18.169  26.522   1.834
53857W        W12953  17.063  37.935   1.410
53858W        W12954  21.035   5.760   2.349
53859W        W12955  44.477   6.407  14.779
53860W        W12956  37.994  37.429   0.334
53861W        W12957  43.875  24.713  13.477
53862W        W12958  36.545  26.645  12.085
53863W        W12959  39.895  38.053   2.856
53864W        W12960   1.787  28.054   0.288
53865W        W12961  31.434  24.500  11.426
53866W        W12962  12.116  31.031  12.874
53867W        W12963   4.767  14.315  13.821
53868W        W12964   8.735   7.201   1.809
53869W        W12965  26.141  39.389   4.632
53870W        W12966  30.420  17.574   9.977
53871W        W12967  33.444  33.968   0.356
53872W        W12968  32.110  31.464   4.204
53873W        W12969  27.563   8.395   2.376
53874W        W12970  36.374  10.762   1.261
53875W        W12971   1.354  27.009   3.252
53876W        W12972   3.436  36.530  14.321
53877W        W12973  30.447  34.077   3.831
53878W        W12974   0.791  13.185  13.433
53879W        W12975  23.074  39.408  10.642
53880W        W12976  23.497   2.943   2.870
53881W        W12977  31.427   8.348   0.460
53882W        W12978  27.061  35.419   2.381
53883W        W12979  24.160  35.361  11.602
53884W        W12980   9.238  32.479  12.863
53885W        W12981  41.515  12.273   0.452
53886W        W12982  22.631  13.263   4.703
53887W        W12983  39.822  15.780   3.319
53888W        W12984  10.193  41.356  10.946
53889W        W12985  20.194  14.662  11.534
53890W        W12986  21.125  37.943   3.280
53891W        W12987  43.506  27.493   2.192
53892W        W12988   0.340  28.953  11.398
53893W        W12989  23.997   0.835   4.247
53894W        W12990  40.876  43.341  13.979
53895W        W12991  37.363  27.496  13.906
53896W        W12992  22.697  18.601   2.772
53897W        W12993  13.818   5.715  11.051
53898W        W12994  27.607   6.373  11.898
53899W        W12995   9.747  39.834   0.965
53900W        W12996  43.896  34.508   4.738
53901W        W12997  37.451   5.361  13.480
53902W        W12998  28.123  21.155  14.343
53903W        W12999   6.874  32.427  11.978
53904W        W13000  14.316  42.970  10.985
53905W        W13001  23.694  29.658   0.835
53906W        W13002  18.091  30.095  14.836
53907W        W13003   5.227  44.862   1.320
53908W        W13004  35.372  11.786  11.968
53909W        W13005  36.434   5.845  11.089
53910W        W13006  24.113  20.571   0.852
53911W        W13007  13.318  44.009   1.875
53912W        W13008  22.520  40.484   5.257
53913W        W13009  32.596  20.077  14.507
53914W        W13010   6.354   5.278  11.035
53915W        W13011   2.472  38.513  13.544
53916W        W13012  32.445  42.384  14.945
53917W        W13013  34.380  22.197  11.586
53918W        W13014  12.271  32.944   4.650
53919W        W13015  32.443  20.107  12.346
53920W        W13016   0.310  44.948   1.445
53921W        W13017   5.831  15.097  14.024
53922W        W13018  43.976  39.837  12.439
53923W        W13019  28.652  16.125   1.835
53924W        W13020  38.509  30.561   3.336
53925W        W13021  37.375   4.440   4.148
53926W        W13022  27.528   7.358   3.761
53927W        W13023   6.341  19.267  10.978
53928W        W13024  36.468  23.653   3.231
53929W        W13025  11.656  13.705   2.414
53930W        W13026  14.118   0.284  11.533
53931W        W13027   3.367  19.706  12.383
53932W        W13028  12.295  14.275  10.618
53933W        W13029   1.942  15.324  14.436
53934W        W13030  27.595  22.116   0.919
53935W        W13031  44.982   2.390   2.859
53936W        W13032  23.210  19.284  13.852
53937W        W13033  36.521  39.861   0.289
53938W        W13034  25.116  20.724  11.467
53939W        W13035  16.272  12.280  10.982
53940W        W13036  26.692  41.310   2.418
53941W        W13037  15.162  12.148   2.391
53942W        W13038   1.451  39.050   2.884
53943W        W13039  26.470   8.279   1.777
53944W        W13040  21.232  29.992  11.569
53945W        W13041   1.409  18.588   4.319
53946W        W13042   7.846  28.066   3.145
53947W        W13043  12.751   5.834   3.181
53948W        W13044  37.904  30.024  12.355
53949W        W13045  36.024  33.955  10.631
53950W        W13046  21.237   7.392   5.208
53951W        W13047  39.499  11.195   0.242
53952W        W13048  21.120  20.636  12.431
53953W        W13049   9.794  19.067   3.361
53954W        W13050  33.117  26.666  13.946
53955W        W13051  27.628   4.774   2.248
53956W        W13052  24.222  29.031   4.130
53957W        W13053   3.945  37.340   0.823
53958W        W13054  44.876   3.788  10.426
53959W        W13055   2.305  15.810  11.036
53960W        W13056   3.401  27.183   0.790
53961W        W13057  20.275  33.548   2.875
53962W        W13058  26.659  38.073   1.373
53963W        W13059  23.091   4.291   4.178
53964W        W13060  44.912   5.762  11.433
53965W        W13061   2.298  21.589  11.009
53966W        W13062   0.967  22.039   2.326
53967W        W13063   7.399   5.197  13.811
53968W        W13064  34.114   4.296   2.828
53969W        W13065  44.394   4.333   3.369
53970W        W13066  41.911  35.550  10.605
53971W        W13067  35.603   0.877   1.816
53972W        W13068   3.421   7.290   0.964
53973W        W13069  43.947   6.214  14.937
53974W        W13070  40.002   7.264   3.213
53975W        W13071   7.802  26.961  12.501
53976W        W13072  35.986  10.155   1.230
53977W        W13073  44.309  38.570   2.419
53978W        W13074  31.104  36.036  12.362
53979W        W13075   4.315  37.447   0.367
53980W        W13076  41.383   1.790  11.996
53981W        W13077  13.327  12.655  12.478
53982W        W13078   5.279   7.814   4.275
53983W        W13079   1.451  33.056  14.845
53984W        W13080  36.024  44.497   4.241
53985W        W13081  26.975  18.282  10.913
53986W        W13082  12.255  18.201   0.442
53987W        W13083  14.336   1.370  12.949
53988W        W13084   6.729  21.188   3.312
53989W        W13085  31.132  28.128  13.471
53990W        W13086  19.221  29.529   2.265
53991W        W13087  34.908   5.272  13.405
53992W        W13088  28.970  11.803   3.867
53993W        W13089  18.637  40.307   2.834
53994W        W13090   4.793   1.312  11.980
53995W        W13091  32.005   7.369  12.906
53996W        W13092  10.247  35.858   1.866
53997W        W13093   9.755  39.924   4.271
53998W        W13094  43.439   8.366  12.401
53999W        W13095   8.198  12.847  11.463
54000W        W13096  42.398   9.839  12.380
54001W        W13097  34.607  21.080  11.443
54002W        W13098  10.755   5.388  11.914
54003W        W13099  16.179  27.949   4.711
54004W        W13100   9.378  25.571  11.895
54005W        W13101  38.008   7.820  10.890
54006W        W13102  44.314  32.037  12.837
54007W        W13103   5.903  27.966  11.518
54008W        W13104  12.135  31.591   3.812
54009W        W13105   3.347  27.556   9.957
54010W        W13106  22.075  39.886  13.336
54011W        W13107  14.747  24.137   3.235
54012W        W13108   6.857  36.542  11.463
54013W        W13109  38.477  37.892   2.877
54014W        W13110  21.545  37.556  10.054
54015W        W13111  27.040  10.709   3.718
54016W        W13112  25.552  40.351   1.213
54017W        W13113  18.294  13.678   4.794
54018W        W13114  10.247  27.106  10.633
54019W        W13115  19.764   2.322  13.423
54020W        W13116  17.115  34.016  10.001
54021W        W13117  28.122  19.207   0.345
54022W        W13118  41.504  15.105  13.417
54023W        W13119  29.130  17.184  11.537
54024W        W13120  42.356  10.169  12.387
54025W        W13121  20.192  42.483  11.526
54026W        W13122  23.168  42.333   3.702
54027W        W13123   0.304  19.280  14.857
54028W        W13124  40.040  26.188   0.289
54029W        W13125  10.833  13.291  11.583
54030W        W13126  43.928  26.005  11.016
54031W        W13127  21.611  37.379   5.119
54032W        W13128  19.775  15.224   4.270
54033W        W13129  40.857  44.494   4.789
54034W        W13130   1.974  44.284  13.343
54035W        W13131  44.989   3.226  12.937
54036W        W13132  25.036  10.273  12.379
54037W        W13133  26.972  34.396  11.458
54038W        W13134  19.168  19.284  14.493
54039W        W13135   6.420  19.581   3.779
54040W        W13136  17.672  18.685   2.831
54041W        W13137  42.523  32.118   3.707
54042W        W13138  30.566  32.039   3.163
54043W        W13139  31.992  17.777  11.891
54044W        W13140  44.869  28.131  12.418
54045W        W13141  35.023  19.141  11.997
54046W        W13142  28.439  33.490  14.311
54047W        W13143  44.292  41.383   0.929
54048W        W13144  38.914  15.603  12.341
54049W        W13145  40.431  39.894   3.301
54050W        W13146  15.795  10.374  14.835
54051W        W13147  41.015  42.823  11.857
54052W        W13148  15.312  15.578   4.752
54053W        W13149  41.382  43.330  10.977
54054W        W13150   5.752   8.369   4.721
54055W        W13151  43.420   6.218  13.830
54056W        W13152  39.035  10.360   2.206
54057W        W13153  35.869   5.732   3.324
54058W        W13154   2.921  30.580  10.603
54059W        W13155   8.304  32.542  11.983
54060W        W13156  10.696  23.071  13.992
54061W        W13157  25.706  39.912  11.950
54062W        W13158  22.619   6.851   0.781
54063W        W13159   5.833   6.922   1.235
54064W        W13160  25.993   0.416  14.445
54065W        W13161  24.211  42.422  11.584
54066W        W13162  18.204  38.521   1.742
54067W        W13163  15.115  42.338   4.712
54068W        W13164   8.743   1.462   3.334
54069W        W13165  29.469  25.972   5.232
54070W        W13166   4.419   5.926   0.735
54071W        W13167  11.681  39.374  10.437
54072W        W13168  41.884  39.414   0.901
54073W        W13169  21.612   7.805   0.358
54074W        W13170  10.669  36.090  12.848
54075W        W13171  15.227  15.318   0.386
54076W        W13172  26.997  21.236  11.952
54077W        W13173  21.209  17.137  11.400
54078W        W13174   6.839  44.983   3.297
54079W        W13175   6.220  16.705   0.472
54080W        W13176  22.039  15.747   0.962
54081W        W13177  28.017  34.086  10.601
54082W        W13178   7.393  30.436  11.398
54083W        W13179  43.848   0.889   2.741
54084W        W13180  27.625  39.852   4.615
54085W        W13181   6.250   7.380   2.353
54086W        W13182   2.460  28.993  11.502
54087W        W13183   0.970   4.314   2.302
54088W        W13184  32.890  29.159   1.704
54089W        W13185   7.188  25.494  11.926
54090W        W13186  26.150  41.298  11.405
54091W        W13187  10.635  43.365   2.819
54092W        W13188   7.713  44.975  10.998
54093W        W13189  36.490  16.605   1.226
54094W        W13190  20.598  36.498  12.341
54095W        W13191  39.462   2.455  11.022
54096W        W13192  38.543   8.860  13.380
54097W        W13193   8.696  39.489   4.291
54098W        W13194  42.448  13.294  13.008
54099W        W13195   0.472  37.847  11.378
54100W        W13196  19.594   8.398   0.333
54101W        W13197  16.795  43.344  13.395
54102W        W13198  35.969  12.657   3.837
54103W        W13199   6.730  14.599  13.532
54104W        W13200  11.281  20.648   3.260
54105W        W13201  26.527  27.999   3.781
54106W        W13202  10.274  28.487  10.927
54107W        W13203  35.599  23.993   1.919
54108W        W13204  31.949   7.366   4.272
54109W        W13205   2.774   1.908  10.576
54110W        W13206  30.601   8.297   4.181
54111W        W13207  34.487  18.632   2.797
54112W        W13208  12.796  37.567   3.325
54113W        W13209  29.565  10.777  13.978
54114W        W13210  24.588  36.529   2.346
54115W        W13211  11.296  20.240  11.120
54116W        W13212  19.082  13.155   2.292
54117W        W13213  38.010  35.529  10.477
54118W        W13214  13.726  37.538   4.312
54119W        W13215  33.455  31.599  14.951
54120W        W13216  36.563   1.765   2.271
54121W        W13217   1.825  44.889  14.359
54122W        W13218  19.613  23.127   0.318
54123W        W13219   4.843  24.202  14.027
54124W        W13220   6.837   3.753  11.520
54125W        W13221  17.576  25.204  11.988
54126W        W13222  34.001  10.380   3.247
54127W        W13223  29.495  41.800  10.601
54128W        W13224  44.417  30.977  11.098
54129W        W13225  43.497  20.038  13.023
54130W        W13226   1.262  42.029  11.413
54131W        W13227  44.969   7.781   3.794
54132W        W13228  43.921  20.163   4.236
54133W        W13229  38.390  18.090   4.819
54134W        W13230   8.292  27.093   0.338
54135W        W13231  29.083  15.095   2.697
54136W        W13232  34.439   7.177  10.918
54137W        W13233   9.193  17.146   4.232
54138W        W13234  10.709  21.536   2.664
54139W        W13235  11.674   0.826  13.374
54140W        W13236  20.080  35.922   0.447
54141W        W13237  39.442  33.480   9.948
54142W        W13238  41.804  11.266   2.798
54143W        W13239  21.182  10.283   4.169
54144W        W13240  15.743  14.097  10.021
54145W        W13241   9.237  14.289  14.831
54146W        W13242   2.874  37.445   1.386
54147W        W13243   2.789  27.135  11.419
54148W        W13244  13.769  11.184  11.097
54149W        W13245  38.861  36.012   2.742
54150W        W13246  33.944   5.927   4.296
54151W        W13247  17.173  44.959   4.739
54152W        W13248   9.289  36.951   2.203
54153W        W13249  20.116  14.316   1.732
54154W        W13250   2.309  17.633  11.861
54155W        W13251   3.423  43.908   3.175
54156W        W13252  20.686   7.382   3.789
54157W        W13253  19.251  27.642   2.392
54158W        W13254   8.695  41.343   1.792
54159W        W13255  32.426  40.306   2.724
54160W        W13256  10.251  35.531  12.837
54161W        W13257  12.698  20.061   1.221
54162W        W13258  40.359  16.697   4.620
54163W        W13259  17.227  41.872  10.966
54164W        W13260   6.391  44.836   4.257
54165W        W13261  11.727  14.691  11.017
54166W        W13262  28.065  29.035   1.269
54167W        W13263  23.171   0.929   1.842
54168W        W13264  10.326  14.261   2.382
54169W        W13265  15.286  44.336  14.300
54170W        W13266  44.491   8.677   2.663
54171W        W13267   3.428   2.927  11.544
54172W        W13268  41.023  19.065  10.941
54173W        W13269   9.836  40.482  14.772
54174W        W13270   0.973  30.079  11.507
54175W        W13271  14.195   9.334  14.278
54176W        W13272  22.569  34.983  13.866
54177W        W13273   7.317  41.338  12.934
54178W        W13274   8.803  10.741   3.851
54179W        W13275  10.780  17.636  12.901
54180W        W13276  16.780  20.672   3.174
54181W        W13277  16.801  43.015   0.358
54182W        W13278  35.489  42.950  14.957
54183W        W13279  26.114   4.901  14.458
54184W        W13280   4.769  32.487   4.198
54185W        W13281  22.136   2.852  14.457
54186W        W13282  12.771  20.099   2.341
54187W        W13283  22.121  23.581   4.261
54188W        W13284  32.460   0.396   1.879
54189W        W13285  40.459  39.394  13.332
54190W        W13286  14.696   0.848  11.553
54191W        W13287   4.752   4.402   3.729
54192W        W13288   9.329   9.856  13.843
54193W        W13289   7.868  10.739  10.453
54194W        W13290  21.019  43.422   1.899
54195W        W13291  32.025  44.485  11.974
54196W        W13292  22.105  42.820   1.856
54197W        W13293   2.860   6.828  11.885
54198W        W13294  34.119  13.268  10.907
54199W        W13295  16.210   7.415   5.255
54200W        W13296  19.064  23.647  11.021
54201W        W13297  15.780  25.583  13.058
54202W        W13298  41.321  18.107  11.977
54203W        W13299  17.761  20.664   2.880
54204W        W13300  33.108  42.947   2.777
54205W        W13301  18.545  31.928   4.331
54206W        W13302   8.308  18.259  13.355
54207W        W13303   4.368  16.629  13.824
54208W        W13304   1.293  30.483  11.604
54209W        W13305   3.897   2.759   1.922
54210W        W13306  14.695  22.679  14.429
54211W        W13307  16.238  10.803  10.481
54212W        W13308   1.732   0.742   4.282
54213W        W13309  34.501  35.871   1.866
54214W        W13310  36.025  12.658   3.161
54215W        W13311  25.212  26.021   3.340
54216W        W13312  40.994   2.900   4.724
54217W        W13313  36.348  25.054   0.734
54218W        W13314  21.247  42.387   2.186
54219W        W13315  26.100  27.142   4.202
54220W        W13316  37.951  39.029   1.752
54221W        W13317  32.460  35.591  10.439
54222W        W13318  12.618   5.378  12.466
54223W        W13319  14.164  22.180  11.929
54224W        W13320  17.291   1.243  10.108
54225W        W13321  25.043  29.618   4.174
54226W        W13322   1.845  35.548   3.178
54227W        W13323   2.300  38.840   3.353
54228W        W13324   3.309  43.948   0.798
54229W        W13325  26.481  16.317  12.404
54230W        W13326   8.823   8.171   3.774
54231W        W13327  17.697  40.367  14.780
54232W        W13328  11.196  18.058  11.944
54233W        W13329  15.632  40.939   3.703
54234W        W13330   9.845  37.434   2.391
54235W        W13331  38.834  41.811   2.688
54236W        W13332   6.287  19.140  11.886
54237W        W13333  22.103  43.449   4.746
54238W        W13334  16.185   2.875   1.440
54239W        W13335  10.659  12.156   0.338
54240W        W13336  44.849   6.852   2.672
54241W        W13337  24.484  12.187  14.997
54242W        W13338  41.312   9.364  12.423
54243W        W13339  11.184  15.746  12.408
54244W        W13340   0.450  39.443  14.411
54245W        W13341  37.966  27.538   4.232
54246W        W13342   4.865  41.419  14.478
54247W        W13343  18.243  39.895   2.374
54248W        W13344  16.293  43.345   3.309
54249W        W13345  23.172  40.378  12.569
54250W        W13346  10.275   2.307   0.948
54251W        W13347  23.695  27.118   3.663
54252W        W13348  37.447  40.541   5.093
54253W        W13349  35.408  11.227   5.743
54254W        W13350  22.134   7.342  12.534
54255W        W13351  26.655  44.880  13.890
54256W        W13352  40.445   1.302  11.423
54257W        W13353   0.763  28.118   1.428
54258W        W13354  32.946  22.520   3.157
54259W        W13355  10.725  34.524  11.547
54260W        W13356  12.698  33.059   2.829
54261W        W13357  36.468  41.327  10.490
54262W        W13358  18.089  22.533   1.288
54263W        W13359  40.018  33.070   4.830
54264W        W13360   2.470   5.395   0.887
54265W        W13361  18.157  20.123   0.370
54266W        W13362  30.606  15.307  10.070
54267W        W13363  40.333  10.311   9.548
54268W        W13364  23.646  35.003  13.905
54269W        W13365  11.851  17.066  11.936
54270W        W13366  16.681   4.322   3.762
54271W        W13367  37.579  21.537  11.905
54272W        W13368  37.414  21.623  10.523
54273W        W13369  28.182  11.345   1.811
54274W        W13370  30.576  35.867  10.504
54275W        W13371   1.291   8.783   3.179
54276W        W13372  43.844  32.404   4.143
54277W        W13373  43.497  40.456  14.429
54278W        W13374  10.680  43.015   0.954
54279W        W13375   9.776   9.320  10.585
54280W        W13376  16.595  28.144  12.473
54281W        W13377  40.821   8.861   1.750
54282W        W13378  13.126   4.422  14.377
54283W        W13379  38.025   8.714  11.028
54284W        W13380   1.927  41.971   0.911
54285W        W13381   1.444  13.241  12.865
54286W        W13382  25.058  30.596   2.209
54287W        W13383  32.938  14.095   5.789
54288W        W13384  27.987   6.255  14.509
54289W        W13385  19.650  35.019  12.977
54290W        W13386   6.376  31.525   0.385
54291W        W13387  44.826  41.823   1.883
54292W        W13388  27.448  11.858   1.214
54293W        W13389  17.672  42.905   4.691
54294W        W13390  17.688  30.055   1.266
54295W        W13391  40.458  11.202   3.191
54296W        W13392  36.534   1.244  10.978
54297W        W13393  38.894  18.600  12.005
54298W        W13394  19.707  28.516   0.735
54299W        W13395   9.347  35.603  10.916
54300W        W13396  20.115  23.134   4.746
54301W        W13397  13.330  11.770  11.897
54302W        W13398  34.543   4.295   4.627
54303W        W13399   3.268  12.687  13.464
54304W        W13400  30.419  12.712   3.318
54305W        W13401   4.389  17.151  14.473
54306W        W13402   6.282  31.959  12.456
54307W        W13403  38.040  35.547  12.530
54308W        W13404  15.691   7.341   3.296
54309W        W13405  22.600  34.565   1.232
54310W        W13406   1.852   6.386  13.990
54311W        W13407  19.583   5.787   0.425
54312W        W13408  25.993  35.025  12.501
54313W        W13409  36.909  11.794  13.827
54314W        W13410  31.644  37.470   1.931
54315W        W13411  13.137  34.544   1.288
54316W        W13412   0.320  18.199   2.854
54317W        W13413  44.280  38.870  11.021
54318W        W13414  17.752  41.368   1.432
54319W        W13415  42.998   9.820   4.351
54320W        W13416  31.914   2.761  11.018
54321W        W13417  27.987  17.186   0.901
54322W        W13418  35.524  36.502  14.798
54323W        W13419   3.219   1.756  11.611
54324W        W13420  39.858  13.275   3.646
54325W        W13421  39.936  22.083  12.893
54326W        W13422  15.707   3.421  14.328
54327W        W13423  23.155  44.489   9.921
54328W        W13424  15.764  35.542   0.301
54329W        W13425  38.921  16.241  12.038
54330W        W13426  12.741   7.757  13.529
54331W        W13427  39.339  33.910   3.334
54332W        W13428   0.300   0.479   3.857
54333W        W13429  40.938  24.007   3.341
54334W        W13430  34.579   0.248   0.330
54335W        W13431  16.594  42.876   4.626
54336W        W13432  17.114  22.572   9.999
54337W        W13433  36.854  12.838   2.363
54338W        W13434  38.897  34.107   4.682
54339W        W13435  37.405  36.349   2.803
54340W        W13436  27.162   0.898   2.900
54341W        W13437  28.086  43.406   1.403
54342W        W13438  10.194   5.895   3.867
54343W        W13439  41.891  43.345  12.933
54344W        W13440   8.344  25.021   9.666
54345W        W13441  32.106  36.063   4.681
54346W        W13442  12.851  22.209   1.240
54347W        W13443   3.834  42.444  14.411
54348W        W13444  40.440   1.731  10.461
54349W        W13445  15.145  41.799   3.191
54350W        W13446   1.256  33.054  11.433
54351W        W13447  32.066   3.252  11.954
54352W        W13448   6.185  12.307  14.787
54353W        W13449  42.508  12.128  11.402
54354W        W13450   7.259  31.942  11.387
54355W        W13451  26.167  35.003   2.806
54356W        W13452   1.864  19.049   4.600
54357W        W13453  32.435  15.293  10.009
54358W        W13454  39.007   2.924  14.467
54359W        W13455  25.071  36.491   4.774
54360W        W13456  19.560  43.849  11.567
54361W        W13457   4.789  25.685   2.286
54362W        W13458   4.892  16.800  12.455
54363W        W13459  26.130   0.743   2.847
54364W        W13460  12.206   3.244  14.763
54365W        W13461   7.370  39.895  10.614
54366W        W13462  13.723   5.711  14.888
54367W        W13463   1.288  39.394  14.433
54368W        W13464  30.466  26.611  10.980
54369W        W13465  37.540  38.446  11.495
54370W        W13466   6.861  34.615  11.489
54371W        W13467  33.494  35.516   4.835
54372W        W13468  34.505   4.729  13.027
54373W        W13469  40.950   9.673  10.556
54374W        W13470  38.978  27.514  14.974
54375W        W13471  29.534  16.590  11.574
54376W        W13472  40.523  24.997   0.274
54377W        W13473  38.543  14.676  12.457
54378W        W13474   0.259  29.531  14.436
54379W        W13475  21.193  11.299  11.104
54380W        W13476  28.614  17.297   0.387
54381W        W13477   3.741  11.248  13.843
54382W        W13478  12.816  43.926  13.395
54383W        W13479  28.172  12.229   4.786
54384W        W13480  30.619  30.554   0.388
54385W        W13481  32.057  36.910   2.194
54386W        W13482  26.978   5.875   3.216
54387W        W13483   2.859   2.423  12.415
54388W        W13484  37.569  21.532   2.222
54389W        W13485  37.355  17.633   0.478
54390W        W13486  14.640  44.335   0.439
54391W        W13487  39.025  14.748  10.935
54392W        W13488  28.043  25.509   3.747
54393W        W13489   7.817  39.834  10.462
54394W        W13490  23.668   8.259   1.784
54395W        W13491   0.801  23.022  12.032
54396W        W13492  43.476  22.032  13.947
54397W        W13493  25.661  39.864   4.208
54398W        W13494   7.689  35.380   0.292
54399W        W13495  30.943  18.772  11.085
54400W        W13496  25.082  23.494  10.994
54401W        W13497  30.543   0.801   1.451
54402W        W13498  24.162  21.262  12.534
54403W        W13499  41.856  25.493   3.348
54404W        W13500   3.290  11.806   2.238
54405W        W13501  26.495   3.372  14.945
54406W        W13502  36.042  23.033   0.263
54407W        W13503  13.679  15.223   2.378
54408W        W13504  23.611  26.109   0.783
54409W        W13505  31.598  37.074  11.945
54410W        W13506  26.611  18.143  12.832
54411W        W13507  21.645   0.393  14.954
54412W        W13508  36.906   6.676   3.789
54413W        W13509  14.814  38.879   2.405
54414W        W13510  14.308   6.727  13.447
54415W        W13511  36.478  23.217  10.970
54416W        W13512  31.958  33.961   2.809
54417W        W13513  33.400  30.119  13.520
54418W        W13514  19.534   5.309  11.594
54419W        W13515  28.178  16.166  13.884
54420W        W13516   5.894  42.474  11.078
54421W        W13517  16.106   5.308  12.566
54422W        W13518   6.416  12.129   2.850
54423W        W13519  24.641  12.793   1.294
54424W        W13520  23.563  24.016  14.790
54425W        W13521   5.330  11.684  14.483
54426W        W13522  40.962  16.713   4.639
54427W        W13523   5.315  26.664   3.378
54428W        W13524  40.009  24.162   4.203
54429W        W13525  19.741  37.371   4.749
54430W        W13526  38.071  43.833  12.462
54431W        W13527   9.757  37.854  13.966
54432W        W13528  32.578  10.366   1.823
54433W        W13529  19.276  40.004   1.360
54434W        W13530  37.993  21.129   4.602
54435W        W13531  24.016  42.918  12.413
54436W        W13532  40.954   5.416  12.087
54437W        W13533  27.665  41.416  11.968
54438W        W13534   2.826  20.721  13.992
54439W        W13535  12.714  34.869   4.303
54440W        W13536  31.487  33.423  12.958
54441W        W13537  29.065  19.097  14.821
54442W        W13538  22.515  29.582  10.422
54443W        W13539  31.902  20.641  14.419
54444W        W13540   3.376   7.171  12.556
54445W        W13541  38.901   6.363   2.835
54446W        W13542  12.253   3.335  13.942
54447W        W13543  36.487   9.827   2.283
54448W        W13544  39.918  38.344  13.953
54449W        W13545  20.737  20.101  10.442
54450W        W13546  20.098  17.670  14.823
54451W        W13547  14.819  44.833  11.118
54452W        W13548   7.295   9.644   3.357
54453W        W13549  24.032  27.021  13.344
54454W        W13550  21.157  43.430   2.192
54455W        W13551  29.926  33.520  12.503
54456W        W13552   3.900  17.716  11.380
54457W        W13553  23.729   0.881  11.907
54458W        W13554  21.722  21.148   1.770
54459W        W13555   8.680  30.004  10.962
54460W        W13556  28.613  20.690  10.032
54461W        W13557  13.172  36.927   3.662
54462W        W13558  37.969  39.510   0.315
54463W        W13559  35.586   9.757  13.417
54464W        W13560   2.463  30.630   0.817
54465W        W13561  20.203  41.007   3.796
54466W        W13562  11.826  34.453  11.868
54467W        W13563  38.854   0.327  13.329
54468W        W13564  41.374   5.912   4.657
54469W        W13565  29.097  41.842   4.775
54470W        W13566  24.670   4.433   1.744
54471W        W13567  37.576  34.553   4.697
54472W        W13568  20.712  40.393   1.280
54473W        W13569  11.827  30.616   2.832
54474W        W13570  22.574  18.260  14.932
54475W        W13571  33.384  44.976   3.178
54476W        W13572  18.547  10.259  10.912
54477W        W13573   1.348   4.847  13.548
54478W        W13574  34.588  32.527  12.097
54479W        W13575  22.046  24.980   3.339
54480W        W13576  15.299  27.623   4.319
54481W        W13577   6.330  14.303  13.957
54482W        W13578  34.539  27.572  12.339
54483W        W13579  41.373  25.562  10.938
54484W        W13580  25.655  20.063  11.574
54485W        W13581  24.069  26.495  14.366
54486W        W13582  42.384  36.876   4.148
54487W        W13583  43.469  23.132   4.686
54488W        W13584  24.171   6.738   0.767
54489W        W13585  28.087  37.451  11.396
54490W        W13586   3.244  23.033  10.014
54491W        W13587  15.804   7.258   0.894
54492W        W13588  12.303  31.608   3.145
54493W        W13589   8.676  16.771   3.347
54494W        W13590  40.832  17.068  13.362
54495W        W13591   9.219  29.150   2.254
54496W        W13592  27.106   6.313  14.431
54497W        W13593   2.849  17.724  13.951
54498W        W13594  15.682  30.050  12.995
54499W        W13595  22.112  37.028   2.860
54500W        W13596  22.723   3.227   2.226
54501W        W13597  20.060  26.168  13.974
54502W        W13598  24.174  10.689  10.962
54503W        W13599  37.022  21.709   1.835
54504W        W13600  16.661  12.255   2.275
54505W        W13601  11.151   7.898  12.562
54506W        W13602  34.120  40.838  10.524
54507W        W13603  22.509  29.083  10.597
54508W        W13604  22.150  29.440  12.977
54509W        W13605  29.919  30.066  10.494
54510W        W13606  20.708   5.872   3.647
54511W        W13607  41.982  16.072   3.384
54512W        W13608  21.041  29.644   4.669
54513W        W13609  41.466  12.812   2.792
54514W        W13610  15.641  42.897  13.349
54515W        W13611  20.071  28.549   0.957
54516W        W13612  11.710  26.955   0.258
54517W        W13613   6.223  29.932  10.414
54518W        W13614  27.469  17.123  10.890
54519W        W13615   9.686  23.589  13.818
54520W        W13616  33.414  39.560  11.934
54521W        W13617   4.439  43.321  11.858
54522W        W13618  19.273  32.916  13.023
54523W        W13619  42.915  28.510   1.833
54524W        W13620   6.795  41.304   2.383
54525W        W13621  25.108  22.181   5.715
54526W        W13622  34.571  41.350  12.560
54527W        W13623  43.455  36.527  14.794
54528W        W13624  28.123   4.204   0.448
54529W        W13625   2.789  21.736   4.128
54530W        W13626  12.276   7.385  14.841
54531W        W13627   6.349  15.157   3.294
54532W        W13628  10.213  40.411   3.826
54533W        W13629  28.089  22.053  14.276
54534W        W13630   6.341  41.852   0.750
54535W        W13631  38.531  37.974   1.301
54536W        W13632  30.963  11.176  14.939
54537W        W13633   7.780  36.005   0.397
54538W        W13634  31.610  21.551  12.919
54539W        W13635  28.105  12.309   0.364
54540W        W13636  10.248  28.052   3.185
54541W        W13637  40.501  24.605  11.536
54542W        W13638  15.307   3.887   0.349
54543W        W13639   2.866  34.429   0.311
54544W        W13640  36.893  17.638   3.161
54545W        W13641  42.282  38.852  11.410
54546W        W13642  41.426   8.879  10.427
54547W        W13643   1.965  12.836   2.871
54548W        W13644   1.263  22.564  13.478
54549W        W13645  41.002  17.672   2.343
54550W        W13646  33.012   3.445   2.800
54551W        W13647  29.540  21.139   3.719
54552W        W13648  26.163   4.339  10.911
54553W        W13649   7.233  11.658  13.888
54554W        W13650  30.473   8.820   4.627
54555W        W13651  11.188  35.420  10.899
54556W        W13652  34.507  40.961  14.989
54557W        W13653  17.252   1.815  13.955
54558W        W13654  20.607  44.483  13.981
54559W        W13655  22.080  39.391  12.469
54560W        W13656  14.697   1.787   2.298
54561W        W13657  25.030  10.360  14.323
54562W        W13658  22.746   2.287  12.365
54563W        W13659  38.385   6.831  10.514
54564W        W13660   4.732  28.096   2.256
54565W        W13661  30.139  42.859   4.643
54566W        W13662  15.324  24.157   2.417
54567W        W13663   5.228   4.775   4.133
54568W        W13664  19.282  42.787  13.939
54569W        W13665  14.199  23.618   3.287
54570W        W13666  35.094  38.495  14.375
54571W        W13667  41.834  31.951   1.280
54572W        W13668  28.516  43.358  11.523
54573W        W13669   4.293  10.759  14.874
54574W        W13670  33.493  44.989  11.531
54575W        W13671  44.462  19.155  13.533
54576W        W13672  26.642   4.789  11.995
54577W        W13673  23.625  39.931   3.730
54578W        W13674   3.279  25.635   4.346
54579W        W13675  43.492  27.597  13.475
54580W        W13676  27.482  33.513  12.000
54581W        W13677  19.082  13.146  13.876
54582W        W13678  25.190  20.112  14.795
54583W        W13679  25.128  41.927  13.447
54584W        W13680  20.156  39.334  13.946
54585W        W13681  21.147  36.037   4.328
54586W        W13682  27.525  40.518  13.858
54587W        W13683  35.465  23.040  12.029
54588W        W13684  17.081  23.112   4.139
54589W        W13685  27.474  10.837   0.922
54590W        W13686  39.523  41.939   3.734
54591W        W13687  27.077   9.694   3.647
54592W        W13688   7.355  33.098  12.547
54593W        W13689   7.275   9.163  13.007
54594W        W13690   8.224  36.504  11.922
54595W        W13691  14.807  40.858  14.346
54596W        W13692   3.394  11.186  14.440
54597W        W13693  34.468  24.059  12.886
54598W        W13694  29.163  27.646  12.044
54599W        W13695  21.125  18.205   3.667
54600W        W13696  30.999   7.890  11.110
54601W        W13697  17.740  19.270  11.416
54602W        W13698   8.766  28.664  12.559
54603W        W13699  42.919   7.239   1.352
54604W        W13700  23.985  22.161   0.742
54605W        W13701  43.338  16.607  14.315
54606W        W13702  20.522  34.057  12.888
54607W        W13703   6.801  23.650  13.898
54608W        W13704  40.493  33.587  11.907
54609W        W13705   8.797  16.652  14.851
54610W        W13706  30.069  35.486  13.489
54611W        W13707  14.320  18.254   2.674
54612W        W13708  18.569  44.486   2.292
54613W        W13709  15.149  32.913  14.977
54614W        W13710  22.055  21.550   9.437
54615W        W13711   9.228   4.393   3.221
54616W        W13712   6.404  44.987   4.752
54617W        W13713  18.570  23.507  10.500
54618W        W13714  41.529  37.491   2.400
54619W        W13715  35.538  17.158   5.083
54620W        W13716  40.955  23.196  13.417
54621W        W13717  17.731  43.368  14.507
54622W        W13718  27.967   1.938  12.526
54623W        W13719  14.316  16.095   2.216
54624W        W13720   3.401   7.678  12.484
54625W        W13721  10.299  34.934  12.435
54626W        W13722  36.979   7.336  11.467
54627W        W13723  11.697  42.364   1.248
54628W        W13724  16.660  16.078   3.279
54629W        W13725  12.239  40.802   0.734
54630W        W13726  24.603  35.419   5.100
54631W        W13727  14.298  43.908  13.964
54632W        W13728  35.431   4.734  14.327
54633W        W13729   6.919  18.065  10.476
54634W        W13730  17.764   4.282  12.558
54635W        W13731  26.167   5.732   2.398
54636W        W13732  14.230  31.424  12.558
54637W        W13733  29.153  43.496   3.688
54638W        W13734   1.458   3.440   2.766
54639W        W13735  31.415   2.349  14.960
54640W        W13736  19.713  39.510  13.964
54641W        W13737   6.349  17.089   3.242
54642W        W13738  42.928   0.873   0.898
54643W        W13739  18.698  16.798   1.734
54644W        W13740  42.347  38.975   4.248
54645W        W13741  16.269  15.303  13.859
54646W        W13742  32.631  17.304  14.488
54647W        W13743  24.174  39.432  11.382
54648W        W13744  26.044   0.943   1.922
54649W        W13745  32.972  10.221  14.468
54650W        W13746  23.049  37.363   1.832
54651W        W13747  15.207  26.523  14.762
54652W        W13748  11.852  28.942  12.370
54653W        W13749  34.119  23.590   0.248
54654W        W13750  24.504  12.838   3.226
54655W        W13751  35.456   7.341  10.507
54656W        W13752   3.892  22.091  11.433
54657W        W13753  17.601  38.516   4.606
54658W        W13754  31.006  21.244   0.834
54659W        W13755  15.579  16.165  11.375
54660W        W13756  12.324  14.605   0.340
54661W        W13757   9.704  36.468   2.837
54662W        W13758  12.779  43.013  13.922
54663W        W13759  22.507  33.060   0.331
54664W        W13760   9.752   1.861   4.272
54665W        W13761  27.165   5.339  10.553
54666W        W13762  26.964   9.854   2.693
54667W        W13763  41.851   1.871   3.354
54668W        W13764  35.570   7.722   4.174
54669W        W13765  25.046  40.418  11.886
54670W        W13766   6.304  23.035   1.765
54671W        W13767  43.845   7.352   3.354
54672W        W13768  22.744  43.990   1.805
54673W        W13769  30.524   2.314   1.860
54674W        W13770  12.759   3.410   1.321
54675W        W13771  15.637  27.018   3.744
54676W        W13772   6.679  36.895  11.383
54677W        W13773  42.886  38.033  13.361
54678W        W13774  32.134   5.289   0.949
54679W        W13775   3.785  30.504   0.760
54680W        W13776  23.192   5.323   2.892
54681W        W13777  40.495  23.667  11.435
54682W        W13778  21.524   0.788   2.872
54683W        W13779  28.114  37.434  12.473
54684W        W13780   4.373  12.703   0.372
54685W        W13781  26.124  31.552  14.764
54686W        W13782  39.905   8.892  12.024
54687W        W13783   2.460  25.147   0.312
54688W        W13784  32.986  33.999  14.954
54689W        W13785   8.381  16.661   1.269
54690W        W13786  29.955  38.972  14.856
54691W        W13787  31.415  15.731  14.392
54692W        W13788  37.361  10.830  11.524
54693W        W13789  39.496   9.777   4.144
54694W        W13790  19.574   4.854  14.330
54695W        W13791  11.127   6.676   2.180
54696W        W13792   8.696  25.643   2.819
54697W        W13793   5.267  29.590   0.827
54698W        W13794  37.875  11.639   5.238
54699W        W13795   3.386   1.453  13.435
54700W        W13796  25.476   8.810   4.627
54701W        W13797  28.447  22.174  14.439
54702W        W13798  22.636  22.066   1.834
54703W        W13799  18.742  32.037  10.933
54704W        W13800  14.306  26.670  13.346
54705W        W13801   8.303   4.217   0.454
54706W        W13802  34.066  17.674   4.640
54707W        W13803   6.280   8.894  11.428
54708W        W13804  15.737  44.918   3.658
54709W        W13805  12.128  11.707  13.822
54710W        W13806  14.265  34.569  14.766
54711W        W13807  25.533  23.130   4.306
54712W        W13808  33.045   3.931   0.732
54713W        W13809  42.956   1.452   4.174
54714W        W13810  21.261  35.521   3.322
54715W        W13811  10.841  23.736   2.854
54716W        W13812  11.708  19.109  10.994
54717W        W13813   5.754   8.381  11.881
54718W        W13814  44.957   2.949   2.842
54719W        W13815  17.212  21.226   1.254
54720W        W13816  25.003  34.972   0.768
54721W        W13817  13.731  43.935  13.490
54722W        W13818  25.026  21.595  14.833
54723W        W13819  27.491   9.867   1.840
54724W        W13820   0.272  44.766  10.556
54725W        W13821   4.700  35.899   2.183
54726W        W13822  27.990  38.911   2.376
54727W        W13823   2.741   3.714  11.114
54728W        W13824  35.974  22.638   3.169
54729W        W13825  16.804  11.156   3.338
54730W        W13826   2.940   1.375   3.217
54731W        W13827  38.965   0.286  11.543
54732W        W13828  17.621  40.041   2.267
54733W        W13829  23.063  42.879  13.906
54734W        W13830  15.188  25.037   4.647
54735W        W13831  44.925  28.938   4.832
54736W        W13832  42.873  29.066  14.411
54737W        W13833  22.202  25.041   1.717
54738W        W13834  14.600  26.642   9.949
54739W        W13835  19.543  28.531   1.735
54740W        W13836  17.770  29.946   3.836
54741W        W13837  13.660  43.006  13.865
54742W        W13838  30.928  35.441   1.425
54743W        W13839  17.182   6.197   1.428
54744W        W13840  38.872   6.231   4.792
54745W        W13841  28.968  25.971   3.296
54746W        W13842   0.450  21.137   4.674
54747W        W13843  20.705  38.401   1.834
54748W        W13844   3.250  23.628  11.423
54749W        W13845  33.023   5.794  14.863
54750W        W13846  31.472  18.108  12.493
54751W        W13847  19.243  26.559   2.337
54752W        W13848  28.007  22.201  11.538
54753W        W13849  24.016   2.306   2.304
54754W        W13850  32.575  23.135   3.300
54755W        W13851  37.878  37.408  10.962
54756W        W13852  13.119  10.802  13.372
54757W        W13853  10.257  37.566   0.336
54758W        W13854   0.759  38.833   0.407
54759W        W13855  14.697  38.365  14.867
54760W        W13856  23.612  42.486   0.299
54761W        W13857  41.829  23.219  10.589
54762W        W13858  29.486  29.603   2.256
54763W        W13859   2.269   8.380   2.234
54764W        W13860  14.792  18.782   4.820
54765W        W13861  39.926  39.524   3.317
54766W        W13862  14.211  40.459   3.228
54767W        W13863  16.293  14.622   1.272
54768W        W13864  15.299  11.743   4.131
54769W        W13865  24.541  29.997  12.458
54770W        W13866   4.289  12.619   2.872
54771W        W13867   0.904  18.075   1.382
54772W        W13868  32.944  25.161   3.199
54773W        W13869  40.008  20.727   4.181
54774W        W13870  23.631  31.110  11.589
54775W        W13871   1.971  37.867  13.937
54776W        W13872   8.770   3.954  13.330
54777W        W13873  32.076  18.595   1.367
54778W        W13874  27.143  17.669  12.547
54779W        W13875  42.457   7.694  13.977
54780W        W13876  36.457  28.663  13.815
54781W        W13877  44.826  29.026  13.471
54782W        W13878   8.663   2.256   4.817
54783W        W13879   5.891   6.373  13.930
54784W        W13880   3.728  37.846  11.965
54785W        W13881   5.391   4.849   1.383
54786W        W13882   7.380  31.480   3.232
54787W        W13883   7.303  16.303  10.891
54788W        W13884   2.453   2.745   2.229
54789W        W13885   1.465  23.185   1.246
54790W        W13886  18.622  14.324   3.348
54791W        W13887   3.860   7.367  12.023
54792W        W13888   2.868  28.973  14.414
54793W        W13889  11.675  37.556   0.482
54794W        W13890  41.887  29.096   1.853
54795W        W13891  36.987  23.659   5.619
54796W        W13892  28.509  22.580  14.966
54797W        W13893  23.566  11.825   0.296
54798W        W13894  40.026  35.965  13.893
54799W        W13895  42.354  43.924   2.277
54800W        W13896   0.466  13.814   2.289
54801W        W13897  37.431  20.563   2.723
54802W        W13898  44.309  36.023   1.796
54803W        W13899  41.849  16.656  14.368
54804W        W13900  27.156  44.831   0.792
54805W        W13901  17.222  19.226  12.411
54806W        W13902  37.539   8.200   9.522
54807W        W13903  16.240  19.117   1.899
54808W        W13904   6.740  27.136  13.929
54809W        W13905  36.017  41.486  12.912
54810W        W13906  44.779   0.777  10.892
54811W        W13907  24.689  24.566  12.416
54812W        W13908  28.494  35.930  12.460
54813W        W13909   9.789  14.609   2.814
54814W        W13910  39.350  42.480   4.631
54815W        W13911   5.797  14.608  12.420
54816W        W13912  38.511  36.864  13.324
54817W        W13913   4.845  43.342   0.955
54818W        W13914  24.495  16.595  14.465
54819W        W13915  11.208   9.781   1.859
54820W        W13916  35.916  29.920   1.920
54821W        W13917   7.724  27.101   0.245
54822W        W13918  41.356  44.953  11.453
54823W        W13919  29.060  16.184  14.375
54824W        W13920  24.085  25.075  11.058
54825W        W13921  34.429  12.350   2.834
54826W        W13922   3.878  43.842   2.770
54827W        W13923  10.748  27.060  14.471
54828W        W13924  31.558  13.714   0.922
54829W        W13925  23.655  20.623   2.307
54830W        W13926  42.976  30.442  14.335
54831W        W13927  42.464  16.652  14.424
54832W        W13928  23.102  13.720   1.263
54833W        W13929  31.615  13.172  12.036
54834W        W13930  34.923   9.306   1.913
54835W        W13931  11.194  20.609  12.911
54836W        W13932  18.146  28.621  14.782
54837W        W13933  39.493   4.841   1.299
54838W        W13934   2.726  13.744  14.947
54839W        W13935  21.734  38.986   3.799
54840W        W13936  11.855  26.668  12.878
54841W        W13937  37.383  15.596   9.958
54842W        W13938   8.334   5.833  13.426
54843W        W13939   7.297  34.891  11.497
54844W        W13940  39.935  20.185  14.371
54845W        W13941   8.677  35.983   2.726
54846W        W13942  22.504   9.217  13.018
54847W        W13943  24.488  31.590   2.248
54848W        W13944  36.082  26.646  13.030
54849W        W13945  44.986  12.202  14.837
54850W        W13946  23.526  26.606   4.662
54851W        W13947  10.341  26.552   3.372
54852W        W13948  30.595  17.752   0.326
54853W        W13949   9.162  16.653   2.788
54854W        W13950  27.448  19.553   5.754
54855W        W13951   9.256  37.485  10.612
54856W        W13952  24.631   1.393   2.291
54857W        W13953  28.620  29.586   2.825
54858W        W13954  22.639  33.499  10.494
54859W        W13955  18.578  35.877  13.501
54860W        W13956  13.107  19.267  13.910
54861W        W13957  15.238  15.738   3.650
54862W        W13958  14.724  34.604  12.496
54863W        W13959  31.111  28.443   2.390
54864W        W13960  16.209  29.926   2.864
54865W        W13961   6.326  16.181   4.207
54866W        W13962   7.883  30.997   0.293
54867W        W13963  26.605  15.139   4.777
54868W        W13964  41.414  18.607  11.579
54869W        W13965  23.213  39.965   0.390
54870W        W13966  12.729  41.415   1.841
54871W        W13967  30.656  36.947   5.299
54872W        W13968   3.817  19.780  11.019
54873W        W13969  30.946  25.676  13.541
54874W        W13970  15.126   7.211  10.943
54875W        W13971  42.334  31.613  14.811
54876W        W13972  15.776  11.662   4.135
54877W        W13973   9.658  30.507   4.337
54878W        W13974  32.056  31.061  13.897
54879W        W13975  22.596   7.874   2.323
54880W        W13976   7.783  33.422  10.110
54881W        W13977  27.574  15.119  13.403
54882W        W13978   3.349  22.100  12.913
54883W        W13979  19.141  20.643  14.412
54884W        W13980  11.266   1.309  10.436
54885W        W13981   6.783  23.011   4.220
54886W        W13982   3.880  30.145   2.270
54887W        W13983  37.429   5.716  12.954
54888W        W13984  19.637  30.428   1.330
54889W        W13985   8.202  27.104  12.846
54890W        W13986  36.454  32.017  11.932
54891W        W13987  12.288  25.019   1.306
54892W        W13988  16.216  28.658   0.897
54893W        W13989  29.640  11.780   5.322
54894W        W13990  29.151  18.648   2.316
54895W        W13991  19.590   5.382   3.240
54896W        W13992  25.658  23.999  11.903
54897W        W13993  32.415  32.444  14.014
54898W        W13994  23.491   5.840   0.262
54899W        W13995  24.571  43.330  14.400
54900W        W13996  20.611  31.126   0.393
54901W        W13997   6.339   9.719  14.763
54902W        W13998  19.229  30.155  10.468
54903W        W13999  31.040   9.657   2.828
54904W        W14000  30.509  36.431  14.324
54905W        W14001   6.802   1.409  10.909
54906W        W14002  33.583   3.240  12.472
54907W        W14003  41.870  34.005  11.858
54908W        W14004   6.331   3.228   4.808
54909W        W14005  14.791  41.927   0.265
54910W        W14006  25.072  18.131  12.435
54911W        W14007  35.484  32.027   4.234
54912W        W14008  38.897  12.702  11.881
54913W        W14009  27.485  39.415  12.863
54914W        W14010  22.547   4.810   5.129
54915W        W14011   3.271  10.824  13.847
54916W        W14012  40.890  42.960  13.467
54917W        W14013   4.829  36.889  14.964
54918W        W14014   9.861  30.568  12.373
54919W        W14015  33.490   5.409   3.738
54920W        W14016  11.795  43.400   0.422
54921W        W14017  29.013  44.821   0.828
54922W        W14018  15.777   7.181   2.237
54923W        W14019   3.827  28.615  10.628
54924W        W14020  43.391  36.869   1.419
54925W        W14021   4.841  19.090   4.209
54926W        W14022   7.327  40.445  14.950
54927W        W14023   2.848   4.209  13.395
54928W        W14024   6.808  15.191   3.635
54929W        W14025   9.278  14.097  13.827
54930W        W14026  33.081  40.465  12.057
54931W        W14027  10.872  33.929  11.007
54932W        W14028  12.845   1.470   3.640
54933W        W14029  15.172  44.278   4.825
54934W        W14030  19.687  17.145  11.505
54935W        W14031  32.055  29.530  11.478
54936W        W14032  20.243  21.108   3.342
54937W        W14033  11.750  16.306   2.198
54938W        W14034  10.651  40.898  10.968
54939W        W14035  22.504  27.095   0.413
54940W        W14036  43.913  36.462   0.919
54941W        W14037  26.565  30.463  13.062
54942W        W14038   7.355  44.353   2.716
54943W        W14039  17.693  21.083  13.327
54944W        W14040  27.538  36.890   5.238
54945W        W14041  15.778  20.676   0.869
54946W        W14042  28.569  43.786  14.853
54947W        W14043  16.667  31.142   0.356
54948W        W14044  15.116   3.353  10.552
54949W        W14045   2.939   1.366   3.684
54950W        W14046  17.722   9.849  12.575
54951W        W14047  27.181  39.864  10.982
54952W        W14048   2.271  44.881  14.904
54953W        W14049   2.885  17.117  11.897
54954W        W14050  25.629   1.761   0.823
54955W        W14051   7.673  32.113   5.087
54956W        W14052  10.659  11.678  12.096
54957W        W14053  18.697  21.047   2.672
54958W        W14054  23.159  23.528   4.176
54959W        W14055  27.165  18.088   4.171
54960W        W14056  28.678  25.638   0.310
54961W        W14057  18.562   3.842  13.954
54962W        W14058   5.287  30.113   2.217
54963W        W14059  26.642  32.460  10.579
54964W        W14060  37.561  31.549   1.222
54965W        W14061  25.097  29.025  14.345
54966W        W14062  28.552  36.582   3.173
54967W        W14063  16.657  39.847  12.997
54968W        W14064   0.764   6.420   0.460
54969W        W14065  37.962  25.032  12.526
54970W        W14066  12.155   0.361   0.313
54971W        W14067  41.403   9.867  10.905
54972W        W14068  44.930   1.905  11.880
54973W        W14069  26.159   8.768   0.377
54974W        W14070  42.441   0.339   3.258
54975W        W14071   0.862  44.446  10.645
54976W        W14072  39.045  20.638  10.892
54977W        W14073  38.869  21.254   3.867
54978W        W14074  31.628  12.675  14.333
54979W        W14075  28.481  20.127   3.833
54980W        W14076  16.095  10.765   3.806
54981W        W14077  20.618  15.128   2.821
54982W        W14078  39.374  17.104  11.552
54983W        W14079  42.807  20.561  12.550
54984W        W14080  25.493  10.270   0.941
54985W        W14081  25.198  36.937   0.414
54986W        W14082  12.794  30.929   5.082
54987W        W14083  22.137  26.967   0.435
54988W        W14084  24.976  26.581   1.239
54989W        W14085  16.256  33.494  14.004
54990W        W14086  23.648   9.661   3.252
54991W        W14087  35.936   0.761  12.838
54992W        W14088  16.607   6.397  11.078
54993W        W14089  30.646  11.726  14.456
54994W        W14090  34.037   3.758  13.523
54995W        W14091  25.079  21.090  13.335
54996W        W14092   5.909  15.300  11.924
54997W        W14093  20.109   0.853  14.483
54998W        W14094  32.559  32.565   3.202
54999W        W14095  21.684  20.258   0.370
55000W        W14096  32.559  13.161  11.049
55001W        W14097  33.047  25.059   5.566
55002W        W14098   6.303  31.460  11.479
55003W        W14099   5.823  29.134  12.959
55004W        W14100  27.551  44.845   3.161
55005W        W14101  38.882  27.983   1.299
55006W        W14102  36.347  43.367   4.154
55007W        W14103   7.770  18.557   3.155
55008W        W14104   4.370  15.160   2.226
55009W        W14105  15.595  34.947   3.295
55010W        W14106   6.816  35.402  12.940
55011W        W14107  39.380   1.277   3.728
55012W        W14108  21.083  44.754   3.280
55013W        W14109  32.922  20.198   0.800
55014W        W14110  18.614   1.391  13.928
55015W        W14111  12.613  10.790  14.843
55016W        W14112   8.858  15.779   1.260
55017W        W14113  42.011  14.632  10.559
55018W        W14114   9.272  28.539  11.463
55019W        W14115  44.498   0.953  14.769
55020W        W14116  14.267   9.784   3.339
55021W        W14117   5.289   9.683  11.879
55022W        W14118  43.488  38.913  11.575
55023W        W14119  42.280  17.245  11.477
55024W        W14120  12.203  40.363  14.362
55025W        W14121   7.385  26.614   2.827
55026W        W14122  25.662   3.775  13.865
55027W        W14123  43.990  32.502  11.044
55028W        W14124   1.929  39.999   4.793
55029W        W14125  24.559  18.693  11.937
55030W        W14126   5.741  21.239   2.811
55031W        W14127   6.921   3.387  10.466
55032W        W14128  32.456  36.586  12.912
55033W        W14129  10.825   4.364   1.918
55034W        W14130  12.838  34.389  10.531
55035W        W14131  27.088  23.734   3.337
55036W        W14132  27.667  38.051   3.364
55037W        W14133  15.801  28.647   3.809
55038W        W14134  33.559  15.190   4.193
55039W        W14135   5.715  12.774  13.467
55040W        W14136  19.180  13.661  14.466
55041W        W14137  44.903  14.679   3.650
55042W        W14138   7.771  11.736  12.528
55043W        W14139  32.101  31.586  11.868
55044W        W14140  35.080  28.949  10.465
55045W        W14141  42.802  41.302  12.405
55046W        W14142   6.226  25.974  12.458
55047W        W14143  36.419   0.474   0.837
55048W        W14144  27.001   2.926   4.705
55049W        W14145   9.717  29.010   2.304
55050W        W14146  19.619  11.224  11.612
55051W        W14147   8.835  12.666  14.789
55052W        W14148  37.485   7.799   3.171
55053W        W14149  21.188  35.437   0.825
55054W        W14150  16.657  30.629   1.284
55055W        W14151  20.608  23.151   4.816
55056W        W14152   6.899  20.682   1.219
55057W        W14153  14.172  26.567  11.489
55058W        W14154  14.656  12.166   0.737
55059W        W14155  12.208  19.177  14.897
55060W        W14156   2.426  14.593   1.737
55061W        W14157  17.779  36.502  14.964
55062W        W14158   4.911  11.322  14.907
55063W        W14159  13.229  40.501  12.072
55064W        W14160  35.912  39.045   1.338
55065W        W14161  20.237  27.634   4.645
55066W        W14162  43.014  29.596   0.966
55067W        W14163  32.029   6.203   1.771
55068W        W14164  12.281  11.369  12.514
55069W        W14165   6.874  41.028  10.894
55070W        W14166  33.081  28.006   1.390
55071W        W14167  13.803  18.767   4.249
55072W        W14168  25.126  18.157   4.795
55073W        W14169  12.158  15.719  13.021
55074W        W14170  20.618  41.931  14.966
55075W        W14171   8.230  22.716  14.370
55076W        W14172  40.918  19.170  11.585
55077W        W14173  15.281   3.373   2.282
55078W        W14174   2.382  33.514  10.103
55079W        W14175   7.184  16.232   3.752
55080W        W14176  31.049  35.444  13.474
55081W        W14177  26.012   9.305  10.927
55082W        W14178   5.216  23.077  12.969
55083W        W14179  29.100  43.437   0.432
55084W        W14180   0.483  10.144  12.499
55085W        W14181  14.744  37.408  14.278
55086W        W14182  42.397   7.907   4.713
55087W        W14183  35.890  25.469   5.088
55088W        W14184  11.223  14.629  13.380
55089W        W14185  26.048   3.725   1.769
55090W        W14186   2.725  18.594  13.850
55091W        W14187  31.420  41.342  11.958
55092W        W14188   4.722  10.778   3.796
55093W        W14189  38.444  36.085  12.361
55094W        W14190  15.254  12.771  12.022
55095W        W14191  10.324  25.063  13.975
55096W        W14192  17.581   2.276  13.322
55097W        W14193  13.754  14.296  13.890
55098W        W14194  19.557   2.310  12.869
55099W        W14195  20.615  44.487  13.465
55100W        W14196  33.108  11.689  11.876
55101W        W14197   4.904  39.386  11.077
55102W        W14198  16.812  34.047   2.354
55103W        W14199   9.852  12.353   3.204
55104W        W14200  36.478   0.345   4.791
55105W        W14201   4.336  16.127  11.023
55106W        W14202  31.639   3.713  13.868
55107W        W14203  44.479  41.831  11.425
55108W        W14204  41.963  11.336  14.865
55109W        W14205  34.534  17.603  11.927
55110W        W14206  27.112  38.377  12.426
55111W        W14207   6.722  40.895   1.880
55112W        W14208   6.244   8.404   4.343
55113W        W14209   1.950   4.711  11.578
55114W        W14210  37.016  32.065   1.271
55115W        W14211  33.496  15.126  13.967
55116W        W14212  18.268   4.401  11.994
55117W        W14213   5.346  20.643   4.213
55118W        W14214  29.432   5.893   3.295
55119W        W14215  24.128   1.866   3.714
55120W        W14216  42.815  43.393  12.847
55121W        W14217  19.593  13.824  12.570
55122W        W14218  28.130  25.562   0.841
55123W        W14219  37.053  41.412   1.741
55124W        W14220   4.308  10.702   1.931
55125W        W14221  13.672  39.502  12.511
55126W        W14222  25.471   4.746   1.315
55127W        W14223  39.422  15.740   3.728
55128W        W14224  36.864   1.799   1.773
55129W        W14225   3.344  41.991   0.431
55130W        W14226  43.321  39.873  11.106
55131W        W14227  19.742  33.911   4.693
55132W        W14228  19.651  11.171   4.343
55133W        W14229  32.395  40.809  12.858
55134W        W14230  13.191  14.773  12.392
55135W        W14231  25.984  16.245   0.889
55136W        W14232  32.517  13.721   3.866
55137W        W14233  16.692  35.051  14.275
55138W        W14234  35.961  13.273   1.437
55139W        W14235  12.640  32.532   3.828
55140W        W14236  18.159   4.401  10.904
55141W        W14237  24.501  14.143  14.491
55142W        W14238  35.518  32.065   0.295
55143W        W14239  15.121  32.591   1.854
55144W        W14240  37.853  38.987   2.264
55145W        W14241  15.208  32.402  13.815
55146W        W14242  23.677  38.014   3.655
55147W        W14243   7.783  29.942   1.394
55148W        W14244  39.978   6.889   2.901
55149W        W14245  36.868   6.284  14.781
55150W        W14246   8.667  23.600  12.840
55151W        W14247  35.007  40.358  10.017
55152W        W14248   2.842  35.042   0.399
55153W        W14249  24.690   1.368  13.002
55154W        W14250  31.624   3.409   3.754
55155W        W14251  34.926  40.478   2.350
55156W        W14252  24.625   2.467   1.253
55157W        W14253  38.889  35.891  13.957
55158W        W14254  26.533  16.778   4.205
55159W        W14255  12.631   2.957   2.898
55160W        W14256  28.018  16.186  14.948
55161W        W14257   9.695  21.689   4.285
55162W        W14258   1.850  17.125   0.751
55163W        W14259  12.252  14.162  14.495
55164W        W14260  21.207   7.710   0.901
55165W        W14261   2.303  15.246   1.847
55166W        W14262  40.880  44.479  13.332
55167W        W14263  34.902  38.549   1.372
55168W        W14264  17.613  30.981   0.337
55169W        W14265  44.954  21.702   0.333
55170W        W14266  22.584  36.906   4.286
55171W        W14267  37.832  11.242  11.963
55172W        W14268  37.875  26.162  13.447
55173W        W14269  12.207   5.872   2.296
55174W        W14270   8.267  28.484  14.365
55175W        W14271  38.872  10.792  11.866
55176W        W14272  33.468  30.974  12.024
55177W        W14273  31.509  23.733   2.804
55178W        W14274  19.161  26.119   0.419
55179W        W14275  22.192  41.917   2.685
55180W        W14276  30.451  36.852   4.716
55181W        W14277  39.327  43.943  14.447
55182W        W14278   7.672   0.321  13.481
55183W        W14279  40.362   8.267   3.790
55184W        W14280  39.436  37.522  11.548
55185W        W14281  30.948  19.535  12.393
55186W        W14282   0.406  20.136  10.597
55187W        W14283  15.266  31.948  14.946
55188W        W14284   9.835  16.605  14.486
55189W        W14285  27.176  23.537  14.848
55190W        W14286  34.975  14.318   2.789
55191W        W14287   2.838  12.686   2.887
55192W        W14288  42.789  28.985   4.832
55193W        W14289  15.259   1.793   2.752
55194W        W14290  15.714  27.065   4.788
55195W        W14291  37.988   0.333  10.515
55196W        W14292  27.972   4.257  11.928
55197W        W14293   6.827  36.491  10.627
55198W        W14294  31.054  13.728   4.124
55199W        W14295   5.308   0.411  14.380
55200W        W14296  29.427  43.764  10.461
55201W        W14297   1.289  40.879  13.801
55202W        W14298   0.444  42.877   2.892
55203W        W14299  29.564   9.321   0.759
55204W        W14300  20.067  21.753  11.397
55205W        W14301  43.411  28.481  11.531
55206W        W14302  18.756   3.855   4.220
55207W        W14303  30.065  20.528   1.894
55208W        W14304  36.518  11.765   4.278
55209W        W14305   3.260  17.145  12.932
55210W        W14306  42.851  44.413   2.355
55211W        W14307  15.316  19.678   0.436
55212W        W14308  24.067   8.293  12.502
55213W        W14309   4.373  32.007  14.778
55214W        W14310   0.309   2.798   2.352
55215W        W14311  34.917  24.140  14.765
55216W        W14312  43.293  39.498   3.253
55217W        W14313   0.291  28.679   2.328
55218W        W14314  29.036  23.671   4.614
55219W        W14315  10.664   6.861  12.533
55220W        W14316   2.248   9.842   2.735
55221W        W14317  30.966  27.171  11.484
55222W        W14318  16.165  15.824   1.305
55223W        W14319  16.743  22.713  13.941
55224W        W14320  30.076  22.536  14.487
55225W        W14321   8.237   0.976   3.158
55226W        W14322  37.934  36.021  14.407
55227W        W14323  20.529  21.232  10.434
55228W        W14324  21.228  38.424  11.014
55229W        W14325  43.312  34.051  10.921
55230W        W14326   8.256  29.166  12.512
55231W        W14327  13.654  20.721  14.299
55232W        W14328  20.749  44.994  11.030
55233W        W14329  32.943  26.161  10.915
55234W        W14330   0.930  25.653   3.857
55235W        W14331  29.502   6.856   3.362
55236W        W14332   5.389  15.238   1.775
55237W        W14333  28.604  35.966   2.321
55238W        W14334  35.044   4.324   4.145
55239W        W14335  18.709  33.467   1.707
55240W        W14336  15.738   6.722   2.833
55241W        W14337  28.680  44.264  10.581
55242W        W14338   4.732  24.129  12.916
55243W        W14339  30.463  24.983   3.769
55244W        W14340  18.221  19.170  12.880
55245W        W14341  39.552   6.705  10.438
55246W        W14342   0.958  44.290  14.418
55247W        W14343  27.663   7.801  14.836
55248W        W14344  24.055  27.666  13.844
55249W        W14345  28.677  42.391  13.538
55250W        W14346  28.463  43.392   4.677
55251W        W14347  39.545  36.387   3.703
55252W        W14348  10.854   6.310  12.980
55253W        W14349  16.126  17.134   1.320
55254W        W14350  25.668  28.659  11.072
55255W        W14351  25.147   6.388  14.878
55256W        W14352   1.739  21.648   4.212
55257W        W14353  29.977  23.147  11.385
55258W        W14354   5.726  21.703   0.324
55259W        W14355  36.456  25.574  11.074
55260W        W14356  41.427  43.468   2.787
55261W        W14357  26.141  17.782  11.478
55262W        W14358   3.267  30.509  13.922
55263W        W14359  32.108  15.820  11.433
55264W        W14360  26.079  19.131  12.415
55265W        W14361  18.689  38.885   5.082
55266W        W14362  24.153  11.777  10.512
55267W        W14363  25.076  12.740   3.657
55268W        W14364  29.950  36.584   3.808
55269W        W14365   8.350  29.445   1.706
55270W        W14366   4.267   1.304   3.805
55271W        W14367  15.579  10.204   5.090
55272W        W14368  25.970  38.427  12.015
55273W        W14369  24.584   2.464  10.623
55274W        W14370  18.787  39.832  11.393
55275W        W14371  44.462  16.262  13.017
55276W        W14372  34.031   0.367   4.341
55277W        W14373   2.753  29.972  12.054
55278W        W14374   8.884  25.158  10.472
55279W        W14375  22.223  26.161   0.807
55280W        W14376  29.441  29.932   0.476
55281W        W14377  22.110  19.190   0.289
55282W        W14378  37.374  33.555   2.672
55283W        W14379  14.116  39.893  14.357
55284W        W14380  30.426   9.793   2.869
55285W        W14381  39.894   0.916  11.495
55286W        W14382  21.662  20.237   2.404
55287W        W14383  11.680  13.316   0.244
55288W        W14384  44.385  33.109   4.321
55289W        W14385  16.318  41.529  14.964
55290W        W14386  23.507  22.179   4.208
55291W        W14387  33.878   9.667   3.811
55292W        W14388  17.063   4.761  11.565
55293W        W14389  19.247  10.654  10.454
55294W        W14390   3.416  19.768  13.336
55295W        W14391  26.606  44.457  14.364
55296W        W14392  42.895  38.969  13.830
55297W        W14393  27.088  14.787  13.537
55298W        W14394  40.870  11.667   9.627
55299W        W14395  10.747  37.557  13.438
55300W        W14396  27.978  27.480  12.915
55301W        W14397  18.292   7.398   5.135
55302W        W14398  39.508  16.639   2.741
55303W        W14399  37.529  14.672  10.519
55304W        W14400  26.652  34.025   5.092
55305W        W14401  14.337  21.021  14.351
55306W        W14402   1.444  25.167   2.247
55307W        W14403  16.626  34.598  11.968
55308W        W14404  43.002  16.071  14.907
55309W        W14405  23.066  16.190   1.819
55310W        W14406   3.888   5.334  14.878
55311W        W14407  43.865  36.082   0.770
55312W        W14408  19.756  31.062  11.486
55313W        W14409  36.094  31.936   4.797
55314W        W14410  37.429  13.636   0.270
55315W        W14411  20.610   4.329  13.055
55316W        W14412  11.827  32.076   0.293
55317W        W14413  13.140  34.537   3.852
55318W        W14414  30.134  23.706   2.744
55319W        W14415  27.998  21.706  13.389
55320W        W14416  34.431  15.104   2.372
55321W        W14417  38.031  29.654  13.457
55322W        W14418   8.660  24.191   4.317
55323W        W14419  12.143   6.409  11.103
55324W        W14420   5.736  32.019   4.705
55325W        W14421  18.706  37.008  10.457
55326W        W14422  20.166  40.856   0.917
55327W        W14423   4.724  10.791   1.842
55328W        W14424  39.410   7.870   4.188
55329W        W14425  22.608   4.826  11.395
55330W        W14426   7.792   1.349  10.436
55331W        W14427  32.601  28.621  13.975
55332W        W14428  39.406  20.741   4.277
55333W        W14429  34.100   3.394  14.834
55334W        W14430  36.854  34.025   3.160
55335W        W14431  22.232  32.568   4.776
55336W        W14432   4.722  34.399   0.284
55337W        W14433  25.615  30.506  13.467
55338W        W14434  17.066  41.786   4.160
55339W        W14435  39.534   3.219  14.479
55340W        W14436  44.363  20.042   2.778
55341W        W14437  43.854  25.676  14.352
55342W        W14438  43.494   7.877  11.878
55343W        W14439   8.825  44.980  14.332
55344W        W14440  36.424  32.923  10.894
55345W        W14441  12.281  34.403  14.347
55346W        W14442   7.180   2.284   0.758
55347W        W14443  40.931  22.018  10.638
55348W        W14444  14.694   4.262  10.520
55349W        W14445  34.406  43.898  14.895
55350W        W14446  44.361  43.434   3.159
55351W        W14447  31.905  22.177   2.357
55352W        W14448  36.850  23.510  10.466
55353W        W14449  25.689  16.731  13.801
55354W        W14450  41.952   2.452   1.381
55355W        W14451  36.370   0.939   4.834
55356W        W14452   8.252  25.118   3.200
55357W        W14453   1.737  29.098  11.910
55358W        W14454   9.198  36.917  12.853
55359W        W14455   4.816   7.317   4.292
55360W        W14456  12.264  22.150  12.029
55361W        W14457  42.498   5.381  12.885
55362W        W14458   3.922   8.744   3.789
55363W        W14459  29.594  17.224   3.262
55364W        W14460   1.446  20.705   0.265
55365W        W14461  39.398  10.205   1.830
55366W        W14462  21.515   5.763   1.708
55367W        W14463  42.811  32.495   3.368
55368W        W14464   2.313  16.605   1.352
55369W        W14465  43.516   9.157   0.856
55370W        W14466  43.869   4.388   4.782
55371W        W14467  39.327  27.643   4.297
55372W        W14468  32.394  19.726   3.189
55373W        W14469  27.114  43.843   1.360
55374W        W14470   9.800  29.043  12.868
55375W        W14471   5.200  37.928   3.711
55376W        W14472   8.257   3.378   4.686
55377W        W14473  41.415   8.847  12.093
55378W        W14474  17.726   8.784   1.272
55379W        W14475   9.669  17.721  13.487
55380W        W14476  36.499  17.209  14.010
55381W        W14477  15.598  22.044   4.835
55382W        W14478   6.697  28.599  11.492
55383W        W14479   1.276  11.240   4.710
55384W        W14480  16.279   3.792   0.319
55385W        W14481  35.452  42.954   3.662
55386W        W14482  11.782  39.372   2.179
55387W        W14483  10.303  15.653  14.872
55388W        W14484  36.532  39.398  10.621
55389W        W14485  10.175  12.688  12.573
55390W        W14486   8.699   0.251   1.932
55391W        W14487  43.311  43.931  12.445
55392W        W14488  28.123  41.352   5.194
55393W        W14489  24.172  32.630   0.731
55394W        W14490  31.550  36.510   4.766
55395W        W14491  32.508  38.979   4.621
55396W        W14492  20.710   7.778  12.958
55397W        W14493  33.065   9.753   4.339
55398W        W14494  31.969  33.546  13.945
55399W        W14495  38.536   0.958  11.380
55400W        W14496  36.857  34.055  14.479
55401W        W14497  36.986  12.740   0.769
55402W        W14498  32.540  10.690  13.422
55403W        W14499   5.359  40.517  12.839
55404W        W14500  16.204  15.720  13.308
55405W        W14501  34.563  34.404   0.368
55406W        W14502  25.633  21.170   2.756
55407W        W14503  15.796   2.909   3.189
55408W        W14504  29.478  39.007  13.806
55409W        W14505   9.791  13.130   3.203
55410W        W14506   0.358  20.062   0.330
55411W        W14507  43.296  39.041   0.321
55412W        W14508   7.756  26.122  13.818
55413W        W14509  39.843   4.357  10.492
55414W        W14510   6.845  20.758   4.620
55415W        W14511  31.987  21.596  10.549
55416W        W14512  44.268  17.698   4.347
55417W        W14513  11.692   9.350  11.553
55418W        W14514  39.411  38.868   3.248
55419W        W14515   2.393  28.543  14.445
55420W        W14516  32.888   0.848   2.672
55421W        W14517   8.209  34.929   2.222
55422W        W14518  21.252   1.885  11.072
55423W        W14519  17.712  15.223   1.831
55424W        W14520  34.923  37.395   1.285
55425W        W14521  12.216  25.697  14.992
55426W        W14522  23.039  15.171  13.905
55427W        W14523  35.986  27.946  11.537
55428W        W14524  22.544  14.710   2.247
55429W        W14525  10.701  42.880   3.280
55430W        W14526   9.175  14.321   0.947
55431W        W14527  14.215  25.554   0.243
55432W        W14528  44.883  40.999  14.011
55433W        W14529  35.463  23.180   0.951
55434W        W14530  43.274  40.480   2.863
55435W        W14531  25.640  38.393   3.849
55436W        W14532  10.188  28.556   0.285
55437W        W14533  38.528  39.548  12.963
55438W        W14534  11.740   9.851  10.546
55439W        W14535  36.562   1.304  12.041
55440W        W14536  26.675   0.884  13.475
55441W        W14537  21.571   0.422   2.219
55442W        W14538  15.318  17.243  10.457
55443W        W14539  37.441  44.940  10.974
55444W        W14540  34.406  41.536   2.824
55445W        W14541  24.189  10.728  11.933
55446W        W14542  13.210  31.437   9.466
55447W        W14543  39.933  41.512  14.851
55448W        W14544  31.460   4.300  10.557
55449W        W14545  15.764  11.779   3.154
55450W        W14546   0.884  34.461   1.343
55451W        W14547  43.771  17.713   0.399
55452W        W14548  40.846  21.206   2.837
55453W        W14549  42.007  42.968   4.720
55454W        W14550   1.930  35.548   1.762
55455W        W14551  35.088  37.519  11.027
55456W        W14552  17.069   4.747   4.646
55457W        W14553  25.112  11.214   9.990
55458W        W14554   5.822  43.347  10.587
55459W        W14555  36.580  32.624   3.149
55460W        W14556   9.805  16.312  13.984
55461W        W14557  38.886  41.332  13.347
55462W        W14558  42.945  33.066  14.282
55463W        W14559  33.497   8.255   4.676
55464W        W14560  35.413  11.279  14.926
55465W        W14561  21.574  40.397  14.899
55466W        W14562  20.742  21.196  11.066
55467W        W14563  20.581  41.802  11.468
55468W        W14564  19.755   4.916  14.889
55469W        W14565  15.099  15.776   1.840
55470W        W14566  31.021  25.032  13.510
55471W        W14567  29.498  35.586   4.668
55472W        W14568  34.467  37.548   4.141
55473W        W14569  44.410  44.941   0.312
55474W        W14570  23.178  16.806  13.323
55475W        W14571  28.497  37.378   2.285
55476W        W14572  35.052  38.981   1.760
55477W        W14573  16.091   9.212  14.760
55478W        W14574   8.306  17.162   4.820
55479W        W14575  27.067  16.293   3.648
55480W        W14576  20.045  34.470  14.485
55481W        W14577  11.690  15.235   2.294
55482W        W14578  31.946  35.892  11.609
55483W        W14579   9.704  24.668   9.628
55484W        W14580   6.374  16.622   2.718
55485W        W14581  27.491  38.979   1.811
55486W        W14582  13.656   6.776  11.069
55487W        W14583  30.422  38.838   1.422
55488W        W14584  16.743  42.401   4.208
55489W        W14585  34.876  12.332   0.369
55490W        W14586  11.705  12.649   4.636
55491W        W14587  35.999  19.145   3.674
55492W        W14588  44.298  17.657  11.413
55493W        W14589  23.034   8.394  11.432
55494W        W14590  32.588  32.563   2.283
55495W        W14591  20.682  37.035  12.059
55496W        W14592  23.116   5.259   1.228
55497W        W14593  12.248  33.518   2.737
55498W        W14594  14.628  11.666  12.978
55499W        W14595   2.959   1.802  13.493
55500W        W14596   7.843   5.884   4.728
55501W        W14597  43.398   7.773  10.569
55502W        W14598  25.141   5.326   0.846
55503W        W14599  44.767  22.520  14.907
55504W        W14600  22.615   2.366  11.389
55505W        W14601  41.887   0.411   2.382
55506W        W14602  19.117  34.505  12.031
55507W        W14603  22.612   9.263  13.972
55508W        W14604  11.303   8.795   4.159
55509W        W14605  44.431  34.911   2.721
55510W        W14606  37.487  33.490  11.460
55511W        W14607  22.048  37.453   1.762
55512W        W14608  22.236  41.474  14.435
55513W        W14609   4.829  17.179   4.621
55514W        W14610  28.564   4.931  11.949
55515W        W14611  11.337  35.106  10.987
55516W        W14612  31.636  31.925  14.976
55517W        W14613   6.238  30.934   0.392
55518W        W14614  16.162   4.845   3.716
55519W        W14615  38.028  22.042  12.013
55520W        W14616  13.755  13.641   1.767
55521W        W14617   7.710  34.896   4.237
55522W        W14618   8.756  25.183  11.377
55523W        W14619   2.764  15.114  12.953
55524W        W14620  22.140  17.196   3.183
55525W        W14621  12.282   9.203  12.873
55526W        W14622  17.685  13.285  11.976
55527W        W14623  29.428  24.050   4.657
55528W        W14624  14.760   1.901   2.661
55529W        W14625  27.641  32.576  12.835
55530W        W14626  26.069  33.024  13.935
55531W        W14627   6.300   2.741   2.194
55532W        W14628  24.480  26.541   4.300
55533W        W14629  23.583  42.493   0.834
55534W        W14630  11.242   1.399  13.483
55535W        W14631  24.520   0.374  13.349
55536W        W14632  44.814  19.251   0.257
55537W        W14633  35.933  17.102   2.715
55538W        W14634  42.447  38.859  14.416
55539W        W14635  32.102  15.173   1.712
55540W        W14636  44.311  10.160   4.635
55541W        W14637  43.489  29.036  12.997
55542W        W14638  23.626  20.732   3.802
55543W        W14639  40.898  22.062   0.738
55544W        W14640  25.059  26.578  13.525
55545W        W14641  10.654  40.043  13.791
55546W        W14642  42.844   7.345  11.601
55547W        W14643   0.277   6.365   2.187
55548W        W14644  44.004  39.004   3.164
55549W        W14645  40.427  29.519  11.044
55550W        W14646  44.315  14.770   3.747
55551W        W14647   4.439  37.579   5.162
55552W        W14648  41.809  37.070   3.667
55553W        W14649   7.853  34.452  12.000
55554W        W14650  34.398  28.495   4.601
55555W        W14651  32.621  30.987   0.957
55556W        W14652  37.956  17.783  10.619
55557W        W14653   4.419  33.898   0.935
55558W        W14654  12.785  23.498   1.433
55559W        W14655   2.233  18.213  11.372
55560W        W14656  20.755  37.542   4.635
55561W        W14657  12.645  33.394  14.902
55562W        W14658   3.735  41.020   0.874
55563W        W14659  36.036  36.369   3.735
55564W        W14660  26.169  41.339   4.716
55565W        W14661  16.761   6.207  10.436
55566W        W14662  26.157  40.018  11.936
55567W        W14663  31.548  26.466  14.805
55568W        W14664  24.107  44.001   0.351
55569W        W14665  11.823   8.401  14.330
55570W        W14666  22.529  37.532   1.271
55571W        W14667  14.607  18.673  13.027
55572W        W14668   9.285  22.721   4.602
55573W        W14669  20.090  26.532  11.910
55574W        W14670  18.659  22.512   9.939
55575W        W14671  34.964   9.784  11.116
55576W        W14672  24.640   4.287  11.593
55577W        W14673   2.385  41.821   0.821
55578W        W14674  34.442  34.061   2.830
55579W        W14675  42.002  28.646  12.897
55580W        W14676  30.115  40.854   4.224
55581W        W14677  16.657   4.233   4.778
55582W        W14678  36.407  27.143  10.519
55583W        W14679  36.971  18.767  11.060
55584W        W14680  32.106   6.264  14.296
55585W        W14681   4.331  15.166   4.720
55586W        W14682  19.180   6.759   1.895
55587W        W14683  37.076  11.834   3.205
55588W        W14684   6.330  24.040   1.731
55589W        W14685  10.764  31.489  14.888
55590W        W14686  18.296  25.085  10.455
55591W        W14687  16.278  19.162   4.700
55592W        W14688   6.394  32.988   0.385
55593W        W14689  20.545   0.894  14.297
55594W        W14690  24.576  18.605   5.321
55595W        W14691   4.867   7.708  10.989
55596W        W14692   0.266  33.607   3.702
55597W        W14693  14.220  21.067   2.759
55598W        W14694  27.990  32.049   2.321
55599W        W14695  10.206   7.734  12.502
55600W        W14696  21.156  28.119   2.232
55601W        W14697  11.779  30.123   1.429
55602W        W14698  25.559  25.545   4.670
55603W        W14699  39.316  43.371  12.964
55604W        W14700  41.514  17.217   2.724
55605W        W14701   4.361  21.646  12.566
55606W        W14702   8.267  35.877  13.939
55607W        W14703  18.077  10.843  13.952
55608W        W14704  36.983   9.288  11.966
55609W        W14705  43.396  21.235   4.116
55610W        W14706  19.083  42.959   0.967
55611W        W14707  36.992  39.930  14.313
55612W        W14708   9.652  22.616  11.071
55613W        W14709  27.583   2.724  13.492
55614W        W14710  42.978  29.012   3.184
55615W        W14711   0.775  42.846  10.514
55616W        W14712   1.770  15.288  11.981
55617W        W14713  10.637   8.326  12.379
55618W        W14714   0.818  20.626   2.203
55619W        W14715  17.567  17.163  10.642
55620W        W14716  25.706   8.300   3.801
55621W        W14717  18.290  20.684   1.894
55622W        W14718  29.658   0.843  13.422
55623W        W14719  13.726  39.517   2.750
55624W        W14720   5.320  23.182  11.574
55625W        W14721  32.125  23.171  11.533
55626W        W14722  24.534  29.532  12.442
55627W        W14723   9.157  15.306   4.678
55628W        W14724  23.202   9.861   5.248
55629W        W14725   8.801  15.738   4.678
55630W        W14726  42.305  27.654   2.897
55631W        W14727  26.030  24.075  13.830
55632W        W14728  31.977  43.919   1.423
55633W        W14729  16.777  16.579   0.357
55634W        W14730   4.934  40.946   3.248
55635W        W14731   3.318  27.466  14.385
55636W        W14732   8.856  25.973   2.681
55637W        W14733  37.399  24.621   0.827
55638W        W14734  31.024  18.228   1.859
55639W        W14735  28.666   7.696   0.405
55640W        W14736  15.588  24.673   4.615
55641W        W14737  40.829   8.268   0.943
55642W        W14738   8.345   8.333  11.935
55643W        W14739  13.285  19.573   0.285
55644W        W14740   5.263  12.685  10.975
55645W        W14741  15.601  12.836  12.369
55646W        W14742  44.330   5.797  11.064
55647W        W14743  12.642  17.290   0.302
55648W        W14744  29.132  15.778  11.960
55649W        W14745  20.593  30.914   0.809
55650W        W14746  36.433  24.182   9.982
55651W        W14747   2.769  18.144   3.654
55652W        W14748   6.325  11.689   5.131
55653W        W14749  34.550  22.544   2.666
55654W        W14750  30.464  31.066   0.824
55655W        W14751  17.246  19.191  10.637
55656W        W14752  10.658   7.714  13.020
55657W        W14753  43.985  12.119   2.686
55658W        W14754   9.273  16.199  13.842
55659W        W14755  39.962  31.090   1.348
55660W        W14756  13.312  10.170   4.683
55661W        W14757  14.601  32.529   3.355
55662W        W14758   7.815  11.863  13.905
55663W        W14759   5.927   5.812  12.544
55664W        W14760  35.512   4.366  13.323
55665W        W14761  36.537  37.373  11.057
55666W        W14762  30.531  17.741   4.601
55667W        W14763  13.175  31.956  13.877
55668W        W14764  39.538  10.814   3.693
55669W        W14765  21.757  10.139  11.898
55670W        W14766  38.900  34.045   4.165
55671W        W14767   3.246  37.961  12.872
55672W        W14768   4.443  27.605   3.311
55673W        W14769  44.476   4.932  13.353
55674W        W14770  30.154  17.227  14.924
55675W        W14771  35.998  10.382   2.185
55676W        W14772   8.691  28.955  12.425
55677W        W14773  27.508  38.527  14.501
55678W        W14774   7.174  33.025  14.504
55679W        W14775  41.484  31.442   2.352
55680W        W14776  41.938  23.068  14.971
55681W        W14777  29.009  22.093   1.923
55682W        W14778   6.413  36.351   1.269
55683W        W14779  15.731  11.276   1.344
55684W        W14780  22.140  44.477   2.330
55685W        W14781  34.912   4.735  11.018
55686W        W14782  30.914  26.979  12.835
55687W        W14783  34.957   2.422  13.900
55688W        W14784  23.634  31.016   1.441
55689W        W14785  36.376  26.697   2.781
55690W        W14786  32.914  25.991   4.180
55691W        W14787   1.390  35.093   4.797
55692W        W14788  37.514  21.038   5.269
55693W        W14789  38.883  18.244   5.302
55694W        W14790  41.340  33.985   4.252
55695W        W14791   5.830  26.596   3.372
55696W        W14792  37.543  25.028   4.232
55697W        W14793   0.365   6.701  10.904
55698W        W14794   5.877  20.105   1.812
55699W        W14795  31.570  44.372   3.145
55700W        W14796  42.461   2.792   0.391
55701W        W14797  37.028   8.726  10.941
55702W        W14798  36.960  15.753   0.440
55703W        W14799  17.779   7.346  10.527
55704W        W14800  31.004  12.326   0.377
55705W        W14801  24.117  22.095  12.461
55706W        W14802   4.395  30.973  11.569
55707W        W14803  16.078  19.689  11.501
55708W        W14804   3.712  35.445   1.747
55709W        W14805  17.635   9.227  11.984
55710W        W14806  17.170  22.634  14.011
55711W        W14807  22.246   5.834   0.895
55712W        W14808  36.049  13.837  10.094
55713W        W14809   3.243   0.890  11.426
55714W        W14810  12.620  15.189   2.705
55715W        W14811  28.534  39.044   0.262
55716W        W14812   7.192  14.104   0.304
55717W        W14813  42.443  20.634  12.873
55718W        W14814  15.579   4.741   3.274
55719W        W14815  29.002  13.707   0.806
55720W        W14816  42.857  31.568   1.846
55721W        W14817   6.249   6.794  14.971
55722W        W14818  13.651  37.087  11.486
55723W        W14819  13.694  16.218  13.991
55724W        W14820   9.735   0.779   2.248
55725W        W14821  41.811  12.265  14.435
55726W        W14822   7.722   8.314   1.426
55727W        W14823  28.639  18.586  13.908
55728W        W14824  11.790   0.314  14.299
55729W        W14825  27.189   2.889   1.241
55730W        W14826  39.993  35.997  14.508
55731W        W14827  40.993  19.191  11.977
55732W        W14828   2.815  27.446  14.922
55733W        W14829  37.453  21.100  13.886
55734W        W14830  38.399  25.640  10.968
55735W        W14831  33.902  28.550   3.709
55736W        W14832   4.838  16.302  14.950
55737W        W14833  28.173  20.142  12.474
55738W        W14834  33.964  13.125  14.958
55739W        W14835  40.907   8.253   0.467
55740W        W14836  43.014  30.161  13.330
55741W        W14837  38.033  28.173  14.984
55742W        W14838  41.798  22.590  14.918
55743W        W14839  44.424   9.165   2.753
55744W        W14840  43.320   4.769  12.995
55745W        W14841  14.146   3.720  14.383
55746W        W14842  43.998  33.613   4.601
55747W        W14843  42.430  25.498   0.287
55748W        W14844  10.769   3.725   2.333
55749W        W14845  31.980  28.537   5.283
55750W        W14846  44.931  22.573   1.702
55751W        W14847  12.621  31.434   3.674
55752W        W14848  15.592  24.078   0.896
55753W        W14849  44.902  22.123  12.080
55754W        W14850   9.722  31.624  14.989
55755W        W14851  21.132  20.114  11.384
55756W        W14852  26.467   7.716  11.926
55757W        W14853  15.243  43.427   1.233
55758W        W14854   4.402   7.218  10.909
55759W        W14855  41.996  32.606  11.966
55760W        W14856   3.269  36.529   3.648
55761W        W14857  35.108   8.403   3.736
55762W        W14858  34.964  39.451  10.994
55763W        W14859  29.566  27.513  13.483
55764W        W14860   9.241  28.115  13.465
55765W        W14861  40.307  27.943   1.845
55766W        W14862  14.296  15.254  13.424
55767W        W14863  21.142  29.440  10.519
55768W        W14864  35.950   2.812  13.433
55769W        W14865  19.044  16.661   2.282
55770W        W14866  19.141   6.351  10.472
55771W        W14867   1.311  36.979  13.370
55772W        W14868  34.878  35.473   0.347
55773W        W14869  31.018  10.679  10.617
55774W        W14870   2.734   7.235   2.667
55775W        W14871   8.705  39.429   0.437
55776W        W14872  24.618  24.570   1.233
55777W        W14873   1.323  19.178  12.438
55778W        W14874  19.209  25.708  11.951
55779W        W14875  39.337  32.946  13.475
55780W        W14876  11.851   2.382   1.255
55781W        W14877  20.603  20.540   4.695
55782W        W14878  39.926  36.021   1.357
55783W        W14879  39.383   8.178   3.176
55784W        W14880  35.366  30.457  12.393
55785W        W14881  34.104  27.967   4.137
55786W        W14882  38.416   0.949   0.876
55787W        W14883  26.613   0.944  12.535
55788W        W14884   8.311  36.996   2.858
55789W        W14885  24.603  29.476  13.968
55790W        W14886  31.491  38.002   0.907
55791W        W14887  18.074  11.291   1.696
55792W        W14888  15.686  17.204   2.662
55793W        W14889   3.309  15.322   1.290
55794W        W14890  31.447  31.094   0.261
55795W        W14891  44.303  27.637  11.498
55796W        W14892   0.974  21.716  12.580
55797W        W14893  38.462  14.617  10.115
55798W        W14894  20.570  37.063   0.316
55799W        W14895   6.294  25.653  14.311
55800W        W14896   5.809  37.437  13.051
55801W        W14897  34.037  37.505  14.903
55802W        W14898   9.236  30.028  10.599
55803W        W14899  23.646  29.150   0.410
55804W        W14900  24.501  35.440   5.684
55805W        W14901   3.313  14.121  10.623
55806W        W14902   3.920  14.806   2.354
55807W        W14903  14.181  13.844   3.772
55808W        W14904  24.112  11.669   9.923
55809W        W14905  12.667  20.255  10.586
55810W        W14906  44.471  28.156   4.187
55811W        W14907  38.443  40.490  12.433
55812W        W14908  14.316  22.155  14.352
55813W        W14909  16.750  39.020   3.186
55814W        W14910  32.087  11.825   3.366
55815W        W14911  18.592   5.848   0.914
55816W        W14912  31.013  30.045  10.446
55817W        W14913  16.700  12.193  12.826
55818W        W14914  34.041  26.567   0.952
55819W        W14915  30.653  16.578   3.726
55820W        W14916  16.293  15.763   2.701
55821W        W14917  35.501  16.163  13.060
55822W        W14918  22.249  23.223   0.435
55823W        W14919  33.497   2.843  13.504
55824W        W14920  18.717  27.169   0.769
55825W        W14921  44.893  43.772   3.148
55826W        W14922  21.706   4.861   4.717
55827W        W14923  40.442  10.146  12.351
55828W        W14924  24.625  30.536   4.810
55829W        W14925  36.975  15.225   4.315
55830W        W14926   2.416  33.393   2.797
55831W        W14927  42.998  21.592  10.957
55832W        W14928   5.691  36.058  10.578
55833W        W14929   4.219  31.571  14.500
55834W        W14930  34.609  34.504  12.358
55835W        W14931  16.140  10.747  11.055
55836W        W14932  11.773  42.808   4.674
55837W        W14933  27.689  28.952  13.949
55838W        W14934  23.546  31.639  14.430
55839W        W14935   3.873  41.307   4.676
55840W        W14936  26.591  40.517  11.066
55841W        W14937  37.940  33.526  10.898
55842W        W14938  26.484   7.198  10.527
55843W        W14939  11.258  18.278  10.961
55844W        W14940  36.581  13.790  12.937
55845W        W14941  44.288  10.717  11.116
55846W        W14942  44.987   6.244  13.952
55847W        W14943  23.007   2.332   0.769
55848W        W14944  25.670  16.718   3.841
55849W        W14945  31.933   9.372   2.298
55850W        W14946  42.891  44.974   1.708
55851W        W14947  38.033  27.195   0.875
55852W        W14948  42.029  36.516   3.858
55853W        W14949  31.151  36.365  13.411
55854W        W14950  39.364   0.888   1.776
55855W        W14951   2.743  22.654  12.576
55856W        W14952  26.172  18.115   0.286
55857W        W14953  23.180  13.794   4.191
55858W        W14954   4.331  13.698  10.982
55859W        W14955  39.995   6.196   2.275
55860W        W14956   8.836  23.601   4.747
55861W        W14957   5.788   0.849   0.453
55862W        W14958  40.835  27.173  13.810
55863W        W14959  10.206  44.287  13.525
55864W        W14960  35.410  12.188  11.508
55865W        W14961   3.723  36.934   2.243
55866W        W14962  18.638  23.563  14.960
55867W        W14963   0.493  36.053  14.287
55868W        W14964  17.719  28.650  11.918
55869W        W14965  17.672  10.361  10.928
55870W        W14966  32.614  36.517  12.418
55871W        W14967   4.834  30.417   0.397
55872W        W14968   2.311  42.312  13.951
55873W        W14969   3.776  44.338  11.959
55874W        W14970  43.912  43.010   1.740
55875W        W14971  31.483  19.656   1.406
55876W        W14972   0.447   9.235   1.820
55877W        W14973  14.789  25.530   1.313
55878W        W14974  27.465  43.963   2.342
55879W        W14975  18.051   7.380  12.511
55880W        W14976   9.738  37.389  11.958
55881W        W14977   7.361  12.313  13.327
55882W        W14978  33.600  33.024  12.908
55883W        W14979  35.526   1.251   1.369
55884W        W14980  31.128  18.187   2.716
55885W        W14981  38.344  15.275   1.831
55886W        W14982  33.911  43.852  12.853
55887W        W14983  11.805   8.776   4.227
55888W        W14984  32.930  11.245   4.165
55889W        W14985  15.765  23.675   0.893
55890W        W14986  39.416  11.797  14.321
55891W        W14987  33.118  43.879  13.532
55892W        W14988  36.937  26.962  12.485
55893W        W14989  19.656  35.043  14.939
55894W        W14990  22.686  21.211  10.466
55895W        W14991   3.407  36.012   3.164
55896W        W14992   1.402   2.267   3.854
55897W        W14993  16.576  15.304   0.419
55898W        W14994  24.207   8.406  13.519
55899W        W14995   9.220  19.080   0.431
55900W        W14996  36.427  19.256  13.468
55901W        W14997  13.284  37.365   4.165
55902W        W14998   1.260  36.008   3.737
55903W        W14999  36.963  26.604   1.800
55904W        W15000  26.122  16.663  12.489
55905W        W15001   6.275  17.666  12.875
55906W        W15002  38.954  40.310  11.592
55907W        W15003  19.568  10.256  12.484
55908W        W15004  41.886  39.341  13.945
55909W        W15005  16.274  12.779   2.292
55910W        W15006  43.406   9.166  12.850
55911W        W15007   0.934   5.408  13.849
55912W        W15008  12.810   8.344  11.558
55913W        W15009  44.325  27.668   4.771
55914W        W15010  33.125  34.987  12.912
55915W        W15011  14.744  14.722  13.890
55916W        W15012  28.615  26.980  11.118
55917W        W15013  33.469   2.457  10.543
55918W        W15014  21.043  20.235   0.272
55919W        W15015  31.602   0.905  10.998
55920W        W15016  20.086  12.685   2.753
55921W        W15017   5.785   2.283  13.981
55922W        W15018  43.891  36.424   3.157
55923W        W15019  39.467   0.487  13.965
55924W        W15020  25.021  39.008  12.422
55925W        W15021  15.714  17.571  12.580
55926W        W15022  27.971  33.417   3.846
55927W        W15023  35.037  27.174  14.764
55928W        W15024  13.807  37.955   3.676
55929W        W15025  25.565  35.102   0.358
55930W        W15026   0.898  32.516   0.283
55931W        W15027  22.195  10.263   3.170
55932W        W15028   2.819  40.469   1.276
55933W        W15029  20.639  44.269  14.422
55934W        W15030  33.511  13.754   3.856
55935W        W15031  31.091   9.174   1.928
55936W        W15032  18.616  23.493  11.944
55937W        W15033  25.000  13.253  14.913
55938W        W15034  43.349  34.901  13.012
55939W        W15035  31.030  14.669   1.804
55940W        W15036  41.301  36.026  11.410
55941W        W15037  10.663  35.997   1.251
55942W        W15038   0.312   6.782  13.410
55943W        W15039  17.293  13.170  13.897
55944W        W15040  32.538  18.082  12.358
55945W        W15041  31.439  39.990   3.721
55946W        W15042  42.330  34.879   2.696
55947W        W15043  44.373   8.795   4.195
55948W        W15044  29.045  37.945   1.914
55949W        W15045  20.565  27.959  14.922
55950W        W15046  43.428  36.379   3.221
55951W        W15047  33.468  23.148  12.086
55952W        W15048  39.925  38.434   3.760
55953W        W15049  24.988  32.525  12.089
55954W        W15050  26.513  20.073  11.891
55955W        W15051  12.253  31.600   4.652
55956W        W15052  36.011  23.639  13.954
55957W        W15053   4.734  10.837   2.354
55958W        W15054   2.748  24.681  10.979
55959W        W15055  29.031  33.906  11.084
55960W        W15056  41.471  37.045   1.277
55961W        W15057  30.996  31.491  13.854
55962W        W15058  10.286  30.559  13.802
55963W        W15059   2.387  32.439  11.100
55964W        W15060  18.584  22.622   2.224
55965W        W15061   2.399  19.543  10.897
55966W        W15062  17.759  44.823   4.642
55967W        W15063   4.237  41.008   4.288
55968W        W15064  39.808  15.641  11.518
55969W        W15065  38.539  37.444  10.510
55970W        W15066  43.321   3.341  14.889
55971W        W15067  23.124   7.718  14.377
55972W        W15068  23.149  41.418  10.952
55973W        W15069   0.805  18.671   0.842
55974W        W15070  36.911  38.558   4.837
55975W        W15071   9.318  37.430   3.212
55976W        W15072   0.975  42.880   2.317
55977W        W15073   3.434  12.729  12.960
55978W        W15074   5.930  36.423   1.828
55979W        W15075  28.602  32.057   0.459
55980W        W15076  12.183  32.075   0.391
55981W        W15077  31.937   1.765  10.420
55982W        W15078  25.588  25.546   3.259
55983W        W15079   9.239  41.380  14.280
55984W        W15080  34.011  28.001  14.781
55985W        W15081  22.177  19.777  14.973
55986W        W15082  41.404   1.375   2.207
55987W        W15083  21.117  15.784   3.215
55988W        W15084   4.862   6.768   4.739
55989W        W15085  15.222  35.594   1.855
55990W        W15086  12.256   3.287   3.255
55991W        W15087  44.409  27.986   5.284
55992W        W15088   1.384  21.625  11.970
55993W        W15089  19.176  32.420   4.681
55994W        W15090  30.929  44.315  13.469
55995W        W15091  17.631  43.841   3.381
55996W        W15092  31.017  18.774   1.307
55997W        W15093  25.685  21.145  11.438
55998W        W15094   0.833   4.261  13.881
55999W        W15095  25.697  23.234   3.376
56000W        W15096   2.835  33.595  12.966
56001W        W15097  17.124   7.826   0.892
56002W        W15098  15.232  26.673  13.320
56003W        W15099  18.677   9.221   0.265
56004W        W15100  42.803  28.042  13.798
56005W        W15101  44.496  21.748   1.424
56006W        W15102  35.533  26.578  13.820
56007W        W15103   9.203  18.231   4.260
56008W        W15104  23.050  26.663  10.962
56009W        W15105   6.782  44.308  14.494
56010W        W15106  12.723  19.233  13.949
56011W        W15107   8.800  35.042  11.588
56012W        W15108  31.937  24.620  14.910
56013W        W15109  11.139  35.932   4.353
56014W        W15110  21.235   6.702   4.203
56015W        W15111  13.722  43.856   4.266
56016W        W15112   6.688  10.650   1.299
56017W        W15113   3.237  32.597   2.864
56018W        W15114  11.163   4.259  12.016
56019W        W15115  36.978  33.579   1.744
56020W        W15116  22.573   6.217  12.374
56021W        W15117  42.452  42.401  13.428
56022W        W15118  18.556  12.815  14.471
56023W        W15119  28.139  18.113  11.415
56024W        W15120  36.858  18.095  11.479
56025W        W15121  43.358  34.963  13.795
56026W        W15122  25.659  41.405   1.236
56027W        W15123  39.000  29.978  14.502
56028W        W15124  26.174  17.260   1.222
56029W        W15125  42.429  38.532   3.698
56030W        W15126  31.028  44.809  11.943
56031W        W15127   9.270  13.633  11.925
56032W        W15128   0.976  25.478  13.013
56033W        W15129  14.142  10.862  11.602
56034W        W15130  29.472  13.276   3.632
56035W        W15131  17.209  19.726   1.879
56036W        W15132   2.228  12.223  12.377
56037W        W15133  35.586  22.076  11.406
56038W        W15134  39.352  29.624  10.115
56039W        W15135  16.230   7.846  11.941
56040W        W15136   4.832  18.282  11.883
56041W        W15137  24.204  34.409   2.662
56042W        W15138  36.929  23.528  13.470
56043W        W15139  16.219   2.442  12.075
56044W        W15140  26.113  32.509   2.207
56045W        W15141  12.220  22.043  14.340
56046W        W15142  33.533  21.579   5.152
56047W        W15143  11.327  22.117   1.905
56048W        W15144  43.019   1.962  13.417
56049W        W15145   4.301  33.613  13.481
56050W        W15146   6.320   8.167   9.955
56051W        W15147  22.185   2.775   0.352
56052W        W15148  20.181  44.796   1.358
56053W        W15149  23.022  20.544   1.272
56054W        W15150  19.756  34.879   3.741
56055W        W15151  20.193  30.639  11.025
56056W        W15152  37.388  38.001   5.248
56057W        W15153  31.639  23.087  10.426
56058W        W15154  36.844  17.708   0.271
56059W        W15155   3.914   5.289  11.431
56060W        W15156  24.633  42.443  11.445
56061W        W15157  34.925   1.360   2.343
56062W        W15158   1.744  15.642   1.448
56063W        W15159  43.791  16.706   1.845
56064W        W15160  22.996  34.923   4.747
56065W        W15161  22.615  29.031   0.286
56066W        W15162  37.083  32.131  10.427
56067W        W15163  43.939   9.887  13.544
56068W        W15164  31.122  34.505   0.313
56069W        W15165   8.896  16.611   1.229
56070W        W15166   2.305   8.189  14.329
56071W        W15167   3.847  27.691  12.968
56072W        W15168  36.958  29.501   3.677
56073W        W15169   4.399  31.563  13.815
56074W        W15170  19.065   4.925  14.974
56075W        W15171  43.864  20.729   2.888
56076W        W15172  11.172  43.484   3.219
56077W        W15173  32.114  21.055  14.772
56078W        W15174   9.357  36.532  11.377
56079W        W15175   3.413  21.736  12.063
56080W        W15176  30.426  38.971  14.345
56081W        W15177  44.971   6.693  12.076
56082W        W15178  12.744   1.906   3.700
56083W        W15179  42.838  22.657   1.745
56084W        W15180  15.693   7.289  11.121
56085W        W15181  37.427  16.697   0.812
56086W        W15182   1.270   8.267  12.382
56087W        W15183  31.632  14.661  13.023
56088W        W15184   2.430   1.352  14.350
56089W        W15185  27.666  18.124  12.885
56090W        W15186  13.788  26.140   4.282
56091W        W15187  10.212  11.846   1.910
56092W        W15188  38.012  22.510  14.455
56093W        W15189  24.504  24.532   2.250
56094W        W15190   8.749  43.818   3.778
56095W        W15191  20.673  14.246  13.374
56096W        W15192  41.027  39.856  10.451
56097W        W15193  40.802  28.511   4.615
56098W        W15194  35.506   6.800  13.821
56099W        W15195  29.572  22.667  11.977
56100W        W15196  15.801  12.727  14.973
56101W        W15197  11.631  29.072   1.217
56102W        W15198  11.845  31.102  14.381
56103W        W15199   6.264   7.175  10.607
56104W        W15200  18.257  37.429  13.924
56105W        W15201   5.216  21.686   0.307
56106W        W15202  20.713  21.031   4.828
56107W        W15203  26.568   1.909   0.924
56108W        W15204  26.511  12.770  12.065
56109W        W15205  17.741  16.316   2.800
56110W        W15206   9.653  38.003  10.539
56111W        W15207  27.144   2.230  12.964
56112W        W15208   4.755   0.916  11.559
56113W        W15209  29.085  29.645   3.808
56114W        W15210  36.592  16.647   2.838
56115W        W15211   6.387  30.924  10.945
56116W        W15212  35.029  26.017   3.678
56117W        W15213  41.450   9.712  14.759
56118W        W15214  44.488   8.291  12.896
56119W        W15215  21.106  11.280   4.316
56120W        W15216  29.587   4.258  11.972
56121W        W15217  29.474   1.417  13.925
56122W        W15218  40.906  14.321  11.082
56123W        W15219  17.611  41.029   0.868
56124W        W15220   3.366  40.508   0.818
56125W        W15221   8.661  15.229   0.784
56126W        W15222  17.216   6.698   1.762
56127W        W15223   3.780  33.397  12.352
56128W        W15224  41.329   7.851   4.776
56129W        W15225  38.826  34.091  13.856
56130W        W15226   5.325  20.719   0.787
56131W        W15227   7.736  27.160   3.165
56132W        W15228  20.039  32.498   0.872
56133W        W15229  19.769   0.974  10.893
56134W        W15230  35.986  41.800  13.798
56135W        W15231  27.620  20.598  13.041
56136W        W15232  24.137   9.224   3.176
56137W        W15233  43.823  27.051   1.735
56138W        W15234   9.164  36.068   3.212
56139W        W15235   1.314   8.850  12.890
56140W        W15236  28.527  20.535  12.377
56141W        W15237  16.626  11.195   4.222
56142W        W15238  29.006   5.717  14.440
56143W        W15239  25.530  33.954   0.792
56144W        W15240   9.792  17.743   0.368
56145W        W15241   5.314  43.299  11.011
56146W        W15242  24.639   4.796  14.024
56147W        W15243  29.596  25.607  14.933
56148W        W15244  26.025   9.288  13.526
56149W        W15245  25.487  42.780  14.407
56150W        W15246  40.934  20.105   0.941
56151W        W15247  31.440   9.761   1.289
56152W        W15248  39.038  22.652  10.919
56153W        W15249  42.501   9.206   4.285
56154W        W15250   2.843  13.309  14.807
56155W        W15251  19.128  24.168  12.071
56156W        W15252  39.041  19.062  11.385
56157W        W15253  23.178  34.471   5.713
56158W        W15254   9.324  13.801  10.596
56159W        W15255  43.876  39.335  13.927
56160W        W15256  32.462  15.601   1.922
56161W        W15257  24.155   9.293  14.304
56162W        W15258  13.628   7.349  12.545
56163W        W15259  40.421  44.430   9.958
56164W        W15260   1.350  39.453   3.295
56165W        W15261  31.917  14.252   0.250
56166W        W15262  44.800  15.761   4.767
56167W        W15263  37.880  28.985   2.691
56168W        W15264   4.301   2.321   0.765
56169W        W15265  17.219  34.444  10.986
56170W        W15266  22.208  43.486   2.410
56171W        W15267  13.713  23.553   1.905
56172W        W15268  39.053  41.810   3.149
56173W        W15269  25.101  22.642   1.372
56174W        W15270  38.947  13.599   2.709
56175W        W15271   0.419  41.860   2.762
56176W        W15272   5.720  32.534  14.446
56177W        W15273  37.850  26.061  11.576
56178W        W15274  38.351  34.899   4.737
56179W        W15275  36.503  15.261  11.412
56180W        W15276   8.359  31.478  10.598
56181W        W15277  17.176  21.185   0.387
56182W        W15278  13.210  43.022  13.934
56183W        W15279  29.439  23.510  13.004
56184W        W15280  27.020   5.755   4.168
56185W        W15281  43.990   3.837   2.267
56186W        W15282  17.691  34.933  11.976
56187W        W15283  28.560  16.312   0.840
56188W        W15284  44.263   4.910   2.834
56189W        W15285  23.230  11.248   3.736
56190W        W15286  38.393  43.017  13.952
56191W        W15287  32.091  15.115  13.542
56192W        W15288  34.560  40.334   4.124
56193W        W15289  34.912   3.399   3.254
56194W        W15290  35.539  25.055  12.950
56195W        W15291  28.614  12.145   3.193
56196W        W15292   0.464   8.395  12.016
56197W        W15293  30.982   7.892   0.828
56198W        W15294   3.329   8.677  13.489
56199W        W15295   8.180  21.753   4.194
56200W        W15296  12.258  24.151  13.346
56201W        W15297   5.779  19.719  14.467
56202W        W15298  27.533  17.065  12.049
56203W        W15299  42.336  40.000   0.323
56204W        W15300   6.300  28.573  10.917
56205W        W15301  44.436  23.003   2.309
56206W        W15302  44.431  14.127  12.516
56207W        W15303   3.271  31.954  10.891
56208W        W15304  43.884  25.554  12.086
56209W        W15305   5.333  27.522   1.901
56210W        W15306  25.685  12.122  11.516
56211W        W15307  39.814   1.953  13.830
56212W        W15308  24.974  27.564   2.892
56213W        W15309  44.308  26.485  13.418
56214W        W15310  36.555   2.467  12.430
56215W        W15311  11.231  21.052   0.829
56216W        W15312  29.127  30.976  12.404
56217W        W15313  17.209  38.874  11.100
56218W        W15314  13.230   0.807   2.863
56219W        W15315  44.878  20.112  12.377
56220W        W15316  29.657  39.863   3.849
56221W        W15317  18.090   3.886   2.304
56222W        W15318  17.233  41.812   5.299
56223W        W15319  44.375  27.113  14.457
56224W        W15320  15.677  41.908  14.332
56225W        W15321  13.809   1.932   3.262
56226W        W15322   3.793  36.526   2.341
56227W        W15323  22.739  36.053   4.240
56228W        W15324  16.161  41.852   4.769
56229W        W15325  21.024  25.590  11.476
56230W        W15326   7.890  15.696   1.782
56231W        W15327  25.572  16.234   4.699
56232W        W15328  40.950  17.284   4.347
56233W        W15329  44.316  32.068  10.640
56234W        W15330  11.242  25.162  13.053
56235W        W15331  31.476  36.929   4.269
56236W        W15332  13.677   7.728   0.365
56237W        W15333  40.024  40.444  11.066
56238W        W15334  17.078  23.507  12.086
56239W        W15335  11.221  17.751  12.352
56240W        W15336  22.651  32.462  14.944
56241W        W15337   1.321  10.763  12.511
56242W        W15338  20.148  39.817   0.437
56243W        W15339  26.498  26.652   4.706
56244W        W15340  11.188   5.888  13.016
56245W        W15341   5.770  11.261  11.939
56246W        W15342   1.818  24.074  10.412
56247W        W15343  13.796  40.052   3.733
56248W        W15344  10.678  42.810  11.916
56249W        W15345  37.470  16.738  13.824
56250W        W15346  27.043  35.911  12.447
56251W        W15347  12.831  10.247   2.252
56252W        W15348  21.732  32.923   4.606
56253W        W15349  24.081  31.976  10.035
56254W        W15350  18.632   5.276  13.931
56255W        W15351  28.000  21.523   4.772
56256W        W15352  41.906  41.961   2.827
56257W        W15353   0.876  30.415  12.922
56258W        W15354  16.201  28.065  10.437
56259W        W15355   3.260  22.133   1.311
56260W        W15356  37.885  43.987  13.952
56261W        W15357  43.485  22.700  13.528
56262W        W15358  28.095  39.381  10.032
56263W        W15359  15.778  17.164  13.419
56264W        W15360  37.513  44.753  12.994
56265W        W15361  44.461  30.641  13.875
56266W        W15362  32.969  24.568   3.802
56267W        W15363  28.113  30.013  14.498
56268W        W15364   5.851   7.892   1.707
56269W        W15365  12.814   4.730  11.104
56270W        W15366  33.058   6.908   0.788
56271W        W15367  12.851  41.358  14.968
56272W        W15368   9.167   4.869   4.740
56273W        W15369   6.789  22.157   2.814
56274W        W15370   0.413  33.102   4.599
56275W        W15371   3.362  18.295   4.276
56276W        W15372   0.826  15.116  10.491
56277W        W15373  25.056  17.570  14.938
56278W        W15374  42.821  35.967  14.408
56279W        W15375  36.018  28.012  13.957
56280W        W15376   2.939  18.166   4.757
56281W        W15377   8.825  11.765  11.019
56282W        W15378  14.648  17.583   2.795
56283W        W15379  41.966  35.366   3.757
56284W        W15380  21.672   7.347   0.729
56285W        W15381  19.690  29.525  12.540
56286W        W15382   6.316  22.170   0.916
56287W        W15383  43.836  17.063  11.951
56288W        W15384   4.367  25.584   1.768
56289W        W15385  41.910  13.327   3.176
56290W        W15386  36.011  40.968   4.612
56291W        W15387  35.048  20.110   2.692
56292W        W15388  13.249  28.490   2.321
56293W        W15389   4.861  28.558  13.436
56294W        W15390  31.134  36.590  10.633
56295W        W15391  13.305  39.482  13.352
56296W        W15392  31.509   4.444  11.578
56297W        W15393  34.884  11.812  12.827
56298W        W15394  12.684  14.761  11.383
56299W        W15395  36.927   1.772   1.352
56300W        W15396  13.154  41.873  13.997
56301W        W15397  18.691   4.357  11.942
56302W        W15398   1.764  27.191  14.417
56303W        W15399  26.520  28.958  12.013
56304W        W15400   8.381  27.167  14.486
56305W        W15401  18.770   4.892  11.449
56306W        W15402  23.025   3.250   2.328
56307W        W15403  42.002  38.436  10.972
56308W        W15404  38.509  40.888   1.925
56309W        W15405  27.097   9.194   1.288
56310W        W15406  24.696  24.543   1.741
56311W        W15407  36.866  17.572  13.970
56312W        W15408  29.121  14.220  11.447
56313W        W15409  15.622   1.248  13.460
56314W        W15410   0.324  43.983  10.436
56315W        W15411  34.957  21.178   0.850
56316W        W15412  28.966  22.173  13.356
56317W        W15413   7.906  32.967   2.334
56318W        W15414   7.388  35.931  11.458
56319W        W15415   4.805   1.324  14.853
56320W        W15416   7.417  18.688  11.564
56321W        W15417  37.915  31.918   4.119
56322W        W15418  18.567  11.706  14.459
56323W        W15419  23.515   6.697   0.943
56324W        W15420   8.226  21.690   2.224
56325W        W15421  15.271   8.808  14.449
56326W        W15422  38.562   2.815   4.766
56327W        W15423  37.998  33.472  13.351
56328W        W15424  18.203  32.890   2.409
56329W        W15425  25.066   6.228   4.242
56330W        W15426  39.932  16.308   1.934
56331W        W15427  11.843  28.125  12.070
56332W        W15428   1.779   6.364   0.474
56333W        W15429  13.323   4.919  11.943
56334W        W15430  42.293  44.793   3.206
56335W        W15431   8.822  44.757   2.837
56336W        W15432  33.989  17.145  13.968
56337W        W15433  26.670  30.974   0.333
56338W        W15434  22.526   6.833   4.338
56339W        W15435  39.061   4.771   5.317
56340W        W15436  42.318  12.357   4.632
56341W        W15437  44.288  22.143   4.344
56342W        W15438  29.631  28.440  11.101
56343W        W15439  11.159   3.448  10.924
56344W        W15440   9.169  34.977   3.311
56345W        W15441  22.218   9.246  12.343
56346W        W15442   2.962  21.099   0.904
56347W        W15443  40.878  12.750  12.872
56348W        W15444   0.787  14.649   4.316
56349W        W15445   1.868   8.751  14.449
56350W        W15446  23.707  33.470   0.273
56351W        W15447  10.230  43.457  10.475
56352W        W15448  27.569  34.045  14.296
56353W        W15449   4.791  33.123   0.762
56354W        W15450  43.344   9.842  13.359
56355W        W15451  33.095  28.470   3.790
56356W        W15452   8.817  36.571   1.402
56357W        W15453  26.675  41.918  13.038
56358W        W15454  24.670  15.210   0.784
56359W        W15455  41.396  31.899   0.269
56360W        W15456  22.178  20.173   3.635
56361W        W15457  43.844  16.707   2.746
56362W        W15458  41.027   7.199   2.396
56363W        W15459   6.188  34.887  13.376
56364W        W15460   4.424  37.003   2.253
56365W        W15461  30.938  44.978  12.870
56366W        W15462  18.204   5.720  13.501
56367W        W15463  12.728  41.343   0.877
56368W        W15464  37.894  36.052  12.381
56369W        W15465  11.801  25.673   4.214
56370W        W15466   4.320  20.542   0.365
56371W        W15467  19.047  41.993  14.844
56372W        W15468  36.489  42.375  11.009
56373W        W15469   6.866   4.865   2.808
56374W        W15470  43.989   9.252   4.273
56375W        W15471   0.755  25.136   1.439
56376W        W15472   0.933  38.051   0.818
56377W        W15473   8.266  26.641  13.428
56378W        W15474  14.753   5.338   0.873
56379W        W15475   8.704  13.747  13.310
56380W        W15476   0.480  40.876   3.850
56381W        W15477  15.707  27.593   0.471
56382W        W15478  15.636   3.788  11.492
56383W        W15479  26.151   3.920  11.556
56384W        W15480  37.946  32.433   2.195
56385W        W15481  41.003  34.010   4.693
56386W        W15482  30.578  32.011   4.673
56387W        W15483  43.801  20.033  13.860
56388W        W15484  43.277  22.079   1.210
56389W        W15485  30.447   5.838  11.035
56390W        W15486  27.582  38.415   4.202
56391W        W15487   5.292  12.142   2.736
56392W        W15488  39.506   8.377  11.476
56393W        W15489  26.125   8.788  11.047
56394W        W15490  15.594  22.172   3.210
56395W        W15491  35.366  42.849  11.475
56396W        W15492  19.735   6.231  13.374
56397W        W15493  30.968  30.651   1.719
56398W        W15494  17.277  34.063  12.953
56399W        W15495   7.391   6.266   2.251
56400W        W15496  42.304  34.028  12.013
56401W        W15497   8.831   1.830   1.303
56402W        W15498  17.608   0.747  12.854
56403W        W15499  32.024   0.813  11.974
56404W        W15500  16.643  38.498   4.200
56405W        W15501  38.505  11.284  14.949
56406W        W15502  25.507  14.639   4.681
56407W        W15503   4.911  35.872   1.292
56408W        W15504  19.724  14.798   2.362
56409W        W15505   4.822  29.517   1.351
56410W        W15506  32.925  23.073   5.591
56411W        W15507  23.056  10.153   3.177
56412W        W15508  30.956  42.321  11.056
56413W        W15509  10.640  26.687   4.350
56414W        W15510  27.575   9.791   1.226
56415W        W15511  23.631  25.011   0.744
56416W        W15512   0.815  36.567  14.812
56417W        W15513  33.907  43.945   2.305
56418W        W15514   0.760   6.400   3.656
56419W        W15515   2.749  16.187  14.982
56420W        W15516  31.065   7.709   4.624
56421W        W15517  13.215  13.267   2.697
56422W        W15518  14.801  39.820  11.055
56423W        W15519  26.022  14.703   1.244
56424W        W15520  27.965  41.872  10.948
56425W        W15521  37.497  18.057  13.839
56426W        W15522  12.230  15.124  14.022
56427W        W15523  33.881  39.454   1.863
56428W        W15524  15.309   0.903   1.918
56429W        W15525  14.293  41.793   2.721
56430W        W15526  38.450  22.081  13.008
56431W        W15527  35.596  25.512   4.644
56432W        W15528  43.445  25.054   1.826
56433W        W15529  22.096   0.460   0.911
56434W        W15530  43.503  30.434   2.677
56435W        W15531  32.394  20.238  13.429
56436W        W15532  14.106  31.547   2.239
56437W        W15533  32.055  12.153   0.471
56438W        W15534  16.641  18.546  13.455
56439W        W15535  29.011   3.266   2.375
56440W        W15536  38.433   4.753   3.681
56441W        W15537   2.255  15.818   2.184
56442W        W15538  20.207  40.389  13.819
56443W        W15539  23.598  11.302   3.769
56444W        W15540  10.287  19.740   3.359
56445W        W15541  26.981   3.434  13.825
56446W        W15542  32.103  16.289   3.154
56447W        W15543   7.756  12.735  14.467
56448W        W15544  26.594  34.510  14.473
56449W        W15545  19.726   0.847   3.749
56450W        W15546  10.161  29.945  10.436
56451W        W15547  40.390   8.879   4.690
56452W        W15548  11.808  27.551   4.162
56453W        W15549  21.156  21.245  10.963
56454W        W15550  32.423  27.616  14.302
56455W        W15551  35.405  42.457   4.673
56456W        W15552  26.171  36.891   4.736
56457W        W15553  42.526  35.947   3.190
56458W        W15554  23.020   4.225  14.839
56459W        W15555   2.742  35.416  11.958
56460W        W15556   5.898  28.543   4.134
56461W        W15557  44.928  43.287   3.776
56462W        W15558   9.156  27.118  13.424
56463W        W15559  39.404  44.978   2.765
56464W        W15560  11.754  25.971   2.773
56465W        W15561   6.905  31.009  11.916
56466W        W15562  22.631  21.599  13.882
56467W        W15563  43.293  43.907   2.711
56468W        W15564  34.471  13.790  14.934
56469W        W15565  30.620  17.274   2.792
56470W        W15566  44.378   4.257   4.323
56471W        W15567  34.062  26.643  13.373
56472W        W15568  37.062  21.241   2.274
56473W        W15569  24.722  28.498  12.949
56474W        W15570   4.800   5.290   4.745
56475W        W15571  10.843  44.870   0.860
56476W        W15572  32.560   9.835   0.448
56477W        W15573  22.660   3.912  11.513
56478W        W15574   7.336  25.581  13.356
56479W        W15575   2.900  44.500  11.544
56480W        W15576  32.588  32.573  11.911
56481W        W15577  41.385  19.724   1.932
56482W        W15578   9.383   8.695   1.295
56483W        W15579   8.776  40.043  11.072
56484W        W15580  37.964  22.023  14.928
56485W        W15581  18.295   3.419  13.320
56486W        W15582  28.980  34.449   2.891
56487W        W15583  34.500  25.995  13.931
56488W        W15584  43.765  27.013   4.124
56489W        W15585  29.930  43.866  11.947
56490W        W15586  13.770  32.609   3.154
56491W        W15587   1.389  44.293  11.023
56492W        W15588  44.886   5.205  13.349
56493W        W15589   5.225  43.914  10.452
56494W        W15590   3.394  26.137  10.092
56495W        W15591   4.293  36.095   3.251
56496W        W15592   8.700  36.361  13.828
56497W        W15593  40.846  12.344  12.040
56498W        W15594  20.744   2.379  13.535
56499W        W15595  28.061  26.158   3.253
56500W        W15596  13.673   2.376   2.735
56501W        W15597  15.597   6.825  12.546
56502W        W15598   6.684  34.482  13.334
56503W        W15599  44.486  21.164   3.210
56504W        W15600  38.413  17.147  14.370
56505W        W15601   6.834  38.922  14.829
56506W        W15602  31.123  15.301   0.361
56507W        W15603   7.888  43.966   1.390
56508W        W15604  41.925  36.895  13.902
56509W        W15605  13.287   7.217   0.324
56510W        W15606  13.703  22.614   0.878
56511W        W15607  16.607  32.517   3.836
56512W        W15608  22.233  37.874  12.074
56513W        W15609   7.666   3.771  13.997
56514W        W15610  35.063  39.985   0.731
56515W        W15611  12.209   2.947   4.276
56516W        W15612  26.464  30.593   0.961
56517W        W15613  34.043   9.819   4.820
56518W        W15614  12.657  28.491   5.718
56519W        W15615  14.688   1.827  13.019
56520W        W15616  25.588  44.764   1.921
56521W        W15617  18.628  43.339   3.299
56522W        W15618  32.906   8.169  10.496
56523W        W15619  41.040  13.311   4.763
56524W        W15620   9.343  27.476   4.832
56525W        W15621  41.027   8.798  10.625
56526W        W15622  43.018  10.215  13.387
56527W        W15623   8.302  39.485  13.347
56528W        W15624  11.781  23.220   2.903
56529W        W15625  36.379  27.053   3.186
56530W        W15626  25.218  41.398  11.034
56531W        W15627  33.544  13.302   0.861
56532W        W15628  12.344  29.063  14.012
56533W        W15629  18.270  10.263  14.916
56534W        W15630  40.492  44.319   1.695
56535W        W15631   8.727  15.738  11.495
56536W        W15632  42.927  42.311   0.312
56537W        W15633   1.357  20.096   4.753
56538W        W15634  34.549  22.087   3.870
56539W        W15635  20.593  24.223  11.083
56540W        W15636  16.655   3.767   0.420
56541W        W15637  34.037  40.872   0.431
56542W        W15638  18.109  16.184   4.655
56543W        W15639  24.099  23.541  13.792
56544W        W15640  11.768  34.369  14.920
56545W        W15641  24.163  24.652   3.848
56546W        W15642  35.053  20.241   4.817
56547W        W15643   2.805   7.890   0.751
56548W        W15644  14.799   8.403   3.673
56549W        W15645  37.861  41.962   1.924
56550W        W15646  29.113  13.814  12.021
56551W        W15647  39.816  29.557  10.499
56552W        W15648  41.980  36.490   0.927
56553W        W15649   3.854   0.850   3.720
56554W        W15650  28.551   0.428  11.509
56555W        W15651  44.805  34.049   0.808
56556W        W15652   5.367   9.697   0.454
56557W        W15653  21.714  23.579  13.383
56558W        W15654  26.957  38.333  14.330
56559W        W15655  35.883  11.282  14.926
56560W        W15656  15.728  18.603  11.550
56561W        W15657  33.890  11.724   4.197
56562W        W15658  34.600  17.578   1.725
56563W        W15659   2.323  27.489  12.561
56564W        W15660  40.050  34.900   4.800
56565W        W15661  29.531   7.813  14.376
56566W        W15662  17.612  13.719   3.258
56567W        W15663  41.323   0.307  14.833
56568W        W15664   6.920  43.307   4.736
56569W        W15665   4.871  44.329   0.897
56570W        W15666  12.840   5.689   2.303
56571W        W15667  28.104  30.443  12.477
56572W        W15668  44.914  35.074  13.045
56573W        W15669   2.333  23.084   1.297
56574W        W15670  32.976  26.123  14.786
56575W        W15671  11.835  13.599  10.449
56576W        W15672  36.539  25.640   4.289
56577W        W15673  36.928  13.778  14.882
56578W        W15674   9.811  34.906   2.256
56579W        W15675  41.525  36.521   5.153
56580W        W15676  14.733  15.772   3.352
56581W        W15677  34.006   3.359  11.569
56582W        W15678   4.788  22.675  10.901
56583W        W15679  33.606  11.669  14.785
56584W        W15680  25.489   6.711   0.376
56585W        W15681  15.251  24.195  13.368
56586W        W15682  17.091   2.238   4.803
56587W        W15683  22.197   7.720   2.894
56588W        W15684  40.533  36.038   5.156
56589W        W15685  28.988  38.420  14.413
56590W        W15686  21.610  11.739   5.239
56591W        W15687  17.634  24.018   4.673
56592W        W15688  30.036  23.618  12.490
56593W        W15689  40.332  29.516  14.314
56594W        W15690  18.065  19.551   3.667
56595W        W15691  34.452  42.883   0.831
56596W        W15692  25.709  19.056   3.180
56597W        W15693   2.283  12.702   4.655
56598W        W15694  35.414  30.917  13.886
56599W        W15695  15.087  25.058   2.882
56600W        W15696  44.008  39.875   4.637
56601W        W15697  29.043   7.891   2.188
56602W        W15698  22.602  17.762   0.322
56603W        W15699   4.746  37.372  12.476
56604W        W15700   1.852  22.560  13.499
56605W        W15701  31.948  38.340   2.379
56606W        W15702  17.174  27.050  14.319
56607W        W15703  33.503   4.704   1.344
56608W        W15704  23.021  15.693   2.178
56609W        W15705  20.150  17.770   3.342
56610W        W15706  20.715  37.416   0.828
56611W        W15707  30.062   6.328   0.316
56612W        W15708  21.224   2.379  10.444
56613W        W15709  22.083  32.580  10.988
56614W        W15710  18.107  33.594   0.921
56615W        W15711   0.749  17.281  10.579
56616W        W15712  44.873  29.552   3.370
56617W        W15713  39.518  17.637  11.373
56618W        W15714   1.770  17.283  13.954
56619W        W15715  28.612  32.109   5.177
56620W        W15716  43.812  11.719   2.382
56621W        W15717  39.546  40.872  12.391
56622W        W15718  41.499  32.614  11.541
56623W        W15719  11.170   0.855   4.673
56624W        W15720  25.194  28.117  12.962
56625W        W15721   1.403  42.335  11.493
56626W        W15722  28.938  25.175   1.400
56627W        W15723  22.687  40.050  12.094
56628W        W15724   1.443  19.069  10.451
56629W        W15725   8.800   8.744  12.346
56630W        W15726  22.626  37.919   4.124
56631W        W15727  20.608   1.358  12.017
56632W        W15728  37.367  14.752   3.813
56633W        W15729  10.840  17.658  12.460
56634W        W15730   4.724  32.080   2.759
56635W        W15731  14.182  38.841  14.332
56636W        W15732  36.074   0.806  14.826
56637W        W15733  19.157  32.966   1.848
56638W        W15734  20.715  38.566   4.670
56639W        W15735  35.052  19.678  12.903
56640W        W15736   2.796  42.014  14.028
56641W        W15737  21.038  35.021   2.375
56642W        W15738   4.925  32.634   2.804
56643W        W15739   2.876  40.442   2.272
56644W        W15740  18.293  39.815  12.864
56645W        W15741  29.508  31.916   3.673
56646W        W15742  30.976   1.430   0.932
56647W        W15743  18.159  17.304   4.794
56648W        W15744  35.962  26.200   4.212
56649W        W15745  31.939   4.302  10.587
56650W        W15746  35.023  18.675   4.338
56651W        W15747  31.054  10.655  13.862
56652W        W15748  35.899  22.136   2.672
56653W        W15749  17.063  42.784   3.793
56654W        W15750  16.633  44.380   0.386
56655W        W15751   9.751  29.019  13.344
56656W        W15752   1.925  36.428  12.525
56657W        W15753   9.207  37.888  11.904
56658W        W15754   8.365   8.236   4.721
56659W        W15755  27.181   9.751   0.434
56660W        W15756  29.046   7.200  13.050
56661W        W15757  11.278  37.550   1.333
56662W        W15758  10.737   2.414  11.958
56663W        W15759  36.434  20.764   3.360
56664W        W15760  12.178   2.807  11.492
56665W        W15761  21.686  22.089  11.997
56666W        W15762  28.565   8.674  13.343
56667W        W15763  34.033  19.186   3.249
56668W        W15764   8.281  36.021  14.777
56669W        W15765  12.820  19.278  11.869
56670W        W15766  36.914  28.535  12.569
56671W        W15767  26.478  25.601   0.362
56672W        W15768  23.060  34.885   4.284
56673W        W15769   5.435  29.490  13.995
56674W        W15770  28.648  18.771  12.983
56675W        W15771  42.028  21.216   1.230
56676W        W15772  40.536  31.640  12.923
56677W        W15773  12.150  12.779  11.048
56678W        W15774  44.806  41.863  11.128
56679W        W15775   9.847  43.952  13.020
56680W        W15776   0.924   4.871   1.274
56681W        W15777  13.846   6.894   0.275
56682W        W15778  34.950  10.673   4.349
56683W        W15779   5.723  28.060   2.833
56684W        W15780  40.377   3.411   0.368
56685W        W15781  17.649  39.457  10.429
56686W        W15782  39.463   2.444  14.853
56687W        W15783  13.119  24.517  12.870
56688W        W15784   2.324  32.528  13.006
56689W        W15785  40.932  28.500   2.873
56690W        W15786   2.902  22.059   2.827
56691W        W15787  40.827  17.563  13.529
56692W        W15788  33.042  24.227   0.793
56693W        W15789  33.442  18.671   2.385
56694W        W15790  42.014  19.570   0.839
56695W        W15791  20.559   0.769  11.955
56696W        W15792  34.033  33.115  13.816
56697W        W15793  16.719  38.848   1.219
56698W        W15794   5.400   1.842  11.423
56699W        W15795  24.055  26.511  10.592
56700W        W15796  17.627  33.126   1.332
56701W        W15797  20.206  13.844  11.390
56702W        W15798  12.708  12.224   3.729
56703W        W15799  30.420   6.727  10.926
56704W        W15800  14.330  10.799  11.019
56705W        W15801   9.250   3.738  13.319
56706W        W15802  23.129  41.841  11.933
56707W        W15803  22.035  16.183   2.400
56708W        W15804  22.230  25.627   4.796
56709W        W15805  14.310  44.395  11.910
56710W        W15806   9.351  43.016  11.533
56711W        W15807  37.539  33.005  11.432
56712W        W15808  11.315  14.260   0.955
56713W        W15809  44.346  12.356   1.248
56714W        W15810   2.747  20.721  11.464
56715W        W15811  14.263  33.999  11.488
56716W        W15812  27.004  30.981   2.197
56717W        W15813  27.453  11.314  13.003
56718W        W15814   5.354   5.391  13.456
56719W        W15815   4.427   4.395  11.379
56720W        W15816  17.593  27.603  14.951
56721W        W15817  19.079  14.738  13.469
56722W        W15818  25.520  32.472  11.917
56723W        W15819  17.772  24.989  11.580
56724W        W15820  33.473  24.027   2.316
56725W        W15821  30.039  19.191   4.695
56726W        W15822   6.861  39.940   4.234
56727W        W15823  31.530   5.357  14.477
56728W        W15824  39.004  36.020   3.329
56729W        W15825   5.723   9.221   3.160
56730W        W15826  11.631  30.049   2.306
56731W        W15827   7.770  35.885  11.002
56732W        W15828  38.328  20.684   0.254
56733W        W15829   5.801  33.549   0.442
56734W        W15830  18.616  37.053  13.847
56735W        W15831  10.801  32.495   1.401
56736W        W15832  39.365  42.977   3.784
56737W        W15833  30.966  34.615   2.690
56738W        W15834  44.493  43.368   4.729
56739W        W15835  39.536  29.091   4.227
56740W        W15836  41.449  41.495  13.931
56741W        W15837  40.529  27.678  10.627
56742W        W15838  33.496  19.234   2.682
56743W        W15839  11.746   4.804  11.608
56744W        W15840  13.210   3.416   5.179
56745W        W15841  32.527  39.821  11.006
56746W        W15842   6.830  37.580   5.176
56747W        W15843  13.206  24.227   0.959
56748W        W15844   5.379  11.621   3.850
56749W        W15845  11.260  14.198  13.955
56750W        W15846  34.583   5.425  12.473
56751W        W15847  28.645   9.773   4.272
56752W        W15848  20.213   0.968   3.813
56753W        W15849   0.284  31.603   4.219
56754W        W15850   8.354  30.025  14.028
56755W        W15851   4.256  36.363   0.756
56756W        W15852  20.261  29.937  14.872
56757W        W15853  43.478  18.726   1.916
56758W        W15854  12.313   3.288   1.830
56759W        W15855  43.456  22.676  12.085
56760W        W15856  24.514  10.261  12.398
56761W        W15857  33.395   4.876   3.345
56762W        W15858  21.082   2.889  11.497
56763W        W15859  19.198  16.089   3.672
56764W        W15860  23.078  15.261  11.577
56765W        W15861   8.374  15.724   2.771
56766W        W15862  18.780   1.319   4.290
56767W        W15863   0.952  21.246   4.241
56768W        W15864  17.716  26.951  10.486
56769W        W15865  18.610  23.571  13.406
56770W        W15866  21.126   3.346  11.541
56771W        W15867  27.686  34.972  14.988
56772W        W15868  27.979  38.412  12.445
56773W        W15869   3.231   0.983  11.994
56774W        W15870   4.931  44.943  14.333
56775W        W15871   9.825  29.922   5.176
56776W        W15872   3.300  44.378  14.011
56777W        W15873  14.754  30.585   4.222
56778W        W15874  27.974  23.691  13.997
56779W        W15875   7.219   4.450   1.717
56780W        W15876   5.362  14.244   0.893
56781W        W15877  21.652  33.974   4.291
56782W        W15878  24.621  18.123   1.759
56783W        W15879  41.884  11.794   1.424
56784W        W15880  32.471  30.492   2.828
56785W        W15881  27.097  24.680  12.898
56786W        W15882  21.672  41.528   1.711
56787W        W15883  43.991  39.939  13.972
56788W        W15884  16.147  22.725  11.066
56789W        W15885  28.478  19.285   2.722
56790W        W15886   8.816   6.879   2.188
56791W        W15887  29.518  29.600  11.372
56792W        W15888  38.916   5.857  11.958
56793W        W15889  33.880  25.966  14.911
56794W        W15890   9.225  44.005  14.319
56795W        W15891  27.597  34.900   1.894
56796W        W15892  37.413  24.220   0.246
56797W        W15893  19.609  36.353  14.423
56798W        W15894   0.860   6.390   4.347
56799W        W15895  15.083  19.660  10.984
56800W        W15896   5.264  26.151   9.920
56801W        W15897  14.176  11.846   5.310
56802W        W15898  15.703  14.310   2.414
56803W        W15899  18.159  16.680   1.383
56804W        W15900   5.344   5.420  10.425
56805W        W15901  32.996   9.735   2.384
56806W        W15902   8.164  26.677  11.051
56807W        W15903  33.396  34.608  12.938
56808W        W15904  10.322  29.956  13.440
56809W        W15905  12.343  26.072  11.014
56810W        W15906  26.524  37.969   2.257
56811W        W15907  37.980  35.915   1.350
56812W        W15908  23.598  30.556   1.233
56813W        W15909  27.055   8.325  12.918
56814W        W15910   7.350  16.572   4.154
56815W        W15911  15.812  40.050   4.193
56816W        W15912  26.174  29.670   1.864
56817W        W15913  23.038  23.664  10.468
56818W        W15914  23.008  12.225   1.760
56819W        W15915  27.458  39.333   2.218
56820W        W15916   1.899   2.889  14.396
56821W        W15917  17.292   7.743   4.266
56822W        W15918  36.960   0.407  11.470
56823W        W15919  27.009  24.146   4.237
56824W        W15920  11.717  34.571  10.936
56825W        W15921  25.576  44.990   0.790
56826W        W15922   7.409  16.128  13.928
56827W        W15923  12.662  12.326   3.342
56828W        W15924   1.348  12.657   3.770
56829W        W15925  18.595  33.984  11.479
56830W        W15926   5.806  25.600  12.429
56831W        W15927  12.658  24.581  10.614
56832W        W15928   7.297   1.394   3.155
56833W        W15929  24.536  21.571   4.794
56834W        W15930  11.625  14.215   2.662
56835W        W15931  19.252  32.909   0.470
56836W        W15932  17.623   1.765   0.389
56837W        W15933   4.751  42.845   4.728
56838W        W15934   3.953   9.812  13.796
56839W        W15935   0.332  14.749  13.922
56840W        W15936   7.675  14.107   0.927
56841W        W15937  15.155   5.773  11.961
56842W        W15938  13.633  41.817  12.975
56843W        W15939  40.334   0.325  14.345
56844W        W15940  35.915  22.691  14.358
56845W        W15941  29.946  31.133  14.811
56846W        W15942  32.001  39.549  12.880
56847W        W15943  44.291  12.343   3.379
56848W        W15944   4.354  44.873  14.450
56849W        W15945  27.028   8.353   1.420
56850W        W15946  13.170  44.273  10.933
56851W        W15947  20.111   2.951   1.739
56852W        W15948  40.329  44.758  13.866
56853W        W15949  38.453  25.199   2.290
56854W        W15950  19.753  38.493  14.456
56855W        W15951  13.746  33.467  13.308
56856W        W15952   2.240   7.825   3.164
56857W        W15953  15.189  35.919   4.188
56858W        W15954  17.151  23.070  12.853
56859W        W15955  37.012   5.356  11.903
56860W        W15956  27.552   7.282   1.894
56861W        W15957  22.182  21.557   1.262
56862W        W15958   7.824  37.028   3.808
56863W        W15959  28.025  38.023   3.836
56864W        W15960  12.825  18.713  14.893
56865W        W15961   4.373  23.188  10.908
56866W        W15962  22.558  12.698  12.382
56867W        W15963   8.383  34.033   4.177
56868W        W15964   5.801  13.128  12.937
56869W        W15965  17.208  14.194  12.861
56870W        W15966  42.485  39.480   0.848
56871W        W15967  20.158   5.700   0.276
56872W        W15968  23.572  27.001  12.004
56873W        W15969  38.047  37.359  14.427
56874W        W15970  39.490  37.574   2.194
56875W        W15971  37.085  30.475   4.174
56876W        W15972  38.514  33.099   1.301
56877W        W15973  43.908  42.815  13.053
56878W        W15974  26.206  33.057  10.613
56879W        W15975   2.771   4.276   1.340
56880W        W15976  19.681  13.718  10.143
56881W        W15977  21.091  19.071  10.559
56882W        W15978  40.347  35.915  12.877
56883W        W15979  29.933  24.008   1.887
56884W        W15980  11.373  18.714   0.429
56885W        W15981   6.412  14.232   0.840
56886W        W15982  36.439  32.071   3.284
56887W        W15983  11.818  33.463   0.338
56888W        W15984  28.041  34.864  13.014
56889W        W15985  34.072  17.172   0.376
56890W        W15986   4.366   5.403   0.258
56891W        W15987  33.952  26.965   4.704
56892W        W15988  35.869  18.279   2.351
56893W        W15989  13.668  20.644  11.484
56894W        W15990   6.427  32.915   2.247
56895W        W15991   3.841   9.801   1.727
56896W        W15992  38.500  16.770  13.820
56897W        W15993   2.854  16.222   3.308
56898W        W15994  24.604   3.950   2.702
56899W        W15995  43.364  21.742  14.808
56900W        W15996  21.133  42.341   4.778
56901W        W15997  15.183  25.475   3.151
56902W        W15998  18.591  29.591   3.330
56903W        W15999   1.771  36.981  10.429
56904W        W16000  27.541  36.075  13.899
56905W        W16001  44.859   2.766  12.359
56906W        W16002  31.486  43.515  11.438
56907W        W16003   0.885  12.698   4.254
56908W        W16004  35.000  34.118  13.920
56909W        W16005  35.096  26.505  11.094
56910W        W16006  37.074  27.064   2.373
56911W        W16007  14.691  38.997   1.256
56912W        W16008  41.807  39.457   3.811
56913W        W16009  18.295  29.929  10.496
56914W        W16010  17.278   4.882  14.814
56915W        W16011  24.507  26.979  11.013
56916W        W16012  44.937  42.289  13.510
56917W        W16013  28.025  19.043   4.747
56918W        W16014  32.542   1.775   0.831
56919W        W16015  39.464  38.823  12.036
56920W        W16016   7.343   6.712  10.918
56921W        W16017  34.423  19.710   2.205
56922W        W16018   4.746  20.168   3.736
56923W        W16019  24.982   2.776   3.726
56924W        W16020  30.045  29.466  13.459
56925W        W16021   7.361  40.935   2.846
56926W        W16022  20.733   6.720  12.513
56927W        W16023   8.248  28.652   3.359
56928W        W16024  43.372   9.206   4.783
56929W        W16025  17.201  24.619  10.576
56930W        W16026  36.900  30.605  10.624
56931W        W16027  41.985  11.632   0.282
56932W        W16028  30.945   5.295  11.594
56933W        W16029  10.833   9.265   4.208
56934W        W16030  25.022  28.177   2.839
56935W        W16031  18.135  36.565  13.871
56936W        W16032  33.556  28.539  11.437
56937W        W16033  30.974  40.430   1.217
56938W        W16034  24.119   3.844  12.077
56939W        W16035  35.056  26.569  11.566
56940W        W16036   0.975  19.606  12.904
56941W        W16037  43.499  21.613   0.731
56942W        W16038   5.202   1.373  12.580
56943W        W16039  15.614  21.148  11.089
56944W        W16040   1.890  14.311  11.876
56945W        W16041  42.295  19.771   3.663
56946W        W16042   5.758  36.022  11.052
56947W        W16043  19.589  39.510   3.385
56948W        W16044  40.352   3.340   2.389
56949W        W16045   7.341   9.379  10.958
56950W        W16046   0.490  18.678   3.864
56951W        W16047  14.771  40.370   3.263
56952W        W16048  26.163  19.656   1.423
56953W        W16049  34.429   3.272  12.041
56954W        W16050  18.780   0.867  13.974
56955W        W16051  29.127   3.740   2.803
56956W        W16052  37.396  34.481  13.848
56957W        W16053  11.656  33.039  13.402
56958W        W16054   1.377   4.427  11.516
56959W        W16055  23.522  24.009   4.301
56960W        W16056  23.517   2.355  14.963
56961W        W16057  35.446   8.198  14.843
56962W        W16058  31.931  14.816   0.262
56963W        W16059  24.621  37.380   2.401
56964W        W16060   9.661  41.909   3.793
56965W        W16061  28.101  32.989  13.379
56966W        W16062  42.453  32.397  12.367
56967W        W16063   0.977  10.248  12.505
56968W        W16064   3.823   8.211  10.989
56969W        W16065  44.444   1.460   2.846
56970W        W16066  38.917   1.835  11.575
56971W        W16067  42.315  37.483  11.515
56972W        W16068  21.225  42.005   4.328
56973W        W16069   4.279  28.966   1.262
56974W        W16070  41.535   9.187  13.538
56975W        W16071  25.196  32.977   3.347
56976W        W16072  26.084  37.921   0.845
56977W        W16073  23.720   6.844  13.494
56978W        W16074  43.272   8.834  13.057
56979W        W16075  18.709  12.277  11.935
56980W        W16076   2.735  34.438  10.614
56981W        W16077  31.939  29.165  12.532
56982W        W16078   5.439  18.679   4.139
56983W        W16079  42.388  33.559   0.249
56984W        W16080   3.382  25.621   2.369
56985W        W16081  17.178   4.211  10.563
56986W        W16082  26.641  29.164   0.267
56987W        W16083  35.100  11.835   3.350
56988W        W16084  37.340  28.101  12.025
56989W        W16085  36.356  25.539   1.388
56990W        W16086  42.792  34.029   1.848
56991W        W16087  32.432  28.984  10.490
56992W        W16088  38.973   7.891   3.237
56993W        W16089   1.925  38.941   5.086
56994W        W16090  39.930  38.888   3.333
56995W        W16091  36.575  42.837   4.269
56996W        W16092  44.486   9.779   2.852
56997W        W16093  39.840   2.462  13.486
56998W        W16094  13.757  42.835   0.771
56999W        W16095   1.475  26.991  14.328
57000W        W16096   8.405   2.238  12.351
57001W        W16097  32.001  27.085   1.875
57002W        W16098  27.100  43.516  13.992
57003W        W16099  23.127  40.047   0.843
57004W        W16100  31.570  24.029   2.278
57005W        W16101  20.691  14.099   1.783
57006W        W16102  29.016  13.655  14.491
57007W        W16103   3.718  39.991  14.483
57008W        W16104  15.697   9.779  14.296
57009W        W16105  21.017  13.200  14.359
57010W        W16106  16.631   0.367  11.942
57011W        W16107  22.623  16.139  12.986
57012W        W16108  34.476  13.142   0.361
57013W        W16109  25.487   9.850   2.237
57014W        W16110  15.587  39.510  11.379
57015W        W16111  16.583  19.263   3.299
57016W        W16112  18.235   7.793   2.269
57017W        W16113  25.602  10.731  12.978
57018W        W16114   9.266  16.143   0.299
57019W        W16115   1.239  35.416  12.869
57020W        W16116  16.203  18.183  14.814
57021W        W16117  26.698   6.781   1.437
57022W        W16118  33.091  21.093   3.174
57023W        W16119  10.262   0.798  13.039
57024W        W16120  19.655  44.454  10.586
57025W        W16121  16.654   9.888   0.734
57026W        W16122  25.149  14.266  13.954
57027W        W16123  40.374  21.080   0.834
57028W        W16124  27.129  44.383  13.019
57029W        W16125   4.239  43.274   4.763
57030W        W16126   0.809  42.824  13.865
57031W        W16127   8.178   0.973   4.240
57032W        W16128  42.422  23.180  13.999
57033W        W16129  37.479  31.055  12.460
57034W        W16130  40.402  10.261  11.073
57035W        W16131  22.165  31.036   3.824
57036W        W16132  11.804  37.465   4.687
57037W        W16133  15.614   4.789   5.308
57038W        W16134  28.029  10.844   4.185
57039W        W16135  10.194  11.278  10.426
57040W        W16136  32.912   4.734   1.389
57041W        W16137  36.897   2.368   2.754
57042W        W16138  28.605  30.536   1.417
57043W        W16139   7.681  24.036   3.160
57044W        W16140  34.023  20.166   0.818
57045W        W16141  35.901  43.853  11.428
57046W        W16142  21.758  30.489  12.415
57047W        W16143  16.692   9.298   3.350
57048W        W16144  33.103  16.092   0.728
57049W        W16145  18.227  18.770  10.518
57050W        W16146   3.349  14.282  11.900
57051W        W16147   1.975  43.931   2.817
57052W        W16148  28.040  15.766   0.417
57053W        W16149   3.348  29.953   1.910
57054W        W16150  14.736  42.887  13.485
57055W        W16151  30.491  18.724  12.403
57056W        W16152   2.838  44.409  10.588
57057W        W16153   6.760  29.468  12.052
57058W        W16154  29.110   9.844   0.785
57059W        W16155   1.330  39.464  12.493
57060W        W16156  11.833  30.430   4.608
57061W        W16157  12.851  15.202  10.025
57062W        W16158  10.813   4.751   0.258
57063W        W16159  41.373  13.285   4.835
57064W        W16160   4.913   6.698   0.919
57065W        W16161  21.209  19.557   1.411
57066W        W16162  15.670   2.459  13.972
57067W        W16163  29.546   1.244  12.956
57068W        W16164  21.590  41.517  12.968
57069W        W16165  14.130   2.809  12.851
57070W        W16166  34.470   5.767   0.851
57071W        W16167  24.661  40.353   0.351
57072W        W16168  38.431  21.147  14.512
57073W        W16169  22.657   1.885  10.606
57074W        W16170  21.557  31.534  12.001
57075W        W16171  18.095  33.985  14.800
57076W        W16172  43.448   6.343   3.369
57077W        W16173   6.302  40.865   1.810
57078W        W16174   6.332   3.248   2.210
57079W        W16175   6.781  10.679   1.776
57080W        W16176  26.026  20.048   0.761
57081W        W16177   8.694  13.771  14.946
57082W        W16178  38.482  35.971   1.433
57083W        W16179  25.059  24.572  10.973
57084W        W16180  24.584  40.824  13.418
57085W        W16181  37.403   5.914  11.559
57086W        W16182  23.596  19.546   3.303
57087W        W16183  15.265   3.874   2.205
57088W        W16184   9.390  32.128  14.902
57089W        W16185  10.702  15.201  13.390
57090W        W16186  24.162   4.321  14.834
57091W        W16187  37.440  38.531  14.399
57092W        W16188  17.140  13.297   1.778
57093W        W16189  38.928  33.605   3.862
57094W        W16190  21.745  29.034  13.945
57095W        W16191  24.709  28.585   4.695
57096W        W16192  19.708  33.408   0.457
57097W        W16193  18.068   2.954   2.207
57098W        W16194  10.333   6.336  13.437
57099W        W16195  33.565   7.734   0.781
57100W        W16196  14.799  39.316  13.805
57101W        W16197   2.362  18.061  13.950
57102W        W16198   9.882  40.331   0.915
57103W        W16199   1.251  19.068  11.095
57104W        W16200  23.004  38.461   4.194
57105W        W16201  37.910  32.512   1.791
57106W        W16202  40.343  34.114  10.558
57107W        W16203  24.584  17.205   2.684
57108W        W16204  11.627  40.406   2.809
57109W        W16205  20.723  41.507   2.208
57110W        W16206  36.477  26.040   1.791
57111W        W16207  22.617   9.792  12.373
57112W        W16208  40.439  12.116  13.335
57113W        W16209  30.953  42.865  10.412
57114W        W16210  41.361  13.149  10.535
57115W        W16211   6.898   6.687  10.642
57116W        W16212  44.319  10.781  14.334
57117W        W16213   7.242  18.697  14.280
57118W        W16214  42.914   7.681  11.915
57119W        W16215  32.085   4.373  14.787
57120W        W16216  40.810   7.237   2.701
57121W        W16217  39.963   8.193  12.345
57122W        W16218  31.538  11.318   1.318
57123W        W16219  17.109   1.473   1.413
57124W        W16220  39.519  34.989   1.843
57125W        W16221  29.085  22.199   1.247
57126W        W16222  18.174  12.652   1.921
57127W        W16223  19.066  41.949   2.332
57128W        W16224   1.263   0.939  10.603
57129W        W16225  28.459  16.150  13.426
57130W        W16226  22.249  32.923  13.351
57131W        W16227  24.197   3.332  13.013
57132W        W16228  16.710  19.188  11.856
57133W        W16229  16.633  43.913  10.987
57134W        W16230  36.860  26.585  12.967
57135W        W16231  21.120   0.467  12.500
57136W        W16232  33.067  30.653  14.025
57137W        W16233  18.127  32.505  13.343
57138W        W16234  27.072  32.096  11.557
57139W        W16235  32.019  38.482  10.021
57140W        W16236  31.136  32.575   4.118
57141W        W16237  36.529  19.168  14.783
57142W        W16238  33.545  32.018  11.518
57143W        W16239  19.668  10.356  14.328
57144W        W16240   4.748  31.007   2.895
57145W        W16241   3.407  20.152  11.078
57146W        W16242  17.585  33.548  13.428
57147W        W16243   6.737  31.557  12.423
57148W        W16244  34.378  37.386   4.705
57149W        W16245  40.432  30.916   4.757
57150W        W16246  33.501  42.963   3.718
57151W        W16247  24.572  10.266  13.801
57152W        W16248  22.214  20.530  14.011
57153W        W16249  39.521  12.720  14.275
57154W        W16250   8.267  42.999  12.414
57155W        W16251  31.922   6.313   3.146
57156W        W16252  35.442  11.137   2.178
57157W        W16253  23.164  28.585  14.484
57158W        W16254  20.233   0.389   1.447
57159W        W16255   6.217  36.470   0.829
57160W        W16256  13.801  41.402  13.955
57161W        W16257  36.404  18.081   3.701
57162W        W16258  41.431  23.637   2.346
57163W        W16259  27.091   5.390  12.026
57164W        W16260   9.303  39.315   4.312
57165W        W16261  35.914   4.756   3.318
57166W        W16262  20.584  25.046  12.379
57167W        W16263   9.199   6.352   4.817
57168W        W16264  12.703  26.134  12.498
57169W        W16265  34.508  16.205   3.381
57170W        W16266  29.035  38.843   3.366
57171W        W16267  24.163  22.246   2.314
57172W        W16268  37.536  38.570   2.774
57173W        W16269  39.420  34.992  10.890
57174W        W16270  13.688  26.003   0.860
57175W        W16271   4.240  38.994   1.444
57176W        W16272  44.866  24.624  10.926
57177W        W16273  11.840  18.113   0.850
57178W        W16274  24.984  43.483   1.730
57179W        W16275  22.998   5.399  10.935
57180W        W16276  20.612  29.127   3.376
57181W        W16277  37.360  38.993  10.444
57182W        W16278  41.946  12.171   1.751
57183W        W16279  43.005  31.034   1.296
57184W        W16280   7.397  43.855  13.307
57185W        W16281  22.066  27.038  12.348
57186W        W16282   9.365  11.748   2.892
57187W        W16283  29.025  36.421  10.096
57188W        W16284  33.954  24.527  11.095
57189W        W16285  34.101  15.234   3.237
57190W        W16286  34.457  29.496  11.081
57191W        W16287  25.653  36.517   2.275
57192W        W16288   5.812   1.811   3.691
57193W        W16289  25.087  30.997  10.959
57194W        W16290  34.007  18.071  11.015
57195W        W16291  20.076  16.643   1.264
57196W        W16292  22.207  27.501  13.921
57197W        W16293   5.866  32.513   2.729
57198W        W16294  43.344  23.128   2.817
57199W        W16295  27.489  12.287  13.905
57200W        W16296  34.476  32.040  12.974
57201W        W16297   5.927   2.276  14.802
57202W        W16298  28.957   4.843  14.028
57203W        W16299   9.827  28.597   3.176
57204W        W16300  13.291  41.505  10.431
57205W        W16301  13.231  21.598  12.366
57206W        W16302  44.850  27.110   0.468
57207W        W16303  18.690  18.649   2.898
57208W        W16304  34.489  16.179   2.339
57209W        W16305  43.292  11.696   0.728
57210W        W16306  32.520  34.476   2.287
57211W        W16307  19.279  41.512  14.799
57212W        W16308   8.789  31.132  13.306
57213W        W16309  21.249  17.206   3.319
57214W        W16310   5.857  25.475  14.989
57215W        W16311  17.743   2.268  12.482
57216W        W16312  29.992  28.028   4.302
57217W        W16313   2.356  13.200   1.900
57218W        W16314  25.122  21.149   3.796
57219W        W16315  41.933  18.681  11.923
57220W        W16316  13.199  43.314   3.197
57221W        W16317  42.353  19.734   2.341
57222W        W16318  22.688  24.230   3.730
57223W        W16319  24.699   7.170   3.362
57224W        W16320  25.534  26.612   4.739
57225W        W16321  39.464  11.149  10.056
57226W        W16322  14.666  39.553   1.747
57227W        W16323  41.434  12.244   2.280
57228W        W16324  42.406  30.574  10.631
57229W        W16325  43.898   8.211  14.306
57230W        W16326   7.878  21.166  11.942
57231W        W16327  10.683  31.523   4.777
57232W        W16328  41.376  34.898  12.017
57233W        W16329  44.985  42.368   2.409
57234W        W16330  38.939  38.867  13.464
57235W        W16331   3.763  42.893  14.865
57236W        W16332   0.489   7.354   1.433
57237W        W16333   0.285  38.893  12.517
57238W        W16334  14.290   2.728   3.736
57239W        W16335  34.509  24.508   1.913
57240W        W16336  24.224  38.329  13.054
57241W        W16337  40.951  26.177   0.839
57242W        W16338  26.182  24.573   4.168
57243W        W16339  40.368  23.496   0.932
57244W        W16340  27.451  29.007  10.993
57245W        W16341  34.000  14.098   3.708
57246W        W16342  35.975  40.423  11.600
57247W        W16343  43.829  12.851   2.694
57248W        W16344  37.549  29.592   2.211
57249W        W16345  26.703   6.905   2.373
57250W        W16346  33.924  21.551   1.270
57251W        W16347  30.421  28.667   1.725
57252W        W16348   7.717   0.285  14.416
57253W        W16349  15.650  31.622   4.314
57254W        W16350   2.444   1.747  14.435
57255W        W16351  17.152   8.172   1.740
57256W        W16352   7.280  12.202   4.229
57257W        W16353  28.948  11.640   4.162
57258W        W16354  19.151   8.295  12.058
57259W        W16355   6.849  23.553   2.384
57260W        W16356  20.232  42.301   2.212
57261W        W16357  25.496  41.489  11.999
57262W        W16358  28.516  29.099  10.635
57263W        W16359  40.965  39.950  12.024
57264W        W16360  13.742  40.437   4.703
57265W        W16361  12.736  25.575  11.070
57266W        W16362  20.697  16.234   4.295
57267W        W16363   3.374  43.865   2.857
57268W        W16364   6.811  23.991  12.040
57269W        W16365  23.735  20.244   3.224
57270W        W16366   2.271  15.782  13.490
57271W        W16367   5.807  40.860   3.213
57272W        W16368  40.005  12.154  13.493
57273W        W16369  30.625  27.126  14.986
57274W        W16370  44.852   6.847  11.514
57275W        W16371  43.325  27.957  12.484
57276W        W16372  15.577  36.053   2.768
57277W        W16373  25.059  40.884   4.303
57278W        W16374   4.831   6.269   4.338
57279W        W16375  37.540  11.229  11.979
57280W        W16376  24.703   7.768  11.056
57281W        W16377  23.218  13.708  10.484
57282W        W16378   0.416   2.465  13.488
57283W        W16379  44.936  23.214   1.817
57284W        W16380  30.136  31.613  12.422
57285W        W16381  26.078  29.986   0.843
57286W        W16382  40.348  23.123   4.636
57287W        W16383  43.977  35.564  11.058
57288W        W16384  15.282   3.364  13.325
57289W        W16385  17.597  24.004  10.428
57290W        W16386  12.300  12.775   2.323
57291W        W16387   1.329  11.130  12.566
57292W        W16388   2.841  20.203  14.979
57293W        W16389  36.362  35.008  14.006
57294W        W16390  28.175  12.756  11.587
57295W        W16391  11.314  44.270   4.773
57296W        W16392  21.211  12.204  12.553
57297W        W16393  21.028  44.990  12.373
57298W        W16394   2.805  35.858   2.701
57299W        W16395  43.501  37.438  13.847
57300W        W16396  27.948  39.432   3.359
57301W        W16397  16.798  28.566   1.814
57302W        W16398   6.805   1.795  12.008
57303W        W16399   7.860  25.670  13.892
57304W        W16400   6.676  41.420   2.887
57305W        W16401  31.106  33.487  13.311
57306W        W16402  44.989  39.052  10.553
57307W        W16403  18.595  14.163  12.447
57308W        W16404   3.769  16.591  11.040
57309W        W16405   8.323  22.183  12.059
57310W        W16406  37.577  15.700   0.734
57311W        W16407  31.994  29.652   0.938
57312W        W16408  26.204  12.803  14.423
57313W        W16409  25.216  41.883  13.925
57314W        W16410  41.811  21.750   0.866
57315W        W16411   3.766  43.447   1.372
57316W        W16412   1.869  19.724   1.918
57317W        W16413  39.418  41.909   1.427
57318W        W16414  21.650  38.425   1.733
57319W        W16415  23.186   6.840  13.521
57320W        W16416  12.203  12.679  13.439
57321W        W16417  23.036   7.320   1.835
57322W        W16418  29.154   2.468   3.662
57323W        W16419  16.149  32.091   2.374
57324W        W16420  25.614  41.792  10.618
57325W        W16421  38.968  12.239  11.562
57326W        W16422  33.388  28.563   3.749
57327W        W16423  40.908   3.756   4.814
57328W        W16424  23.997   4.744  10.465
57329W        W16425   5.313  34.534   2.826
57330W        W16426  36.542  26.093  14.000
57331W        W16427  35.434  33.510   0.425
57332W        W16428   6.890   5.414  12.425
57333W        W16429  42.283   0.252   3.652
57334W        W16430   7.408  10.865   3.697
57335W        W16431  11.258  18.655  13.991
57336W        W16432  43.514  43.837  13.400
57337W        W16433  38.450  44.356  11.393
57338W        W16434  36.590  17.659   0.835
57339W        W16435  22.014   7.390  13.986
57340W        W16436  10.748  11.309   4.199
57341W        W16437   7.279  16.114   1.879
57342W        W16438  23.035  26.106   0.887
57343W        W16439   5.766  16.214   4.163
57344W        W16440  40.524   9.347  11.498
57345W        W16441   8.226   3.906  10.418
57346W        W16442  28.036  25.156   4.631
57347W        W16443  43.819  12.666   4.219
57348W        W16444  43.369  43.441  13.496
57349W        W16445  41.023  12.639  12.412
57350W        W16446   4.932  21.262   4.221
57351W        W16447  23.592  13.297   3.868
57352W        W16448   4.740   7.849  14.912
57353W        W16449  31.961  43.392  13.375
57354W        W16450  18.237   6.719   2.356
57355W        W16451  28.563  29.648  13.940
57356W        W16452  25.186  17.589  10.983
57357W        W16453  44.355  35.575  13.841
57358W        W16454  44.909   0.844  13.036
57359W        W16455  17.271  22.236  11.098
57360W        W16456  29.498  20.710   5.185
57361W        W16457  28.930  18.613   2.784
57362W        W16458  22.135   4.874  10.583
57363W        W16459  14.293   8.811   2.903
57364W        W16460   1.444  15.140  10.981
57365W        W16461  39.531  36.056  10.423
57366W        W16462   3.784   0.375  13.374
57367W        W16463  35.053   8.391  11.085
57368W        W16464  16.754  16.742   1.295
57369W        W16465   3.794  21.672  14.281
57370W        W16466   2.883  18.261  11.973
57371W        W16467   3.718   1.733  11.857
57372W        W16468  25.136   2.926  14.817
57373W        W16469  16.656  26.604   4.646
57374W        W16470  15.694   6.376   3.261
57375W        W16471   1.812  18.653   0.411
57376W        W16472  28.996   4.908  12.435
57377W        W16473  34.882  35.096   0.293
57378W        W16474   3.316   4.232  13.047
57379W        W16475  22.587   6.420   1.738
57380W        W16476   5.378  14.658  12.869
57381W        W16477  22.106   9.347  14.771
57382W        W16478  18.225   5.878   4.258
57383W        W16479  38.990   9.277   1.401
57384W        W16480  33.131  26.099   5.607
57385W        W16481  19.534  28.165   2.210
57386W        W16482   6.687  16.173  11.559
57387W        W16483  17.658   5.401  12.884
57388W        W16484  21.694  44.895  13.390
57389W        W16485   4.426  34.459   0.811
57390W        W16486   4.739   3.758  12.014
57391W        W16487  17.076  23.500  10.537
57392W        W16488  29.060   3.224  14.429
57393W        W16489  28.511   9.156  12.560
57394W        W16490   8.879  17.096   1.411
57395W        W16491  33.511  30.019  11.989
57396W        W16492  16.142  11.627  14.029
57397W        W16493  32.973  42.356   4.228
57398W        W16494  41.003  22.194  14.402
57399W        W16495  18.140  42.967   4.272
57400W        W16496  30.148  19.104   4.189
57401W        W16497  23.516   8.190  14.985
57402W        W16498  40.861  34.496  13.063
57403W        W16499  12.670  23.498   0.963
57404W        W16500  36.478  34.538   2.256
57405W        W16501  24.173  17.598   0.943
57406W        W16502  44.325  22.549   5.103
57407W        W16503  15.665   4.799   3.706
57408W        W16504   8.882   8.839   2.284
57409W        W16505   2.743  35.561  14.868
57410W        W16506   5.783  35.539  11.106
57411W        W16507  26.650  19.596  14.513
57412W        W16508  40.357  25.525   2.263
57413W        W16509  19.269  31.523   3.243
57414W        W16510  14.803  40.920  14.028
57415W        W16511  40.326  32.557   3.306
57416W        W16512  37.434   6.188  12.060
57417W        W16513  25.008  36.441  11.611
57418W        W16514  22.166  25.133   4.347
57419W        W16515  18.121  43.952  11.609
57420W        W16516  20.214  11.853  11.916
57421W        W16517  18.053  14.263  10.887
57422W        W16518  11.263  19.537   1.866
57423W        W16519  43.876  36.568  13.842
57424W        W16520  35.927  10.279  11.982
57425W        W16521   1.320  32.559   4.210
57426W        W16522  28.490  43.833   3.638
57427W        W16523   2.763  18.704   3.822
57428W        W16524  17.122  32.580   4.343
57429W        W16525  43.777  30.445   1.448
57430W        W16526  36.356  38.825   3.685
57431W        W16527  26.184  27.106   2.795
57432W        W16528  28.948  20.084   3.821
57433W        W16529   7.698   8.800   3.756
57434W        W16530  27.093  15.594   0.245
57435W        W16531  42.942  16.781  14.950
57436W        W16532  36.016  37.443  12.532
57437W        W16533   7.214   3.800  11.907
57438W        W16534  29.445  42.930  14.827
57439W        W16535  11.774   8.262   4.744
57440W        W16536  31.632  34.906  13.513
57441W        W16537  12.669  26.070   2.696
57442W        W16538   9.737  36.559  12.033
57443W        W16539  15.730  15.603   5.223
57444W        W16540  32.497  22.576   4.762
57445W        W16541  21.545  26.183   1.697
57446W        W16542  31.419  29.501  14.322
57447W        W16543  12.833  10.708   1.726
57448W        W16544   0.366  36.083  11.531
57449W        W16545  40.976  21.247  14.950
57450W        W16546  27.187  25.110   9.994
57451W        W16547   2.921  21.745   2.278
57452W        W16548  37.895  43.456  13.949
57453W        W16549  16.134  29.964  12.571
57454W        W16550  42.981  37.854   3.386
57455W        W16551  11.260  35.072   4.339
57456W        W16552  15.757  39.500   4.203
57457W        W16553  34.097  29.456  12.409
57458W        W16554  44.424   1.398  11.020
57459W        W16555  35.920  25.971  12.364
57460W        W16556  10.777  42.454  14.807
57461W        W16557   6.306  42.856  10.049
57462W        W16558  38.988  32.501  13.427
57463W        W16559  22.141  43.890  12.520
57464W        W16560  34.973  39.913  12.354
57465W        W16561   3.273  32.548  14.823
57466W        W16562   5.908   1.465  10.529
57467W        W16563  16.143  29.428   4.299
57468W        W16564  19.271   8.693   2.314
57469W        W16565  31.932  39.869  13.498
57470W        W16566   4.840  34.421   2.217
57471W        W16567   9.810   2.230   1.744
57472W        W16568  32.984  35.449   3.297
57473W        W16569   6.359  42.282   3.331
57474W        W16570  25.069   0.784  12.504
57475W        W16571  43.367  35.569  12.983
57476W        W16572  34.551  10.817   1.730
57477W        W16573  35.861   0.777  12.539
57478W        W16574  40.906   7.781   0.349
57479W        W16575  31.594  18.560  13.950
57480W        W16576   9.823  44.800  12.852
57481W        W16577  34.970  38.484  13.487
57482W        W16578   2.349  14.317   0.787
57483W        W16579  22.662   5.758  13.826
57484W        W16580   7.738  10.153  11.071
57485W        W16581  19.719   2.364  10.976
57486W        W16582  39.811  14.327   5.306
57487W        W16583  28.518  31.097   1.724
57488W        W16584  41.956  29.921   2.778
57489W        W16585  30.084  15.165   2.189
57490W        W16586   5.359   4.401  14.511
57491W        W16587  32.083  22.165  11.420
57492W        W16588  38.549  35.099  12.841
57493W        W16589   5.394  30.971   4.832
57494W        W16590  39.347  41.822  12.891
57495W        W16591  36.428  19.126   2.847
57496W        W16592  40.544  18.223  11.502
57497W        W16593  11.242  32.407   1.411
57498W        W16594  30.582  19.625  10.909
57499W        W16595  35.102  15.234  14.839
57500W        W16596  40.308   6.784   4.260
57501W        W16597  36.967  30.987  12.046
57502W        W16598  12.788  13.753   0.290
57503W        W16599  30.431  37.369   4.835
57504W        W16600  30.050  30.026  13.944
57505W        W16601  33.514  24.101   1.305
57506W        W16602  17.713  12.741   3.671
57507W        W16603  30.479  32.935  12.341
57508W        W16604  18.628  11.168  11.985
57509W        W16605   4.391  11.333   4.607
57510W        W16606  21.571  10.825   0.942
57511W        W16607  44.859  14.304  11.450
57512W        W16608  26.993  29.626   2.384
57513W        W16609  17.151  42.970   4.345
57514W        W16610  26.137   2.445  10.563
57515W        W16611  15.152  43.840   3.194
57516W        W16612  23.990  11.295  12.084
57517W        W16613   6.316   3.311  10.602
57518W        W16614   3.877  44.418  11.511
57519W        W16615   4.277   3.278   0.773
57520W        W16616  32.498  26.138   3.224
57521W        W16617  22.097  29.983   3.202
57522W        W16618  27.182  31.920  14.509
57523W        W16619  20.136   3.711  11.603
57524W        W16620  42.377  34.906  10.492
57525W        W16621  43.785  40.513   3.804
57526W        W16622  11.206   4.896   0.283
57527W        W16623  30.482  17.706  11.937
57528W        W16624  35.866  26.477   4.685
57529W        W16625  42.418   7.357  12.889
57530W        W16626  18.650  43.766   3.158
57531W        W16627  20.201  14.102   3.844
57532W        W16628  41.956  20.171   3.211
57533W        W16629  34.991  31.566  14.491
57534W        W16630  19.614  14.618   0.781
57535W        W16631  26.476  16.228  11.090
57536W        W16632  14.100   4.212   3.766
57537W        W16633  11.625  23.087   2.198
57538W        W16634  30.059  13.682  14.462
57539W        W16635   4.341  13.813  14.387
57540W        W16636   0.742  44.461   5.120
57541W        W16637  13.322  12.189  13.847
57542W        W16638  33.595  14.197  13.835
57543W        W16639   7.859   7.329  12.959
57544W        W16640  25.067  11.687  14.453
57545W        W16641  22.692  11.164  14.293
57546W        W16642   4.259  15.259   1.284
57547W        W16643   5.354  39.336   3.203
57548W        W16644  42.907  22.201   4.784
57549W        W16645  39.450  20.131  11.124
57550W        W16646   7.862  42.478   4.167
57551W        W16647  32.578  44.330  13.454
57552W        W16648  32.962  14.310   9.500
57553W        W16649  41.921  40.863   2.738
57554W        W16650  35.553  24.055  13.355
57555W        W16651   6.185  42.904   1.346
57556W        W16652   0.378  42.865   0.894
57557W        W16653  31.517  33.491   3.870
57558W        W16654  24.522  40.999   0.396
57559W        W16655  30.054  42.414  13.376
57560W        W16656  41.953   6.906   1.224
57561W        W16657  31.931   8.330  11.122
57562W        W16658  12.661  28.562   9.956
57563W        W16659  34.551  11.264  10.607
57564W        W16660   1.897  24.147  11.948
57565W        W16661  10.819  44.377   2.264
57566W        W16662  15.311  30.927   3.332
57567W        W16663  20.543  26.660  13.455
57568W        W16664  14.329  13.138  10.927
57569W        W16665  30.097  24.616   3.692
57570W        W16666  16.232   5.757  14.462
57571W        W16667  35.454  38.846   4.268
57572W        W16668  20.072  15.287   0.287
57573W        W16669  44.867  24.612   0.815
57574W        W16670  38.069   1.749   2.339
57575W        W16671  26.090  19.609  12.544
57576W        W16672   5.238  43.788  12.985
57577W        W16673  24.173  29.458  12.913
57578W        W16674   7.796  20.669  10.461
57579W        W16675  43.445   3.895  13.824
57580W        W16676   7.862  33.529  11.922
57581W        W16677  36.495  23.654  11.580
57582W        W16678  31.603  42.964   5.106
57583W        W16679  19.177  31.470   0.825
57584W        W16680  22.248  16.287  13.345
57585W        W16681   1.947  32.434   3.760
57586W        W16682  30.511  32.933   4.810
57587W        W16683  30.551  33.619   4.287
57588W        W16684  18.657  43.454  10.513
57589W        W16685  39.473  39.554  13.419
57590W        W16686  18.673  25.690  12.404
57591W        W16687   8.290  13.841   2.870
57592W        W16688  41.414   7.708   2.873
57593W        W16689  18.713  11.805  11.503
57594W        W16690   8.390  15.090  12.433
57595W        W16691  26.628  15.627   3.242
57596W        W16692  37.910  38.897   4.215
57597W        W16693  15.200  42.855   4.266
57598W        W16694  25.550  26.587   0.875
57599W        W16695  30.589  43.877   0.732
57600W        W16696   5.370  30.505  10.599
57601W        W16697  13.138  28.570  14.278
57602W        W16698  21.256  21.229  11.504
57603W        W16699  20.104  26.088  14.975
57604W        W16700  25.975   9.855   1.290
57605W        W16701  20.769   4.739  11.869
57606W        W16702  20.566  16.760   0.872
57607W        W16703   7.407  24.989   0.826
57608W        W16704  39.894   6.894  10.971
57609W        W16705  35.060  16.744  14.862
57610W        W16706  19.679  24.207  14.403
57611W        W16707  35.442  37.913  10.592
57612W        W16708  23.220  12.640  12.575
57613W        W16709  33.442  34.009   4.187
57614W        W16710  36.570  44.350   5.225
57615W        W16711  16.633   6.400  14.878
57616W        W16712   6.825  21.552   1.361
57617W        W16713  37.847  39.903   3.650
57618W        W16714  19.254  10.643   1.373
57619W        W16715  19.263  21.209  14.856
57620W        W16716  17.601  12.649   0.442
57621W        W16717  26.557  19.195  12.512
57622W        W16718  37.054  44.790   3.215
57623W        W16719  25.560   9.388   1.799
57624W        W16720  38.907  38.063   4.660
57625W        W16721  37.407   3.946   1.410
57626W        W16722  26.113  22.581  10.507
57627W        W16723  25.000  34.108   1.829
57628W        W16724  11.703  20.757   1.800
57629W        W16725  18.595  36.960   3.156
57630W        W16726  41.447  38.400  10.502
57631W        W16727  32.616  20.221   1.928
57632W        W16728  24.598  19.164   0.428
57633W        W16729   8.247  43.938   4.320
57634W        W16730  33.098  34.538   3.718
57635W        W16731   0.906   0.267  13.808
57636W        W16732  30.063  38.050   1.328
57637W        W16733  41.790  21.077   4.744
57638W        W16734   4.842   8.750  13.321
57639W        W16735  36.447  30.106   0.442
57640W        W16736  13.139   1.903   2.330
57641W        W16737   8.364  44.439   1.771
57642W        W16738   4.219  18.097   2.724
57643W        W16739  33.962  28.494   0.344
57644W        W16740  10.755  22.231  11.460
57645W        W16741  32.982  22.174  13.315
57646W        W16742  17.627  34.913  10.564
57647W        W16743  18.786  43.408  14.501
57648W        W16744  26.631  11.217  13.543
57649W        W16745  44.998  35.566  11.046
57650W        W16746   7.408  17.255  12.496
57651W        W16747  30.548  12.746  14.833
57652W        W16748  40.052  28.634  13.014
57653W        W16749  12.699  30.633  11.888
57654W        W16750  14.276  25.075  13.364
57655W        W16751   3.774  29.141  14.943
57656W        W16752  13.194  25.507   4.660
57657W        W16753   7.321  25.603  12.424
57658W        W16754   2.271  21.576  12.953
57659W        W16755  20.673   6.422  11.890
57660W        W16756  24.634   2.849  10.952
57661W        W16757  32.549   6.228  13.025
57662W        W16758  14.094  37.464   2.668
57663W        W16759  39.459   6.427   3.198
57664W        W16760   8.339  37.582  11.508
57665W        W16761   5.290  27.195  13.031
57666W        W16762   2.821   3.346   4.703
57667W        W16763  36.526  27.978   0.351
57668W        W16764  38.842  28.961  11.877
57669W        W16765  33.894  12.349  14.403
57670W        W16766  16.749  35.103   2.248
57671W        W16767  39.843  26.028  14.309
57672W        W16768  35.952  27.686   1.834
57673W        W16769   1.410   1.362   3.848
57674W        W16770   8.219   6.862   3.863
57675W        W16771  30.594  28.680   4.286
57676W        W16772  15.641  32.500   1.323
57677W        W16773  11.294   0.830   2.834
57678W        W16774  40.419  22.562   4.771
57679W        W16775  17.585  18.568  13.417
57680W        W16776   1.808  32.545  12.389
57681W        W16777  39.834  25.699  14.787
57682W        W16778   3.442  35.463   3.637
57683W        W16779  21.128   1.283  10.633
57684W        W16780   7.764  10.675  13.402
57685W        W16781  28.602  42.338   2.294
57686W        W16782  42.496  44.998  11.387
57687W        W16783  15.749  25.515   3.251
57688W        W16784  11.219  17.148   2.700
57689W        W16785   2.883  29.956   2.199
57690W        W16786  28.022  41.451   0.407
57691W        W16787   0.851  39.937  12.872
57692W        W16788  10.225   1.276  14.002
57693W        W16789  38.064   6.297  10.621
57694W        W16790  36.896  15.178   3.801
57695W        W16791  36.354  42.011  10.426
57696W        W16792  35.416  34.937  13.942
57697W        W16793  34.536  12.167   2.355
57698W        W16794   2.409  13.215  14.379
57699W        W16795  41.409  44.390   0.411
57700W        W16796  21.167  14.336   3.369
57701W        W16797  34.089  10.776   1.912
57702W        W16798  19.672  14.702  13.917
57703W        W16799  14.801   3.832   0.865
57704W        W16800  42.451  13.146   4.805
57705W        W16801  31.139  27.564  14.405
57706W        W16802  24.987  36.072  11.955
57707W        W16803  18.571  35.420  13.879
57708W        W16804  13.144   9.385  12.419
57709W        W16805  39.876  32.091   4.232
57710W        W16806   7.312  31.050  10.535
57711W        W16807  23.203   0.426   0.798
57712W        W16808  31.412   6.773  13.933
57713W        W16809  39.514  28.148  13.960
57714W        W16810  11.861   7.345   3.637
57715W        W16811   1.443  40.976  11.087
57716W        W16812  29.094   3.782   1.875
57717W        W16813   9.219  12.143   4.331
57718W        W16814  27.481  37.937   3.665
57719W        W16815  18.741  14.120  11.452
57720W        W16816  34.920  20.733   2.846
57721W        W16817   5.239  44.826  10.955
57722W        W16818  36.377  42.500  12.837
57723W        W16819  43.967  13.342   0.858
57724W        W16820  30.633  25.997   2.386
57725W        W16821  21.213  38.475   0.431
57726W        W16822  36.572  31.532   4.808
57727W        W16823  25.115  40.370   2.320
57728W        W16824   6.304  38.054   3.810
57729W        W16825  38.554  38.984  14.862
57730W        W16826  20.687  32.960  12.343
57731W        W16827   4.919  15.807  13.317
57732W        W16828   5.373   6.752  11.049
57733W        W16829   4.228   8.839   4.645
57734W        W16830  27.992   2.878  13.387
57735W        W16831  18.268  34.435  11.059
57736W        W16832   1.304   5.919   3.324
57737W        W16833  31.611  44.991   1.368
57738W        W16834  30.091   6.221  14.404
57739W        W16835  17.588  39.040   3.727
57740W        W16836   1.290  22.194   0.941
57741W        W16837  13.177  33.110   0.887
57742W        W16838  23.071   4.738  13.847
57743W        W16839  30.005   4.391  12.393
57744W        W16840   9.195  19.251  14.275
57745W        W16841  27.449  21.217   4.326
57746W        W16842  37.374   4.288   1.764
57747W        W16843   2.879   2.319   1.301
57748W        W16844   4.760  16.612   3.810
57749W        W16845  14.216  22.159   4.198
57750W        W16846  11.759  12.749   0.914
57751W        W16847  44.453   7.327   1.433
57752W        W16848  13.176  30.028   1.911
57753W        W16849  17.612  16.105  14.301
57754W        W16850  22.105   8.802  12.033
57755W        W16851  42.850   9.760  12.080
57756W        W16852  18.569   0.453   3.675
57757W        W16853  29.424  28.999  10.947
57758W        W16854   6.234  18.065   0.439
57759W        W16855  20.684  24.115  12.047
57760W        W16856   5.219  17.257   1.757
57761W        W16857  31.138  14.619  12.428
57762W        W16858  42.016  30.965   0.934
57763W        W16859  31.474   4.787   4.790
57764W        W16860  20.695  27.631  14.429
57765W        W16861  39.511  26.104  14.927
57766W        W16862  40.344  44.437   2.776
57767W        W16863  16.695   6.828  12.949
57768W        W16864  35.993  11.312   3.273
57769W        W16865   5.863   9.277   2.188
57770W        W16866  15.167   7.405   4.220
57771W        W16867   4.218  30.624  14.918
57772W        W16868  27.970  33.620  11.062
57773W        W16869  18.081  36.532  12.488
57774W        W16870  28.166  24.119  12.482
57775W        W16871  26.513  30.424   3.652
57776W        W16872   4.707   2.410   4.691
57777W        W16873  33.941  11.845   4.754
57778W        W16874  40.944  25.616  12.403
57779W        W16875   2.903   3.902   1.359
57780W        W16876  30.152  12.295   3.664
57781W        W16877  11.157  19.122  12.528
57782W        W16878  25.970  41.808  11.984
57783W        W16879  27.107  14.214  13.926
57784W        W16880   2.777  26.039  11.449
57785W        W16881  33.039  37.365  10.919
57786W        W16882   5.369  14.320  11.483
57787W        W16883  29.667  11.741  10.911
57788W        W16884  12.123  27.941   3.666
57789W        W16885  10.274  36.452  13.347
57790W        W16886   8.767  32.432  13.326
57791W        W16887  19.143  37.520  10.546
57792W        W16888   3.458  21.730  11.028
57793W        W16889  30.962  27.589  12.044
57794W        W16890  20.181  26.680  14.396
57795W        W16891  11.328  38.539  11.896
57796W        W16892  14.688  10.769   2.250
57797W        W16893   4.766   8.299  14.787
57798W        W16894  24.016  29.642  12.065
57799W        W16895  36.944  41.378  11.969
57800W        W16896   6.277  39.519  13.977
57801W        W16897   3.937   1.380  12.419
57802W        W16898  11.333  39.359   3.373
57803W        W16899   4.820  20.091   1.405
57804W        W16900  11.633  22.146   1.701
57805W        W16901  14.636   8.354  10.571
57806W        W16902  24.707  43.987   2.839
57807W        W16903  33.101   6.229   0.758
57808W        W16904  30.583   9.788   1.414
57809W        W16905  12.649  15.578   2.730
57810W        W16906  40.478  10.238   5.270
57811W        W16907  42.479  22.568  11.419
57812W        W16908  34.065  18.090   2.249
57813W        W16909  31.128  33.577   2.782
57814W        W16910  21.719  10.190   3.377
57815W        W16911  36.520  26.629   1.317
57816W        W16912  31.034  21.248   4.114
57817W        W16913  34.945  29.965  13.369
57818W        W16914   4.416  32.894   4.625
57819W        W16915  39.834  12.310   4.681
57820W        W16916  43.322  42.811  14.888
57821W        W16917   6.684  28.595   4.627
57822W        W16918  24.077  36.947   4.272
57823W        W16919  26.979   2.728  11.505
57824W        W16920  14.631  21.599  13.369
57825W        W16921  33.881  14.803   5.582
57826W        W16922   7.816  24.697  10.947
57827W        W16923  42.927  20.598   3.730
57828W        W16924  20.188  33.444   5.100
57829W        W16925  38.022  34.106  10.611
57830W        W16926  31.944  32.896   0.879
57831W        W16927  44.362  44.408   4.338
57832W        W16928  12.730   2.370  10.590
57833W        W16929  24.480  22.633   1.862
57834W        W16930  10.791  21.171   0.304
57835W        W16931  28.130  22.645  11.983
57836W        W16932  23.196  33.452   0.915
57837W        W16933  16.634   9.762   0.432
57838W        W16934   9.722  12.849  14.917
57839W        W16935  26.193  30.990  14.442
57840W        W16936   7.856  43.946   4.337
57841W        W16937  15.728  36.022   4.677
57842W        W16938  20.066  12.148  14.013
57843W        W16939  12.319   4.756  14.985
57844W        W16940  39.955  36.358  10.596
57845W        W16941  15.732  29.022  12.348
57846W        W16942  10.297  37.455   1.890
57847W        W16943  36.904  20.062   4.280
57848W        W16944   8.773  11.229   2.846
57849W        W16945  12.182  25.098   1.909
57850W        W16946   5.238  15.700  12.096
57851W        W16947  24.143  35.909   2.362
57852W        W16948   0.905  34.914  11.535
57853W        W16949  33.945   0.805   4.694
57854W        W16950  27.184  14.675  11.987
57855W        W16951  44.848  34.433   1.742
57856W        W16952  44.819  33.125   3.746
57857W        W16953  22.709  38.889   1.225
57858W        W16954  35.555  12.629   4.748
57859W        W16955   2.966   3.904  11.466
57860W        W16956  29.091  11.711   4.629
57861W        W16957   7.683   3.935   0.246
57862W        W16958  35.097   3.226  13.514
57863W        W16959   6.364  38.018  12.833
57864W        W16960  24.529  35.868  14.455
57865W        W16961  44.852  13.142   2.210
57866W        W16962  12.304  38.923  10.940
57867W        W16963  35.920  34.980  12.003
57868W        W16964  23.188  41.821  12.567
57869W        W16965  17.164   9.303   3.282
57870W        W16966  22.559  37.049  13.974
57871W        W16967  32.960  15.288   4.187
57872W        W16968   4.344  19.659  10.544
57873W        W16969  14.757   3.246  11.935
57874W        W16970  40.921  22.085   2.848
57875W        W16971  31.023   5.417   3.744
57876W        W16972  20.529  24.492  13.799
57877W        W16973   7.350  29.432  11.919
57878W        W16974  34.102  14.615   1.413
57879W        W16975  21.202  17.756  11.028
57880W        W16976  34.095  17.588  10.419
57881W        W16977  23.725  32.096  14.311
57882W        W16978  39.452   5.353   4.661
57883W        W16979  13.644  33.935  13.430
57884W        W16980  32.922  17.085   2.709
57885W        W16981  23.022  27.105   0.371
57886W        W16982  26.037  24.530   3.341
57887W        W16983  14.321  43.906  12.445
57888W        W16984  35.389  36.477   2.675
57889W        W16985   7.179   8.816  12.027
57890W        W16986   1.286  41.907   1.722
57891W        W16987  23.670  17.762  14.839
57892W        W16988  26.650   5.921   3.371
57893W        W16989  13.760  32.953   0.874
57894W        W16990  42.834  35.492   4.805
57895W        W16991  34.874  30.928  11.990
57896W        W16992  30.517   7.892   0.332
57897W        W16993   9.358   6.190  13.022
57898W        W16994  30.016  11.203  11.391
57899W        W16995  24.211  39.478   2.219
57900W        W16996   7.715   4.275  13.323
57901W        W16997  40.846  43.803  14.871
57902W        W16998  36.976  41.833   1.333
57903W        W16999   1.349  43.000  13.804
57904W        W17000  18.063  33.012  11.995
57905W        W17001   7.393  11.225   3.194
57906W        W17002   8.793  25.613  11.965
57907W        W17003  38.981  39.374   4.233
57908W        W17004  43.005  23.198   1.801
57909W        W17005  18.569   6.835   3.334
57910W        W17006  26.991   8.210  12.351
57911W        W17007  35.874  29.919   3.676
57912W        W17008  42.948  10.294   0.344
57913W        W17009  38.873  43.330  12.444
57914W        W17010   3.426  28.635  13.380
57915W        W17011  35.604  19.264   2.400
57916W        W17012  17.076  12.120  12.480
57917W        W17013  19.685   0.864   4.769
57918W        W17014  27.088  36.990   2.416
57919W        W17015  39.978   3.849   0.944
57920W        W17016  39.506   1.881   2.415
57921W        W17017  37.014  14.301   1.428
57922W        W17018   1.370  28.565  13.995
57923W        W17019  14.324  40.912  11.595
57924W        W17020  28.507  33.446  13.425
57925W        W17021  11.183  31.023   4.129
57926W        W17022  41.938   3.834   0.388
57927W        W17023   5.434  18.122   0.776
57928W        W17024  34.939   2.293   3.218
57929W        W17025  11.243  40.536  12.508
57930W        W17026  38.014  11.673   3.245
57931W        W17027   1.928  42.845  13.510
57932W        W17028   5.758   2.392  10.965
57933W        W17029  20.580  15.806   1.742
57934W        W17030   7.375  32.132  10.568
57935W        W17031   0.271  28.580  12.530
57936W        W17032   8.190  25.468  12.062
57937W        W17033   5.214  34.057  12.866
57938W        W17034  19.648  40.386  13.349
57939W        W17035  25.071  13.756  11.905
57940W        W17036  21.611  23.151  11.092
57941W        W17037  25.179  11.288  14.889
57942W        W17038   2.844  19.130  13.363
57943W        W17039  14.630  24.012  10.468
57944W        W17040  28.011  15.693  13.376
57945W        W17041  19.537  27.135   1.375
57946W        W17042  32.116  24.713  11.964
57947W        W17043  25.479  10.877   2.351
57948W        W17044   2.848  16.262   1.273
57949W        W17045  18.141  28.541   4.603
57950W        W17046  44.386  16.763   4.293
57951W        W17047  20.110  35.539   1.748
57952W        W17048  21.095  12.201  13.443
57953W        W17049   6.372  13.287  11.948
57954W        W17050  22.560  30.620  13.307
57955W        W17051  25.570  32.508  13.826
57956W        W17052   2.794  37.407   4.254
57957W        W17053  37.512  33.947   4.817
57958W        W17054  14.699  31.526  12.846
57959W        W17055   9.271  39.531   2.876
57960W        W17056   8.203  42.828   0.888
57961W        W17057  28.637   5.297   2.366
57962W        W17058  44.770   2.451  13.497
57963W        W17059  24.070  37.867  14.026
57964W        W17060  24.025  11.764   3.171
57965W        W17061  12.668  44.971   3.686
57966W        W17062   3.939  23.064  12.535
57967W        W17063  18.142  44.996  11.533
57968W        W17064  18.563  14.338   2.415
57969W        W17065  31.007  33.941  12.071
57970W        W17066   3.443  27.146   4.201
57971W        W17067  19.161   3.267   2.845
57972W        W17068   9.367  29.162  13.361
57973W        W17069  39.973  14.160   2.868
57974W        W17070   2.904  35.881  11.389
57975W        W17071  23.057  13.771   2.333
57976W        W17072   5.381   4.756   3.713
57977W        W17073   5.252  39.858  10.976
57978W        W17074  27.078  17.727  12.996
57979W        W17075  23.493  33.421   1.809
57980W        W17076  19.641   2.784   4.780
57981W        W17077   4.938  29.521  14.872
57982W        W17078  40.869  40.828   2.307
57983W        W17079  33.994  17.798  13.531
57984W        W17080  13.775  20.213  11.477
57985W        W17081   4.412  15.646   1.353
57986W        W17082   5.880  30.133  10.569
57987W        W17083  15.285   8.372  12.349
57988W        W17084  42.014  11.747  11.524
57989W        W17085   4.316  42.339   2.219
57990W        W17086  11.273  21.577  11.495
57991W        W17087  42.438  18.250   1.776
57992W        W17088  33.525  20.596   0.303
57993W        W17089  33.934  34.440   3.750
57994W        W17090  17.135  23.548  13.955
57995W        W17091  30.011  39.363   4.238
57996W        W17092  18.755  20.162   0.318
57997W        W17093  14.186  19.539   0.414
57998W        W17094  11.833  15.180  12.018
57999W        W17095  43.993  33.536  11.401
58000W        W17096   8.759  34.485  12.480
58001W        W17097  11.864   1.841   4.344
58002W        W17098  22.106   3.720   4.829
58003W        W17099  41.373  44.505   3.857
58004W        W17100  17.274  34.487   1.875
58005W        W17101  40.421   3.419  13.372
58006W        W17102  36.008  31.584  13.483
58007W        W17103  15.592   7.692  14.814
58008W        W17104  19.152  39.393  14.934
58009W        W17105  28.661   9.664  11.605
58010W        W17106  10.867  42.018  12.082
58011W        W17107  37.383  44.011  13.815
58012W        W17108  17.801  18.295   0.322
58013W        W17109  13.733  39.021  13.064
58014W        W17110  20.235   8.229   1.864
58015W        W17111  14.805   6.869  12.906
58016W        W17112  28.631  36.094  11.475
58017W        W17113  41.509  14.316  10.942
58018W        W17114  11.373  29.174  14.830
58019W        W17115  40.051  12.657   4.154
58020W        W17116   4.406   9.251  13.813
58021W        W17117  18.780   2.419   4.710
58022W        W17118   9.268  42.482  11.115
58023W        W17119  23.113  25.711  12.408
58024W        W17120  31.048  25.522   3.832
58025W        W17121  38.396   6.802  11.493
58026W        W17122   9.795  28.591  11.031
58027W        W17123   3.289  38.558  10.579
58028W        W17124   8.226   1.753   1.770
58029W        W17125  12.319  33.045   2.755
58030W        W17126   7.777  30.078  11.401
58031W        W17127  36.975  34.610   1.905
58032W        W17128  11.346  30.549  13.950
58033W        W17129   7.699  39.879   1.718
58034W        W17130   5.207  16.194   0.871
58035W        W17131  32.087  15.312  12.085
58036W        W17132  18.225  40.463   4.657
58037W        W17133  22.525  44.311  13.866
58038W        W17134  22.071  18.717  11.103
58039W        W17135  39.478  24.640  10.585
58040W        W17136  17.197  26.520   5.286
58041W        W17137  25.189  39.497  11.115
58042W        W17138  35.571  19.765  11.027
58043W        W17139  22.013  24.174   1.328
58044W        W17140  33.943  25.599   4.812
58045W        W17141   6.858  23.648  12.024
58046W        W17142   2.811   8.390   3.725
58047W        W17143  18.767  11.196  10.515
58048W        W17144   2.762  18.245   3.345
58049W        W17145  34.481  34.449  12.922
58050W        W17146  15.276  26.033   3.182
58051W        W17147  40.422  30.138  12.546
58052W        W17148   9.734  10.244  10.458
58053W        W17149  24.195  44.303   3.303
58054W        W17150  13.345  16.096   1.267
58055W        W17151   7.767  29.492   4.310
58056W        W17152   0.922  33.515   2.688
58057W        W17153  42.003   4.334  12.835
58058W        W17154  29.436   8.685  10.623
58059W        W17155  41.036  30.641   4.127
58060W        W17156  37.067  24.511   3.223
58061W        W17157  42.401  25.141  11.451
58062W        W17158  38.523  12.159  14.884
58063W        W17159  17.241  38.974   0.419
58064W        W17160  32.950   1.448  11.871
58065W        W17161   2.757   2.472  12.861
58066W        W17162  35.472  37.015  12.865
58067W        W17163   5.914  15.728   0.254
58068W        W17164  21.231  26.124   0.917
58069W        W17165   7.756   1.373   3.809
58070W        W17166  23.078  13.844   4.791
58071W        W17167  31.918  10.806   0.380
58072W        W17168  30.618  15.226  13.448
58073W        W17169   9.805  16.757   3.166
58074W        W17170   0.409  18.593   0.387
58075W        W17171   5.911  42.931   4.763
58076W        W17172   3.375  21.523   3.181
58077W        W17173  29.619  28.651  12.838
58078W        W17174  38.519  30.924  11.897
58079W        W17175   4.375  27.463   2.748
58080W        W17176  23.161  26.658  12.963
58081W        W17177  23.031  14.601   1.333
58082W        W17178  20.273  27.052   4.815
58083W        W17179  18.686  41.468   5.215
58084W        W17180  26.965  12.666  12.974
58085W        W17181  26.132  37.543   0.872
58086W        W17182  22.213   4.828   4.121
58087W        W17183  33.559  18.610  14.450
58088W        W17184  12.203  44.929  13.902
58089W        W17185  27.517   4.711  14.801
58090W        W17186  37.411  21.263   3.726
58091W        W17187   6.704  33.120  12.364
58092W        W17188   9.774  29.121   4.668
58093W        W17189  42.505  18.573  14.292
58094W        W17190   4.726  20.647   0.316
58095W        W17191  10.292  19.095  12.551
58096W        W17192  28.673  39.909  14.803
58097W        W17193  29.928  16.709   4.661
58098W        W17194  12.175   4.865   0.381
58099W        W17195  37.984  19.636  14.963
58100W        W17196  35.420  39.321  10.631
58101W        W17197   7.890   3.759   4.329
58102W        W17198  20.645  28.935   3.711
58103W        W17199  23.146  27.106  14.816
58104W        W17200  13.159  26.995  14.398
58105W        W17201  12.234  13.618  13.802
58106W        W17202   5.366   7.303   4.162
58107W        W17203  35.416  33.577  11.050
58108W        W17204  28.587  13.841   2.363
58109W        W17205  10.785  13.137   0.921
58110W        W17206  13.685  16.737   0.463
58111W        W17207  11.665   5.834  11.378
58112W        W17208   0.874  40.415   2.228
58113W        W17209  20.110  35.428  10.425
58114W        W17210  36.054  18.712  11.453
58115W        W17211   3.285  38.377   0.454
58116W        W17212  18.580   4.868  10.474
58117W        W17213   6.249  32.509  13.023
58118W        W17214  15.667   5.923   2.257
58119W        W17215  22.583  41.840   3.234
58120W        W17216  14.808  33.583   1.437
58121W        W17217   9.226   5.698  13.347
58122W        W17218   5.305  42.341   3.864
58123W        W17219   4.813  36.993  13.900
58124W        W17220  35.059  40.986  10.456
58125W        W17221  13.293  10.842   1.301
58126W        W17222  28.564  37.474   1.844
58127W        W17223  31.993   4.238   4.750
58128W        W17224   5.419  24.046   0.345
58129W        W17225  28.597  22.531  13.905
58130W        W17226  31.909   7.735  13.548
58131W        W17227   5.896  33.410  12.916
58132W        W17228  41.444  16.664  14.347
58133W        W17229   2.251   5.836  13.930
58134W        W17230  15.154  22.608   1.708
58135W        W17231   0.389  13.735   1.339
58136W        W17232  20.664  27.540   2.394
58137W        W17233  27.126  13.139   2.242
58138W        W17234   2.321  20.708   0.807
58139W        W17235  35.074  24.669   1.398
58140W        W17236  14.705  10.656   3.645
58141W        W17237  35.494   1.762   3.372
58142W        W17238  12.124   2.441   0.899
58143W        W17239  37.427  41.907  10.601
58144W        W17240  32.551  30.633   3.674
58145W        W17241  27.121  33.973  11.553
58146W        W17242   4.767  10.248  10.640
58147W        W17243  24.496  25.126  12.483
58148W        W17244  39.941   5.736  12.969
58149W        W17245  36.015  38.383  13.021
58150W        W17246  33.442  12.337  12.535
58151W        W17247  15.728  44.402  14.951
58152W        W17248  13.333  25.594   0.308
58153W        W17249  18.246  15.152  11.018
58154W        W17250   7.296  20.078   3.768
58155W        W17251   1.347  32.615   2.264
58156W        W17252  24.212  17.241  14.803
58157W        W17253  11.682  41.039   0.864
58158W        W17254  40.898  11.705   2.662
58159W        W17255  36.968  22.119  13.380
58160W        W17256  20.237  20.548  14.765
58161W        W17257  41.373  22.230  13.541
58162W        W17258  21.727  18.274  10.640
58163W        W17259  25.105  14.270  10.405
58164W        W17260  44.961  29.448   4.239
58165W        W17261   7.411  44.366  13.037
58166W        W17262  10.804  42.815   4.207
58167W        W17263  22.074  28.592   0.924
58168W        W17264  28.138  12.758   0.924
58169W        W17265  41.922  29.933   4.710
58170W        W17266   7.268  32.501  11.523
58171W        W17267  23.494  20.242   9.506
58172W        W17268   8.786  22.614   1.235
58173W        W17269   9.732  26.022   3.709
58174W        W17270  36.909  40.308   3.332
58175W        W17271  12.835  34.497   2.699
58176W        W17272  13.222  34.497   0.782
58177W        W17273  16.234  41.396   0.938
58178W        W17274   4.292   0.947   2.863
58179W        W17275  16.590  17.269  10.606
58180W        W17276  23.711  23.206  11.050
58181W        W17277  33.070  26.095  13.906
58182W        W17278  31.462  39.927  12.065
58183W        W17279  39.962  39.483   4.144
58184W        W17280  18.236  26.657  12.841
58185W        W17281  31.099  22.591   3.362
58186W        W17282   1.807  32.891  11.436
58187W        W17283   1.413   1.791   0.474
58188W        W17284  27.595  36.546  11.951
58189W        W17285  24.010  35.469  14.477
58190W        W17286  11.691  27.471  12.483
58191W        W17287  14.288  37.469   5.095
58192W        W17288  32.609   3.288   3.363
58193W        W17289  11.174  12.327  13.029
58194W        W17290   4.780  13.842   2.863
58195W        W17291  41.966  28.487   1.804
58196W        W17292  40.850   9.691   3.716
58197W        W17293  41.844  43.417  14.905
58198W        W17294  10.250  35.930  12.994
58199W        W17295  33.412  35.391  13.493
58200W        W17296  37.955   9.155  14.833
58201W        W17297  28.141  43.503   1.712
58202W        W17298  15.307   4.751  14.875
58203W        W17299  44.317   3.919  14.761
58204W        W17300   6.701  23.176  14.770
58205W        W17301  35.514  11.758   0.797
58206W        W17302  34.912   7.690  12.398
58207W        W17303  36.057  36.369   4.808
58208W        W17304  15.207   8.689   1.858
58209W        W17305  19.079   6.903   0.385
58210W        W17306  34.473  25.142  13.964
58211W        W17307  14.275   6.693   1.387
58212W        W17308  27.540  20.178  13.497
58213W        W17309   3.933  32.886  13.857
58214W        W17310   0.871   7.894   4.622
58215W        W17311  32.567  39.479  10.579
58216W        W17312   7.835  18.659   0.835
58217W        W17313   8.785  43.362  10.616
58218W        W17314  14.256   1.347   0.735
58219W        W17315  16.591  32.584   9.637
58220W        W17316  17.285  21.262  12.567
58221W        W17317   4.267  43.297   3.629
58222W        W17318  15.251  35.947   3.211
58223W        W17319  37.436  43.493   3.771
58224W        W17320   6.277   8.689   9.970
58225W        W17321  18.661   4.423  13.055
58226W        W17322  43.337  30.593   0.442
58227W        W17323  16.770  16.187   1.898
58228W        W17324   1.787  19.210  10.640
58229W        W17325  36.951   7.242  14.373
58230W        W17326  18.675   4.215  10.424
58231W        W17327  17.644   1.972   2.688
58232W        W17328  42.366  13.316  10.431
58233W        W17329  31.088  17.749   0.876
58234W        W17330  30.539  40.511  13.951
58235W        W17331  27.686  23.626  10.933
58236W        W17332   9.238  35.929   0.444
58237W        W17333  25.593  16.175  14.911
58238W        W17334  42.880   5.297  11.589
58239W        W17335  25.484  22.156   0.799
58240W        W17336  26.568  37.581  14.974
58241W        W17337  38.988   2.428   3.813
58242W        W17338  18.231  23.092  14.420
58243W        W17339  17.288   4.750  10.490
58244W        W17340  25.081   2.915  13.042
58245W        W17341   3.296  31.561   0.346
58246W        W17342   6.219  23.689   3.201
58247W        W17343   6.394  25.504   1.362
58248W        W17344  26.965  37.987  12.433
58249W        W17345  25.516  27.974  12.829
58250W        W17346   9.728   1.244   4.736
58251W        W17347  31.041  25.199   5.727
58252W        W17348   3.420  16.660  13.538
58253W        W17349  44.894  34.457  11.923
58254W        W17350  42.312  34.393  10.535
58255W        W17351  42.874  44.319  12.463
58256W        W17352  23.729  37.339  11.373
58257W        W17353   4.868  21.590   2.858
58258W        W17354   9.149  20.179  13.343
58259W        W17355  27.054   4.895   0.343
58260W        W17356  14.136  35.025   4.141
58261W        W17357  19.666  25.140  11.973
58262W        W17358  15.114   3.386  12.989
58263W        W17359  39.373  36.059   4.696
58264W        W17360   8.808  17.622   2.782
58265W        W17361   0.282  34.576  12.828
58266W        W17362  19.172  40.810  12.072
58267W        W17363  36.544  37.458   4.273
58268W        W17364  15.185  25.532   4.269
58269W        W17365  24.693  13.220   3.630
58270W        W17366  23.538  42.427   2.783
58271W        W17367   4.772  35.564   5.114
58272W        W17368  20.673  10.171   4.335
58273W        W17369  38.059   0.491   3.228
58274W        W17370  23.704  30.615  14.357
58275W        W17371  33.117   2.384   2.412
58276W        W17372   8.734  12.345   4.322
58277W        W17373  26.566  18.778   0.285
58278W        W17374  41.823  42.471   4.258
58279W        W17375  16.306   6.296  12.475
58280W        W17376  33.106  32.085  12.998
58281W        W17377  11.227  37.342   5.294
58282W        W17378   7.808   4.781  10.118
58283W        W17379  31.631   7.865  11.982
58284W        W17380   2.450  18.226  12.524
58285W        W17381  21.078  23.569  12.393
58286W        W17382  22.746  35.989  13.869
58287W        W17383  10.161   7.729  12.910
58288W        W17384  25.584  15.618  14.769
58289W        W17385   3.794  42.941  14.032
58290W        W17386   0.937   0.770   1.345
58291W        W17387  18.136  27.006  14.362
58292W        W17388  10.751  44.003   1.891
58293W        W17389  35.407  43.911   1.337
58294W        W17390   9.686  39.439   4.279
58295W        W17391  23.218  20.658  12.031
58296W        W17392   3.353  28.445   2.748
58297W        W17393  41.348  14.267   1.928
58298W        W17394  31.952  44.779   0.470
58299W        W17395  33.911  26.552   3.379
58300W        W17396  11.254  21.597   4.638
58301W        W17397  17.161  21.658   2.186
58302W        W17398   1.418   3.436  11.923
58303W        W17399  22.091  29.563   3.201
58304W        W17400  21.658  11.309  14.794
58305W        W17401  23.099  35.489   4.185
58306W        W17402   6.373  25.698  13.906
58307W        W17403  19.063  11.159   2.891
58308W        W17404  41.040  21.037  12.843
58309W        W17405  38.516  28.165   2.265
58310W        W17406  24.978  30.009   2.301
58311W        W17407  37.994  13.287   0.375
58312W        W17408   1.355  40.846   4.239
58313W        W17409  42.326  11.647  10.955
58314W        W17410  17.750   6.330  11.482
58315W        W17411  31.442   8.321   1.874
58316W        W17412  13.241   8.845   1.877
58317W        W17413  41.485  21.084   1.800
58318W        W17414  18.097  10.154   1.313
58319W        W17415  22.519  20.592   4.673
58320W        W17416  11.843  16.610  12.929
58321W        W17417  11.773  34.052  12.075
58322W        W17418  30.418  19.559   1.853
58323W        W17419  38.988   3.877   1.818
58324W        W17420   2.810  41.460  10.969
58325W        W17421  10.862   3.887   4.671
58326W        W17422  17.206  22.727  13.004
58327W        W17423   1.367  22.615   1.702
58328W        W17424   1.861  35.003  10.569
58329W        W17425  15.597   1.856   2.416
58330W        W17426  24.690  33.520   2.749
58331W        W17427   9.272   6.228   2.722
58332W        W17428  16.738   3.798  13.940
58333W        W17429  17.755  41.792   3.812
58334W        W17430  21.098   7.296  11.497
58335W        W17431   7.218  16.155   0.468
58336W        W17432  22.615  33.561  12.861
58337W        W17433   0.775  12.141   0.281
58338W        W17434   7.725  21.220  13.455
58339W        W17435   1.426   2.469  10.615
58340W        W17436  28.166  35.367  12.054
58341W        W17437  27.566  36.037  13.393
58342W        W17438  28.182   4.216   9.973
58343W        W17439  38.366  36.537   2.347
58344W        W17440  42.385   9.257   0.424
58345W        W17441  30.120   4.246  14.511
58346W        W17442   1.266  30.614   0.733
58347W        W17443   5.248  12.707   0.777
58348W        W17444  11.667  10.281   0.965
58349W        W17445   2.249  10.280  11.407
58350W        W17446  27.493  23.538  11.476
58351W        W17447  19.557   2.374  11.426
58352W        W17448  12.619   4.725  14.876
58353W        W17449  41.312   8.204   4.654
58354W        W17450  27.972  31.927  14.910
58355W        W17451  18.180   2.746   4.285
58356W        W17452  12.281  21.638  11.925
58357W        W17453   7.903   2.416   2.719
58358W        W17454   1.246  34.583   1.902
58359W        W17455  22.076  23.585  14.019
58360W        W17456   6.416  33.603  14.984
58361W        W17457  28.092   7.743   1.259
58362W        W17458  13.737  15.196   4.623
58363W        W17459  43.973  21.244   0.953
58364W        W17460  10.798   9.723  13.951
58365W        W17461  15.323   5.833  14.502
58366W        W17462  26.056  19.582  14.830
58367W        W17463  25.667  39.027  14.906
58368W        W17464  33.504  39.015   4.133
58369W        W17465  15.611  15.213  13.325
58370W        W17466  32.121  42.438  13.813
58371W        W17467   0.822  14.717   3.290
58372W        W17468   6.713  15.709  13.387
58373W        W17469   0.908  42.786   2.867
58374W        W17470  17.799  19.689   0.309
58375W        W17471   4.317  11.266  12.454
58376W        W17472  34.445  24.691   2.346
58377W        W17473  12.775  36.563  13.451
58378W        W17474  33.937  26.108   1.702
58379W        W17475  30.159   5.334  11.047
58380W        W17476  22.541   7.300   3.716
58381W        W17477   7.757  39.434  11.048
58382W        W17478  25.172  14.240   0.787
58383W        W17479  24.221  12.827  13.427
58384W        W17480   5.376  11.348   3.264
58385W        W17481  20.123  35.473   4.247
58386W        W17482  38.007  15.295  13.020
58387W        W17483  25.103  29.089   4.740
58388W        W17484  13.647   2.251  13.980
58389W        W17485   3.442  22.733  11.991
58390W        W17486  22.074  33.590  13.341
58391W        W17487  29.015  33.409   2.282
58392W        W17488  40.048  32.553   2.697
58393W        W17489  23.606  42.966   1.214
58394W        W17490  39.519  23.128  14.853
58395W        W17491   4.304  39.926  11.017
58396W        W17492  16.807   3.926   1.781
58397W        W17493   8.786   3.248  11.981
58398W        W17494  36.043  38.958   3.207
58399W        W17495  25.710  21.656   2.673
58400W        W17496  40.327  30.419  14.975
58401W        W17497   8.178  27.495  12.444
58402W        W17498  42.028  34.526   4.659
58403W        W17499  32.555   1.455  11.512
58404W        W17500   1.752  24.528   1.839
58405W        W17501  27.956  15.122   1.733
58406W        W17502   2.453  18.205   1.334
58407W        W17503  14.670   6.747  12.032
58408W        W17504  32.427  31.930  10.148
58409W        W17505   7.807  14.683  12.407
58410W        W17506   0.334  24.039   4.832
58411W        W17507  43.407  35.429  13.351
58412W        W17508  15.758  31.148  13.048
58413W        W17509   8.234   4.725  10.974
58414W        W17510  34.870  10.774  14.496
58415W        W17511  18.080  16.808  14.510
58416W        W17512  40.994   9.322  12.894
58417W        W17513   2.237   2.791   3.277
58418W        W17514  36.898  14.626  11.117
58419W        W17515   3.717  31.112   2.339
58420W        W17516  32.067  16.813   2.403
58421W        W17517  25.653  35.092   1.772
58422W        W17518  27.007  29.662   3.317
58423W        W17519  33.413  30.582   4.703
58424W        W17520  30.074  39.399  14.882
58425W        W17521  10.283   5.333   3.756
58426W        W17522   9.767   7.665   1.440
58427W        W17523  20.264  14.712  11.957
58428W        W17524  22.243  26.131   4.163
58429W        W17525  23.608  27.534   2.675
58430W        W17526  13.781  14.701  11.117
58431W        W17527   9.168   1.480   4.789
58432W        W17528  34.039  36.095   0.748
58433W        W17529   7.729  14.739  11.916
58434W        W17530   1.399   4.418  12.965
58435W        W17531  30.605   1.363  12.916
58436W        W17532  27.681  30.971  13.529
58437W        W17533  22.730  17.265   1.358
58438W        W17534  41.531  37.471   1.765
58439W        W17535  11.786   9.867  14.337
58440W        W17536  35.074  27.652   1.260
58441W        W17537   0.974  23.560   0.483
58442W        W17538  35.864  39.901   2.800
58443W        W17539   6.272   5.423   4.138
58444W        W17540   3.433  10.761  11.050
58445W        W17541  14.689   3.728  12.398
58446W        W17542  20.226  22.638  11.931
58447W        W17543   4.407  23.238   2.771
58448W        W17544   6.868  43.827  14.880
58449W        W17545  20.072  17.671   2.195
58450W        W17546   9.386  11.746   4.663
58451W        W17547  36.540   0.432  11.519
58452W        W17548  44.289  42.959   4.710
58453W        W17549  37.887   3.364  12.578
58454W        W17550  13.638  12.324   0.398
58455W        W17551   5.931  42.874   4.116
58456W        W17552   1.846  18.706  12.473
58457W        W17553   5.390  36.384   2.715
58458W        W17554  33.485   0.270   0.403
58459W        W17555  19.674  11.292  11.111
58460W        W17556  13.770  41.850   3.380
58461W        W17557  11.851   5.915  14.852
58462W        W17558  21.511  18.689   3.651
58463W        W17559  38.047  18.716   4.629
58464W        W17560  34.920   4.361   3.360
58465W        W17561   7.733  10.713  12.968
58466W        W17562  29.511  37.835   4.652
58467W        W17563  19.758   3.849  11.602
58468W        W17564  11.149  28.666  14.903
58469W        W17565  38.459   8.212  12.897
58470W        W17566  26.164  15.226  13.513
58471W        W17567  32.086   1.372  13.379
58472W        W17568  28.139  38.457   0.381
58473W        W17569   5.836  25.144   4.305
58474W        W17570   0.887  29.556  14.027
58475W        W17571   9.280  24.646  12.385
58476W        W17572  12.346   3.262   1.232
58477W        W17573  19.053  24.016  14.459
58478W        W17574  24.052  31.969   0.792
58479W        W17575  18.236   6.801  13.893
58480W        W17576  29.568  20.127   3.374
58481W        W17577   8.299  28.621   2.239
58482W        W17578  34.596  31.555   0.767
58483W        W17579  21.719  13.820  11.397
58484W        W17580  22.504  39.377  14.306
58485W        W17581   7.833  13.124  13.053
58486W        W17582   7.809  18.775  14.909
58487W        W17583  28.510   6.348  10.994
58488W        W17584  32.123  30.072   2.721
58489W        W17585  17.179  32.102   1.212
58490W        W17586  24.106  14.639  10.576
58491W        W17587  34.514  19.696  13.024
58492W        W17588  17.229  13.700   4.661
58493W        W17589  43.861  12.755  14.340
58494W        W17590   7.282  27.158   0.356
58495W        W17591  13.263   0.924  11.083
58496W        W17592   9.344  42.346   1.276
58497W        W17593   5.377  12.116  12.910
58498W        W17594  29.935  20.240   2.880
58499W        W17595  17.261   9.205  14.801
58500W        W17596  31.461  21.225   0.798
58501W        W17597  41.485  28.533   2.703
58502W        W17598  28.491  11.322  14.839
58503W        W17599  22.062   4.713  11.917
58504W        W17600  20.619  43.767  11.449
58505W        W17601  25.040  14.105  12.906
58506W        W17602  37.908   5.332  10.964
58507W        W17603  28.678  12.852  11.474
58508W        W17604   6.888  35.086   1.789
58509W        W17605  10.716  15.786  14.002
58510W        W17606  41.424  40.919   3.287
58511W        W17607  34.454  23.045  12.995
58512W        W17608  25.193  43.269   0.743
58513W        W17609   8.693  11.214  11.041
58514W        W17610  23.145  34.082  10.995
58515W        W17611  37.992  33.916  10.947
58516W        W17612  30.040  18.721  10.450
58517W        W17613  12.666  17.109   1.793
58518W        W17614   3.351  16.198   4.617
58519W        W17615  20.214  36.053  12.530
58520W        W17616  10.143   0.365  12.926
58521W        W17617  27.051  16.117  11.403
58522W        W17618  11.798  27.636  10.158
58523W        W17619  44.996  17.700  11.053
58524W        W17620  20.666   8.790   4.288
58525W        W17621  31.465  40.491   0.411
58526W        W17622  31.459  27.534  14.468
58527W        W17623  28.938  26.571  14.829
58528W        W17624  27.550  40.503  14.433
58529W        W17625   8.747  16.737   2.294
58530W        W17626  36.900   6.875   1.231
58531W        W17627  23.074  19.690   9.499
58532W        W17628  17.272  25.608  14.466
58533W        W17629  24.535  24.479   4.800
58534W        W17630  25.625  10.684   1.797
58535W        W17631  31.125   4.740  13.062
58536W        W17632  37.433   4.224   1.420
58537W        W17633  15.790   7.292   0.311
58538W        W17634   1.413   8.274   4.661
58539W        W17635   7.235   2.251   3.705
58540W        W17636  20.614  39.407  11.992
58541W        W17637   4.741  40.308   1.728
58542W        W17638  23.163  23.058  10.456
58543W        W17639   1.787   7.365   1.420
58544W        W17640   6.355  44.337  12.350
58545W        W17641  11.240   1.256  10.899
58546W        W17642  26.039  14.630  12.928
58547W        W17643   8.273  21.552  10.605
58548W        W17644  22.601  33.974  11.063
58549W        W17645  39.858  17.264   2.326
58550W        W17646   4.241  23.562   4.671
58551W        W17647  44.831  37.901  14.923
58552W        W17648   9.271  30.944  14.457
58553W        W17649  43.904  39.995  13.015
58554W        W17650   7.195  33.993   1.885
58555W        W17651   3.843  15.802  12.984
58556W        W17652  27.656   1.368  14.863
58557W        W17653  13.832  41.477   3.787
58558W        W17654  39.967  23.168  13.055
58559W        W17655  39.319  22.205  13.397
58560W        W17656  30.648  33.069  11.533
58561W        W17657  31.922  21.738  13.501
58562W        W17658  16.166  24.724  13.905
58563W        W17659  32.603  13.822  11.502
58564W        W17660  21.688   7.234  13.970
58565W        W17661  43.839   1.821  14.814
58566W        W17662  35.062   4.896   4.702
58567W        W17663  10.158   3.266  11.606
58568W        W17664  44.288   0.899  13.881
58569W        W17665   3.366  16.158   0.759
58570W        W17666   9.275  19.773   0.823
58571W        W17667  26.026   8.265  11.507
58572W        W17668  38.924  32.954  10.129
58573W        W17669  11.168  16.186   0.782
58574W        W17670  31.621  16.165  10.504
58575W        W17671  40.812  14.648  14.829
58576W        W17672  13.680  38.383  11.083
58577W        W17673  34.423  25.209   2.318
58578W        W17674  11.286  27.154   0.827
58579W        W17675  19.762  37.485  10.035
58580W        W17676  10.663  22.517  11.407
58581W        W17677  44.317   1.778   1.352
58582W        W17678  30.423  35.097  10.124
58583W        W17679  28.679  26.689  14.323
58584W        W17680  19.580   1.372  13.857
58585W        W17681  34.111  22.009  13.812
58586W        W17682  41.334  41.491  12.535
58587W        W17683  13.604  13.309   4.802
58588W        W17684   1.393  31.011   1.384
58589W        W17685  26.161  43.359   0.244
58590W        W17686   7.841   2.385  13.812
58591W        W17687   6.720   9.345  14.331
58592W        W17688  36.479  21.136   9.931
58593W        W17689  17.073  20.055  14.916
58594W        W17690  32.512  34.091  14.967
58595W        W17691  39.494   9.312  11.078
58596W        W17692  18.791  34.013  13.901
58597W        W17693  42.319  30.473   4.684
58598W        W17694  34.593  11.269   1.250
58599W        W17695  32.446  40.928   1.415
58600W        W17696  29.443   7.198  13.405
58601W        W17697  27.672  41.527   3.328
58602W        W17698  22.722  37.395  14.458
58603W        W17699  38.492  22.185   1.217
58604W        W17700  44.436  37.950   2.217
58605W        W17701  19.139   1.365  10.970
58606W        W17702   5.687   8.856  11.912
58607W        W17703  41.829   1.462  13.389
58608W        W17704  36.559  39.447  10.982
58609W        W17705   5.927   9.711  13.824
58610W        W17706  26.983  28.575  10.905
58611W        W17707   3.423   4.936   3.852
58612W        W17708  33.042  42.989  10.900
58613W        W17709   0.802  23.700  12.088
58614W        W17710  10.236   8.709   2.892
58615W        W17711   0.444  25.203  10.594
58616W        W17712  17.115  18.208  14.885
58617W        W17713  19.222  21.686   2.863
58618W        W17714   7.698  28.453   2.226
58619W        W17715  11.373   9.706  10.943
58620W        W17716  18.663   7.859   0.289
58621W        W17717  32.562  13.622  12.435
58622W        W17718  11.257  40.925  14.785
58623W        W17719  28.503   9.731   3.312
58624W        W17720   2.261  22.222   4.204
58625W        W17721  27.535  20.689   2.743
58626W        W17722  13.789  12.253  11.925
58627W        W17723  21.654  42.916  12.381
58628W        W17724  23.197  42.282  11.110
58629W        W17725  29.487   4.340   0.314
58630W        W17726  11.137  17.263   1.319
58631W        W17727   2.399  19.091   2.348
58632W        W17728   4.338  27.062   4.727
58633W        W17729  39.847  21.218   1.407
58634W        W17730  44.784  26.607  12.483
58635W        W17731   1.921   6.826  13.863
58636W        W17732  12.193  43.432   4.244
58637W        W17733  29.646   4.855   4.793
58638W        W17734  30.928  31.486  10.978
58639W        W17735  21.151  36.530  11.463
58640W        W17736  20.537  10.215   3.692
58641W        W17737  17.703  10.768   3.696
58642W        W17738  26.991  43.377  11.594
58643W        W17739   2.853   7.290  14.507
58644W        W17740  11.643  38.929   4.802
58645W        W17741  43.986  36.898  14.885
58646W        W17742  19.235   6.282   4.313
58647W        W17743   9.784  28.067   1.243
58648W        W17744  16.668  26.178  13.819
58649W        W17745   3.949   3.737   4.646
58650W        W17746  26.476  41.843  11.869
58651W        W17747  41.870   0.459  13.844
58652W        W17748  31.149   9.302  14.292
58653W        W17749   8.359  17.580  13.037
58654W        W17750  23.100  26.080   0.448
58655W        W17751  36.508  40.403   2.256
58656W        W17752  19.255   5.775  13.391
58657W        W17753  39.527   5.740   1.443
58658W        W17754  22.238  42.838  11.382
58659W        W17755  10.370  30.041  11.460
58660W        W17756  20.076  11.215  10.610
58661W        W17757  16.121   6.857   2.836
58662W        W17758  13.694   5.238  12.402
58663W        W17759   0.468  41.787   1.308
58664W        W17760  18.059  20.650  10.548
58665W        W17761  36.502  36.371   0.279
58666W        W17762   5.263  31.587  11.034
58667W        W17763   7.414  36.431   4.786
58668W        W17764   9.363  23.726   2.700
58669W        W17765  13.289   9.700   0.429
58670W        W17766  26.606  41.820   2.769
58671W        W17767  20.746  42.800   1.753
58672W        W17768  26.490  11.711   4.266
58673W        W17769  27.459  33.531   1.215
58674W        W17770  18.769  31.117  13.340
58675W        W17771  28.512  39.543   4.605
58676W        W17772  21.130  19.610   2.276
58677W        W17773  13.228  35.378  13.469
58678W        W17774  43.861  30.053   0.780
58679W        W17775  24.062   9.816  10.427
58680W        W17776  24.711  17.072   2.191
58681W        W17777  34.085  16.757  13.011
58682W        W17778   4.414   8.226  14.928
58683W        W17779  23.129  15.233  12.979
58684W        W17780  41.322  16.609   3.862
58685W        W17781  21.523  34.991   3.268
58686W        W17782  12.665  16.082   2.404
58687W        W17783  15.593   2.820   2.199
58688W        W17784  43.827  41.827  12.022
58689W        W17785  27.565   2.865  12.853
58690W        W17786  15.307  32.979   2.378
58691W        W17787  37.866  32.482  14.847
58692W        W17788  31.628  16.248  12.421
58693W        W17789  17.274  19.616   1.357
58694W        W17790  39.371   5.913  11.057
58695W        W17791  20.709  38.007   1.262
58696W        W17792  17.161   7.883  11.425
58697W        W17793  28.099   5.822  10.535
58698W        W17794  22.210  14.594  11.019
58699W        W17795  43.345  28.485   0.356
58700W        W17796  23.573   9.794   3.687
58701W        W17797  39.460  38.037  12.839
58702W        W17798  18.101  23.682  13.802
58703W        W17799  38.476   6.257  14.917
58704W        W17800  16.807   9.305  12.393
58705W        W17801   5.855   9.711  10.591
58706W        W17802  31.556  28.464  10.905
58707W        W17803   4.830   9.683  11.998
58708W        W17804  13.842  21.213  13.942
58709W        W17805  26.475  27.687  10.580
58710W        W17806  10.293   6.723  12.353
58711W        W17807   9.798  36.410  11.377
58712W        W17808  38.038  10.348   0.426
58713W        W17809  40.900  39.009   3.729
58714W        W17810  21.648  28.930  12.881
58715W        W17811  35.923  44.326  14.385
58716W        W17812  33.387  36.361  11.412
58717W        W17813  35.575  14.676  14.832
58718W        W17814  31.416  35.935   2.869
58719W        W17815  10.699  21.096   4.762
58720W        W17816  29.513  10.868  11.966
58721W        W17817  15.093  35.458   3.384
58722W        W17818  42.369  16.073   2.382
58723W        W17819   7.682  34.965  13.058
58724W        W17820  39.911  22.160  13.520
58725W        W17821  26.114  24.052   3.214
58726W        W17822  44.866  31.109  14.498
58727W        W17823  13.642  19.620   4.794
58728W        W17824  44.926   9.370  12.974
58729W        W17825  43.869  37.366  11.563
58730W        W17826   7.398  23.504   2.266
58731W        W17827   0.884   8.857  13.485
58732W        W17828  23.160  30.496  14.448
58733W        W17829  31.599   4.216   2.243
58734W        W17830  43.427   1.291   2.665
58735W        W17831  10.313   7.695  14.009
58736W        W17832  27.675  24.715  10.920
58737W        W17833  23.069   7.362  12.529
58738W        W17834  22.065  16.607  14.300
58739W        W17835  15.734  30.998   4.116
58740W        W17836  37.026  17.257  14.964
58741W        W17837   3.370   0.764  13.973
58742W        W17838  44.921  41.860   2.185
58743W        W17839  14.808   6.825   1.771
58744W        W17840  17.099  44.845  12.484
58745W        W17841  22.051  39.923   0.448
58746W        W17842  10.174  23.157  12.885
58747W        W17843  44.445  44.440  13.857
58748W        W17844  24.720  30.969   4.307
58749W        W17845  11.238  25.116   2.300
58750W        W17846  44.767   6.788   0.826
58751W        W17847   3.284   6.873  10.554
58752W        W17848  28.557  32.933  10.942
58753W        W17849  28.966  26.040   2.836
58754W        W17850   3.233  35.579  12.428
58755W        W17851  38.932  18.285  11.046
58756W        W17852  43.800   9.673   2.676
58757W        W17853  24.125  18.690  12.926
58758W        W17854  22.151   9.374   0.242
58759W        W17855  26.036   3.290   5.184
58760W        W17856  40.915  32.417   3.294
58761W        W17857   5.792  35.444   2.761
58762W        W17858  26.986   2.373   4.614
58763W        W17859  36.012  11.234   1.352
58764W        W17860  32.094  37.017   2.796
58765W        W17861  12.362  19.185   0.283
58766W        W17862  12.133  26.974  12.850
58767W        W17863  15.241  18.685  11.086
58768W        W17864  32.481  35.058   0.304
58769W        W17865  37.426  35.907   3.153
58770W        W17866  24.127  42.475   0.767
58771W        W17867   5.745  43.769  12.500
58772W        W17868  21.551  38.000  12.371
58773W        W17869   0.439   5.742   4.251
58774W        W17870  22.191  27.689   2.677
58775W        W17871  10.354  19.663  13.500
58776W        W17872  14.286  44.465  12.864
58777W        W17873  10.779  26.185   0.440
58778W        W17874   8.815  31.970  13.957
58779W        W17875  16.165  27.052   1.780
58780W        W17876  43.292  17.622  14.945
58781W        W17877  27.461  44.421  11.558
58782W        W17878  12.338  19.752  13.402
58783W        W17879   5.209  23.615  10.073
58784W        W17880  21.680  12.710   2.833
58785W        W17881   5.888  40.804  12.000
58786W        W17882  38.886   8.664  14.837
58787W        W17883  21.685   1.288  14.388
58788W        W17884  39.815   0.926  12.539
58789W        W17885  27.680  42.523  12.823
58790W        W17886   6.191  19.569   2.325
58791W        W17887   3.383  39.915   3.721
58792W        W17888  15.757  20.725   4.771
58793W        W17889  39.961  18.641   4.636
58794W        W17890  28.934  39.499  13.522
58795W        W17891  38.030   5.744  12.879
58796W        W17892  40.872   2.333   1.292
58797W        W17893  39.503  44.987  13.355
58798W        W17894  44.430  14.650  11.107
58799W        W17895  30.515   8.824  10.445
58800W        W17896  15.202  31.097  14.513
58801W        W17897  19.103  44.439  10.946
58802W        W17898  24.679  25.965  14.387
58803W        W17899  12.161  10.667  11.859
58804W        W17900  44.489   1.266  11.422
58805W        W17901  42.811  11.635   4.613
58806W        W17902  20.644  10.753  10.901
58807W        W17903  44.853   7.326  12.040
58808W        W17904  10.322  27.133   1.739
58809W        W17905  14.726  23.075   0.937
58810W        W17906   5.714  18.631   3.712
58811W        W17907  30.014  16.163  14.790
58812W        W17908  39.314   6.886  13.499
58813W        W17909  34.920  42.469   1.773
58814W        W17910  29.999  16.581  11.915
58815W        W17911   9.319  20.092   0.264
58816W        W17912  18.097  36.514  14.997
58817W        W17913  24.163  41.447   1.286
58818W        W17914  34.592  33.614   0.741
58819W        W17915  17.158  16.655   4.701
58820W        W17916  36.928  21.076   2.772
58821W        W17917   3.956  42.387   2.827
58822W        W17918  44.800  11.837   0.431
58823W        W17919  27.596  11.142  11.865
58824W        W17920   2.864   6.763  13.430
58825W        W17921  20.069  28.984  13.444
58826W        W17922  20.597  32.049  13.440
58827W        W17923  40.511   0.398   1.876
58828W        W17924  36.588  11.358   3.237
58829W        W17925   5.194  18.638  13.831
58830W        W17926  22.133  32.115   4.693
58831W        W17927  11.215  26.647   1.886
58832W        W17928  18.175   7.404   3.158
58833W        W17929   4.327   3.259   2.392
58834W        W17930  36.004  24.489  12.575
58835W        W17931  18.132   8.893  10.059
58836W        W17932  10.214   9.327  12.908
58837W        W17933  36.972  17.134  11.092
58838W        W17934  14.622  16.125  13.831
58839W        W17935  19.161   5.898  11.607
58840W        W17936   1.955  11.816   0.425
58841W        W17937  19.074  39.344   0.464
58842W        W17938   3.390   0.750   2.729
58843W        W17939  10.810  38.495   4.311
58844W        W17940   1.947  35.375   1.449
58845W        W17941  20.700  34.372  10.462
58846W        W17942  31.431  43.897   2.299
58847W        W17943  32.455  42.893  10.142
58848W        W17944  38.055  35.480   3.189
58849W        W17945   5.877  25.626   1.733
58850W        W17946   9.648   9.826  10.904
58851W        W17947   2.379  12.136  13.388
58852W        W17948  38.511  25.105   0.836
58853W        W17949  44.357  19.540  14.397
58854W        W17950  32.980   6.304   2.230
58855W        W17951   2.316   9.817  10.487
58856W        W17952  20.577  37.408  13.858
58857W        W17953  31.914  21.691  12.524
58858W        W17954  10.319  42.976   2.807
58859W        W17955  36.479  15.659   0.326
58860W        W17956  14.248  26.643   2.706
58861W        W17957  33.434  24.208  11.973
58862W        W17958  29.158  30.559  10.458
58863W        W17959  18.761  19.159   3.637
58864W        W17960   9.374  38.337  10.420
58865W        W17961   2.354  12.242  11.061
58866W        W17962  29.152  24.563   2.270
58867W        W17963  22.044  44.970   3.733
58868W        W17964  32.587   5.430  11.605
58869W        W17965  16.735  36.030   3.167
58870W        W17966  16.720  42.441   3.209
58871W        W17967   8.358  13.806  13.325
58872W        W17968  40.958   3.394   3.177
58873W        W17969  14.245  18.688  11.011
58874W        W17970   0.446  14.245  14.362
58875W        W17971  39.383  30.657  11.051
58876W        W17972  26.482   9.188   4.175
58877W        W17973   1.246  37.041   1.238
58878W        W17974  34.558  20.682   0.257
58879W        W17975  22.630  12.812  12.973
58880W        W17976  23.009  17.711  12.996
58881W        W17977  44.988  34.568  14.466
58882W        W17978  31.552  26.561  13.035
58883W        W17979  39.468  31.589  12.470
58884W        W17980  25.022  26.537   5.314
58885W        W17981  13.726  15.768   1.377
58886W        W17982  16.668  22.667   2.369
58887W        W17983  17.723  42.785   0.876
58888W        W17984   9.692  10.286   2.263
58889W        W17985  16.263  30.520  12.470
58890W        W17986  12.333  44.479   4.137
58891W        W17987  28.525  10.153   3.758
58892W        W17988   0.316  39.945   0.878
58893W        W17989  23.130  41.854   0.818
58894W        W17990  22.519  12.129  10.913
58895W        W17991  18.296   8.765   4.625
58896W        W17992  23.091  19.135  13.484
58897W        W17993  26.702  21.133  12.398
58898W        W17994  12.698   7.407  13.336
58899W        W17995  21.123   5.269  13.046
58900W        W17996  23.217   1.874   0.483
58901W        W17997  11.866  33.987  12.847
58902W        W17998  30.544  42.492   0.390
58903W        W17999  16.709  10.870  10.075
58904W        W18000  27.102  12.846   4.818
58905W        W18001   1.765  29.011   3.728
58906W        W18002  34.870   6.727   3.634
58907W        W18003  32.112   7.381  13.490
58908W        W18004   1.275  27.493   0.842
58909W        W18005  20.656  15.659  10.093
58910W        W18006  11.292  26.168  10.954
58911W        W18007  13.694  27.524   3.684
58912W        W18008  41.883  26.690  11.438
58913W        W18009  21.588  13.183   3.633
58914W        W18010  26.610  44.918   1.262
58915W        W18011  43.327  38.047  12.921
58916W        W18012   5.850  31.481  12.083
58917W        W18013  14.223  10.147  14.968
58918W        W18014   5.782  14.657   3.214
58919W        W18015  15.293  42.930   3.181
58920W        W18016  32.526  41.787  11.980
58921W        W18017  36.569   0.356   1.878
58922W        W18018  38.889  31.129   1.246
58923W        W18019  11.277   9.824   0.951
58924W        W18020   9.271  34.091   2.286
58925W        W18021  22.062  27.963  11.023
58926W        W18022  13.207  20.081  12.851
58927W        W18023  22.681  30.017  11.592
58928W        W18024  24.165  33.987  13.993
58929W        W18025   4.441  41.469   1.256
58930W        W18026  19.662  28.566   1.213
58931W        W18027  31.616  25.034   5.124
58932W        W18028  15.794   5.847   2.737
58933W        W18029  23.004  18.695  14.844
58934W        W18030  35.001  32.608  11.485
58935W        W18031   5.822  12.267   0.911
58936W        W18032  36.091  12.140  13.405
58937W        W18033  13.744  31.096   0.749
58938W        W18034  36.071  40.996  11.888
58939W        W18035  32.081   6.739   1.893
58940W        W18036  15.627  13.660   1.268
58941W        W18037   8.181   6.714   4.328
58942W        W18038  16.268  34.932  12.998
58943W        W18039  10.637  13.199  10.106
58944W        W18040  22.585   5.703  11.939
58945W        W18041  27.030  12.346   1.320
58946W        W18042  39.404  11.798  13.002
58947W        W18043   0.883  24.084   0.328
58948W        W18044   7.724   5.418  12.907
58949W        W18045   0.899  15.642  13.829
58950W        W18046  28.597  16.165  14.493
58951W        W18047  26.649  31.116  10.605
58952W        W18048  40.964   2.291   0.480
58953W        W18049  37.362  33.026   4.612
58954W        W18050  21.067  21.595   2.370
58955W        W18051  27.989  26.130  12.523
58956W        W18052  15.614  10.667   2.789
58957W        W18053  27.454  10.796  12.952
58958W        W18054  23.004  38.529  13.310
58959W        W18055   4.239  18.287  14.894
58960W        W18056  20.683   8.745  12.954
58961W        W18057   4.882  21.020  10.573
58962W        W18058  17.142  17.093   2.388
58963W        W18059  18.072  21.086   3.672
58964W        W18060  36.559   7.714  13.959
58965W        W18061  42.030  34.566   0.284
58966W        W18062  43.389   0.901  11.372
58967W        W18063  30.559  28.649   0.306
58968W        W18064   6.182  41.901  12.403
58969W        W18065  33.562  22.114   1.442
58970W        W18066  44.756  21.698   1.904
58971W        W18067  35.954  28.488  10.411
58972W        W18068  41.346  21.064  14.939
58973W        W18069  40.918   0.290  14.482
58974W        W18070  22.698  18.607  11.490
58975W        W18071  19.219   8.762  12.930
58976W        W18072  43.489  18.708   0.470
58977W        W18073  37.083  19.692  12.485
58978W        W18074  37.018  12.667   3.362
58979W        W18075  40.423  17.092  10.573
58980W        W18076  20.688  11.733  12.532
58981W        W18077   0.411  40.351  12.943
58982W        W18078  43.927   6.270   3.753
58983W        W18079  33.994  16.304  13.985
58984W        W18080  30.507  28.090  10.598
58985W        W18081  19.692  38.971  14.452
58986W        W18082  30.104   5.390   4.190
58987W        W18083  31.446   9.203  12.577
58988W        W18084  36.843   6.726  13.925
58989W        W18085  18.227  22.147   4.825
58990W        W18086   9.772  40.321   3.731
58991W        W18087  40.884   1.308   3.297
58992W        W18088  42.816  31.108  14.809
58993W        W18089  26.540  22.147   2.693
58994W        W18090   7.837   7.847  13.421
58995W        W18091  41.020   2.966   0.917
58996W        W18092  19.602   2.804  14.314
58997W        W18093  35.928  34.991  13.824
58998W        W18094   7.204  42.452   1.418
58999W        W18095  42.298  34.492   2.677
59000W        W18096  21.602   6.727   2.244
59001W        W18097  33.907  36.419   1.914
59002W        W18098  28.569  30.145   1.265
59003W        W18099  37.535  39.863  11.466
59004W        W18100  19.689  43.891   0.941
59005W        W18101  30.975  15.298   4.334
59006W        W18102  21.159  13.146  14.945
59007W        W18103   7.212  10.219  14.787
59008W        W18104  16.718   4.794   2.185
59009W        W18105  21.234  15.820  11.087
59010W        W18106  34.925   4.907  13.454
59011W        W18107  27.691  14.297   1.385
59012W        W18108  34.372  31.623   4.830
59013W        W18109  16.211   3.262  11.540
59014W        W18110  38.534   5.256  14.402
59015W        W18111  28.670  43.317   1.263
59016W        W18112  10.225   0.773   5.310
59017W        W18113  28.583  18.234  10.542
59018W        W18114   8.275   0.824  13.922
59019W        W18115  11.205  16.742   3.336
59020W        W18116  37.494  31.981  14.453
59021W        W18117  10.179  41.884   4.302
59022W        W18118   3.869  20.666   4.679
59023W        W18119  44.818  18.250   3.739
59024W        W18120  26.030  26.188   3.355
59025W        W18121  41.786  18.711  10.944
59026W        W18122  17.295   7.234  13.977
59027W        W18123  31.936  29.647   3.822
59028W        W18124  24.567  34.937   9.465
59029W        W18125  43.340  18.245  14.483
59030W        W18126   2.764   8.351  14.852
59031W        W18127  22.706  36.051  13.507
59032W        W18128  19.749  14.136   0.821
59033W        W18129  24.060  30.425   3.687
59034W        W18130  11.220  36.019   2.324
59035W        W18131   1.450  30.416   3.693
59036W        W18132  26.177  15.699   1.281
59037W        W18133  27.674  37.024   4.352
59038W        W18134  10.738   7.828   0.399
59039W        W18135  37.544  13.322  12.912
59040W        W18136  17.144  11.170  10.018
59041W        W18137  28.026  22.628  11.382
59042W        W18138  41.846   4.275  14.865
59043W        W18139  21.204  13.107  10.417
59044W        W18140  36.007  13.784   1.363
59045W        W18141  37.039  38.909   4.634
59046W        W18142  43.486  40.390  12.903
59047W        W18143   0.445  37.574  13.845
59048W        W18144   8.279  20.221  11.083
59049W        W18145  17.221  12.721   1.230
59050W        W18146  35.092  40.460  14.899
59051W        W18147  12.356  26.531   4.351
59052W        W18148   2.964  30.134   0.775
59053W        W18149  12.329   2.467   4.829
59054W        W18150  36.403   9.154  12.905
59055W        W18151  44.459  19.691   2.300
59056W        W18152  42.411  24.504  12.040
59057W        W18153  36.412   6.375  10.404
59058W        W18154   6.759  19.100   1.306
59059W        W18155  12.778  15.318   1.803
59060W        W18156   6.826  22.682   0.913
59061W        W18157  14.247  23.616   0.394
59062W        W18158  34.521  24.056  11.992
59063W        W18159  18.079   0.785  11.027
59064W        W18160  28.552  21.127   4.641
59065W        W18161   4.745  22.251  14.281
59066W        W18162  29.039  28.050   1.360
59067W        W18163  32.520  33.898  13.506
59068W        W18164   4.835  21.251   0.891
59069W        W18165  37.981  24.102   2.392
59070W        W18166   5.713  22.577   0.886
59071W        W18167  26.177  25.478   0.859
59072W        W18168   4.347  19.056   4.135
59073W        W18169   9.388  37.512   0.296
59074W        W18170  37.027  14.284  12.901
59075W        W18171   8.380   0.308   3.237
59076W        W18172  38.987  30.100  10.506
59077W        W18173  24.542   3.796   0.422
59078W        W18174   0.426  28.050  13.906
59079W        W18175   4.881  19.642   0.329
59080W        W18176  30.601  18.067  12.549
59081W        W18177  18.081  38.040   3.784
59082W        W18178  13.262   7.216   4.742
59083W        W18179  23.593  12.791   0.819
59084W        W18180  15.087  10.769  13.503
59085W        W18181  43.280  40.332  10.584
59086W        W18182  30.521  44.918  10.633
59087W        W18183   0.315  27.515   3.803
59088W        W18184  17.252  35.922  11.395
59089W        W18185  36.963   0.981  13.501
59090W        W18186  18.662   1.317  11.005
59091W        W18187   8.236   0.774   4.797
59092W        W18188  28.628   6.889   3.203
59093W        W18189   1.876  42.365   3.178
59094W        W18190  14.597  18.731   1.719
59095W        W18191  21.226   4.370  11.534
59096W        W18192  35.578   9.748  14.504
59097W        W18193   6.421  34.461  12.943
59098W        W18194  35.367   9.223   2.253
59099W        W18195  25.145  23.991  11.449
59100W        W18196  30.597  23.560  11.518
59101W        W18197  12.732  18.731   2.823
59102W        W18198  10.784   2.231  13.512
59103W        W18199  30.048  17.180   4.819
59104W        W18200  31.442  40.870   0.900
59105W        W18201  22.715  44.800  11.036
59106W        W18202  35.906  36.063  13.537
59107W        W18203  44.000  15.728  11.454
59108W        W18204  36.403  44.422   4.690
59109W        W18205  43.884  20.579   2.387
59110W        W18206  21.251  38.501  11.508
59111W        W18207  42.840  40.497  12.920
59112W        W18208  11.322   3.788  11.381
59113W        W18209  42.424  37.568   4.619
59114W        W18210  18.597  19.072   2.261
59115W        W18211  10.171  12.138  12.963
59116W        W18212  35.379  21.540   2.769
59117W        W18213   1.746  35.945   0.843
59118W        W18214  16.144  10.829   2.870
59119W        W18215  17.620  38.827   2.316
59120W        W18216  21.031  44.943  11.064
59121W        W18217   5.409  18.185  14.026
59122W        W18218  20.724  29.553  14.805
59123W        W18219  42.878  41.849   1.916
59124W        W18220   3.264  42.889   3.719
59125W        W18221   4.376   3.884   2.269
59126W        W18222   0.774  16.629  12.057
59127W        W18223  32.961   6.894  13.904
59128W        W18224  39.406   4.348  13.957
59129W        W18225  21.600  32.485  11.598
59130W        W18226  14.309  25.208  10.521
59131W        W18227  17.750  27.680  12.343
59132W        W18228   8.828  32.112  14.442
59133W        W18229  10.212  25.610   2.308
59134W        W18230  22.051   0.291   3.646
59135W        W18231  19.175  27.944   2.304
59136W        W18232  29.050   9.692  13.972
59137W        W18233  11.656  24.170  14.786
59138W        W18234  36.850  36.485  10.440
59139W        W18235  12.210   1.442  13.894
59140W        W18236  37.964  30.087   3.775
59141W        W18237  40.313  36.043  14.380
59142W        W18238  38.999  33.050  12.823
59143W        W18239  32.937  36.847  13.007
59144W        W18240  35.947  28.072   1.346
59145W        W18241  23.665  10.355   2.395
59146W        W18242  12.129  30.513  12.485
59147W        W18243  40.487  36.039   4.284
59148W        W18244  13.776  20.128  14.902
59149W        W18245  28.930   3.425  13.454
59150W        W18246  27.509   5.217   3.151
59151W        W18247  35.478   1.452  11.582
59152W        W18248  16.801  24.199   1.828
59153W        W18249  13.234  39.884  13.429
59154W        W18250  24.007  39.819  10.440
59155W        W18251  18.728  27.543   0.740
59156W        W18252  28.169  21.651  13.878
59157W        W18253  33.129  10.680   0.392
59158W        W18254   2.418   1.319  12.078
59159W        W18255  15.652   9.860  13.309
59160W        W18256  35.510  30.991   4.172
59161W        W18257  29.132  41.336   0.869
59162W        W18258  44.992  36.059  12.064
59163W        W18259  20.563  38.390   3.183
59164W        W18260  14.261  23.174   3.161
59165W        W18261  26.683  13.744   1.287
59166W        W18262  38.859  24.008   2.712
59167W        W18263  37.853   0.786  12.509
59168W        W18264  36.486  29.538   3.745
59169W        W18265  28.054  37.493  14.818
59170W        W18266  10.797   6.852  12.000
59171W        W18267  36.531  37.544   1.829
59172W        W18268  30.057  20.072  13.321
59173W        W18269   1.898   6.198  11.911
59174W        W18270  13.318  18.270  14.450
59175W        W18271   1.972  22.740   2.759
59176W        W18272   1.970  16.297   4.610
59177W        W18273  32.410   9.807  14.853
59178W        W18274  24.146  24.102   1.267
59179W        W18275   2.871   0.308   0.946
59180W        W18276  23.236   5.708  14.818
59181W        W18277  43.339  26.985  14.811
59182W        W18278  33.950  12.285  13.966
59183W        W18279  23.697  33.614  14.811
59184W        W18280  41.864  21.680   1.746
59185W        W18281  32.482   8.384  10.917
59186W        W18282  19.587  35.468   0.924
59187W        W18283  19.624  13.789  13.535
59188W        W18284   2.331  28.060  12.014
59189W        W18285   7.689  18.701  11.533
59190W        W18286   8.887   4.759   3.664
59191W        W18287  17.793  44.424   2.847
59192W        W18288  21.644  40.016   4.714
59193W        W18289  12.714  21.538  14.412
59194W        W18290  29.495  36.038   4.612
59195W        W18291  10.282  39.020  11.457
59196W        W18292  37.926  36.367  11.532
59197W        W18293   0.866   2.865  10.585
59198W        W18294   2.756   5.362   0.254
59199W        W18295  25.689  15.669  10.444
59200W        W18296  15.701  39.374   9.990
59201W        W18297   2.249   1.476   4.650
59202W        W18298  21.066  43.483  14.462
59203W        W18299  32.012  28.953  12.023
59204W        W18300   4.398  37.944  11.033
59205W        W18301  14.321  29.556  11.972
59206W        W18302   4.315  29.947  11.870
59207W        W18303  34.614  15.179  11.608
59208W        W18304  35.043  19.058  14.943
59209W        W18305   3.447  26.978   3.248
59210W        W18306  30.538  12.192  10.643
59211W        W18307  31.065   9.227   3.154
59212W        W18308  13.232   6.266  10.492
59213W        W18309  38.827  35.596   1.820
59214W        W18310  20.736  40.442  13.929
59215W        W18311  39.336  34.078  14.838
59216W        W18312   8.387   9.747   0.316
59217W        W18313   6.194  20.565  11.061
59218W        W18314  22.230  30.435  10.889
59219W        W18315  17.691  36.481  10.996
59220W        W18316  12.710   3.373   3.241
59221W        W18317  21.555  10.674  12.560
59222W        W18318   8.223  32.928   0.877
59223W        W18319  23.543  21.709  12.069
59224W        W18320   4.878  11.643  14.841
59225W        W18321   1.350  10.301  10.963
59226W        W18322  25.556   2.767  12.973
59227W        W18323  17.278  23.232   4.712
59228W        W18324   0.965  44.929   4.239
59229W        W18325  27.007  24.549  13.485
59230W        W18326  29.501  41.795  12.459
59231W        W18327  19.728   4.822   5.145
59232W        W18328  14.808  12.773  14.836
59233W        W18329  20.107  44.857  12.426
59234W        W18330  12.336  24.142  11.038
59235W        W18331  38.556  41.874   1.760
59236W        W18332  12.797  17.102  13.962
59237W        W18333  28.609  34.539  14.854
59238W        W18334  33.121  37.083  10.530
59239W        W18335  38.476   1.933   4.676
59240W        W18336  35.003  38.506  10.992
59241W        W18337  40.022   7.338  13.437
59242W        W18338  37.526  35.965   1.213
59243W        W18339  20.640   5.216  10.433
59244W        W18340  32.970  44.833  11.910
59245W        W18341   0.443  10.246  10.475
59246W        W18342  14.713  32.609   0.968
59247W        W18343  34.602   6.214   1.260
59248W        W18344   1.859  34.117  14.802
59249W        W18345  17.745  40.033   3.668
59250W        W18346   8.856  42.938  11.552
59251W        W18347  36.523  19.558   1.226
59252W        W18348   2.395  37.892  14.366
59253W        W18349   9.669  12.664  14.451
59254W        W18350  27.491  41.876  10.461
59255W        W18351  15.601  28.655   3.260
59256W        W18352  41.922  35.366  11.978
59257W        W18353   2.798  24.140  13.847
59258W        W18354   0.752   4.785  14.780
59259W        W18355  32.081  34.105  12.073
59260W        W18356  32.961   1.858   4.754
59261W        W18357  11.128   1.264   1.351
59262W        W18358  28.184   0.781  11.504
59263W        W18359  19.222  14.272  11.508
59264W        W18360  30.541  40.968   4.200
59265W        W18361  20.272  10.803  13.913
59266W        W18362  27.188  43.399   2.392
59267W        W18363  13.337  37.972  12.036
59268W        W18364  24.708  42.386  14.788
59269W        W18365  40.001   1.737   3.153
59270W        W18366   0.322  38.891  10.038
59271W        W18367  22.543  41.938  12.859
59272W        W18368  35.008   0.800   3.835
59273W        W18369  10.320  19.536  12.074
59274W        W18370  25.483  36.049  14.478
59275W        W18371  34.987   6.209   0.741
59276W        W18372   6.200  25.194  10.930
59277W        W18373   8.252   3.367  11.529
59278W        W18374  33.465  30.534  13.861
59279W        W18375  10.825  29.569   1.920
59280W        W18376  44.843  10.852  12.936
59281W        W18377  41.798  13.691  12.560
59282W        W18378   4.739  18.287   1.441
59283W        W18379  24.723  38.441  10.062
59284W        W18380  41.983  39.940   2.290
59285W        W18381  11.780   7.237   2.768
59286W        W18382  30.934   9.235   0.438
59287W        W18383  16.575   9.259   0.767
59288W        W18384  30.057  40.430  13.012
59289W        W18385  13.813   4.324  11.882
59290W        W18386  11.165  12.124   2.359
59291W        W18387  31.090  35.397  14.008
59292W        W18388  40.503  36.025   0.776
59293W        W18389  22.708  29.018  10.020
59294W        W18390  24.667  13.779   1.254
59295W        W18391   1.465  27.628  10.526
59296W        W18392  19.211  12.662   4.776
59297W        W18393  42.877   3.818  14.966
59298W        W18394  36.466   6.862   1.720
59299W        W18395   2.402  40.401   1.878
59300W        W18396  17.232  44.989  11.386
59301W        W18397  26.973  34.454   5.737
59302W        W18398  15.802  17.072  13.817
59303W        W18399   6.273  11.195   1.721
59304W        W18400  21.672  38.033   4.207
59305W        W18401  31.411   6.238   3.640
59306W        W18402  33.513  31.913  10.420
59307W        W18403   4.328  27.599  12.953
59308W        W18404  16.237   0.477   3.333
59309W        W18405  19.721  33.116   3.358
59310W        W18406  35.052   9.252   2.807
59311W        W18407  29.492  36.950  11.449
59312W        W18408  37.358  16.686  10.547
59313W        W18409  39.314  41.334   1.365
59314W        W18410  13.138  31.584   3.698
59315W        W18411  16.139  29.145   3.642
59316W        W18412  21.519  31.415  10.910
59317W        W18413   4.232  32.103  10.411
59318W        W18414  44.420   2.943  11.443
59319W        W18415  33.064  20.723  12.511
59320W        W18416  23.684   5.734  13.930
59321W        W18417  16.097  25.513  13.444
59322W        W18418   1.251   7.332   0.744
59323W        W18419  35.444  40.344  11.908
59324W        W18420  36.442  19.621   0.441
59325W        W18421  42.913   3.434  12.516
59326W        W18422   6.286   5.268  13.808
59327W        W18423   1.465  28.144   2.741
59328W        W18424  24.983  26.677   3.322
59329W        W18425  26.977  34.526   1.758
59330W        W18426  15.198  26.627   0.481
59331W        W18427  24.133  14.311   1.915
59332W        W18428  40.981   9.786   0.324
59333W        W18429  36.545   6.282   1.814
59334W        W18430  31.501  20.698   4.722
59335W        W18431   9.745  31.477  11.113
59336W        W18432  25.478   0.788   3.638
59337W        W18433  43.464  39.878   1.702
59338W        W18434   2.728  16.724  11.577
59339W        W18435  29.920   2.876  10.901
59340W        W18436  38.484  27.037   0.946
59341W        W18437   6.770  38.056  10.464
59342W        W18438  20.127  26.975   3.807
59343W        W18439  22.173  44.505   1.821
59344W        W18440   1.799  34.934  14.962
59345W        W18441  36.502  13.261   2.813
59346W        W18442  16.647  41.881  12.018
59347W        W18443  10.147   8.212   0.819
59348W        W18444   7.257  24.100  14.863
59349W        W18445   1.904  17.613   2.360
59350W        W18446  12.125   3.728  11.463
59351W        W18447  18.261  21.023  14.930
59352W        W18448  32.047   1.331   3.305
59353W        W18449  44.473  23.042   4.660
59354W        W18450  34.404   5.914  13.962
59355W        W18451  41.525  31.425  14.320
59356W        W18452  25.610  37.371  12.947
59357W        W18453   8.306  34.882   0.773
59358W        W18454  11.187  23.555  13.034
59359W        W18455   8.812  14.631  14.894
59360W        W18456  33.475  18.590  11.400
59361W        W18457   9.847   2.275   4.325
59362W        W18458  36.557  27.050   9.451
59363W        W18459  42.483  25.014   2.253
59364W        W18460  32.918  39.515  11.025
59365W        W18461  22.094  37.087  10.555
59366W        W18462  35.877  27.508   3.869
59367W        W18463  43.377  18.153   5.283
59368W        W18464  37.078  21.682  10.994
59369W        W18465  30.598  14.619   1.730
59370W        W18466   5.843  19.674   3.238
59371W        W18467   3.711  16.593   2.319
59372W        W18468  18.569  27.039  14.968
59373W        W18469  44.381   8.229  12.347
59374W        W18470  35.090  10.140   0.775
59375W        W18471  42.866  32.529  12.530
59376W        W18472  36.933   3.261  10.972
59377W        W18473  42.376  21.754  12.837
59378W        W18474  24.219  38.890   2.843
59379W        W18475  17.735  16.146   0.297
59380W        W18476  20.224  13.269  12.048
59381W        W18477  34.064  15.212  11.422
59382W        W18478  33.563   9.181  12.521
59383W        W18479  18.245  36.051   1.416
59384W        W18480  42.361  22.705   3.746
59385W        W18481  38.048   2.434   4.208
59386W        W18482   8.168  27.456   3.708
59387W        W18483   0.888  14.718  12.009
59388W        W18484  24.021  14.187  13.984
59389W        W18485  27.043  43.962  10.931
59390W        W18486  25.107  23.532   1.281
59391W        W18487  33.067  20.683  13.403
59392W        W18488  33.892  19.159  12.960
59393W        W18489  19.155  26.649  10.642
59394W        W18490  13.115  14.239  13.026
59395W        W18491   9.285  36.522   2.342
59396W        W18492  26.001  13.666   0.744
59397W        W18493  15.203   8.309   1.355
59398W        W18494   0.817   1.355  14.985
59399W        W18495  15.807   1.977   4.326
59400W        W18496  20.232  25.573  14.340
59401W        W18497  19.285  19.690   0.837
59402W        W18498  20.605  41.003  12.461
59403W        W18499  15.228  24.018   0.932
59404W        W18500   5.193  22.642   4.115
59405W        W18501  37.415  34.931   1.709
59406W        W18502  16.189  27.115  10.635
59407W        W18503  20.740  24.561  11.570
59408W        W18504  19.226   0.847  12.920
59409W        W18505  30.647  34.100  13.309
59410W        W18506  12.675  25.691   4.791
59411W        W18507  30.529  32.127   3.640
59412W        W18508  36.061  38.513   4.200
59413W        W18509   9.377   4.735  13.971
59414W        W18510  42.375   9.358   3.862
59415W        W18511  11.781  15.194   3.702
59416W        W18512  23.224   0.857   4.209
59417W        W18513  14.721   2.270   0.758
59418W        W18514  22.020   6.909   9.644
59419W        W18515   5.896  37.942  12.891
59420W        W18516  20.674  16.192   0.936
59421W        W18517  30.107   0.793   2.248
59422W        W18518   4.273  26.154   2.345
59423W        W18519  12.816  10.868  11.062
59424W        W18520  34.104  39.363  14.981
59425W        W18521   1.870  29.110   0.325
59426W        W18522  18.715  26.485   3.237
59427W        W18523  19.224  42.309   2.205
59428W        W18524  35.494  42.445   2.221
59429W        W18525   9.674  40.936   4.831
59430W        W18526  10.709  12.266   1.271
59431W        W18527  44.304  20.190   3.249
59432W        W18528  26.549  25.611   4.268
59433W        W18529  44.317  40.431  14.409
59434W        W18530  29.984  11.865  10.928
59435W        W18531  33.954  13.156  14.493
59436W        W18532  15.702  44.964   0.806
59437W        W18533  38.968   4.320   4.794
59438W        W18534  13.229  29.582  11.940
59439W        W18535  21.184  33.969  14.785
59440W        W18536  15.688  25.523  10.494
59441W        W18537  39.827   7.888  11.459
59442W        W18538  23.507  30.589  11.883
59443W        W18539   6.186  24.123  10.476
59444W        W18540  38.915  21.611  13.042
59445W        W18541  40.807  25.555  13.427
59446W        W18542  22.170  27.483  14.814
59447W        W18543  24.699  13.107   0.942
59448W        W18544  27.485  19.172  10.448
59449W        W18545  26.580  18.756  13.872
59450W        W18546  40.417  42.808   1.864
59451W        W18547  14.205  44.893  11.988
59452W        W18548  18.173  33.623  11.093
59453W        W18549  21.569  40.835   3.842
59454W        W18550  34.985  38.889   0.447
59455W        W18551   3.950  35.461  11.502
59456W        W18552  28.171  19.105  12.989
59457W        W18553   2.467  29.665  11.103
59458W        W18554  25.041  30.000  14.299
59459W        W18555  24.186  21.191   4.334
59460W        W18556  44.381  36.370   4.158
59461W        W18557  28.495  42.373   2.698
59462W        W18558  28.468  24.041   1.413
59463W        W18559  29.545   9.161  11.094
59464W        W18560  17.159  12.127  14.903
59465W        W18561  37.901  22.709   0.788
59466W        W18562  36.056  40.482   4.680
59467W        W18563  29.024   1.409   3.850
59468W        W18564  22.099  15.800   1.757
59469W        W18565  27.147   3.918   1.841
59470W        W18566  33.065  11.168   3.173
59471W        W18567  24.622  10.736  12.357
59472W        W18568  10.271  34.461   3.860
59473W        W18569   7.181  19.042  12.423
59474W        W18570  12.740  25.099  14.456
59475W        W18571  27.623  42.382  11.898
59476W        W18572  12.150  33.593  13.933
59477W        W18573   0.376  40.476   1.391
59478W        W18574  13.211  21.521   4.618
59479W        W18575  36.086  13.293  11.023
59480W        W18576  32.563  35.988   3.383
59481W        W18577  43.014  37.839   2.841
59482W        W18578   5.889  35.517   4.713
59483W        W18579  12.695  35.567  11.040
59484W        W18580  37.980  28.079  13.953
59485W        W18581   5.208  33.051   1.897
59486W        W18582   7.365  34.418   4.807
59487W        W18583  22.690  17.065  11.093
59488W        W18584  25.676  32.557   2.805
59489W        W18585  28.522   4.797   4.692
59490W        W18586  15.715  19.186  14.320
59491W        W18587  23.016  42.313  12.425
59492W        W18588  35.038  25.081   1.448
59493W        W18589  22.030  22.074  10.916
59494W        W18590  27.960   0.282   1.870
59495W        W18591  11.740  44.340  11.060
59496W        W18592  25.076  21.261   4.115
59497W        W18593  34.036   4.904   1.782
59498W        W18594   8.894  30.425  11.914
59499W        W18595  38.515   3.842   1.906
59500W        W18596  31.421  35.073   1.309
59501W        W18597  43.401  14.631  13.452
59502W        W18598   8.340  22.596   2.337
59503W        W18599  36.456   8.691  11.090
59504W        W18600  20.264  17.741   1.860
59505W        W18601  40.424  32.405   0.839
59506W        W18602  30.028  19.585  11.072
59507W        W18603   0.443  26.107  10.999
59508W        W18604   4.439  34.501  11.968
59509W        W18605  43.301   2.763   2.306
59510W        W18606  11.267   1.282   0.912
59511W        W18607  17.307  25.032   4.275
59512W        W18608  34.911  43.867   2.856
59513W        W18609  32.390   7.366   4.695
59514W        W18610  42.913  20.602  10.521
59515W        W18611  44.480  35.026  12.019
59516W        W18612   2.808  29.645   0.448
59517W        W18613  17.644  33.094   2.783
59518W        W18614  31.547  28.477  14.916
59519W        W18615   3.387   3.311  11.072
59520W        W18616  36.374  29.049  12.563
59521W        W18617  25.061  31.939   0.765
59522W        W18618  27.051  39.826   0.474
59523W        W18619   5.271   6.828  10.475
59524W        W18620  39.016  10.344  14.391
59525W        W18621  44.787   8.225   3.762
59526W        W18622  12.728  18.587   0.285
59527W        W18623  11.744  28.591  13.391
59528W        W18624  17.603   7.669  13.827
59529W        W18625  11.306   7.225  12.476
59530W        W18626  43.508   2.346   3.341
59531W        W18627  41.917  27.535   1.784
59532W        W18628  28.581   6.399  12.933
59533W        W18629  39.449   1.295   0.835
59534W        W18630  43.920  12.148   3.639
59535W        W18631  44.292   5.361   0.967
59536W        W18632  23.727  40.347  12.550
59537W        W18633   9.291   1.918   2.727
59538W        W18634  11.295  11.856   2.896
59539W        W18635  12.799  40.425   0.766
59540W        W18636   0.277   9.837   3.739
59541W        W18637  12.191  32.015   3.719
59542W        W18638  15.615  31.971   4.273
59543W        W18639  16.630  26.649   2.698
59544W        W18640  40.492  40.874   0.873
59545W        W18641  30.054   6.293   0.814
59546W        W18642  15.792  27.056  11.519
59547W        W18643  18.578  27.948  10.914
59548W        W18644   2.447  32.139   3.264
59549W        W18645  13.710  29.640  14.511
59550W        W18646   4.228  11.259   3.322
59551W        W18647  29.071  23.092   3.739
59552W        W18648  37.892  19.192  10.532
59553W        W18649  44.967   5.261   4.709
59554W        W18650  26.653   7.395   4.122
59555W        W18651  26.044  16.588   4.326
59556W        W18652  42.282  15.159   1.424
59557W        W18653  26.490  11.686   1.378
59558W        W18654  10.205  26.148   2.773
59559W        W18655  15.167  38.441   3.158
59560W        W18656   1.269  43.393   2.842
59561W        W18657  29.472  31.127   0.258
59562W        W18658  44.942   3.328   0.475
59563W        W18659   7.298  33.474   3.202
59564W        W18660   5.350  44.370  12.042
59565W        W18661  30.022  26.008  14.870
59566W        W18662  40.055  36.348   2.251
59567W        W18663  38.364  28.963   3.866
59568W        W18664   6.290  25.196   0.942
59569W        W18665  39.514  26.591   0.428
59570W        W18666  15.106  16.609  12.078
59571W        W18667   8.306  18.153   2.837
59572W        W18668  16.195  34.012  11.994
59573W        W18669  43.443  19.743  12.513
59574W        W18670  28.564  40.533   1.871
59575W        W18671   9.725  21.705  12.883
59576W        W18672  28.136  28.489   3.769
59577W        W18673  20.071   4.257   1.876
59578W        W18674  43.391  19.612  14.373
59579W        W18675  30.066  26.602  13.823
59580W        W18676   9.868  24.221  11.572
59581W        W18677   2.857  42.369   2.865
59582W        W18678  26.165  38.385  14.032
59583W        W18679  23.095  26.649   1.262
59584W        W18680   2.783  31.055   3.236
59585W        W18681  22.126  23.492  14.409
59586W        W18682  37.995   2.844   4.289
59587W        W18683  18.141  17.171  14.892
59588W        W18684  14.303   2.820  12.489
59589W        W18685  43.341   6.426  14.841
59590W        W18686   9.662   3.455   3.794
59591W        W18687  36.970   4.881   0.269
59592W        W18688  15.152   1.754  13.354
59593W        W18689  18.557  29.670   0.762
59594W        W18690  35.109  43.376   0.435
59595W        W18691  15.188  39.335   4.248
59596W        W18692  11.238  13.152   4.627
59597W        W18693  16.152  10.364   1.412
59598W        W18694  21.060   1.959  12.425
59599W        W18695  44.806  44.001   0.903
59600W        W18696   1.252  43.955  12.403
59601W        W18697  19.572  32.532   2.864
59602W        W18698   8.315  10.156  10.430
59603W        W18699  23.504  18.733   5.748
59604W        W18700  42.310   9.718   3.666
59605W        W18701  30.116  25.050  12.460
59606W        W18702  20.165  32.012   2.777
59607W        W18703   4.770  32.125   3.288
59608W        W18704  10.713  15.668   1.433
59609W        W18705  19.269  37.013   0.751
59610W        W18706  12.118   3.861  14.768
59611W        W18707  19.182  25.708   0.462
59612W        W18708   0.406  16.082  14.930
59613W        W18709  29.960   9.853   2.238
59614W        W18710  39.439   7.301   1.898
59615W        W18711  41.431  35.411  14.965
59616W        W18712  13.714  16.210   3.794
59617W        W18713  16.573   6.888  11.013
59618W        W18714   5.370   5.253  11.084
59619W        W18715  13.311   9.857   3.269
59620W        W18716  24.495  40.359  13.382
59621W        W18717   1.371  39.484  11.954
59622W        W18718   4.794  44.301   0.322
59623W        W18719  21.616   7.869   3.656
59624W        W18720  22.042   4.344  12.493
59625W        W18721  11.761  41.497   2.732
59626W        W18722  41.846  37.568   3.252
59627W        W18723  21.219   3.281  11.981
59628W        W18724   0.938   5.372  10.550
59629W        W18725  27.113  34.028   1.426
59630W        W18726  34.964  34.930   3.287
59631W        W18727   0.441  33.969   0.935
59632W        W18728  23.023  35.592  11.093
59633W        W18729  43.408  24.230  14.366
59634W        W18730  18.110  35.062  12.936
59635W        W18731   6.330  18.209  11.548
59636W        W18732  23.536  44.373  13.348
59637W        W18733   0.873  42.429  14.881
59638W        W18734  39.484  22.663  12.345
59639W        W18735  41.891  19.127  12.001
59640W        W18736  28.543  26.482   1.918
59641W        W18737  17.693  38.886  14.296
59642W        W18738  23.712   7.198   4.683
59643W        W18739  12.245  37.471  13.912
59644W        W18740   3.236   1.874  14.488
59645W        W18741   9.861  35.047   4.721
59646W        W18742  35.917  13.693   1.764
59647W        W18743  44.428  37.999  14.440
59648W        W18744  15.315  17.574   0.865
59649W        W18745  13.809  39.906  10.464
59650W        W18746  27.128   2.412   0.960
59651W        W18747  44.981  13.199  11.462
59652W        W18748  15.593  41.833  13.050
59653W        W18749  38.494  11.705  13.524
59654W        W18750  20.750  43.793   3.727
59655W        W18751  10.859  13.699   5.248
59656W        W18752  19.679   9.873   1.328
59657W        W18753   1.756  24.685  10.535
59658W        W18754  17.256  42.444   2.853
59659W        W18755  20.679   7.702   4.319
59660W        W18756  33.913   7.840  10.581
59661W        W18757  35.106  27.482  11.998
59662W        W18758   5.200   1.420   4.682
59663W        W18759  25.706  14.215  14.923
59664W        W18760  20.568   3.238   0.372
59665W        W18761  25.192  12.148   3.830
59666W        W18762   1.374  42.375   0.742
59667W        W18763  14.335   4.267  10.994
59668W        W18764  27.458  28.105   0.768
59669W        W18765  36.557  32.984  14.391
59670W        W18766  35.552   4.240   1.275
59671W        W18767  35.420   8.712   4.747
59672W        W18768  35.904  42.932  11.018
59673W        W18769   8.249  13.238  13.335
59674W        W18770  18.647  19.061  12.367
59675W        W18771  32.983  35.959   1.309
59676W        W18772  34.594  42.832  10.121
59677W        W18773  33.917  35.379  13.922
59678W        W18774  39.912  13.274   2.844
59679W        W18775  11.810  17.275   4.750
59680W        W18776  36.020  21.635   3.646
59681W        W18777  23.148  44.275   2.347
59682W        W18778  43.876  33.621  12.049
59683W        W18779  26.172  27.095  12.007
59684W        W18780  40.049  34.074  13.048
59685W        W18781   0.483  15.172   1.731
59686W        W18782  21.536  15.610   1.872
59687W        W18783  24.540  42.426  13.374
59688W        W18784  32.579   5.701  13.337
59689W        W18785  42.786  14.271   2.375
59690W        W18786   4.416  37.830   1.316
59691W        W18787   9.855  17.649  12.905
59692W        W18788  40.799  11.215  11.566
59693W        W18789  27.482  14.746   0.263
59694W        W18790  18.774  20.689  13.456
59695W        W18791  26.570  18.607   3.844
59696W        W18792   7.819  15.642  12.077
59697W        W18793  31.446  25.645  13.963
59698W        W18794  40.008  30.577   4.632
59699W        W18795   5.257  10.791  11.553
59700W        W18796  25.179  22.526   5.729
59701W        W18797  43.512  34.476   0.736
59702W        W18798  32.443   5.752   1.716
59703W        W18799  38.958   0.315  13.995
59704W        W18800  37.415  15.100   1.386
59705W        W18801  30.062   2.449  14.358
59706W        W18802  29.586   7.405   1.848
59707W        W18803   1.886  28.465  13.032
59708W        W18804  36.358  28.437   0.825
59709W        W18805  10.700  32.480   0.925
59710W        W18806  25.585  12.794   0.290
59711W        W18807  44.398   4.332   4.723
59712W        W18808  21.164  22.185  13.336
59713W        W18809  39.851  40.847   4.221
59714W        W18810  10.343  26.005   0.370
59715W        W18811  17.719  38.834   4.725
59716W        W18812  14.784   2.825  11.105
59717W        W18813  26.487   4.444   4.344
59718W        W18814  20.631  29.593  11.447
59719W        W18815  22.182  44.944   4.628
59720W        W18816  30.526  28.164   4.683
59721W        W18817   0.863   1.249  12.003
59722W        W18818   4.781  13.722   1.753
59723W        W18819   8.755   1.407   2.213
59724W        W18820  11.335  33.440  13.060
59725W        W18821  37.418  40.388   2.301
59726W        W18822  30.106  18.074   3.820
59727W        W18823  20.163  17.219  11.506
59728W        W18824  39.398   4.292  14.783
59729W        W18825  36.048  42.491  11.438
59730W        W18826  30.545   5.274   0.453
59731W        W18827  43.451  23.659   4.767
59732W        W18828  24.146  33.058   0.862
59733W        W18829  13.846  23.524   3.261
59734W        W18830  17.269  18.248   0.345
59735W        W18831  31.924   3.886   1.259
59736W        W18832  44.323  23.512   2.764
59737W        W18833  38.498  36.454   3.188
59738W        W18834  15.251  42.982  11.919
59739W        W18835   2.853  41.327   2.879
59740W        W18836  28.128  15.179   0.836
59741W        W18837  18.607  33.498   9.637
59742W        W18838   6.710  20.752  13.891
59743W        W18839  11.789  13.756   1.737
59744W        W18840  34.612   7.795  13.491
59745W        W18841  23.068   6.922  12.354
59746W        W18842  32.446  42.525   0.458
59747W        W18843  13.233  32.959  11.418
59748W        W18844   9.161  44.356   2.787
59749W        W18845  10.327  25.651  11.005
59750W        W18846  21.708   3.244   2.330
59751W        W18847  12.257  12.781   1.706
59752W        W18848  25.197  30.966   0.820
59753W        W18849  27.196  15.309   1.756
59754W        W18850   5.764  31.140  12.361
59755W        W18851   7.727  33.427   0.415
59756W        W18852  24.150  15.299  13.364
59757W        W18853  40.040   5.835   4.657
59758W        W18854  18.276   7.188  14.386
59759W        W18855  36.487  14.210   4.193
59760W        W18856  14.161  36.843  12.926
59761W        W18857  34.378  23.546   9.494
59762W        W18858  37.356  27.974  10.460
59763W        W18859  33.602  38.030   5.145
59764W        W18860  39.946   3.790   4.139
59765W        W18861   1.891   5.758   4.261
59766W        W18862  29.464  41.413   4.239
59767W        W18863  37.381  41.516   2.891
59768W        W18864  44.348  17.179   3.373
59769W        W18865  26.498  32.587  12.468
59770W        W18866  10.726  13.261  14.803
59771W        W18867  13.146  12.355  11.931
59772W        W18868   5.788  29.167  14.401
59773W        W18869  40.857  33.945  12.449
59774W        W18870  31.617  19.707  11.526
59775W        W18871   2.806  10.284  12.829
59776W        W18872  36.370  17.579  13.893
59777W        W18873  34.028  25.701  13.903
59778W        W18874   0.348  37.053   0.451
59779W        W18875  15.284  29.455  13.933
59780W        W18876  14.158  42.905  13.955
59781W        W18877  20.564  35.066  13.426
59782W        W18878  33.956  29.550   2.231
59783W        W18879  39.406  32.002   4.188
59784W        W18880  28.476  21.647  10.923
59785W        W18881  22.245   8.815   2.324
59786W        W18882  26.548  44.294  10.599
59787W        W18883  13.665  10.748   2.393
59788W        W18884  10.142  20.617   0.925
59789W        W18885  32.428   3.711   4.248
59790W        W18886  39.848  14.300   2.351
59791W        W18887  37.508  28.513  14.775
59792W        W18888  25.081  25.188  13.309
59793W        W18889  36.554   5.923  14.953
59794W        W18890  26.540  39.914   2.387
59795W        W18891  15.689  33.942  10.633
59796W        W18892  27.989  11.748  14.356
59797W        W18893  13.632  39.518  12.961
59798W        W18894  39.901  24.648  14.407
59799W        W18895  36.446  33.623  13.869
59800W        W18896  35.058  16.775   0.385
59801W        W18897  25.173  15.202   4.784
59802W        W18898  32.040  16.196  14.019
59803W        W18899  31.963  22.746  12.350
59804W        W18900  42.440  30.094   4.761
59805W        W18901   2.926  24.599  10.637
59806W        W18902  16.633   7.350   3.636
59807W        W18903  13.138  40.376   4.252
59808W        W18904  31.493  37.840  14.437
59809W        W18905  10.379  33.392  12.454
59810W        W18906   9.162  27.951  14.779
59811W        W18907  37.911  40.388  12.998
59812W        W18908   2.259  26.682   1.276
59813W        W18909  39.884  31.473  13.987
59814W        W18910  43.296   1.894   3.794
59815W        W18911  11.678  12.213   1.843
59816W        W18912  21.545  23.527   3.712
59817W        W18913   9.155  19.716  14.902
59818W        W18914  33.383  21.211  13.018
59819W        W18915  31.506  11.295   4.821
59820W        W18916   9.658  10.868  11.378
59821W        W18917  28.980  24.151   1.800
59822W        W18918  30.037  35.901   2.359
59823W        W18919  17.771  16.810   3.705
59824W        W18920   6.406   1.270  10.887
59825W        W18921  28.654  19.764   1.880
59826W        W18922  10.262  33.129  10.933
59827W        W18923   3.761  36.997  13.378
59828W        W18924  15.146  15.268   0.819
59829W        W18925  40.522   2.464  13.838
59830W        W18926  41.043  10.678  11.012
59831W        W18927  34.961  25.048  13.947
59832W        W18928  39.013   3.404  10.564
59833W        W18929  13.351   4.735  14.508
59834W        W18930  13.626  13.747  12.891
59835W        W18931  23.557  34.973  10.137
59836W        W18932  37.356  38.059  13.457
59837W        W18933  12.711  14.316  13.904
59838W        W18934  10.274  34.512  10.449
59839W        W18935  44.479  42.785   1.409
59840W        W18936  40.439   1.331   2.221
59841W        W18937  39.035   6.397  14.001
59842W        W18938  14.136  23.197  12.972
59843W        W18939  20.126  22.055   1.450
59844W        W18940  10.250  16.106  12.387
59845W        W18941  28.009   2.435  14.425
59846W        W18942  41.980   2.319   3.267
59847W        W18943   6.723  38.326   2.866
59848W        W18944   6.886  34.428  10.897
59849W        W18945  36.929   7.812   4.640
59850W        W18946   6.823  43.814   1.911
59851W        W18947   6.239  11.763  13.921
59852W        W18948  30.107   9.824  12.524
59853W        W18949  34.001  15.740  10.559
59854W        W18950  19.247  24.556   2.841
59855W        W18951  24.479  18.169  11.037
59856W        W18952  10.745  30.108   0.384
59857W        W18953  43.496   6.736   0.443
59858W        W18954  25.145  12.826   4.651
59859W        W18955  27.465  30.071   0.368
59860W        W18956  36.031  22.154  11.076
59861W        W18957  33.440   9.274  12.097
59862W        W18958  21.557  11.324  11.602
59863W        W18959  35.047  32.066  10.070
59864W        W18960  38.434  19.746   3.259
59865W        W18961  39.411  37.075  10.441
59866W        W18962  32.003  44.392   4.162
59867W        W18963   3.460   5.749   2.416
59868W        W18964   8.222  17.756  14.999
59869W        W18965  44.396  34.952   1.741
59870W        W18966  27.562  14.304   0.747
59871W        W18967  14.605   8.291  14.442
59872W        W18968  34.611   1.420  14.316
59873W        W18969   7.701   0.785  12.905
59874W        W18970  26.961  14.229   3.779
59875W        W18971  27.688  20.190   0.904
59876W        W18972  12.728  39.421  12.924
59877W        W18973  19.641   5.775  12.057
59878W        W18974  38.039  41.435   3.173
59879W        W18975   5.860  40.901   4.336
59880W        W18976  15.121  35.087  12.570
59881W        W18977  13.641   0.866  11.477
59882W        W18978  36.491  19.678  10.028
59883W        W18979   0.468  37.451   0.338
59884W        W18980   5.786  12.736   1.423
59885W        W18981  18.634   7.353   1.431
59886W        W18982  24.508  40.008   3.845
59887W        W18983  13.734  19.123  11.877
59888W        W18984  43.915  25.983  10.499
59889W        W18985  18.269  10.379  14.420
59890W        W18986  31.476   3.825   4.135
59891W        W18987  44.279   3.259  14.441
59892W        W18988  37.396  14.339  14.828
59893W        W18989  17.090  19.548  13.927
59894W        W18990  23.509  18.790  12.872
59895W        W18991  11.336  26.197  13.974
59896W        W18992  27.606  41.499   1.396
59897W        W18993   0.975  33.468   0.839
59898W        W18994  10.806   8.732  13.955
59899W        W18995  38.070  32.448   2.718
59900W        W18996   2.379  22.628   3.804
59901W        W18997  20.610  27.584  11.960
59902W        W18998  28.466  24.984  10.568
59903W        W18999  19.093  29.963   4.656
59904W        W19000  14.649  23.126   3.839
59905W        W19001   8.390  37.418  14.811
59906W        W19002  21.049  34.947  13.064
59907W        W19003  22.675  26.527  12.452
59908W        W19004  42.832  13.790   2.832
59909W        W19005  31.994  18.162  14.006
59910W        W19006  42.828  31.068   4.195
59911W        W19007  37.422  13.820  12.481
59912W        W19008  31.042   6.817  10.438
59913W        W19009  22.508  36.392  14.340
59914W        W19010  11.785   4.712   2.327
59915W        W19011  25.112  14.214   3.857
59916W        W19012  28.123  20.571  11.406
59917W        W19013  10.140  24.195  11.569
59918W        W19014  12.746  12.839   0.242
59919W        W19015  43.356  30.947  14.803
59920W        W19016  43.350   0.425   1.442
59921W        W19017  28.515  30.065  14.918
59922W        W19018  33.879   7.763  13.818
59923W        W19019  11.738  20.102   0.460
59924W        W19020  41.426  10.660  12.347
59925W        W19021   2.774  17.802   1.824
59926W        W19022   4.400   1.907   3.740
59927W        W19023  16.696  42.383   0.330
59928W        W19024   8.267   7.838  14.887
59929W        W19025  27.157  42.933   3.716
59930W        W19026   6.295  10.201  13.906
59931W        W19027  32.563  41.530   1.878
59932W        W19028  16.600  10.246   3.306
59933W        W19029  33.086  33.958  13.375
59934W        W19030  36.888   3.710   3.808
59935W        W19031   7.214  16.222  13.015
59936W        W19032   5.311  41.318   4.184
59937W        W19033  15.118  40.036   1.762
59938W        W19034  25.596  41.874  14.306
59939W        W19035  41.925  21.597   3.629
59940W        W19036  29.508   7.746   0.286
59941W        W19037  15.680  21.736   2.901
59942W        W19038  22.209  31.961  11.035
59943W        W19039  17.208  24.144  10.406
59944W        W19040   2.401  32.403  13.840
59945W        W19041  27.473  27.093   2.681
59946W        W19042  27.563  42.442  14.940
59947W        W19043  26.964   2.239   1.818
59948W        W19044  20.603  17.734  12.067
59949W        W19045  33.079   4.390  11.100
59950W        W19046   9.760  41.016   3.273
59951W        W19047  27.653  23.189  10.147
59952W        W19048  29.639  11.843  14.810
59953W        W19049  14.261  33.447  13.547
59954W        W19050  22.237  41.997   3.153
59955W        W19051   2.240  14.156   3.161
59956W        W19052  18.545  29.016   2.797
59957W        W19053  40.327  43.945  12.971
59958W        W19054  12.852  13.699  11.881
59959W        W19055  22.159  28.083  12.560
59960W        W19056  43.779   4.424   3.297
59961W        W19057  28.593  20.242   1.283
59962W        W19058  24.221  14.797   1.793
59963W        W19059   7.887   4.338  10.594
59964W        W19060  10.274  38.422   2.217
59965W        W19061  25.013  15.184  11.908
59966W        W19062   2.414  11.322  12.575
59967W        W19063  12.117  28.980  14.482
59968W        W19064  35.106  32.424   3.161
59969W        W19065  10.375  21.049   3.693
59970W        W19066  37.904  15.641  13.956
59971W        W19067  41.999  43.424   4.654
59972W        W19068   3.365   7.305   3.156
59973W        W19069  20.525  26.582  14.308
59974W        W19070  24.542  23.009   0.288
59975W        W19071  39.341   7.376  14.996
59976W        W19072  11.717  13.721   5.216
59977W        W19073   9.186  32.515   3.382
59978W        W19074  17.579   2.417  11.399
59979W        W19075  15.238  32.527  11.588
59980W        W19076  41.809   3.410   3.742
59981W        W19077  37.062  21.043   3.685
59982W        W19078  13.809  41.529  11.596
59983W        W19079  39.018   6.188   3.678
59984W        W19080  40.910   5.333  13.336
59985W        W19081  42.826   9.880   4.703
59986W        W19082  24.165  30.550  14.511
59987W        W19083  43.502  20.648  12.005
59988W        W19084  21.179  39.901  10.534
59989W        W19085  28.441  36.884   0.785
59990W        W19086  11.311  14.794  10.906
59991W        W19087  12.350  36.498   1.855
59992W        W19088  26.190   7.195   3.780
59993W        W19089  16.188  15.312  10.561
59994W        W19090   3.414  31.627  11.068
59995W        W19091  38.964  19.590   3.775
59996W        W19092  19.590   3.216  10.407
59997W        W19093  34.055  18.160  14.992
59998W        W19094  19.203  28.114  12.463
59999W        W19095  36.372  29.067   2.748
60000W        W19096  31.509  39.323  14.854
60001W        W19097  36.049   7.675  14.396
60002W        W19098  26.121   9.869   0.418
60003W        W19099  26.605  23.704   1.891
60004W        W19100   9.788  38.430  13.409
60005W        W19101   0.373   5.347   4.606
60006W        W19102   5.264  12.629   1.809
60007W        W19103   7.186  31.098  11.430
60008W        W19104   8.742  13.651  12.007
60009W        W19105  39.970  22.549   4.829
60010W        W19106  11.287  21.255   3.227
60011W        W19107   6.893  44.772   1.925
60012W        W19108  42.839  24.057  10.976
60013W        W19109  28.653  37.337  10.971
60014W        W19110  32.957   4.928  10.988
60015W        W19111  23.643  29.105   0.874
60016W        W19112  11.845  29.090   2.745
60017W        W19113  11.849  26.205  13.462
60018W        W19114  10.310  21.074   4.341
60019W        W19115  39.476  25.003   4.200
60020W        W19116  27.010  18.225  14.849
60021W        W19117  19.614  22.733   5.308
60022W        W19118  21.159  40.510   2.845
60023W        W19119   0.776  29.545   4.804
60024W        W19120   4.265  33.406   4.158
60025W        W19121  41.009  30.498   4.741
60026W        W19122  37.042  31.113  12.520
60027W        W19123  34.924  15.750   0.261
60028W        W19124   3.411  39.495   3.689
60029W        W19125  18.618   9.647   1.792
60030W        W19126  24.128  43.407  11.560
60031W        W19127  39.002  25.633   2.230
60032W        W19128  37.880   3.310   0.295
60033W        W19129  25.203  44.878  14.361
60034W        W19130  16.179  17.564   0.768
60035W        W19131  19.709   9.670  11.867
60036W        W19132  23.558  12.318   0.864
60037W        W19133  11.188  17.621   4.284
60038W        W19134  29.633  42.827   9.974
60039W        W19135  12.641  42.860   4.719
60040W        W19136   9.292  42.935  14.429
60041W        W19137  34.531  43.778  10.594
60042W        W19138   4.880  43.891   4.807
60043W        W19139  39.891  42.363   4.183
60044W        W19140  33.119  24.657   0.457
60045W        W19141  40.972  30.074   3.219
60046W        W19142  17.198  42.807  14.965
60047W        W19143   9.744  44.987   4.306
60048W        W19144  11.259  34.041  11.381
60049W        W19145  44.864  10.730   1.396
60050W        W19146  33.562  44.891  14.503
60051W        W19147  16.630  33.621   4.250
60052W        W19148  25.130   0.967  11.917
60053W        W19149  36.841   2.431  14.787
60054W        W19150  31.644  41.321   1.857
60055W        W19151  42.869  17.099  13.369
60056W        W19152  29.969   0.942  11.484
60057W        W19153  11.789   9.657  13.529
60058W        W19154   1.907   9.836  14.956
60059W        W19155  29.499  33.111  12.461
60060W        W19156   9.294  35.429   3.711
60061W        W19157  42.373  20.533  12.359
60062W        W19158  36.532  10.298  13.347
60063W        W19159   3.299   4.834  13.811
60064W        W19160  12.812  19.258   3.323
60065W        W19161  23.035  26.117   4.288
60066W        W19162  42.364  13.803   1.857
60067W        W19163   6.351  10.294  11.093
60068W        W19164  27.669  37.974  10.579
60069W        W19165  29.621  15.091  14.997
60070W        W19166  25.662  17.565  14.902
60071W        W19167  24.130  28.635   2.365
60072W        W19168   7.185  32.940  13.049
60073W        W19169  39.419  29.573   3.316
60074W        W19170  34.924  31.047   0.390
60075W        W19171  22.006  33.570  12.522
60076W        W19172  38.035  12.647   2.880
60077W        W19173  39.429   0.880   4.692
60078W        W19174  44.265   5.361  11.586
60079W        W19175  10.257  13.706   3.714
60080W        W19176  36.402  31.056   2.794
60081W        W19177   8.361  43.890  11.417
60082W        W19178   5.839   6.228   3.745
60083W        W19179   0.435  28.585   4.214
60084W        W19180  21.523   8.182   3.309
60085W        W19181  10.289  38.466   4.236
60086W        W19182  15.109  40.370  10.014
60087W        W19183  32.936  38.055   4.717
60088W        W19184  11.213  27.041  13.395
60089W        W19185  10.709   6.317  14.009
60090W        W19186  12.228  42.863   2.361
60091W        W19187   8.297   5.804   2.204
60092W        W19188  33.036  19.543   3.361
60093W        W19189   5.217   9.743  10.537
60094W        W19190  22.631  30.980   1.791
60095W        W19191   5.742   8.872   3.270
60096W        W19192  40.054  12.640  12.419
60097W        W19193  14.324  39.057  14.885
60098W        W19194  29.572   6.857  14.998
60099W        W19195  41.872   6.222  11.891
60100W        W19196  39.937  40.371  12.896
60101W        W19197  34.100  26.048   4.146
60102W        W19198   1.266   9.373  14.908
60103W        W19199  39.542   5.792   3.267
60104W        W19200   6.255  29.122   4.748
60105W        W19201  30.421  33.548   1.784
60106W        W19202  21.034  22.043   3.679
60107W        W19203   3.401  28.959   1.865
60108W        W19204  35.379  29.114  12.035
60109W        W19205  40.534  30.586  12.089
60110W        W19206  29.069  29.975  11.506
60111W        W19207  25.594  22.582  14.295
60112W        W19208  23.540  29.640  14.816
60113W        W19209  14.142   2.817  11.895
60114W        W19210  38.357  44.820  14.312
60115W        W19211  41.924  14.176   3.739
60116W        W19212  32.107  44.459   3.795
60117W        W19213  41.799   1.293   4.750
60118W        W19214   0.881  14.271   3.363
60119W        W19215  23.629  18.571   3.312
60120W        W19216  31.016   4.780   4.613
60121W        W19217  37.491  16.695   4.629
60122W        W19218   8.758  18.064   2.854
60123W        W19219   7.416  41.968   4.733
60124W        W19220  39.000   6.354   1.228
60125W        W19221  14.757  35.936   4.606
60126W        W19222  11.794  39.957  14.302
60127W        W19223  36.433  44.410  12.548
60128W        W19224  37.476  27.593   0.263
60129W        W19225  39.993  42.789   2.210
60130W        W19226   3.390  33.586  14.872
60131W        W19227  33.420  13.697   4.146
60132W        W19228  23.585   7.284  12.514
60133W        W19229  31.603  21.211  13.309
60134W        W19230  22.178  34.041   0.244
60135W        W19231   2.862  38.987   1.908
60136W        W19232   8.826  32.611   2.735
60137W        W19233  41.348  30.487   3.355
60138W        W19234  10.326  22.123  12.455
60139W        W19235   6.703  37.431   0.351
60140W        W19236  22.048  31.058   1.920
60141W        W19237  32.511  41.480   0.821
60142W        W19238  34.016  28.456  11.498
60143W        W19239  33.408  12.134   1.359
60144W        W19240   2.944  41.853   0.403
60145W        W19241  11.331  38.499  13.341
60146W        W19242  11.730  21.192  14.871
60147W        W19243  15.809  41.371   1.417
60148W        W19244   6.734  39.830  13.532
60149W        W19245  10.842  22.182   0.460
60150W        W19246   8.828  42.900   2.868
60151W        W19247  24.574  39.328  11.986
60152W        W19248  24.119   2.760   2.415
60153W        W19249   6.880   8.869  13.460
60154W        W19250  19.207  24.658   3.380
60155W        W19251  37.520  31.543   4.662
60156W        W19252  33.127  20.140   4.614
60157W        W19253   2.233  23.170   3.263
60158W        W19254  12.357  31.040   0.891
60159W        W19255  42.908  25.584   3.636
60160W        W19256  13.291  10.792   4.747
60161W        W19257  19.558   3.412  11.865
60162W        W19258  19.537  22.594   0.753
60163W        W19259  24.060   5.846   3.828
60164W        W19260   7.186  40.481   3.287
60165W        W19261  10.261   9.175   3.838
60166W        W19262  15.684  12.311   0.783
60167W        W19263  36.376  36.040  12.522
60168W        W19264  19.061  14.168  13.792
60169W        W19265  40.934   4.429   1.413
60170W        W19266  18.110  30.498  14.871
60171W        W19267  25.109  32.541   4.145
60172W        W19268  35.900  28.162  10.581
60173W        W19269   1.291   1.465   0.253
60174W        W19270  13.603  10.675  14.885
60175W        W19271  24.093  19.119  12.571
60176W        W19272  41.299   3.811   4.333
60177W        W19273  26.559  12.661   4.217
60178W        W19274  41.975  16.286  13.874
60179W        W19275  28.934  11.286   2.834
60180W        W19276  26.517  13.797   4.667
60181W        W19277  20.098  27.950   2.897
60182W        W19278   7.816  36.033   5.203
60183W        W19279  16.228  23.493   1.269
60184W        W19280   4.727  11.177   0.379
60185W        W19281  22.653   5.855   0.842
60186W        W19282  11.342  38.514  11.553
60187W        W19283   7.802   2.808   3.722
60188W        W19284  25.697   7.684   1.256
60189W        W19285   1.862  15.584  10.409
60190W        W19286  19.774  18.680  12.557
60191W        W19287   4.782  21.710   1.734
60192W        W19288  22.559  12.262   2.665
60193W        W19289  10.234  26.475   2.282
60194W        W19290  15.686  39.865   0.388
60195W        W19291  15.820   4.910  13.539
60196W        W19292  23.237  15.647   3.267
60197W        W19293  44.292  44.941  10.630
60198W        W19294  11.649   8.160  11.601
60199W        W19295   8.718  18.133  12.854
60200W        W19296  20.626  35.982   0.469
60201W        W19297  33.443  16.780   0.957
60202W        W19298  44.476  24.588  14.435
60203W        W19299  39.549  20.599  10.612
60204W        W19300  42.329  33.073  12.361
60205W        W19301   9.854  24.007   0.942
60206W        W19302  22.525  43.392   1.321
60207W        W19303  35.092  21.596   4.238
60208W        W19304   7.825  42.030   2.392
60209W        W19305  30.415  16.263   0.381
60210W        W19306  32.927  20.256   3.831
60211W        W19307   1.773  28.568   1.258
60212W        W19308  34.473  26.959   4.250
60213W        W19309  22.704  34.551  14.902
60214W        W19310  13.715  31.409   5.279
60215W        W19311  15.737  21.694   0.327
60216W        W19312  33.609  37.392  14.925
60217W        W19313   1.477  11.815  14.445
60218W        W19314  13.168  40.811  11.048
60219W        W19315   3.855  31.542   4.835
60220W        W19316  44.291  25.122  10.407
60221W        W19317  37.512   6.720   0.278
60222W        W19318   4.388  25.470  13.939
60223W        W19319  32.600  24.724  14.331
60224W        W19320   3.436  21.619  11.546
60225W        W19321  30.942   3.241  10.481
60226W        W19322   2.889  35.900  13.802
60227W        W19323   0.366  33.939  13.470
60228W        W19324  39.885   0.979   2.664
60229W        W19325  25.492  19.711  11.452
60230W        W19326  37.020  34.598  10.492
60231W        W19327   8.792  34.557  11.566
60232W        W19328   5.905  32.495  11.598
60233W        W19329  38.477  37.968   2.331
60234W        W19330   8.380  28.983   3.263
60235W        W19331  37.990  19.656   0.799
60236W        W19332  22.075  29.988   2.257
60237W        W19333  34.614   5.309   3.657
60238W        W19334   8.348   7.244   4.707
60239W        W19335  12.278  28.658  14.823
60240W        W19336  36.569   1.839   0.880
60241W        W19337  30.440  11.337   3.645
60242W        W19338  35.088   1.239   0.274
60243W        W19339  26.189  38.926   4.833
60244W        W19340  16.213  31.982   1.909
60245W        W19341  12.635  41.822   4.322
60246W        W19342   3.791  25.172  13.998
60247W        W19343  37.516  38.370   4.640
60248W        W19344  18.287  10.344   4.778
60249W        W19345  23.985  13.766  11.503
60250W        W19346  24.042  10.286  11.551
60251W        W19347   9.345   1.473  11.507
60252W        W19348   3.744   5.839  14.022
60253W        W19349  16.756  27.502  11.921
60254W        W19350  35.858  15.287   1.395
60255W        W19351  15.112   9.810   2.819
60256W        W19352  41.350  38.565  13.016
60257W        W19353  31.448  29.547  14.849
60258W        W19354  40.427  27.550  12.547
60259W        W19355  39.031  30.475   4.805
60260W        W19356  15.134  21.746   3.707
60261W        W19357  10.169   3.868  12.964
60262W        W19358  41.807   7.790   1.226
60263W        W19359   6.245  39.430   1.399
60264W        W19360  37.049   2.782   1.888
60265W        W19361   2.950  17.778  14.432
60266W        W19362  32.451  33.612   4.163
60267W        W19363  43.819  26.586   0.468
60268W        W19364  41.536  12.763  10.576
60269W        W19365  38.862   0.453   4.700
60270W        W19366   7.211  20.657   3.163
60271W        W19367  26.093   3.414  14.004
60272W        W19368  19.737  21.167  14.307
60273W        W19369  23.153  44.948  13.367
60274W        W19370  35.411  13.824   4.233
60275W        W19371  32.000  10.255   1.294
60276W        W19372  19.193  21.264   4.206
60277W        W19373  32.564  16.228  14.326
60278W        W19374  34.111   1.318  10.441
60279W        W19375  10.744   8.814   3.793
60280W        W19376  29.072  41.830  14.939
60281W        W19377  22.552   8.190   1.927
60282W        W19378   5.283  14.747  11.056
60283W        W19379  15.315  23.641   2.375
60284W        W19380  16.795   8.366  10.979
60285W        W19381  37.988  39.032   0.314
60286W        W19382  18.211  26.476   3.697
60287W        W19383  27.020  15.779  13.818
60288W        W19384  31.582  18.767  14.392
60289W        W19385   7.317  12.756   0.269
60290W        W19386   3.901  28.027   3.204
60291W        W19387  33.924  14.187  13.869
60292W        W19388   4.342  10.271  12.538
60293W        W19389  39.888  43.283  14.911
60294W        W19390  42.311  29.465   1.754
60295W        W19391   1.943  24.524   3.198
60296W        W19392  19.249  24.667  11.932
60297W        W19393  14.157  41.840   0.950
60298W        W19394  16.097  40.950  14.883
60299W        W19395   6.716  25.060   3.262
60300W        W19396  29.084  38.855   2.291
60301W        W19397  11.691   6.686  11.985
60302W        W19398  14.292  13.751  14.402
60303W        W19399  41.824  39.990   4.680
60304W        W19400  11.330   0.280  14.913
60305W        W19401  25.118  10.177  14.935
60306W        W19402  40.974  33.547   2.413
60307W        W19403  16.244  37.073   3.156
60308W        W19404  34.927  25.623   5.259
60309W        W19405  31.563  15.635  12.343
60310W        W19406  16.189  44.839  11.580
60311W        W19407   3.953  27.689   3.236
60312W        W19408  32.108   1.359   3.841
60313W        W19409   5.837  32.086  11.390
60314W        W19410  40.895   5.753  11.970
60315W        W19411  19.636  29.931   2.668
60316W        W19412  42.874  27.185  14.855
60317W        W19413  33.525  12.173   1.913
60318W        W19414   0.369  26.638  10.150
60319W        W19415  39.360  12.789   0.741
60320W        W19416  43.951  23.216  12.536
60321W        W19417  30.002  19.683  11.455
60322W        W19418  39.957  11.346   1.284
60323W        W19419   6.378  31.048  14.382
60324W        W19420   8.289  37.951   0.816
60325W        W19421   1.246  39.915  14.887
60326W        W19422   9.365   4.779  12.904
60327W        W19423  10.152  20.253  12.897
60328W        W19424   3.283  35.859  13.382
60329W        W19425  10.290  20.146   5.210
60330W        W19426   1.464  16.748  12.364
60331W        W19427  26.479  35.917  13.896
60332W        W19428  29.117  29.047   3.852
60333W        W19429  42.917  33.456   4.605
60334W        W19430  12.756   7.786  14.292
60335W        W19431   3.817  39.374  13.435
60336W        W19432   9.867  24.614   3.807
60337W        W19433  40.323  34.923  10.988
60338W        W19434   2.791  15.646   2.836
60339W        W19435  28.153   0.843  13.053
60340W        W19436  36.898  33.553  10.972
60341W        W19437   5.262  38.460  12.452
60342W        W19438  36.048  41.313   4.784
60343W        W19439  29.602  18.194  10.091
60344W        W19440   6.286  32.601   1.809
60345W        W19441  16.213  31.147  13.343
60346W        W19442  12.153  35.581  14.928
60347W        W19443  12.761  27.137   1.929
60348W        W19444  22.618  41.866   0.286
60349W        W19445  26.012   9.162  14.872
60350W        W19446  20.216  11.797  10.033
60351W        W19447   5.752  27.059   2.416
60352W        W19448  30.042   4.838  10.895
60353W        W19449   0.921  31.980  14.929
60354W        W19450  14.644  16.211   1.767
60355W        W19451   8.826  24.608  13.543
60356W        W19452  36.481  31.051   4.332
60357W        W19453  26.470  16.094  13.391
60358W        W19454  25.497  26.678   1.731
60359W        W19455  44.770  13.688   3.673
60360W        W19456  41.851  13.705  12.032
60361W        W19457  10.820  18.604   1.926
60362W        W19458  21.264  19.047  14.807
60363W        W19459  13.790  26.165   3.373
60364W        W19460  16.226  41.819   2.188
60365W        W19461  25.700  22.090  11.447
60366W        W19462  10.369  31.439   4.184
60367W        W19463  41.820  18.779  12.472
60368W        W19464  38.472  20.557   3.819
60369W        W19465  10.731   0.909   4.320
60370W        W19466  42.326   9.806   0.928
60371W        W19467  41.813  35.034  13.392
60372W        W19468  43.322  35.361   2.344
60373W        W19469   2.445   1.734   3.312
60374W        W19470  38.458   0.491   4.127
60375W        W19471   9.211  34.517   4.751
60376W        W19472  13.248  37.081   2.747
60377W        W19473  13.771   8.882   4.828
60378W        W19474   5.688   0.447  12.461
60379W        W19475  38.336  27.642  14.889
60380W        W19476   8.266  29.475  13.395
60381W        W19477   8.319  33.537   4.706
60382W        W19478   9.258  40.927   2.369
60383W        W19479  37.958   7.310  13.815
60384W        W19480  23.628  36.871   2.249
60385W        W19481  41.421   5.270  11.124
60386W        W19482  12.334  14.648  11.025
60387W        W19483   3.255   9.293   3.692
60388W        W19484   3.369  24.026   2.355
60389W        W19485  10.221  35.921  13.981
60390W        W19486  10.819   5.798   4.785
60391W        W19487   4.715  38.325   0.856
60392W        W19488  40.331  32.119  14.376
60393W        W19489  28.504   1.736   0.458
60394W        W19490  25.615  27.128  13.919
60395W        W19491  33.123  29.076   0.340
60396W        W19492  38.478  21.104  12.344
60397W        W19493  14.325  42.350  14.985
60398W        W19494  10.646  35.993   0.475
60399W        W19495  40.027  14.309   1.450
60400W        W19496  33.109  29.947   0.852
60401W        W19497  33.525  11.740   0.299
60402W        W19498  24.046   7.355   4.300
60403W        W19499  35.389  17.249  13.036
60404W        W19500   8.317  17.786  14.389
60405W        W19501  38.941  21.601  14.850
60406W        W19502  24.102  42.388   4.648
60407W        W19503  37.868   3.269  12.866
60408W        W19504  41.514   5.303   1.305
60409W        W19505  23.136  27.567  14.932
60410W        W19506  43.814  36.841  11.887
60411W        W19507   4.835   2.428  13.004
60412W        W19508  11.688  23.051   4.175
60413W        W19509  11.335  36.416   4.636
60414W        W19510  16.278  30.456   2.344
60415W        W19511  27.943  24.668  12.400
60416W        W19512  26.027  11.675  10.538
60417W        W19513  41.305   6.894  13.340
60418W        W19514  14.178  38.474  10.940
60419W        W19515  39.511  42.875   2.242
60420W        W19516   0.480  11.629  10.426
60421W        W19517  21.142   1.798   4.710
60422W        W19518  15.297  16.157   2.896
60423W        W19519   5.842   9.734  10.906
60424W        W19520  25.671   7.325   4.645
60425W        W19521  27.668  25.107   1.725
60426W        W19522  28.446  14.192  10.478
60427W        W19523  38.446   0.885  13.032
60428W        W19524  44.796  10.694  14.441
60429W        W19525   7.291   5.243  10.411
60430W        W19526  14.296  43.411  11.037
60431W        W19527   4.416  39.973  13.905
60432W        W19528  13.642  27.983   0.253
60433W        W19529   5.886   3.383   0.364
60434W        W19530   8.247  18.219  13.846
60435W        W19531   4.787  43.473   3.307
60436W        W19532  41.503  23.529   0.440
60437W        W19533  14.158   1.915   1.920
60438W        W19534   7.206   9.383   0.296
60439W        W19535  42.331  10.794   2.673
60440W        W19536  18.147  20.572  12.516
60441W        W19537  17.736  44.285   4.144
60442W        W19538  21.697  25.982  11.612
60443W        W19539  31.134   2.464   0.303
60444W        W19540  40.855  30.634   1.258
60445W        W19541  40.862  35.376  14.906
60446W        W19542  15.798  37.036   2.757
60447W        W19543  23.073  31.066  14.996
60448W        W19544  10.729  29.140   4.751
60449W        W19545  15.740  10.679  11.506
60450W        W19546  14.336  16.088  13.453
60451W        W19547   7.389  42.834   1.765
60452W        W19548  21.044   2.829   4.216
60453W        W19549  16.282  40.989   1.242
60454W        W19550  30.520  16.094  10.939
60455W        W19551  31.557  28.539  11.972
60456W        W19552  14.158   7.722   1.403
60457W        W19553  16.272  38.418  11.119
60458W        W19554  29.960  15.579  10.621
60459W        W19555  32.518  22.068   3.800
60460W        W19556  14.242   1.877   3.674
60461W        W19557  19.134  16.198   4.812
60462W        W19558  42.790   6.843  13.891
60463W        W19559  17.186  33.405  11.873
60464W        W19560  21.648  22.635  14.906
60465W        W19561  43.307  29.954  10.527
60466W        W19562  28.653   1.876   4.248
60467W        W19563  17.640  38.024   2.883
60468W        W19564  26.541  30.618   1.810
60469W        W19565  19.557  34.494  13.797
60470W        W19566  13.730  28.528  10.561
60471W        W19567  35.411  16.279  13.836
60472W        W19568   4.215  38.526  12.417
60473W        W19569  32.473  21.678  12.354
60474W        W19570  12.848   8.283   0.886
60475W        W19571  29.106  39.378   4.298
60476W        W19572  14.814  13.621  11.127
60477W        W19573  13.290  21.634  12.090
60478W        W19574  39.537  29.565  11.581
60479W        W19575  28.175  34.909   1.346
60480W        W19576  28.069  40.451   1.837
60481W        W19577  26.511  24.640  10.461
60482W        W19578  33.502  11.754  13.451
60483W        W19579  24.535  41.858  10.552
60484W        W19580   7.744  23.677  13.389
60485W        W19581  35.510  27.508  12.861
60486W        W19582  41.421  14.652   2.705
60487W        W19583  15.821  30.659   5.237
60488W        W19584   4.916   0.743  14.384
60489W        W19585   9.821  22.629   4.239
60490W        W19586  27.657  23.025  14.776
60491W        W19587  33.081   8.657   4.791
60492W        W19588  30.922  42.967   5.091
60493W        W19589  42.853  17.690  10.967
60494W        W19590  38.340  22.087  12.372
60495W        W19591  34.965  10.290   4.234
60496W        W19592  31.917  27.063   1.232
60497W        W19593  10.654   8.226   4.165
60498W        W19594  35.908  38.837   1.923
60499W        W19595  10.142  21.258   5.110
60500W        W19596  31.023   3.853  13.950
60501W        W19597  31.935   4.317  11.896
60502W        W19598  41.993  17.228   1.371
60503W        W19599  15.160  24.673  12.383
60504W        W19600  39.058  33.584  13.884
60505W        W19601  23.141  19.700   0.966
60506W        W19602  24.523  25.705   0.321
60507W        W19603   5.705   5.280  13.012
60508W        W19604  18.627   0.925   1.901
60509W        W19605   3.262   6.699  14.929
60510W        W19606  10.830  39.414  12.860
60511W        W19607  25.635   1.907   3.808
60512W        W19608   9.767  20.206   2.202
60513W        W19609  16.278   7.265   4.149
60514W        W19610  43.875  38.857  14.783
60515W        W19611  44.434  35.063  13.866
60516W        W19612  41.848  26.679  10.416
60517W        W19613  39.860  14.780  12.983
60518W        W19614   8.812  24.568  11.973
60519W        W19615   7.377  31.907   3.833
60520W        W19616   5.241  23.084  13.803
60521W        W19617  15.134   3.872   1.233
60522W        W19618  27.038  13.660  13.976
60523W        W19619  38.858  18.587   4.316
60524W        W19620   3.451  37.490  14.985
60525W        W19621  28.602  10.348  10.558
60526W        W19622  14.147  24.994  11.555
60527W        W19623  44.955  39.016   0.865
60528W        W19624  27.082  32.939   0.918
60529W        W19625  10.850   2.750   1.386
60530W        W19626  12.191  29.083  13.052
60531W        W19627  31.901  43.335  14.794
60532W        W19628  16.795  19.165   0.420
60533W        W19629  12.656   8.762   1.394
60534W        W19630  10.745  29.506   2.858
60535W        W19631  23.571   6.303   0.843
60536W        W19632   0.900  29.446   1.797
60537W        W19633  11.229  33.972   1.766
60538W        W19634   0.923   1.734   2.726
60539W        W19635  41.030  13.730   0.390
60540W        W19636   2.416   5.736   4.692
60541W        W19637  35.068  39.054  10.071
60542W        W19638  38.459  10.199  11.986
60543W        W19639  13.290  34.967   3.828
60544W        W19640  27.038  31.111  11.063
60545W        W19641  14.102  40.374  10.610
60546W        W19642  26.686   4.927  10.432
60547W        W19643   9.692  35.502  12.902
60548W        W19644  39.435  35.559  11.550
60549W        W19645  37.351  12.733   5.224
60550W        W19646  32.098  36.040  12.467
60551W        W19647  14.589  42.352  13.880
60552W        W19648  18.702  13.301  10.963
60553W        W19649   2.410  42.017  10.921
60554W        W19650  40.493  26.183   4.725
60555W        W19651  39.033   4.370  11.583
60556W        W19652   0.436  42.524  12.918
60557W        W19653  13.223  16.107   0.857
60558W        W19654  12.287  17.589   4.225
60559W        W19655  11.806  23.998  12.342
60560W        W19656  13.768  43.873  11.067
60561W        W19657   6.755  18.742  12.889
60562W        W19658  12.206   6.375  13.445
60563W        W19659  35.488  31.141   1.394
60564W        W19660  18.070  44.922   2.340
60565W        W19661  14.235  39.035  11.553
60566W        W19662   7.342   0.762   3.745
60567W        W19663   6.684  10.170   4.835
60568W        W19664  32.485  23.620  12.402
60569W        W19665  42.958  33.482  12.475
60570W        W19666  30.135  20.644   0.271
60571W        W19667   8.664  36.857   1.895
60572W        W19668   0.778  43.895  13.907
60573W        W19669  42.492  23.152   2.294
60574W        W19670  43.295  10.319   2.694
60575W        W19671  35.504  22.545  14.460
60576W        W19672  20.101   6.384  13.992
60577W        W19673  23.188  20.704   3.641
60578W        W19674  24.611  31.493  11.881
60579W        W19675  27.599  35.073  13.956
60580W        W19676  26.155  13.158  14.922
60581W        W19677   8.812   2.266  10.925
60582W        W19678  26.640   5.318   2.768
60583W        W19679  25.110  14.777   2.186
60584W        W19680  43.971  35.364  10.617
60585W        W19681  22.564  43.803   4.768
60586W        W19682  44.392  31.119   0.484
60587W        W19683  19.069  43.965   4.198
60588W        W19684  44.858  18.279   1.789
60589W        W19685  23.211  24.627  14.817
60590W        W19686  18.214  28.603  10.947
60591W        W19687  38.569  20.579   0.915
60592W        W19688  18.265   4.217  11.535
60593W        W19689  39.474  19.135  12.393
60594W        W19690  32.908  18.668   3.839
60595W        W19691  41.322  13.651   1.878
60596W        W19692  40.941   6.689  11.479
60597W        W19693   0.401  37.932   0.245
60598W        W19694   3.344   6.423  13.531
60599W        W19695  37.382  20.626   1.221
60600W        W19696  28.495  40.514   0.468
60601W        W19697   4.305  38.993  13.004
60602W        W19698  22.657   5.315   0.419
60603W        W19699  10.704  11.364  12.023
60604W        W19700  40.342  19.176  11.019
60605W        W19701  18.230   8.391   1.375
60606W        W19702  39.380  25.047  12.874
60607W        W19703   4.420  13.250   4.204
60608W        W19704  41.312  28.047  12.455
60609W        W19705  38.874  22.181  13.944
60610W        W19706  15.251  35.984   5.269
60611W        W19707  31.110  27.036   0.299
60612W        W19708  11.200  17.101  11.059
60613W        W19709  18.065  12.700  13.430
60614W        W19710  36.555  11.652  11.559
60615W        W19711   6.827  23.649  11.014
60616W        W19712   1.946  27.543   3.236
60617W        W19713  21.100  18.135   0.315
60618W        W19714   0.348  17.605  14.948
60619W        W19715  36.090  40.875   1.894
60620W        W19716  28.472  31.409  12.553
60621W        W19717  17.662  39.474  12.071
60622W        W19718   5.748   1.862   0.789
60623W        W19719  11.639  10.208  10.158
60624W        W19720  31.643   7.800  13.030
60625W        W19721  40.866  30.981   0.269
60626W        W19722   5.820  16.601   2.840
60627W        W19723   2.735  10.349   2.248
60628W        W19724  22.579   5.898  13.334
60629W        W19725  33.544  30.488   5.235
60630W        W19726  43.982  12.638   3.241
60631W        W19727  35.102  39.010  14.401
60632W        W19728  20.535  30.634  13.988
60633W        W19729  31.946  25.524  11.958
60634W        W19730  11.801  34.394   1.911
60635W        W19731  33.464   9.149   2.364
60636W        W19732  10.148  41.322  10.453
60637W        W19733  22.651  44.466   0.916
60638W        W19734  12.750  32.471  11.905
60639W        W19735   6.309  38.461  14.025
60640W        W19736  24.648  13.716   2.828
60641W        W19737  14.198  12.678   3.335
60642W        W19738  14.756   0.942   3.673
60643W        W19739  21.117  19.638   0.955
60644W        W19740  16.792   9.843   1.786
60645W        W19741  12.130  16.780   2.391
60646W        W19742  26.953  38.343  11.989
60647W        W19743  19.590  32.536   1.766
60648W        W19744   6.417  22.152   3.233
60649W        W19745  38.465   5.862  12.997
60650W        W19746  41.360  39.811   2.684
60651W        W19747  17.140  38.436  11.984
60652W        W19748   0.818  31.635  10.513
60653W        W19749   7.860  27.597   1.265
60654W        W19750  29.624  18.547   1.260
60655W        W19751  31.435   2.799   4.611
60656W        W19752  28.530  20.576  13.007
60657W        W19753   7.882   8.877  11.102
60658W        W19754  32.494  31.524   4.636
60659W        W19755   0.349  37.998  14.782
60660W        W19756   1.877  42.889  14.417
60661W        W19757   9.236  10.304   0.326
60662W        W19758  36.074  16.672  11.942
60663W        W19759   6.764  17.193   1.849
60664W        W19760  24.623  40.484  12.485
60665W        W19761  38.977  31.510   3.311
60666W        W19762  15.212  11.162  13.337
60667W        W19763  33.122  29.608   1.437
60668W        W19764  41.478  23.625   0.952
60669W        W19765  10.751   4.286  10.956
60670W        W19766  43.837  25.993   1.368
60671W        W19767  43.897  13.320   1.293
60672W        W19768  25.628   8.777  12.551
60673W        W19769  43.870  26.072   2.317
60674W        W19770  20.158   6.904   0.349
60675W        W19771  25.980  35.506  12.461
60676W        W19772   6.426   4.905  11.870
60677W        W19773   9.204  20.155  14.900
60678W        W19774  30.435  17.224  13.800
60679W        W19775   1.942  13.831  11.503
60680W        W19776   6.739  30.965  14.977
60681W        W19777   0.855  13.618   4.795
60682W        W19778   4.775  41.357   5.264
60683W        W19779   7.382   6.763   4.169
60684W        W19780  41.382  25.675  13.028
60685W        W19781  42.826  31.923   4.131
60686W        W19782   8.272  16.290   1.348
60687W        W19783  34.943  21.123  12.064
60688W        W19784  19.267   4.287   2.663
60689W        W19785  15.742  18.548   1.253
60690W        W19786  28.553  34.478  10.512
60691W        W19787   8.389   1.846   2.274
60692W        W19788  12.729  40.874  11.956
60693W        W19789   7.391  37.980   4.683
60694W        W19790  39.495  22.711  14.382
60695W        W19791  10.226  21.129   2.310
60696W        W19792  18.249  21.139  11.105
60697W        W19793  23.239  25.967   2.751
60698W        W19794   2.788  24.650   3.691
60699W        W19795  18.233  26.054  14.013
60700W        W19796   6.331  22.020   3.836
60701W        W19797  24.504  39.317   0.777
60702W        W19798  42.348  19.747   2.871
60703W        W19799  34.532  44.302   2.853
60704W        W19800  26.074  28.455   2.820
60705W        W19801  31.042  37.493  10.042
60706W        W19802  14.326  10.798  14.480
60707W        W19803  43.493  16.768   1.229
60708W        W19804  36.874  17.167   0.319
60709W        W19805  38.923  14.326  11.033
60710W        W19806  34.075  44.258   4.235
60711W        W19807  35.075  11.291  10.407
60712W        W19808  30.546  32.549  10.466
60713W        W19809  35.949  34.101  13.474
60714W        W19810  41.451  44.420   4.299
60715W        W19811   9.694  13.179   0.733
60716W        W19812  28.479   7.720  10.545
60717W        W19813  31.611  19.105   1.350
60718W        W19814   0.952   0.910   5.285
60719W        W19815   4.780  31.496  14.942
60720W        W19816  43.413   9.808  12.400
60721W        W19817  40.978  21.077  10.964
60722W        W19818  41.930  11.754   3.246
60723W        W19819  22.147   5.411   1.925
60724W        W19820  21.089  22.569   0.911
60725W        W19821   9.789   9.310  11.013
60726W        W19822   0.385  42.910   3.213
60727W        W19823  18.246  40.436   0.807
60728W        W19824  41.913  22.624  13.465
60729W        W19825   2.800  28.154  10.517
60730W        W19826   5.791   6.757  14.503
60731W        W19827  21.555  23.655   3.382
60732W        W19828  29.531  27.944   1.333
60733W        W19829  32.941   7.911   2.369
60734W        W19830   3.361  29.091   4.607
60735W        W19831   6.690  35.855   1.872
60736W        W19832  25.015  14.319   2.870
60737W        W19833  28.574  14.214   3.215
60738W        W19834  27.954  41.971   2.305
60739W        W19835  30.124  35.440  14.028
60740W        W19836  37.493  16.586  12.527
60741W        W19837   0.971  23.491   1.447
60742W        W19838  11.721  19.176   0.413
60743W        W19839  26.978  39.026  11.494
60744W        W19840   1.854  13.821   0.949
60745W        W19841  18.653  28.959  10.642
60746W        W19842  24.167  11.730  11.564
60747W        W19843  39.938   5.707   1.833
60748W        W19844  43.946  31.109  12.062
60749W        W19845  33.933   4.845  14.763
60750W        W19846  17.111  17.639   1.822
60751W        W19847  37.343  43.904   3.367
60752W        W19848   7.306  11.716   0.873
60753W        W19849   6.703  42.304  11.372
60754W        W19850   6.259  26.151   5.304
60755W        W19851  26.125  12.624   1.224
60756W        W19852  43.876  16.215  12.916
60757W        W19853  28.982  17.571  12.460
60758W        W19854  33.448  26.133   5.088
60759W        W19855   3.369  20.728  13.891
60760W        W19856   1.373  33.992  13.495
60761W        W19857  11.719  11.684  12.357
60762W        W19858  40.019   2.733   1.425
60763W        W19859  35.928  10.773  13.487
60764W        W19860  10.318  37.900  14.776
60765W        W19861  44.819  33.976   0.443
60766W        W19862   4.434   3.897   3.217
60767W        W19863  26.093  22.540   0.292
60768W        W19864  15.741  22.020  13.307
60769W        W19865   8.656   8.397   2.295
60770W        W19866  20.712  10.663   4.629
60771W        W19867   1.344  17.282  11.977
60772W        W19868  35.049  10.289  10.938
60773W        W19869  22.227  12.714   0.447
60774W        W19870  12.287  36.465   3.853
60775W        W19871  27.445  34.953   0.859
60776W        W19872   1.865   8.295  13.455
60777W        W19873   2.439  16.078  10.897
60778W        W19874   4.738   2.793   2.700
60779W        W19875   9.263   3.447   1.322
60780W        W19876  36.466   3.956  11.995
60781W        W19877  36.475  43.315  13.829
60782W        W19878  27.626  19.198  14.020
60783W        W19879  40.967  41.859  14.950
60784W        W19880   9.194  38.830  12.070
60785W        W19881  35.447   6.292   3.864
60786W        W19882  37.391   7.261   3.322
60787W        W19883   4.419  26.083   0.323
60788W        W19884  31.121  13.266  10.587
60789W        W19885  15.719  24.014   0.368
60790W        W19886   4.330   2.766  10.905
60791W        W19887  41.533  33.038  12.994
60792W        W19888  40.499  18.720   4.654
60793W        W19889  23.114  22.541   4.146
60794W        W19890   8.716  40.366   3.276
60795W        W19891  12.151  33.411  12.002
60796W        W19892  25.574   1.269  13.515
60797W        W19893  19.674  21.136  11.922
60798W        W19894   8.345  32.585  11.506
60799W        W19895  28.036  13.775  12.091
60800W        W19896  40.516  33.566  11.459
60801W        W19897  35.034  26.158   2.733
60802W        W19898  25.614  34.074  12.444
60803W        W19899   4.911  33.579  12.037
60804W        W19900   1.966  39.863   3.319
60805W        W19901  10.248   5.833   1.306
60806W        W19902  16.589  41.391  10.960
60807W        W19903  39.512  22.210   0.759
60808W        W19904  23.683  28.010  14.501
60809W        W19905  41.401  16.187   0.402
60810W        W19906  19.553  28.994   2.404
60811W        W19907  39.416  12.817  11.896
60812W        W19908  31.053  39.546   0.401
60813W        W19909  14.743  17.745  11.484
60814W        W19910   4.353  22.115   1.891
60815W        W19911   9.820  23.073   9.463
60816W        W19912  32.621   4.924   2.241
60817W        W19913  21.073  30.549   9.988
60818W        W19914  35.991  31.092  12.901
60819W        W19915  44.385  24.093   1.890
60820W        W19916  12.360  14.315  12.091
60821W        W19917  13.612   8.366   0.836
60822W        W19918   0.486  13.121  11.381
60823W        W19919   1.786  26.495  10.955
60824W        W19920   7.675  11.835  10.495
60825W        W19921  16.073  16.222   3.708
60826W        W19922  20.041  26.651  13.793
60827W        W19923  17.717  39.378  11.532
60828W        W19924  26.023  42.354   3.702
60829W        W19925  23.139  34.442  12.473
60830W        W19926  12.286   9.282   4.606
60831W        W19927   9.863  27.125  13.009
60832W        W19928  17.243  23.175  13.462
60833W        W19929  31.584   8.700  12.952
60834W        W19930  36.369  15.618  12.510
60835W        W19931  10.802  19.720  12.465
60836W        W19932   8.823  20.680  12.006
60837W        W19933  18.157  17.709   0.816
60838W        W19934  13.180   8.299  13.959
60839W        W19935  14.305  37.405   2.274
60840W        W19936  41.525  12.628   2.310
60841W        W19937  31.082  11.220   3.255
60842W        W19938  12.807  31.570  11.404
60843W        W19939   5.690   4.367  13.905
60844W        W19940   5.898  27.091  13.531
60845W        W19941  33.044  18.161  14.869
60846W        W19942   9.277  38.036   2.761
60847W        W19943  42.786  31.968  11.048
60848W        W19944  39.989  26.083  10.432
60849W        W19945  43.829   8.193  12.452
60850W        W19946   3.896  12.238  10.487
60851W        W19947  32.431  22.678   2.183
60852W        W19948  20.188   0.264   3.179
60853W        W19949  37.989  27.552   0.845
60854W        W19950  22.234  38.008  14.440
60855W        W19951  42.381   5.253  11.432
60856W        W19952  44.967   3.772   2.744
60857W        W19953   5.728  22.632  12.982
60858W        W19954   3.312  33.945   4.821
60859W        W19955  25.071   1.856   3.363
60860W        W19956  10.245  18.130  13.467
60861W        W19957  36.357  42.400  10.610
60862W        W19958   6.361  38.825  14.887
60863W        W19959  17.597  27.673   1.798
60864W        W19960  42.422  24.146  10.958
60865W        W19961  10.647   5.250  14.979
60866W        W19962  42.792  39.963   1.242
60867W        W19963  34.023  15.237  12.905
60868W        W19964  26.026  31.090   3.840
60869W        W19965  44.381   2.918   4.149
60870W        W19966  18.185  38.835   3.275
60871W        W19967   4.890  22.219   4.116
60872W        W19968   8.198   3.297   4.274
60873W        W19969  30.507  26.978  12.472
60874W        W19970  16.251  36.014   0.841
60875W        W19971   2.792   7.378   0.736
60876W        W19972   8.655  16.252  14.937
60877W        W19973  39.963   9.854  11.965
60878W        W19974   1.481   2.266   1.712
60879W        W19975  10.263  16.108   1.865
60880W        W19976  36.061   4.791   4.816
60881W        W19977  43.844  10.381   4.337
60882W        W19978   3.257   7.829  13.951
60883W        W19979   8.201  40.970  11.919
60884W        W19980  23.999  21.068   0.375
60885W        W19981   4.240  31.966  14.012
60886W        W19982  37.514  23.086   0.745
60887W        W19983  23.138   0.759  13.355
60888W        W19984  37.980  13.704  12.516
60889W        W19985  28.182  44.895  12.364
60890W        W19986  36.929  37.422   1.933
60891W        W19987  30.546   6.401   3.216
60892W        W19988  37.071   7.329  13.939
60893W        W19989  11.644  44.490  14.951
60894W        W19990  31.543  26.510   2.816
60895W        W19991  31.055  30.531  12.341
60896W        W19992  39.871  11.346   4.702
60897W        W19993  12.675  42.434   2.405
60898W        W19994   0.988   9.223   3.783
60899W        W19995  11.257  10.810  12.897
60900W        W19996  43.935  26.197  11.586
60901W        W19997  11.192   5.235   0.322
60902W        W19998  12.210  24.514   0.895
60903W        W19999  24.216  13.606  13.484
60904W        W20000  36.386   3.827   0.285
60905W        W20001  31.953   0.378  14.277
60906W        W20002  43.787  22.664  12.379
60907W        W20003  17.090  17.239   0.353
60908W        W20004  20.696  39.346  10.481
60909W        W20005  13.655  32.534  13.813
60910W        W20006   5.401   2.427  12.405
60911W        W20007  16.646  36.013   2.416
60912W        W20008  29.514  36.088  13.840
60913W        W20009  27.089   4.763  11.559
60914W        W20010  18.642  36.458   1.807
60915W        W20011  17.169  31.609   0.467
60916W        W20012   8.330   1.917  13.997
60917W        W20013  25.535  13.626  12.558
60918W        W20014  17.687  34.078  11.522
60919W        W20015   5.429  30.464   0.893
60920W        W20016   6.696  20.240   3.783
60921W        W20017  19.214  38.822  13.834
60922W        W20018   2.945  23.112   1.769
60923W        W20019  19.245  19.642  12.890
60924W        W20020  14.193  27.516  13.049
60925W        W20021  24.567  16.779  10.450
60926W        W20022  23.665   6.883  14.484
60927W        W20023  25.098  42.855  11.501
60928W        W20024  12.233  29.506   0.363
60929W        W20025  19.150  23.080   3.736
60930W        W20026  30.431   9.350   0.772
60931W        W20027  40.481   4.871   2.699
60932W        W20028  22.182  19.573   4.624
60933W        W20029  40.866  17.759  11.886
60934W        W20030  12.131  35.438  14.467
60935W        W20031  28.048  27.171   4.743
60936W        W20032  35.108   9.809   0.873
60937W        W20033  21.653  27.457   4.313
60938W        W20034   1.809  39.328   4.280
60939W        W20035  38.914  44.943  12.386
60940W        W20036  17.777  31.569  13.498
60941W        W20037  22.648  40.974  12.414
60942W        W20038  35.417  23.496  10.503
60943W        W20039  44.468  43.008   1.766
60944W        W20040   0.368  23.710  11.050
60945W        W20041  36.391  44.899  11.489
60946W        W20042   8.731  27.557  10.484
60947W        W20043  21.140   9.325   2.812
60948W        W20044  26.623  37.367  11.591
60949W        W20045  44.504   7.374  10.026
60950W        W20046  25.622  10.191  10.084
60951W        W20047  30.511  21.094   4.809
60952W        W20048  29.082  13.313  13.866
60953W        W20049  12.733   8.311  13.816
60954W        W20050   7.376   3.399   0.779
60955W        W20051  35.025   6.230  11.029
60956W        W20052   1.428  38.878   0.738
60957W        W20053  34.608  21.041  14.441
60958W        W20054   7.839  18.248   9.933
60959W        W20055   1.811  16.713   1.931
60960W        W20056  43.408  42.427   4.687
60961W        W20057  25.699   9.225  12.523
60962W        W20058   7.292  21.073  13.922
60963W        W20059  18.606  39.003   3.377
60964W        W20060   0.430  37.030   4.735
60965W        W20061  27.042  36.028  14.989
60966W        W20062  26.689  44.357   3.720
60967W        W20063  34.891  27.513   1.741
60968W        W20064  38.338   9.185   1.787
60969W        W20065  17.661   6.234   0.765
60970W        W20066  29.977  24.520   0.294
60971W        W20067  16.809   8.210   4.345
60972W        W20068  32.437  20.616   1.413
60973W        W20069  26.034  32.960   0.734
60974W        W20070  23.097  19.737  12.901
60975W        W20071   8.175  19.248   2.791
60976W        W20072  14.783  36.416   1.927
60977W        W20073  16.141   0.337   0.925
60978W        W20074  19.186  40.802  14.928
60979W        W20075  35.075  14.708   4.764
60980W        W20076  38.523   0.959  11.937
60981W        W20077   1.898   1.895   0.352
60982W        W20078  22.554   6.884  12.044
60983W        W20079  24.634   6.742   1.850
60984W        W20080  35.469  40.904   0.842
60985W        W20081  35.052  25.686   1.403
60986W        W20082  33.108  15.309  10.581
60987W        W20083   2.760  39.524  11.451
60988W        W20084  10.876  42.943  14.799
60989W        W20085  26.680  36.862   4.296
60990W        W20086  31.600  31.465  10.410
60991W        W20087  34.481  24.581  11.916
60992W        W20088   0.382  10.168   1.413
60993W        W20089  36.523  41.305  13.486
60994W        W20090  12.813  34.985  12.489
60995W        W20091  28.178   1.812   0.881
60996W        W20092  42.494  23.665   0.780
60997W        W20093  37.418  23.620   3.809
60998W        W20094  26.679  39.930   4.260
60999W        W20095  34.541  44.844  11.552
61000W        W20096  39.874  28.994   4.644
61001W        W20097  35.963  43.013  13.825
61002W        W20098  41.532  29.433   1.429
61003W        W20099  20.655  14.753   4.190
61004W        W20100  24.169  15.795   4.161
61005W        W20101  32.522  25.163  12.907
61006W        W20102   8.239  23.606   4.290
61007W        W20103  27.146   9.373   4.686
61008W        W20104   1.404  12.623  14.921
61009W        W20105  43.977  35.967   1.356
61010W        W20106  15.138   4.865   1.763
61011W        W20107  39.983  14.696   0.750
61012W        W20108   9.701  33.541  11.857
61013W        W20109  27.026  35.577   0.429
61014W        W20110  41.479  25.508   0.768
61015W        W20111  10.350  36.457   4.667
61016W        W20112   7.843  31.492  14.446
61017W        W20113  36.008  19.722   1.866
61018W        W20114  36.371  42.966   5.247
61019W        W20115  38.976   3.912  14.832
61020W        W20116  35.991  18.627  14.331
61021W        W20117  18.683  12.154   3.778
61022W        W20118  36.859  38.912   2.742
61023W        W20119  30.907  23.069  13.359
61024W        W20120  40.848   9.192   4.791
61025W        W20121  20.589  21.593   1.903
61026W        W20122  13.336  10.277   0.391
61027W        W20123  23.022  20.049   5.746
61028W        W20124   3.731  19.759  12.080
61029W        W20125  13.819  11.341  10.644
61030W        W20126  38.872  12.116   0.326
61031W        W20127  21.590  28.554  10.605
61032W        W20128   3.938   5.212   3.162
61033W        W20129  35.992  13.126  14.961
61034W        W20130  21.078  35.096  11.576
61035W        W20131  40.387  34.603   3.358
61036W        W20132  33.575  40.034   2.413
61037W        W20133   9.703  30.599  14.417
61038W        W20134   6.262  24.079   5.100
61039W        W20135  28.543  18.074  13.925
61040W        W20136  10.793  30.584   3.207
61041W        W20137   0.372  38.370  12.028
61042W        W20138  44.833  18.219  10.413
61043W        W20139  38.544  23.140  13.320
61044W        W20140  27.074  20.567  12.471
61045W        W20141  23.527  10.265  14.781
61046W        W20142   0.260  22.602   3.233
61047W        W20143  40.384   8.365  11.582
61048W        W20144  13.659  28.597   1.348
61049W        W20145  27.585  15.323  12.416
61050W        W20146  19.122  10.226  11.984
61051W        W20147  42.450  34.999  11.976
61052W        W20148   8.771  27.986   1.299
61053W        W20149   3.838  19.258  13.489
61054W        W20150  28.953  31.968   1.394
61055W        W20151  33.095  11.232  13.006
61056W        W20152  33.593  18.632   3.262
61057W        W20153  10.306   8.695  13.469
61058W        W20154  31.052  10.667  11.000
61059W        W20155  35.379  31.112  13.005
61060W        W20156  11.852   6.425  10.622
61061W        W20157  44.950  11.676  12.879
61062W        W20158  30.164   7.237  10.593
61063W        W20159   9.782  32.136  14.772
61064W        W20160  22.137  24.512  14.795
61065W        W20161   5.926   8.684   1.307
61066W        W20162  11.787   3.816  14.340
61067W        W20163  40.985  24.110  11.414
61068W        W20164  43.851  44.442   0.852
61069W        W20165  38.386   4.833   3.386
61070W        W20166  27.985   6.343   3.205
61071W        W20167  10.734   2.387  14.883
61072W        W20168  17.109  38.041  12.565
61073W        W20169  35.050  28.673  14.860
61074W        W20170  28.488   2.750  13.360
61075W        W20171  39.874   4.856   0.867
61076W        W20172  34.488  43.005   1.440
61077W        W20173  15.257   4.830  13.829
61078W        W20174  29.156  28.526   3.252
61079W        W20175  21.200  18.107   1.845
61080W        W20176  26.960  21.103   4.818
61081W        W20177  35.496   6.676  11.921
61082W        W20178  34.443  11.213  10.995
61083W        W20179   3.376   1.760  10.052
61084W        W20180  15.592  16.075  11.912
61085W        W20181  19.093   2.922  14.274
61086W        W20182  32.549   7.379   4.284
61087W        W20183  24.027  34.918  12.381
61088W        W20184  44.342  37.845   0.783
61089W        W20185  38.058  17.279  11.102
61090W        W20186   4.729   8.702   0.883
61091W        W20187  10.281   3.239  10.065
61092W        W20188  41.009  19.760  12.348
61093W        W20189  27.675   9.288  14.474
61094W        W20190  11.679  26.185  14.452
61095W        W20191   5.738  32.921   0.917
61096W        W20192  40.945  41.375   3.146
61097W        W20193   9.658  18.226   4.273
61098W        W20194  20.032  17.097  10.588
61099W        W20195   6.274  15.144  10.919
61100W        W20196  22.227   6.749  11.123
61101W        W20197  28.129   8.726  11.473
61102W        W20198  34.991  41.845  10.894
61103W        W20199  10.685  24.053   0.790
61104W        W20200   5.852  10.691   1.340
61105W        W20201   1.445   2.472  12.360
61106W        W20202   9.187  15.136  14.976
61107W        W20203   8.709  37.057  13.540
61108W        W20204   7.374   9.842   0.452
61109W        W20205  37.437   6.187  12.919
61110W        W20206  10.824   4.260   1.398
61111W        W20207  14.595  41.825  14.833
61112W        W20208  38.035   1.751  11.001
61113W        W20209  25.623  42.914  11.120
61114W        W20210  19.633  40.911   3.788
61115W        W20211  41.022  18.066   1.341
61116W        W20212   2.413   1.938   4.661
61117W        W20213  14.132   3.736  14.794
61118W        W20214  35.399  40.051   2.406
61119W        W20215  24.123  23.510  14.796
61120W        W20216  20.727  10.864  12.994
61121W        W20217  25.028  44.942  13.932
61122W        W20218  11.750  17.714   0.426
61123W        W20219   9.325  30.148  11.377
61124W        W20220  26.984  17.652  13.929
61125W        W20221  19.564  39.395   2.860
61126W        W20222  34.077  39.483   2.260
61127W        W20223  31.614  43.947   2.897
61128W        W20224  10.879   3.710   0.925
61129W        W20225  14.167  16.210   1.893
61130W        W20226  18.225  31.981  12.882
61131W        W20227  11.830  40.391  10.940
61132W        W20228  43.503   9.644   2.339
61133W        W20229   4.698   4.828  13.940
61134W        W20230   0.787   2.909   2.711
61135W        W20231  28.095   8.201  12.568
61136W        W20232  43.903  43.805   2.825
61137W        W20233   1.338  23.723   0.390
61138W        W20234  25.647  26.970   1.890
61139W        W20235  26.464   7.309  13.854
61140W        W20236  41.838  25.166  13.007
61141W        W20237   1.872  44.427   0.372
61142W        W20238   6.360  30.987  12.990
61143W        W20239   6.217   7.248   0.919
61144W        W20240  25.075  38.440   1.924
61145W        W20241  17.301  18.560   3.664
61146W        W20242  19.160  25.686  10.458
61147W        W20243  31.450  35.103  11.107
61148W        W20244  12.242  12.178  12.397
61149W        W20245   3.219   3.240  13.801
61150W        W20246  23.995  44.813   2.334
61151W        W20247  24.687  43.959  14.375
61152W        W20248  38.443  39.903   2.894
61153W        W20249  34.565   3.848   0.891
61154W        W20250  22.075  10.283  13.544
61155W        W20251   0.362  34.111  14.796
61156W        W20252  12.797  22.135  11.008
61157W        W20253  25.993  34.008  10.105
61158W        W20254  22.091  40.805  12.867
61159W        W20255  44.756  35.982   4.629
61160W        W20256  19.628   9.650   0.264
61161W        W20257  20.065  11.137  12.001
61162W        W20258  25.979  22.733   2.860
61163W        W20259  12.647  32.012  14.805
61164W        W20260  31.959   0.851  14.959
61165W        W20261  29.062  32.956   3.679
61166W        W20262  31.953  29.526   2.802
61167W        W20263  18.132  34.404   4.238
61168W        W20264  26.575   9.798  13.063
61169W        W20265  20.651   3.265  10.505
61170W        W20266   4.800  28.611  12.881
61171W        W20267  23.219  27.460  10.914
61172W        W20268  39.971  26.169   0.848
61173W        W20269  37.866  39.929  12.994
61174W        W20270   9.303  28.533   0.428
61175W        W20271  33.130   6.393   4.330
61176W        W20272  16.587  36.910  11.891
61177W        W20273  30.959   5.847  14.011
61178W        W20274   2.350  14.752   0.729
61179W        W20275   1.927  36.850  11.503
61180W        W20276  41.038   9.153  13.526
61181W        W20277  13.742  32.442   2.689
61182W        W20278  20.742  27.561   4.129
61183W        W20279  23.210  27.594  11.890
61184W        W20280   9.168  15.794  14.969
61185W        W20281   5.275  26.609   0.934
61186W        W20282  38.455  28.939   3.383
61187W        W20283  13.348   3.412  11.957
61188W        W20284   3.343   3.768   1.248
61189W        W20285  26.488   9.248  14.300
61190W        W20286  24.175  10.333  10.457
61191W        W20287  28.562  16.188  12.521
61192W        W20288  44.864  33.895  14.429
61193W        W20289  27.164  39.923   3.813
61194W        W20290  12.818  35.989   0.400
61195W        W20291   4.902  23.002   2.283
61196W        W20292   4.341  15.141   2.845
61197W        W20293  27.677  32.491  11.111
61198W        W20294   1.937  11.264  10.528
61199W        W20295  31.632  11.347   1.694
61200W        W20296  34.992   7.889   1.718
61201W        W20297   5.239   8.360   4.686
61202W        W20298  19.757  39.407   1.913
61203W        W20299  42.858  28.638  11.907
61204W        W20300  35.001  13.232  10.542
61205W        W20301   4.341  19.266   1.917
61206W        W20302  34.483  26.535  13.451
61207W        W20303  18.223  40.489  11.114
61208W        W20304  31.542   2.291  12.490
61209W        W20305  41.016   7.790  11.444
61210W        W20306  23.570  35.520   3.866
61211W        W20307  23.080   8.855   1.273
61212W        W20308  37.948  17.743  13.838
61213W        W20309  30.419   0.286   2.769
61214W        W20310  21.514   9.348  14.838
61215W        W20311  24.101  30.584   5.321
61216W        W20312   8.787   9.664   0.740
61217W        W20313   8.356  17.143   0.892
61218W        W20314  15.280  40.020   4.810
61219W        W20315  23.686   8.373  14.487
61220W        W20316  37.428  32.408  11.044
61221W        W20317  33.128  16.263  12.911
61222W        W20318  11.206  27.062  10.933
61223W        W20319   2.430  40.041  14.960
61224W        W20320  18.069  31.102   3.661
61225W        W20321  16.162  35.446   2.802
61226W        W20322  31.969  27.537  14.906
61227W        W20323  42.908  17.164   2.380
61228W        W20324  31.638  41.310  10.480
61229W        W20325  29.432   3.910   3.703
61230W        W20326   8.848   7.383  13.471
61231W        W20327  10.861  41.303   1.425
61232W        W20328  16.206   2.435  10.948
61233W        W20329  32.090  23.033   5.123
61234W        W20330  28.134  13.737  13.866
61235W        W20331  19.548   4.435  10.426
61236W        W20332   0.456  16.620   1.799
61237W        W20333  30.087  39.920   4.765
61238W        W20334  23.563   3.930   1.735
61239W        W20335  37.040  33.106   2.316
61240W        W20336  23.146  40.877   2.815
61241W        W20337  31.409  36.428   2.843
61242W        W20338  10.765  17.659   4.144
61243W        W20339  44.394   7.896  13.985
61244W        W20340   8.685  20.661  14.963
61245W        W20341  26.072  10.164  11.534
61246W        W20342   3.847  41.383   1.328
61247W        W20343   9.306  23.131  12.372
61248W        W20344  13.192  35.438   2.238
61249W        W20345  28.087  41.034   4.259
61250W        W20346  31.965  36.473   0.468
61251W        W20347  24.077   2.340  13.849
61252W        W20348  19.661  39.882  11.110
61253W        W20349  18.742   4.416  12.410
61254W        W20350   2.720   9.789  13.332
61255W        W20351  11.252   0.364  12.077
61256W        W20352   9.305  24.527   1.440
61257W        W20353  44.885  19.730   1.354
61258W        W20354  14.641  43.003  12.916
61259W        W20355  40.353  34.499   0.757
61260W        W20356   3.846  21.686  12.401
61261W        W20357  23.675  17.640   1.254
61262W        W20358   7.803  41.310  12.896
61263W        W20359  22.556  42.895   1.842
61264W        W20360  15.738  20.702  12.010
61265W        W20361  29.624  18.165  13.047
61266W        W20362  40.453   0.923   2.252
61267W        W20363   2.729   9.792  12.432
61268W        W20364  18.242  15.714   1.909
61269W        W20365  29.075  39.048   0.886
61270W        W20366  35.487   1.813  12.411
61271W        W20367  35.049   5.293  11.403
61272W        W20368  43.894   4.722  14.916
61273W        W20369  27.501   2.345  14.421
61274W        W20370  11.321   7.799  11.094
61275W        W20371  25.495  30.121   2.229
61276W        W20372  20.612   8.691  11.872
61277W        W20373  21.648   9.231   0.793
61278W        W20374   2.736  30.577   0.843
61279W        W20375  34.895  18.213  12.427
61280W        W20376  22.705  11.150  12.074
61281W        W20377  22.551  15.740   4.752
61282W        W20378   5.822  22.049  13.523
61283W        W20379  16.676  41.501  12.877
61284W        W20380   2.443  24.108  12.846
61285W        W20381  26.567  16.574  11.381
61286W        W20382   0.306  11.195  12.344
61287W        W20383  15.588  42.517  13.998
61288W        W20384  42.396  16.728   1.405
61289W        W20385  26.149  43.381   3.806
61290W        W20386  27.945  34.533  12.387
61291W        W20387  36.424  14.673  11.928
61292W        W20388  33.583  21.052  10.103
61293W        W20389  17.801  21.069   3.831
61294W        W20390  27.983  36.006   2.891
61295W        W20391  28.972  19.057  10.922
61296W        W20392  14.752   0.341  12.519
61297W        W20393  19.055  39.385  11.041
61298W        W20394   2.389  40.384   2.782
61299W        W20395  20.089  31.021   2.405
61300W        W20396  10.823  31.585  14.426
61301W        W20397  29.605  17.255  11.559
61302W        W20398  25.088  35.016   1.901
61303W        W20399  23.578  17.586   4.161
61304W        W20400  40.014  21.752   1.860
61305W        W20401  18.143  27.189  13.486
61306W        W20402  36.915  32.561  14.384
61307W        W20403  43.282  27.619   4.614
61308W        W20404  37.953  37.005  15.000
61309W        W20405   7.208  40.002   1.705
61310W        W20406  24.564  13.154  11.962
61311W        W20407  28.073   6.360  12.936
61312W        W20408   7.246  36.853  13.985
61313W        W20409  31.119  13.733  13.977
61314W        W20410   6.855  23.569   9.973
61315W        W20411   7.738  38.065   2.891
61316W        W20412  28.172   2.956   4.194
61317W        W20413  19.039   9.716  13.325
61318W        W20414  23.192   3.353  12.941
61319W        W20415  25.673  23.496   3.365
61320W        W20416  10.750  27.165  10.439
61321W        W20417  19.140   6.877  11.425
61322W        W20418  31.019  38.076   2.777
61323W        W20419  17.565  43.931   0.246
61324W        W20420  28.021   5.793   0.765
61325W        W20421   4.877  38.518   4.115
61326W        W20422  10.768   1.372  12.451
61327W        W20423  27.480  37.496   2.826
61328W        W20424  30.914  22.168   1.368
61329W        W20425  41.980  41.448  14.021
61330W        W20426  40.824  38.354  13.991
61331W        W20427  15.790  27.974   1.785
61332W        W20428  33.456  18.680   0.265
61333W        W20429  12.695  11.245  14.338
61334W        W20430  26.090  34.448  12.352
61335W        W20431   3.244  19.648   2.349
61336W        W20432  11.623  34.509  12.342
61337W        W20433  44.456   5.420   3.829
61338W        W20434   2.273  11.669  12.947
61339W        W20435  34.080  38.937   3.358
61340W        W20436   6.183  13.725   2.278
61341W        W20437  10.300  34.093   1.320
61342W        W20438  42.429  36.952   4.612
61343W        W20439   4.719  20.765  14.499
61344W        W20440   4.286  21.148  14.920
61345W        W20441   1.853  25.175  11.591
61346W        W20442  19.257  35.581  12.838
61347W        W20443  11.246  28.092   1.850
61348W        W20444  27.010  20.605   2.750
61349W        W20445  28.017  13.340   3.712
61350W        W20446  15.257  22.581  11.400
61351W        W20447   0.303   6.780   2.340
61352W        W20448   8.741  10.152  10.411
61353W        W20449  38.384   7.339   1.902
61354W        W20450  39.997  43.957  14.326
61355W        W20451  27.508   5.244  13.898
61356W        W20452  42.856  24.112  11.994
61357W        W20453  33.004   0.358  13.336
61358W        W20454   3.291  39.063   2.352
61359W        W20455  38.438  26.017   0.745
61360W        W20456  11.829  38.355  10.527
61361W        W20457   1.246   4.844  10.448
61362W        W20458  42.525  11.744   1.264
61363W        W20459  10.253  13.134   4.288
61364W        W20460  28.095   2.931   9.993
61365W        W20461  13.619  22.729   0.433
61366W        W20462   0.762  28.533  14.457
61367W        W20463  12.315  43.325  12.043
61368W        W20464  42.350  14.764  10.461
61369W        W20465   3.222  21.254  13.028
61370W        W20466  15.316  14.825  11.489
61371W        W20467   5.439  10.841   3.152
61372W        W20468   9.239  16.754   1.335
61373W        W20469  14.191  37.050   2.263
61374W        W20470   3.407  39.881  11.865
61375W        W20471  31.120   9.760  11.126
61376W        W20472  42.496  38.888   2.244
61377W        W20473  37.500  15.142   4.330
61378W        W20474  30.956   2.829   1.847
61379W        W20475  42.783  15.592   5.269
61380W        W20476  41.325   8.187   3.637
61381W        W20477  28.496  33.007   3.204
61382W        W20478  29.505  12.224   1.852
61383W        W20479  42.507  43.296  14.951
61384W        W20480  14.121  44.912   2.748
61385W        W20481  30.539  14.647   0.859
61386W        W20482  28.125   1.775   1.254
61387W        W20483  24.669  20.214  13.320
61388W        W20484  41.938  22.667   2.278
61389W        W20485   6.758   9.341  12.944
61390W        W20486  23.058   6.377  11.476
61391W        W20487  23.496  35.411  10.596
61392W        W20488  31.115  28.467  11.608
61393W        W20489  21.260  41.950   3.731
61394W        W20490  15.613   5.756  10.451
61395W        W20491  16.716  12.249   1.844
61396W        W20492  23.985  40.495  10.948
61397W        W20493   8.804  42.300  13.866
61398W        W20494  32.923   2.828  12.361
61399W        W20495  41.935  18.776  10.424
61400W        W20496  17.285  26.630   9.936
61401W        W20497  33.046   0.817  10.534
61402W        W20498  36.510  35.480  14.007
61403W        W20499  41.527  14.298   4.209
61404W        W20500  27.594   7.245  14.781
61405W        W20501  23.079   7.818  14.014
61406W        W20502  11.851  43.404   4.254
61407W        W20503  32.974   0.847  11.994
61408W        W20504  31.413   5.372  12.485
61409W        W20505   0.768  38.424  12.424
61410W        W20506  31.585  22.624   0.263
61411W        W20507  22.102  27.627   1.897
61412W        W20508   9.652  29.432  10.896
61413W        W20509  30.033   6.354  11.089
61414W        W20510  27.630  15.649   1.828
61415W        W20511   3.322  20.239  14.807
61416W        W20512   8.706  38.064  14.940
61417W        W20513  27.035  29.557  13.546
61418W        W20514  30.947  41.363  11.921
61419W        W20515  42.824  29.974  12.904
61420W        W20516  12.753  14.247   1.319
61421W        W20517  27.993  43.914   4.209
61422W        W20518   2.836  40.525  14.468
61423W        W20519  31.153  41.503   1.332
61424W        W20520  43.363  13.790   3.322
61425W        W20521  15.626  29.034   5.209
61426W        W20522   5.336   6.703  12.883
61427W        W20523  32.900   9.644   2.793
61428W        W20524  14.141   8.308  12.351
61429W        W20525  15.097  21.110  13.042
61430W        W20526  26.619  16.184  10.488
61431W        W20527  16.106  19.106  11.858
61432W        W20528  37.839  20.650  10.983
61433W        W20529  20.104   4.335   3.239
61434W        W20530  41.397   0.759   3.728
61435W        W20531   6.392  24.032  14.905
61436W        W20532  30.088  35.033  14.428
61437W        W20533  18.647  30.116  13.875
61438W        W20534  36.467  12.213   2.238
61439W        W20535  41.834   0.785   4.143
61440W        W20536   4.791  40.810   2.758
61441W        W20537   4.744  17.113  12.359
61442W        W20538  17.689  12.622   1.364
61443W        W20539   6.346   0.361  12.906
61444W        W20540  26.596  35.003   0.751
61445W        W20541  12.816  28.161   4.322
61446W        W20542  31.977   7.679   3.182
61447W        W20543   7.733   4.892   2.720
61448W        W20544   0.407  12.806  13.034
61449W        W20545  34.434  38.565  11.522
61450W        W20546  15.084  23.601  11.460
61451W        W20547  39.965  19.204   1.778
61452W        W20548  37.908  13.282  13.479
61453W        W20549  22.238  39.351   1.404
61454W        W20550   8.708  29.657   0.872
61455W        W20551  41.360  32.530   1.841
61456W        W20552  25.491  20.679   3.851
61457W        W20553  19.259  37.556   9.489
61458W        W20554  43.516  32.524  12.894
61459W        W20555  17.556  21.191   4.818
61460W        W20556  24.192  29.138   0.889
61461W        W20557   6.329  20.567   2.313
61462W        W20558  11.663  18.590  14.433
61463W        W20559  32.923  28.157  10.406
61464W        W20560  31.134  23.001   1.929
61465W        W20561  14.241  21.185   3.816
61466W        W20562   6.859  16.813  14.873
61467W        W20563  33.883  14.257   4.682
61468W        W20564   0.819  27.635   1.384
61469W        W20565  29.004   9.804  12.529
61470W        W20566  16.129   9.252   0.920
61471W        W20567  29.066  15.578   3.356
61472W        W20568  32.434  23.127   0.429
61473W        W20569  30.136  35.582  14.773
61474W        W20570  35.938   2.888  10.538
61475W        W20571   3.907   7.417   2.310
61476W        W20572  37.883  18.292  13.048
61477W        W20573  23.644  34.531   4.680
61478W        W20574  24.626  25.580   3.756
61479W        W20575  12.224  24.668  14.928
61480W        W20576  12.760   6.423  14.930
61481W        W20577  12.643   1.473  11.541
61482W        W20578  26.504   2.762  14.414
61483W        W20579  11.792   4.831  12.985
61484W        W20580   5.820   3.384  11.094
61485W        W20581  35.057  26.062  12.563
61486W        W20582  25.011   8.868   2.741
61487W        W20583   3.807  31.544   1.812
61488W        W20584  28.478   9.307  11.899
61489W        W20585  27.969  15.599   4.734
61490W        W20586  20.540  34.516   4.181
61491W        W20587  25.975  26.565   4.743
61492W        W20588  44.423  41.793   2.199
61493W        W20589   2.790  27.580   4.290
61494W        W20590  11.728  24.993   3.659
61495W        W20591  31.940  28.935  11.101
61496W        W20592  17.100  18.279  12.004
61497W        W20593  15.253  20.692   4.803
61498W        W20594  25.987  41.424   1.912
61499W        W20595  24.490  16.787   5.645
61500W        W20596   4.354  13.832   1.732
61501W        W20597  17.102  17.787   2.718
61502W        W20598  13.800  40.398   2.233
61503W        W20599  16.774  12.814  13.976
61504W        W20600  27.105  19.068  10.410
61505W        W20601   1.351  26.109   4.607
61506W        W20602  14.713   6.301  14.921
61507W        W20603   5.899   7.377  10.979
61508W        W20604  36.848  37.016   4.158
61509W        W20605   7.860  18.638   4.247
61510W        W20606   0.758  40.891  13.402
61511W        W20607   7.840  24.203   0.405
61512W        W20608  31.034  14.192  13.838
61513W        W20609  12.683  35.569   3.737
61514W        W20610  18.269   0.908   3.632
61515W        W20611  27.657  15.772  11.857
61516W        W20612  15.691  23.099   1.901
61517W        W20613  11.283  15.176   3.186
61518W        W20614  13.740  22.141   3.312
61519W        W20615  43.013  25.090   1.372
61520W        W20616  24.987  23.646  14.970
61521W        W20617   7.876  26.687  14.888
61522W        W20618  42.901  22.067   1.744
61523W        W20619  21.549  34.447   3.227
61524W        W20620  24.543  37.373  14.761
61525W        W20621   2.245  12.754  12.387
61526W        W20622  30.426  32.928  14.425
61527W        W20623  27.095  13.191  14.444
61528W        W20624   4.816   1.864   2.239
61529W        W20625  28.995  38.852   4.781
61530W        W20626  33.063  15.091  11.434
61531W        W20627  44.906   5.392   1.833
61532W        W20628  25.022  36.087   3.690
61533W        W20629  42.849  15.177  11.859
61534W        W20630  33.110  44.342   4.724
61535W        W20631  40.472   7.905  10.511
61536W        W20632  11.268  34.510   0.891
61537W        W20633  19.283  44.936  12.978
61538W        W20634  10.724  24.666  12.542
61539W        W20635  24.072  32.510   2.812
61540W        W20636  14.825  25.570  10.917
61541W        W20637  27.525  26.178   2.194
61542W        W20638  13.262  23.643   9.935
61543W        W20639  24.607  28.652  10.513
61544W        W20640  19.184  28.572  13.934
61545W        W20641  25.142  18.269  10.544
61546W        W20642   5.332  25.991   0.943
61547W        W20643  38.453  28.026  11.898
61548W        W20644  36.061  14.823   3.150
61549W        W20645   8.792   7.809  14.509
61550W        W20646  42.303  43.364   1.807
61551W        W20647  41.463  18.091   4.768
61552W        W20648  35.485  21.139   1.247
61553W        W20649   6.195  40.989  11.400
61554W        W20650  29.546  17.673  13.799
61555W        W20651  19.118   8.180  13.461
61556W        W20652  16.811   0.433   4.601
61557W        W20653  42.788  34.880   4.226
61558W        W20654  25.552  34.416  12.362
61559W        W20655  13.223  28.111  11.961
61560W        W20656   2.282  11.816  11.532
61561W        W20657  11.240   3.717  13.885
61562W        W20658  31.574  20.547  10.459
61563W        W20659  26.041  10.258   0.314
61564W        W20660  34.472  10.353  13.439
61565W        W20661  38.474  33.075  13.521
61566W        W20662  28.161   0.868   3.232
61567W        W20663  25.615  29.026   1.866
61568W        W20664  14.709   4.299   2.234
61569W        W20665  25.599  44.406   0.835
61570W        W20666  41.846  31.525   4.144
61571W        W20667  27.175  44.841  13.048
61572W        W20668  30.972  26.206   4.350
61573W        W20669  19.281  12.819  10.570
61574W        W20670  28.585  40.490  13.470
61575W        W20671  42.476  32.395   0.869
61576W        W20672  42.876  15.773   3.161
61577W        W20673  35.479  10.642  12.408
61578W        W20674  37.439   4.779   3.262
61579W        W20675  37.884   4.447   3.870
61580W        W20676   9.742  20.057  14.030
61581W        W20677  21.104   8.289   0.961
61582W        W20678   5.738   3.945   2.795
61583W        W20679  20.210  10.172   2.404
61584W        W20680  18.735   9.178  13.365
61585W        W20681  43.864  19.558  10.558
61586W        W20682  10.363  13.119  14.934
61587W        W20683   7.236  37.365  13.061
61588W        W20684  32.461  30.608   1.923
61589W        W20685   3.303   2.462   1.435
61590W        W20686   3.776  16.162  10.475
61591W        W20687   5.813  31.460   4.711
61592W        W20688  20.227  20.148  14.795
61593W        W20689  36.352   0.326   3.706
61594W        W20690  13.309  38.389   1.423
61595W        W20691  42.997  14.782  12.429
61596W        W20692  26.588  31.561   0.461
61597W        W20693  35.988  25.031   4.721
61598W        W20694  32.464  18.664  13.310
61599W        W20695   1.334  13.724   0.348
61600W        W20696  28.619  21.083  12.532
61601W        W20697  26.116   5.750  11.385
61602W        W20698  13.277   6.791   3.368
61603W        W20699  21.117   6.781   2.389
61604W        W20700  42.964  41.337   0.386
61605W        W20701  12.216  13.693  12.930
61606W        W20702  34.915  14.825  14.014
61607W        W20703  37.015   1.746  10.531
61608W        W20704  17.068  14.335  10.155
61609W        W20705  13.645  16.085   0.435
61610W        W20706  24.618  17.645  13.347
61611W        W20707  27.564  24.707   1.392
61612W        W20708  20.655  25.652  12.539
61613W        W20709  31.958   8.728   0.815
61614W        W20710  34.531  20.537  11.035
61615W        W20711  17.607  21.249   4.250
61616W        W20712  35.423  12.318  12.937
61617W        W20713   1.353  18.128  14.775
61618W        W20714  18.563  12.659  12.962
61619W        W20715  19.263  18.124   0.785
61620W        W20716  35.040  42.305  10.939
61621W        W20717  30.979  29.467   3.272
61622W        W20718   2.896  11.317   2.664
61623W        W20719  33.976   7.833   1.919
61624W        W20720  37.839  10.660  13.994
61625W        W20721  24.193  40.486   3.257
61626W        W20722  12.217   5.304   2.210
61627W        W20723   3.855  32.012  14.972
61628W        W20724  27.647   2.281   2.711
61629W        W20725  22.692  41.812  13.804
61630W        W20726  25.112  19.080  13.836
61631W        W20727  36.442  15.086  13.896
61632W        W20728   2.299  38.526   0.364
61633W        W20729  30.122  10.381   0.407
61634W        W20730   0.870  34.873   4.835
61635W        W20731  26.518  38.935   4.174
61636W        W20732  39.536  16.608  12.352
61637W        W20733  25.096  36.889  12.985
61638W        W20734   3.897  30.995  14.420
61639W        W20735  26.641   8.187   4.259
61640W        W20736  38.489   7.765  14.835
61641W        W20737  41.809  32.895   3.332
61642W        W20738  40.417  30.960   1.403
61643W        W20739  44.353  29.484  11.996
61644W        W20740  30.056  41.370   4.258
61645W        W20741  10.771  35.101  11.855
61646W        W20742  42.356  28.435   1.702
61647W        W20743  14.742  41.455   1.811
61648W        W20744  29.977   7.742   4.260
61649W        W20745  34.538  33.127   3.634
61650W        W20746  23.614  27.474  11.098
61651W        W20747  14.597   4.721  13.403
61652W        W20748  21.655  40.863  13.325
61653W        W20749  13.793  28.053   2.899
61654W        W20750  40.484  10.148  10.614
61655W        W20751  22.578  22.568   0.303
61656W        W20752  18.062  33.932   0.252
61657W        W20753  19.279  21.165  12.874
61658W        W20754   0.776   8.702  11.949
61659W        W20755   9.673  14.283  11.459
61660W        W20756  20.691  25.578  11.971
61661W        W20757  15.218   6.355  12.438
61662W        W20758  21.675   2.407   2.298
61663W        W20759  13.253  23.079  11.069
61664W        W20760   3.241   1.767   3.318
61665W        W20761  33.046  41.311   2.811
61666W        W20762  44.377   0.260  10.040
61667W        W20763  24.714   3.881  11.061
61668W        W20764   8.264  17.739  11.394
61669W        W20765  22.043  17.570   1.225
61670W        W20766  26.065   4.794  11.377
61671W        W20767  15.601   5.393  12.349
61672W        W20768  15.116  27.650  14.788
61673W        W20769  38.461  38.990   3.836
61674W        W20770  40.008  32.559   2.373
61675W        W20771  13.173   8.191   4.353
61676W        W20772   9.762   3.279   3.346
61677W        W20773  13.237  39.420  11.063
61678W        W20774  11.831  24.186  11.491
61679W        W20775  24.085  10.665  13.523
61680W        W20776  25.606  32.116   4.314
61681W        W20777   1.376  11.737   1.419
61682W        W20778   6.768  28.964  14.411
61683W        W20779  20.257  44.004  11.912
61684W        W20780  33.108  37.894  10.574
61685W        W20781  16.209   5.436  11.037
61686W        W20782  33.911   5.780   2.344
61687W        W20783  30.452  36.956   5.615
61688W        W20784   3.837  11.632  14.277
61689W        W20785  34.602  35.043   2.201
61690W        W20786  40.956  28.434  14.971
61691W        W20787  19.611  41.490   3.737
61692W        W20788  34.493  30.930  11.925
61693W        W20789  30.005   4.738   1.788
61694W        W20790  10.763  19.043  11.123
61695W        W20791  20.221  36.005  14.013
61696W        W20792  18.692  19.656   4.599
61697W        W20793  21.683   2.292  12.900
61698W        W20794  29.476  24.569  14.401
61699W        W20795  25.124  22.044  14.802
61700W        W20796  25.006  10.376  10.940
61701W        W20797   6.319  37.927  14.895
61702W        W20798  16.777  20.182   3.217
61703W        W20799  34.098  29.478   3.228
61704W        W20800  14.699  11.274  13.505
61705W        W20801  18.649   7.326   2.822
61706W        W20802  19.744  42.477   4.228
61707W        W20803  39.397  35.463   2.872
61708W        W20804  13.158  13.838  12.089
61709W        W20805  13.782   6.398   2.887
61710W        W20806  24.975  25.067   3.188
61711W        W20807  36.954  43.925  10.903
61712W        W20808  33.076  32.486   1.228
61713W        W20809  38.829   1.906   1.711
61714W        W20810  35.597  31.952   2.329
61715W        W20811  21.704  32.891   4.185
61716W        W20812  26.182  35.868   0.825
61717W        W20813  25.655  20.125   1.419
61718W        W20814  38.977  25.037  14.909
61719W        W20815  31.611  21.167   9.942
61720W        W20816  43.412  35.089   1.807
61721W        W20817  36.039  34.904   2.304
61722W        W20818  43.299  41.407  11.531
61723W        W20819  16.620   7.753  13.890
61724W        W20820   2.390  10.168   5.255
61725W        W20821  14.826  28.167   0.855
61726W        W20822  36.006  44.386   0.435
61727W        W20823  26.674  33.463   1.387
61728W        W20824  24.480   8.198   2.232
61729W        W20825  25.562  21.217   5.700
61730W        W20826   3.286  37.042  11.089
61731W        W20827   2.398  23.119   4.798
61732W        W20828  25.196  11.361   3.286
61733W        W20829  34.568  35.885  12.905
61734W        W20830  11.316  40.354   2.258
61735W        W20831  30.083   8.718   4.807
61736W        W20832   5.226  18.289  14.925
61737W        W20833  24.115  39.545   3.814
61738W        W20834  19.680  37.834  12.873
61739W        W20835  16.718   4.716  13.041
61740W        W20836  28.583  30.122  11.509
61741W        W20837  13.150  43.483   1.282
61742W        W20838  15.323  38.417   4.115
61743W        W20839  20.550  44.908  11.878
61744W        W20840  17.627  29.134   0.922
61745W        W20841  21.620  40.425   2.312
61746W        W20842  21.739  23.096  14.791
61747W        W20843  38.003   1.867  12.988
61748W        W20844  34.941   4.234  11.516
61749W        W20845  30.631  37.515  11.043
61750W        W20846  17.796  16.167  10.963
61751W        W20847  19.733  22.703   2.382
61752W        W20848  23.088   5.799  10.628
61753W        W20849  26.560  36.513   0.736
61754W        W20850  28.442   1.800  14.317
61755W        W20851  18.611  24.613   1.445
61756W        W20852  35.526  22.235  12.449
61757W        W20853   5.868  23.069  11.503
61758W        W20854   6.296  27.946   2.801
61759W        W20855  23.158  15.770   2.708
61760W        W20856  29.940  42.788  11.497
61761W        W20857  17.107  33.458   1.729
61762W        W20858  41.484  10.149  13.542
61763W        W20859  31.486  20.697  13.459
61764W        W20860  22.099  23.009  11.444
61765W        W20861   1.274  14.193   0.741
61766W        W20862  34.486  41.476   0.905
61767W        W20863  36.089  33.618   1.914
61768W        W20864  31.994   7.377  14.408
61769W        W20865  29.542  23.725   0.373
61770W        W20866  38.493  38.829  14.421
61771W        W20867  29.539  30.120  13.950
61772W        W20868  28.626  40.885   2.764
61773W        W20869   6.817  37.376   2.392
61774W        W20870  36.357  33.517  13.509
61775W        W20871  43.274  18.724  11.117
61776W        W20872  28.463  22.247  14.950
61777W        W20873  22.744   0.461  11.428
61778W        W20874   4.379  41.984   3.664
61779W        W20875  43.394  16.229   2.233
61780W        W20876  44.455  40.926  12.427
61781W        W20877  33.880  43.404   2.769
61782W        W20878  15.783  38.899  10.638
61783W        W20879  37.905  39.457   0.747
61784W        W20880  43.854   1.260  10.947
61785W        W20881  11.326   1.880   0.329
61786W        W20882  44.864  16.315   0.354
61787W        W20883  19.247  17.617  11.582
61788W        W20884  10.362  39.049   0.842
61789W        W20885  10.722  41.399   0.824
61790W        W20886  44.463  22.547   1.775
61791W        W20887  42.791  31.449   4.120
61792W        W20888  32.974  22.667   4.277
61793W        W20889  19.088  18.103   3.182
61794W        W20890  36.866  21.586  14.867
61795W        W20891  32.022  25.160  14.355
61796W        W20892   3.805   2.773  10.619
61797W        W20893  25.528  10.376   0.400
61798W        W20894  43.334  38.886   9.923
61799W        W20895  15.799  35.399  11.935
61800W        W20896  17.244  31.633   3.235
61801W        W20897  39.542   1.320  12.436
61802W        W20898  33.913  23.176  11.911
61803W        W20899  40.375  29.472  12.389
61804W        W20900  44.849   3.807  13.530
61805W        W20901   5.233  22.729   5.268
61806W        W20902  25.180  10.767  10.583
61807W        W20903  17.258  10.740   3.281
61808W        W20904  27.534  17.285   4.823
61809W        W20905  11.242  39.513   4.310
61810W        W20906  19.599  33.552  13.317
61811W        W20907  34.601   0.387  11.530
61812W        W20908   7.387  32.490   4.300
61813W        W20909  34.040   6.917   4.262
61814W        W20910   2.306   2.314   1.322
61815W        W20911  17.562  11.762   3.350
61816W        W20912  19.572  39.018  11.446
61817W        W20913  44.880  41.401   5.221
61818W        W20914   4.909  42.988  13.973
61819W        W20915  30.514  35.378   2.203
61820W        W20916  29.059  28.597   2.884
61821W        W20917  24.590  20.746  14.008
61822W        W20918  12.797  23.575  13.916
61823W        W20919   1.403  17.619   3.210
61824W        W20920  23.689  44.410   2.237
61825W        W20921  18.555  25.665   4.804
61826W        W20922  22.213  43.301   3.322
61827W        W20923  18.249   6.299  13.007
61828W        W20924  40.523  21.249   5.187
61829W        W20925  42.018  27.677   2.778
61830W        W20926  13.617  14.277   3.365
61831W        W20927  21.699   6.204   3.157
61832W        W20928  38.833  38.496  12.037
61833W        W20929  23.627  15.148   0.432
61834W        W20930  12.282  21.230  12.486
61835W        W20931  11.163  21.088  10.978
61836W        W20932   5.875  41.477   0.442
61837W        W20933   8.271   3.718  14.305
61838W        W20934  36.908  23.730  10.946
61839W        W20935  26.516  17.715   0.386
61840W        W20936  44.011   7.849   1.345
61841W        W20937  18.169  27.981  13.916
61842W        W20938   1.320   8.307  10.541
61843W        W20939  44.310  33.612   4.698
61844W        W20940  15.193  16.699   3.173
61845W        W20941  27.941  18.690  14.973
61846W        W20942   9.169   5.386  14.905
61847W        W20943   4.402  10.227   0.344
61848W        W20944  14.159  20.709  12.019
61849W        W20945  35.062  11.776   0.836
61850W        W20946  20.598  11.350   1.749
61851W        W20947  13.288   4.871  14.786
61852W        W20948  33.940  13.681  10.569
61853W        W20949  43.359   0.327   3.845
61854W        W20950  19.776  13.813   0.444
61855W        W20951  34.388  35.953  10.488
61856W        W20952  29.537  12.242   2.664
61857W        W20953   2.873  26.971  12.973
61858W        W20954  41.982  40.386  11.584
61859W        W20955  20.741  17.624   0.940
61860W        W20956   5.204  34.579  12.574
61861W        W20957  13.230  41.351   3.288
61862W        W20958   2.290  41.500   2.692
61863W        W20959  40.518  18.195   0.820
61864W        W20960  11.822  19.663   3.178
61865W        W20961  44.496  20.547  11.460
61866W        W20962   1.336  29.158   0.830
61867W        W20963   0.361  28.649  12.039
61868W        W20964   2.749  11.739  11.995
61869W        W20965   8.208   1.788  11.054
61870W        W20966   4.285   5.753  12.051
61871W        W20967  30.441  19.586  12.357
61872W        W20968  39.495   4.882   1.887
61873W        W20969  24.704  27.088  12.895
61874W        W20970  19.126  11.156  11.931
61875W        W20971   9.302  43.969  11.454
61876W        W20972  28.568  14.820   3.764
61877W        W20973  36.552  21.663  12.066
61878W        W20974  20.143  32.951   4.139
61879W        W20975  21.732   6.358  14.364
61880W        W20976  18.102  28.434  11.874
61881W        W20977  43.962  26.684  14.894
61882W        W20978  16.762  21.678  13.345
61883W        W20979  35.373  27.035   2.359
61884W        W20980  18.554  11.165   3.739
61885W        W20981   7.821  12.819  10.483
61886W        W20982  21.602   6.382  11.556
61887W        W20983  40.491  44.824   2.223
61888W        W20984  23.690  40.442   1.335
61889W        W20985   8.276  44.470  12.090
61890W        W20986  30.949  37.940  10.931
61891W        W20987  23.535  42.775  13.344
61892W        W20988  14.289  14.592  10.985
61893W        W20989  39.971  26.508   3.365
61894W        W20990   0.372   7.358  10.934
61895W        W20991  39.837  22.024  10.924
61896W        W20992  34.024  16.792   0.892
61897W        W20993  24.094  15.222  14.889
61898W        W20994  33.538   1.274   4.169
61899W        W20995  23.576  10.821  12.845
61900W        W20996  44.874  41.508   3.164
61901W        W20997  24.629  17.196   0.811
61902W        W20998   9.699  41.495  12.093
61903W        W20999  19.221  23.082   3.307
61904W        W21000  30.115  40.439  14.769
61905W        W21001  33.386  41.826   3.172
61906W        W21002  39.864  36.064   0.939
61907W        W21003   8.851  34.117  11.110
61908W        W21004  33.478  22.175   2.780
61909W        W21005  19.181  42.349   3.386
61910W        W21006  38.943  28.051  11.063
61911W        W21007  44.877  14.751  14.491
61912W        W21008  44.380  40.439   0.957
61913W        W21009   2.417   0.851   3.655
61914W        W21010   9.367  30.099   2.732
61915W        W21011  42.355   7.396   3.202
61916W        W21012  22.604  35.039   2.196
61917W        W21013  35.952  21.107  14.440
61918W        W21014  19.745   0.953   2.665
61919W        W21015  20.751  33.079   2.705
61920W        W21016   1.791  35.876   0.382
61921W        W21017  10.344   1.285   2.376
61922W        W21018  37.547  29.127   0.344
61923W        W21019  26.191  20.042  13.044
61924W        W21020  20.089  18.122  10.111
61925W        W21021   5.859  20.694   4.741
61926W        W21022  36.043  18.107   0.848
61927W        W21023  21.584  15.220   0.892
61928W        W21024  16.770  10.839   4.126
61929W        W21025  21.068  20.758  13.038
61930W        W21026  23.658  20.661  10.090
61931W        W21027  36.352   0.755   1.365
61932W        W21028  37.992  33.404  14.761
61933W        W21029  23.581  10.255  10.552
61934W        W21030  43.506  36.987   4.709
61935W        W21031   3.261  43.772  13.993
61936W        W21032  36.435  28.531  14.974
61937W        W21033  36.548  21.171   1.902
61938W        W21034  11.270   5.254   1.775
61939W        W21035   0.268  40.964   3.363
61940W        W21036  26.049   3.779  11.982
61941W        W21037  42.836  25.506  11.081
61942W        W21038  12.161  22.562   3.271
61943W        W21039  40.823  16.697  14.465
61944W        W21040   0.868  37.069  10.916
61945W        W21041   2.907   2.835   3.801
61946W        W21042   9.223  21.184   1.303
61947W        W21043  10.827   6.876  14.003
61948W        W21044   0.360   1.334  10.477
61949W        W21045  44.996  13.779   2.803
61950W        W21046  10.264  28.962  11.003
61951W        W21047  29.081   9.660  11.103
61952W        W21048  43.308  25.483   0.469
61953W        W21049  23.135   6.333  10.510
61954W        W21050  33.593  43.359   1.842
61955W        W21051  13.689  32.613  12.919
61956W        W21052  37.555  43.461  14.356
61957W        W21053  40.382  13.645   0.251
61958W        W21054  25.702  24.632  14.278
61959W        W21055  24.532  30.150   2.701
61960W        W21056  17.255  12.361  11.007
61961W        W21057  17.086  35.958  12.550
61962W        W21058  10.683  32.426   2.200
61963W        W21059  40.850  38.558   4.687
61964W        W21060   3.933   1.953  11.533
61965W        W21061  25.546  37.499   2.396
61966W        W21062   5.830  25.185   3.300
61967W        W21063  36.849  20.751  12.933
61968W        W21064   7.268  23.079   0.943
61969W        W21065  31.545   1.391   1.898
61970W        W21066  12.151  44.861   4.763
61971W        W21067  25.591  13.228   3.370
61972W        W21068  26.986  32.629   1.343
61973W        W21069   5.867  40.918   0.934
61974W        W21070  28.172  14.687  13.891
61975W        W21071  23.025  14.722  14.788
61976W        W21072   0.763  19.562  12.359
61977W        W21073  43.497  10.832   1.241
61978W        W21074  32.031  24.061   3.151
61979W        W21075   9.343  21.729   1.278
61980W        W21076  13.261  16.796   3.634
61981W        W21077  43.457  29.091  13.840
61982W        W21078  36.524  10.852  13.415
61983W        W21079  22.070  20.582   0.770
61984W        W21080  21.095  37.063   2.288
61985W        W21081  38.863  11.257  12.900
61986W        W21082  26.527  25.502   5.191
61987W        W21083   0.461   6.916  14.319
61988W        W21084  39.020  44.761   4.122
61989W        W21085  11.677  11.223  13.349
61990W        W21086   6.198  23.208  11.467
61991W        W21087  24.091  11.759  11.997
61992W        W21088  22.587   1.962  11.436
61993W        W21089  22.179  40.963  11.002
61994W        W21090   4.910   3.390   3.195
61995W        W21091  31.512  43.499   0.459
61996W        W21092  37.355   7.197  12.549
61997W        W21093  23.624  44.893  13.993
61998W        W21094  13.143  37.394   2.295
61999W        W21095   8.755   5.804  11.896
62000W        W21096   2.856   3.445   1.451
62001W        W21097  16.741  41.010  11.547
62002W        W21098   2.401   3.239  14.935
62003W        W21099  37.535  44.971  12.449
62004W        W21100  36.996  34.113  11.011
62005W        W21101  23.059  12.788  14.829
62006W        W21102  16.111  25.590   4.767
62007W        W21103  28.493  44.267  14.297
62008W        W21104  42.514  33.900   3.254
62009W        W21105   8.713  17.086   0.817
62010W        W21106   3.939   9.883   2.351
62011W        W21107   8.361  27.523   2.245
62012W        W21108  37.915  15.105  12.531
62013W        W21109  37.887  44.396   1.829
62014W        W21110  38.077  11.324  14.769
62015W        W21111  31.449   1.858   4.650
62016W        W21112   4.746  36.470   4.702
62017W        W21113  37.995   3.225  12.075
62018W        W21114  31.403  40.800  12.094
62019W        W21115  17.793   8.882  12.953
62020W        W21116  37.875  26.969  11.016
62021W        W21117   3.247  11.345  10.110
62022W        W21118  42.891  25.609   1.216
62023W        W21119  25.650  28.997  10.532
62024W        W21120   9.331  17.726   0.387
62025W        W21121  10.344  39.008  14.897
62026W        W21122  43.461   5.233   0.334
62027W        W21123   0.964  36.910   1.235
62028W        W21124  20.724  13.626  12.869
62029W        W21125  26.640   8.219  13.845
62030W        W21126  24.144  37.466  12.378
62031W        W21127  40.039  37.904  12.068
62032W        W21128   6.852  17.246  12.958
62033W        W21129  32.473  32.080   4.610
62034W        W21130   3.320  40.528   1.857
62035W        W21131  18.291  26.130   1.920
62036W        W21132  28.549  26.051   3.728
62037W        W21133   6.725  37.867   1.252
62038W        W21134  25.557   2.893   1.226
62039W        W21135  43.461  44.258   9.929
62040W        W21136  21.623   0.313  12.449
62041W        W21137   0.296  19.674   4.635
62042W        W21138  30.955  42.811   4.270
62043W        W21139  18.658  22.155   0.390
62044W        W21140  38.444  43.891  11.107
62045W        W21141  38.374  29.450   4.824
62046W        W21142  36.437  22.746  14.829
62047W        W21143   0.885   2.952  12.829
62048W        W21144  12.834  39.997  14.838
62049W        W21145  26.540  14.334  13.064
62050W        W21146  15.637  26.140   0.294
62051W        W21147  31.015  20.229   4.815
62052W        W21148  25.005  25.986   0.259
62053W        W21149   3.259   6.247  12.964
62054W        W21150  40.799  13.332   2.378
62055W        W21151  32.950   5.235  12.934
62056W        W21152  10.293  11.692   4.231
62057W        W21153   4.356  23.545  14.332
62058W        W21154  22.673   5.827  14.408
62059W        W21155  35.411   5.223   1.294
62060W        W21156  11.337  12.261  14.442
62061W        W21157  28.182  44.910   0.802
62062W        W21158  31.032   8.281   4.780
62063W        W21159  14.767  35.042   0.390
62064W        W21160   8.858  32.141   5.319
62065W        W21161  13.625  17.676   0.750
62066W        W21162  20.605   5.776  11.072
62067W        W21163   4.914  24.629   0.907
62068W        W21164  16.802  21.656   1.401
62069W        W21165   3.776   2.297   2.349
62070W        W21166  24.629  28.513  14.920
62071W        W21167  10.361   7.322   2.902
62072W        W21168  21.599  18.751  12.395
62073W        W21169  29.449  18.688   3.371
62074W        W21170   7.205   6.278   3.381
62075W        W21171  29.149   9.876  11.904
62076W        W21172  19.166  24.018  13.805
62077W        W21173  36.507  30.471  11.601
62078W        W21174  19.566  19.745  14.473
62079W        W21175  31.903  37.928  14.968
62080W        W21176  26.963  27.138  14.390
62081W        W21177  23.538  15.193   0.941
62082W        W21178  39.522  12.833  14.027
62083W        W21179  35.903  14.676  14.995
62084W        W21180  14.734  36.537   4.654
62085W        W21181  28.069  12.347   3.820
62086W        W21182  16.153  12.360   0.897
62087W        W21183  44.829  16.721   1.332
62088W        W21184  41.944  35.502   0.844
62089W        W21185  33.410  21.255  14.438
62090W        W21186   6.907   5.752   4.217
62091W        W21187  38.347   8.901   3.220
62092W        W21188  37.874  33.918  13.877
62093W        W21189  17.270  14.701   0.841
62094W        W21190   5.779  27.593  13.056
62095W        W21191  24.222  37.875   0.920
62096W        W21192  20.687   5.421  13.415
62097W        W21193  40.371  33.128   2.247
62098W        W21194  28.019  18.114  12.567
62099W        W21195  42.984  22.581   3.262
62100W        W21196  13.153  36.934  10.579
62101W        W21197  14.660  19.255  14.949
62102W        W21198  36.879  30.514  11.431
62103W        W21199  24.535  25.553   2.700
62104W        W21200  42.288  38.041   4.138
62105W        W21201   8.725  38.349   1.446
62106W        W21202   2.743  13.261   3.185
62107W        W21203   9.744   5.791   1.713
62108W        W21204   1.240  14.300   1.718
62109W        W21205  34.502  12.765  13.843
62110W        W21206  27.979  14.789  14.440
62111W        W21207  17.107  38.918   2.280
62112W        W21208  19.203  22.681  14.785
62113W        W21209  44.905   9.189  13.846
62114W        W21210  25.078   8.390   4.712
62115W        W21211  42.398  18.682   3.240
62116W        W21212  33.603  19.273   1.304
62117W        W21213   6.740  23.635   4.125
62118W        W21214  19.653  43.494  13.398
62119W        W21215   8.279  24.627   3.260
62120W        W21216  12.280  14.780  13.008
62121W        W21217  35.935  27.966  13.311
62122W        W21218  30.485  31.040  14.435
62123W        W21219  19.695  25.179   1.772
62124W        W21220  23.060  34.491   2.683
62125W        W21221  31.560  29.473   1.848
62126W        W21222  29.487  40.885   4.714
62127W        W21223  16.569  42.986   5.134
62128W        W21224  14.110  33.622   1.792
62129W        W21225  37.055  35.878   2.232
62130W        W21226  44.382   7.379  12.342
62131W        W21227  23.057  30.561  12.516
62132W        W21228   2.879  40.500  10.612
62133W        W21229  40.358  41.382   0.410
62134W        W21230   0.903   5.775  14.364
62135W        W21231  44.261   2.824   0.956
62136W        W21232  35.002   4.814   2.347
62137W        W21233  18.264  27.045   3.307
62138W        W21234  24.036  28.942  14.871
62139W        W21235  30.656  26.204  14.780
62140W        W21236  27.179  22.723  13.791
62141W        W21237  43.851   5.246   1.304
62142W        W21238   5.829  28.149   4.801
62143W        W21239  40.026   8.660   3.731
62144W        W21240  29.115  16.205  14.933
62145W        W21241   4.272  33.604   0.290
62146W        W21242  17.103  30.534  10.930
62147W        W21243   1.404  15.106   1.912
62148W        W21244  26.955  28.467  11.936
62149W        W21245  27.538  17.187   2.816
62150W        W21246   9.733  26.974  12.464
62151W        W21247  20.121  18.590   4.698
62152W        W21248  16.736  33.055   3.784
62153W        W21249  13.846   8.685   3.267
62154W        W21250  19.604   9.784  13.029
62155W        W21251  19.563  43.450   2.189
62156W        W21252  32.626  12.716   4.234
62157W        W21253  42.349   5.247  10.523
62158W        W21254  36.585  33.587   4.235
62159W        W21255  35.408  33.914   1.396
62160W        W21256  37.580   8.852   5.174
62161W        W21257   0.758  29.997   3.717
62162W        W21258   7.314  35.989  13.536
62163W        W21259  19.218  24.049   4.816
62164W        W21260   8.851   5.312   4.332
62165W        W21261   5.325  26.971  11.560
62166W        W21262  44.331  18.564  14.329
62167W        W21263  18.701   1.820  12.037
62168W        W21264  34.906  32.569   0.761
62169W        W21265  26.978  16.785  10.915
62170W        W21266   8.267  15.304  12.009
62171W        W21267  42.857  11.691   0.460
62172W        W21268  38.057   3.948   3.697
62173W        W21269  14.769  32.954   4.699
62174W        W21270  35.093  28.599  10.903
62175W        W21271  34.878   6.732  12.359
62176W        W21272  42.011  27.195  13.835
62177W        W21273  36.474  12.728  11.380
62178W        W21274  11.356  32.099   3.289
62179W        W21275  31.008   0.365   2.783
62180W        W21276  18.730  40.414  14.784
62181W        W21277  23.042  27.536  12.920
62182W        W21278  28.098   5.795   3.776
62183W        W21279  20.197  22.190   2.769
62184W        W21280   4.251  43.895  13.037
62185W        W21281  21.164  12.142  14.844
62186W        W21282  42.874   8.221  12.514
62187W        W21283   9.176  22.068  12.431
62188W        W21284  17.103   4.267   0.727
62189W        W21285  22.515  22.610   5.322
62190W        W21286  41.899  11.289   5.243
62191W        W21287   8.820   5.753   0.252
62192W        W21288  24.001  16.725  11.915
62193W        W21289  26.525  44.434   4.344
62194W        W21290  21.164  41.435   3.748
62195W        W21291   9.157  25.706   0.439
62196W        W21292  33.970  44.896   3.310
62197W        W21293   4.268   9.688  11.391
62198W        W21294  29.609  27.959   4.344
62199W        W21295  33.530  31.991   2.895
62200W        W21296  44.914  14.328  11.937
62201W        W21297  39.035  19.644   3.185
62202W        W21298  39.514  27.653  11.521
62203W        W21299   6.802  23.659   0.326
62204W        W21300  23.600   9.321   4.209
62205W        W21301  36.574  37.417  10.064
62206W        W21302   3.444  18.660  10.576
62207W        W21303  23.159  25.685   0.269
62208W        W21304  14.600  42.391   4.807
62209W        W21305   4.446  44.501   1.372
62210W        W21306  40.936   2.241  12.361
62211W        W21307  31.911   2.906   4.150
62212W        W21308  40.363  38.901   2.876
62213W        W21309  23.225   2.396  11.496
62214W        W21310  10.874  13.814  14.809
62215W        W21311  12.719  38.520   1.915
62216W        W21312   0.898  18.120  10.905
62217W        W21313  19.582  24.046   2.404
62218W        W21314   4.847   6.260   0.897
62219W        W21315  39.856  34.073   2.394
62220W        W21316  32.114  27.170   0.338
62221W        W21317   2.443  31.972   4.730
62222W        W21318  31.913  29.446   1.887
62223W        W21319   8.757  21.706   0.774
62224W        W21320   3.460  17.116  12.036
62225W        W21321  22.623  20.718  12.352
62226W        W21322  42.355  38.923   1.837
62227W        W21323  14.696  38.983   3.351
62228W        W21324  39.514  41.964   4.829
62229W        W21325  38.449  18.688   2.786
62230W        W21326  25.591   0.325  13.307
62231W        W21327  20.644  18.621  10.615
62232W        W21328  29.595  23.719   4.798
62233W        W21329  31.028  22.019   2.902
62234W        W21330   9.884  40.478   2.805
62235W        W21331   5.382   4.399   0.913
62236W        W21332   2.959  24.158   0.351
62237W        W21333  27.189  17.296   3.855
62238W        W21334  23.580   3.729  13.982
62239W        W21335  44.855  31.513  10.492
62240W        W21336  28.122  16.790   1.272
62241W        W21337  39.927  42.971   0.304
62242W        W21338  10.729   5.788   4.213
62243W        W21339  10.766   6.340  10.938
62244W        W21340  11.633  36.022   4.279
62245W        W21341  42.417  37.482   2.839
62246W        W21342  25.541  25.184   0.273
62247W        W21343  34.389  38.419   4.180
62248W        W21344  16.085   8.197  12.947
62249W        W21345  28.028   3.851  13.968
62250W        W21346  27.649  23.643  14.433
62251W        W21347   7.217  41.440   2.704
62252W        W21348  22.501  42.984  11.857
62253W        W21349  13.315  35.969  12.974
62254W        W21350  26.502  23.110  10.469
62255W        W21351  25.136  17.201   0.254
62256W        W21352  32.549   0.248   4.232
62257W        W21353  30.565  14.258  14.945
62258W        W21354  25.081  35.865  13.348
62259W        W21355  37.915  11.321  13.403
62260W        W21356   3.733  34.896  11.009
62261W        W21357  20.718  22.046   2.266
62262W        W21358  21.744  43.351   1.302
62263W        W21359  41.532  18.563  14.276
62264W        W21360   1.394  12.205  10.521
62265W        W21361   1.773  44.891   0.763
62266W        W21362  21.614  39.438   1.728
62267W        W21363   0.875   2.455  11.516
62268W        W21364  14.666  11.627   1.715
62269W        W21365  22.116  27.648   0.385
62270W        W21366  31.552  26.156  13.395
62271W        W21367   9.167  41.029  14.508
62272W        W21368   2.353  23.044   3.741
62273W        W21369  37.557  22.694  10.961
62274W        W21370  41.325   2.922   0.882
62275W        W21371  38.527  41.008  11.106
62276W        W21372  25.514  21.580   3.228
62277W        W21373  36.430  14.834  12.914
62278W        W21374  39.046  17.193  13.521
62279W        W21375   3.390  33.398  13.515
62280W        W21376  26.020  27.191  14.791
62281W        W21377  33.040  40.399   3.383
62282W        W21378  40.309   4.932  14.878
62283W        W21379  28.452  22.084  11.545
62284W        W21380  26.537  31.130   4.116
62285W        W21381  12.250  20.263   4.214
62286W        W21382  37.522  25.547   5.226
62287W        W21383  11.325  42.369   0.884
62288W        W21384   1.783  11.730   3.294
62289W        W21385   0.969  22.513   0.479
62290W        W21386  10.830  44.763  14.382
62291W        W21387  11.729   6.900  11.111
62292W        W21388   6.364  22.093  14.503
62293W        W21389  20.673   4.845   4.720
62294W        W21390  16.583  31.561  13.333
62295W        W21391   2.345  19.206  14.792
62296W        W21392  35.051  42.472  12.571
62297W        W21393   6.372  13.830   1.829
62298W        W21394  31.011   5.708  13.414
62299W        W21395  35.541  17.737  13.874
62300W        W21396  13.768  32.099  11.483
62301W        W21397  37.065  13.275  13.884
62302W        W21398  23.990   6.341  11.007
62303W        W21399  24.988  37.051   2.683
62304W        W21400  44.938  41.921  13.938
62305W        W21401  18.216  44.334   3.252
62306W        W21402  12.842   2.278   2.667
62307W        W21403  11.287  44.962   2.306
62308W        W21404   5.874  23.567  13.397
62309W        W21405  25.123  24.098   0.884
62310W        W21406  29.471  24.186   5.135
62311W        W21407   6.700   5.908   2.280
62312W        W21408  23.117  31.537  14.414
62313W        W21409  27.162  31.484   2.268
62314W        W21410  24.527  40.813  10.562
62315W        W21411  44.360   4.269   0.468
62316W        W21412  15.638  22.576  14.424
62317W        W21413   4.743  30.579   1.711
62318W        W21414  32.401  19.130   3.370
62319W        W21415  18.672  28.437  11.494
62320W        W21416  32.925  41.495  14.413
62321W        W21417  13.288  15.087   4.806
62322W        W21418   1.374   4.215   0.935
62323W        W21419  22.996  36.582   4.602
62324W        W21420  24.692   5.259   0.478
62325W        W21421   8.888   5.353  12.398
62326W        W21422  21.025  11.244  11.963
62327W        W21423   4.858   3.430  13.438
62328W        W21424  24.138  32.575   3.659
62329W        W21425  34.899   0.283  12.461
62330W        W21426  31.134   9.183   0.865
62331W        W21427  39.040  34.025   3.255
62332W        W21428  22.215  23.123   0.897
62333W        W21429  19.241  30.110   4.252
62334W        W21430   0.769  26.015  13.507
62335W        W21431  32.957  15.122   1.278
62336W        W21432  38.513  13.751   4.653
62337W        W21433  34.079  26.609   1.321
62338W        W21434  35.494  20.693   3.163
62339W        W21435   5.852  25.616  13.396
62340W        W21436  37.009  38.971   4.317
62341W        W21437  43.880  23.139   1.232
62342W        W21438  39.469  42.903   2.691
62343W        W21439   4.731  15.139  12.021
62344W        W21440  33.984  14.266   1.320
62345W        W21441  13.711  37.075   0.414
62346W        W21442  33.487  14.180  12.578
62347W        W21443  41.358  16.076  10.533
62348W        W21444  26.119  36.007  12.894
62349W        W21445  29.069   3.870   4.236
62350W        W21446  15.134  26.098   2.720
62351W        W21447  10.252  35.903   0.377
62352W        W21448   7.291  17.226   2.831
62353W        W21449  30.925  31.564  10.512
62354W        W21450  44.905  44.382  14.860
62355W        W21451   8.875   8.674   5.292
62356W        W21452  40.511   0.341  14.888
62357W        W21453  40.833  26.091   1.823
62358W        W21454  22.217  11.190   2.214
62359W        W21455  24.602  14.225   0.251
62360W        W21456  10.366  33.107  12.006
62361W        W21457  36.554  33.527  14.880
62362W        W21458  33.503  33.988  11.923
62363W        W21459  29.056  37.976  11.503
62364W        W21460  14.329   9.249   4.762
62365W        W21461  31.944  17.107  10.068
62366W        W21462   2.385  17.071  10.509
62367W        W21463  44.989  28.977   3.197
62368W        W21464  16.109   5.811   2.787
62369W        W21465  20.580  14.811   1.294
62370W        W21466   1.425  43.818   4.826
62371W        W21467  25.564  23.592  13.388
62372W        W21468  15.811  19.202  10.903
62373W        W21469  11.362  13.165  13.515
62374W        W21470   6.754   8.328  13.035
62375W        W21471  18.292  39.016   4.625
62376W        W21472  39.874  39.434  13.357
62377W        W21473  38.523  35.602   3.833
62378W        W21474  40.503  42.509   4.336
62379W        W21475  27.530  26.030   1.842
62380W        W21476   1.890  35.390  11.406
62381W        W21477  32.621   7.768  14.945
62382W        W21478  32.022  39.532   3.273
62383W        W21479  10.699   0.843   1.424
62384W        W21480  14.196  42.794   4.159
62385W        W21481  32.481  41.405  14.011
62386W        W21482  36.972  19.720   2.322
62387W        W21483   9.784  36.445   3.324
62388W        W21484  33.097  44.806   4.733
62389W        W21485  42.032  31.424  12.412
62390W        W21486   2.774  39.014  11.503
62391W        W21487  37.057   2.793   4.677
62392W        W21488  35.921  25.170  14.887
62393W        W21489  33.560  42.943   4.650
62394W        W21490   4.307  41.976  12.580
62395W        W21491  14.700  17.302   2.198
62396W        W21492   5.205  17.631   1.444
62397W        W21493  39.958  43.338   0.861
62398W        W21494  36.350   8.323  14.912
62399W        W21495  22.706   9.872   2.774
62400W        W21496  42.927  27.563   2.808
62401W        W21497  37.966  25.085   2.419
62402W        W21498   3.273  32.633   2.270
62403W        W21499  43.903  44.365   3.246
62404W        W21500  36.558   8.686   1.732
62405W        W21501  23.582  30.418   4.118
62406W        W21502   6.219  24.149  12.853
62407W        W21503  17.061  28.178   0.461
62408W        W21504   7.172  17.692   2.418
62409W        W21505  28.185   8.166  11.996
62410W        W21506  31.498  36.573   0.960
62411W        W21507  16.182  10.331   2.329
62412W        W21508  12.175  13.664  10.992
62413W        W21509  11.331  35.552  14.930
62414W        W21510  31.577   6.713   1.718
62415W        W21511  42.024  13.643  12.910
62416W        W21512  40.871  30.480   1.756
62417W        W21513  36.941   2.722  10.903
62418W        W21514   9.296  20.708   4.186
62419W        W21515   5.192  44.813   2.295
62420W        W21516  34.939  30.602  13.993
62421W        W21517   2.367  32.578   2.733
62422W        W21518  31.067  14.168   9.932
62423W        W21519  41.008  20.033  12.540
62424W        W21520  11.214  13.689   5.084
62425W        W21521  34.983  36.863  12.537
62426W        W21522  38.878  11.629   0.887
62427W        W21523  21.709  40.049  12.930
62428W        W21524  13.211  28.011  14.967
62429W        W21525  30.041  30.999  14.359
62430W        W21526   7.785   0.456   1.224
62431W        W21527  30.062  12.725  11.880
62432W        W21528  18.082  20.047   4.742
62433W        W21529  34.967  23.180  12.451
62434W        W21530   1.356  18.131  13.450
62435W        W21531  39.062  40.363   5.176
62436W        W21532  11.284  26.598   1.324
62437W        W21533  44.997  40.906  14.898
62438W        W21534  14.833   2.397   2.318
62439W        W21535  41.365  28.061  11.066
62440W        W21536  20.574  23.165  12.023
62441W        W21537  19.548  40.535  10.514
62442W        W21538  13.636   4.868  11.127
62443W        W21539  31.917  14.816   0.892
62444W        W21540   4.849   4.234  12.449
62445W        W21541   6.905   2.379  11.009
62446W        W21542  19.734  40.349   4.142
62447W        W21543  13.142  24.615   1.306
62448W        W21544   9.257  35.398  13.403
62449W        W21545  44.267  29.499   3.805
62450W        W21546  25.185  40.033  13.429
62451W        W21547  16.164  43.893  14.838
62452W        W21548  22.719  14.278  11.603
62453W        W21549  26.667  41.791   1.228
62454W        W21550  42.922  29.066   2.312
62455W        W21551  17.289   4.238   4.823
62456W        W21552  41.306  26.493   1.435
62457W        W21553  25.127   0.866  10.971
62458W        W21554  34.403   4.318   3.186
62459W        W21555  36.987   2.887   4.273
62460W        W21556  19.752  14.156   2.349
62461W        W21557  21.595  20.634  12.847
62462W        W21558   1.794  13.166  11.506
62463W        W21559  23.003  22.221  10.897
62464W        W21560  42.791  10.693  14.792
62465W        W21561   0.860  11.215  10.145
62466W        W21562   6.735  27.472   0.818
62467W        W21563   7.874  38.541  12.051
62468W        W21564  20.180  41.961   3.307
62469W        W21565   6.371  30.030   1.781
62470W        W21566  34.376  35.370  12.400
62471W        W21567  28.138  39.048   4.261
62472W        W21568  17.706  38.522   2.395
62473W        W21569  28.575  22.584   0.893
62474W        W21570  15.720  32.583  10.622
62475W        W21571  42.003  44.922  12.344
62476W        W21572  24.198  21.021   4.681
62477W        W21573  34.975  15.311   1.215
62478W        W21574  43.284   1.279   1.910
62479W        W21575   7.833  37.572   2.693
62480W        W21576   5.273  28.482  12.430
62481W        W21577  42.003  11.717   1.765
62482W        W21578  32.919  38.485   2.213
62483W        W21579  26.080  28.441   4.208
62484W        W21580  27.107  41.472  10.965
62485W        W21581  37.053   1.905   0.273
62486W        W21582  33.128  14.694  11.547
62487W        W21583  44.348  24.211   0.940
62488W        W21584  26.983  39.822  14.773
62489W        W21585  40.914  31.617  12.883
62490W        W21586  11.275   3.381  11.980
62491W        W21587  16.117  12.837   3.266
62492W        W21588  23.220  24.577  11.925
62493W        W21589  30.921  26.063  13.878
62494W        W21590   5.282  27.138   0.385
62495W        W21591  25.136  10.722  12.947
62496W        W21592  17.167   9.890   1.775
62497W        W21593   5.436   1.318   1.928
62498W        W21594  26.085  21.051   4.167
62499W        W21595  17.064  31.957   3.712
62500W        W21596  33.027  39.996  12.951
62501W        W21597  23.699   4.703  12.068
62502W        W21598  34.540  30.137   3.832
62503W        W21599  23.674  10.154   5.138
62504W        W21600  12.811   3.317  10.609
62505W        W21601  33.056  39.954  11.913
62506W        W21602  24.078  43.859  11.923
62507W        W21603  12.332  34.930  12.566
62508W        W21604  30.979  33.485   1.341
62509W        W21605  26.971  29.444   0.920
62510W        W21606  32.599  12.612  10.965
62511W        W21607  31.481   9.258   2.186
62512W        W21608  16.688   2.912   3.682
62513W        W21609  24.021  41.499  11.928
62514W        W21610  25.024  28.460   3.818
62515W        W21611  18.564  37.967  13.453
62516W        W21612   0.972  37.020   3.668
62517W        W21613   7.819   8.659  11.890
62518W        W21614  11.729  27.474  13.802
62519W        W21615  16.127  32.587  12.391
62520W        W21616  11.726   6.187   4.135
62521W        W21617  43.441  32.089   3.380
62522W        W21618  41.908  18.568   3.161
62523W        W21619  37.849   7.822  12.455
62524W        W21620  31.066  33.524  13.943
62525W        W21621   0.941  39.027   3.304
62526W        W21622  21.070  22.605   1.327
62527W        W21623   6.341  39.835  14.977
62528W        W21624  18.724  16.277  13.052
62529W        W21625  36.590   8.894   0.944
62530W        W21626   2.404   0.406   4.657
62531W        W21627  37.442   3.844  11.912
62532W        W21628   4.372  30.003   4.705
62533W        W21629  34.918  17.223   2.850
62534W        W21630  12.755  39.557  11.939
62535W        W21631  11.828  23.702  13.423
62536W        W21632  36.473   0.473   4.289
62537W        W21633  11.753  11.273   2.762
62538W        W21634  27.133   2.316   3.654
62539W        W21635  34.965  42.454   1.395
62540W        W21636  42.821  39.336  11.021
62541W        W21637   0.484  17.632   2.825
62542W        W21638  19.688  40.895  11.087
62543W        W21639  33.066  23.586   2.360
62544W        W21640  20.537  35.103  12.361
62545W        W21641  35.478  43.874  11.401
62546W        W21642  20.610  41.951   2.368
62547W        W21643  39.395  25.625   3.313
62548W        W21644  20.569   8.329   4.276
62549W        W21645  21.052  37.454  13.028
62550W        W21646  11.304  23.102  13.852
62551W        W21647  40.808   4.213   0.287
62552W        W21648  19.599   7.880   2.215
62553W        W21649  18.769  36.016  14.920
62554W        W21650  19.542  38.491   3.783
62555W        W21651  27.594  26.108  13.952
62556W        W21652  14.174  19.135  10.580
62557W        W21653  32.578  32.443   4.707
62558W        W21654   7.738  28.484   0.736
62559W        W21655  29.942  32.391   3.275
62560W        W21656  26.161  43.995  14.405
62561W        W21657  24.583  10.711   4.626
62562W        W21658   8.870  27.471   4.649
62563W        W21659  17.556   7.751   0.413
62564W        W21660   4.931  16.592   3.255
62565W        W21661  22.630   6.280  13.040
62566W        W21662  40.915  20.214  14.945
62567W        W21663  40.017  28.468  14.001
62568W        W21664  13.104  19.696   3.683
62569W        W21665  41.852  44.836  14.463
62570W        W21666  14.191   5.417  10.477
62571W        W21667  42.284  27.506   3.226
62572W        W21668   8.322  13.681   1.759
62573W        W21669  44.377  26.953  11.880
62574W        W21670  44.872  23.084  11.023
62575W        W21671  19.047  12.857  12.575
62576W        W21672   9.223  38.467   1.393
62577W        W21673   1.757  33.428   3.680
62578W        W21674  39.993  37.551   0.364
62579W        W21675   5.860  39.455   0.758
62580W        W21676  34.448  38.030   4.708
62581W        W21677   1.899  19.572  11.917
62582W        W21678   0.845  23.169   3.337
62583W        W21679   3.435  41.470   3.167
62584W        W21680  33.536  20.129  10.113
62585W        W21681   9.361  11.213  14.825
62586W        W21682  42.799   6.298  12.079
62587W        W21683   2.325  24.613  10.149
62588W        W21684  24.228  20.748   3.195
62589W        W21685   0.252  25.195  12.862
62590W        W21686  22.668  23.086   0.250
62591W        W21687  38.436  43.456  10.920
62592W        W21688  29.470  15.812   3.822
62593W        W21689   8.316  41.969  14.797
62594W        W21690  44.339  27.190   2.399
62595W        W21691   3.836   2.229  13.509
62596W        W21692  33.385   9.295  13.412
62597W        W21693   0.250  30.587   3.364
62598W        W21694  34.435  13.648  13.852
62599W        W21695  30.144   1.315   0.854
62600W        W21696  34.116  38.882  13.908
62601W        W21697   5.357  15.200  11.384
62602W        W21698   3.864  37.025  11.072
62603W        W21699  18.216  38.894  11.451
62604W        W21700  41.003  29.140  11.089
62605W        W21701  22.583   8.327  14.921
62606W        W21702  37.961  34.042   3.182
62607W        W21703  23.586  12.194  11.571
62608W        W21704   2.331  40.897  13.925
62609W        W21705   5.711  12.158   4.343
62610W        W21706  22.547  16.235   0.349
62611W        W21707  39.883  25.138   1.697
62612W        W21708  42.959  11.353   2.411
62613W        W21709  42.777  36.859  13.541
62614W        W21710   8.764   7.682   2.271
62615W        W21711   5.294  23.501   4.196
62616W        W21712  12.117  42.825  14.334
62617W        W21713  29.081  44.414   4.257
62618W        W21714  10.178  23.580  12.892
62619W        W21715  11.216   8.746  14.427
62620W        W21716   7.803  36.002   3.276
62621W        W21717   2.903  41.006   1.367
62622W        W21718  18.206  39.332  14.815
62623W        W21719   6.193  43.320   2.276
62624W        W21720  37.866  17.079   4.629
62625W        W21721  15.608  24.138  11.379
62626W        W21722  31.429   0.920   1.421
62627W        W21723  23.233  31.528   4.128
62628W        W21724  20.207  17.112   4.783
62629W        W21725   1.373  25.048   4.325
62630W        W21726  28.582  14.828   1.774
62631W        W21727  24.658  20.698   9.971
62632W        W21728  17.130  24.011  14.025
62633W        W21729  21.064  36.522   1.773
62634W        W21730  33.975  25.199   0.355
62635W        W21731  15.146   3.841   4.600
62636W        W21732  25.632   9.253   1.362
62637W        W21733   8.168  20.637  12.497
62638W        W21734  27.668  14.291   4.634
62639W        W21735   2.328  19.049   0.413
62640W        W21736  36.882  16.089   4.622
62641W        W21737  13.133   9.234   2.779
62642W        W21738  35.982  41.302   2.315
62643W        W21739  13.690  24.693  13.343
62644W        W21740  40.955  39.003   4.330
62645W        W21741  29.520  15.329  11.592
62646W        W21742  39.885  36.954  12.471
62647W        W21743  18.245  42.785  12.089
62648W        W21744  17.206  44.765   0.338
62649W        W21745  24.665   2.798   4.146
62650W        W21746  24.624  35.958  11.423
62651W        W21747   7.708  10.251  14.402
62652W        W21748  42.976  37.370   4.241
62653W        W21749   6.408  30.641  10.540
62654W        W21750  35.364  41.401   0.310
62655W        W21751  31.643  28.138   3.274
62656W        W21752  18.088  13.645   2.390
62657W        W21753  11.622  15.197   9.437
62658W        W21754   9.323  22.253  14.280
62659W        W21755  36.490  18.715   4.238
62660W        W21756  37.368  42.797   3.767
62661W        W21757  35.364  13.144   2.887
62662W        W21758  41.786   5.199  13.057
62663W        W21759  33.544  22.093   0.774
62664W        W21760  32.906  34.523   0.333
62665W        W21761   6.225  16.185  14.284
62666W        W21762   1.252   9.681   1.857
62667W        W21763  40.991  32.479  12.053
62668W        W21764  16.164  25.122   4.312
62669W        W21765  21.036  41.428   4.725
62670W        W21766  43.945   6.277   1.884
62671W        W21767  15.661  33.380   2.296
62672W        W21768   7.845  31.003   0.946
62673W        W21769  42.466  14.201   4.727
62674W        W21770  44.763   8.823  12.876
62675W        W21771  29.475   0.868   5.239
62676W        W21772  24.609  12.793   2.696
62677W        W21773  13.188  14.129  14.990
62678W        W21774  42.428  36.051   2.734
62679W        W21775   1.274   0.856   4.601
62680W        W21776  38.570  32.132   3.862
62681W        W21777  13.109   0.921  14.026
62682W        W21778   4.828  34.017   1.238
62683W        W21779  29.553  17.617  12.897
62684W        W21780  19.567  42.900  12.010
62685W        W21781  36.046  18.623   2.759
62686W        W21782   2.332  33.946  11.901
62687W        W21783  39.855  10.383   9.589
62688W        W21784  43.367  15.739  14.814
62689W        W21785   0.946  32.612   3.655
62690W        W21786   2.923  10.704  14.841
62691W        W21787  13.727  33.124   3.319
62692W        W21788  19.226   0.842  14.022
62693W        W21789  34.992  21.677   2.825
62694W        W21790  16.571  16.566  11.007
62695W        W21791   1.451  33.926   4.189
62696W        W21792  15.106  28.104  13.435
62697W        W21793  27.676  21.706  10.997
62698W        W21794  21.612  25.571   4.310
62699W        W21795  32.996  22.109  11.998
62700W        W21796  41.418  13.617  14.902
62701W        W21797   1.304   0.312  13.889
62702W        W21798  12.747  12.842   2.665
62703W        W21799  37.493  31.622  14.390
62704W        W21800  32.941  33.019   3.634
62705W        W21801  32.576   1.947   1.411
62706W        W21802   6.862  16.172  11.033
62707W        W21803  31.454  24.503   3.363
62708W        W21804  16.182  15.254   0.821
62709W        W21805  23.598   1.827   3.707
62710W        W21806  42.907  33.615  11.517
62711W        W21807  26.500  44.903  13.504
62712W        W21808   8.747  12.623   4.749
62713W        W21809  29.059  28.653  13.325
62714W        W21810  16.724  17.562   1.332
62715W        W21811  20.103  33.528   3.204
62716W        W21812  20.091  43.474  14.871
62717W        W21813  44.368  32.563   2.332
62718W        W21814  26.614  14.233   2.819
62719W        W21815  35.445   9.882  10.600
62720W        W21816  25.551  40.854   2.849
62721W        W21817  43.474  23.729  14.927
62722W        W21818  37.837   6.702  11.443
62723W        W21819  23.994  16.085  14.491
62724W        W21820   9.176  25.199   4.215
62725W        W21821  20.705  31.053  13.983
62726W        W21822  29.948   4.394  10.448
62727W        W21823   1.782  15.723  11.069
62728W        W21824  30.425  19.276  13.379
62729W        W21825   6.302  11.165  10.924
62730W        W21826  25.151  21.158  13.852
62731W        W21827   6.840  19.557  14.904
62732W        W21828   5.901   5.336  13.492
62733W        W21829  18.664  23.065   1.743
62734W        W21830  33.961  36.087  14.969
62735W        W21831   2.437  29.066   1.725
62736W        W21832  14.620  31.966  11.382
62737W        W21833  24.034   8.367  13.873
62738W        W21834  30.099  37.937  14.889
62739W        W21835  44.925  38.916   3.233
62740W        W21836  29.593  44.495  10.911
62741W        W21837  21.568   1.245   1.864
62742W        W21838  14.708  40.397  11.879
62743W        W21839   6.317   2.449   4.837
62744W        W21840   2.285  37.357   5.150
62745W        W21841  21.701  11.315   4.214
62746W        W21842  28.554   4.312   3.760
62747W        W21843   9.215  36.059  11.957
62748W        W21844  17.697  39.375   4.141
62749W        W21845  43.307  44.425  14.426
62750W        W21846  38.061  17.600   2.192
62751W        W21847  12.656  41.031   3.648
62752W        W21848   1.261  18.067  10.995
62753W        W21849  24.590  43.835  10.922
62754W        W21850  25.019  33.905   4.769
62755W        W21851   3.789  42.027   3.788
62756W        W21852   6.780  34.934  12.934
62757W        W21853   7.724   0.352  14.794
62758W        W21854  29.079  19.610  10.470
62759W        W21855  31.932  17.777   2.333
62760W        W21856  44.500  35.039  10.487
62761W        W21857  21.092  28.650  10.632
62762W        W21858  21.122  29.047   1.416
62763W        W21859  17.625  26.140  12.931
62764W        W21860   1.320   8.890   4.778
62765W        W21861  29.590  25.146  13.333
62766W        W21862  34.018  22.587   1.838
62767W        W21863  14.666  15.316   5.228
62768W        W21864  27.493  42.885   3.359
62769W        W21865  14.142  28.510  12.431
62770W        W21866  37.537  36.939  10.916
62771W        W21867  41.524  39.826  11.476
62772W        W21868   4.825  33.571  13.798
62773W        W21869  12.257  13.232  13.873
62774W        W21870  37.472   2.909  10.920
62775W        W21871  34.549  14.129   1.274
62776W        W21872  22.151  14.808   1.835
62777W        W21873   1.392   3.296  13.436
62778W        W21874  30.115   1.965  10.494
62779W        W21875   1.733  21.044  10.905
62780W        W21876  41.793  27.591   0.356
62781W        W21877   8.256  33.932   1.380
62782W        W21878   0.472  22.562  12.367
62783W        W21879  16.255   6.223  12.089
62784W        W21880  28.640  15.196   2.895
62785W        W21881  28.122  43.841   3.865
62786W        W21882  12.312  18.625  11.416
62787W        W21883  34.911  18.667  14.390
62788W        W21884  10.227  18.142   0.245
62789W        W21885  13.310  19.279   1.877
62790W        W21886  35.859   9.880  13.476
62791W        W21887  21.646  32.971   2.775
62792W        W21888  19.190  11.320  14.914
62793W        W21889  25.134  31.462   3.371
62794W        W21890  13.728   3.862  13.854
62795W        W21891  41.819  14.162   2.197
62796W        W21892   9.687   5.259  11.396
62797W        W21893   4.763  11.162  12.901
62798W        W21894  25.499  20.574   5.594
62799W        W21895  25.133  28.954   3.177
62800W        W21896   9.743  39.903  11.546
62801W        W21897   8.386   9.388   2.307
62802W        W21898   8.764  20.132   3.197
62803W        W21899  12.613  31.104  13.437
62804W        W21900  28.483  17.635  10.627
62805W        W21901  19.103  35.513  13.386
62806W        W21902  15.123   5.197   0.426
62807W        W21903  44.823  16.649  14.380
62808W        W21904  37.975  13.218   0.909
62809W        W21905  30.493  21.057  11.866
62810W        W21906   7.891   8.198  12.395
62811W        W21907  10.822  16.696   0.946
62812W        W21908  27.061  29.631   0.448
62813W        W21909  34.916   3.857  11.579
62814W        W21910   9.212  44.284   3.866
62815W        W21911  32.570   4.885   0.261
62816W        W21912   6.775  19.712  10.894
62817W        W21913  15.085   7.773  14.410
62818W        W21914   2.443  32.123  13.901
62819W        W21915  38.057   3.732   2.755
62820W        W21916  40.817   6.354   0.427
62821W        W21917  31.113  21.731   4.354
62822W        W21918  27.569   0.254  14.347
62823W        W21919  28.624  32.028  12.423
62824W        W21920  22.043   4.393   2.865
62825W        W21921   6.699  14.188   3.286
62826W        W21922   3.251  23.017  10.546
62827W        W21923   7.708  22.093  14.828
62828W        W21924  19.707   4.345  11.985
62829W        W21925   1.782  34.904   3.634
62830W        W21926  15.105   3.910  10.406
62831W        W21927  17.229   6.698  11.862
62832W        W21928  44.318  30.135  10.417
62833W        W21929  29.160  12.675   1.348
62834W        W21930   3.410  33.490  11.436
62835W        W21931  30.021   8.235   1.236
62836W        W21932  36.530  19.277   2.323
62837W        W21933   9.159  34.884  10.531
62838W        W21934  23.155  15.192   4.631
62839W        W21935  31.405  20.197   3.705
62840W        W21936  24.158  44.349   4.734
62841W        W21937   0.268  26.185   0.360
62842W        W21938  31.984   2.310  14.885
62843W        W21939  23.673  41.339  12.895
62844W        W21940  15.791  17.773   1.310
62845W        W21941   7.308  19.578   3.379
62846W        W21942  39.847  10.729   0.956
62847W        W21943  26.962  17.173  13.031
62848W        W21944  17.782  15.141   0.285
62849W        W21945  21.548   8.674   1.443
62850W        W21946  10.751   7.276  10.930
62851W        W21947   4.219  33.596  10.976
62852W        W21948  43.330  23.120   4.127
62853W        W21949  21.082  11.134   0.289
62854W        W21950  11.864  44.355  11.878
62855W        W21951  41.867  18.187   5.124
62856W        W21952  43.332   7.205   4.288
62857W        W21953  29.560  19.666   3.211
62858W        W21954  15.110   3.760  14.302
62859W        W21955  25.642  35.403   1.361
62860W        W21956  42.816   9.179   4.134
62861W        W21957  15.321  29.175   4.147
62862W        W21958  15.726  33.085   2.824
62863W        W21959   6.695   8.790   0.941
62864W        W21960  13.819  21.646   2.209
62865W        W21961  18.701  22.077   2.682
62866W        W21962  18.627  13.273  10.612
62867W        W21963   3.859  22.702   1.344
62868W        W21964  31.997  25.704  13.956
62869W        W21965   0.432   5.431   4.280
62870W        W21966   2.932  10.366   3.804
62871W        W21967  33.451  17.120  12.403
62872W        W21968  21.696  25.988  10.573
62873W        W21969  41.369  26.090  11.497
62874W        W21970   0.742  14.275  14.332
62875W        W21971  15.710  27.139  10.443
62876W        W21972   2.329  10.213   2.305
62877W        W21973  35.879   5.735  14.437
62878W        W21974   4.764  12.814  12.440
62879W        W21975   8.721  22.218  14.866
62880W        W21976  12.289   8.349   1.880
62881W        W21977  14.821  44.784  13.944
62882W        W21978  33.465  37.877  12.550
62883W        W21979   9.229   7.180   0.395
62884W        W21980  19.618  20.148  13.940
62885W        W21981  31.996  11.230  10.955
62886W        W21982  40.036   2.788   3.853
62887W        W21983  42.998  15.139   3.189
62888W        W21984  41.003  14.261   0.726
62889W        W21985  21.646  32.556  11.063
62890W        W21986  44.356  32.440  12.888
62891W        W21987   8.194  39.965   4.786
62892W        W21988  26.962   4.803   4.641
62893W        W21989  21.089  21.562   0.844
62894W        W21990  33.597  37.975  10.554
62895W        W21991  22.100  17.294  11.379
62896W        W21992  43.306  40.484   3.787
62897W        W21993  21.253  13.641   0.420
62898W        W21994  29.042   4.280   0.813
62899W        W21995  31.514  30.563   1.443
62900W        W21996  14.318  35.979  10.131
62901W        W21997  26.496  29.973   3.852
62902W        W21998  31.406  43.435   4.184
62903W        W21999  15.271  28.541   3.836
62904W        W22000  17.063  20.106  14.448
62905W        W22001  38.340  19.775   4.705
62906W        W22002  44.294  41.904   3.266
62907W        W22003  40.039  35.539   1.435
62908W        W22004   2.888  25.531  12.492
62909W        W22005  41.837   7.199   2.712
62910W        W22006   5.252  32.989  13.314
62911W        W22007  36.005   4.344   3.797
62912W        W22008  17.270  14.711   1.906
62913W        W22009   3.353   7.351  11.045
62914W        W22010  42.297  10.371   1.415
62915W        W22011  12.745  13.607  11.403
62916W        W22012  32.613   4.922   3.365
62917W        W22013   6.864  31.906   0.329
62918W        W22014  13.338   0.431  10.063
62919W        W22015  31.059  23.644   0.920
62920W        W22016   0.955  29.475  12.541
62921W        W22017  32.562  13.758   4.218
62922W        W22018  37.833  17.701   0.752
62923W        W22019   1.852  30.638  12.832
62924W        W22020  37.937  39.415  12.025
62925W        W22021  31.648  16.137   1.719
62926W        W22022  41.806  44.446   4.751
62927W        W22023  40.020   6.883   0.351
62928W        W22024  12.679  32.054  11.532
62929W        W22025  21.050  30.924   3.268
62930W        W22026  27.156   7.772   2.399
62931W        W22027  26.525  30.120  14.805
62932W        W22028   6.353  13.601  12.953
62933W        W22029  18.245  23.610  13.466
62934W        W22030  44.954  43.272  11.378
62935W        W22031  18.647  30.085  12.988
62936W        W22032  20.221  31.134   3.217
62937W        W22033   3.729   8.781  13.865
62938W        W22034  39.535  31.152  13.046
62939W        W22035  24.637  13.797   4.244
62940W        W22036  23.602  13.297  10.942
62941W        W22037  14.659   0.834   2.816
62942W        W22038  41.969  40.422  12.553
62943W        W22039   7.365  27.179   1.908
62944W        W22040  28.963  28.070   0.483
62945W        W22041   7.877  29.661  11.108
62946W        W22042  35.557   9.381   1.430
62947W        W22043  18.554  10.226   4.132
62948W        W22044  13.105   2.397  12.879
62949W        W22045   2.809  38.378  11.109
62950W        W22046  22.535  15.653  12.935
62951W        W22047   1.405  32.599  13.015
62952W        W22048   8.752  13.106  11.468
62953W        W22049  33.584  12.362   4.828
62954W        W22050  14.689  15.614  10.121
62955W        W22051  32.067  28.676  11.561
62956W        W22052  28.143  43.994  11.488
62957W        W22053  42.504  13.268  12.489
62958W        W22054  13.788  34.443  13.876
62959W        W22055   6.749  22.067  13.981
62960W        W22056  40.920  28.442  12.062
62961W        W22057  17.112   4.423   0.465
62962W        W22058  20.748  31.559  11.485
62963W        W22059   6.692  29.508  10.448
62964W        W22060  41.967  44.424   5.320
62965W        W22061  38.519   5.436   0.890
62966W        W22062  29.007  29.987  11.093
62967W        W22063  36.033  43.417  11.587
62968W        W22064   9.673  10.752  12.847
62969W        W22065   6.679  29.979   3.256
62970W        W22066  15.794   2.467  10.481
62971W        W22067   7.703   0.273   1.802
62972W        W22068  17.781  35.029   1.355
62973W        W22069  43.905  23.010   4.647
62974W        W22070  38.819  28.484   1.858
62975W        W22071   0.828  27.177  11.520
62976W        W22072  38.515  13.608   1.431
62977W        W22073  26.662  12.350   3.352
62978W        W22074  44.476  16.237  10.894
62979W        W22075  24.721  21.619  14.797
62980W        W22076  32.936  42.472  14.315
62981W        W22077   7.216  28.116  13.309
62982W        W22078  22.195  26.198  12.964
62983W        W22079  12.731   8.675   2.248
62984W        W22080  19.536  44.993   3.663
62985W        W22081  40.458  11.261  13.368
62986W        W22082  12.813  33.500  12.080
62987W        W22083  30.483   6.364  12.510
62988W        W22084  39.877  17.791  11.429
62989W        W22085   9.193  20.707  13.867
62990W        W22086  15.189   2.281   2.881
62991W        W22087  11.810   3.913  12.987
62992W        W22088  39.376  37.831  11.530
62993W        W22089  37.917  12.857  10.005
62994W        W22090  11.177  35.999  14.514
62995W        W22091  33.487  32.036  11.987
62996W        W22092  12.697  32.003  12.015
62997W        W22093  35.959  20.549   0.480
62998W        W22094  13.658  14.130   0.957
62999W        W22095  40.860  22.104  11.501
63000W        W22096   8.895  40.008   3.208
63001W        W22097  13.205  25.015  12.425
63002W        W22098   9.374  43.840  14.913
63003W        W22099  41.885  23.195  13.311
63004W        W22100   4.934  28.940   3.708
63005W        W22101   8.773  24.591   0.270
63006W        W22102  26.498  13.327  13.496
63007W        W22103  19.268   2.837  11.926
63008W        W22104  14.769   5.762  12.077
63009W        W22105   3.293  38.447  12.363
63010W        W22106  13.749  39.928  14.006
63011W        W22107  43.802  13.785  13.874
63012W        W22108  43.361  32.564  14.506
63013W        W22109  27.094  40.891  11.592
63014W        W22110  28.616  37.045  12.573
63015W        W22111   6.327  16.294  11.495
63016W        W22112  19.544  40.530  13.046
63017W        W22113  19.202  41.310   0.836
63018W        W22114  16.730  35.970   0.760
63019W        W22115   7.239  11.679   1.280
63020W        W22116  30.915  31.524   2.878
63021W        W22117  35.935  27.968   2.821
63022W        W22118  21.211  44.317   2.282
63023W        W22119  27.979  24.216  12.093
63024W        W22120  37.040   5.707  12.347
63025W        W22121  24.559  42.783   1.450
63026W        W22122  15.105  40.359  13.474
63027W        W22123   8.795  33.105  12.508
63028W        W22124  44.827  34.060  14.915
63029W        W22125  35.891   1.885  13.834
63030W        W22126  38.941  28.987   0.400
63031W        W22127  29.105  43.412  13.850
63032W        W22128  41.398  11.280  10.534
63033W        W22129   6.238  34.541   2.216
63034W        W22130  31.087  43.368   2.401
63035W        W22131   8.854  18.273  13.860
63036W        W22132  21.568  33.545   0.925
63037W        W22133   6.752   3.939  10.985
63038W        W22134   3.940  17.134  14.893
63039W        W22135   6.390   1.770  10.099
63040W        W22136   4.271  40.545  13.934
63041W        W22137  27.955  23.125   0.890
63042W        W22138  26.663   7.877   3.261
63043W        W22139  24.118  18.643   0.734
63044W        W22140  18.703  43.864   4.634
63045W        W22141   7.398  32.460   2.867
63046W        W22142  13.600   6.278   0.290
63047W        W22143  20.661  25.052   1.294
63048W        W22144  35.569  41.299   0.869
63049W        W22145   2.295  24.568   3.225
63050W        W22146   0.882  14.832   3.683
63051W        W22147  18.554  39.857   2.695
63052W        W22148   7.358   4.422  12.439
63053W        W22149   5.324   7.184  13.917
63054W        W22150  16.614  24.182   0.466
63055W        W22151   6.795  31.450  12.988
63056W        W22152  36.944  40.853  13.372
63057W        W22153  36.583  43.511  13.481
63058W        W22154  27.970   6.204  10.476
63059W        W22155  12.243   0.396   0.771
63060W        W22156  17.224  25.965  12.470
63061W        W22157  13.240  32.444  12.841
63062W        W22158  12.670  31.139   3.303
63063W        W22159  26.562  24.707   2.267
63064W        W22160  30.422  19.735  13.809
63065W        W22161  40.384  35.433   2.297
63066W        W22162  35.358   3.726   2.679
63067W        W22163  25.177  14.623  12.536
63068W        W22164  18.613  31.022   4.236
63069W        W22165  11.151   5.399   4.340
63070W        W22166  39.890  26.182   4.798
63071W        W22167   0.362  33.108  13.840
63072W        W22168  32.081  26.686  13.366
63073W        W22169  30.978  41.040   2.788
63074W        W22170  18.555  34.571  12.934
63075W        W22171  22.154  31.602   3.255
63076W        W22172  12.720  36.981  11.857
63077W        W22173  38.846  24.215  14.957
63078W        W22174  23.697   0.936   4.729
63079W        W22175  22.138  24.201  14.463
63080W        W22176   1.951  41.808  10.599
63081W        W22177  25.638  11.691   3.793
63082W        W22178  18.172  30.013  11.516
63083W        W22179  22.173   0.379   1.288
63084W        W22180  40.054  29.663   2.687
63085W        W22181  37.544  16.692  14.974
63086W        W22182  20.538   1.852  11.913
63087W        W22183   3.233  44.851   2.847
63088W        W22184  26.056  33.131   4.817
63089W        W22185  22.146  12.768  11.373
63090W        W22186  41.505  42.361  12.986
63091W        W22187  15.719  10.803   3.743
63092W        W22188  13.615  42.838   2.854
63093W        W22189  31.121  39.001  13.428
63094W        W22190  26.049  39.382   0.942
63095W        W22191  15.686   7.678   0.848
63096W        W22192   7.722  24.202   0.939
63097W        W22193  16.617  10.171   2.739
63098W        W22194  38.350  32.595  10.634
63099W        W22195  19.221  28.948  10.542
63100W        W22196  40.961  37.396  10.541
63101W        W22197   2.800  42.897   2.738
63102W        W22198  11.861  15.149  10.616
63103W        W22199  14.815  21.643   4.234
63104W        W22200  40.349   8.812  14.847
63105W        W22201  22.549  23.043  10.575
63106W        W22202  21.543  18.077  12.548
63107W        W22203  35.045  19.135  11.126
63108W        W22204  24.176  37.077  14.334
63109W        W22205  35.988   9.384  13.366
63110W        W22206   1.271  19.166   0.273
63111W        W22207  15.678  26.500   0.382
63112W        W22208  19.726   0.989  13.428
63113W        W22209  15.739   7.905  10.930
63114W        W22210  23.044  22.039  11.428
63115W        W22211  30.491   1.446  12.384
63116W        W22212   6.746  40.371   2.203
63117W        W22213  14.115  35.567   1.355
63118W        W22214  40.819  27.094   3.810
63119W        W22215  12.205  42.831   0.384
63120W        W22216  24.102  21.152  14.467
63121W        W22217  10.168  30.543  10.965
63122W        W22218   7.856   9.239   1.797
63123W        W22219   0.462  43.822  11.558
63124W        W22220  32.050  13.217  14.942
63125W        W22221  20.727  12.224  10.068
63126W        W22222  18.636   1.850   0.760
63127W        W22223  37.429  32.917  12.363
63128W        W22224  11.360  35.389   4.240
63129W        W22225  11.792  35.432  11.460
63130W        W22226   3.833  21.253  10.448
63131W        W22227   7.674  44.753  14.875
63132W        W22228  38.908  20.580   2.797
63133W        W22229   4.802  43.379   2.319
63134W        W22230  12.847  11.289  11.407
63135W        W22231  26.512  10.694   0.382
63136W        W22232  26.653   8.208   4.802
63137W        W22233  37.503  10.154  11.107
63138W        W22234   6.916  38.921  13.013
63139W        W22235  28.503  26.623   4.233
63140W        W22236  44.410  12.313   1.908
63141W        W22237  43.943  25.552   4.793
63142W        W22238  20.755  25.592   1.817
63143W        W22239  14.341  24.696  12.557
63144W        W22240  39.515  34.384   1.276
63145W        W22241   8.858  40.018   1.860
63146W        W22242  33.986   9.813   1.310
63147W        W22243  11.288  28.986   2.292
63148W        W22244  37.032   4.892   4.154
63149W        W22245  10.369   8.674  11.083
63150W        W22246  22.017  36.872  13.021
63151W        W22247  30.049  23.575  11.919
63152W        W22248  42.868  39.460  14.363
63153W        W22249  17.611  27.470  14.293
63154W        W22250  41.333  35.560  12.443
63155W        W22251  14.730  44.431   3.353
63156W        W22252  29.156  13.111  14.870
63157W        W22253  36.470   5.291  13.522
63158W        W22254  13.134  32.923  12.452
63159W        W22255  20.034  35.019   1.422
63160W        W22256  37.364  27.471  11.876
63161W        W22257  37.949  30.496   2.363
63162W        W22258   4.255  36.440  14.014
63163W        W22259   4.944   9.737  10.427
63164W        W22260  17.695   7.361   3.370
63165W        W22261  38.061  16.109   4.836
63166W        W22262  40.311   8.822   2.223
63167W        W22263  27.624  31.060  12.568
63168W        W22264   6.864  32.579   0.465
63169W        W22265  37.365   9.297  11.030
63170W        W22266  25.192  17.198  12.009
63171W        W22267  27.654  29.572   0.844
63172W        W22268  16.172  27.656  14.360
63173W        W22269  35.402   2.863   1.795
63174W        W22270  16.113  32.597  10.448
63175W        W22271  19.039  35.044   1.837
63176W        W22272   7.709   0.867  12.474
63177W        W22273   7.259   2.751  13.371
63178W        W22274  30.986  17.614  12.341
63179W        W22275  20.559  42.376  14.918
63180W        W22276  24.583  14.225  10.520
63181W        W22277  34.928  40.921  13.542
63182W        W22278  33.131  13.206   0.755
63183W        W22279  25.548  29.102   3.186
63184W        W22280  28.040  31.140  14.426
63185W        W22281  27.454   4.354  14.363
63186W        W22282  21.048  15.774   2.219
63187W        W22283   5.312   3.456  13.399
63188W        W22284  29.438   4.327   4.786
63189W        W22285  13.329  20.053  12.397
63190W        W22286  11.632  37.472   1.828
63191W        W22287  36.952  36.551  14.899
63192W        W22288  23.066  32.636   1.887
63193W        W22289  34.455   6.715  10.629
63194W        W22290  14.200  25.502  13.530
63195W        W22291  13.835  21.694   3.218
63196W        W22292   3.861  34.115   4.147
63197W        W22293  42.313   1.367  10.980
63198W        W22294  18.294   3.417   1.899
63199W        W22295  29.542  19.565   5.117
63200W        W22296  29.620  31.412   0.832
63201W        W22297  41.504   6.711  11.879
63202W        W22298  38.368  35.492   3.271
63203W        W22299   4.715  39.986  13.813
63204W        W22300  32.594  15.601  14.477
63205W        W22301  19.686   8.311  11.921
63206W        W22302  26.164   7.307   2.665
63207W        W22303  30.036   9.215   1.377
63208W        W22304  14.224  15.243   3.185
63209W        W22305   6.292  21.737   2.773
63210W        W22306  44.292   8.279  10.544
63211W        W22307   7.674  20.220  14.480
63212W        W22308  11.782  31.123   4.727
63213W        W22309  20.066  39.530  10.053
63214W        W22310  32.632   6.745  11.431
63215W        W22311  15.748  20.696  13.064
63216W        W22312  33.893  43.433  13.895
63217W        W22313  21.144   0.424   3.293
63218W        W22314  34.508  44.968   0.402
63219W        W22315  19.273  11.703  14.395
63220W        W22316  40.011  26.593   1.922
63221W        W22317   0.852  11.227  10.520
63222W        W22318  34.081  30.108   0.379
63223W        W22319  28.544  16.728  12.449
63224W        W22320  42.962  23.081   4.292
63225W        W22321  30.079   8.281   0.901
63226W        W22322  34.572  10.217  10.605
63227W        W22323   1.436   2.727   4.207
63228W        W22324  27.972  10.293   4.342
63229W        W22325  41.817  16.703  13.509
63230W        W22326  27.006  33.012  11.532
63231W        W22327  31.045  11.867   5.217
63232W        W22328  36.963  44.824  11.125
63233W        W22329  28.975   7.411  13.833
63234W        W22330   5.402  23.043   4.786
63235W        W22331  36.455  29.514   4.293
63236W        W22332  12.274   2.778  12.578
63237W        W22333  27.628  29.477  12.858
63238W        W22334  41.462  39.411   0.784
63239W        W22335   2.839  14.290  11.952
63240W        W22336  19.153  13.224  13.351
63241W        W22337   1.850  20.231   4.148
63242W        W22338  11.358  10.233  14.316
63243W        W22339  13.603  36.043   0.443
63244W        W22340  35.044   9.869  12.859
63245W        W22341   6.708  30.913   4.206
63246W        W22342  38.972  16.160   0.402
63247W        W22343  27.674   3.805  10.478
63248W        W22344  13.338  38.854   5.288
63249W        W22345  27.653   4.395   1.844
63250W        W22346   7.789  12.332  11.407
63251W        W22347  31.646  38.371   1.336
63252W        W22348  28.057  13.345  10.515
63253W        W22349  43.936   8.792  11.598
63254W        W22350  36.990  19.738   4.714
63255W        W22351  44.885  22.711   2.400
63256W        W22352  15.674  22.026  14.907
63257W        W22353  37.370  35.601  13.544
63258W        W22354  16.769   7.847   0.731
63259W        W22355   9.813  32.534   9.631
63260W        W22356   3.718  13.110   0.360
63261W        W22357  10.658  12.131  14.985
63262W        W22358   9.331  20.741   1.329
63263W        W22359  28.485  42.294   0.823
63264W        W22360  34.027  29.534  14.878
63265W        W22361  30.923  12.279   3.332
63266W        W22362   9.859  27.974   0.458
63267W        W22363  40.338  36.503   2.774
63268W        W22364  12.120   1.835   2.785
63269W        W22365  42.397   3.318   1.925
63270W        W22366  31.548  31.945   2.254
63271W        W22367  24.100  18.278   2.841
63272W        W22368  10.857  22.211  12.969
63273W        W22369  12.636   0.282  11.092
63274W        W22370  41.018   6.803   2.378
63275W        W22371  20.124  43.288  11.033
63276W        W22372   2.826   6.824   0.360
63277W        W22373   1.975  39.930  13.521
63278W        W22374  15.762  32.516  12.477
63279W        W22375  28.505  11.657   0.414
63280W        W22376   3.331  32.939  13.378
63281W        W22377  43.284  16.599   3.838
63282W        W22378  31.494  14.159  12.487
63283W        W22379   9.687  21.179  14.869
63284W        W22380  39.490  43.309  11.966
63285W        W22381   7.258   0.905   4.263
63286W        W22382  32.003  38.430  14.922
63287W        W22383  32.039  37.581   3.151
63288W        W22384  38.378  38.976  10.999
63289W        W22385  37.350  30.053   0.843
63290W        W22386   5.750  12.175   0.465
63291W        W22387  41.819  16.193   2.739
63292W        W22388  44.264  43.478  13.824
63293W        W22389  30.480  14.626   2.882
63294W        W22390   2.439  31.551   3.213
63295W        W22391  11.295   5.756   4.766
63296W        W22392  18.622  26.992   3.198
63297W        W22393  16.577  32.983   5.276
63298W        W22394  34.963  34.427  11.948
63299W        W22395   3.429   8.376  13.043
63300W        W22396  36.413  42.494  12.497
63301W        W22397  31.638  21.060   1.921
63302W        W22398   9.861  18.291   1.444
63303W        W22399  42.870   6.308  10.501
63304W        W22400  23.635   4.328  12.376
63305W        W22401  33.549  14.666   4.783
63306W        W22402   0.856   7.316   1.257
63307W        W22403   4.935  12.634  12.095
63308W        W22404  28.105  28.933   0.267
63309W        W22405  27.102  33.611   5.168
63310W        W22406   8.303  24.519   9.946
63311W        W22407  28.121  44.923   3.700
63312W        W22408  18.279  17.706  12.373
63313W        W22409   7.264   2.330   2.761
63314W        W22410  20.237  22.505  14.993
63315W        W22411  43.431   5.909  12.370
63316W        W22412  30.518  40.448   4.761
63317W        W22413  36.057  40.306   0.431
63318W        W22414  25.047  27.455   1.747
63319W        W22415  13.250   8.864  12.958
63320W        W22416  44.906   4.715  13.945
63321W        W22417   0.456  21.646   4.177
63322W        W22418  32.893  23.582   1.778
63323W        W22419  36.868  10.315  13.417
63324W        W22420  36.484  20.591   1.419
63325W        W22421   8.308  36.881   1.330
63326W        W22422  38.415   2.423  12.871
63327W        W22423  16.147  23.124   3.644
63328W        W22424  31.050  43.326  11.029
63329W        W22425  31.534   7.893   2.207
63330W        W22426  31.001  43.935   4.206
63331W        W22427  34.929  35.861   2.884
63332W        W22428  41.470   0.330   2.692
63333W        W22429   0.391   1.751  11.371
63334W        W22430  25.995  28.088   4.790
63335W        W22431   8.386  37.379  13.028
63336W        W22432   9.753  33.562   0.456
63337W        W22433   1.373  43.349  14.378
63338W        W22434  31.579   5.874  14.386
63339W        W22435  35.063  30.536   0.756
63340W        W22436  16.791   3.753   2.671
63341W        W22437  18.076   3.877   4.615
63342W        W22438  36.409   5.412  11.568
63343W        W22439  43.827  26.179   4.139
63344W        W22440  22.661  22.123   0.336
63345W        W22441  33.938  34.561  13.413
63346W        W22442  26.528  34.086   0.916
63347W        W22443  15.178  21.711  13.471
63348W        W22444  27.955  32.543   4.270
63349W        W22445  37.995  39.517   3.375
63350W        W22446  38.947  31.999  12.917
63351W        W22447  21.158  23.021   3.788
63352W        W22448   1.385  44.459   1.324
63353W        W22449  33.874  20.529  13.430
63354W        W22450  27.457  39.395  11.555
63355W        W22451  20.225   6.828   3.808
63356W        W22452  39.520   2.788  13.313
63357W        W22453  33.877   9.255  12.957
63358W        W22454  44.282   6.751   1.879
63359W        W22455   8.719  27.452   1.377
63360W        W22456  25.096  21.623  10.423
63361W        W22457  23.514  13.233   2.267
63362W        W22458  31.094   4.368   0.949
63363W        W22459   3.440  38.563   1.347
63364W        W22460  44.954   5.834   4.323
63365W        W22461  33.541   5.910  11.986
63366W        W22462  41.323  30.508  12.985
63367W        W22463  22.135  20.565  11.097
63368W        W22464  40.407  10.702  11.072
63369W        W22465   6.802  37.899  12.538
63370W        W22466  20.056  24.227  11.994
63371W        W22467  16.808   7.753   0.343
63372W        W22468  14.639  27.047  11.993
63373W        W22469  15.610  30.577   4.774
63374W        W22470  20.710  20.577  10.431
63375W        W22471   1.457  14.772   1.400
63376W        W22472  10.374  18.271   1.450
63377W        W22473  14.212  43.458  14.480
63378W        W22474   6.370  44.994   2.240
63379W        W22475  23.092   3.788   0.896
63380W        W22476   3.754   5.204   0.850
63381W        W22477   7.680  34.376   3.859
63382W        W22478  28.945  43.905   0.821
63383W        W22479  31.618  43.770   3.739
63384W        W22480  21.088  22.704  13.054
63385W        W22481  42.832  19.752  10.041
63386W        W22482  21.102  37.527   4.671
63387W        W22483   7.822  28.986  12.026
63388W        W22484   8.666  32.534  12.931
63389W        W22485  17.586  41.812  10.609
63390W        W22486  12.850  10.651   0.305
63391W        W22487   1.319  15.132  11.908
63392W        W22488  22.239   3.893  10.541
63393W        W22489  40.311   6.918   1.331
63394W        W22490   6.410   5.907  14.770
63395W        W22491  39.953  41.889  11.015
63396W        W22492  28.603  40.479  12.842
63397W        W22493  11.226   8.369   0.334
63398W        W22494  10.167  32.913   0.770
63399W        W22495  10.876  18.630   3.868
63400W        W22496  21.734  16.580   1.849
63401W        W22497  10.219  10.842   3.630
63402W        W22498  14.173   2.314   2.834
63403W        W22499  21.674  27.042  11.888
63404W        W22500   9.694  39.012   1.244
63405W        W22501  30.979  34.497  13.860
63406W        W22502  13.277  10.645   3.725
63407W        W22503  29.991  41.384   2.201
63408W        W22504  10.369  30.932   4.142
63409W        W22505  11.740   6.841  13.037
63410W        W22506  41.421  36.383   1.750
63411W        W22507  16.681  20.613   4.188
63412W        W22508  23.013  37.888   0.265
63413W        W22509  29.432  16.606  10.941
63414W        W22510  42.836  18.778   5.216
63415W        W22511  23.133  18.600  13.980
63416W        W22512   6.301  15.253  14.912
63417W        W22513  37.555  13.200   3.382
63418W        W22514   8.824  16.617  11.893
63419W        W22515   9.387  15.690   1.757
63420W        W22516  39.405  35.428  12.882
63421W        W22517  26.579  26.529  14.503
63422W        W22518   4.918  24.023  11.431
63423W        W22519  35.022   7.325   5.276
63424W        W22520   0.767  19.097  13.870
63425W        W22521  26.542  40.804   0.858
63426W        W22522   6.824  34.510   1.301
63427W        W22523  13.190   4.318  10.583
63428W        W22524  27.644   9.803  11.860
63429W        W22525  31.033  44.431   1.375
63430W        W22526  26.183  33.994   1.853
63431W        W22527  34.887   5.263   1.300
63432W        W22528  44.783   4.212  14.974
63433W        W22529  17.233  18.678  11.057
63434W        W22530  34.866  16.723   3.702
63435W        W22531   3.760  18.703  11.882
63436W        W22532  27.008  13.215  13.510
63437W        W22533  21.221  24.669   3.328
63438W        W22534  21.056  43.338  11.597
63439W        W22535  18.120  41.832   1.924
63440W        W22536  43.809   2.359  12.370
63441W        W22537  30.603  37.364   4.162
63442W        W22538  27.566  28.566   3.847
63443W        W22539  27.147  33.511   3.216
63444W        W22540  40.010   7.288  12.348
63445W        W22541  10.851  40.857   3.146
63446W        W22542  37.885  22.600  13.060
63447W        W22543  39.478  23.217  11.924
63448W        W22544  21.244  14.601  11.400
63449W        W22545  10.155  38.006  10.498
63450W        W22546  12.306   8.264   0.844
63451W        W22547   5.269  41.967   2.771
63452W        W22548  41.033  16.201  13.334
63453W        W22549   7.876   0.279   0.859
63454W        W22550  34.100  14.601  11.425
63455W        W22551  25.044  36.493   0.886
63456W        W22552  38.842   3.241  11.864
63457W        W22553   3.453  24.070  10.515
63458W        W22554  38.392  29.440   0.331
63459W        W22555  42.524   5.837  12.475
63460W        W22556   8.228   7.344   3.817
63461W        W22557   7.230  11.853   5.276
63462W        W22558   3.773  30.452  11.392
63463W        W22559  26.165  39.963   4.125
63464W        W22560  37.417  14.331  13.345
63465W        W22561  42.775  22.124  12.875
63466W        W22562  23.112  22.242   0.310
63467W        W22563  44.302  35.408  10.512
63468W        W22564  21.182  26.967   4.333
63469W        W22565  29.577  19.653   2.785
63470W        W22566   8.670  41.852   3.709
63471W        W22567  18.168  38.388  14.785
63472W        W22568   1.450  36.531  13.526
63473W        W22569  25.510   5.693   3.314
63474W        W22570  41.016  16.301   1.745
63475W        W22571   0.835  24.689  11.568
63476W        W22572  37.405  42.807   0.793
63477W        W22573  32.942  42.956   4.606
63478W        W22574  31.642   8.245   3.856
63479W        W22575  39.038   2.893  11.923
63480W        W22576  37.034   0.455   1.805
63481W        W22577  41.470  21.019   4.217
63482W        W22578   6.415  23.158   0.753
63483W        W22579   8.229  23.025   3.658
63484W        W22580  26.055  14.205  11.526
63485W        W22581  19.610  23.136   2.403
63486W        W22582   3.719   5.690   0.729
63487W        W22583  20.151   1.847   4.187
63488W        W22584  15.707   4.848   4.611
63489W        W22585   0.475  11.647   4.615
63490W        W22586  24.506  27.462   4.131
63491W        W22587   2.229  21.166  13.795
63492W        W22588   7.893  14.690   4.294
63493W        W22589  33.068  12.120   1.264
63494W        W22590  32.459  17.082   1.369
63495W        W22591  28.679   4.734  13.504
63496W        W22592  10.709  21.209   2.730
63497W        W22593  36.470   3.389   1.745
63498W        W22594  15.648  42.509  13.420
63499W        W22595  35.046  40.012   1.746
63500W        W22596  14.102   8.820   3.822
63501W        W22597  31.993  28.972   3.150
63502W        W22598  17.690  32.581  13.965
63503W        W22599  34.033  20.137  14.501
63504W        W22600  13.200   1.879   3.695
63505W        W22601  42.804  28.666  13.404
63506W        W22602   8.769  42.510   1.784
63507W        W22603  28.663  41.883  14.487
63508W        W22604  28.557  42.359   1.217
63509W        W22605  23.588  34.879   1.261
63510W        W22606  28.027  24.519  14.408
63511W        W22607  23.594  28.493   1.785
63512W        W22608  33.096   8.386   2.894
63513W        W22609  30.646  33.009   3.733
63514W        W22610  23.717  20.104   1.834
63515W        W22611  22.190   3.233  11.017
63516W        W22612  42.839  23.650  13.866
63517W        W22613   3.742   2.897  12.382
63518W        W22614  28.437  29.608  14.805
63519W        W22615   9.854  30.495   0.405
63520W        W22616  40.820  20.617   0.463
63521W        W22617  25.027  32.490   0.928
63522W        W22618   0.424   0.942  11.917
63523W        W22619  15.698  16.242   3.705
63524W        W22620  20.059   6.877  14.951
63525W        W22621  43.883  30.108  11.930
63526W        W22622  35.593  11.297  10.097
63527W        W22623  33.904  42.815   0.342
63528W        W22624  30.115   8.184  14.416
63529W        W22625   3.866   0.837  10.903
63530W        W22626  32.442  23.568   0.847
63531W        W22627  26.175  30.012   4.299
63532W        W22628   0.924  19.197  12.998
63533W        W22629   3.853   3.370   0.959
63534W        W22630  29.518  30.473   3.793
63535W        W22631   4.237   8.699  10.532
63536W        W22632  39.431  25.139  12.505
63537W        W22633   7.668  27.678  14.369
63538W        W22634  41.440  31.515   0.478
63539W        W22635  27.109  43.880  10.604
63540W        W22636  30.040  43.352  11.020
63541W        W22637   0.752  14.123  14.809
63542W        W22638  16.738  25.218  10.408
63543W        W22639  24.702   1.300   4.739
63544W        W22640  35.487  43.338   1.725
63545W        W22641  35.514  18.203   4.163
63546W        W22642   6.889  28.000  14.281
63547W        W22643  30.507   7.722  13.443
63548W        W22644  13.206  15.189  11.460
63549W        W22645  31.529  22.553  11.950
63550W        W22646   6.758   3.860   3.694
63551W        W22647  44.816  21.216   0.256
63552W        W22648   7.224   8.242   1.836
63553W        W22649  14.736  43.908   3.780
63554W        W22650  40.469  34.977  12.395
63555W        W22651   5.431   2.926  13.838
63556W        W22652   4.915  11.330  11.950
63557W        W22653  16.226  29.980  14.995
63558W        W22654  43.945   2.835  13.034
63559W        W22655  42.860  34.969  12.983
63560W        W22656  25.078   3.449  14.345
63561W        W22657   6.719  33.089   4.778
63562W        W22658  38.507   5.778  11.379
63563W        W22659  19.228   7.857   4.146
63564W        W22660   7.883  38.419   3.756
63565W        W22661  44.980  31.490   3.852
63566W        W22662   0.296   0.393  12.447
63567W        W22663  21.543  31.933  14.351
63568W        W22664  30.025  14.238   1.863
63569W        W22665  19.257  22.620  11.104
63570W        W22666  15.760  25.091  11.479
63571W        W22667  30.414  43.847   1.407
63572W        W22668  24.023  19.068   3.227
63573W        W22669   5.243  28.119   3.810
63574W        W22670  15.272  21.253   2.276
63575W        W22671  20.627  28.646   0.802
63576W        W22672  15.100  25.624   3.795
63577W        W22673   0.322   5.705  13.372
63578W        W22674   5.267  30.556   2.209
63579W        W22675  32.423   6.413  10.421
63580W        W22676  25.146  16.113  10.420
63581W        W22677  34.993  28.665  11.396
63582W        W22678  26.046  41.969  14.902
63583W        W22679   5.720  25.539  13.857
63584W        W22680  36.094  28.607  14.799
63585W        W22681  11.136  36.378  14.915
63586W        W22682  33.586   8.749  11.546
63587W        W22683  12.305  34.387  13.311
63588W        W22684  43.891  29.087   2.749
63589W        W22685   0.482  25.714  12.348
63590W        W22686  26.182   0.842  14.020
63591W        W22687   0.933  32.930  10.415
63592W        W22688  43.349   6.761   2.344
63593W        W22689  19.151  41.996   1.764
63594W        W22690  36.553   6.713  13.439
63595W        W22691  31.562  10.297  10.486
63596W        W22692   6.201  44.784  12.940
63597W        W22693   4.338   6.389   0.353
63598W        W22694  39.909   1.481   4.171
63599W        W22695   7.744  24.105   3.761
63600W        W22696   8.769  24.655   4.288
63601W        W22697   9.173  26.991   1.837
63602W        W22698   9.731  29.452   2.398
63603W        W22699  13.168  34.432   3.262
63604W        W22700  44.971  26.003  13.309
63605W        W22701  31.913  27.672   1.256
63606W        W22702  34.088  10.656  13.467
63607W        W22703  44.995  17.687   2.841
63608W        W22704  41.954  26.042  14.924
63609W        W22705  21.728  44.976  10.559
63610W        W22706  34.476  10.640   0.319
63611W        W22707  27.568   0.396   3.346
63612W        W22708  38.871   2.885  11.609
63613W        W22709  21.086  39.460   0.779
63614W        W22710  25.177   6.769   2.350
63615W        W22711   8.776  21.663  12.434
63616W        W22712  22.230  26.091   3.672
63617W        W22713  44.380  15.752  11.450
63618W        W22714  38.958  41.929  14.914
63619W        W22715  22.710  32.569  10.475
63620W        W22716  28.489  27.963   4.144
63621W        W22717  36.989  20.634  11.007
63622W        W22718   2.351  34.563  14.505
63623W        W22719   7.898  30.949  12.896
63624W        W22720  12.309   0.487   4.349
63625W        W22721  35.058   9.654  14.352
63626W        W22722  32.022  36.482  13.439
63627W        W22723   7.826  10.280   1.841
63628W        W22724  24.995  35.039   5.669
63629W        W22725   8.211  41.293   1.241
63630W        W22726   8.860   9.805   1.446
63631W        W22727  27.138  22.186  10.930
63632W        W22728  33.108   4.910  13.369
63633W        W22729   9.295  22.087  14.018
63634W        W22730  44.270  17.308   2.870
63635W        W22731  44.460  21.230  11.539
63636W        W22732  22.547  12.357  14.777
63637W        W22733  17.271  24.219   0.376
63638W        W22734  33.958   4.427  14.967
63639W        W22735  18.171  35.593  13.419
63640W        W22736  43.945  41.865  11.413
63641W        W22737   4.806  43.304  13.936
63642W        W22738  14.835   8.291  13.894
63643W        W22739  14.275   4.881   2.254
63644W        W22740   8.405  37.964  13.023
63645W        W22741  37.401  27.993   1.362
63646W        W22742   6.322  33.125   3.726
63647W        W22743   1.825  41.491  14.888
63648W        W22744  24.082  24.595   1.770
63649W        W22745   4.717  34.889  10.907
63650W        W22746  41.790  30.157  13.432
63651W        W22747  22.213  44.921   2.202
63652W        W22748  23.566  32.042   2.181
63653W        W22749  16.654  35.586  12.870
63654W        W22750  29.623  40.524   5.270
63655W        W22751  19.544  15.691  12.927
63656W        W22752  12.117  41.489   3.791
63657W        W22753  36.085  13.611   0.844
63658W        W22754  33.404  12.638   1.879
63659W        W22755  40.535  18.296   1.411
63660W        W22756  37.499  38.886   0.470
63661W        W22757  14.629   0.486   2.419
63662W        W22758  31.908  32.098  14.407
63663W        W22759   0.780  39.323  11.443
63664W        W22760  31.995  30.093  10.410
63665W        W22761  22.207  31.990  10.068
63666W        W22762  35.586  16.627  12.978
63667W        W22763  30.126   1.783  11.004
63668W        W22764  21.731  22.182   4.150
63669W        W22765  19.106  42.833   4.206
63670W        W22766   9.373  35.947   0.786
63671W        W22767  27.139  37.982   0.353
63672W        W22768  39.486   3.216   2.753
63673W        W22769  36.896  41.397   0.732
63674W        W22770  31.001  15.642   0.393
63675W        W22771  31.947  41.524  13.522
63676W        W22772  26.995   3.254  10.957
63677W        W22773  33.498  34.604   0.887
63678W        W22774  39.972  30.019  13.826
63679W        W22775  32.937  30.917   3.264
63680W        W22776  28.035  14.180   4.711
63681W        W22777  27.192   1.836  14.445
63682W        W22778  18.659  10.369  12.477
63683W        W22779  16.732  42.780  12.561
63684W        W22780  31.548   7.398  14.316
63685W        W22781  12.797  42.895   3.329
63686W        W22782  23.720  29.051   3.641
63687W        W22783  19.216  24.631   4.765
63688W        W22784  42.819  35.466   3.302
63689W        W22785   4.935  32.544   2.267
63690W        W22786  24.194  35.914  14.795
63691W        W22787  28.538  12.614   1.433
63692W        W22788  32.905  43.004  11.587
63693W        W22789   2.817  11.216  11.469
63694W        W22790  28.485  24.581  14.423
63695W        W22791  10.801  15.105   1.249
63696W        W22792  27.109  40.828  10.525
63697W        W22793   7.178  39.967  12.040
63698W        W22794   7.196   4.212  12.078
63699W        W22795  15.200  43.929   1.315
63700W        W22796  40.809   5.721   1.318
63701W        W22797  19.744  41.406   4.611
63702W        W22798  18.610  23.625   1.403
63703W        W22799   4.307  35.885   0.920
63704W        W22800  12.259  10.292   0.304
63705W        W22801  41.444  39.877  13.819
63706W        W22802  16.169  10.319  10.599
63707W        W22803  12.295  25.571  11.993
63708W        W22804  41.967  35.855   2.215
63709W        W22805  29.062  25.027  12.350
63710W        W22806  29.132  27.590  11.028
63711W        W22807  29.958  38.442   2.260
63712W        W22808   0.319  23.990   4.309
63713W        W22809   6.895   0.759   4.787
63714W        W22810  35.896   2.338  10.414
63715W        W22811  21.133  30.424  10.633
63716W        W22812  25.111  32.517   2.219
63717W        W22813   1.300   5.879   1.700
63718W        W22814  26.658  15.102   0.362
63719W        W22815  36.865   8.874  14.953
63720W        W22816  17.775  44.926  10.962
63721W        W22817  19.598  10.821   3.319
63722W        W22818  27.517  40.803  10.503
63723W        W22819  20.554  15.095   0.405
63724W        W22820   0.819  16.686  10.977
63725W        W22821  28.936  13.144   2.691
63726W        W22822   3.731  26.574   2.334
63727W        W22823  20.078   0.849   1.718
63728W        W22824  21.605  17.698   0.772
63729W        W22825  19.746  41.869  13.048
63730W        W22826  19.600  20.182   2.833
63731W        W22827  34.524   9.833   4.723
63732W        W22828  11.688  24.710   2.729
63733W        W22829  10.804  18.259   2.681
63734W        W22830   3.795   1.468   1.718
63735W        W22831  12.340   8.240  12.882
63736W        W22832  19.273  20.560  11.427
63737W        W22833  28.964  10.331   2.343
63738W        W22834  18.126  36.347   1.703
63739W        W22835  35.067  18.783   0.407
63740W        W22836  12.297  43.883  10.485
63741W        W22837   6.326  14.281  14.871
63742W        W22838  20.235  36.888  14.460
63743W        W22839  26.665  40.417   1.332
63744W        W22840  28.610  24.072   4.222
63745W        W22841  41.906  18.261   4.622
63746W        W22842  39.436  42.894  13.026
63747W        W22843  10.317  12.810   9.998
63748W        W22844  14.832  14.217  12.351
63749W        W22845  19.126   6.316   3.670
63750W        W22846  13.311  13.642   3.707
63751W        W22847  34.462  40.863   4.686
63752W        W22848  25.126  26.965   2.302
63753W        W22849  22.608  13.810   3.810
63754W        W22850  28.069  13.113  13.377
63755W        W22851  18.262   2.895  10.996
63756W        W22852  41.838  31.955   1.750
63757W        W22853  33.014  20.573   2.875
63758W        W22854  25.190   7.205   0.775
63759W        W22855  27.986  29.448  11.426
63760W        W22856  32.114  24.984  13.900
63761W        W22857  14.194  23.141  11.487
63762W        W22858  23.107  39.910   1.920
63763W        W22859  44.350  37.033   4.694
63764W        W22860  39.927  34.981   0.365
63765W        W22861  26.639  33.916  10.418
63766W        W22862  33.894  33.912   2.777
63767W        W22863   9.867  10.267   4.613
63768W        W22864   0.927   1.285  10.489
63769W        W22865   5.420  18.080   2.734
63770W        W22866  30.907  33.097   1.752
63771W        W22867   5.780  28.626   2.373
63772W        W22868  43.270   4.878   1.365
63773W        W22869  22.226  37.862  10.925
63774W        W22870   6.313  10.287  11.554
63775W        W22871  11.778   7.700  14.340
63776W        W22872  43.391  36.979   3.262
63777W        W22873  27.958  23.071  12.898
63778W        W22874  26.462   8.835  14.771
63779W        W22875  29.665  35.511   0.461
63780W        W22876  23.164  21.190   0.927
63781W        W22877  39.461  22.235   4.274
63782W        W22878  27.950  16.294  13.013
63783W        W22879  43.965   5.223   3.195
63784W        W22880  36.447  40.872  11.876
63785W        W22881  20.264  27.022  11.967
63786W        W22882  44.432  33.012  13.833
63787W        W22883  28.176   7.312   0.862
63788W        W22884  28.090  19.546   1.408
63789W        W22885   9.249   0.952  11.093
63790W        W22886   6.339  42.921   4.203
63791W        W22887  28.985  38.387   0.834
63792W        W22888   7.672  38.549   4.278
63793W        W22889  23.006  20.079  12.083
63794W        W22890  28.962  10.633   1.240
63795W        W22891   2.385  23.544   4.179
63796W        W22892  10.231  34.584  14.950
63797W        W22893  38.359  25.580  11.442
63798W        W22894  18.066  41.014   3.344
63799W        W22895   9.317  22.646  13.002
63800W        W22896  21.021   3.908  14.825
63801W        W22897  39.478  16.658   4.223
63802W        W22898   4.305  22.098   3.681
63803W        W22899   9.717  38.412  12.846
63804W        W22900  30.655  39.331  11.985
63805W        W22901  18.597  24.548  11.938
63806W        W22902  26.154  23.507   0.933
63807W        W22903  18.274  24.691   2.399
63808W        W22904  12.301  32.457  12.988
63809W        W22905  32.124  27.114  13.042
63810W        W22906  22.636  35.938   2.739
63811W        W22907  20.553  13.679  12.387
63812W        W22908  17.699  29.932   1.849
63813W        W22909  18.690  18.143  12.529
63814W        W22910  36.883  17.208  10.505
63815W        W22911  41.326   8.225   4.272
63816W        W22912  25.067   1.324   3.649
63817W        W22913  24.690  28.651   2.210
63818W        W22914  44.920  41.481   3.648
63819W        W22915  21.237  27.172  12.488
63820W        W22916  43.499   7.784   2.897
63821W        W22917  14.668  21.142  14.341
63822W        W22918   6.912  14.675   0.730
63823W        W22919  21.593   6.411   4.325
63824W        W22920  13.628   4.861  10.518
63825W        W22921   3.875  43.938   3.343
63826W        W22922   2.232  30.968   3.173
63827W        W22923  21.523   1.957   2.201
63828W        W22924   8.192  29.599  11.444
63829W        W22925  27.579  20.064   9.611
63830W        W22926  16.196   2.461   3.684
63831W        W22927  29.147  21.230   1.401
63832W        W22928   9.159   9.152  11.417
63833W        W22929  26.107  33.976   5.178
63834W        W22930  32.486  22.575  13.314
63835W        W22931   9.343  19.535  12.460
63836W        W22932  34.112  43.931   4.143
63837W        W22933  41.488  21.154  12.064
63838W        W22934  35.567   1.271  12.430
63839W        W22935  29.154  13.804  14.801
63840W        W22936   1.442   9.283  13.374
63841W        W22937  17.289  35.409  10.480
63842W        W22938  33.038  43.997   3.828
63843W        W22939  43.396  14.333   2.320
63844W        W22940  43.487  32.115   1.377
63845W        W22941  27.484   9.235  14.766
63846W        W22942  25.549  14.589   0.842
63847W        W22943  16.259  38.458   0.737
63848W        W22944  12.704  28.573  13.346
63849W        W22945  42.380  16.613   2.351
63850W        W22946  43.009  39.991   3.704
63851W        W22947  43.990  40.942   0.405
63852W        W22948  43.779   3.790   0.454
63853W        W22949  20.658  26.486  13.892
63854W        W22950  10.633  18.619   2.322
63855W        W22951  41.448  29.968  10.982
63856W        W22952  19.757  23.640   3.182
63857W        W22953  30.985   4.315   2.793
63858W        W22954  19.264  31.037   0.806
63859W        W22955  31.039  41.908   2.397
63860W        W22956  38.875  19.780  14.488
63861W        W22957  28.472  25.692  10.522
63862W        W22958  41.957   1.274  12.548
63863W        W22959  44.821  11.685  13.860
63864W        W22960  17.111   9.834  10.510
63865W        W22961  38.922   8.221  11.427
63866W        W22962  14.782   0.422  13.926
63867W        W22963   9.851  40.546   4.179
63868W        W22964   1.439   8.214  14.909
63869W        W22965  13.756   7.308   3.213
63870W        W22966  41.958   9.247  10.587
63871W        W22967  30.161  34.058   3.261
63872W        W22968  14.099   3.252  14.358
63873W        W22969   8.811  11.734   0.807
63874W        W22970  31.950  17.646  12.475
63875W        W22971  39.404  11.358   3.203
63876W        W22972  18.651   6.684  13.009
63877W        W22973  29.135  29.118   1.809
63878W        W22974  21.579  36.079   2.691
63879W        W22975  33.461   0.280  11.868
63880W        W22976   9.248  24.075   5.686
63881W        W22977   5.834  40.311   0.409
63882W        W22978  31.100  36.900  13.890
63883W        W22979  28.543  25.040  12.080
63884W        W22980   6.921  20.759  11.074
63885W        W22981   1.741  10.191  14.884
63886W        W22982  34.001   9.824   5.736
63887W        W22983  12.356  12.805  10.616
63888W        W22984  26.565  29.508  10.931
63889W        W22985  13.175  16.758   0.279
63890W        W22986  22.173  38.902   1.419
63891W        W22987  24.630   9.354  10.607
63892W        W22988  36.900   2.879  11.597
63893W        W22989  11.631  24.624   2.196
63894W        W22990   3.926  16.786  13.428
63895W        W22991  24.683  24.120   0.802
63896W        W22992  11.364  22.068  13.444
63897W        W22993  44.911  17.615   0.475
63898W        W22994  33.931  18.072   0.409
63899W        W22995   3.879   0.975  12.998
63900W        W22996  27.562  12.302   2.263
63901W        W22997  40.872  27.610  11.609
63902W        W22998  13.815  16.587  11.872
63903W        W22999  42.365  41.954   2.409
63904W        W23000  31.075  26.624   2.889
63905W        W23001   8.803   1.973  12.440
63906W        W23002  31.515  25.508   4.268
63907W        W23003   8.757  27.168  12.036
63908W        W23004  22.638  19.151   2.880
63909W        W23005  20.651  11.661   2.187
63910W        W23006   7.259  36.964  10.961
63911W        W23007   3.407  23.649   1.211
63912W        W23008  26.151  14.674  11.078
63913W        W23009  27.988  22.136  12.023
63914W        W23010  21.515  30.052  14.946
63915W        W23011  15.586   4.278   1.224
63916W        W23012  36.359  14.203  11.580
63917W        W23013   6.915  40.964  10.642
63918W        W23014  43.964  17.786   4.280
63919W        W23015   6.323  31.421  11.008
63920W        W23016   6.418  18.144   3.337
63921W        W23017  17.792  19.708  12.432
63922W        W23018  22.604  36.997   4.802
63923W        W23019  27.517  12.729  12.085
63924W        W23020  26.129  35.968   0.310
63925W        W23021  10.329  44.844   0.875
63926W        W23022  19.058  19.085   0.398
63927W        W23023   8.212  36.577  10.464
63928W        W23024  13.313   0.811  12.420
63929W        W23025  41.951  19.576  13.405
63930W        W23026  42.313  18.703   0.356
63931W        W23027  14.738  41.800  11.051
63932W        W23028  32.490  22.658  11.488
63933W        W23029   1.897   9.157   0.831
63934W        W23030  36.915   3.438  14.971
63935W        W23031  23.004  27.983  14.855
63936W        W23032  19.714   7.864  13.004
63937W        W23033  43.466  34.417   1.329
63938W        W23034   3.330  22.084  12.467
63939W        W23035  22.128   1.241   1.417
63940W        W23036  37.446  15.257  10.996
63941W        W23037  43.797  24.122  13.959
63942W        W23038   4.724  14.715  14.909
63943W        W23039  20.265   7.696   5.602
63944W        W23040  11.343  10.855  11.540
63945W        W23041  29.647  16.090   0.853
63946W        W23042  23.638  36.503  11.538
63947W        W23043  16.731  28.508  14.443
63948W        W23044  29.022  16.658  13.842
63949W        W23045  28.010   2.794  12.532
63950W        W23046  40.823  11.241   9.590
63951W        W23047  28.633  44.767  13.418
63952W        W23048   8.728  23.724   3.832
63953W        W23049  22.682  15.262  11.044
63954W        W23050  36.017  16.629   1.366
63955W        W23051  31.510  13.818  12.920
63956W        W23052  26.606  22.202   0.800
63957W        W23053  13.317  35.404   1.873
63958W        W23054  34.500  36.581  11.042
63959W        W23055  33.118  12.782  13.040
63960W        W23056  39.399  32.085   1.320
63961W        W23057  12.129   5.817   0.464
63962W        W23058  37.570   3.784   4.796
63963W        W23059  33.979  43.937   3.807
63964W        W23060  22.174  25.528   1.273
63965W        W23061   5.261  33.404  14.842
63966W        W23062  19.110  34.435  14.301
63967W        W23063   3.919  12.764   4.688
63968W        W23064  19.211   6.256  12.073
63969W        W23065  14.799  15.620   4.169
63970W        W23066   9.837  27.472   0.433
63971W        W23067  41.802  23.618   4.739
63972W        W23068   6.266  14.599  12.983
63973W        W23069  41.974  19.568   5.126
63974W        W23070  19.632  15.616  14.321
63975W        W23071  18.175  17.563  11.925
63976W        W23072  25.028  20.055   3.669
63977W        W23073  40.385  24.135  13.996
63978W        W23074  11.828  38.416  11.115
63979W        W23075  22.176  18.723  14.404
63980W        W23076  30.474  35.875   3.260
63981W        W23077  43.980  25.554  10.951
63982W        W23078  26.086  44.909  11.016
63983W        W23079  30.529  10.664  12.427
63984W        W23080  34.947  23.162   3.815
63985W        W23081  31.600  11.751   1.910
63986W        W23082   3.757  18.599   2.197
63987W        W23083  27.499   3.882   2.730
63988W        W23084  44.815  21.756  14.478
63989W        W23085  17.751  27.551  13.473
63990W        W23086  40.482  32.571   4.323
63991W        W23087   4.925  30.512   0.767
63992W        W23088   1.476  42.982   2.869
63993W        W23089   5.693   3.284   4.752
63994W        W23090  42.521   6.206  11.925
63995W        W23091  24.030  16.157   0.742
63996W        W23092   4.795  30.011  13.503
63997W        W23093  40.306  17.768   3.227
63998W        W23094  12.309   4.322  14.985
63999W        W23095  40.006  38.347   4.771
64000W        W23096  38.036   8.819  12.435
64001W        W23097  32.429  41.363  11.990
64002W        W23098  15.088  15.797  12.444
64003W        W23099  42.817  44.845  12.471
64004W        W23100  28.604  19.215  13.430
64005W        W23101  36.915  26.490   4.750
64006W        W23102  30.938  12.728   0.807
64007W        W23103  13.825   3.943   0.896
64008W        W23104  32.035  11.755   0.315
64009W        W23105   0.770  39.502  14.925
64010W        W23106  36.066  17.675  10.935
64011W        W23107   3.431  16.142   3.646
64012W        W23108  12.828   0.491   0.439
64013W        W23109  38.925   9.817  12.032
64014W        W23110  20.585  13.280  11.065
64015W        W23111  17.581   8.781  12.374
64016W        W23112  33.000   7.868   0.464
64017W        W23113  12.216  39.027  13.380
64018W        W23114   9.246  29.478   5.263
64019W        W23115   8.329  34.101   0.462
64020W        W23116  44.421  22.177  13.812
64021W        W23117   4.886   5.304   1.419
64022W        W23118   1.451   6.337  10.421
64023W        W23119  29.461  15.681   1.311
64024W        W23120  16.624  33.432  12.565
64025W        W23121  23.048  38.331   0.906
64026W        W23122  32.514  24.011  14.395
64027W        W23123   5.300  44.439   3.823
64028W        W23124  16.230   5.340   1.840
64029W        W23125  28.445   6.767   3.867
64030W        W23126  31.642  31.453   3.271
64031W        W23127   3.277  25.093   3.793
64032W        W23128  30.544  14.193  14.285
64033W        W23129  40.857  22.061   4.615
64034W        W23130  13.166  33.488  13.476
64035W        W23131  44.814  11.346   4.301
64036W        W23132   3.307   8.783   0.377
64037W        W23133  35.455  26.525   0.478
64038W        W23134   2.912  28.479  10.462
64039W        W23135  22.111  34.895   4.760
64040W        W23136   2.234   3.902   0.448
64041W        W23137  37.480  33.442  10.514
64042W        W23138  15.090  24.506   1.404
64043W        W23139  24.493  14.301   2.716
64044W        W23140  38.899   9.340  14.767
64045W        W23141  40.416  19.666  11.992
64046W        W23142  32.023  25.186  12.838
64047W        W23143  38.465  34.926   2.716
64048W        W23144  28.535  13.171  10.431
64049W        W23145  33.010  37.476  14.923
64050W        W23146  13.245   0.779   1.862
64051W        W23147  22.181   7.215   0.415
64052W        W23148   5.729   3.459  12.026
64053W        W23149   1.462  37.391   1.859
64054W        W23150  16.727  13.105   1.383
64055W        W23151   0.871  22.682  12.349
64056W        W23152   7.856   8.232  12.007
64057W        W23153   4.861  35.009  13.492
64058W        W23154  29.465  26.639   3.269
64059W        W23155  26.094  42.346  14.022
64060W        W23156  27.659  35.382  10.143
64061W        W23157  23.994  11.130   3.262
64062W        W23158  25.468  11.773  12.847
64063W        W23159  22.227  36.407  10.994
64064W        W23160  31.496  44.463  14.289
64065W        W23161   6.320  22.504   3.313
64066W        W23162  11.657  10.284   5.207
64067W        W23163   4.741   6.354   3.657
64068W        W23164  26.982   3.785  11.414
64069W        W23165  19.192   6.831  12.038
64070W        W23166  24.980  24.094   2.299
64071W        W23167   9.879  35.949  12.850
64072W        W23168   6.727  12.186   2.403
64073W        W23169   9.801  39.817  12.858
64074W        W23170  18.588   3.398   1.403
64075W        W23171   5.725   5.194   4.143
64076W        W23172  15.754  37.446   1.264
64077W        W23173  18.568   2.366  12.474
64078W        W23174  28.512  26.582   2.226
64079W        W23175  31.919  42.835   2.406
64080W        W23176   8.873  27.498   0.372
64081W        W23177  21.722  39.878   3.840
64082W        W23178   4.445  40.873  11.578
64083W        W23179  10.255  40.896   2.699
64084W        W23180  44.855  21.205  11.895
64085W        W23181  36.907   4.937  13.356
64086W        W23182  22.079   9.829   2.798
64087W        W23183  29.601  23.013  11.402
64088W        W23184  30.482  43.823  13.498
64089W        W23185  33.404  43.285   2.738
64090W        W23186  21.743  18.604  10.576
64091W        W23187   9.855  19.723  14.417
64092W        W23188  32.062   8.289  13.950
64093W        W23189  13.739  29.031  13.481
64094W        W23190  13.691  23.573   2.297
64095W        W23191   2.775  36.932   2.181
64096W        W23192   6.239   7.337   3.165
64097W        W23193  33.978  11.228   1.441
64098W        W23194  27.686  21.529  10.451
64099W        W23195  30.153  42.792  12.015
64100W        W23196  17.575  39.541   4.670
64101W        W23197  14.828  31.022   4.828
64102W        W23198  10.227   3.314   4.269
64103W        W23199   1.790  16.266  12.542
64104W        W23200   6.283  24.141   4.703
64105W        W23201  20.703   1.773   2.831
64106W        W23202  12.744  18.759   1.701
64107W        W23203  31.095   9.381   3.795
64108W        W23204  18.164  32.568   2.263
64109W        W23205  16.779  23.043   1.282
64110W        W23206  36.519  30.930  13.861
64111W        W23207  11.759  18.214   3.752
64112W        W23208  18.290  17.696   4.734
64113W        W23209  40.354  41.479   1.847
64114W        W23210  15.097  18.143   1.877
64115W        W23211  11.753  44.762  14.957
64116W        W23212   9.692   9.698  12.547
64117W        W23213  22.200  44.388  12.479
64118W        W23214  20.725  35.557   1.887
64119W        W23215  11.205   2.873  12.487
64120W        W23216  29.035   3.933  13.919
64121W        W23217  30.145  15.688  14.445
64122W        W23218  15.580   1.746   3.806
64123W        W23219  28.443  37.394   3.188
64124W        W23220   3.848  42.872  12.530
64125W        W23221  30.599  37.377  12.033
64126W        W23222  34.991  14.661   0.856
64127W        W23223  18.766  19.542  11.404
64128W        W23224  20.578  43.019  14.451
64129W        W23225   9.835  14.104  14.494
64130W        W23226  18.232  15.165   4.698
64131W        W23227  36.577  30.044   3.752
64132W        W23228  15.788  18.566  12.529
64133W        W23229   7.355  39.453  10.498
64134W        W23230  27.658  31.645  11.028
64135W        W23231  41.875  25.075  13.483
64136W        W23232  10.785   4.405   4.672
64137W        W23233  22.024  44.937  11.398
64138W        W23234  29.122   4.721  10.639
64139W        W23235  13.699  39.494   0.312
64140W        W23236  14.742  20.246   0.308
64141W        W23237  34.409  32.887   2.228
64142W        W23238  40.887  25.556  11.121
64143W        W23239  26.519  20.146   0.303
64144W        W23240  34.603  33.933   0.462
64145W        W23241  12.685  16.710  11.877
64146W        W23242  15.242  16.574   4.810
64147W        W23243  21.181   6.337  14.283
64148W        W23244  18.606   5.866  11.484
64149W        W23245   1.819   5.218  11.553
64150W        W23246  25.095  44.779   0.822
64151W        W23247  15.812  11.218  14.969
64152W        W23248  12.791  12.697   1.769
64153W        W23249  20.175  30.513   0.412
64154W        W23250  36.009  10.640   1.247
64155W        W23251  18.588   5.714  11.964
64156W        W23252   7.200   0.841   2.742
64157W        W23253  34.380  22.059  14.970
64158W        W23254  32.474  18.775  13.966
64159W        W23255  21.511  34.102   2.283
64160W        W23256  19.191   1.341   0.461
64161W        W23257  28.642  33.433   1.715
64162W        W23258  41.932  14.219   2.884
64163W        W23259  44.989  16.569   4.114
64164W        W23260   7.858  14.812   2.825
64165W        W23261  42.016  37.466  11.109
64166W        W23262  23.506  33.127  14.378
64167W        W23263  22.060  28.123  14.449
64168W        W23264  23.045   7.233   3.717
64169W        W23265  43.372  38.900   4.794
64170W        W23266  31.987  33.625   2.838
64171W        W23267  15.157  18.607   4.177
64172W        W23268  36.913  34.036   1.366
64173W        W23269   2.449   0.877  11.920
64174W        W23270  31.530  13.279   2.208
64175W        W23271  12.275   1.469  10.624
64176W        W23272  25.976  16.272  11.539
64177W        W23273   8.188  42.993   0.243
64178W        W23274  21.149  28.622   2.704
64179W        W23275   3.240  19.550  10.963
64180W        W23276   9.670  31.472   5.586
64181W        W23277  23.075  37.073   0.430
64182W        W23278   2.822   6.220  11.942
64183W        W23279  22.591   5.261  13.411
64184W        W23280   6.253  32.103  10.961
64185W        W23281  42.812   2.859  13.921
64186W        W23282  22.233  40.046  11.383
64187W        W23283  38.003   9.307   1.907
64188W        W23284  33.913  24.996  10.469
64189W        W23285   6.382  29.166   1.810
64190W        W23286  31.141  36.059  14.336
64191W        W23287   7.670  34.909   3.208
64192W        W23288  24.654  31.535  13.489
64193W        W23289  20.245  43.924  13.349
64194W        W23290   2.956   7.775   2.254
64195W        W23291  34.598  28.959   3.758
64196W        W23292  41.978  27.946   4.722
64197W        W23293  22.656  25.690  13.445
64198W        W23294  30.614  42.024  10.476
64199W        W23295  15.143  11.142   2.716
64200W        W23296  38.562  33.885   3.322
64201W        W23297  11.345   2.819   2.877
64202W        W23298  32.983  13.722   4.158
64203W        W23299  38.532   1.883  10.997
64204W        W23300  23.049  26.112  12.007
64205W        W23301   6.388   7.185  12.996
64206W        W23302  37.409   8.852  10.606
64207W        W23303  32.428  17.699  12.433
64208W        W23304  44.932  43.308   4.342
64209W        W23305  19.614  44.834  11.506
64210W        W23306  13.602  40.885   2.821
64211W        W23307  26.162   6.721   0.441
64212W        W23308   4.878   4.926   3.221
64213W        W23309   4.824  43.896   1.228
64214W        W23310  23.030  27.116   1.919
64215W        W23311   1.765  19.147  12.346
64216W        W23312  14.326  42.894  14.922
64217W        W23313  10.171  31.584   0.755
64218W        W23314  39.486  21.595   1.811
64219W        W23315  30.968  28.490   1.422
64220W        W23316   7.741  42.336  14.809
64221W        W23317  37.914  18.664  14.761
64222W        W23318  24.532  39.923   0.279
64223W        W23319  10.818  25.617  10.925
64224W        W23320   6.228   7.271   5.297
64225W        W23321  22.056   0.763   4.265
64226W        W23322  17.204  30.454   2.765
64227W        W23323  36.007   6.279  14.345
64228W        W23324  19.079  18.565   2.699
64229W        W23325  13.689  38.828   3.759
64230W        W23326  27.523  16.102   1.794
64231W        W23327  24.720   2.785   2.685
64232W        W23328   7.885  12.287   1.773
64233W        W23329  42.327  34.102  12.493
64234W        W23330   6.322  29.504   0.342
64235W        W23331  21.534  40.049  14.959
64236W        W23332   1.937  13.262  11.938
64237W        W23333   3.857  32.437  13.543
64238W        W23334  42.496  42.022   1.231
64239W        W23335  26.152  33.112  12.025
64240W        W23336  23.528  32.042   4.647
64241W        W23337  11.284  34.579  14.359
64242W        W23338  30.053  35.413  11.014
64243W        W23339  38.951  42.350  13.544
64244W        W23340  29.009  15.616  11.579
64245W        W23341  37.418  26.568  10.942
64246W        W23342  44.856   6.683  14.305
64247W        W23343  13.224  41.034   1.811
64248W        W23344  22.610   5.312   2.285
64249W        W23345  18.758  38.406   2.186
64250W        W23346  41.820  29.959  13.948
64251W        W23347  37.025   1.816   2.267
64252W        W23348  36.049   0.837   1.356
64253W        W23349   1.809  44.358  14.346
64254W        W23350  12.167  12.122   1.233
64255W        W23351  32.632  16.262   3.245
64256W        W23352   6.907  44.851   3.700
64257W        W23353  18.141  40.935   0.958
64258W        W23354  37.364  15.633  13.797
64259W        W23355   2.266  14.769   4.166
64260W        W23356   2.341  35.500  13.857
64261W        W23357  23.044  35.375   2.214
64262W        W23358  18.772   5.229   3.745
64263W        W23359  18.741  29.455   2.825
64264W        W23360   5.226   1.897  11.076
64265W        W23361  36.452  34.049  10.616
64266W        W23362  40.355   9.156   0.959
64267W        W23363   7.688   0.904   2.248
64268W        W23364  14.702  31.609   1.827
64269W        W23365  22.161  19.042   0.941
64270W        W23366  10.861  35.489  10.413
64271W        W23367  25.497  28.016   0.444
64272W        W23368   7.862  30.581  14.013
64273W        W23369  36.551  35.941   0.898
64274W        W23370  22.551  43.332   0.458
64275W        W23371  35.454  10.694   2.886
64276W        W23372  42.862  33.937  12.457
64277W        W23373  25.149   8.228   3.753
64278W        W23374  42.365   9.763  11.445
64279W        W23375  44.799  31.633   2.342
64280W        W23376  32.477  19.561  12.888
64281W        W23377  39.512   2.448  13.491
64282W        W23378  26.178   4.344  10.537
64283W        W23379  36.935  20.653  12.074
64284W        W23380  40.909  36.970   2.201
64285W        W23381  25.703  31.508  12.930
64286W        W23382  43.423  36.906  14.491
64287W        W23383  36.508  24.649   0.457
64288W        W23384  27.459  23.163   5.689
64289W        W23385  37.997  15.155   2.407
64290W        W23386  27.177   9.333  12.891
64291W        W23387  17.744  41.008   3.246
64292W        W23388  43.839  38.055   2.677
64293W        W23389  23.160  10.703  10.558
64294W        W23390  34.462  10.692   3.279
64295W        W23391  16.282  32.117  13.483
64296W        W23392   3.441   6.721   3.687
64297W        W23393  32.501  31.555  11.430
64298W        W23394   1.933  18.714   3.370
64299W        W23395  15.804  13.692  14.829
64300W        W23396  29.480  26.081   9.561
64301W        W23397   9.678  15.224   0.912
64302W        W23398  21.658  13.698  10.471
64303W        W23399  28.593  11.656   3.204
64304W        W23400  13.691  31.584  14.285
64305W        W23401  11.322  30.928   2.819
64306W        W23402  35.999   8.801   1.739
64307W        W23403   9.350  41.391   2.290
64308W        W23404   8.695   3.751  13.859
64309W        W23405   6.216  11.769   3.296
64310W        W23406   0.946  40.053  13.360
64311W        W23407  21.203  14.730   0.747
64312W        W23408  26.049  30.419  14.401
64313W        W23409  42.780  16.182   1.792
64314W        W23410  12.341  35.882   0.342
64315W        W23411  26.676   0.797   1.735
64316W        W23412  42.525  28.501   3.274
64317W        W23413  24.211  17.301   3.242
64318W        W23414  35.474  23.516  14.383
64319W        W23415  38.874   9.202  14.385
64320W        W23416  33.010  11.285  12.506
64321W        W23417  32.078  29.958  11.123
64322W        W23418  38.443  23.157  10.954
64323W        W23419  33.101  37.890  12.878
64324W        W23420  36.576  27.174   4.283
64325W        W23421  24.668  32.631   4.303
64326W        W23422  23.109  43.283  12.068
64327W        W23423   7.381  16.689  11.092
64328W        W23424  35.459   5.290  14.776
64329W        W23425  13.119  18.151   3.315
64330W        W23426  37.402   4.795  11.434
64331W        W23427  14.241  26.071   2.856
64332W        W23428  11.786  23.523   2.417
64333W        W23429  27.962  25.997  14.454
64334W        W23430  13.761  43.773   3.249
64335W        W23431   3.389  32.558   4.698
64336W        W23432  31.612   5.848   2.886
64337W        W23433   7.810  15.739   4.256
64338W        W23434  26.478  20.563  13.449
64339W        W23435  38.324  30.477   0.869
64340W        W23436  20.751  11.738  11.504
64341W        W23437  31.047  13.738  12.962
64342W        W23438  37.885  10.226  11.080
64343W        W23439  30.424  40.987   0.769
64344W        W23440  35.874  11.709   0.754
64345W        W23441  16.782   7.273   4.201
64346W        W23442  20.701  20.249  12.925
64347W        W23443  33.411  15.792  14.867
64348W        W23444  37.376   1.881  14.996
64349W        W23445  31.504  17.224   2.301
64350W        W23446  20.649   0.935  10.442
64351W        W23447  15.780  19.696  13.385
64352W        W23448   7.873   3.885  11.483
64353W        W23449  24.008  17.209   4.722
64354W        W23450  42.414  18.562   2.349
64355W        W23451  19.064  20.101  14.467
64356W        W23452   9.347  28.071   2.673
64357W        W23453  18.249   0.774   2.309
64358W        W23454  33.553   0.469  12.348
64359W        W23455   2.780  17.716  10.544
64360W        W23456  38.068  34.025   3.868
64361W        W23457  16.806  35.426   4.610
64362W        W23458   7.376   7.184   0.805
64363W        W23459  38.409  44.276   0.381
64364W        W23460  11.319  13.642  11.906
64365W        W23461  24.209   2.794   3.261
64366W        W23462  34.982  38.483   2.325
64367W        W23463  32.410  40.434   1.759
64368W        W23464  36.902  18.723   2.754
64369W        W23465  26.646  10.353  12.899
64370W        W23466  14.144  32.497  14.902
64371W        W23467  26.642  32.581   4.247
64372W        W23468  30.413  15.089   4.714
64373W        W23469  43.438  20.696   2.181
64374W        W23470  24.051  16.217  12.884
64375W        W23471  42.300  32.405  10.488
64376W        W23472  37.414  35.478   2.823
64377W        W23473   9.179  44.865  11.479
64378W        W23474  15.144   8.665  13.437
64379W        W23475  14.690  24.187   2.340
64380W        W23476  31.078  26.013  14.393
64381W        W23477   9.375   2.289   0.835
64382W        W23478   6.898   9.220  11.058
64383W        W23479  14.270  27.973   2.406
64384W        W23480  32.466  11.325  14.818
64385W        W23481  36.859  21.233  13.895
64386W        W23482  31.608  16.298  13.500
64387W        W23483  11.826  21.187  13.931
64388W        W23484  34.401   6.736  13.998
64389W        W23485  12.255   3.897   1.717
64390W        W23486  27.071  37.930   1.375
64391W        W23487  23.166  14.144  13.506
64392W        W23488  10.847   7.417   2.668
64393W        W23489  40.869  10.719   9.961
64394W        W23490  32.062  21.178  14.313
64395W        W23491  10.650  33.564   5.265
64396W        W23492  14.663  31.498   3.301
64397W        W23493  22.669  34.505  14.023
64398W        W23494  21.580   4.371   3.190
64399W        W23495  33.879   8.875   0.736
64400W        W23496  14.756  15.326   1.383
64401W        W23497   7.239  22.634  11.396
64402W        W23498  26.599   5.215   3.206
64403W        W23499  32.936   8.280   2.413
64404W        W23500  36.570   2.281  11.116
64405W        W23501   9.665  23.083  14.286
64406W        W23502  30.991  13.786   3.278
64407W        W23503  43.439  28.578   1.903
64408W        W23504   1.794  22.219   0.766
64409W        W23505  23.127   9.221   3.306
64410W        W23506  20.597  28.567  13.357
64411W        W23507  26.608  17.687   2.184
64412W        W23508  44.855  28.636   4.223
64413W        W23509  16.141  10.344   1.697
64414W        W23510  19.742  26.605  11.392
64415W        W23511   6.217  30.457   0.904
64416W        W23512   0.868  15.695  12.036
64417W        W23513   5.380  11.767  11.907
64418W        W23514  28.144   6.737  14.480
64419W        W23515  12.154  24.699  11.584
64420W        W23516  13.666  35.073   1.375
64421W        W23517  16.746  16.175  10.546
64422W        W23518  32.506  23.603   0.294
64423W        W23519   7.837  18.590  12.473
64424W        W23520   1.462   0.907  14.781
64425W        W23521  31.611  10.692  10.425
64426W        W23522   5.379  23.690   1.372
64427W        W23523  26.128  14.725  14.516
64428W        W23524  36.975  18.715   4.795
64429W        W23525  35.882  15.585   3.688
64430W        W23526  20.029  42.817  13.371
64431W        W23527  27.646  17.597   0.849
64432W        W23528  34.518  18.760  12.826
64433W        W23529  26.149   7.739  12.398
64434W        W23530   9.181  18.075  12.367
64435W        W23531  34.518   5.801  14.478
64436W        W23532   6.404   2.273  10.618
64437W        W23533  16.569  17.637  13.905
64438W        W23534  38.957  28.977   4.629
64439W        W23535   6.273  33.447   4.282
64440W        W23536  21.614  18.738  12.882
64441W        W23537  44.339  37.046  10.044
64442W        W23538   9.706   5.289   0.822
64443W        W23539   2.801   3.810   2.755
64444W        W23540  30.990  28.182  12.069
64445W        W23541   4.241  14.804  14.866
64446W        W23542  13.229  17.659   2.732
64447W        W23543  34.447   8.276   1.247
64448W        W23544  33.077  39.908  14.364
64449W        W23545  40.468  28.025  14.919
64450W        W23546  14.617  38.030   2.330
64451W        W23547  18.280  20.208  11.914
64452W        W23548  25.547  44.812  10.560
64453W        W23549  18.276  22.684  11.391
64454W        W23550  27.544  12.246   2.789
64455W        W23551   4.424  21.712   1.854
64456W        W23552  18.606  14.700   4.258
64457W        W23553  22.629   2.247   4.665
64458W        W23554  18.258  37.531  12.452
64459W        W23555  44.453  32.404   4.823
64460W        W23556  17.773  26.662   0.328
64461W        W23557  44.401  38.982  13.323
64462W        W23558  32.637  15.291   4.837
64463W        W23559  14.657  22.561   2.832
64464W        W23560   4.698  10.727  14.973
64465W        W23561  15.286  37.413   4.119
64466W        W23562  43.436   2.867   0.421
64467W        W23563   5.723  28.025  13.857
64468W        W23564  17.194  38.435  11.524
64469W        W23565  33.124  32.120   1.838
64470W        W23566  38.878  26.543   0.920
64471W        W23567  30.153  25.174   3.193
64472W        W23568  42.881  42.850   2.393
64473W        W23569  15.747   4.839   1.773
64474W        W23570  33.482  27.074   3.256
64475W        W23571   5.794  33.894   2.736
64476W        W23572  34.609  39.059  13.491
64477W        W23573   0.266  19.589   0.905
64478W        W23574  15.635  27.562   2.841
64479W        W23575  20.035  41.402  14.864
64480W        W23576  18.292  13.626   3.812
64481W        W23577  18.083  41.375   1.402
64482W        W23578  12.654  13.233  10.568
64483W        W23579  21.021  14.133   0.791
64484W        W23580  23.500  17.264  12.881
64485W        W23581  24.021  27.965   4.645
64486W        W23582  37.972  18.165   5.163
64487W        W23583  14.718   4.939  12.063
64488W        W23584   9.697  39.026   4.258
64489W        W23585  20.721   5.840   2.220
64490W        W23586  26.143  10.853  10.888
64491W        W23587  19.715  34.559  12.380
64492W        W23588  44.778  22.213  10.631
64493W        W23589  22.047  32.612  13.366
64494W        W23590   8.286  19.677   2.208
64495W        W23591  31.112   3.791   1.914
64496W        W23592  31.606  40.447   0.860
64497W        W23593  33.481  39.005  10.630
64498W        W23594  41.951  25.496   4.156
64499W        W23595  10.178  11.713  14.841
64500W        W23596  30.506   0.968  12.839
64501W        W23597  25.478  28.515  14.925
64502W        W23598   2.338  30.932   3.803
64503W        W23599   3.749   6.355   2.234
64504W        W23600  39.405  15.753   1.414
64505W        W23601  44.328   5.788  12.425
64506W        W23602  12.732  32.988   2.352
64507W        W23603  35.040  15.263  10.455
64508W        W23604  37.019  10.818  13.334
64509W        W23605   4.773  12.721  13.544
64510W        W23606   8.197  35.874  12.504
64511W        W23607   1.733   1.399   2.350
64512W        W23608   5.696  34.590  10.487
64513W        W23609  16.168  17.564   0.447
64514W        W23610  37.363  31.997   2.291
64515W        W23611  20.688  30.545  14.807
64516W        W23612  39.855  31.607  12.419
64517W        W23613  37.494   5.290  11.923
64518W        W23614  15.615  19.636  13.944
64519W        W23615  15.247  10.793   1.229
64520W        W23616  27.106   5.898  11.987
64521W        W23617   2.331  35.862  12.872
64522W        W23618   3.261  10.179   1.294
64523W        W23619  33.886   5.228  13.429
64524W        W23620   0.821   3.324   1.784
64525W        W23621   5.792   1.755   0.351
64526W        W23622   3.413  25.511   1.404
64527W        W23623  16.262   1.362  10.574
64528W        W23624   5.929   4.710   0.782
64529W        W23625   8.732  27.485  13.868
64530W        W23626  19.700  42.932  12.489
64531W        W23627  41.957   4.711   3.201
64532W        W23628  19.585  28.066  11.471
64533W        W23629  44.401  22.560  14.395
64534W        W23630  16.572  29.108  11.487
64535W        W23631  25.191   9.851  12.882
64536W        W23632  35.373  31.635   0.830
64537W        W23633  35.108  11.172  12.048
64538W        W23634  15.246  32.457  14.927
64539W        W23635  41.344  35.600   3.385
64540W        W23636  21.063  29.158   1.701
64541W        W23637  15.785   1.910  14.969
64542W        W23638   9.645  44.930  11.517
64543W        W23639  22.047  22.503  12.952
64544W        W23640  29.540  29.515   2.847
64545W        W23641  32.518  22.013  13.792
64546W        W23642   7.189   9.342   4.314
64547W        W23643  44.325   9.852   9.963
64548W        W23644  32.891  40.480   4.204
64549W        W23645  15.145  34.386   0.942
64550W        W23646  39.521   3.822   0.270
64551W        W23647  40.465  28.581   2.384
64552W        W23648  42.924  27.525  14.294
64553W        W23649   7.347  24.978   0.299
64554W        W23650  26.130   9.853   1.908
64555W        W23651   7.284  26.121   0.935
64556W        W23652   7.762  14.250  13.531
64557W        W23653  10.650  19.622   1.356
64558W        W23654   7.760  34.435  14.770
64559W        W23655  22.607  23.228   2.263
64560W        W23656  23.228  41.293   0.450
64561W        W23657  15.268  35.598   2.205
64562W        W23658   3.332  35.515  11.506
64563W        W23659  36.945  40.976  11.606
64564W        W23660  13.291  23.215   2.864
64565W        W23661   8.336  42.813   4.267
64566W        W23662  38.409  16.678  11.920
64567W        W23663  15.105   9.767   4.644
64568W        W23664   7.817  14.780  11.607
64569W        W23665  15.313  26.616   1.858
64570W        W23666  36.350  42.847   3.236
64571W        W23667  27.462   3.407   3.640
64572W        W23668   3.437  35.007   4.277
64573W        W23669  34.430  30.946   2.412
64574W        W23670  38.063  25.696   3.228
64575W        W23671  17.132   3.342  14.493
64576W        W23672  28.145   1.886   5.203
64577W        W23673  35.914  12.327  14.813
64578W        W23674  10.221  40.449   4.175
64579W        W23675   1.429  27.194  12.489
64580W        W23676  26.195  43.885   1.884
64581W        W23677  14.332  12.794   3.816
64582W        W23678   7.818  39.433  11.913
64583W        W23679  34.969   9.196   0.465
64584W        W23680  40.529  37.577  14.929
64585W        W23681  35.598   7.227  13.011
64586W        W23682  23.520  11.822   1.764
64587W        W23683  35.451  35.493   2.669
64588W        W23684   8.318  13.245   0.425
64589W        W23685  15.289  20.206  11.448
64590W        W23686  39.949  36.006   4.692
64591W        W23687  20.143   7.761   2.233
64592W        W23688   6.372   7.711  14.476
64593W        W23689  38.014  17.143   9.999
64594W        W23690   8.832  43.456  12.482
64595W        W23691  43.401  39.466   1.917
64596W        W23692  21.550   2.463  10.487
64597W        W23693  28.939  22.205  12.011
64598W        W23694  33.976  20.185  11.891
64599W        W23695  35.569  15.166  10.981
64600W        W23696  23.611   6.782  12.481
64601W        W23697  23.082  26.558  12.070
64602W        W23698  38.872  43.999   3.858
64603W        W23699  27.019  26.660   2.180
64604W        W23700  28.054  31.541   0.404
64605W        W23701  30.918   6.402   4.766
64606W        W23702   5.865  13.132  11.420
64607W        W23703  33.081  13.289  10.498
64608W        W23704   4.796  21.039   1.801
64609W        W23705  40.342  38.031   0.375
64610W        W23706  33.479   8.354   0.946
64611W        W23707  32.506  23.985  14.989
64612W        W23708   8.274  34.530  14.766
64613W        W23709  22.650  27.951   0.810
64614W        W23710   5.431  37.461   5.312
64615W        W23711   4.354   8.798   4.279
64616W        W23712  18.212  16.111  13.826
64617W        W23713   7.194  40.984  14.494
64618W        W23714  28.523  36.958   2.343
64619W        W23715   6.681  27.610   3.823
64620W        W23716  42.299  12.695  11.593
64621W        W23717  27.037  42.015   0.417
64622W        W23718  15.695  25.672   4.759
64623W        W23719   8.727  17.558   1.831
64624W        W23720  27.644   4.399  11.374
64625W        W23721   1.972  12.165   3.734
64626W        W23722  33.576  22.022  13.806
64627W        W23723   4.849  15.582   2.412
64628W        W23724   8.656  38.043   3.693
64629W        W23725  35.497   5.919  11.526
64630W        W23726   2.352  23.116  13.469
64631W        W23727   9.681  11.289  12.082
64632W        W23728   2.249  41.836  12.363
64633W        W23729  15.216  19.227  13.510
64634W        W23730  38.944   8.237   0.766
64635W        W23731  37.040  35.879  14.907
64636W        W23732  19.578  21.667   1.341
64637W        W23733  24.599   8.878  12.968
64638W        W23734  30.448   0.809   4.642
64639W        W23735  13.345  22.574   1.697
64640W        W23736   1.250  38.569   0.421
64641W        W23737  17.715  39.467   5.612
64642W        W23738  34.969   6.877  14.408
64643W        W23739  30.420  19.549  12.894
64644W        W23740   3.363  39.468   4.758
64645W        W23741  36.534  26.126   4.729
64646W        W23742  23.132   4.325  10.530
64647W        W23743  20.653   8.273  14.797
64648W        W23744  23.514  28.158   2.712
64649W        W23745   2.866   8.278   0.391
64650W        W23746  20.031  39.359  11.929
64651W        W23747  36.041  14.116  14.876
64652W        W23748   5.817  25.507   3.786
64653W        W23749  19.054  37.836   0.850
64654W        W23750  14.324  26.013   2.274
64655W        W23751  13.138  42.965   3.257
64656W        W23752  22.180  16.162  10.505
64657W        W23753   7.350   4.881   0.848
64658W        W23754  14.788  26.135   0.806
64659W        W23755  25.507  27.119   3.315
64660W        W23756   9.677  27.069  11.039
64661W        W23757   0.312  15.300  13.376
64662W        W23758  32.959   4.321  13.041
64663W        W23759  20.100  13.235  12.958
64664W        W23760  10.191  15.822  13.052
64665W        W23761  38.876  11.271   1.758
64666W        W23762  40.023  10.256  12.915
64667W        W23763  40.928   7.380   4.813
64668W        W23764  14.270  40.969   2.781
64669W        W23765   4.913  35.969   2.845
64670W        W23766   5.290  31.136   1.768
64671W        W23767  33.099  20.075  12.374
64672W        W23768  23.568  43.995  14.953
64673W        W23769  40.377  37.577  11.399
64674W        W23770  11.733  39.903   1.263
64675W        W23771  24.703  17.133  11.965
64676W        W23772  39.394   4.862   4.707
64677W        W23773  24.672  34.012  10.632
64678W        W23774   7.174  41.866  12.921
64679W        W23775   2.909  21.603   4.767
64680W        W23776  31.972   7.344   1.873
64681W        W23777  18.175  12.755  14.497
64682W        W23778  20.689  11.271   0.333
64683W        W23779   8.301   5.427  12.038
64684W        W23780  23.498   2.792  14.800
64685W        W23781  27.552  26.130   4.698
64686W        W23782   3.908  13.733   0.901
64687W        W23783  13.764  32.483  10.915
64688W        W23784  40.413  15.691   2.362
64689W        W23785  31.916  44.428  12.931
64690W        W23786  41.863  29.961  11.118
64691W        W23787  23.077  25.541  14.804
64692W        W23788  23.130  28.165   2.777
64693W        W23789  31.467  16.274   2.315
64694W        W23790   0.390   5.768  14.447
64695W        W23791  20.264  30.576   1.700
64696W        W23792  41.973  23.578  13.795
64697W        W23793  12.239  18.152  11.008
64698W        W23794  11.355  35.572   0.285
64699W        W23795  24.592  12.286   3.794
64700W        W23796  14.184  30.037  14.368
64701W        W23797  36.939  30.448   0.850
64702W        W23798  40.901  42.299  12.450
64703W        W23799  14.808  14.298  11.503
64704W        W23800  42.936   7.378   3.809
64705W        W23801  37.451  18.583  11.106
64706W        W23802  15.595  43.870   3.647
64707W        W23803  43.491  20.052   0.338
64708W        W23804   3.838  16.606   3.293
64709W        W23805  39.411  40.540  12.077
64710W        W23806  15.250   3.825  13.461
64711W        W23807  44.995  35.554  13.383
64712W        W23808  14.815  13.732   3.199
64713W        W23809  42.323  35.051  14.505
64714W        W23810  27.170  20.568  14.350
64715W        W23811  29.119  11.643   3.288
64716W        W23812  30.042   2.414   4.279
64717W        W23813  27.131   5.390  13.032
64718W        W23814  42.939  14.712  13.930
64719W        W23815   2.908  38.432   4.801
64720W        W23816  41.423  19.740   2.224
64721W        W23817   6.901  30.471   3.707
64722W        W23818  31.106  36.452   0.798
64723W        W23819   4.780   7.671   1.376
64724W        W23820   7.894  27.179   1.223
64725W        W23821   7.178  43.983   4.138
64726W        W23822  38.027  19.678  12.857
64727W        W23823  19.772  44.785  13.439
64728W        W23824   0.467  34.097   1.796
64729W        W23825  41.793   9.201  12.554
64730W        W23826  39.983  17.288  12.955
64731W        W23827  10.821   1.836  14.934
64732W        W23828   9.791  35.467  14.422
64733W        W23829  21.047  12.788  13.404
64734W        W23830  15.234  21.100   2.785
64735W        W23831  19.589   3.879   2.685
64736W        W23832  20.162  31.447   4.210
64737W        W23833  20.180  10.376  12.998
64738W        W23834  14.274  35.983  11.961
64739W        W23835  22.067  20.193  13.521
64740W        W23836  27.040   1.466  14.277
64741W        W23837  38.371   2.279  13.931
64742W        W23838  35.522  33.039  13.967
64743W        W23839  27.583  15.284  12.894
64744W        W23840  28.517  40.874  14.434
64745W        W23841   8.739  12.783  13.849
64746W        W23842  34.938  13.263   2.413
64747W        W23843  39.012  27.180  14.774
64748W        W23844  42.788  25.693  11.557
64749W        W23845  44.950  21.046   1.400
64750W        W23846  31.625  30.604   0.474
64751W        W23847  28.027   7.263   3.375
64752W        W23848  28.488  31.932   4.665
64753W        W23849   6.308  15.103   2.223
64754W        W23850  19.760  38.410   3.263
64755W        W23851  12.751  41.972   4.666
64756W        W23852  28.491  14.782  12.537
64757W        W23853  44.315  20.537  14.311
64758W        W23854  17.078  42.851   1.697
64759W        W23855  35.084  15.131   4.809
64760W        W23856  35.500  43.511  12.460
64761W        W23857  20.105  21.173   4.652
64762W        W23858  10.178  10.223   1.743
64763W        W23859   8.287  24.535   1.873
64764W        W23860  15.725  25.079   1.764
64765W        W23861  35.927   9.798   3.845
64766W        W23862  25.689  36.978  11.543
64767W        W23863  34.000  11.651   0.755
64768W        W23864  37.487   0.303   0.821
64769W        W23865  33.083  42.023   1.889
64770W        W23866   1.902  28.603  13.814
64771W        W23867  22.044  14.210   0.790
64772W        W23868  43.325  42.786   1.869
64773W        W23869  27.673  27.675   0.376
64774W        W23870  23.112  39.325   1.896
64775W        W23871   8.270  32.105   3.276
64776W        W23872   6.898  37.403   1.364
64777W        W23873  35.537   4.401   1.773
64778W        W23874  18.162  42.441   0.466
64779W        W23875  16.292  39.545   3.664
64780W        W23876  11.348  17.121  10.123
64781W        W23877  39.847   8.304  13.808
64782W        W23878  34.913  34.433   4.180
64783W        W23879  20.234  13.342  14.344
64784W        W23880  23.201  30.080  13.525
64785W        W23881  19.214  22.528  14.419
64786W        W23882  21.672  36.547   3.869
64787W        W23883  36.453   1.355   3.246
64788W        W23884  30.471  11.826  11.041
64789W        W23885  39.896  18.182   2.664
64790W        W23886  34.513  10.801   3.637
64791W        W23887   5.315  21.726   4.686
64792W        W23888   4.924  18.553   2.868
64793W        W23889  38.949  21.736   4.807
64794W        W23890   7.287  16.809   0.298
64795W        W23891  11.155  25.179  14.468
64796W        W23892   3.422  44.887  13.395
64797W        W23893  42.452  32.921  11.969
64798W        W23894  31.952  12.136  10.908
64799W        W23895  12.685  32.594  13.971
64800W        W23896   1.371  32.540   1.820
64801W        W23897  29.570  27.674  11.118
64802W        W23898  10.381  25.219  10.008
64803W        W23899  38.370  14.759   0.434
64804W        W23900  36.081  27.012   4.281
64805W        W23901  39.064  18.090  12.352
64806W        W23902  24.509  12.799  10.909
64807W        W23903  40.929  27.175   0.276
64808W        W23904   9.673  30.925  12.362
64809W        W23905  14.794   5.850   1.800
64810W        W23906  22.705  24.543  11.860
64811W        W23907  16.610  30.918   2.389
64812W        W23908  42.439  33.107   4.712
64813W        W23909  38.021  40.347   4.665
64814W        W23910  35.104  26.515  12.470
64815W        W23911  43.507   5.765  14.502
64816W        W23912  36.524   0.429  11.043
64817W        W23913  34.075   5.795   1.811
64818W        W23914   1.732  14.183  14.401
64819W        W23915   5.312  28.626   2.325
64820W        W23916  18.290  35.496   4.209
64821W        W23917  23.173  22.550   1.299
64822W        W23918  35.587  16.738  14.390
64823W        W23919  29.006  31.902   4.225
64824W        W23920  20.671  27.603   3.167
64825W        W23921   8.243   8.752  13.365
64826W        W23922  25.673  22.208  14.325
64827W        W23923  29.604  43.923  11.492
64828W        W23924  13.288   8.800   1.249
64829W        W23925   1.389  17.200   1.924
64830W        W23926  20.037  35.010   4.718
64831W        W23927  29.938  31.421  14.321
64832W        W23928  24.159   3.265   0.793
64833W        W23929  12.276   9.336  12.479
64834W        W23930  12.619  22.153  13.047
64835W        W23931  29.650  35.536  12.351
64836W        W23932  43.325  22.726  11.567
64837W        W23933  16.215  10.786  12.432
64838W        W23934  19.125   2.875  11.375
64839W        W23935   5.314  23.547   4.729
64840W        W23936  39.557  25.986  12.964
64841W        W23937   3.395  26.983   3.675
64842W        W23938  43.286  30.004   4.801
64843W        W23939  21.730  14.625   1.850
64844W        W23940  15.745  28.485   0.851
64845W        W23941  25.596  22.227  12.564
64846W        W23942  35.589  19.101   4.207
64847W        W23943   9.744  32.510   4.723
64848W        W23944   1.250   0.915   1.699
64849W        W23945  40.826  15.283   3.732
64850W        W23946   0.395  10.684  11.031
64851W        W23947  36.077  25.503  11.856
64852W        W23948  28.603  24.980  14.831
64853W        W23949  20.616   0.902  14.900
64854W        W23950  21.690  35.566  12.428
64855W        W23951  39.489  23.995   4.598
64856W        W23952   7.249  44.826   0.246
64857W        W23953  11.831  44.411  13.857
64858W        W23954   8.660  44.953  13.481
64859W        W23955  21.706  16.158   2.304
64860W        W23956  30.415  35.913   1.353
64861W        W23957   4.735   3.239   0.422
64862W        W23958  28.162   7.900  10.912
64863W        W23959  26.061  24.185  11.553
64864W        W23960  41.965   9.694  11.493
64865W        W23961  29.005  23.566   5.242
64866W        W23962  26.099  11.157  11.954
64867W        W23963  25.557   9.155  13.402
64868W        W23964  40.411   0.944   1.304
64869W        W23965  37.462   2.842   3.336
64870W        W23966   6.856  14.623   0.368
64871W        W23967   9.873  41.855  11.397
64872W        W23968  23.513  39.812   3.322
64873W        W23969  23.031  19.206  12.829
64874W        W23970  17.708  29.550   0.301
64875W        W23971  18.103  24.521   0.354
64876W        W23972  40.487  41.359   2.232
64877W        W23973  34.892  25.208   3.322
64878W        W23974  35.498   8.331  13.844
64879W        W23975  29.117  31.013   2.270
64880W        W23976  15.804   6.793  14.936
64881W        W23977  11.803  31.474   0.461
64882W        W23978  18.780  18.149   2.380
64883W        W23979  24.058  17.137  12.996
64884W        W23980   5.754  19.253  14.791
64885W        W23981  21.600  23.510  14.806
64886W        W23982   5.765  27.073  12.439
64887W        W23983  42.376   5.716  13.403
64888W        W23984   3.376   1.753   2.371
64889W        W23985  28.527  14.240   0.368
64890W        W23986  18.069  33.526   3.634
64891W        W23987  24.087   6.683   4.181
64892W        W23988  12.159  27.057   5.183
64893W        W23989  22.639   6.343  13.476
64894W        W23990  25.568  17.230  12.931
64895W        W23991  34.443  28.972   0.754
64896W        W23992  44.895  13.128  10.598
64897W        W23993  28.650   1.458   4.139
64898W        W23994  39.912  32.075   3.759
64899W        W23995  15.227  44.862   1.405
64900W        W23996  43.341  19.698  14.025
64901W        W23997  12.612  36.415   1.810
64902W        W23998  37.957  39.557  10.549
64903W        W23999  27.589  36.902   3.267
64904W        W24000   2.429   1.864   1.375
64905W        W24001  21.706  10.317   1.821
64906W        W24002   4.915   1.893   0.951
64907W        W24003   7.879  33.561  13.537
64908W        W24004  23.654   1.477   4.732
64909W        W24005  40.823  36.519  14.884
64910W        W24006   0.784  23.506  13.844
64911W        W24007  24.123   4.304   0.386
64912W        W24008  42.486  36.561   1.390
64913W        W24009  29.436  36.538  14.414
64914W        W24010   5.856  20.732   3.787
64915W        W24011   3.710  34.904  14.018
64916W        W24012  44.483  29.175   4.332
64917W        W24013  39.047  15.731   3.721
64918W        W24014  41.526  31.927  11.899
64919W        W24015  16.162  34.077  14.828
64920W        W24016   0.922  35.854   4.181
64921W        W24017  24.988  16.258  11.002
64922W        W24018   2.871  35.887  12.478
64923W        W24019  26.089  10.637   3.676
64924W        W24020  23.014  12.810   4.753
64925W        W24021  43.864  32.006  14.997
64926W        W24022  31.580  41.813   0.927
64927W        W24023  15.114  36.875   9.989
64928W        W24024  28.510  18.129  13.014
64929W        W24025  36.852  31.049  14.781
64930W        W24026   5.742  15.640   2.673
64931W        W24027  41.438  30.429   4.353
64932W        W24028   8.321  25.122   5.565
64933W        W24029  14.790  19.278   4.744
64934W        W24030  42.838  13.654  13.471
64935W        W24031  28.460  32.586  11.494
64936W        W24032  16.634  29.105   2.354
64937W        W24033  32.102   2.399  12.934
64938W        W24034   7.781   8.895  14.380
64939W        W24035  34.055  20.675   2.401
64940W        W24036  11.820  19.592   2.889
64941W        W24037  28.948  39.943   1.427
64942W        W24038   5.312   6.225  12.882
64943W        W24039   1.829  44.930  11.516
64944W        W24040  20.097  27.454  14.467
64945W        W24041  25.023  10.355   1.230
64946W        W24042  12.761  37.003   1.926
64947W        W24043   3.794  11.798  10.905
64948W        W24044  30.121  13.808   2.199
64949W        W24045  33.018  13.753   3.767
64950W        W24046  36.880  31.095   3.867
64951W        W24047   1.369   6.277   2.790
64952W        W24048  13.708  41.007   4.726
64953W        W24049  15.694  31.914  13.970
64954W        W24050  17.228  29.646   3.870
64955W        W24051  43.454  19.143  12.579
64956W        W24052  32.946  28.977  11.865
64957W        W24053  24.068  38.454   2.267
64958W        W24054  36.845  36.865   1.252
64959W        W24055   6.795  15.760   0.826
64960W        W24056  30.466  31.930   1.447
64961W        W24057  41.033  37.884   0.483
64962W        W24058  36.485   3.251   3.272
64963W        W24059   7.716   1.309   2.312
64964W        W24060   0.771  41.335   2.846
64965W        W24061  41.515   7.755   2.266
64966W        W24062  26.602  43.330   2.668
64967W        W24063  10.291  29.122  12.399
64968W        W24064  23.697  26.091   2.694
64969W        W24065   5.320  19.249  11.898
64970W        W24066  40.869   6.724  14.400
64971W        W24067  17.754   7.279  12.019
64972W        W24068  18.148  32.488  10.593
64973W        W24069  41.296  22.579  10.620
64974W        W24070  11.253  15.676  13.836
64975W        W24071   2.778  33.542   3.322
64976W        W24072  25.123  33.037  12.055
64977W        W24073  12.638  37.013  13.531
64978W        W24074   3.239  16.227   0.243
64979W        W24075  18.581  44.316   4.619
64980W        W24076  33.931  18.641  10.947
64981W        W24077  35.565  37.844   0.759
64982W        W24078  40.845  41.445   0.950
64983W        W24079  16.286   5.344   0.781
64984W        W24080  16.107  42.447   2.418
64985W        W24081   7.230  10.678   3.348
64986W        W24082  28.505  13.259   0.260
64987W        W24083   9.365  27.580   3.260
64988W        W24084   8.817  16.690   4.352
64989W        W24085  44.298   8.293   3.701
64990W        W24086  35.400  14.769  11.859
64991W        W24087   4.304  35.993  14.028
64992W        W24088   3.289   6.799   1.764
64993W        W24089  24.613  33.970  11.912
64994W        W24090  28.154  15.708  10.607
64995W        W24091  10.807   7.360   4.739
64996W        W24092   0.951  17.278  12.077
64997W        W24093  20.701  20.103   2.228
64998W        W24094  41.846  40.517  10.430
64999W        W24095  35.013  18.571  12.402
65000W        W24096  10.696  25.059  13.908
65001W        W24097  22.559  17.079   3.158
65002W        W24098  28.940  23.657  14.327
65003W        W24099  18.579  35.546  12.501
65004W        W24100   5.694  26.019   2.824
65005W        W24101  20.564   5.395   1.417
65006W        W24102  22.070   9.206  14.019
65007W        W24103   4.866  20.124  13.538
65008W        W24104   3.796  32.622  10.481
65009W        W24105   7.307  20.101  11.425
65010W        W24106  14.287  34.568   0.855
65011W        W24107   1.895  32.448   1.900
65012W        W24108  28.084  31.902   0.305
65013W        W24109  38.480  37.900   4.299
65014W        W24110   8.211  16.117  14.853
65015W        W24111  11.742   3.752   0.899
65016W        W24112   1.383  22.545   2.792
65017W        W24113  37.939   2.338  13.008
65018W        W24114   0.425  29.933   3.699
65019W        W24115  25.218  33.934   3.262
65020W        W24116  24.043   7.693  11.396
65021W        W24117  18.268  24.544  14.007
65022W        W24118   4.250  40.956   1.422
65023W        W24119  14.183   6.235   2.681
65024W        W24120   9.238  36.881  11.534
65025W        W24121  17.107   5.752   4.738
65026W        W24122   7.779  11.219  12.017
65027W        W24123   2.842  35.052  14.504
65028W        W24124  22.545  39.493  13.883
65029W        W24125  31.423   0.975  14.763
65030W        W24126  40.999  10.180   2.381
65031W        W24127  12.814   4.784   4.654
65032W        W24128  17.624  37.076   2.292
65033W        W24129  44.911  15.693   2.709
65034W        W24130   5.243  16.573  14.009
65035W        W24131  15.198  25.968  10.404
65036W        W24132  32.393   3.919   3.725
65037W        W24133   3.877   1.386  11.601
65038W        W24134  41.475  33.488  12.575
65039W        W24135  25.987  13.772  11.438
65040W        W24136  19.665  24.137  12.482
65041W        W24137  42.776  27.095  12.522
65042W        W24138  41.469  14.764   1.922
65043W        W24139  13.667  33.549  13.045
65044W        W24140  39.911  31.610  10.461
65045W        W24141   3.287  36.367   4.262
65046W        W24142  16.209  31.029  11.409
65047W        W24143  15.731  33.022   9.946
65048W        W24144  20.237  28.948  12.002
65049W        W24145   5.207  14.773   4.192
65050W        W24146   3.414   3.400   0.734
65051W        W24147  20.748  28.120  12.965
65052W        W24148  35.561  35.442   4.646
65053W        W24149  35.360  26.511  14.841
65054W        W24150  26.079  19.620  12.030
65055W        W24151  37.579  15.745  12.533
65056W        W24152  11.803  18.583  12.906
65057W        W24153  10.654  29.452  11.489
65058W        W24154  30.532  25.176   2.735
65059W        W24155  42.438  20.678   0.822
65060W        W24156  22.102  42.499  13.824
65061W        W24157  11.714  26.664   0.806
65062W        W24158  27.489  23.087   1.298
65063W        W24159  18.572  21.521   4.275
65064W        W24160  15.203  43.905  14.958
65065W        W24161  35.039   7.251  14.905
65066W        W24162   1.237  11.768   1.820
65067W        W24163  17.647   4.914  14.373
65068W        W24164   7.289  19.613  12.392
65069W        W24165  32.910   4.433   0.341
65070W        W24166  39.428  32.901  14.837
65071W        W24167  22.017  23.234  13.900
65072W        W24168  17.063  37.833   1.928
65073W        W24169  27.046  33.451   2.345
65074W        W24170  24.566  30.635  12.342
65075W        W24171  26.614   7.753  14.460
65076W        W24172  34.608   9.798  14.388
65077W        W24173  17.175  38.855  13.423
65078W        W24174  32.442  23.694  13.339
65079W        W24175  35.909  42.349  12.348
65080W        W24176  31.139  23.162  11.056
65081W        W24177   3.332  14.642   3.372
65082W        W24178  27.053  42.993  14.875
65083W        W24179  37.466   8.761   0.277
65084W        W24180  43.789  35.415   0.328
65085W        W24181  28.969   9.821  11.374
65086W        W24182  17.700  35.417  11.495
65087W        W24183  13.722  31.899   5.295
65088W        W24184  19.265   1.819  14.009
65089W        W24185  39.998  14.737  14.314
65090W        W24186   3.308  25.103  12.447
65091W        W24187  24.037   3.799   0.928
65092W        W24188  15.791   3.946   0.341
65093W        W24189  26.679  30.069   2.755
65094W        W24190   4.385  29.093   2.253
65095W        W24191  37.028  16.624  14.032
65096W        W24192  15.236  25.552  14.984
65097W        W24193  26.163  11.644  14.414
65098W        W24194  22.605  41.461  14.311
65099W        W24195  24.697  30.952  14.874
65100W        W24196  32.543  16.629  13.793
65101W        W24197  30.047   6.331   1.741
65102W        W24198  43.942   5.432  13.506
65103W        W24199  14.755   7.864   0.295
65104W        W24200  16.100  43.468  13.527
65105W        W24201   8.214   2.392  11.863
65106W        W24202  17.159   3.300  13.033
65107W        W24203  24.043  14.311  12.844
65108W        W24204  24.645  12.730   1.753
65109W        W24205  31.918   1.870   3.179
65110W        W24206  36.512   8.708  12.927
65111W        W24207  14.603  14.740  12.423
65112W        W24208  43.326  30.022  14.515
65113W        W24209  36.382  35.528   3.153
65114W        W24210  28.013   4.711   1.311
65115W        W24211   8.722  29.556   2.665
65116W        W24212  11.217  31.581  10.554
65117W        W24213  26.537  13.817  14.771
65118W        W24214  33.472  18.632   2.772
65119W        W24215  44.446  15.169   2.760
65120W        W24216  41.798  22.531  13.812
65121W        W24217  17.270  11.222  14.471
65122W        W24218  36.902  15.765   4.763
65123W        W24219  14.615  30.135  11.445
65124W        W24220  28.040  21.528   3.194
65125W        W24221   4.236  43.322  10.438
65126W        W24222  35.598  21.630   3.206
65127W        W24223   4.927  15.618   1.924
65128W        W24224  20.171  39.437   5.200
65129W        W24225  40.456  15.599   5.306
65130W        W24226  13.158  41.473   1.891
65131W        W24227  32.589  10.150  13.452
65132W        W24228  38.927  43.848   0.467
65133W        W24229  18.590  41.473  13.035
65134W        W24230  42.338  26.043  11.028
65135W        W24231  39.902  43.393  13.480
65136W        W24232   8.870  22.520   1.850
65137W        W24233  40.888  41.468  14.488
65138W        W24234  16.286  26.534  11.471
65139W        W24235  41.896  36.400  11.398
65140W        W24236  41.388  10.152   3.377
65141W        W24237  14.334  18.691   5.162
65142W        W24238  39.868   4.255   1.764
65143W        W24239  22.580  27.687  10.590
65144W        W24240  22.712  44.344   3.778
65145W        W24241  11.169  18.569  10.421
65146W        W24242  36.390  17.194   2.777
65147W        W24243   9.868  12.327   1.369
65148W        W24244  10.708   3.948   3.375
65149W        W24245  26.467  18.567  10.136
65150W        W24246  26.597  30.461  13.908
65151W        W24247   7.894   6.699  11.073
65152W        W24248  43.018  38.840  12.569
65153W        W24249  27.067  29.432   4.623
65154W        W24250  33.116  36.349   3.153
65155W        W24251  40.436  31.007  14.010
65156W        W24252  23.173   1.849  14.867
65157W        W24253  31.606  39.887   2.881
65158W        W24254  21.517  37.037  11.488
65159W        W24255   6.716  39.013   3.310
65160W        W24256   9.206   9.797  13.318
65161W        W24257  27.024  12.734  11.118
65162W        W24258  42.335  24.138   3.316
65163W        W24259  39.929  43.773   0.369
65164W        W24260  10.266   8.388  12.480
65165W        W24261  13.768  28.979   0.852
65166W        W24262  43.486  32.633  11.605
65167W        W24263  10.737  18.234   0.325
65168W        W24264   7.251  40.894  13.472
65169W        W24265  43.788  44.961   0.310
65170W        W24266  24.992  31.007   4.291
65171W        W24267  29.151  44.276   1.835
65172W        W24268  20.037  27.057   0.411
65173W        W24269   3.429  34.609   3.349
65174W        W24270  10.778   8.351  11.547
65175W        W24271   1.362  28.046  10.890
65176W        W24272  24.567  10.268  14.937
65177W        W24273  36.049   8.842   2.295
65178W        W24274  27.107  33.546  13.490
65179W        W24275   8.803  25.968   3.752
65180W        W24276   4.419   2.939   3.716
65181W        W24277  21.620  39.448   4.624
65182W        W24278  32.403  39.998  12.464
65183W        W24279  36.362  15.129  12.901
65184W        W24280  25.979   2.269   3.751
65185W        W24281   2.931   9.658   0.314
65186W        W24282   6.367  26.001  11.020
65187W        W24283  34.384  27.604   0.807
65188W        W24284  44.336  40.041  13.799
65189W        W24285  38.975  14.797  11.568
65190W        W24286  34.061  19.717   0.940
65191W        W24287  26.125  23.090   2.395
65192W        W24288   3.871  23.204  11.975
65193W        W24289  25.611   5.801  12.849
65194W        W24290  16.311  14.275   1.704
65195W        W24291  27.140  18.731  12.514
65196W        W24292  18.284   9.331  13.438
65197W        W24293  32.391  37.912  13.345
65198W        W24294  15.663  33.594  10.056
65199W        W24295  21.591  21.201   2.749
65200W        W24296  15.136  21.596  11.897
65201W        W24297  41.864  30.457  11.537
65202W        W24298   0.797  38.493  11.444
65203W        W24299  30.446  30.527   4.705
65204W        W24300  31.148  36.384  11.014
65205W        W24301  22.620  28.014   3.253
65206W        W24302  28.555  40.023  12.011
65207W        W24303  16.646  19.043   1.721
65208W        W24304   5.230  16.273   3.796
65209W        W24305   7.732  39.966  12.370
65210W        W24306  32.503   8.699   4.636
65211W        W24307   3.432  13.171  12.912
65212W        W24308   6.247  27.148  13.911
65213W        W24309  30.632  36.491  14.885
65214W        W24310  31.412  38.499   4.755
65215W        W24311   5.253  14.266   2.843
65216W        W24312  23.145  19.124   5.619
65217W        W24313  25.535  36.378   1.411
65218W        W24314  11.305   9.152   1.903
65219W        W24315  26.700  43.949  10.477
65220W        W24316  10.165  15.707   1.432
65221W        W24317  11.839  32.620   4.273
65222W        W24318   6.205  44.909  11.090
65223W        W24319  27.112   4.360  12.852
65224W        W24320  35.421  31.970   5.164
65225W        W24321  33.077  43.372   1.365
65226W        W24322  20.547  15.794  13.795
65227W        W24323  31.057  17.764  14.476
65228W        W24324  41.322  40.401  13.462
65229W        W24325   2.806  16.255  13.542
65230W        W24326  32.630  44.313   0.380
65231W        W24327  42.018  11.739   3.782
65232W        W24328  30.637   3.233   1.826
65233W        W24329  38.072  30.554   0.426
65234W        W24330  35.593  22.069   2.683
65235W        W24331  12.743   7.292   0.726
65236W        W24332  40.333   7.883  12.392
65237W        W24333   7.212  37.555   1.807
65238W        W24334  20.654  27.084  13.532
65239W        W24335  18.078  41.460   0.427
65240W        W24336  29.963   3.370   3.662
65241W        W24337   4.719  29.945  14.782
65242W        W24338  34.955  17.228  10.007
65243W        W24339  23.126  16.214  11.568
65244W        W24340   8.316  29.568   0.314
65245W        W24341  10.281  23.559  12.022
65246W        W24342  43.977  16.137  10.936
65247W        W24343   7.748  21.261   0.774
65248W        W24344  29.041  38.969  10.612
65249W        W24345  34.565  34.543  14.859
65250W        W24346   0.351  11.312   0.322
65251W        W24347   6.827  15.603   1.217
65252W        W24348   6.728  23.146  11.030
65253W        W24349  24.718  29.616   4.736
65254W        W24350  18.076  40.952  11.991
65255W        W24351  42.813   8.371   3.859
65256W        W24352  23.013  20.239   2.387
65257W        W24353  28.118   6.754   0.375
65258W        W24354  19.167  31.425  12.378
65259W        W24355  21.629  29.015   4.679
65260W        W24356  13.173  22.649  10.153
65261W        W24357  37.873  12.279   4.679
65262W        W24358  23.001   1.446  11.070
65263W        W24359  18.657   2.445  12.985
65264W        W24360  40.363  14.783   4.234
65265W        W24361  29.994  41.456  13.325
65266W        W24362  11.282  41.312  10.535
65267W        W24363  11.142   4.712  14.018
65268W        W24364   2.853  10.700  13.928
65269W        W24365  12.312  19.213  12.986
65270W        W24366  25.571   4.355  10.968
65271W        W24367  23.623  31.416   1.249
65272W        W24368   8.326  38.987  13.931
65273W        W24369  10.869  14.752   4.161
65274W        W24370  36.408  16.788  11.612
65275W        W24371  23.682  32.073   0.876
65276W        W24372   0.955  12.633  13.886
65277W        W24373  13.724  38.944  14.339
65278W        W24374  33.112  30.504  12.045
65279W        W24375  22.525  12.623  10.514
65280W        W24376  34.459  23.156   0.304
65281W        W24377  17.694  12.250  10.949
65282W        W24378  24.978  19.063  12.964
65283W        W24379   0.255   2.721   1.932
65284W        W24380  21.263  26.989   0.284
65285W        W24381  33.436   7.255  12.991
65286W        W24382  19.594  34.540   2.692
65287W        W24383  18.557   9.394  12.545
65288W        W24384  44.479   3.397   2.682
65289W        W24385  22.615   8.217   3.154
65290W        W24386  36.421  22.081  13.520
65291W        W24387  41.903   3.300   1.238
65292W        W24388  44.874  27.686  12.960
65293W        W24389  12.724  20.143   4.267
65294W        W24390  11.192  39.408  14.305
65295W        W24391  29.116  37.875   4.144
65296W        W24392   0.843  10.828   4.789
65297W        W24393   5.740  16.166  13.508
65298W        W24394  11.270   8.199  13.830
65299W        W24395  22.712  42.441  10.900
65300W        W24396  10.661  43.896  13.999
65301W        W24397  18.086  37.051   3.825
65302W        W24398  39.054  12.733   4.164
65303W        W24399   3.837  15.211   0.820
65304W        W24400  39.502  30.595  12.845
65305W        W24401   6.383  28.949   2.894
65306W        W24402  36.078   9.885   2.356
65307W        W24403   8.376  29.433   0.920
65308W        W24404  38.030  30.626   4.685
65309W        W24405  36.471  18.737   4.787
65310W        W24406  36.005   7.795   0.377
65311W        W24407  34.593  41.536   1.215
65312W        W24408  10.248  16.733   1.714
65313W        W24409   8.348  17.279   1.808
65314W        W24410  20.131  36.864   2.743
65315W        W24411   9.299  21.189  11.904
65316W        W24412  36.445  18.654  11.453
65317W        W24413  21.189  10.331  14.897
65318W        W24414  33.552  43.275  11.387
65319W        W24415  22.611  26.512   4.279
65320W        W24416   7.879  40.052  13.963
65321W        W24417  40.321   2.259  14.466
65322W        W24418  41.914  32.076   2.261
65323W        W24419  16.141  30.613  11.483
65324W        W24420  12.652  14.685  10.921
65325W        W24421  21.099  35.405   3.640
65326W        W24422  41.993  34.403  11.560
65327W        W24423  36.077  12.163   3.283
65328W        W24424  36.015  13.317  11.566
65329W        W24425  42.420   3.762  13.354
65330W        W24426  21.659  23.160   4.607
65331W        W24427   6.893  27.049   3.311
65332W        W24428  28.668  17.141   1.444
65333W        W24429  32.921  32.055   3.776
65334W        W24430   7.788  39.476  10.586
65335W        W24431  34.457   3.328   3.312
65336W        W24432  35.519  33.052   1.713
65337W        W24433  29.516  24.160   2.766
65338W        W24434  38.907  29.003   4.347
65339W        W24435  11.837  28.459  11.959
65340W        W24436  40.325  28.991   4.236
65341W        W24437  15.243  18.144   0.368
65342W        W24438  14.289   5.738   2.674
65343W        W24439   7.289  34.447   3.673
65344W        W24440   0.850  23.636   2.733
65345W        W24441  38.985  14.096  11.492
65346W        W24442   1.757  40.832   2.893
65347W        W24443  42.338  33.400  11.579
65348W        W24444  31.571  44.947  13.413
65349W        W24445  25.128  29.480   0.245
65350W        W24446   7.189  35.418  12.574
65351W        W24447   1.338   1.971  10.970
65352W        W24448  30.443  12.261  10.962
65353W        W24449  14.692   2.720   0.951
65354W        W24450  32.907  31.113  14.896
65355W        W24451  27.183  14.332   2.365
65356W        W24452   8.832  15.329  10.589
65357W        W24453  22.535  23.491   3.246
65358W        W24454  29.577  11.627  13.998
65359W        W24455  19.604  12.216   1.899
65360W        W24456  36.409  10.276  13.823
65361W        W24457  19.222  25.026   1.760
65362W        W24458  36.857   8.765  10.510
65363W        W24459  44.902  40.015   2.707
65364W        W24460   7.213  21.109   0.806
65365W        W24461  10.847  19.086   3.824
65366W        W24462  35.924   6.916   0.885
65367W        W24463   0.284   4.325   2.254
65368W        W24464   9.336   0.986   1.236
65369W        W24465   1.460  40.968  12.421
65370W        W24466   1.761   7.198   3.273
65371W        W24467  16.312  13.732  11.603
65372W        W24468   4.713  40.546  13.425
65373W        W24469  38.358  21.700  14.309
65374W        W24470  23.584   6.763  14.919
65375W        W24471   0.466   3.714  11.110
65376W        W24472  22.653  43.414  13.499
65377W        W24473  33.922   6.838  10.898
65378W        W24474  25.014   0.877  13.903
65379W        W24475   5.909  34.941  14.970
65380W        W24476  31.140  35.970  13.337
65381W        W24477  35.875   7.173   1.236
65382W        W24478   8.262   6.903  10.500
65383W        W24479   0.400   6.285  12.531
65384W        W24480  27.969  30.482  10.442
65385W        W24481  20.218   7.210  13.848
65386W        W24482  21.153  29.652  13.809
65387W        W24483   0.363  16.712   1.402
65388W        W24484  38.570  39.327  11.105
65389W        W24485  12.227  41.904  12.073
65390W        W24486  29.610  21.618   3.297
65391W        W24487  29.047   2.247   0.368
65392W        W24488   1.853  34.924  11.063
65393W        W24489   0.840  34.580  12.567
65394W        W24490  10.683  24.177   1.757
65395W        W24491  29.480  12.812  14.919
65396W        W24492   3.243  21.694  14.989
65397W        W24493  21.672   5.757  12.412
65398W        W24494  42.398   0.795  13.801
65399W        W24495  33.618   3.237   0.287
65400W        W24496  21.159   6.268   4.296
65401W        W24497  32.485   4.370  13.909
65402W        W24498  21.742  14.793   1.366
65403W        W24499  36.546  15.737   3.168
65404W        W24500  43.820  26.482   2.756
65405W        W24501  41.389   7.353  12.040
65406W        W24502   9.828  42.900  14.425
65407W        W24503  31.000  34.486   3.349
65408W        W24504  10.856  43.817   2.844
65409W        W24505   0.784  29.105   3.248
65410W        W24506   8.236  42.481   2.381
65411W        W24507  24.159  25.218  10.568
65412W        W24508  20.624  13.337  14.305
65413W        W24509  34.382  40.514   1.772
65414W        W24510  29.116   2.322  12.444
65415W        W24511  21.749  37.047   1.817
65416W        W24512   8.726   5.845   2.877
65417W        W24513  20.740  24.048   1.745
65418W        W24514  22.726   4.765   0.248
65419W        W24515  37.073   5.425   3.706
65420W        W24516  35.390  19.664   2.418
65421W        W24517  20.567   9.824   3.217
65422W        W24518   3.839  22.077  13.925
65423W        W24519  44.468  24.195  14.960
65424W        W24520  24.608  43.378   1.379
65425W        W24521  13.246   0.282  14.386
65426W        W24522  17.176  38.975   3.858
65427W        W24523  10.648   9.786   3.315
65428W        W24524  37.958  16.277  12.957
65429W        W24525  24.227   4.250   4.251
65430W        W24526   9.869  40.524   1.276
65431W        W24527  41.452   6.243  12.999
65432W        W24528   9.205  33.619  12.839
65433W        W24529  26.526  24.609  14.878
65434W        W24530  20.097  38.438   3.199
65435W        W24531  26.148   5.809   4.754
65436W        W24532   9.306  19.220   2.373
65437W        W24533  17.295  16.750   2.736
65438W        W24534  17.118  28.073   4.277
65439W        W24535  19.136  19.275  11.389
65440W        W24536   3.269  40.410   4.711
65441W        W24537  39.489  27.990   1.924
65442W        W24538  22.173  29.424  14.279
65443W        W24539  44.442  34.040   0.381
65444W        W24540  27.034  31.533  14.343
65445W        W24541   1.837  13.806   0.380
65446W        W24542  37.963  34.976   0.328
65447W        W24543   7.889  18.560   1.720
65448W        W24544  42.297  11.283  14.467
65449W        W24545  23.997   2.848  11.916
65450W        W24546  34.955  36.007  10.103
65451W        W24547  32.525   1.792   5.089
65452W        W24548  40.831  29.164  13.373
65453W        W24549  40.330  36.393  14.495
65454W        W24550  21.655  27.651   1.318
65455W        W24551  11.362  43.270   4.685
65456W        W24552  13.725  44.308   4.831
65457W        W24553   2.288  42.965   1.795
65458W        W24554  43.821  25.104   2.316
65459W        W24555  21.694  35.365   4.663
65460W        W24556  31.071  22.174  14.027
65461W        W24557  24.010  16.107   2.725
65462W        W24558  18.748  27.942  10.134
65463W        W24559  30.150   6.328  13.382
65464W        W24560  38.428  39.992  12.916
65465W        W24561  32.625   9.362  11.892
65466W        W24562  37.890   7.749   0.296
65467W        W24563  18.090  38.535  11.880
65468W        W24564   1.883  19.041  14.370
65469W        W24565  37.518   3.863  11.485
65470W        W24566  34.447  27.098   3.161
65471W        W24567  12.816  24.022  14.474
65472W        W24568   1.240  17.569  10.603
65473W        W24569   6.407   8.399   4.653
65474W        W24570   1.333  11.159  13.378
65475W        W24571  37.852  32.495   0.966
65476W        W24572  39.516  31.533   2.752
65477W        W24573   5.802  12.620  14.965
65478W        W24574  26.066  39.549  14.495
65479W        W24575  29.435   7.723  11.869
65480W        W24576   9.863  26.554  14.031
65481W        W24577  11.168  22.593   3.695
65482W        W24578  26.965  14.827   1.290
65483W        W24579   4.871  12.337   0.461
65484W        W24580  18.199  40.979  11.047
65485W        W24581  23.493  25.968  13.003
65486W        W24582  42.361  14.760  14.440
65487W        W24583  22.553  14.124  10.986
65488W        W24584  41.332  33.544  11.907
65489W        W24585  38.370  19.241   2.673
65490W        W24586  15.088  24.575  14.900
65491W        W24587  42.952  13.124  10.891
65492W        W24588  44.378  30.020  13.792
65493W        W24589   9.343  24.559  13.993
65494W        W24590  11.851   6.840   2.321
65495W        W24591   7.179  36.532  13.870
65496W        W24592  34.903  25.521  11.598
65497W        W24593  27.972  19.764  13.507
65498W        W24594  40.512  22.075   2.727
65499W        W24595  32.935  14.289   3.217
65500W        W24596   8.797  33.387  12.542
65501W        W24597  39.943  25.966   1.408
65502W        W24598  10.739  20.708   0.743
65503W        W24599  26.661  24.001   1.334
65504W        W24600  41.793  31.402  13.895
65505W        W24601  39.970  24.700   2.316
65506W        W24602  10.227  22.157  13.863
65507W        W24603  20.113  20.265   4.315
65508W        W24604   2.797   5.795   1.282
65509W        W24605  39.935  23.988  14.509
65510W        W24606   5.344  10.669   1.283
65511W        W24607   5.302   3.343  13.938
65512W        W24608  28.998   5.864  13.830
65513W        W24609   7.368  34.496  11.427
65514W        W24610  16.608  27.163  14.901
65515W        W24611  11.348  35.387  13.890
65516W        W24612  27.493  36.938  14.963
65517W        W24613  38.934   1.873   4.687
65518W        W24614   7.716  28.588   1.376
65519W        W24615  21.222  30.479  14.338
65520W        W24616   9.729  16.273   1.266
65521W        W24617  39.836  13.297  13.885
65522W        W24618  44.402   1.303   4.162
65523W        W24619  25.027   0.854   4.225
65524W        W24620   1.807  29.442   4.354
65525W        W24621  18.676  34.974   4.723
65526W        W24622  15.083   9.844  11.550
65527W        W24623  34.068   3.956  10.627
65528W        W24624  14.221  33.908   0.846
65529W        W24625  28.009  24.190   3.672
65530W        W24626  11.127  24.229   4.676
65531W        W24627   4.936  13.837  11.935
65532W        W24628  35.985  43.869   4.234
65533W        W24629  44.493  35.903  14.285
65534W        W24630  13.652  35.964  12.903
65535W        W24631   7.337  16.756  11.543
65536W        W24632  14.589   1.290  13.848
65537W        W24633  41.349  18.651  13.872
65538W        W24634  39.324  23.207  11.524
65539W        W24635  25.576  43.391   1.733
65540W        W24636  16.776  32.627  11.424
65541W        W24637   2.930  37.465  10.532
65542W        W24638  29.002  23.581  11.973
65543W        W24639  11.851  23.508   0.729
65544W        W24640   2.232  35.856   2.877
65545W        W24641  38.861   2.334  14.367
65546W        W24642  22.662  25.636  10.896
65547W        W24643  34.979  33.000  14.985
65548W        W24644  13.695  37.562   4.825
65549W        W24645  12.800  13.807  10.975
65550W        W24646   0.412   1.889  10.935
65551W        W24647  20.596   5.829  10.074
65552W        W24648  26.689  12.767   1.264
65553W        W24649  18.612  12.230   5.274
65554W        W24650   5.759   4.822   1.339
65555W        W24651  14.700  15.748  14.013
65556W        W24652   2.423   9.664  10.980
65557W        W24653  43.790   8.287   3.372
65558W        W24654  33.053   0.771  14.419
65559W        W24655  21.582  36.992  10.959
65560W        W24656   5.253  30.091  14.853
65561W        W24657  13.253  27.688   2.404
65562W        W24658  10.651   7.857   1.866
65563W        W24659  42.313  43.949  13.018
65564W        W24660   5.231  28.541   3.811
65565W        W24661  27.615   7.392  14.390
65566W        W24662  27.171  30.472   3.748
65567W        W24663   3.900  27.106   2.764
65568W        W24664  44.896  22.179  14.276
65569W        W24665   9.390  27.028   0.386
65570W        W24666  16.729  18.083  12.001
65571W        W24667  28.511  15.670   4.349
65572W        W24668  16.610   8.839  14.275
65573W        W24669  43.887  23.104  14.806
65574W        W24670  39.405  25.494  10.933
65575W        W24671   9.659  44.795   2.900
65576W        W24672  37.976   8.858   4.696
65577W        W24673  21.018  29.668   0.819
65578W        W24674  21.063  22.736  10.483
65579W        W24675  35.104  28.678   3.734
65580W        W24676   2.891  21.064   2.238
65581W        W24677  38.501   7.796  11.907
65582W        W24678  27.171  24.137  13.960
65583W        W24679   7.401  29.510  12.830
65584W        W24680   2.907  14.828   0.358
65585W        W24681  43.407   0.364  11.979
65586W        W24682  26.012  43.949  12.948
65587W        W24683  42.801  39.463   3.200
65588W        W24684   5.281  35.101   0.263
65589W        W24685  38.955  17.639  13.870
65590W        W24686  30.035   0.333   0.834
65591W        W24687  20.101  44.331  12.988
65592W        W24688   9.354  41.429   4.183
65593W        W24689  37.576  40.333  11.917
65594W        W24690  16.103  35.890  14.806
65595W        W24691  33.126  14.668   9.983
65596W        W24692  14.206  19.281   1.709
65597W        W24693  30.048  44.410   0.380
65598W        W24694  16.217  34.588   1.425
65599W        W24695  16.581  11.627   4.620
65600W        W24696  18.681  22.580  10.494
65601W        W24697  17.230  18.775   4.144
65602W        W24698  32.054  44.822  14.845
65603W        W24699  41.329  31.474  13.534
65604W        W24700  23.077  39.457  12.428
65605W        W24701  39.538   1.869  11.400
65606W        W24702  25.016  34.595  14.371
65607W        W24703  44.973   1.907   1.851
65608W        W24704  29.100   3.283  13.965
65609W        W24705  31.433  26.170   1.758
65610W        W24706  42.000  11.843   0.901
65611W        W24707  12.752  23.174  12.450
65612W        W24708  33.086  25.568   3.305
65613W        W24709  13.314  42.412   4.624
65614W        W24710  41.814  12.818   5.177
65615W        W24711  30.949  39.904   3.686
65616W        W24712  17.263  20.253   0.753
65617W        W24713  28.181  18.244   1.742
65618W        W24714  15.788  20.087   1.916
65619W        W24715  39.331  43.285   2.812
65620W        W24716  36.374   3.370  10.911
65621W        W24717   7.394  25.552   1.358
65622W        W24718  10.669   6.388   2.769
65623W        W24719  39.531  10.346   2.803
65624W        W24720  11.279  44.866   4.612
65625W        W24721  44.340  40.911   0.888
65626W        W24722  10.827  34.398   1.850
65627W        W24723  34.069  26.157  14.352
65628W        W24724   3.928  23.051  11.555
65629W        W24725  26.679   3.759  12.962
65630W        W24726  43.337  22.085  12.393
65631W        W24727  42.407  15.314  10.456
65632W        W24728  17.076  15.162  13.394
65633W        W24729  21.220  25.575  10.632
65634W        W24730  30.065  42.000   0.730
65635W        W24731  40.802   2.840  12.475
65636W        W24732  35.889  36.365  10.412
65637W        W24733  19.601  33.963   4.331
65638W        W24734  35.473  25.047  11.966
65639W        W24735  37.517  29.520   3.326
65640W        W24736  43.311  30.041   0.963
65641W        W24737   2.838   6.305  14.315
65642W        W24738  22.673   0.841   4.138
65643W        W24739  19.710  33.505  11.562
65644W        W24740  22.600  16.274  13.432
65645W        W24741  34.024  36.551  12.961
65646W        W24742  22.180  21.746  10.633
65647W        W24743  23.689  38.389  14.813
65648W        W24744   3.903  30.416  12.410
65649W        W24745   1.434  23.529   3.332
65650W        W24746  42.996  12.197   0.810
65651W        W24747  22.051  42.396   4.771
65652W        W24748  21.024  19.751   4.768
65653W        W24749   3.215  38.013   1.817
65654W        W24750  12.618  13.620  13.903
65655W        W24751  39.936   1.285   0.943
65656W        W24752  29.576  29.059   3.654
65657W        W24753   3.335  39.020  12.468
65658W        W24754   4.214   7.378   4.194
65659W        W24755   8.827  21.647   1.729
65660W        W24756  15.185  32.518  11.952
65661W        W24757  20.630  30.570  10.926
65662W        W24758  20.554   6.743   9.955
65663W        W24759  13.105  37.886  10.482
65664W        W24760  24.994  32.072   2.259
65665W        W24761  44.008  35.586  14.938
65666W        W24762  38.055  32.009   3.349
65667W        W24763  14.779  37.888  10.598
65668W        W24764   6.800   1.429  13.510
65669W        W24765  29.994  14.643  13.935
65670W        W24766  34.958  20.266   1.812
65671W        W24767  44.815   6.296  12.358
65672W        W24768  15.173  33.457   1.346
65673W        W24769  36.066  21.540   4.235
65674W        W24770  14.712   6.228   4.648
65675W        W24771  29.073  42.299  14.025
65676W        W24772  28.114   9.862   4.126
65677W        W24773   1.868   6.915  13.548
65678W        W24774  20.720  16.574  12.901
65679W        W24775  29.625  41.854   4.790
65680W        W24776   7.314  41.014   0.337
65681W        W24777   8.318  24.584  13.447
65682W        W24778  20.159  42.488   0.916
65683W        W24779  32.012  34.024  12.511
65684W        W24780  36.454  25.209  13.897
65685W        W24781   5.233  44.894  10.527
65686W        W24782   1.452  30.018  10.641
65687W        W24783  26.564   7.222  10.015
65688W        W24784   4.813   2.778   2.272
65689W        W24785  44.352  37.896  11.443
65690W        W24786  29.485  26.989  14.421
65691W        W24787  18.787  43.465   0.301
65692W        W24788   7.221  35.468  14.008
65693W        W24789  41.852  31.001   0.407
65694W        W24790  38.819   6.394  11.491
65695W        W24791  14.341   3.450   1.924
65696W        W24792  21.139  30.069   4.200
65697W        W24793   2.803   9.366   0.265
65698W        W24794  18.674  40.407  11.031
65699W        W24795  23.573  31.092  13.026
65700W        W24796  41.800  19.166   4.349
65701W        W24797   5.868  29.638  12.452
65702W        W24798  22.153  21.076  13.877
65703W        W24799  38.993  33.445  11.467
65704W        W24800  37.410  43.882  12.451
65705W        W24801  43.956  42.874  11.883
65706W        W24802   4.826  20.105   3.158
65707W        W24803  17.114  42.790   2.707
65708W        W24804   1.948  17.262  11.408
65709W        W24805  32.097  37.420  14.513
65710W        W24806   3.425   4.417   2.395
65711W        W24807  10.322   1.440   2.665
65712W        W24808  19.763  39.447   0.422
65713W        W24809  22.639  34.404  11.856
65714W        W24810  20.243   5.246   3.836
65715W        W24811  25.180   7.742   2.867
65716W        W24812  39.391  30.581  13.817
65717W        W24813  16.730   3.336  14.023
65718W        W24814  12.631  22.665   1.749
65719W        W24815  14.139  29.159   1.417
65720W        W24816  43.310  14.180   5.169
65721W        W24817  28.601  42.892   3.162
65722W        W24818  34.527  25.180  12.851
65723W        W24819  23.523  29.516   3.808
65724W        W24820  43.804   7.373  13.484
65725W        W24821  38.836  16.198   5.123
65726W        W24822  26.018  24.683  11.911
65727W        W24823  35.435  30.434   4.698
65728W        W24824  30.647  25.487   1.906
65729W        W24825  40.465  28.606   4.817
65730W        W24826  35.869  11.336  10.625
65731W        W24827  40.475  12.853   2.212
65732W        W24828  13.776   4.295   1.823
65733W        W24829   3.847   3.950  13.488
65734W        W24830  37.844  20.220  12.410
65735W        W24831  31.504  31.899  12.576
65736W        W24832  31.420  11.280   0.362
65737W        W24833  19.732  10.700   4.143
65738W        W24834  32.935  19.242  11.916
65739W        W24835  24.149  23.025  11.941
65740W        W24836  12.349  28.657   1.433
65741W        W24837  11.843  32.585   3.192
65742W        W24838  37.947  44.873   3.170
65743W        W24839  34.966  42.971   5.155
65744W        W24840  32.460  34.963  14.759
65745W        W24841  19.728  16.147   4.148
65746W        W24842   9.705  23.687   2.390
65747W        W24843   8.264  15.310   0.313
65748W        W24844  36.946  22.996  12.349
65749W        W24845  40.935  20.247  11.530
65750W        W24846  13.175  32.426   0.745
65751W        W24847  33.997  30.457  13.041
65752W        W24848  21.575  13.765   2.764
65753W        W24849   9.712  38.548   1.354
65754W        W24850  43.766  26.992  10.989
65755W        W24851  33.057  41.851  10.582
65756W        W24852  27.949  34.939   2.231
65757W        W24853  39.024   6.732  13.935
65758W        W24854  35.393  30.027  12.361
65759W        W24855  23.044  40.942  12.403
65760W        W24856   9.829  33.602  10.606
65761W        W24857   4.281   0.470   4.274
65762W        W24858   4.249   3.842   0.470
65763W        W24859  32.942  31.934  12.378
65764W        W24860  30.061  22.605  12.501
65765W        W24861  27.691  28.103   0.366
65766W        W24862  32.483  15.209  10.972
65767W        W24863  20.224  21.263  13.947
65768W        W24864   5.337  43.275  11.954
65769W        W24865   5.821  21.520   1.904
65770W        W24866  42.484  24.496   0.881
65771W        W24867  39.397   5.205  14.313
65772W        W24868   3.231  26.665  14.485
65773W        W24869  24.693  17.668   5.211
65774W        W24870   9.250  23.993   3.209
65775W        W24871  29.971   4.739   3.705
65776W        W24872  30.924  34.056  14.790
65777W        W24873  17.733  30.441  10.559
65778W        W24874  38.841   2.348   2.885
65779W        W24875  35.455   3.874   3.825
65780W        W24876   0.877  21.683   3.672
65781W        W24877  35.429  35.899  11.423
65782W        W24878  10.306  18.136   3.641
65783W        W24879  20.065  26.549  11.380
65784W        W24880   8.165  12.238   0.352
65785W        W24881   6.210   4.755  11.406
65786W        W24882  36.513  37.886  14.826
65787W        W24883  31.528  26.610   1.774
65788W        W24884  39.516  32.112   0.840
65789W        W24885  12.184  23.709  10.426
65790W        W24886  39.858  22.149   3.759
65791W        W24887   8.793  37.516   2.307
65792W        W24888  23.638  22.998   0.918
65793W        W24889  31.015   8.873  10.617
65794W        W24890  31.534   0.340  13.805
65795W        W24891   1.389   9.740  14.304
65796W        W24892  30.109  17.578  11.505
65797W        W24893   6.696  18.633  12.391
65798W        W24894  16.646  16.099  12.530
65799W        W24895  13.253  30.600  13.914
65800W        W24896  12.210   0.829  12.450
65801W        W24897   7.378  22.234  13.033
65802W        W24898  37.903   4.730  13.969
65803W        W24899   5.283  27.567  13.461
65804W        W24900  13.222  44.500   1.887
65805W        W24901  27.139  40.959   4.811
65806W        W24902  30.042   4.872  12.069
65807W        W24903   7.824   6.376   0.408
65808W        W24904  17.067  16.747  11.997
65809W        W24905  25.998   0.955   4.235
65810W        W24906  10.729   9.304  10.600
65811W        W24907  23.997   1.352  12.952
65812W        W24908  37.520   2.381  13.539
65813W        W24909   6.809  43.842   0.337
65814W        W24910  35.465  29.564   2.289
65815W        W24911  24.706  28.979   4.255
65816W        W24912  32.614  34.075   1.793
65817W        W24913  36.589  40.957   1.875
65818W        W24914  22.053  11.328  11.068
65819W        W24915   7.848  12.249   2.363
65820W        W24916  29.136  36.867  13.951
65821W        W24917   0.890  23.650  10.522
65822W        W24918   1.877  24.586  11.555
65823W        W24919   7.815  32.582   1.403
65824W        W24920   9.752  40.530   2.353
65825W        W24921   6.355  43.485   1.293
65826W        W24922   6.231  11.356   1.327
65827W        W24923  20.542   1.940   3.354
65828W        W24924  36.374  29.130   2.311
65829W        W24925  39.891  18.255  13.476
65830W        W24926  35.603   2.334  13.528
65831W        W24927  32.629  22.712  14.448
65832W        W24928  24.167  16.080   3.195
65833W        W24929  28.517  17.755  13.851
65834W        W24930  24.157  10.843   1.741
65835W        W24931   0.925  15.317  14.367
65836W        W24932  20.724  30.912  10.971
65837W        W24933  20.110  40.005  10.608
65838W        W24934   4.777  21.671   4.278
65839W        W24935  31.435  11.136  11.921
65840W        W24936  43.935  42.980  13.399
65841W        W24937  40.870  43.022   4.250
65842W        W24938   0.455  20.598  14.371
65843W        W24939   5.244  15.741   3.692
65844W        W24940   2.464  29.530  12.580
65845W        W24941  21.576   7.178  10.443
65846W        W24942  33.924  11.313  12.943
65847W        W24943  27.080   0.835  14.365
65848W        W24944   6.210  38.009  11.399
65849W        W24945  43.943   8.732  14.478
65850W        W24946   1.793  30.617   1.289
65851W        W24947  33.891  28.605  14.932
65852W        W24948  33.470  13.148  12.845
65853W        W24949   0.979  19.252   4.771
65854W        W24950   7.320  12.812  11.001
65855W        W24951   4.728  10.289   4.263
65856W        W24952  36.358  44.979   1.244
65857W        W24953  22.008  13.834   0.778
65858W        W24954  32.611  13.307  12.866
65859W        W24955  30.457  20.615  12.071
65860W        W24956  41.809   3.841  12.893
65861W        W24957   4.755   9.347   2.744
65862W        W24958   3.247  38.482   2.822
65863W        W24959  18.687  26.174  12.089
65864W        W24960  24.180  21.539   0.912
65865W        W24961  40.850  16.805   1.932
65866W        W24962   2.756   2.732   1.242
65867W        W24963   1.315  23.180  11.880
65868W        W24964  16.594   1.969  14.848
65869W        W24965  36.578  29.074  13.040
65870W        W24966  22.639  17.676  13.422
65871W        W24967   7.830  27.997   4.207
65872W        W24968   3.354  40.918   0.945
65873W        W24969  34.022  14.265   0.787
65874W        W24970  11.798  29.650  14.377
65875W        W24971  41.987  33.042   0.768
65876W        W24972  11.282  35.085   2.295
65877W        W24973  27.054  24.989   2.728
65878W        W24974  27.046  17.234  12.016
65879W        W24975   3.808  13.226  11.551
65880W        W24976   7.897   9.294   2.336
65881W        W24977  30.137  41.995   0.259
65882W        W24978  12.151  21.029  11.437
65883W        W24979  42.876   4.415  12.978
65884W        W24980  20.198   8.883   0.926
65885W        W24981  26.996  14.716   3.743
65886W        W24982   5.324  33.483   0.853
65887W        W24983  42.474  34.480   1.441
65888W        W24984  34.397  44.905  10.482
65889W        W24985   8.814  10.374  11.115
65890W        W24986  23.145  11.761  10.618
65891W        W24987  29.157  14.245  14.482
65892W        W24988  23.638  19.085   2.400
65893W        W24989  25.063  26.958  11.560
65894W        W24990  17.222   0.862   9.965
65895W        W24991  19.673  27.570   2.295
65896W        W24992  37.539  19.278   3.633
65897W        W24993  13.831  19.620   4.238
65898W        W24994  13.182  11.712  12.994
65899W        W24995  14.193   8.193  12.843
65900W        W24996   6.782   7.221  14.908
65901W        W24997   5.402  28.512  14.801
65902W        W24998  24.229  27.626  12.347
65903W        W24999   5.826  32.632   1.717
65904W        W25000  36.382  42.361   1.813
65905W        W25001  26.529  36.524  14.000
65906W        W25002   6.727  13.221  13.412
65907W        W25003   1.897  41.787  11.404
65908W        W25004  38.499   2.731   0.739
65909W        W25005  42.358   5.811   4.265
65910W        W25006   7.251  20.694  12.031
65911W        W25007  15.673  35.881   0.428
65912W        W25008  25.183   1.463   4.294
65913W        W25009  11.349  26.076  13.027
65914W        W25010  14.679  24.492   0.852
65915W        W25011  31.012   5.324   0.430
65916W        W25012  31.565  26.168   4.307
65917W        W25013   6.779  28.657  12.971
65918W        W25014  18.271  27.626   4.828
65919W        W25015  38.894  27.597   3.709
65920W        W25016  31.537   4.858   0.894
65921W        W25017  27.678   7.851  13.015
65922W        W25018  24.094  31.647   3.708
65923W        W25019   3.256   0.977   1.733
65924W        W25020  34.106  27.948   1.307
65925W        W25021  20.557  18.679   4.178
65926W        W25022  28.451  12.321  12.431
65927W        W25023  11.638  11.287   1.905
65928W        W25024   9.801  11.854  10.512
65929W        W25025  10.729  26.051  13.356
65930W        W25026  33.893  44.354   0.839
65931W        W25027  19.279   0.856  13.436
65932W        W25028  39.013  35.400  12.971
65933W        W25029  20.161  13.776  10.957
65934W        W25030   5.812   7.739  12.856
65935W        W25031  19.145  22.034  14.419
65936W        W25032   4.385  31.994  12.546
65937W        W25033  29.642   8.308  14.489
65938W        W25034  16.801  40.973   3.847
65939W        W25035  20.176   6.367  11.374
65940W        W25036  35.587  22.058  12.006
65941W        W25037   0.833   2.779   4.251
65942W        W25038   5.806  30.933  10.509
65943W        W25039  26.007  41.501  12.009
65944W        W25040  39.060  41.353  11.938
65945W        W25041  21.077  40.978  13.490
65946W        W25042   6.892  36.467  13.319
65947W        W25043  16.083  24.052   2.222
65948W        W25044  20.671  18.728  14.313
65949W        W25045  29.484   9.697   3.822
65950W        W25046  40.839  17.133   2.316
65951W        W25047  14.594  39.535   9.667
65952W        W25048   5.782   2.843   1.868
65953W        W25049  14.115   1.748   0.740
65954W        W25050   9.844   7.677   4.789
65955W        W25051  15.288  11.348   0.859
65956W        W25052   6.867  30.908   0.308
65957W        W25053   3.256  41.996   0.913
65958W        W25054  39.390  33.992   2.359
65959W        W25055  13.151   1.363   3.786
65960W        W25056   7.911   3.224   1.764
65961W        W25057   7.762  37.484  11.591
65962W        W25058  25.211  27.565   2.224
65963W        W25059  21.694  22.120   2.321
65964W        W25060   1.790  34.076  10.617
65965W        W25061  19.199   9.311  13.822
65966W        W25062   4.836   4.927   3.824
65967W        W25063  16.809  18.599   2.338
65968W        W25064   3.279  25.136   0.479
65969W        W25065  43.484   2.872  12.348
65970W        W25066   6.728  28.074   1.371
65971W        W25067  28.644  42.962   1.298
65972W        W25068  36.085  18.584   1.779
65973W        W25069  36.847  25.102  13.996
65974W        W25070  11.161  38.036  12.086
65975W        W25071  37.842   7.903   0.880
65976W        W25072   3.944  35.417  12.540
65977W        W25073  32.518  16.098   0.451
65978W        W25074  35.005  36.365   3.656
65979W        W25075  16.165   2.436   4.824
65980W        W25076  15.769  22.511   4.246
65981W        W25077  35.603  26.067   1.326
65982W        W25078  42.834  35.497   0.305
65983W        W25079  42.832  44.917  10.490
65984W        W25080  42.468   6.220  14.413
65985W        W25081   6.914  39.063  11.387
65986W        W25082  34.973   6.359  12.972
65987W        W25083  44.904  12.618  14.451
65988W        W25084  27.135  29.932   0.939
65989W        W25085   6.243   6.720   1.270
65990W        W25086  10.384  17.103  13.806
65991W        W25087  32.607   4.376   2.393
65992W        W25088   3.825  14.218   4.792
65993W        W25089  10.731  10.166  11.931
65994W        W25090   7.863  13.329   2.347
65995W        W25091   4.381  41.300  14.026
65996W        W25092   4.713  27.488  11.861
65997W        W25093   4.728  21.608   2.281
65998W        W25094  36.929  42.398   1.387
65999W        W25095   8.393  13.222  10.505
66000W        W25096  16.176  18.148  13.369
66001W        W25097   4.412  23.147  14.384
66002W        W25098   6.270   0.303   2.899
66003W        W25099  11.715  35.402   3.721
66004W        W25100   5.721  25.054   0.282
66005W        W25101  13.649  21.038   1.831
66006W        W25102  20.209   1.850  11.923
66007W        W25103  30.025   9.288  11.571
66008W        W25104  15.717  17.282   3.691
66009W        W25105   9.670  22.016  11.075
66010W        W25106  39.330   5.320   0.805
66011W        W25107  43.389   7.407   1.828
66012W        W25108  20.263  43.020   9.957
66013W        W25109  41.946   8.706  12.390
66014W        W25110  16.629   1.465   4.178
66015W        W25111  39.499  28.543  11.405
66016W        W25112  29.586  26.184  14.465
66017W        W25113  18.686   0.792   4.140
66018W        W25114  32.108  36.525  14.957
66019W        W25115  30.970  40.538  11.576
66020W        W25116  11.738  21.575  12.022
66021W        W25117  12.353   3.316  10.553
66022W        W25118  36.035  40.797   3.184
66023W        W25119  33.113  21.167   2.699
66024W        W25120   6.910  21.633  14.861
66025W        W25121  14.180  10.230   3.325
66026W        W25122  39.439  34.593   4.294
66027W        W25123  26.005  32.087  10.558
66028W        W25124   6.763  23.668  12.445
66029W        W25125  22.062  38.337   3.861
66030W        W25126   8.380  19.744   4.353
66031W        W25127  28.599   4.878   1.354
66032W        W25128  19.082  18.566   0.757
66033W        W25129  35.586   7.681   0.941
66034W        W25130  19.594   0.311  14.972
66035W        W25131  11.137  37.401   4.151
66036W        W25132  17.219   9.187  11.587
66037W        W25133  40.819   8.819   5.110
66038W        W25134  21.219  31.972   0.448
66039W        W25135  23.682  10.240   0.262
66040W        W25136  41.464  17.257   3.767
66041W        W25137  33.537  11.194   2.891
66042W        W25138  26.696  15.650  12.351
66043W        W25139  42.389  36.571  14.784
66044W        W25140  33.424  44.995   2.401
66045W        W25141  30.995  19.669   4.287
66046W        W25142  31.007   7.409   1.888
66047W        W25143  19.761   4.259   4.609
66048W        W25144  32.990   6.893  13.415
66049W        W25145  44.916   3.785  11.945
66050W        W25146  41.446  23.733   1.224
66051W        W25147  34.400  12.735   1.425
66052W        W25148   0.807   6.385   5.197
66053W        W25149  20.693   8.176  12.977
66054W        W25150  43.890  13.605  13.456
66055W        W25151  27.604  19.560   2.260
66056W        W25152   6.299  24.105   2.748
66057W        W25153   7.177  15.170   3.685
66058W        W25154   3.956  24.231  14.897
66059W        W25155  24.028  37.921   2.820
66060W        W25156  32.581  18.602  14.319
66061W        W25157   7.278  39.367   1.214
66062W        W25158  14.752  37.534  11.896
66063W        W25159  23.049  18.231  12.986
66064W        W25160  43.879  38.369  11.856
66065W        W25161  26.479   6.389  13.422
66066W        W25162   5.203  42.303  11.480
66067W        W25163  35.947  36.875   2.736
66068W        W25164   3.801  27.556  14.922
66069W        W25165  27.689  37.364   0.944
66070W        W25166   8.388   4.816  12.078
66071W        W25167  38.996  13.723   3.196
66072W        W25168  29.971  11.320   0.823
66073W        W25169   7.857  13.306   3.214
66074W        W25170  27.585   3.357  13.875
66075W        W25171  19.064  26.960  14.874
66076W        W25172  44.911  34.385   3.181
66077W        W25173  10.773  26.019   1.429
66078W        W25174  41.913  31.549  12.964
66079W        W25175  15.135  22.656  11.874
66080W        W25176  31.582  33.077   0.921
66081W        W25177   1.814   4.396   2.825
66082W        W25178  24.003   5.378  10.424
66083W        W25179   4.359  24.622   3.812
66084W        W25180   8.262  38.475  11.379
66085W        W25181  11.304  28.061  12.875
66086W        W25182  24.003   2.737  13.390
66087W        W25183  10.242  30.498  12.429
66088W        W25184  11.763  28.484   0.253
66089W        W25185   5.366  35.035  13.402
66090W        W25186  30.521  36.008   4.824
66091W        W25187  33.578  15.132  12.038
66092W        W25188  25.515   6.362  13.829
66093W        W25189   3.445  31.643   3.774
66094W        W25190  36.517  14.273   0.284
66095W        W25191  20.541  34.993  10.618
66096W        W25192  41.808   0.295  14.832
66097W        W25193   8.180  37.930  13.428
66098W        W25194  13.694   7.674   2.763
66099W        W25195  32.102  12.691  12.341
66100W        W25196  30.615  42.936   1.745
66101W        W25197  13.326  42.280  13.410
66102W        W25198  11.642   1.251  14.507
66103W        W25199  44.464  20.255  10.481
66104W        W25200   6.408  43.895  12.415
66105W        W25201  33.407   8.349   3.155
66106W        W25202  42.519  10.285   4.654
66107W        W25203   0.867  30.998  14.395
66108W        W25204  16.677   4.795  10.460
66109W        W25205  21.164  11.854  11.598
66110W        W25206  22.705  42.929   2.809
66111W        W25207   4.923  20.184  12.908
66112W        W25208   3.718   5.898   1.866
66113W        W25209  15.665  15.818   4.698
66114W        W25210   3.930   7.859  14.960
66115W        W25211   6.344  41.346   2.751
66116W        W25212  11.302   3.230   2.692
66117W        W25213  39.525   6.196   0.826
66118W        W25214   3.391   2.845   2.744
66119W        W25215  32.496  21.728   3.252
66120W        W25216  38.028  22.087  13.473
66121W        W25217   7.404  23.579  10.942
66122W        W25218   1.877  15.253  12.385
66123W        W25219  11.238  29.641  13.998
66124W        W25220   0.946  23.658  14.356
66125W        W25221  43.850  42.298  11.925
66126W        W25222  12.663  11.231   2.225
66127W        W25223  13.760   0.750  13.508
66128W        W25224  28.019  17.798   2.194
66129W        W25225  42.881  14.228   2.878
66130W        W25226  28.501   5.405   4.622
66131W        W25227  29.016  14.199  13.355
66132W        W25228  28.559  25.678  11.865
66133W        W25229   7.223  33.575  10.916
66134W        W25230  21.130   2.922  10.513
66135W        W25231  26.960  11.639   0.262
66136W        W25232  44.792  26.667   2.668
66137W        W25233  15.217  12.749   3.151
66138W        W25234  10.293  31.486  12.415
66139W        W25235  43.796   5.774  14.914
66140W        W25236  34.960  30.015   1.879
66141W        W25237  43.475  28.628  12.488
66142W        W25238  24.637  26.169   1.257
66143W        W25239  24.086   9.775  11.958
66144W        W25240  27.191  43.946   2.840
66145W        W25241  35.007  27.690   4.704
66146W        W25242   6.745  34.582   4.677
66147W        W25243   2.881  17.630   0.358
66148W        W25244  32.921  13.618   9.504
66149W        W25245  26.135  41.851   4.192
66150W        W25246  28.522  37.996  11.096
66151W        W25247  38.920  21.700  13.906
66152W        W25248  39.419   7.260  13.038
66153W        W25249   7.281  12.825   0.934
66154W        W25250   4.858  18.682  10.931
66155W        W25251   8.319  27.616  13.797
66156W        W25252  34.923  16.640  12.462
66157W        W25253  35.975   2.789   2.184
66158W        W25254  11.226  32.943  10.911
66159W        W25255  25.536  12.830  13.355
66160W        W25256  36.995  43.303   2.813
66161W        W25257   4.405   2.305  13.345
66162W        W25258  22.048   8.179   4.218
66163W        W25259  28.044  16.684   4.828
66164W        W25260  28.967  37.838   0.405
66165W        W25261  30.164  15.592  14.861
66166W        W25262   4.411   3.412   3.724
66167W        W25263  41.525  24.507   4.119
66168W        W25264  41.939  25.050   3.366
66169W        W25265  19.715  16.595   4.208
66170W        W25266  23.018  16.685  12.430
66171W        W25267  30.515  35.566   3.291
66172W        W25268  16.085  39.534  14.870
66173W        W25269  39.532   5.199  10.576
66174W        W25270  23.199  20.747   3.238
66175W        W25271  11.338   6.794  12.480
66176W        W25272  38.518   5.322  10.924
66177W        W25273  19.155   2.415   2.820
66178W        W25274  35.998  18.061  14.834
66179W        W25275  28.972   0.357   3.718
66180W        W25276  11.655  27.483  14.331
66181W        W25277  28.099   9.385   0.815
66182W        W25278  19.254  39.828   3.375
66183W        W25279   6.413  28.071  13.908
66184W        W25280  12.819  12.126  12.424
66185W        W25281  24.220  23.213   5.133
66186W        W25282  29.668   5.814   4.348
66187W        W25283   8.670  42.439  14.507
66188W        W25284  26.987  13.107  10.993
66189W        W25285  17.185  39.380  12.408
66190W        W25286  40.802  31.582  13.406
66191W        W25287   5.382  15.619   3.367
66192W        W25288  26.626   9.222  11.085
66193W        W25289  13.828  24.495  14.860
66194W        W25290   2.865  24.224  12.423
66195W        W25291   2.242  32.974  11.606
66196W        W25292  22.016  38.533  12.357
66197W        W25293  28.092  25.115  11.048
66198W        W25294   8.741  31.090  14.460
66199W        W25295   6.396  29.603   1.843
66200W        W25296  41.010  38.356   3.745
66201W        W25297  44.798  24.167   1.806
66202W        W25298   5.290  43.498  11.584
66203W        W25299  37.958  16.590  14.828
66204W        W25300  25.990   1.381   4.125
66205W        W25301  13.170  32.893  11.904
66206W        W25302   6.821   5.735  13.319
66207W        W25303  15.715   5.876  13.851
66208W        W25304  21.114  24.141  13.500
66209W        W25305  35.535   1.462   2.411
66210W        W25306  13.327   1.437   4.824
66211W        W25307  24.214  39.898  11.436
66212W        W25308   6.287  13.795  12.095
66213W        W25309  35.108  34.439   4.701
66214W        W25310   4.705  17.139  10.503
66215W        W25311  43.502  30.515  10.533
66216W        W25312  41.338   2.308  13.525
66217W        W25313  22.591  21.248  13.454
66218W        W25314  44.893   0.307  12.343
66219W        W25315  14.785  44.959  11.482
66220W        W25316   5.365  36.090  13.529
66221W        W25317  11.819  38.944   3.673
66222W        W25318  30.480  43.332  14.020
66223W        W25319   9.754  24.168  11.926
66224W        W25320  28.136  31.063   2.708
66225W        W25321  33.951   9.393   2.290
66226W        W25322   2.861   0.935  13.389
66227W        W25323   3.277  21.084   1.695
66228W        W25324  10.219  32.412   4.144
66229W        W25325  26.681   1.889  13.848
66230W        W25326  33.053  41.964  12.348
66231W        W25327  38.867  44.875   3.789
66232W        W25328  30.040  32.494   0.933
66233W        W25329   3.933  21.205   9.994
66234W        W25330  27.548  35.378  11.949
66235W        W25331  18.740   5.917   3.300
66236W        W25332   3.351  34.119  11.889
66237W        W25333  17.722  43.984   3.762
66238W        W25334  33.473  41.002   1.404
66239W        W25335  35.024  19.191   2.181
66240W        W25336  16.305  33.558  14.766
66241W        W25337  22.227  35.371   4.253
66242W        W25338  19.684  16.737   4.816
66243W        W25339  16.134  41.505  12.985
66244W        W25340   9.700  23.589   3.817
66245W        W25341  26.627  25.127   5.081
66246W        W25342  28.600  28.177  11.562
66247W        W25343  28.567  38.034   1.373
66248W        W25344  39.913  39.417  13.001
66249W        W25345  20.694   1.460   0.430
66250W        W25346  14.801   7.401   3.352
66251W        W25347  10.319  23.097   0.921
66252W        W25348  21.191   4.785  12.050
66253W        W25349   8.735   0.915  10.981
66254W        W25350  16.784  37.568   3.308
66255W        W25351   1.950  34.554   2.843
66256W        W25352  26.998  17.651   0.319
66257W        W25353   9.370  43.008   0.351
66258W        W25354  19.214   7.862   0.913
66259W        W25355   5.297   2.264  14.387
66260W        W25356   6.314  42.365   0.330
66261W        W25357  43.515  18.669  14.018
66262W        W25358  20.731  22.585  12.470
66263W        W25359  36.895  40.416   0.402
66264W        W25360  25.576  31.078  14.982
66265W        W25361  30.074  12.134   0.320
66266W        W25362  25.981   2.951  12.435
66267W        W25363  14.681  32.060  13.490
66268W        W25364   6.867   8.801  10.645
66269W        W25365  17.134  40.020  14.430
66270W        W25366  17.096   9.323  10.098
66271W        W25367   5.900  26.636  12.904
66272W        W25368   0.975  12.133  14.937
66273W        W25369  22.105  21.070  10.056
66274W        W25370  22.213   1.791   3.748
66275W        W25371   2.302  20.699   3.352
66276W        W25372  18.674  36.512   3.167
66277W        W25373  44.954  29.462   0.938
66278W        W25374   8.317  10.722  13.821
66279W        W25375  13.838   1.758   3.858
66280W        W25376  39.990  38.571   3.182
66281W        W25377   8.671  30.618   0.265
66282W        W25378  19.178  43.457  14.384
66283W        W25379  37.076  33.616  14.831
66284W        W25380  21.669   9.712  10.450
66285W        W25381  40.928  15.578   0.450
66286W        W25382  39.039  42.320   3.774
66287W        W25383  20.634   2.800   0.405
66288W        W25384  29.528  31.020   3.382
66289W        W25385  42.851   2.472   1.786
66290W        W25386   6.733  17.111  11.545
66291W        W25387  36.482  23.647   0.278
66292W        W25388  14.658   6.422  13.037
66293W        W25389  11.180   3.855  13.421
66294W        W25390  32.117  34.982  12.844
66295W        W25391  37.381  41.901  11.541
66296W        W25392  41.417  39.871  12.484
66297W        W25393  22.554  29.962  12.887
66298W        W25394  36.976  25.621  10.080
66299W        W25395   3.422  27.030   1.826
66300W        W25396  40.824  35.589  14.487
66301W        W25397  36.584  14.656  11.129
66302W        W25398  42.860  42.855   4.329
66303W        W25399  22.038   2.725  10.507
66304W        W25400   7.756   3.446  12.022
66305W        W25401  44.448  33.555   2.375
66306W        W25402  43.002  34.409  11.115
66307W        W25403  42.932  43.419   4.828
66308W        W25404  28.473   6.283   3.658
66309W        W25405  29.148  33.101  10.465
66310W        W25406  32.399  31.119  12.062
66311W        W25407  11.865  16.667   4.832
66312W        W25408  40.468  20.699   4.169
66313W        W25409  25.086  15.779   4.647
66314W        W25410  12.286  24.073   0.321
66315W        W25411  11.153  35.547  11.898
66316W        W25412  15.667  14.765   4.324
66317W        W25413  14.769  27.074   4.257
66318W        W25414  15.084  34.057   0.943
66319W        W25415  34.865  22.520   2.818
66320W        W25416   7.288  38.967   4.747
66321W        W25417  30.523  42.312  14.467
66322W        W25418  38.898  26.199  13.797
66323W        W25419  23.498  41.043  11.930
66324W        W25420  20.589  32.449   4.265
66325W        W25421  28.621  33.481   2.298
66326W        W25422  13.766  35.569  13.384
66327W        W25423  33.442  15.250  14.380
66328W        W25424  17.149  42.874  10.936
66329W        W25425   3.779  44.766   1.773
66330W        W25426  10.643   4.381  12.385
66331W        W25427  41.996  44.437   0.949
66332W        W25428   9.647   3.274   1.923
66333W        W25429   0.254  27.471   4.683
66334W        W25430  31.922  19.739  13.327
66335W        W25431   5.225  31.012  11.530
66336W        W25432  42.368   9.240  12.435
66337W        W25433  12.716  41.379   4.639
66338W        W25434  22.604  38.920   2.275
66339W        W25435   4.301  30.014   3.262
66340W        W25436  14.187  28.050  12.991
66341W        W25437  40.434  29.519  14.946
66342W        W25438  28.127  41.381   3.257
66343W        W25439   4.223  39.895  10.556
66344W        W25440  13.772   3.340  14.792
66345W        W25441   4.297  31.124   2.267
66346W        W25442   8.290  39.444  11.100
66347W        W25443  35.507   3.932   0.444
66348W        W25444  25.067  18.267   3.788
66349W        W25445  39.459  40.484  14.908
66350W        W25446  19.612  22.118   2.380
66351W        W25447  33.604  44.469   1.317
66352W        W25448  41.879  39.548   1.266
66353W        W25449  34.982  28.973  10.931
66354W        W25450  25.678  26.563  14.951
66355W        W25451  35.036  14.318   0.316
66356W        W25452  38.015  35.410   2.688
66357W        W25453  39.380   2.923  12.375
66358W        W25454  25.089  15.713   0.323
66359W        W25455  20.570  39.464   1.360
66360W        W25456  12.319  18.210   1.379
66361W        W25457  10.152  25.649  12.532
66362W        W25458  25.508  41.963  13.043
66363W        W25459  12.224  25.531   4.259
66364W        W25460  31.402   7.393   3.848
66365W        W25461  31.508  20.252   9.931
66366W        W25462  25.216  13.783   0.726
66367W        W25463  31.952  22.695   3.731
66368W        W25464  15.757   9.186   1.273
66369W        W25465  19.049  17.700  12.062
66370W        W25466   6.350  40.542  11.126
66371W        W25467  34.443   4.836  14.996
66372W        W25468  42.997  14.274  13.794
66373W        W25469  43.454  21.235   3.349
66374W        W25470  44.778  31.028   2.273
66375W        W25471  41.920   8.832   3.786
66376W        W25472  41.396  21.730  11.478
66377W        W25473  34.558  14.180   3.705
66378W        W25474  14.160  39.991  11.523
66379W        W25475  15.771  30.130   4.307
66380W        W25476  34.579  19.208   1.271
66381W        W25477  42.974   6.242  11.050
66382W        W25478   5.754  27.559  13.427
66383W        W25479  40.407  30.473  10.904
66384W        W25480   2.369  43.422  13.979
66385W        W25481  38.958  42.321   2.767
66386W        W25482   9.771  27.012  14.464
66387W        W25483  25.123  13.340   2.730
66388W        W25484  22.175  40.881   0.898
66389W        W25485  19.056  28.932   2.751
66390W        W25486   8.791  28.031   3.374
66391W        W25487  16.566  41.908  12.898
66392W        W25488   7.824  19.226  14.932
66393W        W25489  22.134  24.231  11.543
66394W        W25490  42.506   9.776  14.988
66395W        W25491   9.307  12.142   2.849
66396W        W25492  21.540   5.259  12.080
66397W        W25493  28.677  26.647   2.888
66398W        W25494  11.783  36.869   2.408
66399W        W25495   5.298  13.726   1.812
66400W        W25496   7.672  43.394   4.324
66401W        W25497  33.037  32.593  11.042
66402W        W25498  43.865  44.930  12.419
66403W        W25499  11.137  10.161   4.329
66404W        W25500  31.449   3.720   2.690
66405W        W25501  24.194   1.804   4.300
66406W        W25502  42.402   7.286  14.923
66407W        W25503  20.062  12.256   2.879
66408W        W25504  27.582  10.814  14.811
66409W        W25505  37.984  43.018   3.778
66410W        W25506  30.066   1.828   2.412
66411W        W25507  40.876  25.497   3.367
66412W        W25508  15.237  31.076  12.412
66413W        W25509  41.435  30.105  14.860
66414W        W25510  23.133   4.745   4.802
66415W        W25511  21.593  23.516  12.898
66416W        W25512  40.375  32.509   2.882
66417W        W25513  11.793  30.467  12.355
66418W        W25514  27.541  12.772   0.350
66419W        W25515  21.640  19.537  14.410
66420W        W25516  29.435  35.485  12.913
66421W        W25517  39.542  19.218  14.852
66422W        W25518  28.128   1.431   1.446
66423W        W25519   5.835  40.023   2.396
66424W        W25520  42.879  11.744   2.824
66425W        W25521  33.058  26.634  13.041
66426W        W25522  41.348   8.220  10.598
66427W        W25523  21.218  44.788   1.438
66428W        W25524  16.777  33.063  14.278
66429W        W25525  11.280  14.173   5.227
66430W        W25526  42.884   9.236  12.554
66431W        W25527  39.935  26.597   2.694
66432W        W25528  35.415  34.376  11.510
66433W        W25529  21.168  44.973  14.881
66434W        W25530   3.853  17.684   2.234
66435W        W25531   9.339  37.442   2.759
66436W        W25532  42.849   6.275   3.738
66437W        W25533   6.314  16.234  12.400
66438W        W25534   4.272  38.379  13.977
66439W        W25535   6.871  43.820   1.445
66440W        W25536  38.376  23.503  11.506
66441W        W25537  36.956  43.452  13.341
66442W        W25538  36.549   7.330  14.814
66443W        W25539  16.075  21.526   3.635
66444W        W25540  24.092  31.490  10.926
66445W        W25541  34.545  33.023  12.973
66446W        W25542  10.324  12.341  11.572
66447W        W25543  11.849  43.844  12.843
66448W        W25544  17.654  37.927  10.049
66449W        W25545   4.427   2.307   2.212
66450W        W25546  23.140  26.616  13.533
66451W        W25547  25.157  12.754  11.499
66452W        W25548   5.869  15.182   4.179
66453W        W25549   0.778  30.509  13.484
66454W        W25550  30.912  14.212  11.488
66455W        W25551  31.431  12.828  11.092
66456W        W25552  24.512  10.694  14.471
66457W        W25553  22.621  26.473   5.241
66458W        W25554  18.702  22.738  11.102
66459W        W25555  36.371  18.700   1.829
66460W        W25556  23.702   8.798  13.940
66461W        W25557   9.763  43.828  12.472
66462W        W25558  14.166  14.626   3.354
66463W        W25559  38.003  36.089  13.333
66464W        W25560  26.494   0.939  11.513
66465W        W25561  37.372   0.888   2.251
66466W        W25562   0.370   5.837   2.297
66467W        W25563   4.447  33.021   0.243
66468W        W25564  21.593  37.023   2.738
66469W        W25565  36.902   2.468  14.307
66470W        W25566  19.610  36.842  12.932
66471W        W25567  43.011  31.611  12.958
66472W        W25568   7.180  10.734  12.009
66473W        W25569   7.869  26.120  11.989
66474W        W25570  31.924   3.749  13.888
66475W        W25571  41.981   5.722   3.326
66476W        W25572  32.523  23.644  13.912
66477W        W25573  34.063  29.110  13.323
66478W        W25574  40.518  20.572  10.564
66479W        W25575  36.854  12.615   4.214
66480W        W25576  23.503  26.180  13.899
66481W        W25577   1.967  32.933   3.812
66482W        W25578  15.753   4.852  14.464
66483W        W25579  20.578  40.484  13.453
66484W        W25580  33.500   8.699   1.823
66485W        W25581  33.930  23.639  12.397
66486W        W25582  32.542  13.714   4.811
66487W        W25583   2.373  35.968   1.234
66488W        W25584  16.183  17.728  11.603
66489W        W25585  26.021  42.923   0.244
66490W        W25586   5.735  15.632   3.651
66491W        W25587  17.282  21.605  13.020
66492W        W25588  30.980  34.542   1.750
66493W        W25589  34.076  40.837   3.248
66494W        W25590  41.365   8.892   5.211
66495W        W25591  19.536  37.911   5.131
66496W        W25592  23.557  15.668  12.935
66497W        W25593   1.355  41.358   3.221
66498W        W25594  17.793  42.972  11.110
66499W        W25595  14.337   6.317  10.523
66500W        W25596   3.219  35.446   2.226
66501W        W25597   0.867  16.761   2.297
66502W        W25598  19.048  26.998   4.195
66503W        W25599  26.066  43.394  14.777
66504W        W25600   6.263  13.200   3.165
66505W        W25601   9.200  39.844  11.589
66506W        W25602  44.468  18.787   0.463
66507W        W25603   4.292  24.014  12.893
66508W        W25604  21.118  10.335  12.860
66509W        W25605  38.047  30.475  11.493
66510W        W25606  36.543  25.126  13.046
66511W        W25607  20.220  11.654   2.320
66512W        W25608  23.239  30.127   0.428
66513W        W25609  37.569   8.767  13.315
66514W        W25610  40.481  43.954   2.219
66515W        W25611   2.810  15.187  12.535
66516W        W25612  27.066  42.310   4.721
66517W        W25613   2.867  42.830  14.427
66518W        W25614  35.987  14.216   4.337
66519W        W25615  40.854  20.620   4.614
66520W        W25616  13.791  11.731   0.332
66521W        W25617  23.555   3.458   4.347
66522W        W25618   1.920   6.894   3.252
66523W        W25619  43.951  43.860   3.828
66524W        W25620  17.229  21.049  10.597
66525W        W25621  43.327   1.976  10.541
66526W        W25622   5.803  21.608  11.461
66527W        W25623  27.130   1.822  12.828
66528W        W25624   3.928  13.109   3.641
66529W        W25625  40.419  33.481   5.103
66530W        W25626   1.305  24.520   3.185
66531W        W25627  11.215  30.919  13.487
66532W        W25628  21.752  37.433  10.435
66533W        W25629  14.675   0.430  14.966
66534W        W25630  42.946  18.077   0.823
66535W        W25631  19.135  24.166   3.781
66536W        W25632   7.744  33.470   2.225
66537W        W25633  37.925   9.649   0.872
66538W        W25634  39.935  37.850   0.886
66539W        W25635  37.998  27.141  12.089
66540W        W25636  13.283  28.615  12.499
66541W        W25637  40.881   2.238   3.720
66542W        W25638  41.308  12.782   1.710
66543W        W25639  22.682   8.774  10.149
66544W        W25640  10.354  38.974   4.711
66545W        W25641  27.036  35.932   3.290
66546W        W25642   0.290  22.224  12.413
66547W        W25643  44.376  43.272   1.833
66548W        W25644  13.265  41.313   2.881
66549W        W25645  40.525  14.633  12.342
66550W        W25646  13.790  10.150   2.891
66551W        W25647  27.166  18.672   0.915
66552W        W25648   9.377  17.066  13.025
66553W        W25649  19.547   5.297   1.421
66554W        W25650  43.793   1.459  11.427
66555W        W25651  44.939  23.680  13.039
66556W        W25652  40.371  23.676  10.512
66557W        W25653   3.813  23.585  14.924
66558W        W25654  18.657  20.201  11.890
66559W        W25655  28.571  10.232   0.308
66560W        W25656   5.423  44.874   1.797
66561W        W25657   1.876  32.409   2.738
66562W        W25658  21.038   9.654  11.603
66563W        W25659   5.925  32.920   3.635
66564W        W25660  16.597  28.033  12.835
66565W        W25661  31.528   1.327  14.337
66566W        W25662  22.583  16.153   4.308
66567W        W25663  22.998  37.879   1.860
66568W        W25664  28.673  30.938   2.841
66569W        W25665  38.440  40.402  10.556
66570W        W25666   1.423  18.084   1.307
66571W        W25667   8.250  24.537   1.288
66572W        W25668   8.777  15.672  14.991
66573W        W25669  23.208   8.370   3.683
66574W        W25670  29.442   7.347  14.929
66575W        W25671   3.403  10.154   0.308
66576W        W25672  27.063  34.570   4.160
66577W        W25673  40.852  34.109  12.992
66578W        W25674  15.297  30.466   0.330
66579W        W25675  26.154  28.649  13.879
66580W        W25676  33.597   5.879   3.231
66581W        W25677  36.507  21.259  11.461
66582W        W25678   8.821  35.106   4.625
66583W        W25679   7.875  36.866  12.969
66584W        W25680  41.856  16.235  11.871
66585W        W25681   5.424   6.901  14.998
66586W        W25682  33.448  15.149   0.795
66587W        W25683  33.112   6.733  12.548
66588W        W25684  14.108  24.147   1.848
66589W        W25685  12.835  31.456  14.992
66590W        W25686  40.348  20.111  12.031
66591W        W25687   4.891  42.921  10.562
66592W        W25688  27.173  11.143   4.257
66593W        W25689  14.721  28.476  13.390
66594W        W25690  40.831  18.661   0.904
66595W        W25691  35.043  41.415  13.906
66596W        W25692  20.598  29.020  12.029
66597W        W25693  44.986  30.162  12.410
66598W        W25694  23.159  21.035   1.740
66599W        W25695   3.861  37.038  11.471
66600W        W25696  33.384  12.623  12.535
66601W        W25697  39.030  12.338  13.475
66602W        W25698  35.400   9.865   1.866
66603W        W25699   3.256  33.615  10.514
66604W        W25700  32.509  22.716  12.400
66605W        W25701  14.699  27.585   2.903
66606W        W25702  35.380  17.307  14.982
66607W        W25703  26.990  40.345   4.315
66608W        W25704   0.462  11.227  13.894
66609W        W25705   5.812   5.275   4.675
66610W        W25706  18.107  34.988  12.000
66611W        W25707  30.623   4.223  10.510
66612W        W25708  22.030   6.693   2.311
66613W        W25709   6.338  39.553   2.866
66614W        W25710  39.459  20.041   0.821
66615W        W25711  30.961   7.281  14.962
66616W        W25712  39.321  24.086   1.252
66617W        W25713  39.845  23.549  13.388
66618W        W25714  12.320  28.995   2.331
66619W        W25715  17.642  32.071  12.569
66620W        W25716  10.665  29.102  10.922
66621W        W25717   4.251  32.409  12.438
66622W        W25718  37.055  17.218   2.785
66623W        W25719  22.561  25.663   3.651
66624W        W25720   8.670  29.500   1.312
66625W        W25721  31.477  35.871  14.965
66626W        W25722  39.331  37.906   1.379
66627W        W25723  35.585  19.593  12.388
66628W        W25724  14.598  29.476   0.880
66629W        W25725   0.275  20.270  14.442
66630W        W25726  10.207   9.787   4.605
66631W        W25727  42.857   2.424   1.428
66632W        W25728  31.036  43.361   1.315
66633W        W25729  37.908  10.267   0.785
66634W        W25730   2.419  31.034  11.114
66635W        W25731  40.397  37.981  13.390
66636W        W25732   0.822  15.624   0.897
66637W        W25733  21.170   9.295   2.322
66638W        W25734  33.459  42.477  11.497
66639W        W25735   2.404   8.686  10.159
66640W        W25736  24.724  27.155   2.781
66641W        W25737  13.230  23.535  11.997
66642W        W25738   5.829  22.079   1.238
66643W        W25739  42.816  27.555   1.267
66644W        W25740  26.010  11.144   0.811
66645W        W25741   6.358   1.478  14.331
66646W        W25742   3.846  30.432   5.117
66647W        W25743  14.181  14.158   1.401
66648W        W25744  19.672  34.071  12.879
66649W        W25745   2.349  17.583   2.765
66650W        W25746   4.823  33.422  10.478
66651W        W25747  16.589   5.240  11.477
66652W        W25748  23.127  12.855  12.923
66653W        W25749  21.263   2.963  13.536
66654W        W25750   8.275   4.738  13.938
66655W        W25751   1.857  30.551   2.256
66656W        W25752  38.333  15.294  13.329
66657W        W25753   7.299  15.116   0.728
66658W        W25754  44.309  13.232  11.579
66659W        W25755  32.405  34.979   2.374
66660W        W25756  25.061  34.920  11.959
66661W        W25757   0.870   1.353  14.302
66662W        W25758   0.407   9.177   3.852
66663W        W25759   5.287  18.705  11.561
66664W        W25760  32.896  20.110  13.892
66665W        W25761  42.936  38.993  14.845
66666W        W25762  29.958  35.570   0.458
66667W        W25763  29.936  19.095  14.390
66668W        W25764  31.954   5.274  11.554
66669W        W25765  17.567  44.265   2.363
66670W        W25766   6.909  37.515   3.167
66671W        W25767  32.989  44.313  10.485
66672W        W25768  18.267   8.344   3.264
66673W        W25769   4.331  21.707  13.530
66674W        W25770  41.817  12.174   3.786
66675W        W25771  12.657  43.972   1.363
66676W        W25772  25.218  28.471  12.575
66677W        W25773  44.291  22.224  10.508
66678W        W25774  34.884  32.029   1.277
66679W        W25775  37.417   3.338   3.288
66680W        W25776  17.071   3.950   2.717
66681W        W25777   6.828  33.064  11.521
66682W        W25778   0.363  21.548   3.263
66683W        W25779  11.826   7.324  10.617
66684W        W25780   2.254  13.628  13.910
66685W        W25781  12.144  23.188   3.633
66686W        W25782  40.891  35.040   4.810
66687W        W25783   9.735  43.887   2.811
66688W        W25784  22.043  38.957  13.840
66689W        W25785  17.305  25.589   1.827
66690W        W25786   8.173   9.289  11.559
66691W        W25787  19.281  18.773  11.934
66692W        W25788  21.551  21.647   2.234
66693W        W25789   4.775  40.396  14.439
66694W        W25790   0.334   0.493   4.753
66695W        W25791  35.377  18.120  12.824
66696W        W25792   1.293  24.057  14.841
66697W        W25793  36.438  36.428   3.751
66698W        W25794  12.767   6.230   4.624
66699W        W25795   1.334   9.854   0.737
66700W        W25796  34.413   4.844   0.775
66701W        W25797   5.428  14.198  13.428
66702W        W25798  33.011  24.068   0.463
66703W        W25799   5.361  35.372  14.979
66704W        W25800  43.935  44.882  11.597
66705W        W25801  16.245  13.281   2.355
66706W        W25802  17.253  44.932  11.000
66707W        W25803  44.919  13.124  11.911
66708W        W25804  37.381   0.795  14.420
66709W        W25805  13.199  40.414   0.374
66710W        W25806  37.382  31.451   0.870
66711W        W25807  39.049   5.891  13.946
66712W        W25808  10.383  44.942  11.415
66713W        W25809   0.329  14.208  13.009
66714W        W25810  39.379  18.701  12.436
66715W        W25811  11.750   6.787  10.145
66716W        W25812  33.542   0.946   3.771
66717W        W25813  35.604  27.653  14.764
66718W        W25814  17.133  33.940   2.230
66719W        W25815  29.149  38.843  11.411
66720W        W25816  30.587  33.483   2.415
66721W        W25817  13.126   3.333   0.327
66722W        W25818  32.613   7.288  13.815
66723W        W25819  13.178   9.663  12.989
66724W        W25820  14.625   9.335   2.355
66725W        W25821  31.642  38.447  10.898
66726W        W25822  22.562   7.812   1.903
66727W        W25823  26.072   6.289   2.773
66728W        W25824  25.152  20.569  13.328
66729W        W25825   2.833  12.179   3.283
66730W        W25826  30.461   8.874  12.957
66731W        W25827  12.777  22.064  13.805
66732W        W25828   5.885  11.273  12.880
66733W        W25829  36.539  21.683  10.441
66734W        W25830  13.799  25.643   2.286
66735W        W25831   4.832  17.722   4.669
66736W        W25832   6.691   2.800   4.262
66737W        W25833  25.473  17.263   2.813
66738W        W25834   5.323   7.908  13.862
66739W        W25835  21.708   5.806  10.987
66740W        W25836   4.352  42.517  11.596
66741W        W25837  34.550  11.693   3.255
66742W        W25838  44.497  22.194  12.087
66743W        W25839  29.514  20.153   1.785
66744W        W25840  12.830   1.817   0.375
66745W        W25841  32.606   4.845   4.159
66746W        W25842  32.959  39.451   3.699
66747W        W25843   2.829  28.167  14.426
66748W        W25844   4.896  30.942   2.252
66749W        W25845  31.524  24.993   1.875
66750W        W25846  11.272   6.222   3.731
66751W        W25847   0.459  12.200  12.927
66752W        W25848  40.458  36.953  10.440
66753W        W25849  15.108  22.630  13.518
66754W        W25850  32.518  22.665   1.827
66755W        W25851  10.177  37.922  12.489
66756W        W25852  22.547  34.982   1.728
66757W        W25853   9.758  16.752   3.750
66758W        W25854  11.188  18.646  11.512
66759W        W25855  18.661  36.989   3.649
66760W        W25856  12.649  44.994   2.222
66761W        W25857  24.037  20.720   2.285
66762W        W25858  19.547  12.814   1.712
66763W        W25859  43.978  33.089   2.221
66764W        W25860   6.923  32.571   1.312
66765W        W25861  33.469  38.408   3.302
66766W        W25862  17.120  33.484   5.321
66767W        W25863   6.362  31.139   0.938
66768W        W25864  31.144  35.104   5.313
66769W        W25865  13.711  20.253  12.972
66770W        W25866   9.709  35.886   0.905
66771W        W25867  43.802  24.103  11.455
66772W        W25868   7.342  28.583   3.351
66773W        W25869  29.001   9.876  14.907
66774W        W25870  33.878   4.758  11.014
66775W        W25871  22.719  10.355  13.052
66776W        W25872   9.774  31.022  11.861
66777W        W25873  13.844  40.475   0.742
66778W        W25874  25.060  29.515  13.984
66779W        W25875  40.419  40.329   4.753
66780W        W25876  35.053   7.354  13.464
66781W        W25877  28.084   1.329   1.923
66782W        W25878  17.158  26.676  11.116
66783W        W25879   7.886  20.584  14.977
66784W        W25880  10.831  28.514   1.230
66785W        W25881  25.537  21.616   1.923
66786W        W25882  35.039  19.150  14.454
66787W        W25883  28.097  12.637  12.890
66788W        W25884  11.789  18.239  14.459
66789W        W25885  30.420  31.574  13.823
66790W        W25886  37.967   7.205   1.235
66791W        W25887  39.484  17.579   0.249
66792W        W25888   1.878  44.981  13.316
66793W        W25889  21.557  40.373  12.518
66794W        W25890  14.213  43.380   4.681
66795W        W25891  22.103  36.551   1.876
66796W        W25892  27.113  22.617  11.022
66797W        W25893  12.192   7.867  12.374
66798W        W25894  37.847  10.648  14.372
66799W        W25895  12.803  41.004  10.452
66800W        W25896  44.295  37.921   4.201
66801W        W25897  20.246  26.203   2.739
66802W        W25898  38.938  15.727  11.458
66803W        W25899  12.140   4.354   2.760
66804W        W25900  33.453  26.664   4.290
66805W        W25901  34.567   8.740   1.790
66806W        W25902  44.986  39.037   3.770
66807W        W25903  24.094  31.058   4.154
66808W        W25904  41.012  13.747   1.293
66809W        W25905  30.569  41.380   3.258
66810W        W25906  23.688  20.675  13.408
66811W        W25907  11.623  19.607  13.047
66812W        W25908  13.807  27.138  12.359
66813W        W25909   3.927  11.263  10.477
66814W        W25910  13.202  14.146   0.965
66815W        W25911   0.451  31.609  11.112
66816W        W25912  17.558  29.133  10.469
66817W        W25913  13.818  44.396  11.025
66818W        W25914  24.669   1.952  11.391
66819W        W25915  22.502  27.004   2.274
66820W        W25916  15.689  41.801   3.344
66821W        W25917  26.573  23.214   3.201
66822W        W25918   7.258  14.176  13.389
66823W        W25919  16.780  33.523  10.953
66824W        W25920  34.587  32.940   0.309
66825W        W25921  18.168  44.844  14.463
66826W        W25922  38.942  17.136  10.555
66827W        W25923  31.010  24.697  12.542
66828W        W25924   5.343   9.193   1.451
66829W        W25925   3.302   0.820  13.032
66830W        W25926   1.289  44.915  11.595
66831W        W25927  13.628   6.344  14.869
66832W        W25928   6.893  24.211   0.728
66833W        W25929   4.883  33.072  14.383
66834W        W25930  10.869  36.929  12.570
66835W        W25931  17.643  22.062   0.812
66836W        W25932   2.867  28.529  14.407
66837W        W25933   6.419  39.396  12.554
66838W        W25934  20.707  25.674   4.299
66839W        W25935  27.984   7.882  13.420
66840W        W25936  38.053  37.462  11.943
66841W        W25937  27.568  28.516   4.778
66842W        W25938   3.412  11.805  11.499
66843W        W25939  28.036   5.303   1.933
66844W        W25940  31.443  19.216  12.075
66845W        W25941  29.523  16.705  10.475
66846W        W25942  44.386   4.741  10.095
66847W        W25943   2.738  17.158  10.477
66848W        W25944  13.271  41.908   1.310
66849W        W25945   5.345   3.332   1.257
66850W        W25946   9.151  15.702   1.369
66851W        W25947  12.793  36.384   1.306
66852W        W25948  29.542  22.114  14.866
66853W        W25949   3.858  11.237   1.268
66854W        W25950  38.917   8.877   2.193
66855W        W25951   1.802   3.254  12.398
66856W        W25952   4.371  41.926   3.297
66857W        W25953  40.899   0.840  10.636
66858W        W25954  33.613  41.462   3.806
66859W        W25955  25.674  42.343  14.970
66860W        W25956  30.922  22.632  14.496
66861W        W25957   4.440   1.391  13.375
66862W        W25958  20.552  37.386  13.521
66863W        W25959  11.718  37.478  11.015
66864W        W25960  17.712  44.357   0.315
66865W        W25961  30.654  40.341   1.388
66866W        W25962   1.861  12.763  10.460
66867W        W25963   4.931  25.617  13.006
66868W        W25964  30.936   9.659   4.635
66869W        W25965  19.250  31.510  10.485
66870W        W25966  36.989  16.577  11.000
66871W        W25967   8.315   4.320  13.034
66872W        W25968  44.768  31.953  14.496
66873W        W25969  10.290  39.950   3.817
66874W        W25970  18.109   3.273   5.280
66875W        W25971  21.149   8.230   3.866
66876W        W25972  41.450   2.234   2.298
66877W        W25973  21.687   0.268  12.954
66878W        W25974  42.782  43.306   3.201
66879W        W25975   7.357  28.613   4.215
66880W        W25976   6.890   6.869  12.015
66881W        W25977  30.028  27.533   1.774
66882W        W25978   0.981  36.875   4.218
66883W        W25979   4.907  33.036   1.765
66884W        W25980  39.034  31.551  10.965
66885W        W25981  18.622  30.576  13.311
66886W        W25982   8.188  11.223  14.784
66887W        W25983  42.790   9.829  13.810
66888W        W25984   2.767  13.653  12.840
66889W        W25985  44.764  24.691  11.509
66890W        W25986   5.909  23.001  10.636
66891W        W25987  33.958   1.414   4.159
66892W        W25988  35.934  11.648  14.989
66893W        W25989  29.096  39.818   3.282
66894W        W25990  31.904  20.712   1.858
66895W        W25991  41.029  33.519  10.591
66896W        W25992  18.713  34.995   1.254
66897W        W25993   9.314  44.936  10.576
66898W        W25994  26.583  13.244   2.691
66899W        W25995  29.591  12.714   4.127
66900W        W25996   0.940  30.576   4.638
66901W        W25997  36.526  29.971  12.411
66902W        W25998  38.074  15.124   0.354
66903W        W25999  17.702  28.993   2.817
66904W        W26000   4.754  17.111   5.242
66905W        W26001  23.540  18.717  13.796
66906W        W26002   2.403  32.930  14.890
66907W        W26003  29.953  42.454   0.806
66908W        W26004  32.017  30.509   0.393
66909W        W26005  15.625  28.043  13.315
66910W        W26006  12.798   7.284   3.828
66911W        W26007  30.499   1.850  11.996
66912W        W26008  23.999  17.720   2.753
66913W        W26009  34.484  14.832  12.352
66914W        W26010   7.180   0.941  12.823
66915W        W26011  14.261  36.044   3.795
66916W        W26012   7.765  14.296   0.418
66917W        W26013  27.050  16.074  14.814
66918W        W26014   5.734   4.377  10.566
66919W        W26015  23.581  40.042  12.915
66920W        W26016  43.805  27.548   3.773
66921W        W26017   1.801  11.282  13.880
66922W        W26018   9.161  31.078   3.632
66923W        W26019  27.679   8.361   2.694
66924W        W26020  43.390  37.047   3.790
66925W        W26021   3.375  41.491  14.904
66926W        W26022  37.956  42.884   1.255
66927W        W26023  16.721  22.080   3.783
66928W        W26024  44.825  14.255   4.658
66929W        W26025  11.661  26.610  14.760
66930W        W26026  28.961   8.831  11.903
66931W        W26027  21.558  16.165  11.399
66932W        W26028   7.227  39.037  10.626
66933W        W26029  10.286  24.583  11.576
66934W        W26030  32.091   6.743   1.265
66935W        W26031  23.031   3.308   4.638
66936W        W26032  14.669   2.834   2.736
66937W        W26033  43.877  20.114  10.950
66938W        W26034  16.110  44.981   4.813
66939W        W26035  12.702  29.438  12.554
66940W        W26036  37.874  27.605   4.813
66941W        W26037   6.878   4.324   0.852
66942W        W26038   6.417  40.473  14.280
66943W        W26039  40.920  11.723  12.526
66944W        W26040   5.268  16.133  14.946
66945W        W26041  38.513   6.820  12.963
66946W        W26042  13.215   1.466   4.332
66947W        W26043   3.243  39.391  12.433
66948W        W26044  31.614   3.917  13.388
66949W        W26045   1.353  16.297  13.999
66950W        W26046  24.501  21.668   3.314
66951W        W26047  15.225  19.267  11.584
66952W        W26048  42.883  23.093  11.414
66953W        W26049  25.699   2.873   4.731
66954W        W26050  11.780  40.986   3.682
66955W        W26051  11.798  10.253   4.613
66956W        W26052   6.853   8.740  13.046
66957W        W26053  26.047  36.561  13.429
66958W        W26054  43.814   5.301  10.942
66959W        W26055  32.029  27.583  11.873
66960W        W26056   3.711  15.087  12.064
66961W        W26057  24.725  37.572  11.467
66962W        W26058  34.530  18.655   3.242
66963W        W26059  11.822  35.427  13.038
66964W        W26060  35.364  31.041   4.772
66965W        W26061  40.023  44.938  13.438
66966W        W26062  32.900  13.825  12.558
66967W        W26063  14.139  31.538   0.957
66968W        W26064  19.136  19.084  13.468
66969W        W26065   4.938   4.347  11.600
66970W        W26066  44.290  15.686   2.236
66971W        W26067   5.378  19.282   4.125
66972W        W26068  25.601  31.478  13.349
66973W        W26069  42.313  26.551  10.972
66974W        W26070   8.756  22.604   2.202
66975W        W26071  35.559  38.070  11.391
66976W        W26072  11.763   0.429  14.964
66977W        W26073  35.486  18.273  11.934
66978W        W26074  39.837  22.608  11.929
66979W        W26075   5.351  30.486   3.815
66980W        W26076   0.778  38.477  13.923
66981W        W26077  40.864  24.642  12.413
66982W        W26078  35.979  36.469   1.821
66983W        W26079   4.267   4.404  14.399
66984W        W26080   0.785  20.114   0.808
66985W        W26081  43.778  13.819   0.473
66986W        W26082   7.300  10.647  14.324
66987W        W26083  35.100  41.385  11.871
66988W        W26084  34.883  28.582   0.766
66989W        W26085  27.066   0.413  14.319
66990W        W26086  26.511  13.756   3.782
66991W        W26087  29.581  15.731  10.609
66992W        W26088  40.528  13.323  14.900
66993W        W26089  15.227   8.249   2.380
66994W        W26090   1.352  35.869   1.845
66995W        W26091  43.978  16.632   3.795
66996W        W26092   1.248  13.330  11.065
66997W        W26093  12.133  41.025   2.758
66998W        W26094  21.221  42.023  11.009
66999W        W26095   0.791   5.368  14.299
67000W        W26096  13.158  42.391   0.276
67001W        W26097   9.748  31.930  11.884
67002W        W26098  36.896   2.240  13.481
67003W        W26099  34.424   0.382  10.965
67004W        W26100  36.086  24.080   3.178
67005W        W26101  44.965  26.494  14.502
67006W        W26102  34.937  17.256  13.921
67007W        W26103   4.785   9.876   1.759
67008W        W26104   3.867   9.684   3.737
67009W        W26105  35.982   9.692   0.443
67010W        W26106  12.172  27.997  12.897
67011W        W26107  30.098  25.199   4.318
67012W        W26108  23.073  37.038   9.630
67013W        W26109  14.796  39.369  14.981
67014W        W26110  24.199   7.846  10.030
67015W        W26111  30.909  30.641   5.198
67016W        W26112   6.424  25.008   3.236
67017W        W26113  11.197  32.039   2.793
67018W        W26114  13.728  12.789   3.331
67019W        W26115  15.788   0.974   0.406
67020W        W26116  16.178   5.234   4.273
67021W        W26117  13.109  41.879   1.917
67022W        W26118  43.448  35.437   4.698
67023W        W26119  12.816  24.500   3.637
67024W        W26120  41.944  17.655  12.960
67025W        W26121  17.110  17.197  13.506
67026W        W26122  32.428  44.983  14.358
67027W        W26123  36.947   6.922   4.640
67028W        W26124   8.865  14.599   2.690
67029W        W26125  32.996   6.246  11.096
67030W        W26126  37.918  35.913   1.823
67031W        W26127  11.183  44.366  14.820
67032W        W26128  36.942   8.868   0.858
67033W        W26129  41.829  29.527   5.279
67034W        W26130   5.269  14.761   3.840
67035W        W26131  28.084   3.866  10.585
67036W        W26132  26.653   9.320   1.763
67037W        W26133   2.430  10.833  13.063
67038W        W26134   3.857  32.636  14.311
67039W        W26135  42.395  36.580   4.755
67040W        W26136  35.579  43.978  12.960
67041W        W26137  26.548  16.216  12.866
67042W        W26138  16.596  40.410  12.403
67043W        W26139  19.534  33.408   2.711
67044W        W26140  27.486   8.206  11.885
67045W        W26141   3.834  18.643   2.763
67046W        W26142  18.121  13.606  13.436
67047W        W26143  33.383  34.953  10.901
67048W        W26144  38.421  16.651   0.342
67049W        W26145  37.009   8.365   5.150
67050W        W26146  20.047   6.697  12.397
67051W        W26147  43.016  15.102   1.841
67052W        W26148  12.139  19.269   3.863
67053W        W26149   1.743  14.751   0.304
67054W        W26150  39.933  13.611   4.341
67055W        W26151   8.378  32.036  11.884
67056W        W26152  28.171  15.643   2.726
67057W        W26153  35.563  11.811   1.916
67058W        W26154  26.967  28.443  12.404
67059W        W26155  20.266   6.226   1.303
67060W        W26156  44.870  32.093   3.646
67061W        W26157  28.021  25.165  10.412
67062W        W26158  23.685  16.576  11.607
67063W        W26159   5.426  21.148   3.834
67064W        W26160  25.574  14.736   2.289
67065W        W26161  18.588  28.069   3.810
67066W        W26162  15.650  26.141   0.756
67067W        W26163  14.628  10.332  10.565
67068W        W26164  38.341   5.325   4.302
67069W        W26165  30.123  18.105  10.642
67070W        W26166  20.157  12.750  12.530
67071W        W26167  36.568  44.872   0.387
67072W        W26168   2.410  35.958  14.942
67073W        W26169  11.187  13.767   4.184
67074W        W26170  21.547  23.218  13.061
67075W        W26171  38.025   0.280  10.985
67076W        W26172  18.168  17.252  13.377
67077W        W26173  30.009   0.988   3.784
67078W        W26174  33.441   2.376  13.866
67079W        W26175  14.113   9.814   3.779
67080W        W26176  14.131  38.500   2.301
67081W        W26177  32.063   7.704  13.971
67082W        W26178  33.503  18.558  12.420
67083W        W26179  26.568  19.632  12.432
67084W        W26180   1.294  37.878   4.656
67085W        W26181  29.026  41.913  13.336
67086W        W26182  11.816   2.916  13.868
67087W        W26183  23.507  11.193   2.313
67088W        W26184  27.673  24.177  14.515
67089W        W26185  11.793  20.718   4.787
67090W        W26186  15.684  43.473  14.964
67091W        W26187  19.110  41.468   2.342
67092W        W26188  17.801  17.787  11.077
67093W        W26189  32.488  37.447   0.850
67094W        W26190  41.832  28.673  13.470
67095W        W26191  41.994  14.679   0.368
67096W        W26192  26.558  11.320   1.821
67097W        W26193  29.632  31.593  10.415
67098W        W26194  40.478  21.758  14.875
67099W        W26195  42.016  37.918   2.298
67100W        W26196  24.166  17.769   4.354
67101W        W26197  27.582  43.349   1.348
67102W        W26198   0.250  11.191   4.836
67103W        W26199   3.339  33.073  12.924
67104W        W26200  18.269  15.277  14.937
67105W        W26201   4.915   0.900   2.218
67106W        W26202   0.488  15.109  12.384
67107W        W26203  13.217  32.115   0.323
67108W        W26204  14.166  18.216  12.032
67109W        W26205  29.926  14.188  14.350
67110W        W26206  16.621  14.821  12.364
67111W        W26207   1.899  35.900  11.090
67112W        W26208  43.355  35.031   3.333
67113W        W26209  43.929  12.665  10.610
67114W        W26210  12.828  11.836   1.391
67115W        W26211  13.703  42.304  14.881
67116W        W26212  27.131  35.475  13.334
67117W        W26213  10.178  14.167  13.929
67118W        W26214  28.052  24.615   3.631
67119W        W26215  11.369  42.508  10.916
67120W        W26216  28.002  22.016   1.353
67121W        W26217  16.602   8.169   0.463
67122W        W26218  14.768  16.175   0.936
67123W        W26219  29.970   5.918  12.514
67124W        W26220   0.407  19.188  11.458
67125W        W26221  40.429  39.035  14.503
67126W        W26222  21.753  27.038  11.066
67127W        W26223  10.231  32.472  11.433
67128W        W26224  21.519  39.503  11.124
67129W        W26225  44.960  10.829   4.238
67130W        W26226  18.761  26.590  10.006
67131W        W26227  10.751  16.664   3.146
67132W        W26228  29.982  26.075  13.310
67133W        W26229  39.959   2.961  12.055
67134W        W26230  34.904  34.912  12.081
67135W        W26231  16.078  26.503   4.646
67136W        W26232  20.751  30.467   3.334
67137W        W26233  36.982  10.362  14.827
67138W        W26234  29.110  18.561   1.761
67139W        W26235  44.768  43.905  12.883
67140W        W26236   5.215  28.461   1.354
67141W        W26237  41.316  44.822  10.602
67142W        W26238  19.634  23.236  12.914
67143W        W26239  28.065  35.381   3.231
67144W        W26240  12.284  37.362   3.317
67145W        W26241  32.396  20.677  14.887
67146W        W26242  28.067  25.653   1.304
67147W        W26243  34.950  37.032  14.019
67148W        W26244  34.965  33.035   1.916
67149W        W26245  14.235  26.588  12.900
67150W        W26246  41.535   8.247  14.780
67151W        W26247  20.248  43.510   1.712
67152W        W26248  18.604  15.578   3.849
67153W        W26249  35.014  24.002  13.045
67154W        W26250  34.444  15.137  10.012
67155W        W26251   1.926  31.556   2.359
67156W        W26252  40.954  29.016  12.476
67157W        W26253  15.173  26.571  13.808
67158W        W26254  44.866  37.568   0.890
67159W        W26255  17.659  44.840   0.864
67160W        W26256  21.086  10.862   3.707
67161W        W26257  11.263   3.896   1.336
67162W        W26258  33.392   7.748  13.428
67163W        W26259  30.641  44.363   4.203
67164W        W26260  29.541  37.946  13.386
67165W        W26261  21.604  11.868   4.116
67166W        W26262  10.792   8.377  14.458
67167W        W26263  11.760  34.874  10.612
67168W        W26264   2.256  24.130   4.126
67169W        W26265  33.501  28.649  14.478
67170W        W26266  37.956  20.593  12.429
67171W        W26267   2.874  27.464   0.775
67172W        W26268   6.326  40.798  14.514
67173W        W26269   3.287  32.023  11.967
67174W        W26270  11.315  22.205   1.310
67175W        W26271  17.670  37.477   2.742
67176W        W26272  20.568   8.693   2.863
67177W        W26273  35.477  23.649  13.463
67178W        W26274   9.182  42.878   0.754
67179W        W26275  25.974  31.557   2.261
67180W        W26276  42.864  40.041  12.852
67181W        W26277  25.047  35.566  13.456
67182W        W26278  40.035  21.643   0.875
67183W        W26279  43.359  33.996   3.863
67184W        W26280   1.299  26.665   0.253
67185W        W26281   0.359  39.901   4.769
67186W        W26282  18.715  26.673   2.783
67187W        W26283   3.891  24.033  13.893
67188W        W26284   9.722  10.850  14.822
67189W        W26285  38.566  21.129  10.902
67190W        W26286   0.397  41.027   4.150
67191W        W26287   9.274  33.917  12.076
67192W        W26288   2.308   8.705   1.842
67193W        W26289  27.691   5.211   4.611
67194W        W26290  37.834   6.300   3.283
67195W        W26291  13.158  15.614  14.393
67196W        W26292  11.629  33.943  10.893
67197W        W26293   1.444   3.293  10.635
67198W        W26294  11.300  40.472  11.857
67199W        W26295  10.187  10.760  12.041
67200W        W26296  44.902  12.695  12.522
67201W        W26297  30.995  37.941   4.659
67202W        W26298   7.352  21.649   1.434
67203W        W26299  44.969  40.354  14.302
67204W        W26300  14.591  40.927  13.314
67205W        W26301  36.368   4.240  13.062
67206W        W26302  29.943  10.308  13.023
67207W        W26303  16.092  13.756  14.026
67208W        W26304  15.808  15.165  14.515
67209W        W26305   9.667  21.119   0.254
67210W        W26306  21.119  10.264   5.233
67211W        W26307  36.872  35.599  10.905
67212W        W26308  20.123  30.531  12.534
67213W        W26309  31.482  26.640  10.948
67214W        W26310  41.505  39.057  13.316
67215W        W26311   0.376  17.770   4.222
67216W        W26312   4.836  10.853   4.772
67217W        W26313  18.117  32.885   2.813
67218W        W26314  42.016   0.939  14.481
67219W        W26315  31.601  18.665  11.054
67220W        W26316  13.689  22.676  10.448
67221W        W26317   5.922  30.026  13.972
67222W        W26318  43.009   3.903  10.997
67223W        W26319  25.680  41.868  11.057
67224W        W26320   3.421  30.160  10.503
67225W        W26321  43.469  13.334   3.736
67226W        W26322   2.872  27.685   9.947
67227W        W26323  14.616  43.319  13.011
67228W        W26324   2.311  42.777  10.921
67229W        W26325  27.182  42.400   4.217
67230W        W26326  12.189  13.329   4.220
67231W        W26327   2.422  32.518   2.360
67232W        W26328   7.219  10.202  13.439
67233W        W26329  23.537  44.505  12.580
67234W        W26330   1.289  30.018   3.267
67235W        W26331  23.662  33.991  12.541
67236W        W26332  13.804   8.816   2.847
67237W        W26333  17.756  39.388   2.813
67238W        W26334  34.063  10.798   0.405
67239W        W26335  17.739   0.919   1.811
67240W        W26336  16.702  34.589   2.715
67241W        W26337  16.605   7.228   1.287
67242W        W26338   3.349  26.135  14.445
67243W        W26339  27.958  33.602   0.779
67244W        W26340  19.051  22.146   4.679
67245W        W26341  17.746  38.836   5.163
67246W        W26342  21.667  26.651   2.845
67247W        W26343  32.112   8.718  10.946
67248W        W26344  27.003  31.083  14.452
67249W        W26345  22.232   4.298  14.998
67250W        W26346  17.774  27.128   4.324
67251W        W26347  13.272  14.835   0.802
67252W        W26348  23.619  43.796  10.433
67253W        W26349  44.429   3.326  12.528
67254W        W26350   5.847  13.334   1.812
67255W        W26351  20.203  25.655   4.150
67256W        W26352   7.227   7.866  14.344
67257W        W26353  43.327   0.382   0.893
67258W        W26354   0.494   3.323  11.378
67259W        W26355  32.561   0.899   2.716
67260W        W26356   5.248  35.014   4.625
67261W        W26357   4.752  41.956  13.470
67262W        W26358  29.566  11.769  10.436
67263W        W26359  11.778   8.719  12.015
67264W        W26360   2.837  21.098  14.958
67265W        W26361  30.045  33.546  12.828
67266W        W26362  32.914   4.445  13.311
67267W        W26363  16.603   5.692  10.471
67268W        W26364  28.669  33.910  13.909
67269W        W26365   0.382  21.185  10.976
67270W        W26366   4.403  39.328  11.520
67271W        W26367  41.358  23.565   4.288
67272W        W26368  42.294  17.618  14.471
67273W        W26369  15.752  33.511  10.577
67274W        W26370   7.883  19.208   2.875
67275W        W26371  43.365   6.790   1.250
67276W        W26372  24.551   2.274   2.194
67277W        W26373  12.815  41.511   2.710
67278W        W26374  10.866  24.695  10.922
67279W        W26375  42.433  32.936  14.906
67280W        W26376   3.315  31.618  13.347
67281W        W26377  18.709  32.484   3.699
67282W        W26378  22.153  24.498  11.540
67283W        W26379  41.528  43.469  14.378
67284W        W26380  37.453  41.433   3.816
67285W        W26381  28.055   5.698  13.534
67286W        W26382   5.919  21.717  12.462
67287W        W26383  38.518  42.439   2.227
67288W        W26384  23.157  25.670  13.338
67289W        W26385   6.388   2.376   1.803
67290W        W26386  42.421  15.093   3.183
67291W        W26387  20.084  27.582  11.035
67292W        W26388  44.953  14.264   3.793
67293W        W26389  13.755  23.189   3.760
67294W        W26390  31.572  11.682  13.438
67295W        W26391  12.741  29.556  13.838
67296W        W26392  32.044  29.624   2.310
67297W        W26393   4.806  32.460   3.193
67298W        W26394  35.078   2.755   1.776
67299W        W26395   1.417   8.782   1.739
67300W        W26396  31.518  36.035   3.741
67301W        W26397  36.388  36.555   3.342
67302W        W26398  41.466  27.601   1.766
67303W        W26399   4.248   6.228  13.415
67304W        W26400   5.889  19.173  12.966
67305W        W26401  40.438  25.710  10.589
67306W        W26402  38.555  13.687  10.416
67307W        W26403  22.721  15.126   1.296
67308W        W26404  34.459   8.825  13.866
67309W        W26405  21.249   8.803  11.447
67310W        W26406  11.186  23.127   0.820
67311W        W26407  24.036   7.347   3.852
67312W        W26408  13.309   5.782   0.310
67313W        W26409  32.525  12.173   1.408
67314W        W26410  10.843  24.674   3.375
67315W        W26411  15.650  38.531   4.611
67316W        W26412  30.003  22.526  11.026
67317W        W26413  20.162   3.384   2.320
67318W        W26414  37.921  22.648  14.765
67319W        W26415  21.754   2.389  13.394
67320W        W26416  18.205   2.230   2.400
67321W        W26417   9.659  26.105   4.647
67322W        W26418  23.538  16.745  12.040
67323W        W26419   0.287  26.519   1.310
67324W        W26420   4.725   7.373  12.084
67325W        W26421   0.784  34.899  13.979
67326W        W26422   9.236   8.707  11.516
67327W        W26423   6.406  17.135  10.474
67328W        W26424   1.874  28.966  12.403
67329W        W26425  31.431  40.865   2.867
67330W        W26426  18.277  27.174  14.933
67331W        W26427  38.391   8.820   9.938
67332W        W26428  38.050   1.886  10.448
67333W        W26429  23.665   9.799  12.044
67334W        W26430  17.563  23.168   3.702
67335W        W26431  22.088  36.543   2.666
67336W        W26432   0.907  28.445   1.760
67337W        W26433  17.076  21.094  13.355
67338W        W26434  12.637  41.008   2.670
67339W        W26435  30.639   8.799  11.894
67340W        W26436  38.959  29.953   1.446
67341W        W26437  11.274  41.444  12.861
67342W        W26438   2.740  40.041   0.929
67343W        W26439   3.740  10.197  14.907
67344W        W26440   7.209  27.581  14.320
67345W        W26441   1.968   0.291  12.428
67346W        W26442  27.051  42.295  12.030
67347W        W26443  14.637  27.631   2.250
67348W        W26444  14.294  35.518  10.888
67349W        W26445   5.709  39.452  11.974
67350W        W26446  39.443  38.839   2.286
67351W        W26447  39.062   5.325   4.150
67352W        W26448  37.064  10.363  13.000
67353W        W26449  39.043   2.807  13.877
67354W        W26450  14.625  44.873   3.239
67355W        W26451  19.598  25.127  10.153
67356W        W26452   8.732  39.928  12.880
67357W        W26453  38.527  34.975   0.311
67358W        W26454   4.339  17.185  12.360
67359W        W26455  35.471  31.599  11.923
67360W        W26456  27.132  20.547   2.334
67361W        W26457   6.275  38.557   1.402
67362W        W26458  42.501  23.562   4.807
67363W        W26459   4.838   8.893   3.205
67364W        W26460   5.312  13.251   4.838
67365W        W26461  17.159  24.198  11.457
67366W        W26462  10.310  27.558  11.588
67367W        W26463  32.082  33.452   0.402
67368W        W26464   5.308  17.783   3.386
67369W        W26465  19.265  31.407   2.179
67370W        W26466   1.374  38.893   4.169
67371W        W26467   5.200   5.844  12.889
67372W        W26468   2.920  15.146   4.732
67373W        W26469  13.626  44.491   2.391
67374W        W26470  15.307  27.979   3.298
67375W        W26471  18.241  29.438   3.682
67376W        W26472  22.676   2.319   0.369
67377W        W26473  42.862  31.466   2.888
67378W        W26474  32.107  37.351  13.063
67379W        W26475  22.592  15.801  13.966
67380W        W26476   8.890  44.840  10.913
67381W        W26477   4.356  44.786  11.394
67382W        W26478  13.183  43.294  11.049
67383W        W26479  20.575  40.337   0.877
67384W        W26480  38.512   8.778   3.774
67385W        W26481  22.601  36.933  10.643
67386W        W26482  15.784  33.878  11.595
67387W        W26483   6.361  30.606   5.103
67388W        W26484   9.842  32.393   1.706
67389W        W26485  22.209  26.161  10.457
67390W        W26486  36.946  27.601  10.589
67391W        W26487  24.597  13.779  12.393
67392W        W26488   6.892   4.934   3.763
67393W        W26489   8.729  43.843   0.742
67394W        W26490   1.741  38.835  14.492
67395W        W26491   4.432   6.825   4.635
67396W        W26492  18.559  44.299  11.475
67397W        W26493  32.043  33.404   3.166
67398W        W26494  44.976  18.691   4.166
67399W        W26495   7.360  41.961   2.793
67400W        W26496   7.778  17.622  13.051
67401W        W26497  14.275  43.881   2.391
67402W        W26498  20.157  36.010   4.726
67403W        W26499   9.291  29.512   0.276
67404W        W26500  30.515  41.878  13.369
67405W        W26501   9.211  42.030   4.258
67406W        W26502  13.794  43.457   4.731
67407W        W26503  33.926  13.748  14.916
67408W        W26504   7.694  35.901   1.813
67409W        W26505  11.746  33.390   1.698
67410W        W26506  24.188  29.469   0.881
67411W        W26507   3.327  17.085  11.438
67412W        W26508   4.902  25.575   4.336
67413W        W26509  16.712  29.040   1.868
67414W        W26510  27.019   8.275  10.433
67415W        W26511  29.029  42.004   0.968
67416W        W26512  27.125  11.195   2.410
67417W        W26513  39.840   9.697  14.883
67418W        W26514  25.035  35.546   9.497
67419W        W26515   8.172  34.041   4.811
67420W        W26516  37.054   0.346   4.189
67421W        W26517  27.551  28.499   0.849
67422W        W26518   2.746  40.005   1.365
67423W        W26519  22.109  33.623   1.410
67424W        W26520  28.438   8.794  10.479
67425W        W26521  33.874  15.252  13.320
67426W        W26522  38.843   6.407  14.462
67427W        W26523  27.668  24.514   0.251
67428W        W26524  32.078  23.511   0.908
67429W        W26525  12.640  28.077   1.365
67430W        W26526  12.340   0.352  13.859
67431W        W26527  36.857   0.411   0.355
67432W        W26528   5.866  39.949  14.306
67433W        W26529  14.246  10.648   2.315
67434W        W26530  38.921  13.788  13.414
67435W        W26531  12.123  31.550  12.044
67436W        W26532  31.050  33.098  11.605
67437W        W26533   2.796  36.888  10.563
67438W        W26534  31.427   8.848  10.435
67439W        W26535  10.243  11.668  11.064
67440W        W26536  36.411   8.693   4.290
67441W        W26537  17.279  30.586  14.887
67442W        W26538  16.708  27.111   1.712
67443W        W26539  34.995   0.758  13.403
67444W        W26540  11.629  11.846   1.361
67445W        W26541  40.900  24.535   2.340
67446W        W26542  12.233  44.764  10.947
67447W        W26543  22.725  16.084  14.981
67448W        W26544   1.286  15.616   2.791
67449W        W26545  42.832  11.676   2.316
67450W        W26546   6.398  35.055  14.277
67451W        W26547  23.992  43.318   0.785
67452W        W26548  42.959  18.150  13.324
67453W        W26549  16.262  43.888  12.057
67454W        W26550  39.008  37.420   4.722
67455W        W26551  32.109  28.012   1.697
67456W        W26552  10.213  29.010  13.324
67457W        W26553  31.967  24.560  13.545
67458W        W26554  11.623  35.865   2.679
67459W        W26555   8.816  14.157  13.378
67460W        W26556  39.947   9.830  10.913
67461W        W26557   5.388  35.490   1.743
67462W        W26558  23.986  32.031   2.191
67463W        W26559  18.676  26.698  14.324
67464W        W26560  17.622  35.464  13.312
67465W        W26561   0.975  27.493  14.309
67466W        W26562  17.778  38.418   2.859
67467W        W26563  12.850  12.304  12.993
67468W        W26564  18.650  41.927  11.967
67469W        W26565  29.101   6.306  11.065
67470W        W26566  37.439  37.351   0.920
67471W        W26567  23.723  32.593   1.872
67472W        W26568  36.441  12.274  14.982
67473W        W26569  38.877  25.187   5.140
67474W        W26570  14.224  13.710  10.430
67475W        W26571   1.813  37.458  14.760
67476W        W26572  42.796  27.993   4.612
67477W        W26573  37.890  19.562   1.280
67478W        W26574  27.178  19.236   0.864
67479W        W26575  12.281   5.818   0.941
67480W        W26576  36.087  34.435   0.734
67481W        W26577  38.829  39.831  10.570
67482W        W26578  38.914  18.681   1.268
67483W        W26579  13.610  19.598  12.927
67484W        W26580  33.936  27.477   4.633
67485W        W26581  12.634  16.173   0.906
67486W        W26582   4.854  17.182  11.424
67487W        W26583  13.784   8.393  13.533
67488W        W26584  39.810  31.633   3.759
67489W        W26585  11.371  24.207   2.826
67490W        W26586   4.728  14.336   1.233
67491W        W26587  12.763  28.599  12.935
67492W        W26588  39.469  43.867  13.519
67493W        W26589  27.647  33.406  11.070
67494W        W26590   7.732  12.782   1.294
67495W        W26591   9.790  15.102   2.256
67496W        W26592  38.941  18.269  14.977
67497W        W26593  27.586  13.169  11.477
67498W        W26594  28.552  43.767   4.172
67499W        W26595   8.718   0.927   0.879
67500W        W26596   1.957  10.766   3.329
67501W        W26597  39.449  13.648   4.229
67502W        W26598  20.236   7.728  14.296
67503W        W26599   2.439   1.880   2.346
67504W        W26600  35.069  24.597  13.493
67505W        W26601  20.608  25.139  14.903
67506W        W26602   9.889  33.618   4.215
67507W        W26603   9.322  19.206   1.901
67508W        W26604  27.100  36.943  12.463
67509W        W26605   8.888  19.621   3.323
67510W        W26606  28.086  27.592   0.260
67511W        W26607  25.714  13.610   2.284
67512W        W26608  43.821  31.112   4.199
67513W        W26609  34.113   7.288   1.368
67514W        W26610   5.821  18.727   0.465
67515W        W26611  29.583  13.263  10.404
67516W        W26612   1.824   8.306  11.418
67517W        W26613  41.301  41.311   3.240
67518W        W26614   7.358   9.834   2.370
67519W        W26615  44.781   6.353   4.326
67520W        W26616  31.488   0.802   3.717
67521W        W26617  42.323  19.052  14.840
67522W        W26618  15.660   6.722   1.215
67523W        W26619  21.538  30.586   2.192
67524W        W26620  35.049  32.439   1.409
67525W        W26621  37.837  29.087   0.428
67526W        W26622  19.190  12.669  14.293
67527W        W26623  26.675  12.795   1.779
67528W        W26624  33.908  28.589   4.617
67529W        W26625  36.528  13.787   2.352
67530W        W26626  26.157  32.496  10.596
67531W        W26627  41.838  13.608   3.771
67532W        W26628  34.575  34.945  12.536
67533W        W26629   3.302  20.028   4.150
67534W        W26630  38.855  31.011   0.479
67535W        W26631  36.559   4.803  13.877
67536W        W26632   6.808  35.882  12.350
67537W        W26633  11.681   0.949  11.116
67538W        W26634  27.983  19.728   0.263
67539W        W26635   1.787  38.073  11.085
67540W        W26636   8.796  42.954  14.448
67541W        W26637   0.347  20.150  10.926
67542W        W26638  11.779   2.332  11.987
67543W        W26639  23.700   1.462   0.757
67544W        W26640  28.140  25.134  13.945
67545W        W26641  11.235  32.526   4.117
67546W        W26642  22.176  40.045   4.615
67547W        W26643  30.056  29.536   4.175
67548W        W26644  22.249  23.712  11.420
67549W        W26645  13.738  27.500  11.054
67550W        W26646  21.748  14.672  12.383
67551W        W26647  23.239  41.460  12.519
67552W        W26648  39.033  12.166   2.244
67553W        W26649  37.975  43.924   1.817
67554W        W26650  21.092  28.474  11.081
67555W        W26651  16.588  32.076   2.311
67556W        W26652  40.880  42.459  13.408
67557W        W26653  39.323  16.208   2.383
67558W        W26654  24.131   2.945   4.235
67559W        W26655  28.622  29.595   2.398
67560W        W26656  43.478   0.362  14.289
67561W        W26657   8.723  42.374   4.662
67562W        W26658  16.738  43.290   4.636
67563W        W26659   7.335  11.191  11.890
67564W        W26660  25.033  28.149   0.254
67565W        W26661  11.135   9.187   2.384
67566W        W26662  44.956  27.986  12.992
67567W        W26663  11.629  16.140   3.730
67568W        W26664  18.703   8.279   4.732
67569W        W26665  31.942  29.627  10.507
67570W        W26666  27.584  20.172   5.082
67571W        W26667  35.387  35.962   4.249
67572W        W26668  26.027  38.429   2.887
67573W        W26669  30.473  22.559   1.772
67574W        W26670  14.204  33.084  13.865
67575W        W26671  18.113  31.416  10.416
67576W        W26672   9.838  41.907  13.835
67577W        W26673  43.332  25.549  13.814
67578W        W26674  13.735   2.881   0.420
67579W        W26675  34.922  38.475   3.848
67580W        W26676  20.700  26.958   0.925
67581W        W26677  44.982  21.735   2.372
67582W        W26678  31.454  33.973   0.456
67583W        W26679   5.363  25.136   0.358
67584W        W26680  21.670  18.624   4.824
67585W        W26681  18.087  10.160   2.700
67586W        W26682  39.007  44.961   2.744
67587W        W26683   0.901  29.646   5.243
67588W        W26684  20.194  17.264   0.730
67589W        W26685  32.618  27.000  10.573
67590W        W26686  17.555   0.407  13.329
67591W        W26687  15.153   9.827  12.948
67592W        W26688  43.362  43.011  12.534
67593W        W26689  24.226   8.663   5.222
67594W        W26690  22.606   6.191   0.744
67595W        W26691   9.841  13.299  12.017
67596W        W26692  24.999  35.094  14.291
67597W        W26693   8.808  34.047   3.383
67598W        W26694   2.781  34.005  12.564
67599W        W26695  18.238  16.661  10.514
67600W        W26696  31.053  20.700  11.427
67601W        W26697  36.059  11.671  13.980
67602W        W26698  34.403  35.464   1.402
67603W        W26699  32.637  38.387   2.762
67604W        W26700   6.752  14.138   0.352
67605W        W26701  22.542  41.004  11.092
67606W        W26702   9.825  37.967   0.887
67607W        W26703  10.230  38.510  11.976
67608W        W26704   2.892   3.244  13.401
67609W        W26705  44.919  35.412  12.534
67610W        W26706  37.946  15.597   1.262
67611W        W26707  14.647  32.635   2.212
67612W        W26708  29.604   7.289   4.343
67613W        W26709   5.895  39.426  14.873
67614W        W26710  13.837  29.920  13.529
67615W        W26711   2.452  44.373   4.181
67616W        W26712  36.432  28.614  11.105
67617W        W26713  19.591  31.403  10.097
67618W        W26714  30.928  20.751   3.311
67619W        W26715  32.401  22.207  12.917
67620W        W26716  34.883   3.420   4.688
67621W        W26717  12.820  27.557   2.891
67622W        W26718  32.416  38.500  11.526
67623W        W26719   9.671  15.610  12.924
67624W        W26720  24.615  37.463   1.390
67625W        W26721  21.650  25.569   3.214
67626W        W26722  24.504   1.348   0.254
67627W        W26723  23.562   2.915   4.277
67628W        W26724  38.897  22.124  13.046
67629W        W26725  35.588  19.605   3.160
67630W        W26726  16.119  22.714  13.443
67631W        W26727   3.773  40.867  10.540
67632W        W26728  27.628  29.585  14.786
67633W        W26729   2.830  23.168  14.362
67634W        W26730  36.867   7.786   5.143
67635W        W26731  44.773  30.572   4.308
67636W        W26732  29.952   3.781   3.663
67637W        W26733   7.714  40.509   3.283
67638W        W26734  20.196  26.191  10.422
67639W        W26735   4.857   9.669   0.366
67640W        W26736  19.678  35.062  11.555
67641W        W26737  17.567   8.790   3.693
67642W        W26738  30.937   0.747  13.418
67643W        W26739  37.041  17.762   4.838
67644W        W26740  43.981  28.136   2.313
67645W        W26741  36.850  21.674  12.343
67646W        W26742  15.698  40.548  11.001
67647W        W26743  16.663  38.057  14.308
67648W        W26744   4.335  36.053  10.575
67649W        W26745   3.884  20.764  14.425
67650W        W26746  39.360   0.954  14.369
67651W        W26747   7.891  26.483  13.839
67652W        W26748  18.069  37.890   5.205
67653W        W26749  40.442  16.132  13.507
67654W        W26750  13.841  33.429  14.784
67655W        W26751  21.225  30.557  13.848
67656W        W26752  12.220  13.725   4.203
67657W        W26753  40.463  10.702   5.094
67658W        W26754  12.274  13.336  12.013
67659W        W26755  30.644  33.095   3.279
67660W        W26756   1.295  28.516   0.449
67661W        W26757   6.832  31.628   4.758
67662W        W26758  27.598  38.918  13.930
67663W        W26759  32.571   0.264  12.077
67664W        W26760  28.651  10.205  14.775
67665W        W26761  12.184  30.075   0.728
67666W        W26762  10.270  31.958  11.912
67667W        W26763   8.364   2.398   4.636
67668W        W26764   5.305  42.399  13.981
67669W        W26765   1.819   0.743   3.645
67670W        W26766  20.570  18.721   1.922
67671W        W26767  18.576  12.648  13.434
67672W        W26768  34.613  38.380   1.706
67673W        W26769  13.157  33.491   0.802
67674W        W26770  17.064  40.914   4.326
67675W        W26771  35.035  15.201  11.110
67676W        W26772  34.598  43.401   1.314
67677W        W26773  36.998  28.992  11.068
67678W        W26774   7.873  35.497  12.423
67679W        W26775  40.859  41.981  12.965
67680W        W26776  26.114  19.695  14.302
67681W        W26777  29.154  12.362  10.455
67682W        W26778  23.077  38.430   0.349
67683W        W26779  39.856   0.310   2.749
67684W        W26780  15.622  39.419   1.307
67685W        W26781   1.768   3.225  12.826
67686W        W26782  42.495  23.717  10.537
67687W        W26783  16.210   6.299   2.740
67688W        W26784  43.919  18.144  12.087
67689W        W26785  30.577   5.281   1.790
67690W        W26786  18.228   7.812   0.318
67691W        W26787  36.862  32.515  10.948
67692W        W26788  15.728   2.867   0.945
67693W        W26789  13.715   2.927  11.886
67694W        W26790   2.430   0.409   2.727
67695W        W26791  38.367  35.531   2.714
67696W        W26792  38.459  20.072  13.857
67697W        W26793  14.125   3.230   3.312
67698W        W26794   2.457   2.740  12.479
67699W        W26795  13.242  27.535  13.431
67700W        W26796  10.355   5.844  11.049
67701W        W26797  30.467  42.921  14.498
67702W        W26798   3.879  44.869  13.873
67703W        W26799  17.272  41.295  14.355
67704W        W26800  12.348  10.701   1.896
67705W        W26801  27.665  43.783  12.865
67706W        W26802  39.526  42.479   3.376
67707W        W26803  17.761  14.760   4.217
67708W        W26804  17.593  36.371   3.724
67709W        W26805  24.139   6.719  14.482
67710W        W26806  25.088   7.718  13.034
67711W        W26807  31.475  18.155  11.576
67712W        W26808  34.485  18.609  11.458
67713W        W26809  30.011  24.664  10.950
67714W        W26810  20.662  11.806   3.695
67715W        W26811  11.292   0.791   3.655
67716W        W26812  39.834  27.558   2.828
67717W        W26813  19.123  42.864   1.360
67718W        W26814  22.217  36.917  13.838
67719W        W26815   6.345  23.508   3.711
67720W        W26816  43.769   5.924   4.650
67721W        W26817   3.801  24.093  11.029
67722W        W26818   5.891  10.360  14.430
67723W        W26819  44.819  18.177  14.352
67724W        W26820   0.357  13.253   0.830
67725W        W26821  43.338  41.385   1.259
67726W        W26822  31.117  40.313   3.380
67727W        W26823  27.541   0.479   1.739
67728W        W26824  14.747  35.974  10.060
67729W        W26825  26.657  34.016   1.935
67730W        W26826  12.621  17.103  11.896
67731W        W26827  29.049   6.186   2.664
67732W        W26828  11.788  14.716   0.431
67733W        W26829  27.125   5.929  14.332
67734W        W26830  15.805  37.336  14.836
67735W        W26831  17.627   9.379  10.968
67736W        W26832  34.022  33.051  12.552
67737W        W26833  38.560   5.319  13.436
67738W        W26834  11.694  31.562  11.479
67739W        W26835   3.351  12.845   1.873
67740W        W26836  35.408   6.743   0.757
67741W        W26837  37.848  40.033   2.269
67742W        W26838  28.589   3.299   1.449
67743W        W26839   1.483  19.579   2.827
67744W        W26840  44.497  27.018   4.634
67745W        W26841  11.368  38.562  12.508
67746W        W26842  35.450  25.686  12.894
67747W        W26843   8.275  37.344   1.384
67748W        W26844  20.244  37.558   2.312
67749W        W26845  29.472  33.517  11.548
67750W        W26846   9.173   2.789  11.101
67751W        W26847  15.699  39.556   2.861
67752W        W26848   6.280   1.321  12.914
67753W        W26849   6.780  20.092   4.199
67754W        W26850   1.459   3.739   1.319
67755W        W26851  40.394  28.593  12.370
67756W        W26852  16.752   6.784   3.721
67757W        W26853  41.996  38.932  14.440
67758W        W26854  42.843  43.998  10.543
67759W        W26855   0.884   2.933   0.728
67760W        W26856  19.724  29.036   4.714
67761W        W26857   7.347  44.879  11.603
67762W        W26858  33.937  14.274  12.907
67763W        W26859   8.762  15.212  14.433
67764W        W26860  31.516  21.527   2.245
67765W        W26861   6.399  24.116   5.598
67766W        W26862  22.018  26.631   5.230
67767W        W26863  24.686  21.036   2.864
67768W        W26864  39.454  29.133  14.012
67769W        W26865   2.872   1.921   2.345
67770W        W26866   0.922  43.891   2.193
67771W        W26867  19.045  27.166   3.641
67772W        W26868  34.457  13.685  14.353
67773W        W26869  44.934  30.613  12.411
67774W        W26870  44.466   3.786  14.334
67775W        W26871  33.018  12.846   2.708
67776W        W26872   7.373   4.212   3.803
67777W        W26873  27.512  19.737  12.921
67778W        W26874  30.148  43.335   2.902
67779W        W26875  30.466  41.318  13.859
67780W        W26876  18.273  29.089   4.251
67781W        W26877   4.378  13.840   2.822
67782W        W26878  43.284  23.713  12.943
67783W        W26879  14.600   0.796   2.187
67784W        W26880  21.650  33.418   2.886
67785W        W26881  35.534   6.288   0.288
67786W        W26882  36.969   6.678  10.606
67787W        W26883  39.337  31.518  14.449
67788W        W26884  21.553  28.995  12.374
67789W        W26885  43.897  38.071   0.352
67790W        W26886  14.772  32.050   2.763
67791W        W26887  27.576  19.063   0.454
67792W        W26888  43.509  31.446   1.439
67793W        W26889  34.907  10.348   2.223
67794W        W26890  19.541  13.638   4.733
67795W        W26891  15.293  31.590   1.284
67796W        W26892   1.269  36.095  12.009
67797W        W26893  32.567  44.422   2.834
67798W        W26894   1.758  14.198   0.773
67799W        W26895  36.973  35.095   1.768
67800W        W26896  32.062  43.931  13.454
67801W        W26897  37.508   9.244   3.805
67802W        W26898  35.466  20.136  14.451
67803W        W26899  38.403  13.837   0.465
67804W        W26900   5.713  14.107  13.818
67805W        W26901  43.386  18.685   0.840
67806W        W26902   5.722  25.590   0.287
67807W        W26903  39.420   3.792   0.869
67808W        W26904  26.164   8.834   2.185
67809W        W26905  42.013  34.073  12.950
67810W        W26906  32.922   5.256  10.548
67811W        W26907  13.707  15.795   2.810
67812W        W26908  27.126   1.423  10.485
67813W        W26909  30.144   9.152   3.671
67814W        W26910  12.695   6.833  13.333
67815W        W26911  11.771  29.545  13.524
67816W        W26912   7.838  37.045  13.969
67817W        W26913  40.425   3.217   4.640
67818W        W26914  15.626   6.799   3.297
67819W        W26915  29.139  26.503   1.835
67820W        W26916   2.859  31.041  14.823
67821W        W26917  33.085  41.960  13.547
67822W        W26918  14.608  16.597  11.467
67823W        W26919  18.209  29.493   0.417
67824W        W26920  25.076  12.262  12.499
67825W        W26921  34.934  25.515   2.342
67826W        W26922  44.887  21.734  14.005
67827W        W26923   8.776  30.145  12.517
67828W        W26924  21.647   6.893  11.039
67829W        W26925  21.752  29.529   2.885
67830W        W26926  12.612  34.580  11.915
67831W        W26927  23.199  23.216   2.296
67832W        W26928  28.508  19.268  12.427
67833W        W26929  32.635  26.594   4.153
67834W        W26930  13.297  24.513  10.622
67835W        W26931   5.902   6.260   4.219
67836W        W26932  35.953  34.980   0.278
67837W        W26933  38.448  38.068  12.510
67838W        W26934   7.672  15.652   4.688
67839W        W26935  35.890  24.098  10.893
67840W        W26936  25.083   6.349  12.942
67841W        W26937  37.336  36.910  11.890
67842W        W26938  14.605   3.923   2.364
67843W        W26939  27.948  13.744  10.553
67844W        W26940  40.979  32.397   3.771
67845W        W26941  34.000  37.483  12.403
67846W        W26942  30.530   0.350  11.470
67847W        W26943  31.982  34.967  12.537
67848W        W26944  39.523  32.090  13.474
67849W        W26945  24.723  26.601  11.952
67850W        W26946   2.263  40.303  13.859
67851W        W26947  13.229   1.361  12.867
67852W        W26948  39.043  17.588  13.316
67853W        W26949   2.356  18.653  13.504
67854W        W26950  15.311  43.916   4.173
67855W        W26951   4.301  11.179   0.888
67856W        W26952   5.873  22.181  12.057
67857W        W26953   0.330  16.297  13.829
67858W        W26954  27.164  33.417   2.764
67859W        W26955   2.357   0.759  14.299
67860W        W26956   6.271  17.282  13.434
67861W        W26957  28.008  22.111   0.297
67862W        W26958  19.752  18.078  12.037
67863W        W26959  36.367  16.259   3.341
67864W        W26960  43.817  28.675   2.844
67865W        W26961   5.437  28.076   4.150
67866W        W26962  37.404  10.149  11.903
67867W        W26963   1.741  31.638   3.246
67868W        W26964  30.934  22.585  13.537
67869W        W26965  19.075  43.845  12.505
67870W        W26966  19.764  44.440   0.954
67871W        W26967  42.340  33.533   2.316
67872W        W26968  36.889  17.244   3.222
67873W        W26969  34.515  19.665  13.901
67874W        W26970  13.740  40.509  11.608
67875W        W26971   7.834   1.912  14.336
67876W        W26972  26.032  15.173  10.906
67877W        W26973   7.823  26.164   5.102
67878W        W26974   4.930  19.622   4.301
67879W        W26975  37.941   1.876   0.363
67880W        W26976  37.512  15.695  14.460
67881W        W26977   9.884  11.691   3.238
67882W        W26978  44.935  30.578   4.687
67883W        W26979  12.231  39.912   1.442
67884W        W26980   4.309  41.855   1.431
67885W        W26981  29.123  13.343  13.439
67886W        W26982  15.211   0.423   3.762
67887W        W26983  40.519  41.452  11.421
67888W        W26984  10.355   2.267  14.936
67889W        W26985  34.394  31.418  11.603
67890W        W26986  38.927  19.133   0.409
67891W        W26987  42.875  37.920   0.457
67892W        W26988  40.928  11.263   2.700
67893W        W26989  15.760  28.586  12.085
67894W        W26990   3.789  16.150  14.906
67895W        W26991  19.058   8.864  14.880
67896W        W26992  11.287  34.525   2.284
67897W        W26993   4.439  28.110   2.368
67898W        W26994  11.769  25.047  10.031
67899W        W26995  40.415  15.805  13.423
67900W        W26996  44.971  19.169  14.004
67901W        W26997  38.827  14.287  13.426
67902W        W26998  32.505  25.581   2.368
67903W        W26999  10.213  34.459   0.890
67904W        W27000  20.075  18.567  13.042
67905W        W27001  22.672  41.864  14.839
67906W        W27002  38.902   9.169   0.731
67907W        W27003  36.375  14.176   3.369
67908W        W27004   7.344  22.199   4.146
67909W        W27005   6.918   6.267   3.317
67910W        W27006  18.082  28.528  14.461
67911W        W27007  13.767  39.408   0.732
67912W        W27008   0.790  43.962  11.952
67913W        W27009  43.790   8.716  12.897
67914W        W27010  15.096  29.109  14.001
67915W        W27011  27.982  11.718  13.803
67916W        W27012  28.092  29.931   0.948
67917W        W27013  40.429   5.808  12.414
67918W        W27014  26.592   4.730  11.380
67919W        W27015   7.367  29.019   0.403
67920W        W27016  18.079   4.770  14.406
67921W        W27017   1.387  36.970   4.659
67922W        W27018  35.597   5.256  14.438
67923W        W27019  31.060  36.897   1.371
67924W        W27020  40.881   5.918   4.653
67925W        W27021  23.001  21.203   4.315
67926W        W27022  34.119  21.614  11.945
67927W        W27023  25.065  41.457   0.477
67928W        W27024  12.253  28.062  14.819
67929W        W27025  27.107  42.905  13.370
67930W        W27026   2.858  18.755  12.475
67931W        W27027  23.142  20.116  14.486
67932W        W27028  25.571   3.778   4.673
67933W        W27029  25.651   7.726   1.729
67934W        W27030  17.783  11.769   1.777
67935W        W27031  18.703   3.946   2.352
67936W        W27032  16.625   6.294  11.958
67937W        W27033  21.717   3.439   5.206
67938W        W27034  38.059  28.109   3.713
67939W        W27035  20.103  39.336   2.860
67940W        W27036  27.003  18.204   2.897
67941W        W27037  29.984  14.615   0.767
67942W        W27038   6.388  30.073   4.267
67943W        W27039  14.219  17.647  12.534
67944W        W27040  17.634  34.095   0.296
67945W        W27041  37.043  17.224  12.092
67946W        W27042   1.430  32.460   4.785
67947W        W27043  31.976  42.867  10.027
67948W        W27044  11.155  24.563   4.649
67949W        W27045  17.669  36.493   2.240
67950W        W27046  22.076   7.395  13.377
67951W        W27047  25.136  31.514  14.954
67952W        W27048  13.336  21.213   3.648
67953W        W27049   9.285  24.500   0.405
67954W        W27050  42.834  20.122  13.925
67955W        W27051  27.526  13.719   1.335
67956W        W27052   0.374  12.700   0.950
67957W        W27053  29.042   1.419  10.572
67958W        W27054  21.083  25.143   4.633
67959W        W27055  30.502   5.411  10.476
67960W        W27056  36.982  16.736   0.729
67961W        W27057   6.728  11.672  13.395
67962W        W27058  39.949  12.731  11.500
67963W        W27059  41.300  19.285   0.882
67964W        W27060  28.182  26.145  12.841
67965W        W27061  28.073  18.596   0.366
67966W        W27062  15.618   8.821  12.528
67967W        W27063  32.021  22.623  11.965
67968W        W27064  39.335  39.850   2.835
67969W        W27065  44.422  20.703  11.877
67970W        W27066  20.721   1.339  14.932
67971W        W27067  10.783  23.994  11.876
67972W        W27068   7.681   5.847  14.338
67973W        W27069   2.429   5.822   0.341
67974W        W27070  27.549  41.371  13.063
67975W        W27071  18.683  15.289   4.785
67976W        W27072  26.097  26.626  11.940
67977W        W27073   4.437  38.359   1.764
67978W        W27074  38.843  28.044  13.049
67979W        W27075  38.483  41.931  12.054
67980W        W27076  21.135  41.795  13.407
67981W        W27077  23.709  31.905  13.059
67982W        W27078  32.141  30.652   2.317
67983W        W27079  31.529  13.828   2.733
67984W        W27080  37.925  25.149  14.938
67985W        W27081  31.410  26.668  12.044
67986W        W27082  37.054   6.412  11.981
67987W        W27083  10.318  44.425   1.450
67988W        W27084  12.770  16.663   5.272
67989W        W27085  30.517  27.639   5.155
67990W        W27086   0.272  23.660  11.419
67991W        W27087  36.424  16.198   1.834
67992W        W27088  34.426  37.083  13.492
67993W        W27089  35.933  23.648   3.667
67994W        W27090  35.594  32.007   1.402
67995W        W27091  15.282  10.661  12.396
67996W        W27092   6.321  39.051   1.839
67997W        W27093  43.871  44.299   1.906
67998W        W27094  12.284  32.456  14.774
67999W        W27095  19.064  26.130   1.897
68000W        W27096  18.581  33.024  12.489
68001W        W27097   7.724  12.115  14.280
68002W        W27098  33.895   5.705  11.076
68003W        W27099  37.449  27.616   2.183
68004W        W27100  14.102  41.995   2.385
68005W        W27101   4.375   9.772   2.334
68006W        W27102   3.772  20.584  10.888
68007W        W27103  14.753  25.968  13.038
68008W        W27104  16.073  28.673   0.343
68009W        W27105  34.992  16.582  11.436
68010W        W27106  29.513  31.647  14.282
68011W        W27107   9.760  18.659  13.330
68012W        W27108  13.348  24.069  10.433
68013W        W27109  23.578  24.507   2.231
68014W        W27110   0.809  33.024  12.494
68015W        W27111   1.260  37.390  14.846
68016W        W27112   8.792  42.328   0.865
68017W        W27113  20.209   4.706   3.866
68018W        W27114  35.928  24.615   2.378
68019W        W27115  13.273   1.916  13.457
68020W        W27116  44.298  34.378   0.801
68021W        W27117   8.216  26.613  14.349
68022W        W27118  26.695  11.819   3.221
68023W        W27119  18.181  14.661   3.314
68024W        W27120  33.425  27.945   4.730
68025W        W27121  24.113  32.445  12.480
68026W        W27122  24.055  33.436  13.911
68027W        W27123  31.479  13.599  13.499
68028W        W27124  39.923  11.132   1.814
68029W        W27125  23.594  17.119   1.389
68030W        W27126  22.704   3.315   1.369
68031W        W27127  30.056  24.181  11.547
68032W        W27128   9.756  34.034  14.345
68033W        W27129  18.287  35.020  13.476
68034W        W27130  31.947  38.853  14.970
68035W        W27131  25.469   7.396  14.427
68036W        W27132  40.375  40.472   5.196
68037W        W27133   4.933   6.292   0.459
68038W        W27134  38.948  17.658  12.384
68039W        W27135   6.309  21.608   4.811
68040W        W27136  41.868  44.896   2.684
68041W        W27137  12.211  18.182   2.310
68042W        W27138  22.539  13.834  12.548
68043W        W27139  24.182  16.734  10.558
68044W        W27140  43.872  19.157   2.694
68045W        W27141   5.846  18.624   1.327
68046W        W27142  32.476  10.151   3.216
68047W        W27143  40.473  17.206   3.762
68048W        W27144  28.157   6.261   1.350
68049W        W27145  16.252  34.596   4.213
68050W        W27146  20.065   8.310   3.707
68051W        W27147  40.933  17.755  11.429
68052W        W27148  22.616  22.523   3.259
68053W        W27149  15.802  13.143   2.794
68054W        W27150   9.686  39.039  11.927
68055W        W27151   6.285  10.764  12.052
68056W        W27152  21.575  17.556  11.479
68057W        W27153   2.868  31.488   1.843
68058W        W27154  43.468  39.344  11.048
68059W        W27155  26.671  14.183   4.681
68060W        W27156   8.406  34.040  13.498
68061W        W27157  18.235  38.402   0.408
68062W        W27158  39.540   5.778  14.944
68063W        W27159  23.022  19.203  11.007
68064W        W27160  29.136  24.164  12.493
68065W        W27161  41.445  22.717   2.693
68066W        W27162  42.489  36.908  12.915
68067W        W27163  14.761  38.336  10.504
68068W        W27164  24.038  36.847  11.916
68069W        W27165  16.234  20.173  12.390
68070W        W27166  12.172  23.019   3.179
68071W        W27167  44.484  16.224   1.704
68072W        W27168  43.271  17.608  12.468
68073W        W27169  30.467  31.980   5.157
68074W        W27170   1.939  33.058  12.835
68075W        W27171  20.689  33.605   2.843
68076W        W27172  23.062  15.279  10.510
68077W        W27173   2.820  11.829  14.790
68078W        W27174  22.649  37.862  11.857
68079W        W27175   9.846  26.589   3.857
68080W        W27176  35.530  23.593  11.391
68081W        W27177  23.735  16.287  13.014
68082W        W27178  17.773  21.551   4.344
68083W        W27179  24.513  14.833  14.488
68084W        W27180   5.308  33.472   1.744
68085W        W27181  24.013   1.834   0.899
68086W        W27182  31.136  34.456  14.484
68087W        W27183  16.703  24.602  12.548
68088W        W27184  25.114  34.485   9.478
68089W        W27185  17.788   9.845   3.631
68090W        W27186  22.653   7.773  14.800
68091W        W27187  43.941  41.916  10.552
68092W        W27188   2.731  28.028   0.346
68093W        W27189  22.657  30.544   3.310
68094W        W27190  38.527  21.108  13.423
68095W        W27191  12.276   7.912   2.805
68096W        W27192  11.249  18.103   2.309
68097W        W27193  24.478  12.300  13.053
68098W        W27194  29.081  14.695  12.914
68099W        W27195  38.428  20.626  13.859
68100W        W27196  33.108  27.049  11.515
68101W        W27197  44.778  21.182  14.515
68102W        W27198  41.445  20.183   2.256
68103W        W27199  16.114  14.319   3.641
68104W        W27200  13.619  13.116   3.260
68105W        W27201  16.073  42.966   0.467
68106W        W27202  29.013  26.153  10.545
68107W        W27203  15.192  23.185   2.235
68108W        W27204   9.164  25.965   0.367
68109W        W27205  20.138   1.871  10.501
68110W        W27206   2.937   7.280   3.663
68111W        W27207  27.116  11.853   9.934
68112W        W27208   4.819  31.928   4.212
68113W        W27209  28.054   9.202   1.433
68114W        W27210  12.294  31.536   0.825
68115W        W27211  31.143  12.737  14.342
68116W        W27212  22.227  39.882   4.284
68117W        W27213   3.939  23.494   3.868
68118W        W27214  17.639  43.424   2.676
68119W        W27215  17.648  21.575  14.018
68120W        W27216   4.307   6.747   1.405
68121W        W27217  17.713  29.473   4.743
68122W        W27218  19.673  10.764   1.770
68123W        W27219  35.425  23.510  10.011
68124W        W27220  14.620  35.597  14.938
68125W        W27221  18.159   2.275  14.912
68126W        W27222  19.129  25.658   1.258
68127W        W27223   3.223  20.188   3.713
68128W        W27224   2.754  22.081  14.001
68129W        W27225  28.153  36.969  12.447
68130W        W27226   2.396  36.922  13.545
68131W        W27227  28.460   9.858  10.556
68132W        W27228  18.770  17.129  12.894
68133W        W27229   5.328  39.316   4.148
68134W        W27230   6.271   8.831  13.386
68135W        W27231   9.194   6.856  13.543
68136W        W27232  40.474  12.148   2.735
68137W        W27233  27.601  18.767  11.129
68138W        W27234  37.532  39.814  10.156
68139W        W27235   2.844  42.393  11.014
68140W        W27236  14.129  18.682   1.406
68141W        W27237  22.584   8.251  14.491
68142W        W27238   8.193  23.002  13.948
68143W        W27239  37.992   4.936  14.320
68144W        W27240  20.730  36.000  14.783
68145W        W27241  15.720  30.598   3.832
68146W        W27242  37.467  37.064   0.326
68147W        W27243  18.173  35.521   4.781
68148W        W27244   4.746  31.436   3.170
68149W        W27245  17.095  42.390   0.808
68150W        W27246   9.748   6.782   0.296
68151W        W27247  38.051   3.332   3.279
68152W        W27248  30.567  29.058  11.960
68153W        W27249   7.370  36.851  12.352
68154W        W27250  13.287   0.760  11.548
68155W        W27251  19.650   2.434  14.468
68156W        W27252   6.852  12.684   0.849
68157W        W27253   6.191  38.056  10.925
68158W        W27254  29.649  33.122   0.400
68159W        W27255   5.254  15.256   3.779
68160W        W27256  38.965  39.411  11.958
68161W        W27257  38.991   3.921   4.641
68162W        W27258  39.377   1.248   4.617
68163W        W27259  40.360  37.947  12.533
68164W        W27260  41.488   0.456  11.478
68165W        W27261   5.890  26.650  13.313
68166W        W27262  36.890   7.201  12.872
68167W        W27263  24.219  14.765  11.471
68168W        W27264  35.428  23.587   0.460
68169W        W27265  43.786  31.618   2.717
68170W        W27266  21.162   7.387   2.766
68171W        W27267   8.779   1.738   0.835
68172W        W27268  34.077  32.021  13.858
68173W        W27269   8.280  16.275  14.440
68174W        W27270  34.551  11.134  12.492
68175W        W27271  15.325  10.768  10.559
68176W        W27272   1.864  24.613   5.314
68177W        W27273  25.985  27.450   0.726
68178W        W27274  44.340  41.844   2.729
68179W        W27275   9.735  25.564  13.402
68180W        W27276  41.338  40.374  13.016
68181W        W27277  14.774  32.050   4.177
68182W        W27278   4.334   9.786  10.448
68183W        W27279  42.505  22.713  11.883
68184W        W27280  20.181  12.705  14.303
68185W        W27281   1.478  13.287   4.201
68186W        W27282  12.610  37.437  14.983
68187W        W27283  24.537   7.299  10.576
68188W        W27284  42.438  34.575   3.829
68189W        W27285  30.495  30.975   1.218
68190W        W27286  34.595   0.293  14.371
68191W        W27287  43.781  26.986  13.308
68192W        W27288   9.249   7.332   1.234
68193W        W27289  17.229  20.099  13.921
68194W        W27290  14.610  23.589   2.229
68195W        W27291  14.834  23.525   0.314
68196W        W27292  31.935   8.730  13.332
68197W        W27293  12.160  21.212   4.828
68198W        W27294  14.202  43.974  10.619
68199W        W27295  17.305  17.742   4.691
68200W        W27296  39.037  32.550   1.218
68201W        W27297   7.902  28.986  11.397
68202W        W27298  29.650   1.784  11.051
68203W        W27299  25.122  31.518  11.073
68204W        W27300  44.770   5.224  12.362
68205W        W27301  27.668  26.661  14.859
68206W        W27302  25.021  26.161   4.811
68207W        W27303  16.257  13.157  14.439
68208W        W27304  10.844  39.341  11.902
68209W        W27305  10.364  10.160  11.439
68210W        W27306  21.215   5.798  13.478
68211W        W27307  12.194   8.384  11.537
68212W        W27308   0.350  15.677  11.422
68213W        W27309   3.246  37.442   1.695
68214W        W27310   3.289  44.830  10.593
68215W        W27311  30.930   4.755   0.815
68216W        W27312  43.798  44.984   2.378
68217W        W27313  11.293   9.741  10.493
68218W        W27314  39.014  42.392   0.354
68219W        W27315  44.811  35.881  14.390
68220W        W27316  36.545  25.097  11.110
68221W        W27317  40.951  26.636   2.862
68222W        W27318  22.148  41.520  11.585
68223W        W27319   1.458  21.023  11.931
68224W        W27320  21.032  16.591  13.368
68225W        W27321   8.885  17.101  10.638
68226W        W27322  13.257  25.029   2.798
68227W        W27323  34.431  18.237  11.494
68228W        W27324  42.999  35.925   2.701
68229W        W27325  35.000  23.039  11.124
68230W        W27326  20.634  37.521  11.931
68231W        W27327   0.449  16.709  12.932
68232W        W27328  33.992  24.078   2.854
68233W        W27329  42.777  31.079  10.637
68234W        W27330  38.549  12.691  11.503
68235W        W27331  36.576  40.511  13.813
68236W        W27332   1.959  44.985   1.410
68237W        W27333  20.215  14.627  12.354
68238W        W27334  33.957  39.043   1.713
68239W        W27335  13.779   1.280   1.384
68240W        W27336   5.375  18.087   1.808
68241W        W27337   8.217  16.272   4.192
68242W        W27338  29.130  40.441   4.282
68243W        W27339  36.914   7.722  11.510
68244W        W27340  35.110  10.679  11.944
68245W        W27341  29.505  10.879  10.434
68246W        W27342   1.415  42.786   1.274
68247W        W27343  40.368  36.894  13.466
68248W        W27344  23.156  37.452  14.911
68249W        W27345  39.526  40.502   0.327
68250W        W27346  39.856   9.844   0.244
68251W        W27347  25.687  23.109   2.852
68252W        W27348  32.530  29.068   3.768
68253W        W27349  23.701  17.268   0.772
68254W        W27350   9.225  18.728   3.155
68255W        W27351  11.160  35.589   3.756
68256W        W27352   5.731  16.285   0.337
68257W        W27353   6.815  37.560  11.574
68258W        W27354  31.576   6.686  12.850
68259W        W27355  13.152  25.638   3.751
68260W        W27356  28.451  26.043  14.778
68261W        W27357  40.446  13.344   3.870
68262W        W27358   7.227   8.389  11.082
68263W        W27359  40.984   6.878   0.435
68264W        W27360  13.215  18.219   3.788
68265W        W27361  30.996  21.067   1.873
68266W        W27362  38.014   5.917   4.144
68267W        W27363  40.049   6.839  14.307
68268W        W27364  14.617  17.275   4.315
68269W        W27365   1.301  20.119   4.243
68270W        W27366  42.829  25.489  10.441
68271W        W27367  30.472   5.802   4.330
68272W        W27368  28.637  34.965   2.314
68273W        W27369  32.892  41.476  11.408
68274W        W27370  43.287  17.556  14.483
68275W        W27371  35.994  36.541   2.222
68276W        W27372  40.882  15.790   4.341
68277W        W27373  28.523  11.776  13.960
68278W        W27374  38.460  13.834  11.417
68279W        W27375  36.997   5.850  10.923
68280W        W27376  19.195  12.691  12.943
68281W        W27377  39.436  40.416   2.180
68282W        W27378   5.692  38.012  10.942
68283W        W27379   9.356   8.900   0.244
68284W        W27380   5.888  37.539  13.535
68285W        W27381  11.278  34.101   3.702
68286W        W27382  21.541  18.247   1.728
68287W        W27383  15.743  41.338  10.972
68288W        W27384  27.448  25.684  14.998
68289W        W27385  26.641  38.530  12.444
68290W        W27386  27.454  30.439   4.197
68291W        W27387  30.614  26.602   2.381
68292W        W27388  11.144  26.655   0.355
68293W        W27389  41.308  20.740  11.124
68294W        W27390   6.908   8.293  14.486
68295W        W27391   7.321  38.441   0.340
68296W        W27392   7.405  18.634  10.639
68297W        W27393  14.164   7.859  13.935
68298W        W27394   1.885   9.214   2.711
68299W        W27395  18.742   1.975  11.402
68300W        W27396  41.965  38.353  12.059
68301W        W27397   3.832  24.974   5.270
68302W        W27398  15.235  24.642  11.433
68303W        W27399   1.337  17.699   4.117
68304W        W27400  16.635  37.540   0.400
68305W        W27401   2.942   0.250  12.016
68306W        W27402  24.650   1.876   4.161
68307W        W27403  40.038  34.600  14.794
68308W        W27404  43.774  12.777   2.333
68309W        W27405  35.922  19.120  13.912
68310W        W27406   6.255  37.435  14.899
68311W        W27407   9.383   1.461   0.827
68312W        W27408  17.205  31.032  14.791
68313W        W27409  39.889  26.539   4.612
68314W        W27410  16.272  11.698  12.893
68315W        W27411  15.805   1.839   9.925
68316W        W27412   9.880   1.342  11.587
68317W        W27413  22.622  10.692   3.323
68318W        W27414  28.571   8.390   0.744
68319W        W27415  18.739   1.298  14.338
68320W        W27416   7.793   5.361   0.481
68321W        W27417  15.140  21.572  14.276
68322W        W27418  20.721  21.584   3.329
68323W        W27419  15.253  10.837  13.888
68324W        W27420  25.117  44.930   2.311
68325W        W27421  38.035  29.959   2.225
68326W        W27422  44.978  13.311  12.574
68327W        W27423  27.999  15.100  12.026
68328W        W27424  39.514  31.637  12.964
68329W        W27425  32.890  27.526   4.336
68330W        W27426  32.125  28.544   2.689
68331W        W27427   6.239  39.051   1.305
68332W        W27428   5.924  39.920   0.374
68333W        W27429  26.076   9.850   4.221
68334W        W27430   7.302  30.073  13.035
68335W        W27431  34.961  36.570  13.516
68336W        W27432   8.169  39.323   4.720
68337W        W27433  28.655  21.619   4.279
68338W        W27434  33.397  37.466   2.694
68339W        W27435  31.448  17.677  13.486
68340W        W27436  15.716  31.130  14.904
68341W        W27437  12.617  26.522  13.390
68342W        W27438  32.135   1.402  12.452
68343W        W27439  14.710  28.116   1.440
68344W        W27440  21.260  20.565   0.391
68345W        W27441   9.706  21.639   0.737
68346W        W27442  25.029  22.190  12.932
68347W        W27443   4.870  37.020   3.724
68348W        W27444  13.280  31.573   1.326
68349W        W27445   7.748  40.799   2.355
68350W        W27446  43.776  21.680   3.644
68351W        W27447   3.743  10.327  11.528
68352W        W27448   5.739   3.297  12.951
68353W        W27449  25.687  23.546  11.595
68354W        W27450  33.392   4.929   1.808
68355W        W27451   8.707  13.692   5.199
68356W        W27452  29.924  29.149  11.981
68357W        W27453  38.557  42.950   3.868
68358W        W27454  18.716  23.176  11.398
68359W        W27455  18.133   2.866  14.944
68360W        W27456   4.799  23.635   0.369
68361W        W27457   7.302  22.088   3.360
68362W        W27458  15.600  42.453   3.706
68363W        W27459  23.135  33.574  10.904
68364W        W27460  33.572  44.499  14.347
68365W        W27461   5.917  35.983   3.217
68366W        W27462  35.582   7.251   2.192
68367W        W27463  20.129   2.855   0.291
68368W        W27464   5.384  21.559   9.444
68369W        W27465  28.640  41.028   3.859
68370W        W27466  21.210  17.676   0.947
68371W        W27467  20.648  44.365   3.337
68372W        W27468   6.704   7.335   4.762
68373W        W27469  35.086  41.847   0.878
68374W        W27470  17.705   3.783   4.655
68375W        W27471  17.126  43.285   1.272
68376W        W27472  19.580  31.129  14.983
68377W        W27473  40.423  11.714   3.719
68378W        W27474  20.634   1.783   0.291
68379W        W27475  38.347  37.425   0.748
68380W        W27476  11.212  21.677  12.481
68381W        W27477  27.154  24.587   3.372
68382W        W27478  10.157   1.374  13.474
68383W        W27479  44.357   4.920   1.447
68384W        W27480  28.504  12.256   4.654
68385W        W27481  25.138  36.890   4.354
68386W        W27482  38.864  32.519  11.529
68387W        W27483  18.604  29.618   3.867
68388W        W27484   4.298  31.614  12.511
68389W        W27485  31.456  37.057   2.767
68390W        W27486   5.828  29.134   3.376
68391W        W27487   9.391   6.678   3.723
68392W        W27488   0.304  28.129   4.234
68393W        W27489  38.892  30.585  12.379
68394W        W27490  29.441  33.058   1.252
68395W        W27491  20.526   3.796   0.249
68396W        W27492  38.555  41.455  12.477
68397W        W27493  26.508  36.522  12.852
68398W        W27494  13.678  20.668   0.929
68399W        W27495  27.631  13.112   1.829
68400W        W27496  20.721  40.906   4.245
68401W        W27497  37.914  12.339  13.002
68402W        W27498  19.146  31.497   1.438
68403W        W27499  32.554  44.383   3.200
68404W        W27500   4.390  24.583   1.320
68405W        W27501   6.402  31.989   2.734
68406W        W27502  43.996  23.577   1.785
68407W        W27503  40.370   5.219   1.846
68408W        W27504  22.537  31.436  10.528
68409W        W27505   3.824  27.990  13.057
68410W        W27506  12.350  17.796  14.867
68411W        W27507  28.559  33.930   2.356
68412W        W27508   4.837   9.198   2.203
68413W        W27509  29.164  34.418   1.754
68414W        W27510  35.429  19.212   0.413
68415W        W27511  10.376  35.574  14.454
68416W        W27512  37.462   4.754   4.822
68417W        W27513   1.304   2.464  11.873
68418W        W27514   9.742  38.444  12.354
68419W        W27515  30.442  34.380   4.736
68420W        W27516  38.847  10.330   0.397
68421W        W27517  28.967  39.922  12.904
68422W        W27518   3.244  10.276  10.404
68423W        W27519  14.671  27.177  10.979
68424W        W27520  30.100  15.741   1.804
68425W        W27521  15.320   6.183   1.327
68426W        W27522  26.613  30.657   1.266
68427W        W27523  41.509   8.283  13.535
68428W        W27524  21.532  30.986  13.378
68429W        W27525  16.121  31.913   2.687
68430W        W27526  35.512   8.404  11.479
68431W        W27527  13.123  37.416   4.691
68432W        W27528  15.297  33.578   3.762
68433W        W27529  35.385  10.649   3.379
68434W        W27530  20.579  42.291  14.387
68435W        W27531  17.226  43.352   0.383
68436W        W27532  36.373  35.866   5.250
68437W        W27533   6.348  15.121  12.461
68438W        W27534  13.120   7.232   3.206
68439W        W27535  16.569  16.789  11.916
68440W        W27536  16.622  17.690  11.064
68441W        W27537  29.449  32.996   3.852
68442W        W27538  26.093   2.866   1.843
68443W        W27539   2.255  12.338  12.053
68444W        W27540  13.253  11.222   3.217
68445W        W27541  28.434   1.822   2.714
68446W        W27542  42.430  26.954   0.373
68447W        W27543  23.533  12.825  12.044
68448W        W27544  26.469  36.973   2.380
68449W        W27545  10.359   4.357  10.477
68450W        W27546   1.439  42.310  12.523
68451W        W27547  29.508   3.350  10.421
68452W        W27548  34.461  35.377  14.786
68453W        W27549  37.942  26.530  13.868
68454W        W27550   0.474  31.410  12.395
68455W        W27551   3.340  19.150   3.772
68456W        W27552   6.814  33.441   2.802
68457W        W27553  21.630  26.486  10.995
68458W        W27554  37.439  33.498  10.906
68459W        W27555  35.485   6.303   2.183
68460W        W27556  21.181  22.630   0.396
68461W        W27557   9.667  36.466  12.978
68462W        W27558  31.105   8.658  12.976
68463W        W27559   0.901   3.752   0.444
68464W        W27560  33.952  39.426   4.661
68465W        W27561  24.094  26.651  14.876
68466W        W27562   3.720   3.408   2.725
68467W        W27563  22.600  43.958   3.222
68468W        W27564  20.223  23.236  10.539
68469W        W27565   2.788   0.961   1.292
68470W        W27566  14.680  22.068   4.676
68471W        W27567   9.693  25.135  14.861
68472W        W27568  28.488  26.589   1.313
68473W        W27569  18.094  44.863   0.765
68474W        W27570   7.221   7.176  12.878
68475W        W27571  34.990  29.601  12.947
68476W        W27572   7.406  29.132  13.848
68477W        W27573  42.405  18.668   3.791
68478W        W27574   0.865  35.590   1.419
68479W        W27575   0.265   9.160   3.203
68480W        W27576  39.470   1.797  11.963
68481W        W27577  25.604  23.141   0.910
68482W        W27578  23.678  42.841  14.854
68483W        W27579  19.668  36.880  12.388
68484W        W27580  10.165  32.567   0.811
68485W        W27581  17.270   9.693   3.237
68486W        W27582  43.323  21.661   3.374
68487W        W27583  39.014  13.841   0.457
68488W        W27584  38.537   0.938   3.730
68489W        W27585  34.377  14.272  10.443
68490W        W27586   7.325  17.586   1.814
68491W        W27587  12.266  43.322  13.968
68492W        W27588   2.361  12.220   3.835
68493W        W27589  36.528  19.780   4.178
68494W        W27590  39.020   1.394   3.350
68495W        W27591  38.942  18.678  14.015
68496W        W27592  39.962   4.285   3.259
68497W        W27593   1.937   7.324   4.186
68498W        W27594   7.385  36.869  14.379
68499W        W27595   6.197  23.041  13.523
68500W        W27596  43.298  12.741   3.350
68501W        W27597   0.360  43.444   2.220
68502W        W27598   9.375  19.560  10.434
68503W        W27599  30.159  28.438  14.988
68504W        W27600  13.788   7.195  11.094
68505W        W27601  19.181  10.753  11.518
68506W        W27602  18.087  16.269  11.120
68507W        W27603  19.552  15.798  14.962
68508W        W27604  27.034   6.922   0.451
68509W        W27605  42.323  18.079  14.892
68510W        W27606   5.909  30.977   3.771
68511W        W27607   3.943  17.191  14.415
68512W        W27608  24.545   6.391   3.695
68513W        W27609  32.397   8.202   4.193
68514W        W27610  36.845  11.301   0.813
68515W        W27611  33.475  33.490   0.843
68516W        W27612   6.838  20.244   0.843
68517W        W27613   5.236  12.774  11.500
68518W        W27614  17.279  22.124   2.712
68519W        W27615  12.788  20.189   3.273
68520W        W27616   5.888  18.227   0.781
68521W        W27617   7.899  28.106  14.012
68522W        W27618  38.894   6.297   4.342
68523W        W27619  25.183  11.797   4.681
68524W        W27620  12.260  23.205  11.081
68525W        W27621   2.304  37.381   0.818
68526W        W27622  15.808   8.695   3.751
68527W        W27623  28.117  36.499   2.270
68528W        W27624  31.041  22.172   2.268
68529W        W27625  31.417  14.682  13.850
68530W        W27626  29.128  13.673  10.576
68531W        W27627   6.838  38.826  13.850
68532W        W27628   0.403  43.977  12.848
68533W        W27629  27.518  26.085  11.428
68534W        W27630  41.316  11.160   9.490
68535W        W27631  32.421  33.440   3.172
68536W        W27632  28.605  33.954  10.026
68537W        W27633  37.381   5.915  10.558
68538W        W27634  19.144  14.819  14.371
68539W        W27635  43.431  23.999  13.921
68540W        W27636   1.330  27.022   4.611
68541W        W27637  18.195  14.698   0.842
68542W        W27638   7.354  21.213   3.320
68543W        W27639   3.451  25.993  14.909
68544W        W27640  10.746  12.244   3.810
68545W        W27641  36.463  11.188  11.928
68546W        W27642  14.164  15.814   4.212
68547W        W27643  14.605   5.345   1.795
68548W        W27644  36.859  26.080  12.397
68549W        W27645  42.297  41.002  12.016
68550W        W27646  15.657   2.899  12.859
68551W        W27647  35.950  37.545  11.064
68552W        W27648  32.139  14.639  14.792
68553W        W27649  40.343  29.102  10.146
68554W        W27650  34.421  24.615   2.778
68555W        W27651  41.850  19.691   1.409
68556W        W27652  44.788   4.747   1.929
68557W        W27653  24.548  22.659   2.417
68558W        W27654  43.360  20.048  14.475
68559W        W27655  36.459  33.463   1.792
68560W        W27656  37.849   8.832   3.774
68561W        W27657  37.510  20.636   2.213
68562W        W27658  24.485  23.711  14.502
68563W        W27659   7.203  19.585   2.388
68564W        W27660  38.988  36.066  10.933
68565W        W27661   1.878   1.839   0.888
68566W        W27662  30.928  16.235  13.461
68567W        W27663  38.515  42.314  11.395
68568W        W27664  20.721  24.127   3.870
68569W        W27665  24.098  36.487  11.406
68570W        W27666  23.509   3.341  12.963
68571W        W27667  17.202   0.253   3.652
68572W        W27668  10.340  33.117   2.357
68573W        W27669  34.447  11.280  13.875
68574W        W27670  35.087  29.961   2.679
68575W        W27671   7.373  16.187   2.250
68576W        W27672  39.035  15.111  10.115
68577W        W27673  25.991  27.082   3.815
68578W        W27674   3.401  44.764   4.341
68579W        W27675  17.592  31.076   2.198
68580W        W27676  16.732   7.194   0.758
68581W        W27677  41.514   4.823   4.607
68582W        W27678  23.138  35.578  11.967
68583W        W27679  10.282  39.921   4.751
68584W        W27680  38.504  12.835  14.952
68585W        W27681   4.272   6.356   2.202
68586W        W27682  42.403  24.643  11.403
68587W        W27683  26.110  35.440  14.315
68588W        W27684   4.772  41.980  13.810
68589W        W27685  44.883  19.749  10.562
68590W        W27686   3.300   6.806   0.434
68591W        W27687  11.346  27.081   4.604
68592W        W27688  40.874  23.718   1.879
68593W        W27689  16.111  37.345   3.385
68594W        W27690  33.608   1.400   2.843
68595W        W27691  15.690  34.469   0.290
68596W        W27692  16.576  38.358  14.344
68597W        W27693  34.009  35.085  14.343
68598W        W27694  42.989   5.273   1.246
68599W        W27695  10.704  29.659   0.242
68600W        W27696  41.465  39.841  14.390
68601W        W27697   6.850  31.014  11.492
68602W        W27698   9.864  19.099   0.248
68603W        W27699  11.851  36.097  10.083
68604W        W27700  10.371  29.630   1.746
68605W        W27701  31.933  32.592   4.218
68606W        W27702   9.712  38.829   3.773
68607W        W27703  13.663  38.409   4.805
68608W        W27704  33.503  38.926  12.492
68609W        W27705  35.571  14.173   1.370
68610W        W27706  22.550  33.996  14.998
68611W        W27707  35.952  41.502  13.426
68612W        W27708  32.114   1.761  14.377
68613W        W27709   6.296  27.670   3.743
68614W        W27710  18.218  32.015  12.457
68615W        W27711  16.673  37.432   1.742
68616W        W27712  27.454   6.912  11.876
68617W        W27713   0.867  42.417  11.592
68618W        W27714  15.783  40.992  13.317
68619W        W27715  16.766  26.615   1.762
68620W        W27716   9.703  44.320   3.793
68621W        W27717  32.478  38.886   4.131
68622W        W27718  39.914   7.879   4.280
68623W        W27719  14.213  21.514   0.287
68624W        W27720  31.539  23.692   3.222
68625W        W27721  15.177  43.492   3.380
68626W        W27722   4.402  33.972   2.699
68627W        W27723  10.655  28.991  11.402
68628W        W27724  42.342  14.623   2.800
68629W        W27725  44.876  26.152  12.855
68630W        W27726  36.956  42.942   0.837
68631W        W27727  34.958  19.687   3.719
68632W        W27728  39.343  26.467   4.838
68633W        W27729  32.075  31.583  12.890
68634W        W27730  27.112  31.448   1.305
68635W        W27731   4.908  26.613  11.514
68636W        W27732  31.568  21.125   4.347
68637W        W27733  15.279  40.849  12.531
68638W        W27734  27.491  15.706  13.909
68639W        W27735  44.495  33.606  14.962
68640W        W27736   4.210   2.274  11.081
68641W        W27737  26.042  26.613   1.352
68642W        W27738  21.598  18.281   4.176
68643W        W27739  36.033  28.091  14.855
68644W        W27740  20.147   1.945   4.680
68645W        W27741  18.628  29.482  12.467
68646W        W27742  13.799  11.152   4.773
68647W        W27743  13.323  15.823   4.126
68648W        W27744   1.241  32.100  13.396
68649W        W27745   5.773  24.555   2.790
68650W        W27746  23.592  12.844  13.321
68651W        W27747  31.598  20.107   0.444
68652W        W27748   8.741   2.819   4.612
68653W        W27749  22.150  42.423   1.231
68654W        W27750   1.407  13.282  12.373
68655W        W27751   4.390  39.837  14.365
68656W        W27752  34.593  21.189  13.451
68657W        W27753  33.565  43.971  12.988
68658W        W27754  41.003  18.055  13.857
68659W        W27755  15.824  10.679   4.299
68660W        W27756   1.857  13.636  10.935
68661W        W27757  34.004  43.906  13.444
68662W        W27758   9.886  13.672  14.902
68663W        W27759  41.527  35.482  10.550
68664W        W27760  20.131   9.691   0.920
68665W        W27761   4.216  12.255   4.209
68666W        W27762  25.648  11.641  12.069
68667W        W27763  14.309  39.428  10.636
68668W        W27764   3.289  19.280  11.123
68669W        W27765  35.380   3.416  13.321
68670W        W27766   4.244  25.628  11.549
68671W        W27767  29.132  19.187  13.016
68672W        W27768   5.416  41.976  14.330
68673W        W27769  14.717  40.367   1.824
68674W        W27770  42.014  33.902   4.788
68675W        W27771   1.337  25.121   3.862
68676W        W27772  16.597  37.489   5.284
68677W        W27773  43.425  31.992   0.264
68678W        W27774  29.111  31.480   4.299
68679W        W27775  37.876  30.575  14.446
68680W        W27776   0.260  18.653  11.512
68681W        W27777  13.616  41.950   3.696
68682W        W27778   2.289  43.486  11.055
68683W        W27779  26.955  11.318   3.726
68684W        W27780   7.208   8.205   1.377
68685W        W27781  44.867   0.790   1.387
68686W        W27782  14.636   4.752  13.857
68687W        W27783   2.959  41.397  12.080
68688W        W27784  21.027  23.586  14.898
68689W        W27785  43.835   2.325   4.138
68690W        W27786  15.145  19.251   3.839
68691W        W27787  20.544  36.510  14.388
68692W        W27788  26.615  22.119   4.162
68693W        W27789  40.430  26.185  13.509
68694W        W27790  33.423  43.320  13.365
68695W        W27791  29.092  17.620  13.408
68696W        W27792  26.993   7.369   0.830
68697W        W27793   7.329  31.122  13.327
68698W        W27794  16.178  42.777  14.815
68699W        W27795   8.704  20.577  10.502
68700W        W27796  17.187   4.436  12.962
68701W        W27797  37.038  26.554   2.765
68702W        W27798  18.065  31.499  11.593
68703W        W27799  40.950  10.157  11.977
68704W        W27800  11.258  20.244   0.327
68705W        W27801  26.497   3.363   3.341
68706W        W27802   2.836   5.380  11.054
68707W        W27803   2.739   8.655  14.759
68708W        W27804  37.060   7.805  10.425
68709W        W27805  29.465  40.366  13.512
68710W        W27806  37.022  39.914   4.797
68711W        W27807  40.539  19.079  12.482
68712W        W27808  21.611  34.121  14.489
68713W        W27809  23.050   5.306   4.694
68714W        W27810  43.473  39.314   2.819
68715W        W27811  40.849   9.350   5.604
68716W        W27812   0.429  29.111  10.521
68717W        W27813  24.492   1.255   3.802
68718W        W27814   9.206  31.610   4.279
68719W        W27815   7.781  33.085   0.367
68720W        W27816  31.596  33.430  11.440
68721W        W27817  31.470   3.315   0.768
68722W        W27818  11.370  39.869  12.965
68723W        W27819  43.925   5.301  12.469
68724W        W27820   2.447  26.971  11.441
68725W        W27821  30.102  32.992   2.334
68726W        W27822  34.085  25.561  14.500
68727W        W27823   9.750  38.379   3.662
68728W        W27824  34.103  44.414   1.775
68729W        W27825  21.666  38.051  14.767
68730W        W27826  27.076  40.398   1.226
68731W        W27827  24.602   1.856  13.481
68732W        W27828   7.203  34.119   0.361
68733W        W27829   0.759  37.899  13.831
68734W        W27830   5.300  32.052   2.346
68735W        W27831   4.893  13.722  11.109
68736W        W27832   6.225  10.752   4.824
68737W        W27833   4.252  23.146  14.918
68738W        W27834   8.889  41.846  10.422
68739W        W27835  19.758  35.005  13.999
68740W        W27836   9.668  29.000   9.562
68741W        W27837  14.628   2.472   4.203
68742W        W27838  24.080  14.118  11.475
68743W        W27839  29.976  35.416  12.919
68744W        W27840  16.296  27.462   0.303
68745W        W27841  44.311  43.868  14.897
68746W        W27842  25.019  43.362  14.967
68747W        W27843  24.684  11.144   2.344
68748W        W27844  20.253   9.388  12.015
68749W        W27845  30.975  13.215   3.664
68750W        W27846  34.087  10.221   0.343
68751W        W27847  31.896  10.848   1.874
68752W        W27848  25.531  12.719  10.444
68753W        W27849   3.352   5.201   3.818
68754W        W27850   3.863   1.902  14.003
68755W        W27851  31.448  11.711   4.611
68756W        W27852  38.982  24.617  10.976
68757W        W27853   7.896  12.154  12.068
68758W        W27854   4.844  36.883  13.529
68759W        W27855  40.885  16.688   0.322
68760W        W27856  39.535  20.704  13.472
68761W        W27857  27.603   2.255  11.378
68762W        W27858   4.239  34.879   2.317
68763W        W27859  23.703  31.960   5.316
68764W        W27860  11.148  25.059   3.750
68765W        W27861  30.606  23.077  14.863
68766W        W27862  44.312  11.164  10.937
68767W        W27863  42.029   4.371  14.291
68768W        W27864  41.853  33.620  12.460
68769W        W27865  12.657  34.090  12.496
68770W        W27866   7.247  21.252  13.534
68771W        W27867  40.836  25.559   4.259
68772W        W27868   1.853   4.821  14.462
68773W        W27869  20.642  35.069   1.873
68774W        W27870  26.186  26.061   1.261
68775W        W27871  20.198  34.593  14.804
68776W        W27872  24.213  18.765   4.756
68777W        W27873  20.061  33.092  11.503
68778W        W27874  28.993   2.304   1.928
68779W        W27875  18.658  24.624  10.950
68780W        W27876   6.280  32.076   4.134
68781W        W27877  43.378  36.086   1.369
68782W        W27878  43.001   3.946   0.318
68783W        W27879  32.476  11.311   0.840
68784W        W27880  16.668  27.995  13.508
68785W        W27881  15.657   0.365   4.161
68786W        W27882  30.018  19.695   3.184
68787W        W27883  25.138  43.891  14.336
68788W        W27884  23.649  30.078  12.045
68789W        W27885  17.154  38.390   1.874
68790W        W27886   0.320  23.066  12.383
68791W        W27887  34.003   9.883  13.013
68792W        W27888  14.711  29.943  13.867
68793W        W27889   4.433  35.518   2.780
68794W        W27890  30.589  44.321  12.423
68795W        W27891  28.543  32.421  12.958
68796W        W27892  25.165  18.210   2.797
68797W        W27893  41.453  41.947   2.259
68798W        W27894   6.352   9.278  13.993
68799W        W27895  36.098  31.145   4.258
68800W        W27896  37.005  39.528  12.036
68801W        W27897  33.956   6.379  14.373
68802W        W27898  13.805  39.376   2.348
68803W        W27899  40.340  19.774  13.313
68804W        W27900  39.349  31.583  13.534
68805W        W27901   3.785  19.616  14.830
68806W        W27902  42.897  43.924   4.157
68807W        W27903  42.368  31.634  13.057
68808W        W27904  35.969  42.457   1.716
68809W        W27905  17.197  12.791  11.401
68810W        W27906  21.136  34.028  10.625
68811W        W27907  11.774  18.679   4.834
68812W        W27908  32.495  44.424   1.918
68813W        W27909  24.218  33.891  10.542
68814W        W27910  18.663  44.858  14.401
68815W        W27911  24.087  25.006  11.876
68816W        W27912   8.858  33.924   1.245
68817W        W27913  34.925  26.688   0.921
68818W        W27914  39.947   2.868  12.362
68819W        W27915  19.226  23.175  12.365
68820W        W27916  20.041  27.609  11.415
68821W        W27917  43.880  31.925   1.423
68822W        W27918   4.712  31.964   1.264
68823W        W27919  23.034  14.177  13.042
68824W        W27920  13.811   7.237   4.820
68825W        W27921  40.841  28.154  10.408
68826W        W27922  17.787  23.073   2.860
68827W        W27923  42.906  30.482  14.860
68828W        W27924  42.380   9.354   0.920
68829W        W27925   7.355  18.275   4.810
68830W        W27926  11.861  14.781  13.364
68831W        W27927  28.589   2.300  12.963
68832W        W27928   5.402  43.965   0.406
68833W        W27929  18.231  43.875   1.397
68834W        W27930  22.556  23.213  13.837
68835W        W27931  33.970   2.861  13.362
68836W        W27932   1.809   2.245  11.405
68837W        W27933  35.013   0.958   0.420
68838W        W27934  18.734  15.603   5.297
68839W        W27935   2.776  44.356  14.302
68840W        W27936   4.428  27.978  13.921
68841W        W27937  40.502  25.477   3.286
68842W        W27938  20.583  20.643   2.888
68843W        W27939   8.689  25.657   1.820
68844W        W27940  35.081   4.384   4.709
68845W        W27941  39.027  26.570  14.298
68846W        W27942  35.021  12.645   3.659
68847W        W27943   3.860  41.884  13.906
68848W        W27944  39.045  31.584  11.564
68849W        W27945  17.150  29.049  11.403
68850W        W27946  31.609  38.956   3.702
68851W        W27947  15.758  28.144  11.901
68852W        W27948   0.850   5.921   2.391
68853W        W27949  37.527  25.106  13.395
68854W        W27950  17.760  23.082   4.214
68855W        W27951   5.312  28.628  11.082
68856W        W27952  18.199  37.042   0.775
68857W        W27953  16.725  41.824   2.334
68858W        W27954  31.534  15.777   4.211
68859W        W27955  17.182  18.695  14.992
68860W        W27956   4.243  37.984   3.328
68861W        W27957   9.643   5.225   0.303
68862W        W27958  40.924  27.017  13.505
68863W        W27959  24.528  17.266  10.049
68864W        W27960   0.811   9.858   0.756
68865W        W27961   5.350  34.920   2.800
68866W        W27962  22.706  15.110   0.822
68867W        W27963  11.706  11.838   0.731
68868W        W27964   1.326  41.034  13.506
68869W        W27965  27.602  19.068  12.409
68870W        W27966  15.234  44.838  12.354
68871W        W27967  22.170  14.781   4.188
68872W        W27968  13.200  22.251  12.480
68873W        W27969  10.798   9.662  12.527
68874W        W27970  12.850  39.059   4.264
68875W        W27971  25.048  19.574  14.401
68876W        W27972  41.034  44.296   3.151
68877W        W27973  33.021  17.243  13.012
68878W        W27974  15.174  24.633  10.469
68879W        W27975  42.472  33.581  11.001
68880W        W27976   5.742   8.776   2.317
68881W        W27977  32.529  35.546   3.161
68882W        W27978  22.527  27.476  11.977
68883W        W27979  13.173   6.882   1.928
68884W        W27980   8.693  34.397   1.337
68885W        W27981  32.550  37.437   1.348
68886W        W27982  16.787  44.777   4.206
68887W        W27983  39.484  39.013   2.809
68888W        W27984  28.659  36.435  14.016
68889W        W27985  42.524  22.069   2.292
68890W        W27986  42.909  36.483  12.981
68891W        W27987  34.513   2.423  12.538
68892W        W27988  19.626   0.389  12.541
68893W        W27989  30.972  17.670  13.426
68894W        W27990  34.582  29.527   3.219
68895W        W27991  34.993  28.962   4.342
68896W        W27992  32.043  32.493  12.389
68897W        W27993  12.339  16.769  14.881
68898W        W27994  31.048   6.923  10.993
68899W        W27995   5.890  42.356   0.427
68900W        W27996  14.165   0.942   4.659
68901W        W27997  18.582   1.406   4.632
68902W        W27998   9.388  31.526  10.564
68903W        W27999   3.304  25.606   0.336
68904W        W28000  39.881   6.243  13.473
68905W        W28001  37.472  22.013   1.806
68906W        W28002  25.011  10.657  13.460
68907W        W28003   2.860  32.427   2.191
68908W        W28004  35.500  41.993  14.437
68909W        W28005  14.618  12.157  12.944
68910W        W28006  22.732  43.494  14.379
68911W        W28007  41.301  32.953   2.789
68912W        W28008  33.398  16.239   0.885
68913W        W28009  26.061   0.864  14.785
68914W        W28010  36.495  19.536  11.093
68915W        W28011   2.421  13.266   0.844
68916W        W28012  12.745  32.970   5.230
68917W        W28013  18.609  24.094  12.902
68918W        W28014   1.953  22.078  11.480
68919W        W28015  36.470  15.658   1.892
68920W        W28016   9.393  15.191  10.550
68921W        W28017   0.388  22.658  13.317
68922W        W28018  19.702  38.024  13.823
68923W        W28019  24.107   7.245  14.823
68924W        W28020  20.705  43.960  10.939
68925W        W28021  37.371  35.390   2.203
68926W        W28022  22.696  22.017  11.568
68927W        W28023   8.349  40.837   0.914
68928W        W28024   6.188  11.651   2.831
68929W        W28025  30.054   1.829  11.413
68930W        W28026   4.445  40.496   2.346
68931W        W28027  38.359  29.646   3.735
68932W        W28028  22.021   3.326  14.356
68933W        W28029  21.117  38.379  10.542
68934W        W28030  17.134  26.050   4.763
68935W        W28031  33.050  19.096  13.415
68936W        W28032  36.966  39.521   1.297
68937W        W28033   5.370   8.684   2.789
68938W        W28034  23.109  12.170  13.334
68939W        W28035  13.172  23.497  14.938
68940W        W28036  14.174  16.180  12.552
68941W        W28037  28.168  26.481  14.819
68942W        W28038  33.062  20.707  10.616
68943W        W28039  13.331  14.778   5.162
68944W        W28040  19.199  36.036   1.892
68945W        W28041  33.878   8.762   0.438
68946W        W28042   5.787   1.431   4.216
68947W        W28043  26.679  29.514  12.373
68948W        W28044   4.763  29.620   2.833
68949W        W28045  24.142  21.553   4.137
68950W        W28046  17.770  13.187   2.191
68951W        W28047  21.116  19.585  12.403
68952W        W28048  37.873  38.404   2.383
68953W        W28049  27.591   2.782  11.902
68954W        W28050  16.278  12.279  13.995
68955W        W28051   0.454   6.331  11.411
68956W        W28052  19.702   1.343   4.616
68957W        W28053   7.394  29.548  10.461
68958W        W28054  24.646  13.623  13.994
68959W        W28055  10.742   5.772   1.702
68960W        W28056  29.589  22.661   4.264
68961W        W28057  22.702  15.317  13.039
68962W        W28058   9.168  41.903   0.728
68963W        W28059   7.264  30.420   3.740
68964W        W28060  34.460   8.269   2.682
68965W        W28061   4.411  11.793  11.924
68966W        W28062  18.234  37.036   9.626
68967W        W28063  33.487   7.188   0.361
68968W        W28064  13.155  15.607  14.865
68969W        W28065  23.237  40.973  13.056
68970W        W28066   5.380  34.581  14.466
68971W        W28067  19.648  29.019  12.421
68972W        W28068  30.039   1.864  13.013
68973W        W28069  15.155  38.929   0.835
68974W        W28070   9.831   7.906   3.164
68975W        W28071  11.323  15.101   5.252
68976W        W28072  12.222  37.951   0.333
68977W        W28073  24.195  23.575   3.725
68978W        W28074  35.869  41.354   1.695
68979W        W28075   1.285  26.090  13.456
68980W        W28076   9.813  43.302  10.481
68981W        W28077  11.690  19.111   2.262
68982W        W28078  26.959  31.573  14.890
68983W        W28079   2.289  28.173  14.769
68984W        W28080  26.071  29.054  13.450
68985W        W28081  18.593  30.107  14.464
68986W        W28082  15.183  37.575  13.491
68987W        W28083  12.817  40.340   2.319
68988W        W28084  34.386   0.269   3.243
68989W        W28085  28.182   3.891  12.887
68990W        W28086  19.065  13.625   0.833
68991W        W28087  11.691  22.569   3.249
68992W        W28088   6.731  42.389  13.888
68993W        W28089  38.523  36.942  10.938
68994W        W28090   5.294  21.103  14.978
68995W        W28091  10.815  28.182   2.892
68996W        W28092  26.500  20.680   1.825
68997W        W28093   7.734  16.767   0.860
68998W        W28094  32.432  38.899   3.754
68999W        W28095  16.146  13.328  10.992
69000W        W28096  32.439  33.586   1.859
69001W        W28097  27.606  31.957  12.059
69002W        W28098  42.296  28.983  10.524
69003W        W28099  12.176  28.602   5.306
69004W        W28100  18.279  12.819  11.871
69005W        W28101  33.053  15.655   1.450
69006W        W28102   5.722  12.719   3.324
69007W        W28103   7.711  38.056   2.403
69008W        W28104  24.652   6.185   2.207
69009W        W28105   2.362  28.482   3.337
69010W        W28106  33.437  19.560  14.458
69011W        W28107   7.676  43.797   0.930
69012W        W28108  35.901  22.997   4.704
69013W        W28109  32.910  24.617  12.055
69014W        W28110  12.720  19.760  13.508
69015W        W28111  30.110   0.277  12.037
69016W        W28112  25.501  19.185  14.813
69017W        W28113  32.927  30.125   2.865
69018W        W28114  18.638  42.776  12.943
69019W        W28115   4.384  30.646   2.212
69020W        W28116  23.139   3.805  10.540
69021W        W28117   6.782   5.390   4.206
69022W        W28118  20.684  23.199   0.740
69023W        W28119  18.091   7.883  14.327
69024W        W28120  24.070   8.398   0.813
69025W        W28121  10.139  28.972  14.938
69026W        W28122   5.325  25.021  14.849
69027W        W28123  38.506   1.854  14.020
69028W        W28124  29.657  42.895   4.261
69029W        W28125  23.118  37.502   4.825
69030W        W28126   9.740   5.826   2.792
69031W        W28127  11.693  21.659   2.286
69032W        W28128  10.166  27.562   1.765
69033W        W28129  30.086  37.838  12.915
69034W        W28130  13.744  26.975  11.946
69035W        W28131  11.270   3.913   4.806
69036W        W28132  13.760   6.248   1.214
69037W        W28133  25.707  27.150   1.317
69038W        W28134  34.919  24.042   2.330
69039W        W28135   6.706   9.313  14.778
69040W        W28136  32.899  20.613  10.948
69041W        W28137  43.919  37.485   4.284
69042W        W28138  27.074  38.039  14.835
69043W        W28139  44.950  21.649   0.742
69044W        W28140  42.027  18.189  13.863
69045W        W28141  12.771   2.778  12.490
69046W        W28142  28.624  13.148  14.380
69047W        W28143  29.939  15.107   4.774
69048W        W28144  36.481  44.979  13.446
69049W        W28145  38.902  33.078  10.932
69050W        W28146  28.040   7.238  11.097
69051W        W28147  28.113   9.799   4.762
69052W        W28148  37.065  37.564  12.397
69053W        W28149  41.473  39.821   0.258
69054W        W28150  12.775  19.642   0.275
69055W        W28151  44.470  13.299   4.736
69056W        W28152  39.947  33.924   1.220
69057W        W28153  14.281  22.082   1.738
69058W        W28154  28.066  25.495  11.083
69059W        W28155  16.676  41.857  14.788
69060W        W28156   7.874  13.673   3.170
69061W        W28157  23.020   6.396  14.013
69062W        W28158  17.655  43.387   2.335
69063W        W28159  23.524  21.166   1.916
69064W        W28160  22.122  41.917  13.808
69065W        W28161  10.769  28.090   0.421
69066W        W28162  27.559  21.116   5.225
69067W        W28163  33.950  35.905  12.074
69068W        W28164  37.037  41.419   3.386
69069W        W28165  14.333  39.045  13.356
69070W        W28166   3.406  16.688  14.866
69071W        W28167  42.016   9.786  13.049
69072W        W28168  18.228   8.762   4.295
69073W        W28169  43.770  23.497  13.984
69074W        W28170  28.666   5.349  11.495
69075W        W28171   7.227  16.587   1.932
69076W        W28172   8.748  44.479  12.462
69077W        W28173  37.008   1.285   1.387
69078W        W28174   4.714  13.655   3.688
69079W        W28175   6.353  16.626   1.859
69080W        W28176  36.878  33.565  13.346
69081W        W28177  15.643  20.227  12.356
69082W        W28178  42.991  43.999  13.307
69083W        W28179  18.093  19.623  12.902
69084W        W28180  41.913  35.373   4.624
69085W        W28181  39.365   8.192  11.888
69086W        W28182  17.188  19.609   4.211
69087W        W28183  29.151  34.096  14.856
69088W        W28184  34.017  12.276  10.954
69089W        W28185  33.945  14.244  12.425
69090W        W28186  37.994  26.678   0.927
69091W        W28187  23.591  40.362  10.919
69092W        W28188  18.288  36.359  11.901
69093W        W28189  13.162  16.688   3.238
69094W        W28190   1.342  18.617  14.460
69095W        W28191  16.614  16.653  14.831
69096W        W28192  19.200  24.603   0.404
69097W        W28193  37.488   2.271   0.426
69098W        W28194  23.731   1.860  10.640
69099W        W28195  30.047  29.592   1.318
69100W        W28196  41.894  33.433   2.353
69101W        W28197  14.293   1.299   1.933
69102W        W28198  14.803  12.249   4.175
69103W        W28199  21.244  39.857  14.356
69104W        W28200  43.767  43.003   0.946
69105W        W28201   4.204   7.307  11.585
69106W        W28202   7.732   0.982  10.950
69107W        W28203  28.668  32.067  14.767
69108W        W28204   9.669  24.096  10.551
69109W        W28205   1.893  30.429  11.884
69110W        W28206  14.174  25.682  14.416
69111W        W28207  20.677  19.681   3.790
69112W        W28208  12.795  24.551  11.570
69113W        W28209  21.589  43.840   0.316
69114W        W28210  22.084  10.661   3.293
69115W        W28211  43.328  10.878  14.871
69116W        W28212  31.105  39.927   0.329
69117W        W28213  15.087  16.783   3.831
69118W        W28214  16.119  44.337   4.172
69119W        W28215   7.690   4.774   3.771
69120W        W28216  15.661  12.306  14.473
69121W        W28217  14.669  42.882   4.340
69122W        W28218  29.066   0.745  11.908
69123W        W28219  19.084  12.316  11.581
69124W        W28220  28.948  23.107   1.298
69125W        W28221   5.844  44.847  12.938
69126W        W28222  25.655  39.408   1.816
69127W        W28223   2.961  37.960  12.025
69128W        W28224  28.514  15.146   2.382
69129W        W28225  35.087  33.019   3.869
69130W        W28226   1.338   6.427   1.859
69131W        W28227  16.728  11.729   1.311
69132W        W28228  42.301  43.348  10.476
69133W        W28229  38.914   0.913  13.474
69134W        W28230  16.171  12.258   1.235
69135W        W28231  16.766   0.304   3.308
69136W        W28232  17.676  43.280  10.931
69137W        W28233  12.266  20.737   3.158
69138W        W28234   3.254   4.257   0.922
69139W        W28235   4.293  12.684  11.035
69140W        W28236  15.626   3.456  10.151
69141W        W28237  34.965  39.382  11.917
69142W        W28238  33.419  32.451   1.771
69143W        W28239  10.237   7.319   3.834
69144W        W28240  44.405  42.359  14.826
69145W        W28241  42.513  37.492   2.228
69146W        W28242  29.667  37.866   2.375
69147W        W28243  13.245  36.372  14.785
69148W        W28244  27.523  18.763  14.376
69149W        W28245  31.905   1.332  13.044
69150W        W28246   1.452   0.450  13.435
69151W        W28247   0.359  44.778  12.377
69152W        W28248   1.478  29.146  14.510
69153W        W28249  20.228  21.073  14.416
69154W        W28250  38.025  26.503   0.456
69155W        W28251  23.107  13.814  14.903
69156W        W28252  15.581  15.701  10.932
69157W        W28253  15.325  39.977  14.988
69158W        W28254  36.997   9.394  13.545
69159W        W28255  37.848  20.171  12.990
69160W        W28256  28.529  44.347   1.353
69161W        W28257  25.126   1.395   4.816
69162W        W28258   7.723  30.553   3.779
69163W        W28259  12.293  21.208  14.472
69164W        W28260  22.693  34.498   3.827
69165W        W28261  19.675   4.846  10.530
69166W        W28262   3.362  26.571  13.025
69167W        W28263  38.527  21.165  10.420
69168W        W28264  25.151   6.396   1.356
69169W        W28265  14.785  19.157   3.332
69170W        W28266  16.147  27.192   2.877
69171W        W28267  27.659   8.735  12.918
69172W        W28268  21.056  33.895   4.177
69173W        W28269  44.767  17.064  13.308
69174W        W28270  29.131  13.764  12.344
69175W        W28271   6.832  34.041  13.032
69176W        W28272  37.025  31.529  11.390
69177W        W28273   0.775   8.775  10.148
69178W        W28274  33.457  43.491  13.004
69179W        W28275  18.217  41.394   2.693
69180W        W28276  39.357  15.799   4.218
69181W        W28277  20.548  41.884  12.872
69182W        W28278  14.649  38.881  10.624
69183W        W28279  38.921   0.770  13.006
69184W        W28280  34.492   4.851  12.543
69185W        W28281  27.597  24.125  10.982
69186W        W28282   5.715  14.195  12.414
69187W        W28283  38.984  22.588   2.244
69188W        W28284  17.628  10.168  12.527
69189W        W28285  36.437  37.455  11.402
69190W        W28286  44.416  24.546   1.403
69191W        W28287   2.300  40.491   4.634
69192W        W28288  25.619  43.799  14.856
69193W        W28289  13.169   3.730  13.847
69194W        W28290   7.337  13.305  11.889
69195W        W28291   0.818  22.086  10.925
69196W        W28292  33.889  13.670   0.383
69197W        W28293  26.997  31.012   0.260
69198W        W28294  44.829  13.346   0.341
69199W        W28295  35.368  15.800   1.928
69200W        W28296  36.065  44.763   1.753
69201W        W28297   1.250  37.848  10.550
69202W        W28298  27.612  32.902  13.967
69203W        W28299   2.445   8.312  12.534
69204W        W28300  24.127  15.223   4.793
69205W        W28301   7.705  30.585  14.417
69206W        W28302   3.835   8.709   2.853
69207W        W28303  40.445  38.903   5.090
69208W        W28304  18.160  33.930   0.937
69209W        W28305   2.279  20.634  10.608
69210W        W28306   2.820  10.143   4.616
69211W        W28307  43.767  12.636  12.069
69212W        W28308  31.975  22.710   4.634
69213W        W28309  11.797  35.408   0.873
69214W        W28310   0.987   8.361  11.060
69215W        W28311  39.002  43.371  11.955
69216W        W28312  33.618  44.998   2.785
69217W        W28313  35.057  24.659   1.889
69218W        W28314  11.646   6.915  14.851
69219W        W28315   2.895   3.250  14.772
69220W        W28316  29.479  33.906  14.396
69221W        W28317  38.867  16.239  13.544
69222W        W28318  15.672  20.622   1.431
69223W        W28319   2.441  31.043  14.378
69224W        W28320  17.225  19.109  12.072
69225W        W28321   0.839  15.728   0.431
69226W        W28322  11.639  17.242  10.552
69227W        W28323  14.209  22.546  13.454
69228W        W28324  36.554  10.662   1.866
69229W        W28325  29.965   2.918   0.254
69230W        W28326   7.747  19.630  11.995
69231W        W28327  23.681  26.515   2.803
69232W        W28328  26.568  21.029  13.034
69233W        W28329  27.501  14.722  12.405
69234W        W28330   0.320  27.137  10.981
69235W        W28331  16.791  15.579   1.210
69236W        W28332  15.119   6.344  10.638
69237W        W28333  35.878  33.605   2.878
69238W        W28334   5.858  14.190   2.690
69239W        W28335   5.419  13.826  10.508
69240W        W28336   1.800  21.513  12.455
69241W        W28337  23.025  15.287  12.511
69242W        W28338  25.144  32.513   0.415
69243W        W28339  38.824  10.345  13.459
69244W        W28340  32.505  25.565  12.436
69245W        W28341  35.490  23.663   4.279
69246W        W28342  31.494  12.244   1.789
69247W        W28343  14.626  26.536   2.868
69248W        W28344  33.578  30.606   3.220
69249W        W28345  17.242  13.823   3.787
69250W        W28346  36.027  43.435   4.829
69251W        W28347   1.738  26.002   0.764
69252W        W28348  15.139  36.897   5.153
69253W        W28349  16.136  38.050   4.275
69254W        W28350  34.031  34.498  11.553
69255W        W28351  37.375  44.771   3.381
69256W        W28352  41.998  17.069  10.137
69257W        W28353  15.668  36.500  12.886
69258W        W28354  19.198  11.214   3.860
69259W        W28355  33.090   4.830  10.099
69260W        W28356  34.028  17.138  12.845
69261W        W28357  27.991  21.581  11.996
69262W        W28358  31.898  35.424  11.577
69263W        W28359  29.960   6.812  12.557
69264W        W28360  33.941  13.828  11.038
69265W        W28361  33.609  20.627  14.473
69266W        W28362  32.622  34.117   3.690
69267W        W28363  19.630  42.792  11.116
69268W        W28364   6.220  20.713  10.459
69269W        W28365  11.795  39.895   0.352
69270W        W28366  26.014  22.544   5.132
69271W        W28367   3.781  42.790   3.255
69272W        W28368   5.326   3.843  13.925
69273W        W28369  24.496   9.270  13.428
69274W        W28370  32.080   3.883   1.870
69275W        W28371  23.675  12.653  12.491
69276W        W28372   1.362  36.063  14.982
69277W        W28373  33.893  15.183  11.018
69278W        W28374   7.716  16.122   4.177
69279W        W28375  35.863   2.953  12.366
69280W        W28376   3.253  27.501  11.858
69281W        W28377  27.027  12.218  14.283
69282W        W28378  35.972  15.737  11.552
69283W        W28379  29.011  39.025   9.991
69284W        W28380  33.552  38.488   2.332
69285W        W28381  19.054  41.452   0.245
69286W        W28382   1.914   9.656   0.351
69287W        W28383   9.869  23.510   0.749
69288W        W28384  20.631  31.136  12.558
69289W        W28385   4.329  16.225  13.344
69290W        W28386  31.903  26.475   2.298
69291W        W28387  23.196  10.209   0.846
69292W        W28388   0.273  43.770   4.354
69293W        W28389  36.083   2.928  12.061
69294W        W28390  30.152  23.595   9.981
69295W        W28391  44.838  13.721   0.815
69296W        W28392  27.503  30.436  13.872
69297W        W28393  23.023  38.852  11.874
69298W        W28394  44.852  18.608  14.421
69299W        W28395   7.849   4.386   2.372
69300W        W28396  16.604  17.136  12.508
69301W        W28397  44.496  23.703   0.956
69302W        W28398  22.518  43.389  11.565
69303W        W28399  40.472  30.544  14.456
69304W        W28400  19.076   0.475  12.547
69305W        W28401  42.827   3.406  11.394
69306W        W28402  43.012   0.341   2.846
69307W        W28403  40.993  26.988   3.206
69308W        W28404  41.990  26.994   1.398
69309W        W28405  19.549   3.418  14.321
69310W        W28406  41.338   0.814  10.471
69311W        W28407  25.704   9.328  12.024
69312W        W28408  17.577   6.424  12.963
69313W        W28409  13.235  16.676   1.908
69314W        W28410  30.959  34.962  12.529
69315W        W28411  29.635  32.050   2.790
69316W        W28412   1.282  27.946   3.711
69317W        W28413  23.132  41.945  10.467
69318W        W28414  26.526   1.955   4.692
69319W        W28415  33.914   2.289   0.947
69320W        W28416  40.971   1.464  13.049
69321W        W28417  30.629  33.049   2.197
69322W        W28418  38.455  40.532  14.872
69323W        W28419  36.389  14.794  13.378
69324W        W28420  23.114  33.003  14.982
69325W        W28421  20.111  22.700   1.443
69326W        W28422  33.570  20.174  10.890
69327W        W28423  14.235   5.360  12.533
69328W        W28424  15.208  17.642  12.550
69329W        W28425  13.155  31.422  13.480
69330W        W28426   7.819  39.059  14.490
69331W        W28427  19.604  43.273   0.791
69332W        W28428  21.693   6.886  14.320
69333W        W28429   8.898   7.785  11.035
69334W        W28430   3.912  25.208  14.353
69335W        W28431  13.600  33.070  13.378
69336W        W28432  10.290   6.740   2.723
69337W        W28433   2.758  13.202  14.322
69338W        W28434  27.091  15.209  11.973
69339W        W28435  36.865  42.452  13.488
69340W        W28436  44.007  40.886  13.792
69341W        W28437  26.574  16.720   4.813
69342W        W28438   4.239  37.040   3.835
69343W        W28439  15.779  40.987   0.855
69344W        W28440   1.379   7.831  14.815
69345W        W28441   0.266  13.186   1.244
69346W        W28442   3.289  28.091  14.457
69347W        W28443  40.811  18.596   2.698
69348W        W28444  33.617  20.612  12.478
69349W        W28445  32.442  15.285  10.508
69350W        W28446  11.326   1.929   4.291
69351W        W28447  28.098  41.389  14.403
69352W        W28448   9.170   4.362  14.317
69353W        W28449  20.747  19.577  13.037
69354W        W28450  12.162  11.365  14.823
69355W        W28451  40.902  35.031  11.893
69356W        W28452  40.356  29.162   2.228
69357W        W28453  34.431   7.778  10.416
69358W        W28454  31.916  14.149  14.000
69359W        W28455  16.698  30.024  10.579
69360W        W28456  28.149  29.473  10.110
69361W        W28457  33.582  16.705  13.852
69362W        W28458  24.690  11.198  12.392
69363W        W28459   7.208  16.668  10.420
69364W        W28460   7.375  42.910   3.845
69365W        W28461   7.733   9.238   0.449
69366W        W28462  44.829  43.489  12.342
69367W        W28463   7.787  13.793  14.280
69368W        W28464  25.186  12.275   0.875
69369W        W28465   7.908  10.823  13.957
69370W        W28466  32.058   4.235  11.033
69371W        W28467  18.056  44.844   4.685
69372W        W28468  39.993  41.846  13.047
69373W        W28469  39.946   4.406  13.956
69374W        W28470  33.441  35.451   2.304
69375W        W28471  23.997  23.020  14.954
69376W        W28472  40.480  44.478   2.318
69377W        W28473  13.183  28.556   5.630
69378W        W28474  27.521   1.937   1.819
69379W        W28475  18.786   3.374   0.829
69380W        W28476   6.839   3.451   3.644
69381W        W28477  32.549  26.585   0.848
69382W        W28478  44.380  34.918   0.331
69383W        W28479  26.979  31.902  12.091
69384W        W28480  42.419  20.193  13.360
69385W        W28481   4.752  18.127   9.987
69386W        W28482  31.134   0.777   0.870
69387W        W28483  33.050  29.122   4.257
69388W        W28484   2.896  25.163   2.266
69389W        W28485  44.442   1.888  12.992
69390W        W28486  37.478  26.978   3.311
69391W        W28487   4.800   0.937   1.280
69392W        W28488  44.278  22.215  14.421
69393W        W28489  23.229  17.270   4.598
69394W        W28490  10.369   8.360  11.955
69395W        W28491  26.121   3.273  12.351
69396W        W28492  36.532  23.529  10.407
69397W        W28493  39.543  29.010  14.787
69398W        W28494  11.832  33.969  10.416
69399W        W28495  42.936  28.450   2.690
69400W        W28496  32.028  39.410  11.419
69401W        W28497   4.775  25.164   0.266
69402W        W28498  23.101  24.045  10.409
69403W        W28499  18.211   2.927   3.183
69404W        W28500  42.854  40.425  11.518
69405W        W28501  18.134   0.814  13.968
69406W        W28502  40.406   8.841   2.736
69407W        W28503  23.232  11.355  14.349
69408W        W28504  15.805  23.513  14.430
69409W        W28505  24.655   0.396  14.384
69410W        W28506  11.785  15.763  11.526
69411W        W28507  12.647  18.077   3.830
69412W        W28508  21.630  34.434   2.696
69413W        W28509  24.522  18.692   4.779
69414W        W28510  40.018  19.123  13.483
69415W        W28511  32.485  37.994   2.393
69416W        W28512  10.384  17.273   0.358
69417W        W28513  26.608  37.494  12.069
69418W        W28514  10.255  42.447   4.122
69419W        W28515  19.213  24.546  12.343
69420W        W28516  42.381   9.377   1.403
69421W        W28517  15.169  11.139   1.239
69422W        W28518  27.192  35.906  11.938
69423W        W28519   5.339  34.897  14.985
69424W        W28520   5.739  12.198  13.337
69425W        W28521   5.375  28.600   1.862
69426W        W28522  26.116  25.544   2.388
69427W        W28523  18.764  32.952  13.542
69428W        W28524  37.498  17.287  10.919
69429W        W28525   0.756  42.874  13.029
69430W        W28526   8.312   7.175  10.589
69431W        W28527  39.505   6.686  14.509
69432W        W28528  24.562   3.832   1.272
69433W        W28529  24.994   1.237   1.311
69434W        W28530  32.481   5.428   0.445
69435W        W28531   0.791  15.610   1.377
69436W        W28532   8.322  33.522  10.621
69437W        W28533  22.600  12.773   4.664
69438W        W28534   1.461  14.186  10.921
69439W        W28535  38.882   7.786  13.527
69440W        W28536  15.220   5.905  11.503
69441W        W28537  38.361  11.129   0.886
69442W        W28538  24.215  14.177   0.456
69443W        W28539   2.912  10.815  12.885
69444W        W28540  41.516  10.763   1.378
69445W        W28541  16.132  33.527   1.377
69446W        W28542  43.892  28.115   3.338
69447W        W28543  41.322  26.101   4.262
69448W        W28544  11.195  22.060   4.217
69449W        W28545  18.119   9.681   3.803
69450W        W28546  37.932  17.279   3.747
69451W        W28547  26.524  41.502  13.029
69452W        W28548  19.649  19.760  14.878
69453W        W28549  29.620  35.912   2.841
69454W        W28550  12.618   8.807   0.322
69455W        W28551  25.089  13.223   0.956
69456W        W28552   7.220  36.380   1.770
69457W        W28553  39.873  41.307   1.344
69458W        W28554  29.097  18.172  13.012
69459W        W28555  16.602  20.594   2.747
69460W        W28556  44.345   1.388  14.817
69461W        W28557  13.667  15.591  11.024
69462W        W28558  17.633  20.710   3.277
69463W        W28559  29.583  11.221  10.932
69464W        W28560  28.933  44.340  11.375
69465W        W28561  21.263  31.935  10.413
69466W        W28562  13.748  36.382  13.964
69467W        W28563  27.112  17.244   4.177
69468W        W28564  39.825  22.745  13.999
69469W        W28565  35.449  34.532  12.346
69470W        W28566   3.459  18.658   1.387
69471W        W28567  43.917  29.552   0.868
69472W        W28568  15.609  12.701  10.901
69473W        W28569  24.561  23.093   2.263
69474W        W28570  36.547  22.724  10.149
69475W        W28571   6.332  35.960   2.771
69476W        W28572  10.651  34.392   1.322
69477W        W28573   5.365  26.473  13.058
69478W        W28574   9.331  35.385  11.433
69479W        W28575  14.218  35.373   4.205
69480W        W28576   6.247  36.841   4.749
69481W        W28577  22.644  15.245   0.409
69482W        W28578  34.968  10.835  11.578
69483W        W28579   7.340  44.757  14.806
69484W        W28580  17.090   6.846  13.956
69485W        W28581  40.531  16.659  11.896
69486W        W28582  13.698   3.938   2.270
69487W        W28583  11.313  25.646   0.967
69488W        W28584  20.618  32.508  10.977
69489W        W28585   4.939  42.813  12.963
69490W        W28586  33.022  34.022   0.804
69491W        W28587  44.315  35.503  12.053
69492W        W28588  18.178  30.099  13.868
69493W        W28589  21.094  16.313  13.895
69494W        W28590  30.479  44.410  10.615
69495W        W28591  36.086  17.200  12.441
69496W        W28592  25.507  39.381  13.331
69497W        W28593  43.489  11.197  14.862
69498W        W28594  20.540  36.990   1.294
69499W        W28595  18.548  19.617   2.770
69500W        W28596  11.692  35.596  14.386
69501W        W28597  20.761   0.832   3.657
69502W        W28598  22.600  37.367   0.454
69503W        W28599  30.418  39.474  11.402
69504W        W28600  38.864  40.383  14.860
69505W        W28601  16.266  39.036   1.439
69506W        W28602  12.117   6.322   2.884
69507W        W28603  40.305  26.661   9.924
69508W        W28604  24.004  42.852  14.915
69509W        W28605   2.296  14.595   1.264
69510W        W28606  16.139  31.497   9.614
69511W        W28607  13.799  17.135  11.945
69512W        W28608   2.950  14.304  10.461
69513W        W28609  38.857   2.331   4.183
69514W        W28610  21.029  39.880   2.695
69515W        W28611  39.933  16.661  14.482
69516W        W28612  22.560  32.109  13.000
69517W        W28613  27.143  18.621  14.897
69518W        W28614  27.957  30.161  11.577
69519W        W28615  33.065  43.316   3.791
69520W        W28616   3.251  16.786  12.470
69521W        W28617  41.346   3.811  13.973
69522W        W28618  44.410  23.134  12.007
69523W        W28619  42.370  10.207   4.210
69524W        W28620  20.069  39.315  12.395
69525W        W28621  44.436  20.663   0.757
69526W        W28622  39.016  23.608   2.853
69527W        W28623  33.967  35.054   9.964
69528W        W28624  18.288  30.086  12.364
69529W        W28625   6.764  25.093  14.768
69530W        W28626  25.635  19.051   0.430
69531W        W28627   7.841   5.713  10.439
69532W        W28628   6.923   2.886  14.393
69533W        W28629  28.592  43.995   0.918
69534W        W28630  21.178  22.575  10.908
69535W        W28631  44.268  23.998   4.609
69536W        W28632  17.722  12.812   4.238
69537W        W28633  44.961  19.751  12.526
69538W        W28634   7.338   3.740  13.892
69539W        W28635  22.020  40.548  14.822
69540W        W28636  28.076  15.715   3.829
69541W        W28637   1.836  14.789  14.388
69542W        W28638  28.644   1.378   4.706
69543W        W28639  27.140  24.978  14.315
69544W        W28640  37.453  43.394  14.766
69545W        W28641  34.419  35.381  11.593
69546W        W28642  29.987  24.018  14.867
69547W        W28643   9.200  17.212   9.939
69548W        W28644  38.543  33.439  14.997
69549W        W28645  14.703   4.852  12.431
69550W        W28646  27.466  17.719   0.438
69551W        W28647  36.851  25.546   1.931
69552W        W28648  41.473  14.809   4.651
69553W        W28649  33.073  20.533   5.285
69554W        W28650   0.926   6.377  11.440
69555W        W28651   3.845  28.438   0.727
69556W        W28652  33.002  40.900   2.193
69557W        W28653   1.399   3.758   2.670
69558W        W28654  16.177  18.062   4.607
69559W        W28655  41.822  35.595   4.254
69560W        W28656   0.435  33.435   4.151
69561W        W28657  33.504  40.866  14.345
69562W        W28658  19.702  23.640  11.487
69563W        W28659  16.767  27.977  10.965
69564W        W28660  30.052   1.456  13.872
69565W        W28661   4.756   9.166  12.855
69566W        W28662  42.522  41.974  13.895
69567W        W28663   8.801  16.760   0.468
69568W        W28664  32.605  22.652   2.674
69569W        W28665  28.061  23.591   4.120
69570W        W28666   6.305  29.135  10.484
69571W        W28667   4.359   4.715   4.200
69572W        W28668   5.434   6.271  10.058
69573W        W28669  22.031   7.821  12.850
69574W        W28670  18.671   7.757  14.393
69575W        W28671  29.528  10.826  12.844
69576W        W28672  24.126   6.753  11.376
69577W        W28673  18.725  42.943   4.236
69578W        W28674   3.807  10.212   4.786
69579W        W28675  22.038  43.489  10.503
69580W        W28676  28.940  22.530   0.428
69581W        W28677  24.181   7.902  11.012
69582W        W28678  14.269   1.297  12.529
69583W        W28679   1.423  39.489   0.913
69584W        W28680   9.688   8.266  12.011
69585W        W28681  28.000  11.754  11.901
69586W        W28682   3.455  14.627  14.320
69587W        W28683  11.814  14.299   4.274
69588W        W28684  36.053  35.062   4.147
69589W        W28685  35.042   1.931   3.383
69590W        W28686  31.451  17.766   5.643
69591W        W28687   0.375   6.425  14.771
69592W        W28688  29.496   3.824  12.939
69593W        W28689  12.848  44.343  11.566
69594W        W28690  24.103  29.561   0.278
69595W        W28691  34.385  37.482   3.317
69596W        W28692  27.980  23.643  12.430
69597W        W28693   1.240  31.140   4.294
69598W        W28694  35.573  44.975   2.729
69599W        W28695  38.442  25.551   3.855
69600W        W28696  41.414   1.971  13.968
69601W        W28697  38.433   7.266   1.383
69602W        W28698  36.080  15.697  12.928
69603W        W28699   8.799   5.878  12.405
69604W        W28700  25.099  17.220  13.525
69605W        W28701  37.951  35.603  13.392
69606W        W28702  22.180  34.575   4.284
69607W        W28703  13.792  21.583   2.896
69608W        W28704  25.650  26.075  14.355
69609W        W28705  41.015   9.883  14.954
69610W        W28706   7.794  38.542   4.746
69611W        W28707  23.565  40.371  14.342
69612W        W28708  14.789  44.919   0.966
69613W        W28709  11.134  14.169   2.900
69614W        W28710  39.368  37.900   4.781
69615W        W28711  19.204  16.103  10.436
69616W        W28712  18.679  20.735  12.074
69617W        W28713  32.070  18.265   0.840
69618W        W28714  30.985   9.196  11.910
69619W        W28715   8.311   3.936  12.085
69620W        W28716  28.442  30.936   4.808
69621W        W28717  41.339  25.644   1.836
69622W        W28718  40.304  16.791   3.220
69623W        W28719  41.335  39.325  11.977
69624W        W28720  36.404  22.596   2.241
69625W        W28721   4.214  19.209  11.037
69626W        W28722  20.683  36.971  14.442
69627W        W28723   3.226  29.632   5.087
69628W        W28724  15.713  12.213  12.414
69629W        W28725  29.112  17.664   0.296
69630W        W28726  21.110  38.511   0.900
69631W        W28727   4.248  40.989   3.383
69632W        W28728  29.042  27.961   3.165
69633W        W28729  41.033  24.500   0.332
69634W        W28730  23.157  28.986   4.318
69635W        W28731   3.401  40.477   5.154
69636W        W28732  20.115  35.962   9.460
69637W        W28733  34.370  43.374   2.809
69638W        W28734  28.606  39.417   2.418
69639W        W28735   6.378  40.966   0.744
69640W        W28736  35.046  41.468  14.494
69641W        W28737  30.977  40.844  14.906
69642W        W28738  44.325  23.165   2.829
69643W        W28739   5.439  37.995   2.200
69644W        W28740  29.093   5.772   1.933
69645W        W28741  32.139   5.265  14.925
69646W        W28742  17.770  28.516   2.293
69647W        W28743  23.078  32.011   4.614
69648W        W28744  16.717  43.390  14.922
69649W        W28745  20.213  38.424   1.281
69650W        W28746   7.405  22.074   2.722
69651W        W28747  10.789   0.847   2.775
69652W        W28748  34.511  17.261   1.904
69653W        W28749  22.236  39.028  14.428
69654W        W28750   0.915  43.829   3.813
69655W        W28751  38.531  25.966  13.878
69656W        W28752  43.302  30.477  12.927
69657W        W28753  40.432   8.877   0.783
69658W        W28754  25.205  11.287  13.447
69659W        W28755  16.686  11.841  14.506
69660W        W28756  20.645   9.318   3.257
69661W        W28757  12.827  21.609  13.915
69662W        W28758  12.166  19.546   4.296
69663W        W28759  42.517  39.064   3.716
69664W        W28760   6.811  40.945   0.430
69665W        W28761  42.966   6.800   4.271
69666W        W28762  19.256  36.590  14.874
69667W        W28763  25.709  39.873  12.351
69668W        W28764  24.197   6.366  12.504
69669W        W28765   8.374  42.424   0.326
69670W        W28766   2.300  21.048   2.701
69671W        W28767  37.082  15.148  12.896
69672W        W28768  11.183  38.363  12.904
69673W        W28769  13.111  19.541  11.109
69674W        W28770   0.434  21.168  12.031
69675W        W28771   0.465  14.627  13.453
69676W        W28772  33.451  17.727   0.478
69677W        W28773   2.338  33.921  11.537
69678W        W28774  22.700  34.033  14.390
69679W        W28775  18.230  41.796  10.932
69680W        W28776  42.837  14.825  10.584
69681W        W28777  34.569  41.325  11.490
69682W        W28778   9.187  14.136   0.333
69683W        W28779  41.828  41.972  14.309
69684W        W28780  40.475  22.623  14.925
69685W        W28781   5.322   4.397   4.795
69686W        W28782  19.256   6.191  14.967
69687W        W28783  33.538  41.380  10.928
69688W        W28784  44.272  28.044   3.254
69689W        W28785  14.703  33.071  11.592
69690W        W28786  42.874  10.808   4.729
69691W        W28787  34.373   1.818   4.654
69692W        W28788  16.627  27.974  10.441
69693W        W28789  27.574   9.771   2.699
69694W        W28790  22.121   2.746   3.635
69695W        W28791  43.778  31.459   1.714
69696W        W28792  14.784   7.217   4.173
69697W        W28793  22.078   4.442  11.436
69698W        W28794  32.621   6.710   0.253
69699W        W28795   2.402  18.668   1.258
69700W        W28796  42.400  21.585   1.916
69701W        W28797   7.291  34.566  14.487
69702W        W28798  19.632   4.216  14.470
69703W        W28799  23.119  22.613  13.525
69704W        W28800  38.996  27.623  10.532
69705W        W28801  16.202   3.234  12.457
69706W        W28802  32.392  30.160  12.368
69707W        W28803   9.756   6.332   4.692
69708W        W28804   5.403  18.662   4.610
69709W        W28805  38.390  27.071   1.750
69710W        W28806   0.983  41.441  13.987
69711W        W28807  39.449  15.710  12.984
69712W        W28808  14.111   4.899   1.449
69713W        W28809  44.381  34.062   2.683
69714W        W28810  20.551  22.734  14.512
69715W        W28811  35.968  32.950   4.347
69716W        W28812   2.773  18.626  10.487
69717W        W28813   6.266  37.466  12.531
69718W        W28814  25.037  42.014  12.956
69719W        W28815   0.382  30.601  14.842
69720W        W28816   3.822  28.589  10.896
69721W        W28817  28.079  20.565   4.127
69722W        W28818  10.327   3.789   1.394
69723W        W28819  23.562  43.010   3.280
69724W        W28820  39.016   0.967   3.283
69725W        W28821  26.203  43.020  11.965
69726W        W28822  42.456  10.296   0.833
69727W        W28823  17.575  39.356  14.826
69728W        W28824   9.171  31.919  12.499
69729W        W28825  42.291   4.777  14.979
69730W        W28826  16.117   2.732  10.426
69731W        W28827  23.671  13.297   0.246
69732W        W28828   0.414  11.254  10.513
69733W        W28829  34.613  20.684   4.265
69734W        W28830  15.121   6.187   4.633
69735W        W28831  27.094   1.442   4.340
69736W        W28832   2.753  35.473  13.411
69737W        W28833  17.644  14.750  14.348
69738W        W28834  29.506   3.282   2.871
69739W        W28835  44.335  31.493   4.185
69740W        W28836  12.361   5.344   2.811
69741W        W28837  40.536  20.690   1.859
69742W        W28838  26.157  32.550  14.491
69743W        W28839  37.993  16.723   2.668
69744W        W28840  30.527  44.434  10.956
69745W        W28841  42.303  20.068   3.375
69746W        W28842  12.839  10.711   4.313
69747W        W28843  26.502  13.270  12.991
69748W        W28844  23.531  44.790   1.284
69749W        W28845  13.164  28.506   0.267
69750W        W28846  33.036  43.422   0.427
69751W        W28847   0.446  23.733   3.788
69752W        W28848  23.728  36.580   2.872
69753W        W28849  44.463  39.864  11.053
69754W        W28850  24.037  16.142  14.993
69755W        W28851   4.303  35.458  12.558
69756W        W28852  40.427  18.164   1.790
69757W        W28853  15.222  13.218   3.835
69758W        W28854   4.347  32.009   4.769
69759W        W28855  22.198  44.355  11.436
69760W        W28856  32.545   2.438   1.368
69761W        W28857  30.451  44.828   4.342
69762W        W28858  31.454  19.207   3.295
69763W        W28859   8.225  41.964   1.918
69764W        W28860  14.215  14.730  10.644
69765W        W28861  18.580  17.090  13.502
69766W        W28862  36.445  32.053   5.277
69767W        W28863  20.265  30.081   4.788
69768W        W28864  19.535  12.146  12.947
69769W        W28865  35.970  39.342  14.947
69770W        W28866   5.824  17.620   1.290
69771W        W28867  40.487  43.363  11.070
69772W        W28868  39.916   0.439   1.883
69773W        W28869  34.432   6.890  12.866
69774W        W28870  20.639  10.702   4.311
69775W        W28871   2.317  37.038   4.348
69776W        W28872  26.186   4.419   0.463
69777W        W28873  35.450  44.867  12.950
69778W        W28874  28.557  32.535   4.758
69779W        W28875   0.408  35.903  13.375
69780W        W28876  34.427  39.360  11.053
69781W        W28877   7.378  33.556   2.685
69782W        W28878  44.926   1.879  14.863
69783W        W28879  38.068   1.310  12.988
69784W        W28880  21.577  15.276   3.310
69785W        W28881   5.914   1.917  10.591
69786W        W28882  20.623  30.163  12.542
69787W        W28883  11.210  28.633  11.966
69788W        W28884  22.063  33.607  11.932
69789W        W28885  41.391  11.314  11.505
69790W        W28886  18.776   7.896   1.802
69791W        W28887  41.477   9.242   0.958
69792W        W28888   3.760   7.854  13.915
69793W        W28889  25.038  22.147   5.244
69794W        W28890  24.568  29.566   0.308
69795W        W28891  21.648  21.629   4.216
69796W        W28892   4.218   1.434  12.537
69797W        W28893  13.695   5.195  10.975
69798W        W28894  32.078  38.066  13.896
69799W        W28895  25.572  35.989   4.830
69800W        W28896  34.418  13.689  12.921
69801W        W28897  16.127  34.449  12.380
69802W        W28898  24.994  42.318   1.361
69803W        W28899   4.734  39.976  12.516
69804W        W28900  39.000   6.765   1.403
69805W        W28901   5.211  37.896   0.919
69806W        W28902  12.348  10.261   0.727
69807W        W28903  15.128   2.410   0.822
69808W        W28904  12.239  33.986  13.413
69809W        W28905   5.411  21.237  14.308
69810W        W28906  14.604   2.422  13.439
69811W        W28907  34.475  35.585   3.652
69812W        W28908  41.930  15.148  12.496
69813W        W28909  10.298  44.466   0.955
69814W        W28910   7.689  10.758  14.893
69815W        W28911  43.274   5.205  14.959
69816W        W28912  12.854  31.505   2.271
69817W        W28913   0.494  33.052  11.969
69818W        W28914  43.915   2.896   3.296
69819W        W28915  40.829  17.163  10.474
69820W        W28916  43.340   7.266  12.046
69821W        W28917  33.940  20.163   1.278
69822W        W28918  22.670  35.471   1.723
69823W        W28919  23.190  20.664   2.880
69824W        W28920  29.083  33.399   4.151
69825W        W28921  44.313  15.207   2.255
69826W        W28922  11.827  19.663  11.511
69827W        W28923  20.739  13.795   1.847
69828W        W28924  23.696   2.294   4.743
69829W        W28925  15.312  18.672  13.367
69830W        W28926  28.601  27.016   0.344
69831W        W28927  33.033  13.690  11.452
69832W        W28928  27.667  12.177  12.987
69833W        W28929  20.560  10.162  12.912
69834W        W28930   7.319   4.745   3.312
69835W        W28931  16.226  37.013   0.378
69836W        W28932  34.533  24.707   3.783
69837W        W28933  17.667  23.147   1.270
69838W        W28934   2.912  33.538  12.066
69839W        W28935  19.735  14.623   1.293
69840W        W28936   1.750  20.769  11.577
69841W        W28937  24.009   7.226  13.425
69842W        W28938   4.907  43.466  12.844
69843W        W28939  43.336  15.306   3.809
69844W        W28940  42.524  37.415  12.971
69845W        W28941  31.017  23.145   0.885
69846W        W28942  18.572  21.632   3.312
69847W        W28943  27.137  18.087  14.316
69848W        W28944   4.716  32.090  12.991
69849W        W28945  23.223   2.810   1.228
69850W        W28946  44.945  14.162   0.429
69851W        W28947  25.669  26.160   3.704
69852W        W28948  38.340  36.850   4.637
69853W        W28949   4.862  37.994  10.507
69854W        W28950  24.070  15.642   3.253
69855W        W28951  17.613  15.111  13.487
69856W        W28952   3.939   5.778   3.340
69857W        W28953  21.552   5.821   2.310
69858W        W28954  24.984  10.698   1.423
69859W        W28955  30.049   1.363  14.449
69860W        W28956  28.059  12.737  11.074
69861W        W28957   9.201  36.067  12.453
69862W        W28958  20.030   4.933   0.267
69863W        W28959  15.687  44.319   1.403
69864W        W28960   5.220  20.119   4.239
69865W        W28961   5.261  22.590   2.419
69866W        W28962  24.121  35.886  13.853
69867W        W28963   1.890  28.489   3.759
69868W        W28964  41.315   8.171  11.114
69869W        W28965  37.030  12.314   0.427
69870W        W28966  32.471  21.568   4.747
69871W        W28967  31.027  23.611  11.955
69872W        W28968  25.985  15.788   2.738
69873W        W28969  44.901  18.269  12.561
69874W        W28970  25.509   5.420   2.886
69875W        W28971  39.431  34.954  11.902
69876W        W28972  36.526  15.700  10.628
69877W        W28973  14.111  37.040  13.896
69878W        W28974  33.027  21.543  13.029
69879W        W28975   6.835  37.010  14.366
69880W        W28976   9.684  29.031   3.659
69881W        W28977  30.461  11.320  14.482
69882W        W28978  41.418  39.896  12.883
69883W        W28979  24.673  38.072   1.718
69884W        W28980  11.747  24.707  10.486
69885W        W28981  18.242   7.790  13.448
69886W        W28982   9.728  15.803   1.361
69887W        W28983   3.221  20.524   3.349
69888W        W28984  13.333   6.745   1.224
69889W        W28985  37.845  18.710   2.794
69890W        W28986  44.861   0.397  11.865
69891W        W28987  17.096  18.116  13.384
69892W        W28988  22.143  26.049  13.968
69893W        W28989  25.509  31.148  11.999
69894W        W28990   7.207  21.104  12.975
69895W        W28991  19.122  32.459   4.199
69896W        W28992  20.150   4.798  14.370
69897W        W28993  16.681  20.541  13.867
69898W        W28994   6.301  21.022   2.763
69899W        W28995  37.519   2.786  13.404
69900W        W28996   6.300  30.162  14.967
69901W        W28997   0.308  16.291   1.828
69902W        W28998  43.857  44.757  11.000
69903W        W28999  43.927  28.176  14.010
69904W        W29000  27.146  25.038  11.605
69905W        W29001  29.952  21.661  13.959
69906W        W29002   1.276  11.816   2.187
69907W        W29003  16.191  20.576  13.544
69908W        W29004  35.544  27.465   5.232
69909W        W29005  29.174  35.470   3.718
69910W        W29006   3.763  38.505  10.980
69911W        W29007  20.628  43.376  10.429
69912W        W29008  29.606   4.422   3.328
69913W        W29009  10.664  26.985   2.246
69914W        W29010   3.235   1.387   2.372
69915W        W29011  37.371   6.839   1.247
69916W        W29012  42.817  42.283  14.407
69917W        W29013  22.183  18.165  10.462
69918W        W29014  33.571  13.330  11.553
69919W        W29015  16.177  29.021   1.269
69920W        W29016  26.029   9.392  14.305
69921W        W29017  22.150  42.930   0.918
69922W        W29018  21.196  30.497  14.770
69923W        W29019  35.530  43.459   4.720
69924W        W29020  41.473  42.018  13.832
69925W        W29021  30.921  13.236   4.162
69926W        W29022   7.286  22.728   4.196
69927W        W29023  38.457   4.745   2.778
69928W        W29024  20.756  16.596  12.046
69929W        W29025   6.832  15.608  13.815
69930W        W29026  14.106  30.418  14.298
69931W        W29027  18.650  13.287   0.895
69932W        W29028  21.179  39.345  12.051
69933W        W29029  13.660  11.822  13.973
69934W        W29030  16.686   0.370  11.105
69935W        W29031   8.242  24.170  13.954
69936W        W29032  13.186  28.115  13.914
69937W        W29033   5.326  28.068   5.088
69938W        W29034  11.652  35.895  12.014
69939W        W29035  36.899  26.142   4.163
69940W        W29036  34.935  27.084  11.547
69941W        W29037  20.042  38.968  13.454
69942W        W29038  29.089  35.871  11.523
69943W        W29039   9.676  25.027  10.429
69944W        W29040  42.475  43.774  11.486
69945W        W29041  23.107  33.412  14.962
69946W        W29042  18.650  25.195   4.267
69947W        W29043  27.652  22.724   3.175
69948W        W29044   4.258  42.343   4.644
69949W        W29045   9.684  20.164  14.940
69950W        W29046  40.799  25.053  13.531
69951W        W29047   5.221  33.948  14.395
69952W        W29048  33.004  29.493   2.711
69953W        W29049  32.605  43.497  12.853
69954W        W29050  43.938  13.636   4.209
69955W        W29051  20.599  15.607   5.169
69956W        W29052  32.610  18.144  14.781
69957W        W29053  30.043  41.927  11.559
69958W        W29054  12.332  23.646   4.119
69959W        W29055   4.809  15.218  10.596
69960W        W29056  44.904  44.765  10.999
69961W        W29057   8.786  37.030   3.640
69962W        W29058   8.663  34.550  13.494
69963W        W29059   9.819  41.302   4.727
69964W        W29060  19.151  17.265  13.901
69965W        W29061  20.039  36.437  12.893
69966W        W29062  26.562  42.431  11.583
69967W        W29063   7.186  25.017  10.489
69968W        W29064  29.058  21.241   2.233
69969W        W29065  23.097  32.132  13.958
69970W        W29066  38.966  10.834  12.523
69971W        W29067  18.082  17.706   2.412
69972W        W29068   5.272  10.848  13.434
69973W        W29069  34.576  23.612   2.289
69974W        W29070  29.931  34.533  12.039
69975W        W29071  26.052  29.435  12.463
69976W        W29072  37.356  10.247  13.360
69977W        W29073   2.311  25.595  14.368
69978W        W29074  23.526  33.606  10.435
69979W        W29075  37.928  25.097  13.918
69980W        W29076  44.975  38.546   1.377
69981W        W29077   5.815  42.442   0.866
69982W        W29078  38.001  31.977  11.558
69983W        W29079  18.092   8.810  10.491
69984W        W29080  29.621  30.512   4.738
69985W        W29081  37.019  15.702   1.211
69986W        W29082  19.241   7.784  14.436
69987W        W29083  27.521  10.698  10.434
69988W        W29084  44.956  26.650   1.428
69989W        W29085  44.942   8.245  12.991
69990W        W29086  28.168  32.107  10.888
69991W        W29087  41.501  37.941   4.671
69992W        W29088  27.549  13.343  12.436
69993W        W29089   4.212  20.268  10.928
69994W        W29090  39.519  26.539  10.077
69995W        W29091   5.256  31.529  14.904
69996W        W29092  32.616  36.092  14.759
69997W        W29093  14.655  39.495   0.880
69998W        W29094  32.582  35.882  14.510
69999W        W29095   3.311  14.222  11.100
70000W        W29096   0.783  35.059  11.063
70001W        W29097  14.197  20.078   3.785
70002W        W29098   6.340  32.579  10.977
70003W        W29099   1.286  36.860  11.005
70004W        W29100  20.209  41.387  10.970
70005W        W29101   1.905   9.809   1.249
70006W        W29102  38.012  27.955   4.831
70007W        W29103  35.024  22.678  11.993
70008W        W29104   2.453  37.535  12.006
70009W        W29105  33.079  34.604  14.991
70010W        W29106  35.365  17.779  12.954
70011W        W29107  36.581   1.909  11.972
70012W        W29108   1.276   7.900  11.460
70013W        W29109  37.962  10.267  12.395
70014W        W29110  22.234  24.608   1.926
70015W        W29111  42.840   1.814  11.113
70016W        W29112  14.619   4.314   3.224
70017W        W29113  44.797  33.624  11.051
70018W        W29114  17.170  42.910   9.962
70019W        W29115  26.063   0.435   3.215
70020W        W29116  36.093  17.727  14.776
70021W        W29117  38.567  37.983  12.846
70022W        W29118  25.478  30.156  10.476
70023W        W29119  10.277  40.819   1.319
70024W        W29120  31.524  38.568  13.830
70025W        W29121   4.812  37.991  10.933
70026W        W29122  41.487  24.046  13.415
70027W        W29123  14.269   0.863  13.962
70028W        W29124  36.079  27.096  12.860
70029W        W29125  27.141  39.454   2.804
70030W        W29126  30.445   4.784   3.181
70031W        W29127  28.029  13.610  10.047
70032W        W29128  35.569   5.872  14.864
70033W        W29129  33.604   0.933  10.516
70034W        W29130   1.379  21.039  14.450
70035W        W29131  44.401  26.485   3.675
70036W        W29132  42.526  10.150  14.881
70037W        W29133  29.446  37.493   4.338
70038W        W29134  44.292  15.208  12.029
70039W        W29135  21.140  38.480  12.403
70040W        W29136  33.024  31.522  12.494
70041W        W29137  12.344  20.527  11.083
70042W        W29138  35.932  17.105  12.965
70043W        W29139  39.525  44.396   2.213
70044W        W29140  22.584  40.001  14.982
70045W        W29141  23.161  38.925   2.376
70046W        W29142  41.408  13.698   4.161
70047W        W29143   8.366  44.961   3.156
70048W        W29144  28.600  10.755   2.342
70049W        W29145  36.095   4.862   3.735
70050W        W29146  42.885  12.692  10.008
70051W        W29147  13.142  32.077   2.275
70052W        W29148  27.613  37.897   2.882
70053W        W29149  33.626  30.568  11.502
70054W        W29150  23.613  15.260   2.766
70055W        W29151  39.017  24.494  10.628
70056W        W29152  20.670  14.816  13.378
70057W        W29153   4.863  31.098   5.199
70058W        W29154  44.503  15.268   4.694
70059W        W29155  17.194  11.204   0.350
70060W        W29156   0.377  16.682  11.858
70061W        W29157  13.311   8.184   3.362
70062W        W29158  44.963   6.320  13.061
70063W        W29159   7.821   0.347   2.830
70064W        W29160  33.392   9.350  10.421
70065W        W29161  12.229  42.356   2.276
70066W        W29162  15.634  30.147   0.811
70067W        W29163  31.453  26.569   3.755
70068W        W29164  19.694  22.714  13.368
70069W        W29165  26.646  30.496  13.460
70070W        W29166   8.322  41.930   3.687
70071W        W29167   6.805  14.665  14.473
70072W        W29168  23.491   2.459  13.396
70073W        W29169  10.707  40.366   1.842
70074W        W29170   0.962  12.779   3.767
70075W        W29171   9.212  23.195   2.858
70076W        W29172  44.485  27.613   0.483
70077W        W29173  33.964  28.663   2.698
70078W        W29174  34.100  14.755   3.758
70079W        W29175  37.924  30.023   1.354
70080W        W29176  35.939  33.574  12.430
70081W        W29177  10.230  30.024  11.100
70082W        W29178  24.215  14.653  12.850
70083W        W29179  15.102  30.103   2.244
70084W        W29180  13.307  32.511  14.773
70085W        W29181   7.717   6.335  14.031
70086W        W29182  29.586   8.822   9.937
70087W        W29183   7.677   1.916  13.355
70088W        W29184  13.624  10.166   4.315
70089W        W29185  37.003  32.062   0.424
70090W        W29186   1.452  44.438   0.269
70091W        W29187  17.643   4.719  10.535
70092W        W29188  44.863  34.517   1.398
70093W        W29189  41.874  19.580   2.200
70094W        W29190  21.179  37.864   2.266
70095W        W29191   6.359   5.247   2.178
70096W        W29192  42.387   1.843   0.735
70097W        W29193  42.886   0.488  13.003
70098W        W29194   0.788  33.415  13.538
70099W        W29195  29.427  17.096  10.920
70100W        W29196  12.706  41.813  13.963
70101W        W29197   4.817  20.248   4.263
70102W        W29198  28.101  23.008   0.338
70103W        W29199   1.838  43.451  14.994
70104W        W29200  14.316  13.694   4.755
70105W        W29201  32.483   0.939  13.036
70106W        W29202  23.665  35.034   4.789
70107W        W29203  16.730  23.195   4.231
70108W        W29204  42.958   5.909   4.648
70109W        W29205  16.658  16.108   4.156
70110W        W29206  32.092  30.066   3.238
70111W        W29207   3.444  11.650   3.238
70112W        W29208  23.043  35.055  14.012
70113W        W29209  21.056  21.552   0.374
70114W        W29210  27.016  37.511   2.883
70115W        W29211   5.833  17.664   1.828
70116W        W29212  33.932  32.112  10.538
70117W        W29213   6.365   4.317   3.306
70118W        W29214  21.591   4.852  11.448
70119W        W29215  19.204  28.441   3.757
70120W        W29216  20.572  36.886   2.861
70121W        W29217  17.588  16.239   2.347
70122W        W29218  34.960  33.594   0.435
70123W        W29219  30.099   4.843  14.282
70124W        W29220  20.575  26.111  12.847
70125W        W29221  24.994  35.075  12.397
70126W        W29222  41.967  33.876  14.848
70127W        W29223  35.022  15.617   2.830
70128W        W29224  37.986  37.536  13.991
70129W        W29225   9.394  10.285  12.857
70130W        W29226  19.200   1.832  12.071
70131W        W29227   0.449  37.898   3.756
70132W        W29228   2.760  27.104   3.186
70133W        W29229  10.726  30.607   4.708
70134W        W29230   3.721  10.229   1.785
70135W        W29231  33.427   3.946   3.194
70136W        W29232  34.601  19.675   1.442
70137W        W29233  34.916  27.051  11.108
70138W        W29234  14.224   4.426  12.349
70139W        W29235  25.169  13.701  10.444
70140W        W29236  37.840  21.229   2.788
70141W        W29237  32.404  25.480  11.595
70142W        W29238   0.397   4.221   0.897
70143W        W29239  29.654   8.779  12.005
70144W        W29240  27.684   3.437   4.828
70145W        W29241  42.803   6.906   3.832
70146W        W29242   6.750  20.228  10.475
70147W        W29243  20.735   4.762  13.800
70148W        W29244  22.182  33.391   0.451
70149W        W29245  18.586  16.616  12.506
70150W        W29246   8.686   8.658   1.870
70151W        W29247  13.336  22.199  10.931
70152W        W29248  32.427  32.598   2.859
70153W        W29249  38.526   4.820  14.277
70154W        W29250  18.681  43.960   3.663
70155W        W29251  42.298  22.123  10.946
70156W        W29252  12.334   7.418  12.879
70157W        W29253  34.888   0.802  10.917
70158W        W29254  23.583  14.238   2.377
70159W        W29255   4.796  15.607   4.296
70160W        W29256  18.732  36.443  13.460
70161W        W29257   6.347  13.288   1.258
70162W        W29258   5.265  10.359  13.465
70163W        W29259   0.825  16.647  13.872
70164W        W29260  38.054  23.657  14.011
70165W        W29261   7.219  35.005   0.932
70166W        W29262  13.699   7.348  11.859
70167W        W29263  21.613  34.448   3.658
70168W        W29264  43.788   1.470  12.981
70169W        W29265  22.075  43.389   2.725
70170W        W29266   9.668  42.935   0.801
70171W        W29267  40.354  39.008  14.889
70172W        W29268  30.580   3.831   1.833
70173W        W29269  10.271   4.276   0.809
70174W        W29270   7.226   0.304   3.808
70175W        W29271   2.778  20.675  11.963
70176W        W29272  19.059  42.780  14.980
70177W        W29273  39.821  29.445  14.828
70178W        W29274   3.741  30.960   4.803
70179W        W29275  21.257  32.458   0.796
70180W        W29276  24.217  35.407  13.821
70181W        W29277   1.770   6.713   4.684
70182W        W29278  20.684  16.615  13.790
70183W        W29279  25.539   1.384   3.194
70184W        W29280   4.333   0.847  13.911
70185W        W29281  42.888   5.297   0.322
70186W        W29282  44.971  18.575  11.955
70187W        W29283  28.987  28.177   0.851
70188W        W29284  13.782   0.940  14.305
70189W        W29285  10.798  15.326  13.039
70190W        W29286  10.863  44.901  12.857
70191W        W29287   6.209   3.788   0.946
70192W        W29288  40.008  41.011  12.865
70193W        W29289  43.935  24.658  14.305
70194W        W29290  11.673  44.411   3.866
70195W        W29291   6.258  10.701  13.520
70196W        W29292   1.382   7.844   4.327
70197W        W29293  28.453  28.598   2.413
70198W        W29294  15.606  41.881   4.646
70199W        W29295  17.278  16.107  10.535
70200W        W29296  27.668   6.325  11.477
70201W        W29297   8.732  41.461  11.109
70202W        W29298  13.164   1.902  14.790
70203W        W29299  24.142  38.329   0.750
70204W        W29300  44.898  16.606   1.898
70205W        W29301  22.238   3.217   0.483
70206W        W29302   3.749  22.022   0.266
70207W        W29303   4.816  33.986   3.376
70208W        W29304  39.489  35.532  13.828
70209W        W29305  34.430  34.866  14.922
70210W        W29306  11.679  25.026   4.308
70211W        W29307  44.802   9.187   3.330
70212W        W29308  26.097   1.318   1.929
70213W        W29309   1.763  40.976   4.796
70214W        W29310  31.111  18.220  12.908
70215W        W29311  36.388  34.573   9.934
70216W        W29312  25.159  25.714  11.580
70217W        W29313  17.168   5.869   0.317
70218W        W29314  23.111  34.476   3.282
70219W        W29315  11.636  32.603   0.319
70220W        W29316   1.879  22.022   2.779
70221W        W29317  22.233   0.871  10.470
70222W        W29318  16.194   4.210  14.923
70223W        W29319  28.025  42.814   3.656
70224W        W29320  39.550  15.766  13.433
70225W        W29321  39.511   8.808  12.067
70226W        W29322  33.612  23.602   1.435
70227W        W29323  36.027   3.925   0.871
70228W        W29324  17.081  31.123  14.390
70229W        W29325   1.975  41.457   1.301
70230W        W29326  20.262   3.766  14.390
70231W        W29327  10.213  30.458   0.475
70232W        W29328  34.545   9.368   2.857
70233W        W29329  31.498  23.206  11.014
70234W        W29330  12.357   5.293  14.930
70235W        W29331  23.200  15.616  14.860
70236W        W29332   9.741  36.548  13.808
70237W        W29333  20.144  42.780  12.421
70238W        W29334  33.562   4.838  12.497
70239W        W29335  28.484   2.442   2.316
70240W        W29336  17.082   3.248   3.318
70241W        W29337  16.590  33.457  14.472
70242W        W29338  10.268  23.583  14.425
70243W        W29339  11.280   2.870  11.022
70244W        W29340  24.075   1.815  14.964
70245W        W29341  39.948  43.814   4.348
70246W        W29342  13.703  41.369  10.451
70247W        W29343   4.884  43.322   4.756
70248W        W29344  14.761  26.623   3.756
70249W        W29345  37.070   0.322  14.927
70250W        W29346  28.053  27.123   1.761
70251W        W29347  34.974  42.916  10.118
70252W        W29348  27.049  22.090  12.994
70253W        W29349  35.428  27.635   0.382
70254W        W29350  36.039  12.723  11.416
70255W        W29351   2.465  16.150  12.942
70256W        W29352   5.212  39.033  11.910
70257W        W29353   1.789  21.262  14.918
70258W        W29354  24.058  10.163  13.509
70259W        W29355  39.924   1.918  10.617
70260W        W29356  31.542  30.966  14.011
70261W        W29357  11.252   4.782   0.866
70262W        W29358  36.482  28.677  14.338
70263W        W29359  15.155   8.807   1.280
70264W        W29360  37.971  33.126  10.437
70265W        W29361  13.691  40.381  11.120
70266W        W29362   6.362  41.035   2.204
70267W        W29363  34.461  43.769  13.978
70268W        W29364  39.865   3.946   3.649
70269W        W29365  13.805   9.790   3.377
70270W        W29366  33.555  10.835   0.377
70271W        W29367  28.651   6.328   3.183
70272W        W29368   6.713  29.014  12.457
70273W        W29369   5.791   4.447  12.387
70274W        W29370  36.374  17.061   4.338
70275W        W29371  19.674  23.077   4.739
70276W        W29372  20.145  24.028   4.248
70277W        W29373   9.206  20.226   2.762
70278W        W29374  32.571   1.406  11.038
70279W        W29375   5.775  24.175  13.900
70280W        W29376  23.710  33.521  11.919
70281W        W29377  37.047  37.350  11.102
70282W        W29378   9.280  43.837  12.485
70283W        W29379  27.672  14.104  12.392
70284W        W29380  16.811  34.989   2.745
70285W        W29381  36.431   9.794   2.740
70286W        W29382  35.431  22.743   0.269
70287W        W29383  43.369  37.983  13.797
70288W        W29384   5.252  31.116   3.375
70289W        W29385  32.481   9.697  11.971
70290W        W29386  10.372   2.358  12.356
70291W        W29387  17.103  21.711   4.721
70292W        W29388  28.157   1.310  12.027
70293W        W29389  23.593   2.434   0.333
70294W        W29390   2.368  25.141  14.986
70295W        W29391  37.548  10.826  12.431
70296W        W29392  23.206   4.419   3.835
70297W        W29393  27.450  27.497  14.286
70298W        W29394  42.470   4.251  12.824
70299W        W29395  16.667  28.548  14.779
70300W        W29396  28.116  11.372   1.277
70301W        W29397   8.269  11.655   2.866
70302W        W29398  18.060  15.707  12.949
70303W        W29399  40.869  19.666   4.190
70304W        W29400  11.207  36.970   2.764
70305W        W29401  34.097  18.638  13.326
70306W        W29402  29.536  38.053  14.998
70307W        W29403  36.363  11.720   3.235
70308W        W29404   1.868  42.290   4.771
70309W        W29405  15.138  17.223  11.892
70310W        W29406  17.248   6.837   0.804
70311W        W29407  31.149   2.802   2.848
70312W        W29408  44.274  17.092  14.891
70313W        W29409  21.535   8.883   2.393
70314W        W29410  17.246  20.152  11.882
70315W        W29411   9.384  18.206  11.508
70316W        W29412  25.007   0.825   2.847
70317W        W29413   4.751  40.975   5.185
70318W        W29414  43.383  22.606   3.192
70319W        W29415  18.609  28.177  13.009
70320W        W29416   2.320  31.086   1.434
70321W        W29417  30.965  44.390   9.924
70322W        W29418  43.483  11.764  11.025
70323W        W29419  23.511  21.742   1.413
70324W        W29420  24.156  24.029  14.949
70325W        W29421   1.336  29.548   1.848
70326W        W29422   0.493  44.328  11.062
70327W        W29423  38.476  36.407   1.750
70328W        W29424  16.137  39.487   2.383
70329W        W29425   3.748   0.771   2.389
70330W        W29426   9.263  27.545   3.853
70331W        W29427  41.457  26.677   2.720
70332W        W29428  29.968  31.625   1.912
70333W        W29429   9.263   0.414  13.054
70334W        W29430  19.719  20.656   1.752
70335W        W29431  38.859  15.723  11.002
70336W        W29432  13.732  44.939   2.302
70337W        W29433  21.526  33.092   2.384
70338W        W29434  43.817   6.699  14.419
70339W        W29435  31.956  18.758   3.732
70340W        W29436   7.267  41.321   0.835
70341W        W29437  24.709  17.151   3.716
70342W        W29438  22.144  38.962   0.353
70343W        W29439  38.870  34.538   2.371
70344W        W29440  14.747  25.159  13.002
70345W        W29441   3.897  26.562   1.430
70346W        W29442  37.043   5.412  11.504
70347W        W29443   5.287  25.486   2.721
70348W        W29444   7.809  41.971  12.409
70349W        W29445  41.863  14.108   0.440
70350W        W29446  10.807  36.408  12.878
70351W        W29447  42.835  32.921   0.815
70352W        W29448  23.645  35.936  12.052
70353W        W29449  12.794   9.157  12.848
70354W        W29450  24.715  35.855  14.029
70355W        W29451  36.040  35.387  11.054
70356W        W29452  33.954  26.141   4.754
70357W        W29453  27.051  39.027   2.296
70358W        W29454   5.333  14.161  10.498
70359W        W29455  17.207   0.329  11.568
70360W        W29456  40.830  43.316  13.477
70361W        W29457  21.535  22.138   1.806
70362W        W29458  16.077   8.172  10.606
70363W        W29459  27.139  28.164  13.928
70364W        W29460  32.498   3.255   1.349
70365W        W29461  11.783   2.851   3.701
70366W        W29462   2.249  42.984   3.164
70367W        W29463  34.056  26.511   3.741
70368W        W29464  43.275  13.704   3.702
70369W        W29465  32.088   2.795   0.752
70370W        W29466  40.538  12.279   0.400
70371W        W29467  23.087  15.176   2.899
70372W        W29468   0.859  35.473   3.280
70373W        W29469  17.256   0.817   3.371
70374W        W29470  12.817  26.655  12.577
70375W        W29471  22.231  11.227  13.318
70376W        W29472  31.419  34.544   1.779
70377W        W29473   3.806  34.440  11.094
70378W        W29474   2.260  37.905  13.425
70379W        W29475   2.303  25.631   4.773
70380W        W29476  41.294  12.269  11.012
70381W        W29477  41.919  24.202   0.835
70382W        W29478  40.799  41.938  11.882
70383W        W29479   0.926  35.911   1.735
70384W        W29480  28.070  10.733   3.787
70385W        W29481  13.629  21.688  14.779
70386W        W29482  20.581  41.367  11.120
70387W        W29483   1.242  16.194   3.230
70388W        W29484  10.321   2.255   2.349
70389W        W29485  40.519  28.112  11.389
70390W        W29486   6.685   4.832  14.283
70391W        W29487  12.166  18.296  14.815
70392W        W29488  22.033   5.308   1.429
70393W        W29489   8.814  43.346   4.785
70394W        W29490  20.109  23.731   4.180
70395W        W29491  18.058   2.852   3.834
70396W        W29492   4.240  16.721   0.786
70397W        W29493   3.917  44.929   2.200
70398W        W29494  35.405  13.151   3.674
70399W        W29495  32.612  33.481   0.411
70400W        W29496   5.772  28.948   5.643
70401W        W29497  11.644   5.407  12.511
70402W        W29498  44.891  12.172  11.096
70403W        W29499  11.294  29.012   9.633
70404W        W29500  41.467  26.459   2.228
70405W        W29501  17.787  26.177   3.721
70406W        W29502  21.533   3.724  12.853
70407W        W29503  12.304  31.621  13.352
70408W        W29504  25.997  26.165  14.939
70409W        W29505   3.756  38.545  12.354
70410W        W29506   8.267   0.383  12.093
70411W        W29507  14.269   3.950   4.819
70412W        W29508   2.936  23.680  14.451
70413W        W29509  15.706  13.640   1.785
70414W        W29510  33.064  36.545   0.863
70415W        W29511  31.608  29.992   2.903
70416W        W29512  12.646  43.335   2.708
70417W        W29513  42.324  11.129  11.043
70418W        W29514   2.746  30.081   2.816
70419W        W29515   2.322  35.977   2.365
70420W        W29516  28.956  30.946   4.278
70421W        W29517  13.182  15.232   5.276
70422W        W29518  36.480  16.761   2.262
70423W        W29519  38.498  18.152  14.878
70424W        W29520  12.734   1.472   4.247
70425W        W29521  27.125  34.942  13.529
70426W        W29522  26.013  39.338   3.636
70427W        W29523  24.676  33.105   5.164
70428W        W29524  10.239  27.982  14.460
70429W        W29525  26.529  31.564   2.731
70430W        W29526  16.769  24.203  12.998
70431W        W29527  21.054  22.205   0.774
70432W        W29528   7.356  36.525  12.374
70433W        W29529   1.754  21.697  14.443
70434W        W29530  13.188   7.353  13.792
70435W        W29531  34.407  29.629   2.370
70436W        W29532  17.655  17.290  14.340
70437W        W29533  43.417  22.608   1.721
70438W        W29534  38.482  29.475  13.026
70439W        W29535  29.033   0.908  10.489
70440W        W29536  39.398  12.845  12.346
70441W        W29537   8.683  26.491   0.821
70442W        W29538  21.657  35.049  10.092
70443W        W29539   1.369  12.627   2.214
70444W        W29540   3.931  44.355   2.220
70445W        W29541  21.728  41.299  11.892
70446W        W29542  12.251  18.688   0.814
70447W        W29543  42.373   6.689   1.250
70448W        W29544  28.139  42.347  11.385
70449W        W29545  37.351   7.313  12.870
70450W        W29546  32.055  24.079  12.093
70451W        W29547  19.248  12.637  11.126
70452W        W29548  44.856   3.908   3.272
70453W        W29549   0.254   0.904   1.734
70454W        W29550  33.945   1.284   0.750
70455W        W29551  30.072   1.440  11.046
70456W        W29552   0.799   3.761  14.895
70457W        W29553   2.784   6.338  12.981
70458W        W29554  10.638  13.344   2.858
70459W        W29555  35.552  36.079  13.420
70460W        W29556  44.360   5.698   4.174
70461W        W29557  13.156  20.531  10.549
70462W        W29558  43.347   3.313   3.368
70463W        W29559  43.514   6.682   2.726
70464W        W29560  38.947   1.457  10.014
70465W        W29561  22.108  15.608  14.386
70466W        W29562  41.389  42.310  10.581
70467W        W29563  14.779  32.432   0.419
70468W        W29564  36.461  30.466  12.380
70469W        W29565   8.897  15.684   2.768
70470W        W29566  34.881  31.008  10.412
70471W        W29567  42.870  23.046   4.710
70472W        W29568  20.060  31.047   0.379
70473W        W29569  33.452  11.364  10.544
70474W        W29570  32.920   8.868  13.457
70475W        W29571   3.911   3.900  11.941
70476W        W29572  10.812  43.842  12.372
70477W        W29573   7.670  26.561   1.272
70478W        W29574  27.162   7.247   1.868
70479W        W29575   1.870  37.895   1.766
70480W        W29576  30.064  42.025   2.698
70481W        W29577   1.951  29.003  13.448
70482W        W29578  40.525  42.471  12.063
70483W        W29579  28.469   5.883  11.033
70484W        W29580  14.137   0.493  14.311
70485W        W29581  27.480  41.476   1.919
70486W        W29582  22.221   6.821   3.635
70487W        W29583   9.174  35.963  13.362
70488W        W29584  26.669  15.734   1.400
70489W        W29585  25.168  32.082  11.879
70490W        W29586  26.138   0.451   4.755
70491W        W29587  19.274  11.144   2.388
70492W        W29588  35.436  12.125  13.324
70493W        W29589  14.816   7.208   4.721
70494W        W29590  39.498  11.250   4.718
70495W        W29591  14.690  28.624   1.408
70496W        W29592  27.528  33.481  13.411
70497W        W29593   3.727   1.744  12.838
70498W        W29594  37.575  19.121   2.329
70499W        W29595  30.524   2.906  14.318
70500W        W29596  13.238  38.487   3.351
70501W        W29597  34.507  42.481   1.423
70502W        W29598   3.446  29.966  10.957
70503W        W29599  22.252  18.191   4.179
70504W        W29600  14.768  36.013   1.720
70505W        W29601  43.468  25.181  11.958
70506W        W29602  22.578  29.042   2.238
70507W        W29603  18.694  38.500   3.807
70508W        W29604   1.975  36.505   4.627
70509W        W29605  18.582  32.592  10.925
70510W        W29606  10.198   0.868  14.353
70511W        W29607  35.009   4.296  11.860
70512W        W29608  43.330  44.329   0.353
70513W        W29609  37.056  21.533   0.382
70514W        W29610   5.725  34.551  14.873
70515W        W29611   7.349  39.038   2.406
70516W        W29612  28.166  34.482   1.276
70517W        W29613  39.428   7.291   3.191
70518W        W29614  13.114  30.603   4.290
70519W        W29615  22.663  14.777   1.267
70520W        W29616   2.233  20.121  12.996
70521W        W29617  43.483  11.672   1.290
70522W        W29618   5.314   0.833   4.163
70523W        W29619  18.576  20.677  11.019
70524W        W29620  42.465  42.517  14.446
70525W        W29621  16.151  42.811  14.508
70526W        W29622  42.486   4.932  12.038
70527W        W29623  43.858  25.609   3.338
70528W        W29624  43.333   8.722   5.208
70529W        W29625  18.663   4.828   1.365
70530W        W29626  44.862  41.490   4.728
70531W        W29627   2.910  41.479   1.385
70532W        W29628  37.889  33.985  11.603
70533W        W29629  21.072  22.670  14.372
70534W        W29630  28.120  29.025  12.993
70535W        W29631  29.426  10.822  14.346
70536W        W29632  16.208   9.809   0.964
70537W        W29633  24.628  17.654   0.454
70538W        W29634  16.743   3.888   1.382
70539W        W29635   4.748  12.672  12.983
70540W        W29636  21.521  42.394   1.427
70541W        W29637   1.957  34.602   3.663
70542W        W29638   2.416  24.550   0.290
70543W        W29639  37.547   6.794  12.839
70544W        W29640  16.192  22.613  11.535
70545W        W29641   7.413  14.272  13.936
70546W        W29642  23.561  34.475   3.354
70547W        W29643  31.054  35.863  14.832
70548W        W29644   3.751  24.099  14.308
70549W        W29645  32.506   9.717  13.447
70550W        W29646  21.202  38.417   2.754
70551W        W29647  21.695  11.138  13.923
70552W        W29648  28.179  18.204  14.427
70553W        W29649  30.529  41.378   1.444
70554W        W29650  36.967  12.194  13.859
70555W        W29651  28.087  23.192  13.368
70556W        W29652   3.459   2.419   3.320
70557W        W29653   2.255  39.909  12.070
70558W        W29654  29.964  16.102   9.442
70559W        W29655   6.386  31.902  11.542
70560W        W29656   6.195   9.279  13.045
70561W        W29657  27.087  19.251   2.676
70562W        W29658   9.684  41.844  10.473
70563W        W29659  19.157  27.192  12.442
70564W        W29660  23.203  41.792  14.955
70565W        W29661  40.320  20.234  11.506
70566W        W29662  26.086   1.361  14.801
70567W        W29663  23.575  16.080   2.884
70568W        W29664   9.829  23.616  12.017
70569W        W29665  31.048  32.934  14.452
70570W        W29666   4.732  22.693  10.430
70571W        W29667  43.474  15.093  10.939
70572W        W29668   3.216  23.494  13.824
70573W        W29669  26.159   9.680  13.064
70574W        W29670  26.523  23.109  12.847
70575W        W29671  15.095  28.067  13.847
70576W        W29672  27.576  21.234  13.883
70577W        W29673  29.044  35.096   1.380
70578W        W29674  23.018  10.254   4.805
70579W        W29675  24.179  30.037  11.428
70580W        W29676  34.578  35.889  12.481
70581W        W29677  21.026  28.079  11.126
70582W        W29678  18.192  27.451   0.869
70583W        W29679   9.386   2.865   3.654
70584W        W29680  19.206  33.960   2.273
70585W        W29681   8.686  13.153  10.633
70586W        W29682  17.561  40.859  10.631
70587W        W29683  18.121  35.385   1.363
70588W        W29684   8.397  23.068  12.413
70589W        W29685   1.443  26.996  14.966
70590W        W29686  31.020  16.662   4.198
70591W        W29687   3.329  43.459   3.672
70592W        W29688  36.076  18.633  13.352
70593W        W29689  26.466  22.558  14.977
70594W        W29690  32.398  19.637  13.815
70595W        W29691  14.331   6.307  14.764
70596W        W29692  18.609  35.999   1.438
70597W        W29693  37.966  43.817   3.672
70598W        W29694  18.070   8.244   0.870
70599W        W29695   7.733  16.284   3.386
70600W        W29696  14.825  19.673   5.296
70601W        W29697  44.783  18.153   2.893
70602W        W29698   6.817  16.611   3.772
70603W        W29699  27.454  26.483   1.376
70604W        W29700  37.888  31.489   0.829
70605W        W29701  35.442  27.957  12.453
70606W        W29702  33.497  35.437   0.817
70607W        W29703  19.602  20.733   4.629
70608W        W29704  27.987  28.184   0.903
70609W        W29705   6.845  22.110   0.761
70610W        W29706  26.677  32.618  14.030
70611W        W29707  34.070   7.735   0.335
70612W        W29708  43.855  36.477  13.369
70613W        W29709  43.800  26.091   0.847
70614W        W29710  38.365  37.064  11.974
70615W        W29711  29.154   6.811  14.345
70616W        W29712   8.160  44.304  12.405
70617W        W29713   7.796  22.642   3.796
70618W        W29714  40.833   6.255  10.425
70619W        W29715  14.815  39.991  14.833
70620W        W29716   8.253  39.437   0.355
70621W        W29717  20.651  43.869  14.924
70622W        W29718  17.110  25.680   0.436
70623W        W29719  21.635  30.998   2.339
70624W        W29720   2.379   8.777   5.091
70625W        W29721  18.154  24.186  14.863
70626W        W29722  31.064  18.249  11.989
70627W        W29723  24.604   5.354  11.576
70628W        W29724  30.918  35.887  13.843
70629W        W29725   3.373  25.109   4.254
70630W        W29726  21.257   1.860   0.258
70631W        W29727  13.684  16.127  11.909
70632W        W29728  35.923   7.704  14.963
70633W        W29729   5.703  13.257   2.393
70634W        W29730   7.244  26.189  12.016
70635W        W29731  26.994  15.623   4.209
70636W        W29732  25.608  11.752  11.606
70637W        W29733  17.214  42.452  10.896
70638W        W29734  40.447   4.383  13.858
70639W        W29735  15.280  37.489   5.128
70640W        W29736  30.996  42.422   4.154
70641W        W29737  42.437   3.216  13.508
70642W        W29738   9.704   9.694  11.502
70643W        W29739   8.733  31.631   1.275
70644W        W29740  30.052  42.011  14.474
70645W        W29741  27.589  32.027  14.996
70646W        W29742  36.364  41.495   2.758
70647W        W29743   7.739  16.736   3.207
70648W        W29744  26.610  28.640   4.237
70649W        W29745   1.377  43.482  12.430
70650W        W29746   8.686  27.589   3.254
70651W        W29747  20.591   7.181   4.164
70652W        W29748  16.260  44.294  13.541
70653W        W29749  35.444  30.126  10.495
70654W        W29750   6.254  30.645   1.713
70655W        W29751   5.770  17.735  11.040
70656W        W29752  23.516   2.779   1.725
70657W        W29753  13.316  29.935  14.388
70658W        W29754  12.155   4.355  10.430
70659W        W29755  23.085  22.106   2.689
70660W        W29756   3.261  26.995   2.898
70661W        W29757  39.998  13.266  12.991
70662W        W29758   2.440  18.588   2.688
70663W        W29759  11.359  21.515   2.798
70664W        W29760  12.670  38.498   1.411
70665W        W29761  19.552  25.609   4.146
70666W        W29762  15.769  38.366  14.365
70667W        W29763   8.798   7.341   1.408
70668W        W29764  28.549  34.572  11.955
70669W        W29765   4.401  14.744  11.890
70670W        W29766  32.142  20.227  12.927
70671W        W29767  16.238  44.267   4.666
70672W        W29768   9.360  10.735   0.950
70673W        W29769  34.967  20.065  14.803
70674W        W29770  16.126  40.310   1.898
70675W        W29771  38.857  18.210   2.381
70676W        W29772  23.684   8.837   2.291
70677W        W29773  33.503   3.873  11.102
70678W        W29774  41.526   4.835  11.001
70679W        W29775  32.561  37.080  13.852
70680W        W29776   2.738  27.112  12.531
70681W        W29777  29.448   1.319   0.952
70682W        W29778  25.641   5.358   1.386
70683W        W29779  22.573  13.836   1.321
70684W        W29780  16.732  22.711  10.549
70685W        W29781  36.044  34.021  14.962
70686W        W29782   2.238  22.087  12.881
70687W        W29783  10.803  43.903   4.309
70688W        W29784  44.979  22.604   3.256
70689W        W29785  18.207   4.939   2.243
70690W        W29786   6.895  25.703  11.965
70691W        W29787   8.303   0.932   1.843
70692W        W29788  41.031  14.612  11.019
70693W        W29789  41.524   1.385   4.211
70694W        W29790  35.938   4.832  12.419
70695W        W29791  12.713  43.493   3.676
70696W        W29792  17.625  18.549   3.848
70697W        W29793  27.941  42.919   2.227
70698W        W29794   2.320  10.801  12.427
70699W        W29795  44.310  19.570   0.417
70700W        W29796  17.580  35.092  12.454
70701W        W29797   5.327   7.344   1.422
70702W        W29798   1.319  43.928  14.864
70703W        W29799  42.937  13.193  14.436
70704W        W29800  16.798  43.914  12.027
70705W        W29801  35.500  17.139   0.366
70706W        W29802   4.742   2.823  11.445
70707W        W29803  41.383  33.484   0.926
70708W        W29804  43.332  37.485   3.824
70709W        W29805  32.029  41.823  11.078
70710W        W29806  43.982   2.414   4.778
70711W        W29807  29.468  22.500   2.394
70712W        W29808  26.504  28.997  12.386
70713W        W29809  30.091  17.568   5.152
70714W        W29810   7.251  33.905  11.871
70715W        W29811  42.503   2.349   0.788
70716W        W29812  33.088  21.089  11.478
70717W        W29813  25.141  15.715  14.864
70718W        W29814  13.301  44.898  14.027
70719W        W29815  13.280  39.873   1.217
70720W        W29816  23.500  16.139   0.742
70721W        W29817  16.730  14.163   1.265
70722W        W29818   3.948  37.016  12.007
70723W        W29819   3.342  20.579  10.909
70724W        W29820   8.658  25.050   1.862
70725W        W29821  13.124  43.797   4.272
70726W        W29822  27.527  23.735   1.302
70727W        W29823  38.031  21.045  10.936
70728W        W29824  31.619   9.189   0.297
70729W        W29825  13.768  44.796   1.745
70730W        W29826  34.447  26.083   2.719
70731W        W29827   7.837  35.032  13.444
70732W        W29828  36.431  43.340   4.734
70733W        W29829  36.001  42.819  14.494
70734W        W29830   5.790  12.147  13.914
70735W        W29831  38.877  44.951  10.642
70736W        W29832  11.815  17.158   4.142
70737W        W29833  39.055  10.658  10.484
70738W        W29834  14.753  35.969  10.965
70739W        W29835  29.094  18.644  12.509
70740W        W29836  26.673  16.153  14.007
70741W        W29837  28.658  28.051  13.887
70742W        W29838  18.068  30.060   4.294
70743W        W29839  28.584  20.179  14.016
70744W        W29840  38.831  21.147   2.308
70745W        W29841  21.058  34.579   0.401
70746W        W29842  23.581   3.955   0.338
70747W        W29843   2.773   0.887  14.403
70748W        W29844  32.088  36.523  12.081
70749W        W29845   2.826  10.175  14.855
70750W        W29846  21.752  21.157  14.287
70751W        W29847  22.247  26.983  14.839
70752W        W29848  17.282  20.657   1.323
70753W        W29849  21.177   4.398   2.352
70754W        W29850  42.912  25.614   2.206
70755W        W29851  10.814  26.153   4.196
70756W        W29852  25.520  13.231   4.257
70757W        W29853  12.765  27.085   3.763
70758W        W29854   4.944  30.931  12.401
70759W        W29855   8.753  13.188  13.024
70760W        W29856   4.342  14.676  13.490
70761W        W29857  40.895   0.852   2.407
70762W        W29858   9.368   2.251  12.891
70763W        W29859   9.782   0.854  13.982
70764W        W29860  10.668  34.580  13.460
70765W        W29861  39.370  28.514  14.994
70766W        W29862  43.929  20.551  10.462
70767W        W29863  13.262  25.702   2.336
70768W        W29864  24.127  43.443   3.298
70769W        W29865   7.776  44.767   3.861
70770W        W29866  16.168   5.414  12.855
70771W        W29867  16.152  34.023  10.415
70772W        W29868  25.984  35.565  12.087
70773W        W29869  10.268  16.170   3.147
70774W        W29870  27.651  35.922   3.233
70775W        W29871  16.636  43.339   1.866
70776W        W29872  29.982  23.015   1.877
70777W        W29873  37.480  34.895  13.881
70778W        W29874  31.963  28.131  11.859
70779W        W29875   9.381   7.810  14.801
70780W        W29876  15.210  17.572   1.415
70781W        W29877   8.315  11.838  14.388
70782W        W29878   9.875  22.547   2.875
70783W        W29879  14.757   7.681  12.532
70784W        W29880  41.433  33.534   4.331
70785W        W29881  44.336  26.546   5.314
70786W        W29882  18.227  31.900   9.974
70787W        W29883  17.618   3.353   2.299
70788W        W29884   0.435  13.753  13.524
70789W        W29885  17.611  19.149   2.785
70790W        W29886   9.196  24.999   3.664
70791W        W29887  44.465  27.111  11.544
70792W        W29888  33.595  12.238  14.027
70793W        W29889  29.437  27.010  13.913
70794W        W29890   5.757  32.943  13.862
70795W        W29891  38.053   4.275  14.832
70796W        W29892  14.241   0.976   3.785
70797W        W29893   5.375  19.708   3.154
70798W        W29894  21.620  41.003   1.416
70799W        W29895  42.817  18.118   2.767
70800W        W29896  16.802  10.765  11.111
70801W        W29897  43.415  29.530  13.961
70802W        W29898  44.459  28.974   0.823
70803W        W29899  14.699  41.303  11.568
70804W        W29900  28.451   7.777  12.394
70805W        W29901  11.285  40.889  13.794
70806W        W29902   4.412  22.052  11.580
70807W        W29903  11.295  14.657  10.583
70808W        W29904  30.428  25.686  14.280
70809W        W29905  20.249  28.959   0.331
70810W        W29906  32.573  11.669   0.387
70811W        W29907  31.429  25.664   2.727
70812W        W29908   8.849   5.245  13.389
70813W        W29909   2.900  43.474   2.255
70814W        W29910  44.459  43.967  10.573
70815W        W29911  30.017  27.046  10.568
70816W        W29912  43.479  21.073  10.999
70817W        W29913  36.553  32.392   4.752
70818W        W29914   5.827  36.996   0.740
70819W        W29915  36.482   4.350  11.007
70820W        W29916  19.699  37.955  10.154
70821W        W29917  32.630  38.548   3.852
70822W        W29918  12.243  38.412   4.788
70823W        W29919   6.785  21.075   0.809
70824W        W29920  31.955   9.388  11.072
70825W        W29921  29.076   3.769  12.951
70826W        W29922  38.992  41.532  10.895
70827W        W29923  10.808   3.222   1.885
70828W        W29924  31.103  29.011  14.481
70829W        W29925   0.952  15.307   4.657
70830W        W29926  21.612  37.406   4.177
70831W        W29927  27.959  26.522  11.978
70832W        W29928  38.907  18.264   0.766
70833W        W29929  12.233  23.102   2.309
70834W        W29930  13.814  42.414  12.487
70835W        W29931  22.247   7.832   0.318
70836W        W29932  38.339   6.405  14.010
70837W        W29933  13.334  17.062   2.768
70838W        W29934   3.903   6.858  13.392
70839W        W29935  42.880  34.514   1.716
70840W        W29936  35.948  16.094   2.199
70841W        W29937  13.181  29.659   2.272
70842W        W29938  35.031  29.484   5.117
70843W        W29939  41.015  40.363  13.819
70844W        W29940  41.790  39.544  12.955
70845W        W29941  19.127  18.196   1.746
70846W        W29942  11.225  44.497   0.404
70847W        W29943   6.183  12.117   1.283
70848W        W29944  18.253  12.283   4.628
70849W        W29945  21.524  41.907  14.465
70850W        W29946  40.835   1.305  14.324
70851W        W29947  43.313  32.897  14.899
70852W        W29948  40.448   4.942  10.984
70853W        W29949  39.021  17.626   4.326
70854W        W29950  19.039  15.153   3.721
70855W        W29951   7.769  10.304   2.823
70856W        W29952   1.282  43.295   2.220
70857W        W29953  40.989  42.282   0.922
70858W        W29954   2.840  28.184   2.879
70859W        W29955   7.779  22.665   1.933
70860W        W29956  39.897  30.492   2.345
70861W        W29957  30.640  12.641   0.848
70862W        W29958  31.494  29.465  13.937
70863W        W29959  12.275   7.785  14.387
70864W        W29960  43.371  18.741   2.844
70865W        W29961  29.953  27.178   1.247
70866W        W29962  40.517  35.493   2.814
70867W        W29963  11.132  12.122   4.341
70868W        W29964  22.237   2.345   1.891
70869W        W29965  15.247  16.595  10.511
70870W        W29966   6.413  21.553  10.495
70871W        W29967  13.142  43.891  14.993
70872W        W29968   0.375   1.422   4.796
70873W        W29969  14.835  36.536   2.228
70874W        W29970  14.195  15.201   0.843
70875W        W29971  11.127  42.377   2.786
70876W        W29972  15.678   4.848   2.667
70877W        W29973  44.462  33.108   2.799
70878W        W29974  11.767  28.135  11.530
70879W        W29975   9.328  32.403   0.255
70880W        W29976  25.003  32.539   5.211
70881W        W29977   9.784  18.724   2.687
70882W        W29978  25.668  11.855  14.026
70883W        W29979  18.160  33.925  11.468
70884W        W29980   2.444   4.215   0.762
70885W        W29981  20.642  40.863   0.839
70886W        W29982  38.514  20.616  12.092
70887W        W29983  21.084  12.856  14.311
70888W        W29984  18.131   5.871  10.629
70889W        W29985   9.713  43.284  11.568
70890W        W29986  22.535   1.752  14.482
70891W        W29987  29.117  36.462  11.538
70892W        W29988  26.031  40.419  10.926
70893W        W29989  39.871   8.382  11.500
70894W        W29990  13.838  43.482  13.829
70895W        W29991   0.966  38.358  14.292
70896W        W29992  12.779  13.811   0.867
70897W        W29993  41.900   9.828   4.352
70898W        W29994  23.030  29.116  11.995
70899W        W29995   1.470  37.573  10.036
70900W        W29996  32.894  12.625   3.156
70901W        W29997  23.551  19.206  12.922
70902W        W29998  42.486  10.737  10.439
70903W        W29999  15.173  33.456   4.336
70904W        W30000  33.947  35.372   3.310
70905W        W30001   9.718  34.996   2.746
70906W        W30002  31.513  20.137  10.920
70907W        W30003   2.767  19.755  10.611
70908W        W30004   7.331   2.335  12.491
70909W        W30005  33.494  22.247   3.801
70910W        W30006  29.442  16.676   0.472
70911W        W30007  44.403  10.353  10.103
70912W        W30008  16.699  18.739  13.805
70913W        W30009   5.726  24.661   1.829
70914W        W30010  37.922   7.173  11.051
70915W        W30011  41.793   4.227  10.931
70916W        W30012   0.454  41.332   0.262
70917W        W30013  32.589  40.391   3.311
70918W        W30014   2.928  15.809  13.806
70919W        W30015  11.749  42.908   0.291
70920W        W30016  22.741  35.517  13.449
70921W        W30017  37.004  31.546  11.930
70922W        W30018  34.903   4.383   2.810
70923W        W30019  22.189  25.076   0.871
70924W        W30020  19.244  42.804  12.929
70925W        W30021  15.099  25.538   2.269
70926W        W30022  30.568  29.982   4.193
70927W        W30023  17.723  16.084   1.344
70928W        W30024  20.050  38.357  14.811
70929W        W30025  15.150   9.712   3.804
70930W        W30026  22.241  17.298   4.744
70931W        W30027  26.691  39.856   4.683
70932W        W30028   9.846  42.289   0.924
70933W        W30029  13.739  39.903  14.782
70934W        W30030  24.015  18.100   1.845
70935W        W30031  28.019  40.322  12.074
70936W        W30032  39.444  36.863   1.808
70937W        W30033  41.043  37.471   4.158
70938W        W30034  37.548  29.545   3.773
70939W        W30035  25.523  16.716   1.846
70940W        W30036   9.298  35.098  13.952
70941W        W30037  31.108  18.114   2.314
70942W        W30038   8.288   4.762  11.446
70943W        W30039  44.892  23.115  14.370
70944W        W30040  13.179  43.271  13.396
70945W        W30041   9.254  39.816  14.420
70946W        W30042  35.535   8.382   1.387
70947W        W30043  16.623   3.454   1.741
70948W        W30044  27.618  38.517   3.749
70949W        W30045  44.443  23.654   4.191
70950W        W30046  42.830  42.404  13.037
70951W        W30047  32.077  11.846   2.383
70952W        W30048   3.377  42.411  14.485
70953W        W30049  21.050  28.533   1.230
70954W        W30050  19.754  15.309   2.356
70955W        W30051  36.014  42.019   4.352
70956W        W30052   4.411  29.024  13.027
70957W        W30053   9.762   2.893   3.723
70958W        W30054  12.250  38.504  11.867
70959W        W30055  22.657  29.983   0.423
70960W        W30056  10.674  13.611  13.481
70961W        W30057  14.641  33.539   3.315
70962W        W30058  37.084  18.067  10.498
70963W        W30059  36.348  34.540   3.699
70964W        W30060  13.185  17.201  10.525
70965W        W30061   6.870  11.299   0.434
70966W        W30062  11.818  38.477  12.880
70967W        W30063  28.638  41.896   4.264
70968W        W30064   8.802  11.817  14.354
70969W        W30065  20.611  24.479  12.876
70970W        W30066  10.178  24.597   4.201
70971W        W30067  16.104  36.033   5.638
70972W        W30068   9.314  15.604  14.369
70973W        W30069  37.984   8.199   0.429
70974W        W30070  27.632  37.545   5.107
70975W        W30071  24.120   8.741  12.942
70976W        W30072   9.278   7.178   1.819
70977W        W30073   1.281  18.688  13.359
70978W        W30074  24.016   2.394  13.510
70979W        W30075  32.467  25.653   3.663
70980W        W30076   6.191  31.130   4.143
70981W        W30077  11.859  13.231  12.426
70982W        W30078  27.148   0.477   2.813
70983W        W30079  38.392  12.744   1.277
70984W        W30080  42.999  35.364   3.777
70985W        W30081  22.172  24.974  10.595
70986W        W30082  14.632  40.953   3.829
70987W        W30083  36.448  26.505   1.828
70988W        W30084  41.022   5.412  11.446
70989W        W30085  14.218   9.864   0.880
70990W        W30086   8.359  21.145   2.314
70991W        W30087  13.347  17.192   4.146
70992W        W30088   5.321  28.007  14.797
70993W        W30089  35.419  12.174  14.422
70994W        W30090  37.911  18.263   1.797
70995W        W30091  34.531  25.973  12.504
70996W        W30092   3.946  11.304   3.212
70997W        W30093  20.116  36.579   5.131
70998W        W30094  10.271  17.174  12.430
70999W        W30095  22.634  36.901   0.322
71000W        W30096   2.871  13.636   3.772
71001W        W30097   4.303   1.396  12.048
71002W        W30098  26.616  35.055  12.931
71003W        W30099  31.963  37.360  10.428
71004W        W30100  21.585  20.176   0.905
71005W        W30101  34.388  10.333  14.367
71006W        W30102  31.556  44.811   0.245
71007W        W30103  33.916   9.868   9.469
71008W        W30104  26.478  44.280   1.297
71009W        W30105  21.084  41.318   2.282
71010W        W30106  10.858  15.245  14.308
71011W        W30107  37.425  23.999  13.919
71012W        W30108  10.233  10.381   0.326
71013W        W30109  24.196  23.231   1.339
71014W        W30110   0.469   5.773  12.082
71015W        W30111  41.419  36.940   3.826
71016W        W30112  13.825  13.676   5.215
71017W        W30113   0.891  42.996   0.279
71018W        W30114  26.620   8.837   3.783
71019W        W30115  42.778   4.789   0.392
71020W        W30116  28.129  16.715  13.835
71021W        W30117   3.780  35.916   2.852
71022W        W30118  10.333  42.964   3.298
71023W        W30119  14.291  12.637  13.492
71024W        W30120  15.741  37.852  12.393
71025W        W30121   6.254  20.227  11.937
71026W        W30122  17.239  31.407  10.515
71027W        W30123   6.750  35.542  14.871
71028W        W30124  40.895   8.281  10.057
71029W        W30125   7.390  37.577   0.951
71030W        W30126   7.233  34.543  12.892
71031W        W30127  32.909  36.023  11.571
71032W        W30128  15.197  14.745  13.426
71033W        W30129  13.804  34.996  12.033
71034W        W30130  12.665  34.453  11.044
71035W        W30131  27.059  20.164   0.468
71036W        W30132  24.589  12.138   4.614
71037W        W30133  33.012  37.462   2.882
71038W        W30134  37.504  39.843   4.735
71039W        W30135  35.940  26.603  11.985
71040W        W30136  27.689  18.704   4.217
71041W        W30137   6.912  16.299  11.921
71042W        W30138  38.863  33.977  12.385
71043W        W30139  21.075  33.464   2.819
71044W        W30140  22.165  22.065   9.543
71045W        W30141  23.182  44.410  14.380
71046W        W30142  23.670  44.426   4.332
71047W        W30143  34.932  13.636   0.800
71048W        W30144   5.715  26.515  14.759
71049W        W30145   5.353  12.333  11.596
71050W        W30146  12.296  19.052   5.086
71051W        W30147   8.772  19.691  11.568
71052W        W30148  18.761  18.168   5.145
71053W        W30149  16.215  29.431   0.442
71054W        W30150  11.845  43.380   3.382
71055W        W30151  25.994   0.849  12.881
71056W        W30152   3.949   3.279  10.614
71057W        W30153  16.227   6.354  14.764
71058W        W30154   6.737  22.589   9.993
71059W        W30155  10.298  26.996  10.954
71060W        W30156  18.561  42.947   1.267
71061W        W30157  12.758  27.134   1.267
71062W        W30158  40.351  24.196   4.763
71063W        W30159   0.435  43.443   2.705
71064W        W30160  35.918  27.091  13.399
71065W        W30161  26.023  25.185   4.769
71066W        W30162  12.840  38.386  10.953
71067W        W30163  22.678   1.332  12.049
71068W        W30164   6.845  32.455  10.901
71069W        W30165  44.872  34.464   0.800
71070W        W30166  26.108  36.589  11.872
71071W        W30167  27.456   6.806   3.290
71072W        W30168  28.443  13.841  14.813
71073W        W30169  13.172  19.743  11.490
71074W        W30170  41.387  30.418   0.850
71075W        W30171  21.055  33.901   0.901
71076W        W30172   4.807   5.392  11.411
71077W        W30173  32.428   3.420  10.555
71078W        W30174   3.893  26.066   9.599
71079W        W30175   6.352  23.600   9.491
71080W        W30176  36.414  31.083  14.292
71081W        W30177  11.354  27.674  13.380
71082W        W30178  11.635  11.633   3.316
71083W        W30179  16.226  38.542   4.259
71084W        W30180  34.034   3.223  13.832
71085W        W30181  23.728  29.647   0.390
71086W        W30182  17.634   5.839  10.555
71087W        W30183  32.999  15.602   2.342
71088W        W30184  16.150  27.636   3.201
71089W        W30185  36.981  31.522   0.860
71090W        W30186  33.392  39.447   3.698
71091W        W30187  10.259  33.948  14.391
71092W        W30188  27.987  32.423  14.473
71093W        W30189  17.140  19.210   1.835
71094W        W30190  12.305  24.020  12.469
71095W        W30191  36.947   6.190  11.440
71096W        W30192  31.973  42.464   1.845
71097W        W30193  34.075  28.672   1.285
71098W        W30194  13.240  12.215  13.328
71099W        W30195  33.114  35.368  10.587
71100W        W30196  37.527  42.303  14.280
71101W        W30197  24.138  24.564  11.995
71102W        W30198  32.106  43.329   2.324
71103W        W30199  15.708  42.792  13.924
71104W        W30200  10.636   3.858   1.906
71105W        W30201   1.447   1.269   1.825
71106W        W30202   5.279  39.836   1.376
71107W        W30203  38.865  43.361  10.638
71108W        W30204  18.072  11.297  14.297
71109W        W30205  12.761  14.216   0.456
71110W        W30206  17.084   1.256   4.134
71111W        W30207  44.349   9.763   3.274
71112W        W30208  42.931   9.752  13.409
71113W        W30209  44.849  38.890  13.343
71114W        W30210   3.940  18.285   2.289
71115W        W30211   9.768  20.571   1.847
71116W        W30212  13.773  30.118   1.240
71117W        W30213  38.565  17.776   4.260
71118W        W30214  12.265  27.099   4.644
71119W        W30215  30.069  24.091   4.201
71120W        W30216   1.867  15.694   1.801
71121W        W30217  12.127  41.292  13.891
71122W        W30218  25.608  34.542  13.369
71123W        W30219  29.034  13.158  10.988
71124W        W30220  43.399  44.786  11.501
71125W        W30221  26.162  33.963  11.042
71126W        W30222  27.641  33.939   2.817
71127W        W30223  19.563  42.423  14.873
71128W        W30224  28.628  30.044   1.707
71129W        W30225  19.188  42.481   1.334
71130W        W30226  13.210  21.755  12.832
71131W        W30227  43.862   9.252   3.366
71132W        W30228  43.485  25.624   3.285
71133W        W30229  41.351   4.395   0.833
71134W        W30230  35.573  35.966  13.843
71135W        W30231  34.481   3.942  12.559
71136W        W30232  19.098  15.317  14.372
71137W        W30233  32.456  27.682   4.707
71138W        W30234   9.828   5.691   2.278
71139W        W30235   6.348   1.862   4.204
71140W        W30236  40.396   1.901   0.925
71141W        W30237   3.769  36.538   0.922
71142W        W30238  33.497   6.404  10.411
71143W        W30239  43.815  27.074  13.983
71144W        W30240  33.446  42.807   1.347
71145W        W30241  37.417  12.807  14.300
71146W        W30242   7.255  30.944   3.693
71147W        W30243  11.740   6.212   1.798
71148W        W30244  40.930  31.504  10.956
71149W        W30245  37.538   8.859  12.438
71150W        W30246  29.527  30.042   1.806
71151W        W30247  16.182  20.126  12.061
71152W        W30248  17.142  37.420  12.555
71153W        W30249  15.085  14.151  11.542
71154W        W30250  31.519  15.135   3.716
71155W        W30251   1.756  32.024  12.553
71156W        W30252  17.170   5.351   1.811
71157W        W30253  33.989  37.043   4.710
71158W        W30254  24.195   4.936  11.865
71159W        W30255  30.564  39.944   0.927
71160W        W30256  24.104  27.597  14.395
71161W        W30257  25.675  29.564   3.280
71162W        W30258  24.595   1.930   1.397
71163W        W30259  26.512  39.958   0.889
71164W        W30260   2.775  34.107   1.311
71165W        W30261   7.710  32.915   4.698
71166W        W30262   6.363  10.874   2.789
71167W        W30263   9.340  12.187   3.643
71168W        W30264  42.323  23.005   3.364
71169W        W30265   3.850  43.967   0.288
71170W        W30266  18.271  40.397   3.737
71171W        W30267  33.035  18.174   4.742
71172W        W30268  14.117  17.780  10.490
71173W        W30269  39.060  10.732  10.143
71174W        W30270  35.511  26.630  12.966
71175W        W30271  36.916  35.439  12.915
71176W        W30272  30.035  34.400   1.447
71177W        W30273  14.093  18.114  14.016
71178W        W30274   0.454   8.314  13.885
71179W        W30275  11.367   8.852  10.939
71180W        W30276  36.470  32.548  14.984
71181W        W30277   9.183  34.475  13.522
71182W        W30278  37.845  38.826  12.425
71183W        W30279  13.284  39.027   0.813
71184W        W30280   4.833  41.796  10.942
71185W        W30281   2.763  35.428   2.745
71186W        W30282  21.651  18.277   0.781
71187W        W30283  16.298  44.887  10.480
71188W        W30284  26.463  18.149   3.695
71189W        W30285  44.261  12.334  10.949
71190W        W30286  18.087  28.500   2.874
71191W        W30287  24.108  44.997  13.829
71192W        W30288  43.842   8.186   2.237
71193W        W30289  18.724  26.481  12.533
71194W        W30290   4.256  37.377  11.042
71195W        W30291  17.307   1.358   2.814
71196W        W30292  41.812  26.513   4.309
71197W        W30293  33.396  40.998  11.604
71198W        W30294  22.631  11.351  10.961
71199W        W30295  28.989  42.290   4.734
71200W        W30296   0.955   8.268  10.542
71201W        W30297   4.411   1.927   4.629
71202W        W30298  21.030   0.295   0.427
71203W        W30299  41.462   4.323   2.337
71204W        W30300  17.267  21.612   2.727
71205W        W30301  24.160  31.406  13.376
71206W        W30302   1.932  15.791  14.802
71207W        W30303  43.358   3.404  13.826
71208W        W30304  17.274  20.631   2.698
71209W        W30305  34.419   2.363   3.373
71210W        W30306  12.717   1.292  14.992
71211W        W30307   6.832  42.918  10.979
71212W        W30308  31.896   3.401   4.679
71213W        W30309  12.232   0.851  14.455
71214W        W30310  41.791  39.896  11.058
71215W        W30311   3.242  21.134   0.348
71216W        W30312  42.941   8.211  14.365
71217W        W30313  26.131  37.842  10.913
71218W        W30314  30.635   4.898  12.435
71219W        W30315  24.664   7.684  10.630
71220W        W30316   8.404  25.195   0.373
71221W        W30317  24.491   6.693   2.402
71222W        W30318  16.082  27.041  14.001
71223W        W30319   7.408  12.152   3.211
71224W        W30320  19.120  26.184  10.936
71225W        W30321  38.969  44.337   0.314
71226W        W30322  22.506   3.234   2.848
71227W        W30323   3.882  33.443  12.065
71228W        W30324  32.575   9.202  13.973
71229W        W30325  37.500  29.010  13.984
71230W        W30326  33.620  24.072  13.905
71231W        W30327  40.322  31.917  10.434
71232W        W30328  31.529  15.091  10.564
71233W        W30329  19.747  25.602   1.804
71234W        W30330  38.989   1.967   2.224
71235W        W30331  26.000   5.353   2.859
71236W        W30332  10.660  25.694   3.757
71237W        W30333   6.758  35.092   2.263
71238W        W30334  18.683  26.171  12.980
71239W        W30335  39.823  31.520   4.736
71240W        W30336   4.700   7.774   2.681
71241W        W30337  28.663  44.790  14.338
71242W        W30338   4.806  39.424   3.240
71243W        W30339  25.555  26.040  12.427
71244W        W30340  23.230  44.452   4.258
71245W        W30341  44.969  44.005  11.587
71246W        W30342  16.641   1.972  11.519
71247W        W30343  10.839  28.083  13.328
71248W        W30344  39.485  14.664   0.741
71249W        W30345  22.647  25.092   1.346
71250W        W30346  20.092   7.296   4.752
71251W        W30347   1.804  24.663   4.629
71252W        W30348   6.786   6.321  13.979
71253W        W30349  30.506  34.414  14.987
71254W        W30350  10.185  17.753   1.375
71255W        W30351  14.122  33.060  14.371
71256W        W30352   0.785  36.555   3.384
71257W        W30353  20.180  14.688  13.801
71258W        W30354  44.432   2.303  11.463
71259W        W30355   7.370   8.207  13.363
71260W        W30356  32.042  33.947   3.746
71261W        W30357  33.069  22.729  13.371
71262W        W30358   0.428  19.046   1.723
71263W        W30359  32.110  29.158   1.929
71264W        W30360   1.475  31.586   0.275
71265W        W30361   8.871  32.965  13.845
71266W        W30362   5.717   1.464   3.359
71267W        W30363   8.400  16.268  11.400
71268W        W30364  30.581  37.398  12.908
71269W        W30365  34.891  43.817  10.535
71270W        W30366  27.155  42.337   2.299
71271W        W30367  25.494  43.454   4.263
71272W        W30368  42.994  16.264   0.898
71273W        W30369  18.213  19.099   2.796
71274W        W30370   6.289   3.817  12.383
71275W        W30371   6.792  30.537  11.492
71276W        W30372  23.609   9.828   4.692
71277W        W30373  39.476  40.923  13.811
71278W        W30374  33.411  12.699  13.808
71279W        W30375  32.914   0.355   2.191
71280W        W30376  16.122  35.883  10.421
71281W        W30377  43.987   3.822   1.265
71282W        W30378  21.607  21.022   0.314
71283W        W30379   5.215  29.984  10.910
71284W        W30380  12.150   7.721   1.930
71285W        W30381  25.485   9.728  11.115
71286W        W30382   9.883  34.555   3.253
71287W        W30383  24.181  34.981   2.236
71288W        W30384  32.102  34.072   0.318
71289W        W30385  39.822  19.078  12.865
71290W        W30386  29.482  24.589  10.454
71291W        W30387  25.701   7.388   1.428
71292W        W30388  12.191  24.018   4.752
71293W        W30389   4.842  12.743   2.245
71294W        W30390  26.637  39.026   5.228
71295W        W30391  14.709  26.133  11.915
71296W        W30392  14.175   0.830  12.073
71297W        W30393   9.257  17.133  12.564
71298W        W30394  44.272  32.011  12.413
71299W        W30395   4.703  18.187   1.931
71300W        W30396  29.579  13.240   5.218
71301W        W30397  35.552   5.399  10.952
71302W        W30398  13.609  34.605   0.911
71303W        W30399   8.796  17.232  14.445
71304W        W30400  44.359  24.982  14.485
71305W        W30401  20.685  38.956   1.255
71306W        W30402  19.113  44.285  14.386
71307W        W30403  14.238  33.433   0.412
71308W        W30404  15.235  19.103   1.396
71309W        W30405  20.663  25.621   2.708
71310W        W30406  36.363  27.665  10.434
71311W        W30407   9.230  29.168   5.235
71312W        W30408   7.343  44.847   0.846
71313W        W30409   4.382  40.471   0.841
71314W        W30410  43.334  19.624  12.891
71315W        W30411  24.581  41.472  10.497
71316W        W30412  28.973  27.531  10.494
71317W        W30413  24.584  36.930  13.542
71318W        W30414   7.774  37.942   4.785
71319W        W30415  34.447  36.962   4.256
71320W        W30416  32.886  31.119   4.638
71321W        W30417  40.393  42.464  14.332
71322W        W30418  11.356  41.343   2.668
71323W        W30419  20.196  44.390   1.428
71324W        W30420   0.771   8.674  12.881
71325W        W30421   0.901   7.354  11.572
71326W        W30422  17.671  35.069   5.172
71327W        W30423  23.072  42.859   2.290
71328W        W30424  35.038  39.010  12.558
71329W        W30425   1.750   0.907   4.767
71330W        W30426  14.819   7.885  14.932
71331W        W30427  39.418  39.901  12.339
71332W        W30428  22.730  12.255  14.475
71333W        W30429  18.192   5.331   3.359
71334W        W30430  34.489   9.190   4.241
71335W        W30431  40.051   9.770   1.240
71336W        W30432   0.935  37.502  10.561
71337W        W30433  17.075  44.981   2.355
71338W        W30434  23.676  44.464   0.355
71339W        W30435  10.235  43.437   3.820
71340W        W30436  21.103  21.041   5.088
71341W        W30437   7.722  29.134   1.410
71342W        W30438   1.886  22.040  14.841
71343W        W30439   7.207   6.776   1.254
71344W        W30440  19.100  42.413  13.459
71345W        W30441  26.066  15.819  10.943
71346W        W30442  20.140  31.079   3.636
71347W        W30443  43.794  23.702   2.318
71348W        W30444  15.675   1.239  12.022
71349W        W30445  20.591  40.896   4.680
71350W        W30446  21.093  39.933   3.699
71351W        W30447  30.110  31.966   3.293
71352W        W30448  39.981  32.967   2.412
71353W        W30449  24.228  39.029   0.964
71354W        W30450  23.019  31.993  11.501
71355W        W30451   1.414  14.805   3.243
71356W        W30452   3.257   4.398   1.357
71357W        W30453  22.708  32.440  12.977
71358W        W30454   8.790  23.496  14.470
71359W        W30455  38.368   8.860   0.274
71360W        W30456  39.863  42.981   2.824
71361W        W30457  29.106  29.508  13.955
71362W        W30458  34.972  20.703   2.402
71363W        W30459   0.358   5.742   3.374
71364W        W30460  12.296  35.507  13.945
71365W        W30461  43.798  25.974   2.814
71366W        W30462  33.452   1.331  12.363
71367W        W30463  43.306  14.305  11.535
71368W        W30464  13.188  29.055   0.423
71369W        W30465  23.625   6.252  12.345
71370W        W30466   0.809  10.824  14.463
71371W        W30467   8.251  22.522  12.413
71372W        W30468   1.444  38.525  10.555
71373W        W30469  20.271  24.182   0.736
71374W        W30470  33.084   1.799  11.579
71375W        W30471  28.021  10.845   2.302
71376W        W30472   0.804  23.074   0.765
71377W        W30473  36.378  27.006  10.015
71378W        W30474  36.351  13.619   0.818
71379W        W30475  20.104  15.669  12.969
71380W        W30476  19.733  16.768   1.845
71381W        W30477  26.187   4.775   0.336
71382W        W30478  18.665  33.561  13.062
71383W        W30479   3.406  23.169  12.066
71384W        W30480  43.979   8.320   4.282
71385W        W30481  27.686  37.343  10.502
71386W        W30482  28.613  15.103   0.911
71387W        W30483   6.849   1.307   4.116
71388W        W30484   2.881   8.378  13.354
71389W        W30485  12.268   3.803   4.139
71390W        W30486   1.883  41.982   4.684
71391W        W30487  28.111  38.358   4.240
71392W        W30488  35.413   2.962  12.436
71393W        W30489  29.918   0.491  11.391
71394W        W30490   8.764  37.846   1.359
71395W        W30491  29.072  28.480   1.356
71396W        W30492  13.193  37.885   1.833
71397W        W30493  34.510  21.192   2.281
71398W        W30494  15.786  44.463  13.365
71399W        W30495   5.244  12.792   1.310
71400W        W30496  17.206  30.921   1.728
71401W        W30497  27.151  39.315  13.058
71402W        W30498  27.509  10.873   2.679
71403W        W30499  31.021  35.043   1.697
71404W        W30500  38.388  34.082  12.009
71405W        W30501   9.345  14.264  13.523
71406W        W30502  21.083  19.074   2.354
71407W        W30503  24.589  21.206   1.388
71408W        W30504   5.274  38.334   0.312
71409W        W30505  22.194  36.477   3.868
71410W        W30506  17.751  42.505   1.409
71411W        W30507  16.617  36.568   1.895
71412W        W30508  40.813  12.645   1.443
71413W        W30509  28.174  17.259   4.212
71414W        W30510  17.798  15.176  13.054
71415W        W30511   3.422  44.307  13.384
71416W        W30512   5.409  40.407   2.799
71417W        W30513  13.646  36.084   0.941
71418W        W30514  36.370  30.036  14.334
71419W        W30515  29.532  37.000   0.278
71420W        W30516  27.604  22.139   1.725
71421W        W30517  28.677  36.088   9.494
71422W        W30518  21.675  16.722   4.350
71423W        W30519   3.737  35.052   3.178
71424W        W30520  39.992  10.844   3.232
71425W        W30521  12.713   7.327  14.306
71426W        W30522  11.837  22.203  13.414
71427W        W30523   6.712  27.465   4.141
71428W        W30524  25.522  21.577   4.747
71429W        W30525   2.450  41.999  12.873
71430W        W30526  14.157   6.772  12.393
71431W        W30527  18.102  21.681   3.349
71432W        W30528  43.335  42.944  13.419
71433W        W30529  29.487   7.834   3.379
71434W        W30530  30.473   4.745  11.506
71435W        W30531  39.325  11.215  11.591
71436W        W30532  36.886  25.681   1.260
71437W        W30533  35.971  33.464  14.858
71438W        W30534  26.478   3.254   5.118
71439W        W30535  38.013   0.980   4.228
71440W        W30536  33.095   4.231  13.980
71441W        W30537   5.434  20.154  12.860
71442W        W30538  10.231   4.739   1.704
71443W        W30539   8.816   2.863   4.267
71444W        W30540   0.269  15.133   1.353
71445W        W30541  40.931  30.482  11.922
71446W        W30542  36.844  38.566  12.957
71447W        W30543  27.941  22.551   3.374
71448W        W30544  32.588   5.775  14.002
71449W        W30545  24.112   8.242  11.945
71450W        W30546  42.485  30.484   3.321
71451W        W30547  38.561  41.849  12.496
71452W        W30548  41.334  44.322   3.322
71453W        W30549  39.852  33.036  12.471
71454W        W30550  18.196  25.131  12.918
71455W        W30551   8.659  43.459   2.185
71456W        W30552  35.981  23.997   4.830
71457W        W30553  16.270  19.173   0.882
71458W        W30554   1.861  16.734  11.878
71459W        W30555  29.051  15.183  11.463
71460W        W30556   2.944  10.376  12.510
71461W        W30557  40.410   6.203   1.240
71462W        W30558  39.366   0.776  11.527
71463W        W30559  22.679  36.079   1.787
71464W        W30560   9.803  17.234   4.831
71465W        W30561  19.578  37.978  10.906
71466W        W30562  22.117   3.420   4.151
71467W        W30563  27.511   9.210   0.812
71468W        W30564   3.887  31.141   1.425
71469W        W30565  23.076  43.468   1.374
71470W        W30566  11.192   8.362  12.955
71471W        W30567  15.114  28.961   0.388
71472W        W30568  28.005   6.775   2.894
71473W        W30569  13.258  37.857  14.948
71474W        W30570  18.228  35.437  13.958
71475W        W30571  35.384  23.203  14.502
71476W        W30572  13.685  37.382   1.241
71477W        W30573  36.892  35.854   4.233
71478W        W30574  32.913  35.487  14.991
71479W        W30575   1.280  16.798  14.464
71480W        W30576   9.766  26.079   5.677
71481W        W30577  31.006  22.111   0.935
71482W        W30578  21.577   6.274  14.908
71483W        W30579  25.655  14.803  12.941
71484W        W30580  40.885   1.791   3.764
71485W        W30581  18.741  43.422   4.249
71486W        W30582   2.375  19.717   9.987
71487W        W30583  34.613   5.754   2.237
71488W        W30584  21.709   9.726   1.697
71489W        W30585  29.482  23.629  12.014
71490W        W30586  41.435   6.227   1.229
71491W        W30587  19.549   6.280  12.388
71492W        W30588   8.832  29.036   4.782
71493W        W30589  23.553  40.492  11.959
71494W        W30590  28.055   3.799  14.426
71495W        W30591  36.362  39.950   4.211
71496W        W30592  25.983  30.992  14.933
71497W        W30593  22.102  36.047   3.254
71498W        W30594  16.793   1.963   4.278
71499W        W30595   9.223  10.719  11.602
71500W        W30596  38.072   7.701   3.770
71501W        W30597  44.978  37.933  14.026
71502W        W30598  14.672   9.320   2.727
71503W        W30599   6.402   6.214  10.046
71504W        W30600  13.347  15.316   0.809
71505W        W30601  35.924  13.651  14.987
71506W        W30602   4.428  17.720   0.474
71507W        W30603  28.639  28.042   0.425
71508W        W30604  36.365  38.341  14.460
71509W        W30605  39.412  34.378  11.855
71510W        W30606  20.602  35.869  14.415
71511W        W30607  36.472   3.283   4.727
71512W        W30608   6.873   0.252   4.639
71513W        W30609  10.735  30.513   1.395
71514W        W30610  32.077  39.847  12.544
71515W        W30611  33.001  43.902   0.736
71516W        W30612   7.807   1.894   1.301
71517W        W30613  42.839  30.983   3.666
71518W        W30614   7.404  13.837  10.896
71519W        W30615  31.517  32.606   1.381
71520W        W30616   2.797  32.408   1.736
71521W        W30617  12.736  38.858  14.788
71522W        W30618   6.832  35.590  13.462
71523W        W30619  38.491  30.120  13.495
71524W        W30620  42.952  21.589   0.468
71525W        W30621   4.786  22.504  12.413
71526W        W30622  27.163  42.418  14.304
71527W        W30623  42.018   4.825  14.825
71528W        W30624  41.463  11.332  12.943
71529W        W30625  43.798  14.302  12.042
71530W        W30626  36.536  32.986  10.558
71531W        W30627  20.739  39.549   0.341
71532W        W30628  24.648  18.200   2.263
71533W        W30629   1.932   5.226  13.499
71534W        W30630  39.547  26.552  14.383
71535W        W30631  37.876   6.727   0.880
71536W        W30632  19.278  15.745  10.985
71537W        W30633  12.161  13.343   4.727
71538W        W30634  33.386   2.370   3.251
71539W        W30635   6.285  35.398   0.742
71540W        W30636  42.867  39.905  10.029
71541W        W30637  31.533  29.551  13.506
71542W        W30638   8.666   7.799   1.212
71543W        W30639   6.274  44.780  12.563
71544W        W30640  37.919  17.715  12.073
71545W        W30641   9.717   0.905   0.814
71546W        W30642  38.852  24.072  13.307
71547W        W30643  11.788  13.147   1.859
71548W        W30644  31.000  12.838   2.267
71549W        W30645  26.186   1.828   0.930
71550W        W30646  18.248  37.515  13.413
71551W        W30647  14.148   4.945  10.438
71552W        W30648  37.850  30.066  13.435
71553W        W30649   7.675  40.495   2.886
71554W        W30650  20.588  25.576  13.984
71555W        W30651  18.773  28.483   2.383
71556W        W30652  34.397  36.055  11.984
71557W        W30653  36.376  22.716   3.804
71558W        W30654  40.049  11.157  12.432
71559W        W30655  22.560   8.163  10.494
71560W        W30656   3.715  42.929  11.913
71561W        W30657  27.448  16.132   0.481
71562W        W30658   7.721  28.469  13.922
71563W        W30659  25.167  15.585   1.266
71564W        W30660  23.536  19.087   3.205
71565W        W30661  40.324  22.211   4.601
71566W        W30662  14.250  13.649  12.339
71567W        W30663   0.921   2.294   0.774
71568W        W30664  22.074  43.427   1.716
71569W        W30665  33.028  29.083   1.238
71570W        W30666  14.692  20.528  14.818
71571W        W30667  12.181  24.702  13.915
71572W        W30668  40.372  20.560  11.418
71573W        W30669  17.563  36.508   3.250
71574W        W30670  25.140  42.912   2.192
71575W        W30671  36.413  16.754  10.449
71576W        W30672  18.077  13.632   1.903
71577W        W30673  41.508  44.458   2.717
71578W        W30674   9.230  40.986   2.774
71579W        W30675  31.455  43.893  14.960
71580W        W30676  10.750  38.514  13.958
71581W        W30677  30.150  20.092   1.232
71582W        W30678  32.088  42.950   1.419
71583W        W30679  34.972  22.511   1.737
71584W        W30680  22.538   5.344   3.179
71585W        W30681  11.710  12.837   1.391
71586W        W30682  25.603  19.701   3.252
71587W        W30683  31.605  34.390   4.225
71588W        W30684   9.691  28.679   1.835
71589W        W30685  36.365  42.016   1.364
71590W        W30686  40.962   7.355  13.870
71591W        W30687  28.979  16.288  11.602
71592W        W30688  44.374   4.345  10.001
71593W        W30689  14.227  34.428  12.024
71594W        W30690   1.865  16.135   0.869
71595W        W30691  12.771  40.538  12.941
71596W        W30692   6.886  37.054   0.816
71597W        W30693  40.939  10.708   5.739
71598W        W30694  41.886  15.299   0.464
71599W        W30695  35.373  20.662   2.364
71600W        W30696  29.438  32.073  13.453
71601W        W30697  20.578  34.984  11.886
71602W        W30698  38.983  14.231  13.948
71603W        W30699  23.199  28.593   2.202
71604W        W30700   3.841  36.033  10.466
71605W        W30701   4.288  39.065   2.195
71606W        W30702  34.876  19.063  13.930
71607W        W30703  26.526  16.579  10.990
71608W        W30704   5.719   0.831  14.912
71609W        W30705   3.847  34.395   1.352
71610W        W30706  26.198   2.911  14.942
71611W        W30707   2.756  14.159  14.030
71612W        W30708  21.196  19.622   4.288
71613W        W30709  37.395  30.631   0.263
71614W        W30710  22.125  14.823  12.934
71615W        W30711   3.850  40.899  12.839
71616W        W30712  13.159  30.421  10.001
71617W        W30713  16.312  11.646   3.746
71618W        W30714  11.191  30.566  14.383
71619W        W30715  13.255  25.158  11.950
71620W        W30716  35.031  16.260   3.179
71621W        W30717   0.879  22.157   1.698
71622W        W30718  15.237   8.392   0.802
71623W        W30719  19.635  37.932  11.878
71624W        W30720  32.573   4.233   1.697
71625W        W30721  30.477  22.650  13.018
71626W        W30722  23.037  37.924  11.860
71627W        W30723  33.452   7.720   3.662
71628W        W30724  42.875  31.932   1.925
71629W        W30725  41.007  21.693  13.874
71630W        W30726   7.334   5.727   0.431
71631W        W30727  13.110  44.372  10.036
71632W        W30728  19.541   3.916   3.352
71633W        W30729  38.903  44.816   1.428
71634W        W30730  28.437   8.260   2.821
71635W        W30731  38.898   6.348  10.412
71636W        W30732  17.187  29.099   1.255
71637W        W30733  41.387  36.988  11.533
71638W        W30734   4.290  32.907   0.928
71639W        W30735  41.475  11.748   5.194
71640W        W30736  20.126   6.906   2.319
71641W        W30737  11.368  19.672   2.832
71642W        W30738   9.380  12.695   3.343
71643W        W30739   0.258  35.593   0.885
71644W        W30740  36.899  42.805   1.783
71645W        W30741   0.902  31.421   2.829
71646W        W30742  12.216  30.937   3.184
71647W        W30743  16.756  24.062  13.339
71648W        W30744   6.428   4.311  14.878
71649W        W30745  42.410  41.816  14.848
71650W        W30746   2.728  31.026   1.861
71651W        W30747  15.818  43.835   4.773
71652W        W30748  30.078  24.003   2.872
71653W        W30749  10.799  37.954   3.853
71654W        W30750  20.141  25.686  13.841
71655W        W30751  43.985  40.868   3.296
71656W        W30752  21.194   7.348   1.732
71657W        W30753  20.058  26.045   0.304
71658W        W30754  11.762  12.152  13.845
71659W        W30755  28.983  18.107   0.434
71660W        W30756  40.376   3.809   4.791
71661W        W30757  27.954   7.272  12.882
71662W        W30758  37.846  22.014  12.935
71663W        W30759  42.399  27.059  14.465
71664W        W30760  12.788  18.130  13.482
71665W        W30761  44.365  32.055   4.817
71666W        W30762  29.173  25.974  12.972
71667W        W30763  24.023  26.195  13.044
71668W        W30764  27.610  23.558   0.358
71669W        W30765   7.772  15.169  14.906
71670W        W30766   6.352  14.124   0.283
71671W        W30767  35.951  20.581   0.731
71672W        W30768   9.798  16.690   2.249
71673W        W30769  32.611  28.595   3.757
71674W        W30770   4.729   4.803   5.087
71675W        W30771  40.974  16.195  14.305
71676W        W30772  35.540  31.004   3.814
71677W        W30773  42.966   4.300   1.296
71678W        W30774  16.160  24.156  13.516
71679W        W30775  31.055  33.591  11.889
71680W        W30776  30.625  26.148  13.000
71681W        W30777  16.578  38.370   3.802
71682W        W30778  29.124  13.626   3.162
71683W        W30779  12.202  39.557   0.282
71684W        W30780   9.853  18.122  11.470
71685W        W30781  31.899  44.360   1.849
71686W        W30782  33.883  24.652   0.789
71687W        W30783  19.765  21.085   2.748
71688W        W30784  20.224   0.340  11.556
71689W        W30785  36.421  26.137   0.915
71690W        W30786   6.403  25.481   1.718
71691W        W30787  27.151  31.003  11.454
71692W        W30788  19.224  24.638  13.326
71693W        W30789  43.989  34.055  11.124
71694W        W30790  40.454  14.328   4.652
71695W        W30791  31.003  41.915   4.153
71696W        W30792   6.766  27.457   3.250
71697W        W30793  34.502  36.416   3.338
71698W        W30794  19.629  19.757  12.974
71699W        W30795   0.336  34.111  11.892
71700W        W30796  30.943  27.029   3.202
71701W        W30797  36.953   8.306  13.853
71702W        W30798  17.258  32.392   3.147
71703W        W30799   1.926   4.876  11.970
71704W        W30800  24.574  38.460  12.453
71705W        W30801  19.259  44.779  11.923
71706W        W30802  14.102  32.982  12.029
71707W        W30803  27.682  31.986   0.734
71708W        W30804  13.604  26.008   2.901
71709W        W30805  42.378  13.306  14.438
71710W        W30806   8.290  40.969  13.905
71711W        W30807  31.927  38.409   1.822
71712W        W30808   1.780  32.582  10.439
71713W        W30809  29.994   6.824  12.089
71714W        W30810   0.267  40.043   1.234
71715W        W30811   2.766  30.615   1.844
71716W        W30812  10.696  22.674   0.275
71717W        W30813  38.329  12.702   3.344
71718W        W30814  39.834  14.207   0.848
71719W        W30815   6.319   0.781  13.420
71720W        W30816  23.136  33.057   0.374
71721W        W30817  37.842  33.526   4.714
71722W        W30818  40.473  34.446  14.952
71723W        W30819   3.344  23.111  13.342
71724W        W30820  23.703  41.866   1.835
71725W        W30821  36.931  39.462   4.626
71726W        W30822  41.346  25.662   4.740
71727W        W30823  38.494  33.425   3.773
71728W        W30824   8.891  18.065   2.305
71729W        W30825   1.404  20.750  13.972
71730W        W30826  42.516  41.015  10.580
71731W        W30827   0.382  38.924   3.264
71732W        W30828   4.833   5.376   2.866
71733W        W30829  27.478  23.240   4.791
71734W        W30830  38.980  21.732   1.935
71735W        W30831   7.760   6.681   4.187
71736W        W30832  26.673  16.165   1.447
71737W        W30833  31.561  36.439   3.372
71738W        W30834  11.845  25.648   4.730
71739W        W30835  32.565  22.195   2.402
71740W        W30836  41.005  23.511  13.321
71741W        W30837  14.116  29.996   3.280
71742W        W30838  30.607  38.405   2.403
71743W        W30839  17.153  29.631   1.856
71744W        W30840   0.892   3.295  11.127
71745W        W30841   4.204   0.339  12.575
71746W        W30842  37.387  31.904   9.969
71747W        W30843   2.323  12.657   4.152
71748W        W30844  11.646   1.442   0.750
71749W        W30845  16.132  25.506   4.211
71750W        W30846  33.505  33.123  10.143
71751W        W30847  20.702   7.182   1.831
71752W        W30848  13.767   9.647   0.375
71753W        W30849  29.451  25.979   0.458
71754W        W30850  32.980  26.644  10.974
71755W        W30851  15.774  44.328  14.403
71756W        W30852  14.681  27.966   0.428
71757W        W30853  33.462  23.134   2.201
71758W        W30854  30.110  36.493  14.946
71759W        W30855  42.453  16.743   3.811
71760W        W30856  36.466  31.495  11.545
71761W        W30857  39.442   7.378  13.308
71762W        W30858  26.956  12.663  10.547
71763W        W30859  28.000  16.099   0.431
71764W        W30860  13.688  32.603   2.353
71765W        W30861   4.894  11.697   4.812
71766W        W30862   3.880  32.432   4.805
71767W        W30863  36.386  20.139  12.567
71768W        W30864   1.782  18.759  10.411
71769W        W30865  43.437  18.289   0.260
71770W        W30866  18.151  33.489   4.352
71771W        W30867  30.530  44.789   2.856
71772W        W30868  22.173  10.151   2.300
71773W        W30869  42.811  29.080   0.771
71774W        W30870  34.869  23.611  12.573
71775W        W30871   7.877  18.051  11.590
71776W        W30872  40.917  27.470  14.976
71777W        W30873   2.367  20.727   1.903
71778W        W30874   0.390  23.579   2.879
71779W        W30875  24.088   8.160   4.259
71780W        W30876   0.959   8.854   1.814
71781W        W30877  38.387  21.718  11.990
71782W        W30878  37.399  25.680   2.756
71783W        W30879   0.916  37.000   1.781
71784W        W30880  23.160   3.323   1.834
71785W        W30881   0.344  18.756   4.605
71786W        W30882  24.070  44.393   4.258
71787W        W30883  39.945  44.956   1.309
71788W        W30884   3.758  37.423  10.946
71789W        W30885  20.120  40.940   2.224
71790W        W30886  20.239  20.086  10.446
71791W        W30887  40.938   4.806  12.041
71792W        W30888   1.961  28.177  13.928
71793W        W30889  38.355  14.216   2.325
71794W        W30890  31.066  28.650   4.344
71795W        W30891  44.286  27.973   4.744
71796W        W30892   1.819  13.680  13.825
71797W        W30893  42.020  30.503   4.753
71798W        W30894  24.531  38.414  11.570
71799W        W30895  42.935   3.760  12.006
71800W        W30896  11.371  42.510  13.311
71801W        W30897  22.629   7.881  11.985
71802W        W30898  23.638  41.432   3.807
71803W        W30899  43.500  31.066  12.086
71804W        W30900   6.359  27.479  10.888
71805W        W30901   9.317  39.050  10.437
71806W        W30902  25.997  40.981  11.425
71807W        W30903  28.558  33.121  12.463
71808W        W30904  34.469  22.559  12.439
71809W        W30905   0.403  12.623   2.780
71810W        W30906  40.841  20.161  12.891
71811W        W30907  38.017  14.792   1.286
71812W        W30908  19.196  41.301  14.278
71813W        W30909  35.938  30.078   4.247
71814W        W30910  37.063   8.858   3.342
71815W        W30911   0.927  26.524   3.774
71816W        W30912  13.783  39.996  11.904
71817W        W30913  29.145  38.345   1.775
71818W        W30914   3.421   5.861  14.024
71819W        W30915  26.619   3.796   0.787
71820W        W30916  30.022  40.812  12.082
71821W        W30917  36.011   1.418   1.780
71822W        W30918   5.395   3.261   0.966
71823W        W30919  14.270  32.902  13.064
71824W        W30920   7.733  42.971   1.253
71825W        W30921  15.220  41.385   3.288
71826W        W30922  42.323  36.925  12.069
71827W        W30923  12.293  22.194  11.476
71828W        W30924  17.136  26.560   4.703
71829W        W30925  43.944   0.326  12.542
71830W        W30926  27.129  14.212   2.781
71831W        W30927  25.123   2.267   4.293
71832W        W30928  15.315  14.303   0.782
71833W        W30929   1.362  42.997  10.493
71834W        W30930   6.418  31.434  12.883
71835W        W30931  41.976  30.597   0.347
71836W        W30932  31.943  22.670  13.855
71837W        W30933   6.838  16.187  13.913
71838W        W30934  11.849   2.471   4.218
71839W        W30935  13.254  42.447  11.552
71840W        W30936  22.679  26.645  10.607
71841W        W30937  39.445  39.547   0.854
71842W        W30938  27.977  23.186   4.275
71843W        W30939  16.207  40.436  11.520
71844W        W30940  26.181  44.979   2.314
71845W        W30941  40.012  19.244   3.725
71846W        W30942  40.516   0.773  12.478
71847W        W30943   3.236   8.244  10.586
71848W        W30944   4.938  27.671   2.209
71849W        W30945  20.191  17.659  10.604
71850W        W30946  42.023  26.488   2.688
71851W        W30947  27.639  26.603  12.944
71852W        W30948   8.231  20.674   0.454
71853W        W30949  27.657  25.077   2.810
71854W        W30950  30.465  29.538   1.888
71855W        W30951  16.125  11.209   3.368
71856W        W30952  27.671   3.356  11.999
71857W        W30953  17.643   0.832   2.792
71858W        W30954  14.677  44.975   4.764
71859W        W30955  37.482  24.185  13.057
71860W        W30956  34.898  21.148   3.799
71861W        W30957  29.045  26.100  14.932
71862W        W30958  43.001  43.279  12.395
71863W        W30959  42.908   9.756   3.825
71864W        W30960  24.716   3.460  13.381
71865W        W30961  34.895   7.213  14.405
71866W        W30962  33.520  20.240   3.307
71867W        W30963  42.851  41.460   0.859
71868W        W30964  44.950  42.292   4.208
71869W        W30965   0.404  36.555  10.986
71870W        W30966  44.961  38.541   4.726
71871W        W30967   2.860   5.385  11.987
71872W        W30968  24.083  37.963  13.480
71873W        W30969  36.918   2.929  12.956
71874W        W30970  14.326  25.072  12.344
71875W        W30971  30.509  19.719   4.693
71876W        W30972   0.838  12.152  12.407
71877W        W30973   2.953  20.563  11.054
71878W        W30974  20.059  31.982   4.762
71879W        W30975   6.680  17.297  10.487
71880W        W30976  38.512  33.987  13.978
71881W        W30977  41.450  24.986   4.670
71882W        W30978  26.505  44.864   1.696
71883W        W30979  19.573  38.000   4.822
71884W        W30980  27.965  17.682   3.834
71885W        W30981  26.458   3.267  13.026
71886W        W30982  28.580  38.075   4.182
71887W        W30983  31.897   4.827   4.295
71888W        W30984  41.979  40.919  13.539
71889W        W30985   1.776  19.057   1.915
71890W        W30986  35.984  20.131  11.491
71891W        W30987   2.437  35.993   5.198
71892W        W30988  22.687  44.996   3.265
71893W        W30989   6.700  29.486   3.196
71894W        W30990  44.949  41.309  10.453
71895W        W30991  16.297  24.511  12.379
71896W        W30992  16.076  39.853  12.971
71897W        W30993  11.772  22.714  12.899
71898W        W30994   5.877  34.573   2.366
71899W        W30995  28.118   4.829  11.045
71900W        W30996  25.116   9.662   0.913
71901W        W30997  19.199  18.070  12.475
71902W        W30998  12.681  43.372  14.881
71903W        W30999   0.799  39.915  12.342
71904W        W31000   0.876  12.771  12.860
71905W        W31001  44.920   1.825   2.783
71906W        W31002  43.813  16.251  13.988
71907W        W31003  34.898  35.539   1.754
71908W        W31004   8.896  11.749  13.518
71909W        W31005  17.095  15.135  13.919
71910W        W31006  29.559  39.519  14.315
71911W        W31007  40.541  21.148  12.418
71912W        W31008  12.259  19.163   0.921
71913W        W31009  24.547  16.208   2.823
71914W        W31010  14.685  19.703  10.149
71915W        W31011  42.353  22.130   3.821
71916W        W31012  31.460   7.808   4.128
71917W        W31013  37.578  22.679  14.879
71918W        W31014  29.558  15.263   3.325
71919W        W31015  14.822   1.313   1.748
71920W        W31016  35.595  33.519  11.563
71921W        W31017  40.520  39.436   3.837
71922W        W31018  29.127  40.889  11.007
71923W        W31019  12.725  12.846  13.824
71924W        W31020  44.280   7.681   1.769
71925W        W31021   3.297  26.469   4.130
71926W        W31022  25.043  15.288   1.450
71927W        W31023  12.781   3.923   0.967
71928W        W31024  41.400  32.419   2.791
71929W        W31025   0.758  23.109  14.960
71930W        W31026  20.096  32.493   2.308
71931W        W31027  41.961  17.652  11.104
71932W        W31028  34.970   0.980  12.570
71933W        W31029  35.552  26.984   1.341
71934W        W31030   9.242  15.678  13.967
71935W        W31031  37.345  33.615   0.385
71936W        W31032  25.172  20.154  13.905
71937W        W31033  27.112  21.183  13.530
71938W        W31034  24.696  26.055   2.799
71939W        W31035   2.288  35.992  11.094
71940W        W31036  20.200  29.920   3.371
71941W        W31037  32.111  41.534   4.287
71942W        W31038  37.919   9.322   5.310
71943W        W31039   5.774  20.674   3.170
71944W        W31040  20.059  36.568   1.900
71945W        W31041  30.047   2.438  14.898
71946W        W31042   6.305  37.541   1.237
71947W        W31043  41.790   8.669   4.647
71948W        W31044  36.429  42.831  11.958
71949W        W31045  42.370  41.974   2.776
71950W        W31046  20.638   3.899  10.920
71951W        W31047  37.058  21.136  11.948
71952W        W31048  11.289  19.275   5.093
71953W        W31049  17.695  20.117  14.317
71954W        W31050  25.661  12.814   1.407
71955W        W31051  39.518  14.766  14.398
71956W        W31052  37.992   2.844   0.293
71957W        W31053  32.940  16.693   1.714
71958W        W31054  23.500  14.794  13.515
71959W        W31055   2.439   7.350  13.379
71960W        W31056  35.003   7.763   4.136
71961W        W31057  13.184  11.702   5.192
71962W        W31058   7.886  39.970   0.785
71963W        W31059  37.031  22.709  11.935
71964W        W31060  10.140  44.341   3.364
71965W        W31061  43.405  30.452   0.852
71966W        W31062   1.435   1.470  14.327
71967W        W31063   2.402   1.802  10.979
71968W        W31064  37.345   9.226   5.290
71969W        W31065  41.375  12.289  14.513
71970W        W31066  37.531  28.542  10.894
71971W        W31067  13.329  40.545   4.767
71972W        W31068  43.825  36.937  10.557
71973W        W31069  13.665  16.583  12.475
71974W        W31070  25.192  21.561  13.492
71975W        W31071  40.336   7.831   0.366
71976W        W31072  37.354  22.633   2.872
71977W        W31073  13.770  29.566  13.871
71978W        W31074   7.270  35.468   3.309
71979W        W31075  37.033  16.123  13.797
71980W        W31076  15.599  31.637  12.524
71981W        W31077  27.945  40.870  13.440
71982W        W31078  10.165  26.127   1.805
71983W        W31079  13.241  42.381   1.435
71984W        W31080  11.628  23.108   4.705
71985W        W31081  24.626  15.806   2.179
71986W        W31082  34.919  29.647   0.832
71987W        W31083  20.226  20.643   3.802
71988W        W31084  17.169  17.682  13.834
71989W        W31085   2.930  24.086   4.677
71990W        W31086  37.924  21.654   0.767
71991W        W31087   0.899  18.098   4.691
71992W        W31088  12.644  22.118   4.162
71993W        W31089  39.369  24.023  11.061
71994W        W31090  44.894  20.100   3.670
71995W        W31091  31.615  22.009  13.881
71996W        W31092  13.786  42.845   4.826
71997W        W31093  44.824  27.990  11.521
71998W        W31094   2.751  39.955   2.770
71999W        W31095  16.728  33.085  14.003
72000W        W31096  12.719   0.307  10.630
72001W        W31097  11.753  41.805  13.022
72002W        W31098  39.553   3.903   2.255
72003W        W31099   7.673  15.240   1.885
72004W        W31100  30.656  20.182  11.986
72005W        W31101  15.192  12.281  12.904
72006W        W31102  36.079  14.724  11.911
72007W        W31103   1.798  25.014   0.808
72008W        W31104   8.290  14.677  13.433
72009W        W31105  22.125  22.167  14.839
72010W        W31106  16.316   4.939  12.912
72011W        W31107  11.710  33.074  14.032
72012W        W31108  17.794   8.402  12.941
72013W        W31109   4.848   7.876   1.918
72014W        W31110  31.566   5.350  11.514
72015W        W31111  43.774  32.410  13.919
72016W        W31112  33.453  13.689  13.925
72017W        W31113  15.113  15.197   9.595
72018W        W31114   3.326  35.915  11.400
72019W        W31115  33.603  20.614   4.302
72020W        W31116  11.235  21.123  13.346
72021W        W31117  28.643  28.662  10.918
72022W        W31118   2.254  42.464   1.744
72023W        W31119   8.717   3.915   2.254
72024W        W31120  29.449  41.002  11.453
72025W        W31121   8.821   5.711   0.754
72026W        W31122  40.889   5.249   3.188
72027W        W31123  24.192  39.826   2.386
72028W        W31124  25.469  27.012   3.659
72029W        W31125  19.058   7.667  11.057
72030W        W31126   5.342  34.579  10.605
72031W        W31127  26.140  31.071   2.330
72032W        W31128  34.954  21.740  13.030
72033W        W31129  39.360  38.833  10.908
72034W        W31130   1.896  26.467  14.862
72035W        W31131  21.086  33.554  10.085
72036W        W31132  33.380   9.678  10.557
72037W        W31133  10.245  34.905   0.839
72038W        W31134  22.107  26.079  12.496
72039W        W31135  18.200  31.595   0.361
72040W        W31136  38.482  30.986   3.318
72041W        W31137  33.613  14.656  11.490
72042W        W31138   0.248  14.159   4.166
72043W        W31139   3.257  25.614   2.879
72044W        W31140  10.813  31.995   9.573
72045W        W31141  28.063  31.968   0.778
72046W        W31142  38.950  38.023   1.299
72047W        W31143  13.177  17.062  12.382
72048W        W31144  25.650  40.399  12.476
72049W        W31145  15.121  36.376   3.657
72050W        W31146  29.663  20.081  11.981
72051W        W31147   2.462  29.626  10.619
72052W        W31148  39.431   8.891   2.236
72053W        W31149  40.404   9.850  12.436
72054W        W31150  44.382  30.648  11.449
72055W        W31151  34.586   0.889   4.785
72056W        W31152  10.356  20.626   2.733
72057W        W31153   8.283   8.202  11.045
72058W        W31154  35.853  43.398  14.784
72059W        W31155   9.350  36.558   4.648
72060W        W31156  39.916  16.119   2.276
72061W        W31157   5.222  15.801   4.113
72062W        W31158   8.390  23.663  13.981
72063W        W31159  20.646  36.993   0.945
72064W        W31160  19.240  43.326  10.928
72065W        W31161   2.292  30.467   5.322
72066W        W31162  10.835  37.925  10.629
72067W        W31163  33.569  11.801  10.114
72068W        W31164   6.243  36.883  10.427
72069W        W31165  37.378   9.725  14.375
72070W        W31166  10.289  25.649   5.143
72071W        W31167  14.174  34.437  12.486
72072W        W31168  32.582  42.917   4.742
72073W        W31169  26.475  14.266  14.346
72074W        W31170  15.318  10.246  13.991
72075W        W31171  21.159  34.604  11.078
72076W        W31172   2.845  25.991   1.435
72077W        W31173  20.755   6.288  10.495
72078W        W31174  37.454  31.007  13.975
72079W        W31175   8.793   5.843  13.836
72080W        W31176  42.303  23.218   0.395
72081W        W31177  26.611  44.908   4.200
72082W        W31178  12.667   8.791  12.017
72083W        W31179   1.401  37.861   0.330
72084W        W31180  28.045  19.153  13.395
72085W        W31181   5.424  10.673  14.945
72086W        W31182  27.552  41.968  14.471
72087W        W31183  18.664  31.999   5.240
72088W        W31184  27.171  16.680   4.286
72089W        W31185  20.146  33.980  13.370
72090W        W31186  29.552  28.142   0.740
72091W        W31187   0.300  17.635  14.429
72092W        W31188   4.714   0.379   9.960
72093W        W31189  29.536  38.404   4.705
72094W        W31190  11.780  39.975   0.940
72095W        W31191   2.412  34.566   3.798
72096W        W31192  33.508  11.300  14.421
72097W        W31193  15.234  14.334   3.773
72098W        W31194  42.282  27.509   0.324
72099W        W31195  10.139  39.468   2.703
72100W        W31196  31.122  24.210  14.501
72101W        W31197  25.189  22.703  10.897
72102W        W31198  18.791  10.795  12.495
72103W        W31199  10.731  28.972   0.924
72104W        W31200  35.957  21.530   4.668
72105W        W31201   8.290   0.857  14.863
72106W        W31202  41.363  10.175   0.406
72107W        W31203  25.094  42.998  10.630
72108W        W31204  26.112  26.559   0.891
72109W        W31205  23.026   7.302   4.602
72110W        W31206   4.881   7.906   2.360
72111W        W31207   7.709   3.936  11.897
72112W        W31208  19.674  29.053   4.221
72113W        W31209   3.883  10.791  11.608
72114W        W31210  15.124  20.555   4.161
72115W        W31211  28.489  15.285  12.342
72116W        W31212   6.887  30.576  11.018
72117W        W31213   8.273  36.949  13.433
72118W        W31214  17.788  18.063   1.278
72119W        W31215  34.538  14.832   1.423
72120W        W31216  29.099  21.518   2.721
72121W        W31217  18.267   7.381   2.723
72122W        W31218  33.100  39.361   0.840
72123W        W31219  35.374  42.471   0.947
72124W        W31220  28.129  16.769  13.465
72125W        W31221  10.220  36.848   2.779
72126W        W31222  17.733  21.039   1.831
72127W        W31223  10.372  35.904   4.809
72128W        W31224  17.696  31.478   1.315
72129W        W31225  31.408  21.232   2.719
72130W        W31226  40.364  17.589  13.454
72131W        W31227  21.248   5.808   5.595
72132W        W31228  36.854   0.382  12.002
72133W        W31229  17.615  27.982   3.694
72134W        W31230  11.155  31.554   4.795
72135W        W31231   4.338  28.042   3.860
72136W        W31232  33.407  10.263  10.604
72137W        W31233  10.368  38.419  13.898
72138W        W31234  43.940  32.544  14.958
72139W        W31235  34.931  38.892   2.727
72140W        W31236   8.284  17.149   2.189
72141W        W31237  35.534  33.616   1.293
72142W        W31238  17.064  42.295   4.332
72143W        W31239  15.598   1.791   0.948
72144W        W31240  38.474  31.932  11.440
72145W        W31241  10.376  12.180   0.467
72146W        W31242   9.790  28.130  10.054
72147W        W31243  38.827  13.112  13.869
72148W        W31244  10.283  14.317   1.885
72149W        W31245   6.809  38.359  11.973
72150W        W31246   4.388  39.380  13.795
72151W        W31247  28.182  10.211   1.895
72152W        W31248  17.236   9.268  10.588
72153W        W31249   7.349  34.904  10.592
72154W        W31250  35.057  26.158   1.878
72155W        W31251  31.901   9.673  12.928
72156W        W31252  27.009  32.530  12.364
72157W        W31253  10.364   6.852  12.032
72158W        W31254  28.668  18.072   3.630
72159W        W31255   6.248   6.715  10.569
72160W        W31256  25.670  10.824  14.512
72161W        W31257   5.742   7.228  13.543
72162W        W31258  42.779  16.200  11.002
72163W        W31259  23.685  36.499   0.441
72164W        W31260  40.948  29.461  13.049
72165W        W31261   9.662  24.200   3.795
72166W        W31262  30.023  44.951   4.215
72167W        W31263  16.802  44.888  12.535
72168W        W31264  38.068  23.502   2.715
72169W        W31265  30.617  34.977   0.275
72170W        W31266   2.838   9.235  14.803
72171W        W31267   9.650  11.316   1.380
72172W        W31268  18.726  27.052  10.560
72173W        W31269  21.621  39.976  13.891
72174W        W31270   5.713  17.800  13.315
72175W        W31271  40.994   7.733  14.311
72176W        W31272   9.673  39.873  11.043
72177W        W31273  41.875  23.549  14.976
72178W        W31274   6.685  39.922   2.254
72179W        W31275   4.715  12.660   1.284
72180W        W31276   9.710  26.508   1.792
72181W        W31277  38.835   0.832   4.326
72182W        W31278  26.668  15.241   1.273
72183W        W31279  12.792   0.252  13.342
72184W        W31280  15.265  30.440   2.383
72185W        W31281  44.487  13.147  10.152
72186W        W31282  13.170  26.998   0.272
72187W        W31283  31.495   2.863  14.328
72188W        W31284   7.265  43.464  13.925
72189W        W31285   6.676  32.055  14.367
72190W        W31286  36.859  25.595   5.289
72191W        W31287  41.502  25.615   3.224
72192W        W31288  44.373  30.441   0.376
72193W        W31289  34.087  27.181   0.911
72194W        W31290  20.558   5.229   4.654
72195W        W31291   4.868  17.686  14.421
72196W        W31292  28.653  24.593  14.787
72197W        W31293  41.428  26.514  13.457
72198W        W31294   7.225  21.224   3.687
72199W        W31295  32.624  22.163   4.269
72200W        W31296  11.298   3.945   1.932
72201W        W31297  39.325  10.305   0.294
72202W        W31298  28.005  23.012  13.857
72203W        W31299  28.045  37.345  13.401
72204W        W31300  16.744  22.229   0.394
72205W        W31301  17.164  22.099  13.392
72206W        W31302   2.908   9.362   1.319
72207W        W31303  38.421   5.843   2.359
72208W        W31304  11.294   7.272  14.399
72209W        W31305   2.271   0.277   1.287
72210W        W31306  32.585   5.351   4.200
72211W        W31307   5.407  40.940   1.704
72212W        W31308   7.212  15.689  10.590
72213W        W31309  39.530  26.155   4.815
72214W        W31310  22.738  42.331   0.832
72215W        W31311  23.524  24.537   2.833
72216W        W31312  39.381   1.919  14.452
72217W        W31313   5.699  21.212   4.803
72218W        W31314  42.891  42.394   1.320
72219W        W31315  20.715  25.125   0.447
72220W        W31316  39.964  39.921  14.009
72221W        W31317   3.824  41.441   2.779
72222W        W31318  12.723   9.244   1.234
72223W        W31319  31.602  31.042  12.451
72224W        W31320  26.158  29.577   0.773
72225W        W31321  34.985  18.777  11.891
72226W        W31322   7.716  13.699   1.874
72227W        W31323  15.726  40.496  13.974
72228W        W31324  13.167  22.678   3.657
72229W        W31325  27.577  13.660  12.457
72230W        W31326  32.129  39.872  11.590
72231W        W31327   6.182  37.397  14.370
72232W        W31328   3.761  42.028   2.281
72233W        W31329  28.537  35.024  13.877
72234W        W31330   0.294  41.299  13.018
72235W        W31331   3.851  29.033   2.337
72236W        W31332  11.835  43.980   2.871
72237W        W31333  29.449  33.922  13.414
72238W        W31334  30.940   1.366  11.587
72239W        W31335  25.499  30.413   1.333
72240W        W31336  42.401  23.097  13.507
72241W        W31337  23.100  29.029   2.732
72242W        W31338  11.321  40.409   4.792
72243W        W31339  25.499  40.502   2.896
72244W        W31340  39.932  15.594   0.466
72245W        W31341   9.184  13.655  11.541
72246W        W31342  24.692  42.477   1.296
72247W        W31343  14.648  15.807  10.454
72248W        W31344  20.151  29.597  11.481
72249W        W31345  24.178  36.882   1.855
72250W        W31346  26.662  11.332   9.944
72251W        W31347   8.811   6.252   2.671
72252W        W31348   5.327  18.192   4.317
72253W        W31349   8.817  36.052  10.415
72254W        W31350  11.371  25.497   3.841
72255W        W31351   8.808   4.848   0.823
72256W        W31352  28.481  36.433  12.899
72257W        W31353   8.780  30.618   0.863
72258W        W31354   5.778   4.908   2.693
72259W        W31355  30.103   4.247  11.094
72260W        W31356  33.437  27.167  13.335
72261W        W31357  35.108  42.396  14.862
72262W        W31358  42.812  11.863  12.988
72263W        W31359  40.376  11.841  12.499
72264W        W31360  42.498  29.008   0.861
72265W        W31361  43.460  13.647   4.738
72266W        W31362   0.962   5.367   1.255
72267W        W31363  13.132  10.655  11.494
72268W        W31364  36.077  19.178   0.732
72269W        W31365  17.563  35.427   5.712
72270W        W31366  39.880  14.176  13.881
72271W        W31367   3.280   1.243  12.079
72272W        W31368  43.479  23.691  12.047
72273W        W31369  28.554  41.389  12.411
72274W        W31370  26.663   5.388  12.464
72275W        W31371  24.098  13.223   2.758
72276W        W31372  20.059  19.106   3.163
72277W        W31373  30.440  43.368   0.854
72278W        W31374   2.737  30.536   0.413
72279W        W31375  41.849  36.976   2.223
72280W        W31376  16.144  10.157   9.958
72281W        W31377   6.299  42.850   2.741
72282W        W31378  30.502   1.933  11.492
72283W        W31379  11.333  26.074  14.955
72284W        W31380  21.248   5.911   4.712
72285W        W31381   7.753  42.835  14.949
72286W        W31382  25.537  24.044   3.305
72287W        W31383   5.761   7.235   0.352
72288W        W31384   7.790   2.729  13.451
72289W        W31385  12.824  28.589  11.413
72290W        W31386  21.655  25.020   3.153
72291W        W31387   3.837  41.916   4.672
72292W        W31388  28.471   5.741   3.223
72293W        W31389  21.672  11.203   2.883
72294W        W31390  18.116  25.569  13.525
72295W        W31391  37.056  12.787  12.539
72296W        W31392  16.807  31.529  11.938
72297W        W31393  31.616  31.900  14.486
72298W        W31394   2.363   4.906  11.956
72299W        W31395  26.163  14.249  13.516
72300W        W31396  18.772   1.923  14.471
72301W        W31397  21.199   3.316   2.265
72302W        W31398  39.337  34.505  13.007
72303W        W31399  36.418  27.143   1.697
72304W        W31400   9.224  43.430   4.671
72305W        W31401   3.371   7.788  10.534
72306W        W31402  36.351  42.833   2.217
72307W        W31403   0.775  30.156  12.080
72308W        W31404  28.122  23.093   1.840
72309W        W31405  21.172  20.664  13.850
72310W        W31406  13.801  28.159   3.649
72311W        W31407  22.544   7.251  11.447
72312W        W31408   2.801  22.158   0.356
72313W        W31409   8.241  14.104   2.868
72314W        W31410  31.006   9.252   4.816
72315W        W31411  36.854   1.825  12.488
72316W        W31412   1.442  34.868   1.221
72317W        W31413  38.541  43.813  12.854
72318W        W31414  25.493  38.980   2.869
72319W        W31415  28.535  14.163   3.657
72320W        W31416  42.322  15.813  13.354
72321W        W31417  19.642  42.968   0.854
72322W        W31418   4.301   5.274  10.423
72323W        W31419  13.698  40.394   1.302
72324W        W31420  10.262  11.354  11.383
72325W        W31421  42.350  42.895   1.921
72326W        W31422  23.724  12.150   4.333
72327W        W31423   4.303  39.052  14.997
72328W        W31424   0.955  42.837   3.162
72329W        W31425  15.807  44.980   1.365
72330W        W31426  37.519   8.338   0.264
72331W        W31427  24.639  22.141   2.817
72332W        W31428  14.815  22.058  12.083
72333W        W31429  36.085  13.600  11.600
72334W        W31430  39.884  25.580   2.410
72335W        W31431  23.163  16.597  14.332
72336W        W31432  31.134  24.545   2.859
72337W        W31433  35.414  14.267  14.841
72338W        W31434  25.655  44.769   1.313
72339W        W31435  30.084  17.682   0.948
72340W        W31436  14.247  17.589  13.958
72341W        W31437  16.636  18.123   4.808
72342W        W31438  28.569  37.371  13.432
72343W        W31439  18.577  22.501  12.515
72344W        W31440   3.379   4.770  13.007
72345W        W31441   8.900  39.491   3.368
72346W        W31442  31.136  19.269  13.934
72347W        W31443  15.741  14.652  12.527
72348W        W31444  13.665  16.659   5.199
72349W        W31445   2.772   4.795  11.978
72350W        W31446  28.562  10.684   3.162
72351W        W31447  19.076   2.733  14.760
72352W        W31448  18.145   6.215   4.599
72353W        W31449  31.573  10.749   3.252
72354W        W31450  10.156  39.315  13.540
72355W        W31451   4.721   6.740  11.034
72356W        W31452   2.779  43.807   4.303
72357W        W31453  30.028  21.099  12.505
72358W        W31454  15.750  13.759   4.837
72359W        W31455  15.278   7.893   2.883
72360W        W31456  42.907  40.535  10.907
72361W        W31457  25.192   2.789  12.410
72362W        W31458  41.887  39.500  13.521
72363W        W31459  22.033  19.642  10.534
72364W        W31460  38.330   0.908  14.857
72365W        W31461  12.654   2.907  11.110
72366W        W31462  40.339  43.769  12.533
72367W        W31463  16.258   4.215   0.908
72368W        W31464  32.078  18.778  13.008
72369W        W31465   8.809  27.068  12.555
72370W        W31466  37.085  23.060   2.808
72371W        W31467   6.401  19.061  14.374
72372W        W31468  32.953  21.050  11.049
72373W        W31469  30.563  40.308  13.052
72374W        W31470  16.205  44.299  10.515
72375W        W31471  17.696  29.570  13.031
72376W        W31472  25.475  31.026   2.372
72377W        W31473  41.829  43.510  10.526
72378W        W31474   7.257  32.898   1.877
72379W        W31475  14.589  25.611  10.444
72380W        W31476   9.377   5.229  12.974
72381W        W31477  27.033  23.699   0.753
72382W        W31478  38.876  15.606   1.233
72383W        W31479  35.909   6.348  11.578
72384W        W31480  21.111  23.021  10.538
72385W        W31481  20.049  15.136  12.441
72386W        W31482  37.566  18.057   4.614
72387W        W31483  10.792   0.885  12.925
72388W        W31484  40.399  34.992   4.827
72389W        W31485  40.845  29.516   4.626
72390W        W31486  41.872  34.972   1.810
72391W        W31487  36.982  33.095  10.533
72392W        W31488   5.711  20.069   3.690
72393W        W31489   7.807  31.095  14.759
72394W        W31490   5.860  27.163  13.842
72395W        W31491  19.765  30.071  14.911
72396W        W31492  27.001  22.059   1.412
72397W        W31493  26.148  17.099  10.522
72398W        W31494  27.454  16.178   2.696
72399W        W31495  14.809  38.962   4.611
72400W        W31496   1.340  38.361  13.307
72401W        W31497  33.977   3.785   2.865
72402W        W31498  10.773  22.698  10.465
72403W        W31499  19.771  38.971   2.861
72404W        W31500  37.345  23.001  13.984
72405W        W31501  23.990   2.296  11.405
72406W        W31502  36.454  15.656   4.626
72407W        W31503  15.314  13.321   3.170
72408W        W31504  19.548  28.645  10.493
72409W        W31505  34.091  24.725  12.414
72410W        W31506  35.402  36.419   4.647
72411W        W31507   4.445  27.193  11.959
72412W        W31508  26.594  15.184  12.363
72413W        W31509  10.730   0.903  11.903
72414W        W31510  11.683  36.534  14.433
72415W        W31511  30.554   4.388  12.987
72416W        W31512   3.713  27.618   2.182
72417W        W31513  16.700   7.280   2.873
72418W        W31514  35.081  26.140  11.121
72419W        W31515  20.524  44.368  14.857
72420W        W31516  31.427   3.850  12.039
72421W        W31517  22.116  19.606   9.514
72422W        W31518   0.474  20.233   2.819
72423W        W31519  27.469  29.112  13.317
72424W        W31520  39.898   9.684  11.507
72425W        W31521  38.347  31.072  10.943
72426W        W31522  37.518  29.948  12.041
72427W        W31523  12.691   9.682   2.870
72428W        W31524  28.110   4.742  12.057
72429W        W31525   3.369  39.548   1.845
72430W        W31526  15.805  28.184  14.422
72431W        W31527  35.599  32.944   4.624
72432W        W31528  14.663  37.956  11.377
72433W        W31529  23.169  25.511   0.848
72434W        W31530  10.806  28.608   4.280
72435W        W31531  32.915  26.139  12.444
72436W        W31532  35.971  11.354  11.875
72437W        W31533  10.352  22.128  10.625
72438W        W31534  14.689  11.365   4.640
72439W        W31535  38.526  40.357   3.311
72440W        W31536  30.598  12.316   1.322
72441W        W31537  37.345   3.927   3.356
72442W        W31538  34.029  33.440  13.907
72443W        W31539  22.227   8.206  14.341
72444W        W31540  32.505  34.915  10.483
72445W        W31541  39.035   6.819   3.346
72446W        W31542   4.821  42.830  14.908
72447W        W31543  23.027  41.345  10.564
72448W        W31544   8.355   3.287  14.382
72449W        W31545   8.403   5.756  12.384
72450W        W31546   1.919  31.037   2.281
72451W        W31547   6.749  35.413   0.842
72452W        W31548  21.053   5.427   0.351
72453W        W31549  13.609  23.660   4.175
72454W        W31550  43.479  36.365  13.342
72455W        W31551  11.261   2.300   1.379
72456W        W31552   6.355  43.272   4.598
72457W        W31553   7.412   0.781  12.547
72458W        W31554  28.104   0.937   1.263
72459W        W31555   0.444  29.498   4.647
72460W        W31556  11.325  43.770   2.795
72461W        W31557  39.933  18.215  14.451
72462W        W31558   1.918   6.380  13.450
72463W        W31559  14.317  39.337  13.953
72464W        W31560   6.697  29.507   4.292
72465W        W31561  21.738  34.443   4.650
72466W        W31562  20.552   4.754  10.598
72467W        W31563  30.608  25.094  14.838
72468W        W31564  43.931  28.475   1.890
72469W        W31565  34.920  18.559  10.567
72470W        W31566  42.918   1.366   2.279
72471W        W31567  28.515   3.400  11.581
72472W        W31568  43.346  13.351  10.947
72473W        W31569  12.234  23.600   4.627
72474W        W31570  38.858  25.985   1.825
72475W        W31571  36.081  35.398   0.767
72476W        W31572  36.380  27.597  12.575
72477W        W31573   7.225  11.736   4.725
72478W        W31574   9.862  24.171  14.463
72479W        W31575  17.612  11.180  10.916
72480W        W31576  34.612   6.418  13.367
72481W        W31577  12.358  26.032   3.331
72482W        W31578   5.741   2.735   0.261
72483W        W31579   3.421   5.320  13.417
72484W        W31580  12.161  28.557   0.299
72485W        W31581  29.604   2.902  14.805
72486W        W31582  30.006   7.359   4.692
72487W        W31583   3.716   8.755  11.434
72488W        W31584  36.491  23.174  12.569
72489W        W31585  32.986  27.145  13.884
72490W        W31586  30.968  21.030  10.157
72491W        W31587  20.042  42.781   1.309
72492W        W31588  18.182   0.934   4.717
72493W        W31589   4.212  24.096   0.370
72494W        W31590   3.920  30.050  12.050
72495W        W31591   2.311  19.722   1.846
72496W        W31592  30.417  22.068  14.793
72497W        W31593  16.116  30.027  13.924
72498W        W31594  28.997  21.160  14.790
72499W        W31595  35.075  26.084   0.901
72500W        W31596  24.029  34.102  12.894
72501W        W31597  38.927  39.833   2.779
72502W        W31598  25.040   6.351  11.865
72503W        W31599  43.781  44.450   4.289
72504W        W31600   3.911   8.300  12.072
72505W        W31601  42.018   2.778   3.215
72506W        W31602  25.526   8.840  11.018
72507W        W31603  43.289  27.028   2.748
72508W        W31604  26.583   9.228  12.520
72509W        W31605   2.959   1.955   4.292
72510W        W31606  31.079  15.724   1.839
72511W        W31607  40.860  36.482  14.282
72512W        W31608   3.936  19.159   0.370
72513W        W31609  17.135   6.290  10.017
72514W        W31610  36.587  22.077  10.509
72515W        W31611   5.348  40.442  13.936
72516W        W31612  23.176  25.219   3.819
72517W        W31613  27.006  40.997   1.401
72518W        W31614   9.271  24.644   4.353
72519W        W31615  38.545  32.918  13.868
72520W        W31616  24.143   6.209  12.890
72521W        W31617  27.985   0.325   2.411
72522W        W31618  40.044  11.252  11.602
72523W        W31619  37.559  19.683   0.295
72524W        W31620  20.754  16.243   0.409
72525W        W31621  36.034   8.333   3.287
72526W        W31622   7.298  10.194  12.377
72527W        W31623  25.984  35.601   2.216
72528W        W31624  22.617  20.246   2.835
72529W        W31625  10.876   1.917  13.443
72530W        W31626   9.815  37.552  14.472
72531W        W31627  10.229   6.839   0.845
72532W        W31628  12.763  14.787   0.916
72533W        W31629  14.802  43.939  11.524
72534W        W31630   6.338  11.324  13.315
72535W        W31631  12.290  34.880   4.819
72536W        W31632  40.424   0.893   0.316
72537W        W31633  10.372  34.971  13.962
72538W        W31634   5.830  42.451  12.874
72539W        W31635  16.132   8.659  12.951
72540W        W31636  40.891  15.701   4.777
72541W        W31637  40.847  24.083   1.827
72542W        W31638  28.947  32.916   3.154
72543W        W31639  33.480  41.957  10.083
72544W        W31640  26.509  31.573  10.592
72545W        W31641  10.289  19.692   0.868
72546W        W31642  20.112  17.129   0.393
72547W        W31643  20.233  15.089  14.000
72548W        W31644  34.423  37.435  12.004
72549W        W31645  11.299   7.864  10.494
72550W        W31646  42.942  32.100   1.347
72551W        W31647  30.631   0.936  11.057
72552W        W31648   6.237  34.593   4.350
72553W        W31649   1.289  33.132   4.307
72554W        W31650  26.128  42.795   3.868
72555W        W31651   2.775   5.199   0.784
72556W        W31652  26.517  42.937   0.409
72557W        W31653  36.496  17.283  12.498
72558W        W31654  29.939  14.191  14.834
72559W        W31655  23.180  11.693   1.325
72560W        W31656  14.683  37.540   0.757
72561W        W31657  36.898  28.158  11.107
72562W        W31658  20.048  23.676   9.944
72563W        W31659  30.450  22.689   4.823
72564W        W31660  12.737   0.910  11.554
72565W        W31661  25.593  32.059  12.857
72566W        W31662  14.710  18.123  11.558
72567W        W31663   9.243   2.270   2.329
72568W        W31664  20.586  16.706   3.279
72569W        W31665  38.897  28.642  11.909
72570W        W31666  14.195   5.406  13.824
72571W        W31667   8.215  14.227   4.813
72572W        W31668   5.881   3.860  14.427
72573W        W31669  31.540  35.872  13.530
72574W        W31670  19.078  17.584   4.675
72575W        W31671  24.104  42.518  14.981
72576W        W31672   4.893  14.171   2.414
72577W        W31673   6.780   1.383   1.717
72578W        W31674   7.370  29.475  14.502
72579W        W31675   6.242  16.252   4.755
72580W        W31676   9.239  22.159  13.317
72581W        W31677  27.104  25.003  11.043
72582W        W31678   9.259  12.762   4.689
72583W        W31679  34.403  18.196   0.963
72584W        W31680  16.241  32.583  14.416
72585W        W31681  22.559  22.587   4.166
72586W        W31682  28.534  32.634   0.780
72587W        W31683   7.291  39.937   2.740
72588W        W31684   4.218  17.785   4.179
72589W        W31685   0.894  18.775  13.833
72590W        W31686  19.052  41.295  12.453
72591W        W31687  40.402  17.113   0.774
72592W        W31688  39.478  12.833  10.941
72593W        W31689  28.656  10.769   4.208
72594W        W31690  19.081  17.285   1.826
72595W        W31691   1.400   2.424   1.435
72596W        W31692  22.068  34.960  13.320
72597W        W31693   7.300  10.282   9.970
72598W        W31694  20.185  43.967   1.250
72599W        W31695  38.462  22.697  13.391
72600W        W31696  13.755  12.631   2.702
72601W        W31697  23.607  27.668  13.466
72602W        W31698   9.651   2.754  12.954
72603W        W31699  27.947  31.946   4.672
72604W        W31700  18.693   7.798  14.010
72605W        W31701   3.756   1.750  14.840
72606W        W31702  44.380  41.478  10.480
72607W        W31703  19.169  29.103  12.828
72608W        W31704   8.852   1.809  14.824
72609W        W31705   0.935  26.064  13.004
72610W        W31706   4.278  28.038   4.138
72611W        W31707  37.946  18.191   0.299
72612W        W31708  21.629  26.628   1.897
72613W        W31709   2.450  16.198   4.329
72614W        W31710   9.663   1.273   2.719
72615W        W31711  30.644  26.552  14.448
72616W        W31712  37.375  37.890  11.577
72617W        W31713   7.192  27.512  11.096
72618W        W31714   9.693  42.472  13.344
72619W        W31715  37.572  30.954   1.395
72620W        W31716  43.880   6.847   1.835
72621W        W31717  38.025  31.561  12.930
72622W        W31718  29.077  26.651  10.127
72623W        W31719  38.546  44.449   1.397
72624W        W31720  43.274  21.623  13.896
72625W        W31721  40.510  21.685   0.772
72626W        W31722  10.167  31.121  10.082
72627W        W31723  30.477  25.532   0.832
72628W        W31724  40.925  13.265  14.493
72629W        W31725   3.883  18.578   3.686
72630W        W31726   1.748   5.355   2.267
72631W        W31727   8.755   5.217  12.044
72632W        W31728  17.176  23.663   1.854
72633W        W31729  44.321  17.779  14.762
72634W        W31730  26.036  13.144  10.581
72635W        W31731   2.948  23.174  11.558
72636W        W31732  43.380  29.512   3.245
72637W        W31733   3.442  39.992  14.452
72638W        W31734  13.245  42.782   0.769
72639W        W31735   7.706  23.063  14.905
72640W        W31736  10.789  11.307  11.599
72641W        W31737  20.232  28.577   1.761
72642W        W31738  41.989  42.282  13.059
72643W        W31739  40.909  37.999  12.064
72644W        W31740  19.086  28.140   4.347
72645W        W31741   1.270   9.321  11.109
72646W        W31742  31.052   5.267   4.734
72647W        W31743  23.637  32.482  14.408
72648W        W31744  28.600   1.458   2.259
72649W        W31745  14.622  37.558  14.929
72650W        W31746   5.885  28.136   4.309
72651W        W31747   4.384  36.881  12.025
72652W        W31748  18.175  33.626  13.453
72653W        W31749  17.703  22.137   3.815
72654W        W31750  37.426  22.704  12.885
72655W        W31751  25.577   4.913  12.993
72656W        W31752  39.338  31.557   1.300
72657W        W31753  39.465  40.969   2.400
72658W        W31754  11.727  26.177   0.825
72659W        W31755  29.669  44.433  10.085
72660W        W31756   4.272  42.329   3.868
72661W        W31757   9.203   8.734  13.423
72662W        W31758  18.749  22.698   3.375
72663W        W31759  17.802  12.212  11.990
72664W        W31760  32.955  10.371  14.883
72665W        W31761  34.465  38.884   3.741
72666W        W31762  11.794   8.814  13.441
72667W        W31763  35.870  39.348  10.892
72668W        W31764  42.314  40.421   4.205
72669W        W31765  32.994  30.921   0.267
72670W        W31766  33.498  30.490  12.858
72671W        W31767  31.470  39.842  11.050
72672W        W31768  14.253  25.181  14.432
72673W        W31769  22.565  44.999  12.862
72674W        W31770  14.661   7.410  14.472
72675W        W31771   3.387  17.636   0.328
72676W        W31772  31.479   8.254   2.795
72677W        W31773   5.251   3.398   4.809
72678W        W31774  37.438  35.976  14.283
72679W        W31775  14.134  24.481  10.932
72680W        W31776  12.318  18.746   4.192
72681W        W31777  10.659   0.877  11.593
72682W        W31778  17.594  18.135   3.861
72683W        W31779  15.671   5.284  13.516
72684W        W31780  27.057   5.908  13.408
72685W        W31781  21.528  13.109  13.410
72686W        W31782  20.545  31.440   4.207
72687W        W31783  38.501   2.819   3.780
72688W        W31784  32.522  11.220   2.754
72689W        W31785  39.453  11.155  12.466
72690W        W31786  33.466   0.451   3.661
72691W        W31787  13.838  37.011  14.511
72692W        W31788  33.610  39.931   4.812
72693W        W31789   4.708  29.662   3.751
72694W        W31790   5.410  23.992   2.396
72695W        W31791   2.745  14.221   5.117
72696W        W31792   1.275  41.821   4.201
72697W        W31793  40.802  37.082  13.347
72698W        W31794  12.670  17.212   2.778
72699W        W31795  37.516  12.712  14.883
72700W        W31796  34.387  17.072   2.778
72701W        W31797   0.763  39.059  13.480
72702W        W31798  16.201  12.135  12.501
72703W        W31799   2.439   3.448   5.203
72704W        W31800   0.247  26.693   4.712
72705W        W31801  17.600  36.894  11.900
72706W        W31802  10.813  10.332  12.841
72707W        W31803  21.735  17.154   4.146
72708W        W31804  14.654  36.053  14.822
72709W        W31805  29.664  24.175   2.278
72710W        W31806  32.017  26.474  14.821
72711W        W31807  32.081   4.799  12.476
72712W        W31808  13.138  39.514  11.861
72713W        W31809  36.848  37.849  11.455
72714W        W31810  23.526  11.137   0.299
72715W        W31811  29.158  27.108  14.373
72716W        W31812  18.619  22.121  13.854
72717W        W31813   2.825  39.382   3.380
72718W        W31814  40.370   8.824   3.263
72719W        W31815  19.576   1.340  14.513
72720W        W31816  16.127  44.824  12.840
72721W        W31817  26.644  39.971   1.915
72722W        W31818  17.132   0.841   4.695
72723W        W31819  10.348  44.460  14.884
72724W        W31820   1.806   1.246  12.340
72725W        W31821  16.670   8.314  14.895
72726W        W31822   6.245   9.294   1.710
72727W        W31823   3.822   7.847   1.811
72728W        W31824  21.720  32.131   4.656
72729W        W31825   3.269  33.931  10.929
72730W        W31826  11.842  13.673  13.426
72731W        W31827   3.316  40.021   1.764
72732W        W31828  30.463  43.458  14.973
72733W        W31829  18.168   0.875   1.809
72734W        W31830  24.620  14.769  12.421
72735W        W31831  16.738  37.519  10.001
72736W        W31832  14.112  43.287   0.943
72737W        W31833  25.099  22.034   2.408
72738W        W31834  21.127  34.496  14.805
72739W        W31835  40.009  42.491  13.019
72740W        W31836   2.945  20.151  13.892
72741W        W31837  12.354  42.285  12.919
72742W        W31838   8.380  38.478   0.246
72743W        W31839   4.746   3.283  13.930
72744W        W31840  24.119  22.613   3.739
72745W        W31841  38.952  22.239   4.252
72746W        W31842  21.176   8.197  13.473
72747W        W31843   6.266  34.098   4.663
72748W        W31844  39.987  32.957   0.923
72749W        W31845  39.863   5.256  14.948
72750W        W31846  41.037  14.779   4.175
72751W        W31847  39.530   1.372   1.837
72752W        W31848  15.124   5.427   4.791
72753W        W31849  23.636  19.232  13.461
72754W        W31850  14.613   7.722  14.379
72755W        W31851  32.612  39.015  12.341
72756W        W31852   8.831  35.408  11.414
72757W        W31853   5.886  27.038  10.456
72758W        W31854  18.727   8.185   0.897
72759W        W31855  16.303  43.369  14.973
72760W        W31856  42.926   5.870  11.569
72761W        W31857  43.871  42.482  11.555
72762W        W31858  39.841  12.288  14.957
72763W        W31859  20.267  18.129   3.800
72764W        W31860   5.361  10.238  14.456
72765W        W31861  23.129  31.519   2.307
72766W        W31862  14.700  17.599   4.625
72767W        W31863  25.627  28.632   2.399
72768W        W31864  31.896  18.772   4.223
72769W        W31865  38.923  19.184  12.995
72770W        W31866   5.694   2.247  12.961
72771W        W31867  33.035  27.100  10.632
72772W        W31868   4.765  28.629   5.315
72773W        W31869  36.083  22.608  11.930
72774W        W31870  38.905  17.165   2.392
72775W        W31871  28.501  18.174   1.301
72776W        W31872  21.148   4.361  10.965
72777W        W31873  19.199   1.817   0.312
72778W        W31874  19.047   4.272   2.324
72779W        W31875  39.941  23.670   0.304
72780W        W31876  13.628  20.618   0.341
72781W        W31877  39.967   8.298   3.304
72782W        W31878  39.936  32.511  11.113
72783W        W31879  35.902  37.025  13.887
72784W        W31880  29.556  23.719   5.639
72785W        W31881  25.013  43.439   5.207
72786W        W31882  17.727  17.275   1.223
72787W        W31883   4.753  25.196   2.402
72788W        W31884  14.320   3.806   1.342
72789W        W31885  33.419  35.368  11.100
72790W        W31886   9.171  19.572   5.253
72791W        W31887  24.124  42.334  11.965
72792W        W31888  26.541   2.324   0.328
72793W        W31889  20.233  42.511   4.120
72794W        W31890   5.197   5.208   0.817
72795W        W31891  21.192  34.537  10.558
72796W        W31892   1.905  18.569   3.639
72797W        W31893  44.456  17.669   4.803
72798W        W31894   4.263  30.590  11.856
72799W        W31895  17.760   9.798  12.033
72800W        W31896   8.339   9.340  13.930
72801W        W31897  40.022  14.167   0.326
72802W        W31898  12.177   2.245   1.901
72803W        W31899  42.860   9.150   3.316
72804W        W31900  36.967  33.508   4.242
72805W        W31901  24.613  21.706  12.410
72806W        W31902  34.396  11.653  13.921
72807W        W31903  33.462  34.070   4.739
72808W        W31904  15.235  13.185   1.278
72809W        W31905   7.900  13.630  11.867
72810W        W31906  18.739  33.588  14.348
72811W        W31907   8.690  11.344   3.760
72812W        W31908  19.544  20.565   4.350
72813W        W31909  29.526  28.498  12.078
72814W        W31910   6.264  16.240   3.331
72815W        W31911  15.124  16.106   2.231
72816W        W31912  16.250  11.748  10.019
72817W        W31913  20.053  24.003   1.417
72818W        W31914  16.773  42.484   1.430
72819W        W31915  34.582  25.669   0.362
72820W        W31916  10.780  31.066  13.911
72821W        W31917  17.602  38.978  14.876
72822W        W31918  18.279   1.879  13.541
72823W        W31919  32.925  34.021  11.413
72824W        W31920   1.406   8.773  14.438
72825W        W31921  34.612   0.859   2.207
72826W        W31922  10.153  16.180   2.673
72827W        W31923  20.245  15.698   3.778
72828W        W31924  15.737  38.031  12.083
72829W        W31925   3.906  23.161  14.795
72830W        W31926   9.214  39.534  11.987
72831W        W31927  39.508   6.339  14.481
72832W        W31928  37.904  34.390   0.923
72833W        W31929  39.485  20.077  13.048
72834W        W31930  28.949  37.413   1.383
72835W        W31931   0.484  29.448  13.414
72836W        W31932  28.160   1.864  14.832
72837W        W31933   0.747  32.941   1.841
72838W        W31934  32.397  33.577  10.901
72839W        W31935  42.850  35.526  12.345
72840W        W31936  21.733  44.843  12.511
72841W        W31937  23.728   2.743  11.860
72842W        W31938  34.425  38.473  10.644
72843W        W31939  31.506  10.284  12.085
72844W        W31940  41.940  20.674   0.941
72845W        W31941  44.500  33.552  11.493
72846W        W31942  28.022   8.735  10.430
72847W        W31943  38.945  12.616  13.434
72848W        W31944   7.781  20.073  14.945
72849W        W31945  23.170  20.252   2.802
72850W        W31946  22.656  18.124  13.385
72851W        W31947   4.840  14.324  12.537
72852W        W31948  43.443  13.324   2.340
72853W        W31949  31.452  24.517   2.661
72854W        W31950  32.529   1.818  14.777
72855W        W31951  12.360   8.399   2.280
72856W        W31952  38.366  33.961  14.822
72857W        W31953  15.295  36.452  13.525
72858W        W31954  18.755  12.255   0.728
72859W        W31955  10.333  22.740  11.938
72860W        W31956  29.550   5.203  12.430
72861W        W31957  43.921  43.448   3.242
72862W        W31958  25.495   3.276  14.318
72863W        W31959  36.359   8.378  12.857
72864W        W31960  14.828  30.096  14.364
72865W        W31961  33.067  15.169  14.911
72866W        W31962  23.196  33.103   1.830
72867W        W31963  25.035   7.299   1.744
72868W        W31964  11.330  12.159   1.767
72869W        W31965  18.641  26.596  13.417
72870W        W31966  32.399  29.560  10.135
72871W        W31967  15.321  11.858  14.779
72872W        W31968   7.362  19.743  10.488
72873W        W31969  38.030  42.372  14.019
72874W        W31970  24.037  44.313   5.192
72875W        W31971   1.299  26.506   2.868
72876W        W31972  11.136  15.701   4.820
72877W        W31973   0.395  16.287  11.552
72878W        W31974  33.927  17.687  14.281
72879W        W31975  11.221  20.082   0.861
72880W        W31976  10.245  26.000   1.418
72881W        W31977   3.302  33.060  10.099
72882W        W31978  12.641   3.446   5.088
72883W        W31979  44.350  26.173   2.721
72884W        W31980  40.976  42.993   1.233
72885W        W31981  18.767  37.449   2.795
72886W        W31982  28.963   9.745   2.342
72887W        W31983  42.872  13.771  10.964
72888W        W31984   5.287  29.063  10.621
72889W        W31985  21.670  25.198  13.531
72890W        W31986  16.267  29.930  12.001
72891W        W31987  26.622   7.236   2.395
72892W        W31988  29.034  10.827   0.471
72893W        W31989  15.761  38.008   1.865
72894W        W31990   8.800  12.305   2.676
72895W        W31991  26.100  39.992  14.279
72896W        W31992  26.627  16.706   3.304
72897W        W31993  22.141  42.994  14.006
72898W        W31994  21.155  36.071  11.969
72899W        W31995   2.266  31.581   0.846
72900W        W31996  35.399  29.530   1.355
72901W        W31997  16.785   9.700   2.666
72902W        W31998  18.707  35.932   3.277
72903W        W31999  38.501  40.519   1.369
72904W        W32000  13.745  15.186  14.484
72905W        W32001  15.163  19.584  14.358
72906W        W32002  12.677  41.822  12.341
72907W        W32003  24.528  13.787   3.267
72908W        W32004  21.546  28.618  13.865
72909W        W32005  20.094  35.038  14.486
72910W        W32006  36.965  18.753   0.431
72911W        W32007  38.914  18.078  13.490
72912W        W32008  35.996  35.520   3.631
72913W        W32009  43.413  41.416  14.998
72914W        W32010  37.958  22.641   1.388
72915W        W32011  16.659  14.760   2.867
72916W        W32012  44.354   4.236  10.480
72917W        W32013  43.828  24.223   4.801
72918W        W32014   7.776  33.552   3.824
72919W        W32015  16.193  29.526   0.887
72920W        W32016  33.529   0.299  10.452
72921W        W32017  40.399  20.156  10.475
72922W        W32018   8.202  37.356   2.331
72923W        W32019  24.078   4.730  14.926
72924W        W32020  26.608  39.949   2.825
72925W        W32021  19.737  29.985  13.424
72926W        W32022  30.034  13.838  11.988
72927W        W32023  14.724  10.727  13.905
72928W        W32024  36.483   7.392  11.565
72929W        W32025  31.464  13.135  12.511
72930W        W32026  36.867   8.177   4.752
72931W        W32027  30.047  42.012  10.422
72932W        W32028  19.151  24.129   2.769
72933W        W32029  25.157  12.709  11.957
72934W        W32030   0.404  30.510  12.361
72935W        W32031  12.679  20.196  12.860
72936W        W32032   8.857  18.631   2.261
72937W        W32033  33.545   1.914   2.371
72938W        W32034   1.786  10.761   4.784
72939W        W32035  37.405   7.902  11.971
72940W        W32036   7.270  10.179   0.432
72941W        W32037  29.568   1.387   2.262
72942W        W32038  22.172   4.774   1.306
72943W        W32039   6.323  36.389  11.956
72944W        W32040  10.144   9.282  14.336
72945W        W32041  13.251  42.023  12.935
72946W        W32042  40.879  41.435  14.795
72947W        W32043  39.904   5.423   4.176
72948W        W32044   6.357  21.719  14.333
72949W        W32045  16.737  40.521   4.630
72950W        W32046  11.696  44.351   3.344
72951W        W32047  39.926   9.651   0.819
72952W        W32048  30.623   5.364   2.678
72953W        W32049  29.986   1.470   3.668
72954W        W32050  30.582   5.375   4.328
72955W        W32051  35.590  24.129   2.398
72956W        W32052  41.028  19.666   2.309
72957W        W32053  35.486  24.030   3.864
72958W        W32054  18.090  31.520  14.916
72959W        W32055  23.209  24.022   2.180
72960W        W32056  13.726  17.259  13.412
72961W        W32057  27.455  33.908  11.527
72962W        W32058  20.250   1.463  11.605
72963W        W32059  31.503  32.978   2.687
72964W        W32060  44.864   6.913   1.224
72965W        W32061  13.289  31.091   5.685
72966W        W32062  18.277  42.829  12.349
72967W        W32063  24.144   7.210  10.451
72968W        W32064  16.669  10.373  10.923
72969W        W32065  16.100  16.182  12.984
72970W        W32066  14.653  18.057   2.874
72971W        W32067  23.714   0.917   3.717
72972W        W32068   3.369  27.046   0.441
72973W        W32069  22.221  21.593  11.954
72974W        W32070  44.319   6.197   3.802
72975W        W32071  21.046  42.438   0.339
72976W        W32072  37.889   5.928  14.825
72977W        W32073  16.269  13.107  10.615
72978W        W32074   8.835  18.062  12.497
72979W        W32075  44.778  35.923   3.243
72980W        W32076  21.142  39.872  12.852
72981W        W32077   4.766  39.317   3.697
72982W        W32078  13.199  42.824  12.909
72983W        W32079   1.749  12.753   1.751
72984W        W32080  32.944  37.372   3.182
72985W        W32081  25.137  33.020   4.197
72986W        W32082   9.798   4.364   4.307
72987W        W32083  21.588  34.373   2.225
72988W        W32084  16.726   6.198   3.811
72989W        W32085  20.761  29.172   0.244
72990W        W32086  11.818  41.450  14.923
72991W        W32087   2.469   4.932  10.635
72992W        W32088  27.066  11.236  12.402
72993W        W32089  11.340  30.069   0.263
72994W        W32090  23.728  12.240  12.987
72995W        W32091  41.848  31.147   1.221
72996W        W32092   8.841   8.180   1.763
72997W        W32093  40.851  19.285  14.917
72998W        W32094   3.904   1.785   5.300
72999W        W32095  27.488  31.478  14.947
73000W        W32096  10.705   5.835  14.437
73001W        W32097  33.074  40.838  14.901
73002W        W32098  18.756  34.420   2.893
73003W        W32099  22.554  23.166  12.864
73004W        W32100  42.401  12.835  11.039
73005W        W32101  35.477  36.860  11.997
73006W        W32102  28.559  30.122   4.151
73007W        W32103  22.198  12.218   3.356
73008W        W32104  11.730  43.903   1.253
73009W        W32105   9.175   1.801   0.731
73010W        W32106  21.637  14.279   5.082
73011W        W32107  13.243  37.472  10.962
73012W        W32108  34.899   2.359   0.286
73013W        W32109   6.242  41.920   2.781
73014W        W32110  38.867  41.485   3.772
73015W        W32111  30.651  25.130   0.812
73016W        W32112  20.272  23.603  14.316
73017W        W32113  38.400  42.334  11.922
73018W        W32114  25.204  24.032   4.186
73019W        W32115  26.026  14.648   2.750
73020W        W32116   3.728  30.498   0.343
73021W        W32117  24.627  30.988  14.483
73022W        W32118   6.224   3.774  11.594
73023W        W32119  44.277   0.942  13.471
73024W        W32120  15.313  13.315  14.763
73025W        W32121   0.865  44.345  11.998
73026W        W32122  22.558  15.736   3.849
73027W        W32123  42.508  15.224  11.492
73028W        W32124  15.798  33.421  11.119
73029W        W32125  28.461   2.737  10.483
73030W        W32126   4.276   5.840  11.565
73031W        W32127  33.393  20.653  13.474
73032W        W32128   4.939  39.865  10.532
73033W        W32129  15.789  42.859  13.043
73034W        W32130  14.289  41.838  14.324
73035W        W32131   7.219  24.600  12.480
73036W        W32132  24.164   0.927   1.812
73037W        W32133  17.661  23.569   1.414
73038W        W32134  21.654   5.762   9.547
73039W        W32135  16.198  38.014   2.217
73040W        W32136  19.725  40.039   0.830
73041W        W32137  34.943  21.673  13.468
73042W        W32138   2.830   4.251   3.716
73043W        W32139  11.259  38.834  14.925
73044W        W32140  12.721   8.245   1.415
73045W        W32141  37.367   6.292  11.480
73046W        W32142  25.070  19.097  11.935
73047W        W32143  37.402  19.168  13.308
73048W        W32144  32.609  28.064  14.829
73049W        W32145  22.055  42.884   1.406
73050W        W32146   4.887  22.031  13.891
73051W        W32147  42.779  34.381  14.359
73052W        W32148  37.022  11.839  14.379
73053W        W32149   9.720  34.946  14.511
73054W        W32150   3.827  31.525  10.908
73055W        W32151  36.448  21.035   4.231
73056W        W32152   4.744  44.445   4.143
73057W        W32153  34.053  10.239  10.637
73058W        W32154   5.931  17.174   3.317
73059W        W32155   5.328  17.260   0.808
73060W        W32156  20.538   0.754  11.055
73061W        W32157  38.910   0.789  14.445
73062W        W32158  25.011  22.633  11.883
73063W        W32159   2.828  10.751   0.867
73064W        W32160  31.438   4.375   2.860
73065W        W32161  32.556   7.810  14.449
73066W        W32162  28.075  29.509   4.333
73067W        W32163  26.033  34.107   1.441
73068W        W32164  18.747  17.122  11.584
73069W        W32165  25.637  22.659  11.078
73070W        W32166  20.162  22.524   4.138
73071W        W32167  15.205  13.154  11.411
73072W        W32168  12.661   4.715  13.386
73073W        W32169   0.854  31.529   2.295
73074W        W32170  24.154  18.705  10.407
73075W        W32171  42.806   9.197   0.730
73076W        W32172  20.212  11.830   1.393
73077W        W32173   9.271  12.667  14.779
73078W        W32174  14.167  35.874   4.731
73079W        W32175   6.845  18.593  10.948
73080W        W32176  23.634   8.845  12.019
73081W        W32177  43.940  17.659   4.668
73082W        W32178   0.885   6.369  12.028
73083W        W32179  44.402  38.540  11.922
73084W        W32180  21.522  25.020  11.932
73085W        W32181  24.100  24.707   3.260
73086W        W32182  16.299  38.378   2.392
73087W        W32183   3.800  16.146  10.991
73088W        W32184  19.112  34.570  13.974
73089W        W32185  34.077  32.546   3.366
73090W        W32186   1.449  32.508  11.934
73091W        W32187  43.936  37.958   0.939
73092W        W32188  24.691  32.398   0.250
73093W        W32189  25.597  39.424  10.539
73094W        W32190  23.126  23.607  10.954
73095W        W32191   7.405  41.349   2.340
73096W        W32192  42.006  39.906   3.298
73097W        W32193  21.130  23.116   3.378
73098W        W32194  17.612  40.400  13.350
73099W        W32195  42.396  42.965   1.322
73100W        W32196  41.888  11.171   4.752
73101W        W32197  16.591  38.825  11.032
73102W        W32198  37.906  22.572   4.787
73103W        W32199   4.275  11.817   4.285
73104W        W32200  26.646  36.457   3.324
73105W        W32201   6.286  26.064  13.348
73106W        W32202   4.918   2.300  11.016
73107W        W32203  23.009  14.102   3.207
73108W        W32204  10.308  21.038   1.881
73109W        W32205  37.892  40.834  13.341
73110W        W32206   7.863  19.740  10.097
73111W        W32207  35.012  18.208  14.811
73112W        W32208  21.694   6.302  13.503
73113W        W32209  22.662  14.822   0.441
73114W        W32210  22.211  44.310  13.837
73115W        W32211   4.743  12.291  11.562
73116W        W32212  30.138  25.077   3.726
73117W        W32213  19.224  29.460   3.666
73118W        W32214  39.532  25.703  14.854
73119W        W32215   3.955  39.051  11.031
73120W        W32216  33.026  19.272   0.377
73121W        W32217   5.374  39.911  13.962
73122W        W32218  17.081  31.076  13.059
73123W        W32219   7.824  25.187   1.798
73124W        W32220  23.133  28.546  12.968
73125W        W32221  31.904  13.688   1.878
73126W        W32222  15.638  30.099   3.767
73127W        W32223  11.803  18.622   5.260
73128W        W32224  41.868  21.634   0.391
73129W        W32225  23.026  22.252   2.202
73130W        W32226  16.237  10.372  12.885
73131W        W32227  12.215  16.170  12.483
73132W        W32228  42.358  26.499  12.964
73133W        W32229  11.726   7.785   5.220
73134W        W32230  11.859  37.392  12.976
73135W        W32231  26.141  38.888  12.874
73136W        W32232   3.948  35.595   2.191
73137W        W32233   8.181  40.315  12.014
73138W        W32234  36.954  38.903  14.761
73139W        W32235  38.953  42.375   9.948
73140W        W32236  28.931   1.298  14.819
73141W        W32237  14.756  36.561   5.149
73142W        W32238  19.780   3.297   0.330
73143W        W32239  20.149  21.537   4.125
73144W        W32240  42.408  32.615   4.674
73145W        W32241  26.979   0.463  13.832
73146W        W32242  36.420  40.386  11.592
73147W        W32243   4.753   7.711  13.954
73148W        W32244  32.570  20.760  11.941
73149W        W32245  34.572  26.990  13.447
73150W        W32246  30.036  16.760  14.400
73151W        W32247  42.379  27.680  14.307
73152W        W32248  15.672  41.946   2.762
73153W        W32249   1.291  16.761   4.343
73154W        W32250  11.699   9.672  12.571
73155W        W32251  15.752   8.841  13.798
73156W        W32252  24.568   8.877   2.715
73157W        W32253  36.065  27.629  11.464
73158W        W32254  15.666  15.212   2.665
73159W        W32255  43.387  34.589   3.182
73160W        W32256  23.210   9.314   3.784
73161W        W32257  44.343  33.067   4.775
73162W        W32258  31.075  44.809  12.446
73163W        W32259  10.290  42.345   0.938
73164W        W32260  41.041  21.151   0.284
73165W        W32261  31.952  15.603   3.718
73166W        W32262  43.271  26.606   1.740
73167W        W32263  11.231  36.438  11.052
73168W        W32264   1.906  26.657  13.492
73169W        W32265  27.177  16.089   1.286
73170W        W32266   2.793   9.162   2.711
73171W        W32267   5.832  23.521   0.259
73172W        W32268   6.311  43.406  11.992
73173W        W32269  29.523  12.742   0.470
73174W        W32270   1.767  19.577   2.786
73175W        W32271  14.140  30.450   0.853
73176W        W32272  40.341   8.200   1.260
73177W        W32273  11.689   2.949   0.741
73178W        W32274  11.730   4.386  11.492
73179W        W32275  34.569  12.170   4.171
73180W        W32276  11.749  17.109  13.038
73181W        W32277  36.466  35.582   2.772
73182W        W32278  36.963  41.921  12.383
73183W        W32279  43.421  27.058  10.519
73184W        W32280   5.748  42.013  10.507
73185W        W32281  35.982  23.729  10.641
73186W        W32282  37.407  10.720  13.832
73187W        W32283  36.480  33.591  11.387
73188W        W32284  13.227   7.229  14.295
73189W        W32285  44.268   0.330  13.976
73190W        W32286  18.238  14.273   2.324
73191W        W32287  31.582  41.351   4.270
73192W        W32288  36.421  22.214   0.316
73193W        W32289  33.487   7.374  11.484
73194W        W32290  31.094  44.394   3.335
73195W        W32291  16.165  10.330   3.744
73196W        W32292  28.064   5.849  13.935
73197W        W32293  14.619  29.031   2.868
73198W        W32294  36.984  25.585  14.786
73199W        W32295   1.838  38.360   1.734
73200W        W32296   6.311  41.384   0.419
73201W        W32297  31.436  25.611   1.273
73202W        W32298  37.865  17.756   1.266
73203W        W32299  35.544  17.138  13.419
73204W        W32300  43.971  17.116  10.633
73205W        W32301  39.853  19.777   4.758
73206W        W32302   9.207  41.459  13.964
73207W        W32303  41.378  32.435   4.337
73208W        W32304   9.313  24.148   0.821
73209W        W32305   2.810   9.657  14.799
73210W        W32306  42.475  15.226  12.969
73211W        W32307  44.974  12.265  10.584
73212W        W32308  35.046  40.030  12.038
73213W        W32309  31.027  23.652  13.885
73214W        W32310   0.802  13.220   2.292
73215W        W32311   9.762  35.057   0.336
73216W        W32312  19.571  24.563   0.948
73217W        W32313  35.058  28.631   4.308
73218W        W32314   0.847  26.636  13.954
73219W        W32315  28.177  23.122  12.351
73220W        W32316  25.597  20.730   0.789
73221W        W32317  35.560  16.264   3.239
73222W        W32318  44.505   0.843   1.883
73223W        W32319  29.094  41.970   2.329
73224W        W32320  39.351  17.064  14.827
73225W        W32321   5.393  24.641  14.786
73226W        W32322   2.854   2.773   0.947
73227W        W32323  24.681  40.523   4.685
73228W        W32324  10.686  44.472   3.178
73229W        W32325  39.464   4.935   3.750
73230W        W32326  31.945  37.055  14.439
73231W        W32327  18.068  23.001   4.661
73232W        W32328  40.841  11.839  12.021
73233W        W32329   6.375   3.446  12.514
73234W        W32330  26.039  18.739  10.578
73235W        W32331  41.030  33.464   0.368
73236W        W32332  34.059  35.063  11.503
73237W        W32333  42.925  20.641  12.861
73238W        W32334   0.390  34.559  14.475
73239W        W32335   0.803   0.367   0.484
73240W        W32336  17.278  37.402  13.018
73241W        W32337   5.932  25.677   2.819
73242W        W32338  18.249   8.728   3.218
73243W        W32339  19.705   7.712  11.922
73244W        W32340  22.604  23.194  12.562
73245W        W32341  16.803  12.332  14.772
73246W        W32342  27.494  14.761   0.729
73247W        W32343  33.949  15.316   0.395
73248W        W32344   6.745  31.619   1.748
73249W        W32345  36.461  17.181  13.385
73250W        W32346  21.195  29.508  14.994
73251W        W32347  36.578  42.027   4.653
73252W        W32348  37.840  31.551   3.163
73253W        W32349  11.173   8.833   3.860
73254W        W32350   5.405  22.723   4.793
73255W        W32351  32.631  21.722  10.913
73256W        W32352   0.265   6.367   4.182
73257W        W32353  21.021  18.727   1.814
73258W        W32354  14.608  11.768   3.710
73259W        W32355  20.128  40.415  13.008
73260W        W32356   8.372  13.703   4.689
73261W        W32357   8.738  23.696  11.910
73262W        W32358  44.895  39.515  11.970
73263W        W32359  21.170   6.751  13.546
73264W        W32360   4.942   7.313  13.318
73265W        W32361  43.889  28.177   3.685
73266W        W32362  34.453   5.275  14.910
73267W        W32363  13.614  33.990  14.905
73268W        W32364  25.613  37.040   4.287
73269W        W32365  41.041  19.733  14.364
73270W        W32366   8.787  35.481  13.535
73271W        W32367  22.014   3.893   4.324
73272W        W32368  20.588   7.333   0.289
73273W        W32369  33.010  38.423  10.608
73274W        W32370  20.267   1.928  12.371
73275W        W32371  34.884   5.776  14.798
73276W        W32372  34.403  21.665  13.889
73277W        W32373  36.957  22.032  12.908
73278W        W32374  38.880  26.506   1.777
73279W        W32375  43.433  23.620  12.512
73280W        W32376   7.790  16.272  14.836
73281W        W32377  10.750  24.030  11.429
73282W        W32378  23.691  26.065  14.277
73283W        W32379   1.371   4.274   2.826
73284W        W32380   5.229  24.504  12.049
73285W        W32381  18.196   0.253   2.763
73286W        W32382  17.766  20.140  12.475
73287W        W32383  14.188  36.569  13.944
73288W        W32384  12.741  40.953   0.760
73289W        W32385  34.961  34.485   0.371
73290W        W32386  33.620   3.751   1.272
73291W        W32387   7.727  26.549   4.342
73292W        W32388  22.028  12.716   4.128
73293W        W32389  43.883   9.768  12.418
73294W        W32390  40.936  14.692   1.907
73295W        W32391  20.137  41.013  14.786
73296W        W32392  34.550   5.749   4.614
73297W        W32393  14.805  12.270   2.766
73298W        W32394  38.534   6.802   3.741
73299W        W32395  37.011  25.552  10.537
73300W        W32396   3.247  27.066  12.943
73301W        W32397  41.949  33.503   4.168
73302W        W32398  39.038  28.569   1.398
73303W        W32399   3.942  34.491   3.635
73304W        W32400  28.081  41.899   2.746
73305W        W32401  11.781  32.613  12.044
73306W        W32402  28.456   3.283  11.999
73307W        W32403  33.956   4.848   4.766
73308W        W32404  17.565  27.026   2.350
73309W        W32405   7.839  28.624  10.426
73310W        W32406  24.102  33.626  10.131
73311W        W32407  24.653  17.563  14.416
73312W        W32408  27.466  24.031  14.825
73313W        W32409  29.968  43.946  11.023
73314W        W32410  39.516   5.294  12.544
73315W        W32411  29.462  19.677   0.763
73316W        W32412  28.488  26.514  11.402
73317W        W32413   6.825  20.107  11.109
73318W        W32414  22.714   0.978   2.800
73319W        W32415  36.592  36.512   4.254
73320W        W32416  32.589  19.709  10.429
73321W        W32417  22.047  31.960  13.911
73322W        W32418  24.104  14.693   4.194
73323W        W32419  27.583  39.539  14.930
73324W        W32420   7.835  32.138  13.532
73325W        W32421  39.398   5.771  11.933
73326W        W32422  17.198  30.579   2.395
73327W        W32423  14.150  12.613   0.377
73328W        W32424   3.225  24.060  12.955
73329W        W32425  11.703  21.038  12.527
73330W        W32426  30.935  33.556  14.904
73331W        W32427  30.018  20.706   2.691
73332W        W32428  19.635  22.651   1.764
73333W        W32429  15.325   4.266   4.673
73334W        W32430  15.249  15.641  14.966
73335W        W32431  28.002  26.594   0.766
73336W        W32432  24.034  23.576   1.394
73337W        W32433   4.763  34.488  13.324
73338W        W32434  25.200  29.129   1.364
73339W        W32435  27.594  21.681   2.406
73340W        W32436  31.010  21.063  14.874
73341W        W32437  25.184  37.958  11.863
73342W        W32438  32.520  23.179  11.381
73343W        W32439   5.730   8.848   4.273
73344W        W32440  39.919  43.484  13.846
73345W        W32441  29.071  18.099  11.460
73346W        W32442  25.035  43.327  13.498
73347W        W32443  16.690   1.833   0.951
73348W        W32444   3.955   4.812  10.480
73349W        W32445  26.039  18.222   4.795
73350W        W32446  24.155  10.779   4.150
73351W        W32447  25.516  38.833   4.761
73352W        W32448  10.202   9.155   4.654
73353W        W32449  36.085  36.050   2.401
73354W        W32450  40.875  21.128   3.846
73355W        W32451  10.153  40.397   1.903
73356W        W32452  25.125   8.726  11.507
73357W        W32453  44.369  11.309  13.352
73358W        W32454  17.680   6.245  14.484
73359W        W32455  44.902  30.947   3.777
73360W        W32456  23.125  24.651   0.338
73361W        W32457  41.321   6.863   4.689
73362W        W32458   8.729  23.544   0.924
73363W        W32459  35.097  13.217  12.896
73364W        W32460  29.098  26.968   0.743
73365W        W32461  41.367   7.280  13.326
73366W        W32462   2.324  20.624   3.820
73367W        W32463  25.096  30.937   2.361
73368W        W32464  43.276  43.431  14.377
73369W        W32465   0.927   8.221  12.996
73370W        W32466  20.765  25.107  14.454
73371W        W32467  40.442  23.603  13.453
73372W        W32468  42.802  14.623   0.335
73373W        W32469   0.431  21.542   2.856
73374W        W32470  10.800  14.796   0.302
73375W        W32471  37.566   8.878  14.330
73376W        W32472  19.060  44.777   4.718
73377W        W32473  34.991  19.761  14.979
73378W        W32474  24.154  15.610  13.340
73379W        W32475  34.469   7.225   2.254
73380W        W32476  41.828  19.254   4.780
73381W        W32477  43.494  11.311  12.031
73382W        W32478  37.485  36.046  12.870
73383W        W32479  40.332  37.080  11.542
73384W        W32480  43.968  26.703   2.196
73385W        W32481  14.324  26.580   1.838
73386W        W32482   0.942   9.830  13.414
73387W        W32483  19.720  13.200   2.696
73388W        W32484  36.583  10.831   2.798
73389W        W32485   8.690  12.616  11.585
73390W        W32486  25.545   7.777  11.556
73391W        W32487  17.736  37.013  11.608
73392W        W32488  23.545  30.051  10.930
73393W        W32489  21.669  44.480   0.741
73394W        W32490  33.492   2.241  14.479
73395W        W32491   7.236  19.608   3.745
73396W        W32492  12.628  29.127   4.290
73397W        W32493   7.248  35.020  12.358
73398W        W32494   4.783  21.670   0.760
73399W        W32495  33.510  37.908   2.385
73400W        W32496  12.617  40.408   0.410
73401W        W32497  21.253  23.196  11.574
73402W        W32498  18.714  22.641  13.953
73403W        W32499   6.182  42.928  12.968
73404W        W32500  25.682   5.413  13.466
73405W        W32501  12.654   8.845   0.750
73406W        W32502   0.356  22.565  14.331
73407W        W32503   6.738   0.921  14.387
73408W        W32504   0.361  28.021  13.018
73409W        W32505  36.434  33.572  12.573
73410W        W32506   7.850   6.707   1.290
73411W        W32507  30.973   1.754   3.303
73412W        W32508   7.734   7.294  13.850
73413W        W32509  12.827  33.096   0.407
73414W        W32510   0.768  20.226  14.030
73415W        W32511  27.580  20.237   2.888
73416W        W32512  28.166  36.921   1.338
73417W        W32513  15.680  30.487  10.123
73418W        W32514  16.204  24.534   4.811
73419W        W32515   9.356  25.212  10.431
73420W        W32516  36.451  16.146   3.765
73421W        W32517  31.625  26.104  13.022
73422W        W32518  33.897  24.093   0.806
73423W        W32519  34.409  32.561  13.026
73424W        W32520  42.343  13.689  14.473
73425W        W32521  12.672  26.056   2.208
73426W        W32522  34.040  42.418  10.913
73427W        W32523  30.971  38.346  13.490
73428W        W32524   8.748  35.484  11.011
73429W        W32525  37.987   5.921  13.375
73430W        W32526  23.104  35.600   4.725
73431W        W32527   5.386  19.570   4.133
73432W        W32528  10.701  37.023   4.218
73433W        W32529  22.064  24.574  13.004
73434W        W32530   2.812  20.536   4.353
73435W        W32531  14.215  27.513  14.502
73436W        W32532  30.989  25.966  13.054
73437W        W32533   9.228   0.424   4.818
73438W        W32534  12.140  18.121  13.486
73439W        W32535  21.735  41.331   3.654
73440W        W32536   8.379  43.964  12.384
73441W        W32537  21.537  44.310  10.946
73442W        W32538   3.717  21.137  11.429
73443W        W32539  32.077   0.273  12.055
73444W        W32540   0.433  35.925  14.781
73445W        W32541   1.765  19.607  14.807
73446W        W32542   1.864   1.914  14.953
73447W        W32543   2.907  29.608   2.718
73448W        W32544  10.353  28.561  11.498
73449W        W32545   1.860  20.166  14.932
73450W        W32546  30.605   6.377   2.396
73451W        W32547   0.429   3.763   4.312
73452W        W32548  33.944  42.901   4.734
73453W        W32549  28.001  29.443  12.082
73454W        W32550  39.896  23.675   2.702
73455W        W32551  12.256  15.587  14.398
73456W        W32552  15.732   9.375  10.639
73457W        W32553   6.186  41.534   3.818
73458W        W32554   5.386  29.560  12.359
73459W        W32555  21.123  38.445   1.754
73460W        W32556  25.172   1.976   4.161
73461W        W32557  43.882  22.039  13.331
73462W        W32558  25.002  29.115   2.253
73463W        W32559  16.766   0.767  10.476
73464W        W32560  23.537  29.515   2.212
73465W        W32561   2.744  21.230  13.998
73466W        W32562   1.344  19.558  12.924
73467W        W32563  23.615  37.474   3.848
73468W        W32564  23.048  26.486  14.010
73469W        W32565  13.619   5.865   1.407
73470W        W32566   5.704  31.077  13.832
73471W        W32567  10.674  44.975  11.544
73472W        W32568   7.872  40.514  11.574
73473W        W32569   0.832  37.456   2.824
73474W        W32570   3.741  24.682  13.992
73475W        W32571   7.171  14.664  12.569
73476W        W32572  37.989  20.523  13.045
73477W        W32573  11.846  30.053  12.527
73478W        W32574  20.762  20.644  11.531
73479W        W32575  28.447   7.747   3.636
73480W        W32576  16.769  43.943  12.546
73481W        W32577  28.179   8.275   2.870
73482W        W32578  20.253  43.437  12.413
73483W        W32579  27.944  33.904  14.797
73484W        W32580   1.451   5.900   2.248
73485W        W32581  41.368  44.805  14.865
73486W        W32582  15.582  35.009   1.365
73487W        W32583  16.086  10.755  13.485
73488W        W32584  14.252  25.643   1.702
73489W        W32585  22.240  17.226   1.861
73490W        W32586  35.004  30.449  14.340
73491W        W32587  17.301  11.233  10.539
73492W        W32588  37.462  21.643   3.348
73493W        W32589  20.700  19.611   2.366
73494W        W32590  21.249   6.391  12.058
73495W        W32591  17.769  25.128   3.229
73496W        W32592  13.108  39.013  12.833
73497W        W32593   4.422   2.882   2.723
73498W        W32594  10.807  19.136   4.748
73499W        W32595  27.604   2.955   1.880
73500W        W32596   6.880  12.711  10.639
73501W        W32597  30.504  44.878   3.658
73502W        W32598  41.935  10.632   0.426
73503W        W32599  38.448  32.072  13.503
73504W        W32600  23.688   5.719  13.337
73505W        W32601  26.995  13.316  12.374
73506W        W32602  41.809  38.950  10.955
73507W        W32603   9.304  18.195   1.387
73508W        W32604  26.119  40.994  12.524
73509W        W32605  11.303  35.563   3.275
73510W        W32606  38.973  26.521   5.269
73511W        W32607  23.085  28.160   3.865
73512W        W32608  10.668  30.627   5.710
73513W        W32609  39.946  37.980   4.645
73514W        W32610  10.647  23.126   4.679
73515W        W32611   6.335   3.797   2.874
73516W        W32612  17.273  10.666  14.028
73517W        W32613   9.844  30.969   0.740
73518W        W32614  30.659  14.298  10.941
73519W        W32615  19.143  13.166   4.616
73520W        W32616  24.128  28.636  10.415
73521W        W32617  14.829   9.837   1.706
73522W        W32618  24.222  13.800  12.088
73523W        W32619  25.594   5.720   4.314
73524W        W32620  21.049  41.407   0.964
73525W        W32621  19.656   5.846   1.904
73526W        W32622  44.874  23.590   1.881
73527W        W32623   2.230  14.596   4.756
73528W        W32624  16.810   7.870  14.778
73529W        W32625  26.676   1.271  13.384
73530W        W32626   2.922   5.193  13.866
73531W        W32627   0.473   5.376  14.323
73532W        W32628   9.329  23.559   3.183
73533W        W32629  38.914  38.329  13.504
73534W        W32630  29.006  37.892  13.915
73535W        W32631   5.283  41.379  11.114
73536W        W32632  37.481  14.660  12.551
73537W        W32633   2.471  30.158  14.955
73538W        W32634   5.746  12.697   3.802
73539W        W32635  44.861  27.465   3.772
73540W        W32636  40.308  28.591  14.786
73541W        W32637  13.629  38.401  12.870
73542W        W32638   4.733   0.944  14.800
73543W        W32639  22.729  40.021   3.347
73544W        W32640  11.362  33.028   0.897
73545W        W32641  28.103  29.045  10.066
73546W        W32642  10.714  17.199   1.918
73547W        W32643  32.934  10.140  11.527
73548W        W32644  27.479   0.260   0.247
73549W        W32645  41.517  37.479   0.390
73550W        W32646  38.557  42.337  12.886
73551W        W32647  16.081   4.777  14.886
73552W        W32648  25.585  18.053  12.355
73553W        W32649  23.601  27.039   2.363
73554W        W32650  10.714   2.304  14.300
73555W        W32651  22.657  44.775  13.914
73556W        W32652  13.820  31.951  14.956
73557W        W32653  28.610  10.344  10.900
73558W        W32654   7.762  38.034   1.885
73559W        W32655  26.980  17.697   4.205
73560W        W32656  40.017  20.572  12.358
73561W        W32657   8.881   4.857   1.384
73562W        W32658  15.322  38.384   1.374
73563W        W32659  43.002  16.716  13.323
73564W        W32660   1.343  23.046   0.935
73565W        W32661  29.640  17.655  11.381
73566W        W32662  32.583  36.408   1.244
73567W        W32663  30.552  19.109  14.411
73568W        W32664  11.740  20.076   4.708
73569W        W32665  34.469  27.691   4.279
73570W        W32666  21.749  25.139   3.685
73571W        W32667  32.560  11.206  13.044
73572W        W32668  22.543  37.345  10.514
73573W        W32669  44.316  10.797  12.844
73574W        W32670   7.375   3.260   3.168
73575W        W32671  34.014  18.642   5.796
73576W        W32672  22.198   1.832   0.381
73577W        W32673  16.703  27.467   2.749
73578W        W32674   8.876  21.160  12.070
73579W        W32675   5.334  33.465   0.290
73580W        W32676  17.129  40.005   4.292
73581W        W32677  40.467  19.718   5.282
73582W        W32678  10.276  31.062  12.088
73583W        W32679  20.268   6.357  10.991
73584W        W32680   8.674  21.071  10.959
73585W        W32681  15.654  37.550  12.444
73586W        W32682  10.284  22.171  11.017
73587W        W32683   3.736  31.427  11.373
73588W        W32684  21.598   0.771   3.719
73589W        W32685  28.162  42.490   2.230
73590W        W32686   1.908  11.780   1.296
73591W        W32687   4.939  43.907  11.400
73592W        W32688   3.726  34.499  14.814
73593W        W32689  37.543  36.548  13.008
73594W        W32690  43.769  41.332  10.412
73595W        W32691  15.207  36.053  10.605
73596W        W32692  32.096  34.484   4.289
73597W        W32693   3.313  21.685   0.870
73598W        W32694  11.799  23.205  13.391
73599W        W32695  25.015   0.309  12.555
73600W        W32696  11.724  22.677  13.892
73601W        W32697  23.590  17.200   3.870
73602W        W32698   9.865  20.716   4.174
73603W        W32699  44.326  29.517   2.278
73604W        W32700  33.544  19.277   3.174
73605W        W32701   4.709  11.683  11.082
73606W        W32702   5.782   5.693  13.838
73607W        W32703  25.139  36.360   3.683
73608W        W32704  41.926  44.295  11.030
73609W        W32705  44.930  31.910  14.780
73610W        W32706  20.229   5.327   2.808
73611W        W32707  40.489  22.538  12.055
73612W        W32708   3.917  34.914  14.987
73613W        W32709  35.943  22.064   0.275
73614W        W32710  10.140   0.969  12.365
73615W        W32711  32.969  10.746  12.876
73616W        W32712  34.605  37.395   2.361
73617W        W32713  11.283  20.244  14.499
73618W        W32714  15.790  16.168  13.318
73619W        W32715   2.413  11.259  14.355
73620W        W32716  26.066  16.090  13.001
73621W        W32717  18.650  10.748  10.427
73622W        W32718  37.030  14.121   3.716
73623W        W32719   3.322  18.116  12.027
73624W        W32720   0.312  17.599   3.198
73625W        W32721  37.556   9.749  12.942
73626W        W32722  22.623  32.439  11.468
73627W        W32723   4.444  43.932   2.299
73628W        W32724  44.285   9.159   4.721
73629W        W32725  30.569  31.503  14.988
73630W        W32726  19.138   5.775  13.040
73631W        W32727  20.166   5.924  11.047
73632W        W32728  42.837  25.694   3.216
73633W        W32729  19.270  14.640   1.828
73634W        W32730  27.180  41.477   0.383
73635W        W32731  17.783  20.678  13.461
73636W        W32732  17.742   9.867  13.410
73637W        W32733   5.345   6.760   1.324
73638W        W32734  25.574  16.263  10.585
73639W        W32735  16.732  29.048   0.402
73640W        W32736  40.819   5.250  14.802
73641W        W32737  12.798  12.159  14.760
73642W        W32738  21.601   8.776  14.851
73643W        W32739  36.971  24.166   4.805
73644W        W32740   7.793  42.474   2.703
73645W        W32741  43.862  32.407  12.953
73646W        W32742  31.621  28.674  10.470
73647W        W32743   6.863  30.024   4.793
73648W        W32744  41.303   5.207  13.380
73649W        W32745  24.086  27.954  10.944
73650W        W32746   8.383   1.886   0.426
73651W        W32747  18.058  20.098   4.236
73652W        W32748  26.671  20.223  11.439
73653W        W32749  26.189   8.669  13.947
73654W        W32750  15.214  20.634   0.367
73655W        W32751  38.923  31.620  13.485
73656W        W32752   6.811  23.148  13.542
73657W        W32753  16.237   5.277   3.727
73658W        W32754   3.302   3.461  13.514
73659W        W32755  42.863  24.581  13.370
73660W        W32756  22.529  36.527  13.527
73661W        W32757  38.460   2.442  13.540
73662W        W32758   8.806  44.853  12.504
73663W        W32759  38.325  24.716   3.817
73664W        W32760   5.834  24.502   0.388
73665W        W32761  31.935  19.724  14.307
73666W        W32762  30.983  42.832  12.356
73667W        W32763  16.766   4.841   1.863
73668W        W32764   7.727   3.874   1.273
73669W        W32765  33.070  32.541  14.289
73670W        W32766  26.105  13.253   1.856
73671W        W32767  42.833   7.715   1.415
73672W        W32768  43.908  11.632   1.336
73673W        W32769   6.337  28.562   4.296
73674W        W32770  28.537   3.865   0.747
73675W        W32771  25.131  41.915   0.458
73676W        W32772  29.942  44.887   1.437
73677W        W32773   5.821  23.219   9.961
73678W        W32774  27.491  44.970   4.734
73679W        W32775  35.527  12.178   0.756
73680W        W32776  30.982   1.453  12.038
73681W        W32777  18.196  33.937   3.814
73682W        W32778  44.297  11.715   4.268
73683W        W32779  35.537  17.759  10.914
73684W        W32780  21.189  37.511   3.189
73685W        W32781   0.386  29.634   0.850
73686W        W32782   9.667  40.856  11.440
73687W        W32783  15.087  34.566  10.086
73688W        W32784  42.363  15.684   3.148
73689W        W32785  39.024  30.919   1.932
73690W        W32786  39.815  41.992   0.303
73691W        W32787  33.903  26.571   0.319
73692W        W32788  25.639  11.301   3.709
73693W        W32789  29.928  15.789  12.429
73694W        W32790  19.589   6.288  10.435
73695W        W32791  29.612   5.777  10.499
73696W        W32792   3.251  23.580  14.305
73697W        W32793  27.500  42.865   3.662
73698W        W32794   5.745   6.228  10.412
73699W        W32795  41.355  32.900   3.324
73700W        W32796  14.640  38.022   2.702
73701W        W32797   1.476  40.825  12.840
73702W        W32798  37.405  20.624   1.821
73703W        W32799  28.633  18.125   0.907
73704W        W32800   6.889  41.367   0.828
73705W        W32801  42.365   0.431  10.506
73706W        W32802   4.699  12.682   2.746
73707W        W32803  39.916  18.209  11.497
73708W        W32804   4.747   8.296  10.965
73709W        W32805  36.464  38.960  10.992
73710W        W32806  35.004   8.371  11.963
73711W        W32807  29.444   1.742  14.810
73712W        W32808  36.558  11.680   2.197
73713W        W32809   0.886  34.404  14.980
73714W        W32810  42.484   8.698   2.295
73715W        W32811   5.797   5.237   1.407
73716W        W32812  23.055  16.629   2.319
73717W        W32813  17.589   7.874   3.801
73718W        W32814  15.673  24.992  10.493
73719W        W32815   1.463  36.034   0.355
73720W        W32816  19.085  28.632   4.198
73721W        W32817  29.927  24.132   0.815
73722W        W32818  23.615  19.263   5.257
73723W        W32819  37.389   9.343  10.056
73724W        W32820  42.934  33.125   3.828
73725W        W32821   8.191  43.931   4.626
73726W        W32822  36.091  35.959  10.513
73727W        W32823  21.083  25.073   2.256
73728W        W32824  31.640  29.005   4.772
73729W        W32825  26.568  13.809  13.387
73730W        W32826  19.711  26.126   2.328
73731W        W32827  30.528   3.241   4.645
73732W        W32828  26.557   3.771   4.714
73733W        W32829  40.520  24.622  12.349
73734W        W32830   2.271  18.084   1.706
73735W        W32831  14.719   7.207   1.931
73736W        W32832  35.452  21.553   0.778
73737W        W32833  24.513  21.229  13.356
73738W        W32834  35.426  10.698   1.354
73739W        W32835  42.317  31.917  11.429
73740W        W32836  16.728  25.191  11.115
73741W        W32837  44.424   4.920   3.680
73742W        W32838  34.391  17.172  11.865
73743W        W32839  32.960  39.377   1.284
73744W        W32840  44.499  21.729  11.932
73745W        W32841  20.199  41.813   4.832
73746W        W32842   4.775  17.078  14.407
73747W        W32843  29.606   9.202   1.413
73748W        W32844  26.179  43.872   0.431
73749W        W32845  33.112  15.664  12.958
73750W        W32846  14.801  39.481   2.406
73751W        W32847  32.504  32.136  14.004
73752W        W32848  22.594  41.997   3.743
73753W        W32849  12.776  11.272  14.805
73754W        W32850  26.127  26.145   4.748
73755W        W32851  16.302  27.660  11.582
73756W        W32852  29.002   1.864   1.265
73757W        W32853  42.854  31.421   3.188
73758W        W32854  44.464  30.525   3.319
73759W        W32855  11.702  12.611   2.785
73760W        W32856  11.131  42.491   0.337
73761W        W32857   9.852  35.550   3.278
73762W        W32858   3.384  32.075   0.336
73763W        W32859   3.403   7.317  10.424
73764W        W32860  40.823  10.141   4.347
73765W        W32861   2.890  10.660  12.435
73766W        W32862   2.468  26.607  11.434
73767W        W32863  31.571  37.854   4.695
73768W        W32864  26.954   1.789   0.465
73769W        W32865  21.175  25.694   1.420
73770W        W32866  26.156  35.977  14.324
73771W        W32867   4.817   8.730   2.721
73772W        W32868  11.215  18.147   0.303
73773W        W32869  23.115  24.486   1.808
73774W        W32870   0.250  44.782   3.688
73775W        W32871  39.476   2.378  13.976
73776W        W32872  24.724  40.328  10.611
73777W        W32873   4.933  20.212  13.926
73778W        W32874  16.273   5.331   2.676
73779W        W32875   6.680   1.929  13.457
73780W        W32876  26.680  26.564   4.159
73781W        W32877   2.382  14.764  12.378
73782W        W32878  43.825  26.583   0.891
73783W        W32879  31.584  18.121   2.253
73784W        W32880   6.219  35.018  10.629
73785W        W32881  42.516  15.774   3.711
73786W        W32882  16.087  19.045   0.257
73787W        W32883  38.941  41.844  12.876
73788W        W32884  28.178  12.303  10.465
73789W        W32885  42.300   6.220  11.540
73790W        W32886  17.704  34.984  13.064
73791W        W32887   0.783  18.767  11.887
73792W        W32888  42.788  31.507  11.599
73793W        W32889  26.608  43.498  13.848
73794W        W32890   4.341  25.605   9.928
73795W        W32891  20.089  21.192   0.372
73796W        W32892  24.551  16.628   4.706
73797W        W32893  33.997  13.626   1.815
73798W        W32894  27.194  17.291  14.427
73799W        W32895   2.853  15.162  11.529
73800W        W32896  19.210  25.983  12.884
73801W        W32897   2.846   3.890   0.324
73802W        W32898   0.310  42.848  10.639
73803W        W32899  26.497  26.544   1.881
73804W        W32900  11.361  21.661   3.287
73805W        W32901  28.178  13.177  12.848
73806W        W32902   7.248  11.680   3.327
73807W        W32903  12.663  21.722   2.819
73808W        W32904  24.992  19.606   1.426
73809W        W32905  44.411  19.571   3.812
73810W        W32906  28.015   1.778  14.437
73811W        W32907  29.026   5.328   3.292
73812W        W32908  24.192   3.408   3.858
73813W        W32909  32.074  23.188   9.445
73814W        W32910   3.722  35.886   4.192
73815W        W32911   7.333  39.439  11.427
73816W        W32912  34.552  40.009  11.495
73817W        W32913  16.744   6.295   1.239
73818W        W32914  34.090   5.739  11.879
73819W        W32915  19.047  21.631   2.293
73820W        W32916  35.375  13.162  14.929
73821W        W32917  33.068  41.943  14.031
73822W        W32918  28.049  43.870  13.512
73823W        W32919   9.170  17.248  14.318
73824W        W32920  24.627  40.525   3.262
73825W        W32921   3.716   6.801   1.741
73826W        W32922  17.643  34.570   4.220
73827W        W32923  41.994  28.627  14.808
73828W        W32924  15.762  43.968  11.088
73829W        W32925  16.724  27.578   0.257
73830W        W32926  44.410  16.792  11.028
73831W        W32927  20.149  27.133   2.902
73832W        W32928  15.660  17.267  10.549
73833W        W32929  36.849  14.150   5.294
73834W        W32930  23.626   7.363  13.319
73835W        W32931  12.261  23.617   0.359
73836W        W32932  43.341  29.609  12.094
73837W        W32933  21.064  31.480  11.553
73838W        W32934  43.320   6.754  14.283
73839W        W32935  22.640  27.167   1.409
73840W        W32936  10.721  37.454   3.319
73841W        W32937   7.193  38.524   0.736
73842W        W32938   3.235  32.134   0.837
73843W        W32939  35.548  15.717   5.209
73844W        W32940   3.892  41.300  11.855
73845W        W32941  17.265  27.657  14.429
73846W        W32942  35.880  15.143   4.704
73847W        W32943  15.105  38.448  12.517
73848W        W32944  18.623   6.189   4.135
73849W        W32945  41.015  33.972  12.023
73850W        W32946   5.698   0.805  12.076
73851W        W32947  40.970  41.006   4.147
73852W        W32948  23.676  40.434   0.774
73853W        W32949   6.839  29.572  12.373
73854W        W32950  35.977  33.078  13.910
73855W        W32951  37.462  36.029   2.408
73856W        W32952  15.632  33.888   4.808
73857W        W32953  28.566   5.248  13.507
73858W        W32954   9.210  28.610   0.921
73859W        W32955  41.880   3.278  13.897
73860W        W32956   1.383  24.187   4.302
73861W        W32957  28.484  25.073   1.280
73862W        W32958  28.484  38.540   2.869
73863W        W32959  24.056   0.981  14.427
73864W        W32960  26.545  27.513  12.381
73865W        W32961  18.266  31.987   1.382
73866W        W32962  25.596  31.480  12.374
73867W        W32963  33.000   8.747  12.035
73868W        W32964  25.691  22.185   2.695
73869W        W32965  39.003  33.553   4.319
73870W        W32966  36.094  32.891   0.384
73871W        W32967  30.450   2.770  12.930
73872W        W32968  29.034  21.678  12.536
73873W        W32969  40.535   6.863   3.378
73874W        W32970  10.827  13.843   1.433
73875W        W32971  18.260  24.495   4.216
73876W        W32972  19.282   4.423  14.421
73877W        W32973  21.521  27.692   0.309
73878W        W32974  17.760  32.113   0.373
73879W        W32975  15.161  28.556  13.546
73880W        W32976  31.965   4.729   4.790
73881W        W32977  14.604  36.004  12.367
73882W        W32978  22.600   5.802  14.822
73883W        W32979  12.228  42.331   1.880
73884W        W32980   7.757  10.801  14.278
73885W        W32981  12.257  37.035  11.110
73886W        W32982  21.513  14.214   4.147
73887W        W32983  26.183  31.998  11.508
73888W        W32984  41.010   7.758  10.535
73889W        W32985   7.378  11.158   2.765
73890W        W32986  17.799  41.819   3.218
73891W        W32987   9.160   4.349  10.916
73892W        W32988   2.937  16.811   2.679
73893W        W32989   9.293  41.035   1.751
73894W        W32990  12.705  42.289   4.635
73895W        W32991  41.338   8.739   4.690
73896W        W32992  40.884   9.149  11.028
73897W        W32993  20.766  28.575   2.861
73898W        W32994  13.767  20.757  13.057
73899W        W32995  37.936   5.284   0.390
73900W        W32996  27.614  33.068   4.166
73901W        W32997  15.822  33.450  12.062
73902W        W32998   0.272  20.701  10.449
73903W        W32999   1.334  11.358  11.034
73904W        W33000  15.759  33.515   3.725
73905W        W33001  38.828  33.434  12.080
73906W        W33002  18.781  19.168  10.945
73907W        W33003  25.568  25.122  14.908
73908W        W33004   0.918  32.032  10.642
73909W        W33005   6.805  11.701   2.388
73910W        W33006  28.081  38.850  12.346
73911W        W33007   5.934   4.827  10.924
73912W        W33008  37.444  13.834   2.316
73913W        W33009   4.874  12.340  11.123
73914W        W33010   0.949   8.693  10.412
73915W        W33011  36.390  37.507  12.904
73916W        W33012  14.114  35.863  13.546
73917W        W33013  42.958  21.050   4.608
73918W        W33014  37.844  25.003  14.327
73919W        W33015   4.305   7.208  14.792
73920W        W33016  28.015  28.563   1.839
73921W        W33017   1.268  36.879   2.179
73922W        W33018  33.537  18.222   0.461
73923W        W33019  21.108  36.882   3.639
73924W        W33020  33.457   8.245  12.548
73925W        W33021   2.430  22.161  10.568
73926W        W33022  27.988  28.137   1.408
73927W        W33023  22.674  35.070   4.181
73928W        W33024  21.101   7.414   2.233
73929W        W33025  18.640   8.380  13.407
73930W        W33026  18.264  26.546  13.369
73931W        W33027   9.888  35.452   1.694
73932W        W33028  34.958  16.696   0.734
73933W        W33029   8.391  38.863  10.596
73934W        W33030  37.024  42.385  14.300
73935W        W33031  43.852   3.745   3.163
73936W        W33032  26.698  17.565  14.986
73937W        W33033  35.003  23.030  11.389
73938W        W33034   1.930  41.878  12.548
73939W        W33035   1.786  30.446  11.515
73940W        W33036  43.497  12.735  11.519
73941W        W33037  30.507  29.012   1.854
73942W        W33038  37.492  30.640   1.822
73943W        W33039  20.158  27.523  13.026
73944W        W33040  18.129  29.634  14.426
73945W        W33041  16.313   6.343  12.977
73946W        W33042  40.811   6.726  12.958
73947W        W33043   5.336   9.346  13.434
73948W        W33044   1.783  25.531  12.028
73949W        W33045  10.694  30.143  12.471
73950W        W33046  13.202  38.932   3.369
73951W        W33047  22.075  37.435   3.221
73952W        W33048  14.253  30.625   1.360
73953W        W33049   3.268   7.416  12.872
73954W        W33050  24.036  26.060   2.232
73955W        W33051  35.981   8.740   3.259
73956W        W33052  19.599  29.601   2.211
73957W        W33053  32.969   9.669  10.416
73958W        W33054  43.274  17.766  11.117
73959W        W33055  42.826  27.053  12.852
73960W        W33056   9.150  36.409  11.870
73961W        W33057  21.125  36.050   9.948
73962W        W33058   7.360  13.312   3.852
73963W        W33059  36.427   4.408  11.423
73964W        W33060  43.014   6.255   3.256
73965W        W33061  43.507  31.048   1.786
73966W        W33062  21.546   8.330  14.995
73967W        W33063   3.389   3.349  12.900
73968W        W33064  15.240  21.564   4.775
73969W        W33065  16.712  14.125  13.881
73970W        W33066  33.416  38.409  12.832
73971W        W33067  32.406  28.564   0.836
73972W        W33068  40.488   2.242  12.466
73973W        W33069  35.058  40.840   2.900
73974W        W33070   2.828   3.276   3.847
73975W        W33071  14.182  35.473  12.944
73976W        W33072   5.896  37.995  14.024
73977W        W33073  40.835  32.079   1.726
73978W        W33074  23.022  39.368   2.250
73979W        W33075  30.440  40.318  10.568
73980W        W33076   2.774   9.192  14.310
73981W        W33077   3.719  25.477  13.033
73982W        W33078  10.801   8.314   3.675
73983W        W33079   1.451  44.903   0.780
73984W        W33080  43.955   3.767  11.000
73985W        W33081  28.051  19.551   2.261
73986W        W33082  38.361   2.791  13.842
73987W        W33083  16.758  31.604   4.711
73988W        W33084  38.844  12.230  12.456
73989W        W33085  15.269  35.403   3.742
73990W        W33086  40.503  10.806  11.420
73991W        W33087  33.976   1.737   4.241
73992W        W33088  23.015  40.364  10.584
73993W        W33089  22.178  20.159   5.272
73994W        W33090  20.064  30.554   1.374
73995W        W33091  34.396   0.308  13.366
73996W        W33092  17.161   5.375   4.297
73997W        W33093  31.049  35.578  12.907
73998W        W33094   9.748  43.288   0.930
73999W        W33095  40.908  32.006   2.335
74000W        W33096  12.323  18.252  12.980
74001W        W33097   3.908  38.541   2.188
74002W        W33098   6.285  21.259   4.213
74003W        W33099  32.501  44.289   3.694
74004W        W33100   3.427   3.780  13.007
74005W        W33101   9.693  28.129   1.825
74006W        W33102  12.143  11.800  13.016
74007W        W33103  34.461  12.201  12.824
74008W        W33104  15.795  16.661  10.970
74009W        W33105  28.077  34.046  12.513
74010W        W33106  21.582  28.097   4.625
74011W        W33107  29.427  28.144  13.819
74012W        W33108   2.225  12.194   3.379
74013W        W33109  30.981  23.008  12.920
74014W        W33110   5.373  40.357   3.337
74015W        W33111  18.166  19.189   1.420
74016W        W33112  10.251   4.784   5.190
74017W        W33113  24.574  17.634  10.411
74018W        W33114   5.809  22.605  11.372
74019W        W33115  16.578  38.340   1.828
74020W        W33116   9.149  38.995   5.143
74021W        W33117  24.070  23.527   0.848
74022W        W33118  27.454  25.524   1.788
74023W        W33119  31.119  44.784   2.777
74024W        W33120   6.395  36.042  14.806
74025W        W33121   7.890   7.799  12.014
74026W        W33122  36.380  39.489  14.312
74027W        W33123  40.833  30.425  10.553
74028W        W33124  33.447   9.209   4.314
74029W        W33125  16.676  39.845   0.274
74030W        W33126  26.546  32.544  11.510
74031W        W33127  33.569  20.143  13.335
74032W        W33128   0.947  43.360   1.400
74033W        W33129  17.795  37.475  10.453
74034W        W33130  24.083  18.685   1.715
74035W        W33131  34.969   8.720   1.271
74036W        W33132  11.158  14.267  12.909
74037W        W33133  26.519  15.579  12.924
74038W        W33134  29.045  44.286   1.249
74039W        W33135  43.803  39.367   3.382
74040W        W33136  39.899  26.998  12.956
74041W        W33137  42.416  12.312  14.984
74042W        W33138   3.337   7.861   5.180
74043W        W33139   1.475  10.234  13.476
74044W        W33140   6.877  14.634  14.785
74045W        W33141  38.363  17.240  12.840
74046W        W33142  22.050  37.472   2.285
74047W        W33143  17.278  28.601  13.952
74048W        W33144  41.537  15.090   3.844
74049W        W33145  26.627   7.302   1.791
74050W        W33146  38.447  30.991   4.260
74051W        W33147   3.764  30.976  10.914
74052W        W33148   2.445  17.076   5.245
74053W        W33149  18.589  19.540   4.326
74054W        W33150  36.377  26.584  13.502
74055W        W33151   2.405  22.525   4.749
74056W        W33152  14.181  16.641   1.723
74057W        W33153  38.939  12.833  11.422
74058W        W33154  12.707   5.701  10.561
74059W        W33155  17.797  39.327   1.407
74060W        W33156   8.221  42.340   1.394
74061W        W33157   3.410  30.108  14.380
74062W        W33158  24.601   5.858  12.071
74063W        W33159  16.174  35.576  14.309
74064W        W33160  30.650   8.687   1.449
74065W        W33161  10.731  39.931  12.406
74066W        W33162  30.938   3.366   0.265
74067W        W33163  31.404  21.083   2.266
74068W        W33164   8.812  11.695   4.745
74069W        W33165  43.503  44.316  10.991
74070W        W33166  38.822  20.605   4.191
74071W        W33167  15.291  32.413  11.092
74072W        W33168  41.395   2.263  13.832
74073W        W33169   8.251  29.967  10.998
74074W        W33170   9.332  13.294   0.277
74075W        W33171  15.729  32.886  14.282
74076W        W33172  40.411  40.305   2.717
74077W        W33173  40.867  36.394  12.958
74078W        W33174   3.343  33.612  12.856
74079W        W33175  23.721  15.594   2.398
74080W        W33176  15.777  44.297  11.047
74081W        W33177  10.190   2.725  13.022
74082W        W33178   4.766  40.357   1.394
74083W        W33179  26.576   7.882  13.504
74084W        W33180  13.769  26.674   0.416
74085W        W33181  28.584  34.047   3.695
74086W        W33182  29.974   7.297   4.153
74087W        W33183  11.718  29.006   1.863
74088W        W33184  12.630  37.078  10.902
74089W        W33185  38.076   6.885   3.682
74090W        W33186  25.028   1.953   1.726
74091W        W33187  10.143  35.358  11.961
74092W        W33188  30.598  42.353  13.349
74093W        W33189  10.729  34.057   1.905
74094W        W33190   1.267  43.984   4.164
74095W        W33191  24.704  43.448  11.070
74096W        W33192   0.486  40.333   4.350
74097W        W33193   6.190  36.584   2.378
74098W        W33194  44.372   5.248   5.087
74099W        W33195  12.158  18.160  14.399
74100W        W33196  29.034   1.356   1.909
74101W        W33197  44.259   9.322   1.252
74102W        W33198  11.146  18.622  14.281
74103W        W33199  43.865   7.867  11.482
74104W        W33200   1.436  21.207  10.068
74105W        W33201  30.097  19.143  11.384
74106W        W33202  28.677  12.167   2.358
74107W        W33203   5.406  30.936  11.997
74108W        W33204  24.076  12.671   4.719
74109W        W33205   8.263  26.645  12.352
74110W        W33206  37.878  29.602  12.510
74111W        W33207  37.437  40.957   4.153
74112W        W33208   6.346  32.579   4.282
74113W        W33209  17.597  19.666  14.369
74114W        W33210  25.690  27.486  11.989
74115W        W33211  37.058  31.037   0.380
74116W        W33212  42.012  25.647  10.617
74117W        W33213   9.658  37.984   1.434
74118W        W33214   5.230  26.075   1.337
74119W        W33215  37.934   9.725  12.057
74120W        W33216  34.521  15.184  12.877
74121W        W33217  16.102  25.986  14.999
74122W        W33218  18.615  10.348  11.940
74123W        W33219   1.249  43.926  14.338
74124W        W33220  38.366  26.194  12.014
74125W        W33221  11.838  34.574   2.733
74126W        W33222  41.849  31.070  13.530
74127W        W33223   9.650  32.955   1.932
74128W        W33224   4.388  42.858  12.579
74129W        W33225  25.554  11.363  13.463
74130W        W33226   0.418  13.657  12.551
74131W        W33227  20.110  44.409  13.934
74132W        W33228  11.308  29.967  14.875
74133W        W33229  16.783  34.537   1.793
74134W        W33230   0.251  11.244   1.828
74135W        W33231  41.950  35.919   1.241
74136W        W33232  13.346   5.927  11.530
74137W        W33233   8.662  19.544  12.504
74138W        W33234  12.252  11.710  11.045
74139W        W33235  11.748   6.834  11.554
74140W        W33236  11.852  10.317  12.382
74141W        W33237  31.581  32.514   3.726
74142W        W33238   6.805   1.474  10.489
74143W        W33239  18.673   5.911   3.711
74144W        W33240  18.681  11.731  12.539
74145W        W33241  10.802  30.042  10.013
74146W        W33242  35.555  33.085  11.546
74147W        W33243  30.083   5.387  10.550
74148W        W33244  10.808  39.014  13.452
74149W        W33245   6.810   6.421   3.661
74150W        W33246   1.862   8.900  10.413
74151W        W33247   4.419  33.467  14.356
74152W        W33248  17.137   5.366   2.877
74153W        W33249  18.224  16.284  13.540
74154W        W33250  10.377  21.035  14.431
74155W        W33251  39.543  38.562  11.033
74156W        W33252  22.566  20.072   3.273
74157W        W33253  32.429  12.709  13.042
74158W        W33254   9.213  37.455   4.628
74159W        W33255  33.405   9.660  12.343
74160W        W33256   0.310  12.778   3.227
74161W        W33257  30.100  30.510  13.027
74162W        W33258  23.719  24.560  11.546
74163W        W33259  11.625   5.245   1.796
74164W        W33260   1.237  24.222   3.696
74165W        W33261  26.195  13.238   4.704
74166W        W33262  11.719  39.367   2.770
74167W        W33263   9.230  20.031   2.202
74168W        W33264  42.856  43.420   0.961
74169W        W33265  15.602  41.472   0.811
74170W        W33266  43.274  31.039   3.387
74171W        W33267   2.289  29.942  13.402
74172W        W33268  11.309  33.579   3.840
74173W        W33269   8.691   4.777   4.305
74174W        W33270  37.990  12.658   0.448
74175W        W33271  28.507  34.898  11.497
74176W        W33272  17.308  22.562  14.445
74177W        W33273  18.725  12.662   4.597
74178W        W33274  17.649  43.944  11.954
74179W        W33275  21.247  14.113  11.497
74180W        W33276   3.760   9.380  14.016
74181W        W33277   0.337   4.923   4.605
74182W        W33278   1.933  28.144   3.163
74183W        W33279  44.978   7.870   2.825
74184W        W33280  17.168  15.100   0.951
74185W        W33281  15.084  25.526  13.996
74186W        W33282  14.312   9.258   3.278
74187W        W33283  38.550  33.013   2.372
74188W        W33284  42.835  22.649   2.695
74189W        W33285  33.417  29.935  14.418
74190W        W33286  33.112  40.832   1.811
74191W        W33287  14.740  44.344   1.244
74192W        W33288   9.732  23.233  13.548
74193W        W33289  32.460  31.541  13.976
74194W        W33290  41.479  21.623   3.157
74195W        W33291   9.210  12.732  12.537
74196W        W33292  21.602  37.518  11.059
74197W        W33293  40.496  21.157   0.482
74198W        W33294   3.386  36.918   2.412
74199W        W33295  41.026   5.901  13.026
74200W        W33296   9.288   3.267   0.380
74201W        W33297  35.897   8.761   0.457
74202W        W33298  23.224   9.215   0.921
74203W        W33299  32.909  32.011  12.057
74204W        W33300   8.172  38.366   3.675
74205W        W33301  33.958  11.727  12.389
74206W        W33302  17.583   5.805  12.865
74207W        W33303  30.433  27.691   1.428
74208W        W33304  33.961   6.855   2.723
74209W        W33305  33.452   1.792  10.593
74210W        W33306   2.860  13.143  11.002
74211W        W33307   8.325  14.188  12.372
74212W        W33308  19.659  18.581  11.120
74213W        W33309  10.865  30.461  13.997
74214W        W33310   5.211  18.129  13.499
74215W        W33311  12.266   8.743   0.885
74216W        W33312  13.203  42.784  13.488
74217W        W33313  15.322  18.256  10.004
74218W        W33314  25.533  44.323  13.334
74219W        W33315   2.313  34.451   4.834
74220W        W33316  22.138  13.699  12.503
74221W        W33317  11.639  43.351  14.426
74222W        W33318  38.932  40.374  12.093
74223W        W33319   0.260  34.451  11.897
74224W        W33320  10.357  11.623   3.759
74225W        W33321  10.686  21.515  13.500
74226W        W33322  16.264  10.662   1.807
74227W        W33323  23.991  34.520  12.890
74228W        W33324  30.134   1.931   1.849
74229W        W33325  33.391  40.439   1.253
74230W        W33326   0.766  33.920  13.812
74231W        W33327  24.044  37.957   1.288
74232W        W33328  37.987  38.915  13.366
74233W        W33329  21.604  22.708   3.347
74234W        W33330  17.304   2.905   3.283
74235W        W33331  26.693  31.061  11.929
74236W        W33332  44.851  16.709  12.458
74237W        W33333  11.310  30.591  10.049
74238W        W33334   1.733  40.501  10.945
74239W        W33335  44.438  25.157  13.857
74240W        W33336   3.386   9.696  13.026
74241W        W33337   9.767  28.128   3.148
74242W        W33338  29.063   2.967  11.560
74243W        W33339   4.908  40.030   0.334
74244W        W33340  39.550  21.554  13.357
74245W        W33341   1.748  31.072  12.427
74246W        W33342   3.949  15.718  11.393
74247W        W33343  39.995  17.716  13.468
74248W        W33344  29.638  15.113  13.948
74249W        W33345  14.129  10.179   4.273
74250W        W33346  32.013   0.345  14.012
74251W        W33347  34.445   1.761  10.490
74252W        W33348  42.369   4.731   1.927
74253W        W33349   7.309  22.693  13.831
74254W        W33350  37.031  41.932   4.793
74255W        W33351   3.431   0.494  12.833
74256W        W33352   6.276   9.372  12.568
74257W        W33353  10.664  35.480   2.676
74258W        W33354   6.399  44.304   0.785
74259W        W33355   5.699  44.799   0.746
74260W        W33356  14.260   7.350  11.977
74261W        W33357  13.719  21.092   2.678
74262W        W33358   9.835  20.699  14.420
74263W        W33359  39.341   3.239   5.113
74264W        W33360  29.168  43.991  11.060
74265W        W33361  11.695   4.831  12.553
74266W        W33362  21.096  43.964   1.931
74267W        W33363  16.318  17.717   2.294
74268W        W33364  28.994  42.318  13.486
74269W        W33365   1.306  13.714   4.343
74270W        W33366   0.955  19.616   1.387
74271W        W33367  36.880  20.068  11.584
74272W        W33368  29.564  32.487  12.482
74273W        W33369  18.677  35.078  11.399
74274W        W33370  36.920   0.302  11.047
74275W        W33371  42.812  12.252  11.001
74276W        W33372  33.583  37.359  14.395
74277W        W33373  15.710   3.237   4.273
74278W        W33374  43.020  27.479   0.316
74279W        W33375  42.429  26.985   3.666
74280W        W33376  40.456   6.202  13.991
74281W        W33377   7.812  40.929   2.896
74282W        W33378  27.990  29.608   0.458
74283W        W33379  40.437  32.886  12.041
74284W        W33380  24.693  10.218  11.949
74285W        W33381  29.477  11.860   1.900
74286W        W33382  31.602  42.881   0.786
74287W        W33383  36.943   2.751  12.399
74288W        W33384   5.821  14.145  10.640
74289W        W33385  38.911  42.447  14.836
74290W        W33386  10.267  43.875  11.965
74291W        W33387   2.749   0.985  14.827
74292W        W33388   3.311  42.818  11.068
74293W        W33389  32.998  37.977  11.504
74294W        W33390  10.268  22.036  14.279
74295W        W33391  43.010  37.525  11.023
74296W        W33392  15.157  34.089  13.517
74297W        W33393  32.540  19.566  12.451
74298W        W33394  37.364  11.195   2.783
74299W        W33395   6.291  36.908  14.889
74300W        W33396  35.918  32.886   0.736
74301W        W33397  20.706  39.832  13.989
74302W        W33398   5.300   0.368   4.656
74303W        W33399  23.682  13.122   4.779
74304W        W33400  29.641  25.109   0.341
74305W        W33401  40.839   0.413  14.010
74306W        W33402  36.869  36.413   4.332
74307W        W33403  41.459   1.959  11.044
74308W        W33404  37.924   9.299  12.085
74309W        W33405  43.935  15.288   2.874
74310W        W33406  27.513  22.247  12.983
74311W        W33407  35.591  20.125   2.335
74312W        W33408  35.960   8.211   4.201
74313W        W33409  23.613  12.143  14.360
74314W        W33410  31.002  27.545  11.050
74315W        W33411  26.559  21.742   3.803
74316W        W33412  36.526   8.258  11.602
74317W        W33413  15.816   2.300   3.798
74318W        W33414  38.883  38.854   1.402
74319W        W33415  30.642   7.787   5.293
74320W        W33416  19.096  15.585   4.613
74321W        W33417  36.443  35.982   4.176
74322W        W33418  40.873   5.224  13.825
74323W        W33419  32.020  22.206   1.810
74324W        W33420  27.094   0.982  12.443
74325W        W33421  31.044  28.104   4.729
74326W        W33422  29.925   8.817  13.395
74327W        W33423   2.366  28.530  12.011
74328W        W33424  16.131  18.068  11.568
74329W        W33425  28.570  27.635  11.012
74330W        W33426  38.507  10.661  13.410
74331W        W33427  29.462  24.198  11.072
74332W        W33428   3.914  12.773  13.967
74333W        W33429  10.816   0.817  13.858
74334W        W33430  38.463   2.363   4.642
74335W        W33431   8.791  21.610  11.386
74336W        W33432  12.127  26.480   5.182
74337W        W33433  30.638  40.531  13.378
74338W        W33434  35.575  30.946  10.572
74339W        W33435   5.912  39.964   1.364
74340W        W33436   3.880  15.606   5.254
74341W        W33437  13.217  25.583  14.446
74342W        W33438   9.735  37.015  11.043
74343W        W33439  32.435  42.516  11.522
74344W        W33440  36.584   8.278   1.710
74345W        W33441  36.472  16.282   4.769
74346W        W33442  37.872  42.958  14.311
74347W        W33443  35.107  31.434  11.525
74348W        W33444  30.483  30.909   2.383
74349W        W33445  29.538  24.603  11.385
74350W        W33446  15.635  15.789  14.385
74351W        W33447  30.548  20.590  14.869
74352W        W33448  25.179   4.844  10.558
74353W        W33449  31.497  28.472   2.668
74354W        W33450  12.230  17.255   5.249
74355W        W33451  40.442   6.759  12.843
74356W        W33452   4.753  42.452  12.474
74357W        W33453  34.873  28.071   1.241
74358W        W33454  39.375  18.255   3.272
74359W        W33455  25.108  25.541   0.932
74360W        W33456  38.989  23.062  14.434
74361W        W33457   0.483  11.184   0.892
74362W        W33458  33.121  14.679   0.323
74363W        W33459   1.299   7.229  12.042
74364W        W33460   7.176  14.669   0.260
74365W        W33461  27.600  13.696  14.770
74366W        W33462  44.968  32.006   2.338
74367W        W33463  28.465  36.348  11.864
74368W        W33464  11.229  41.850   1.363
74369W        W33465   0.908  18.571  13.386
74370W        W33466  19.229  17.135   0.317
74371W        W33467  26.116  28.975  14.830
74372W        W33468   0.272  21.612   2.306
74373W        W33469  15.215  32.056   3.272
74374W        W33470  18.755  28.578  11.941
74375W        W33471  44.262  10.322  12.472
74376W        W33472  17.133   5.746   1.726
74377W        W33473  17.192  43.911  12.418
74378W        W33474  32.046  33.595  11.030
74379W        W33475  33.050  13.631   0.732
74380W        W33476  30.097   1.946  14.866
74381W        W33477  24.593  38.452   1.216
74382W        W33478  35.933  25.470  10.637
74383W        W33479  21.748  18.140  14.022
74384W        W33480  13.720  44.487   0.945
74385W        W33481   5.859  19.665  11.575
74386W        W33482   8.898  26.585  11.097
74387W        W33483  36.956   0.983  14.805
74388W        W33484  12.670   2.904  14.284
74389W        W33485   4.816  27.032   3.199
74390W        W33486  36.374  21.215  10.481
74391W        W33487  32.071   0.291  10.041
74392W        W33488  25.050   1.295   0.949
74393W        W33489  44.277   3.711   0.335
74394W        W33490  10.780  11.293  10.492
74395W        W33491  32.568  30.519   3.243
74396W        W33492   5.295  13.217  12.911
74397W        W33493  36.900  44.384  13.024
74398W        W33494  10.159  10.321  12.363
74399W        W33495  15.126   6.370  11.921
74400W        W33496  10.823   4.304  13.040
74401W        W33497   1.827  43.996  10.954
74402W        W33498   4.268  26.623  12.018
74403W        W33499  24.527  41.899   2.412
74404W        W33500  12.852  18.755  13.482
74405W        W33501  28.600  42.859  13.044
74406W        W33502  29.148  20.106  12.556
74407W        W33503   8.779  22.180  12.451
74408W        W33504  13.724  30.087  14.924
74409W        W33505  36.358  37.008  12.432
74410W        W33506   3.836  35.466  10.619
74411W        W33507  17.211  20.269  12.919
74412W        W33508  33.906   3.262   1.932
74413W        W33509  22.609  15.727  11.526
74414W        W33510  33.874  33.060  11.063
74415W        W33511  30.455  40.928  11.015
74416W        W33512   9.161  31.465  13.892
74417W        W33513  25.145   5.862  13.349
74418W        W33514  43.774  40.903  12.529
74419W        W33515  31.071  15.649   0.859
74420W        W33516  29.060  33.396  13.811
74421W        W33517  15.232  22.745  11.126
74422W        W33518  28.058   5.315  13.043
74423W        W33519  30.985   1.802  12.468
74424W        W33520  44.885   6.706  12.567
74425W        W33521  25.678  17.600   0.917
74426W        W33522  37.076  23.002   3.237
74427W        W33523   4.775  10.816  11.549
74428W        W33524  20.145   6.259  10.448
74429W        W33525  20.566  22.246  12.458
74430W        W33526  10.138  16.710  11.987
74431W        W33527  17.635   7.838  10.505
74432W        W33528   3.217  29.947   1.428
74433W        W33529  39.955  41.360   4.214
74434W        W33530  18.706  34.928   2.689
74435W        W33531  37.528  41.475   0.264
74436W        W33532  17.675  17.594  11.551
74437W        W33533  27.028  23.556  12.023
74438W        W33534  29.525  12.290   4.181
74439W        W33535  14.334   6.818  13.923
74440W        W33536  42.335  20.536  11.608
74441W        W33537  41.411   6.793  13.878
74442W        W33538  25.535  12.361   0.305
74443W        W33539   8.330  13.662  14.761
74444W        W33540  12.129   5.883  14.433
74445W        W33541  31.019  21.163  11.013
74446W        W33542  33.588   6.710  13.912
74447W        W33543  18.550  24.622   4.181
74448W        W33544  12.285  16.699   1.920
74449W        W33545   9.705  39.547   3.665
74450W        W33546  44.316  42.341   3.145
74451W        W33547  43.271  35.427  14.496
74452W        W33548  43.885  36.544  12.834
74453W        W33549   8.899  10.252  12.529
74454W        W33550  12.193  37.428  13.509
74455W        W33551  12.635   9.170   0.274
74456W        W33552  33.457  42.375   3.768
74457W        W33553  11.741   5.343  11.963
74458W        W33554  32.131  10.870   4.119
74459W        W33555  13.712  37.005  10.467
74460W        W33556   0.399  43.889  14.361
74461W        W33557  31.927  30.624  11.433
74462W        W33558   8.656   4.208   2.411
74463W        W33559  20.172  28.062   1.417
74464W        W33560  17.096   1.408   4.720
74465W        W33561  22.138  30.946  11.093
74466W        W33562  40.967  29.078   0.771
74467W        W33563  33.940  21.173  11.592
74468W        W33564   9.349  40.380  14.949
74469W        W33565  25.008   5.792  11.998
74470W        W33566   1.242  13.311  13.793
74471W        W33567  21.163  11.261  14.467
74472W        W33568   4.760  25.697  14.014
74473W        W33569  10.636  36.488  10.613
74474W        W33570   3.302  42.779   0.796
74475W        W33571  36.010  37.527   4.838
74476W        W33572   7.208  21.696  11.595
74477W        W33573  26.197   5.751  11.118
74478W        W33574  16.243  19.570   2.873
74479W        W33575  27.483   3.747   1.353
74480W        W33576   9.818   6.721  10.489
74481W        W33577  19.104  22.067  13.954
74482W        W33578  16.132  33.108  13.946
74483W        W33579  33.933  21.236   4.150
74484W        W33580  33.522  22.721  10.613
74485W        W33581  10.852   0.863   0.904
74486W        W33582  19.072  28.653  12.545
74487W        W33583  36.971  36.933   4.638
74488W        W33584  30.002  38.414  14.985
74489W        W33585  15.095  10.177  14.351
74490W        W33586  38.076  36.581   2.754
74491W        W33587  38.471  22.229   2.335
74492W        W33588  27.194  40.459   3.781
74493W        W33589  35.987  10.852   2.850
74494W        W33590  34.587  32.523   0.750
74495W        W33591   0.281  20.207   1.904
74496W        W33592  40.043  13.834   2.873
74497W        W33593   9.200  32.449  11.034
74498W        W33594   5.749  44.310  14.422
74499W        W33595  43.294   5.803  13.900
74500W        W33596  28.574  38.507  14.968
74501W        W33597   4.234  19.592  13.042
74502W        W33598  44.975  44.801   1.835
74503W        W33599  41.368  38.995   0.358
74504W        W33600  25.109   7.277  13.458
74505W        W33601  15.196  23.018  11.434
74506W        W33602  19.161  40.364  11.564
74507W        W33603   0.338  33.925   3.857
74508W        W33604  33.961  36.006  13.402
74509W        W33605  28.933  17.230  14.430
74510W        W33606  30.540  15.729   1.735
74511W        W33607  25.655  38.350   1.783
74512W        W33608   3.933  36.572  13.839
74513W        W33609  11.350  17.693   9.998
74514W        W33610   5.348  17.696   3.826
74515W        W33611  10.314   1.917   5.270
74516W        W33612  19.246  17.100   4.249
74517W        W33613   3.720  30.639   3.379
74518W        W33614  29.646  18.683  11.043
74519W        W33615   8.403  31.985  10.983
74520W        W33616  21.673  14.703   2.817
74521W        W33617  28.036  13.677   0.754
74522W        W33618   6.389  24.624   1.246
74523W        W33619  16.100   6.414   0.284
74524W        W33620  35.369  41.827   1.806
74525W        W33621  19.645  21.592   2.180
74526W        W33622  44.274  39.549   3.691
74527W        W33623  17.718  38.882  12.575
74528W        W33624   7.270  20.208   4.655
74529W        W33625  32.926  40.884  14.411
74530W        W33626  43.832  44.427   2.848
74531W        W33627  19.671   0.444  12.976
74532W        W33628  11.278  15.120   3.810
74533W        W33629   4.343  30.027  11.516
74534W        W33630  22.548  37.525   2.254
74535W        W33631  33.907  40.387  10.981
74536W        W33632  16.313  21.118   4.196
74537W        W33633  44.941  38.919   4.297
74538W        W33634  24.110   1.926  14.464
74539W        W33635  14.832  25.044  14.824
74540W        W33636  32.452  42.931  11.013
74541W        W33637   6.898  33.465   4.629
74542W        W33638  30.056  10.245  13.948
74543W        W33639  28.660  36.014   4.221
74544W        W33640  18.056  43.503  11.022
74545W        W33641   9.284  16.584   0.388
74546W        W33642  38.865  27.983   4.615
74547W        W33643   9.303  34.526   4.224
74548W        W33644  32.528  24.628   3.648
74549W        W33645  12.129  10.240  12.544
74550W        W33646  19.729  23.120  13.989
74551W        W33647  39.920  37.069  11.923
74552W        W33648  12.359   0.835   2.784
74553W        W33649   6.298  43.417   0.386
74554W        W33650  13.808  33.422  11.492
74555W        W33651  33.913   8.844   2.884
74556W        W33652  31.062  14.155   3.268
74557W        W33653   2.844  15.212  14.796
74558W        W33654  28.551   8.793  14.365
74559W        W33655  36.428  13.754   1.330
74560W        W33656  39.440   6.319  10.455
74561W        W33657   6.748  22.075   9.672
74562W        W33658  25.058  22.530   5.152
74563W        W33659  14.330  18.738   3.660
74564W        W33660  43.284  41.852  10.502
74565W        W33661  23.032  10.357   4.181
74566W        W33662  40.516  21.604  11.861
74567W        W33663  16.094  28.660   2.215
74568W        W33664  39.352   7.702  14.882
74569W        W33665  20.030   5.363   1.253
74570W        W33666  39.027  17.079  13.868
74571W        W33667  11.150   7.337  11.017
74572W        W33668   9.246  32.587   2.338
74573W        W33669  34.519   9.180  11.537
74574W        W33670  11.178   9.814  13.019
74575W        W33671  41.843  26.119   0.936
74576W        W33672  31.467  11.651   4.143
74577W        W33673   0.366  43.466  12.003
74578W        W33674  39.930  16.090  13.309
74579W        W33675  37.340  10.200  12.485
74580W        W33676  28.509  39.044   4.179
74581W        W33677  17.210  10.738   1.368
74582W        W33678  34.934  33.117  11.439
74583W        W33679  28.642   0.348   2.416
74584W        W33680  26.512  18.172  13.812
74585W        W33681  33.576   8.838  10.049
74586W        W33682  30.473  13.708  12.564
74587W        W33683  28.182   4.866  11.458
74588W        W33684   0.962  39.342   4.646
74589W        W33685  42.025  11.247  11.393
74590W        W33686  40.332  17.197  11.032
74591W        W33687  20.543  24.649   1.344
74592W        W33688  15.769  29.458   4.251
74593W        W33689  21.233  41.479  14.386
74594W        W33690  18.676  40.893   5.203
74595W        W33691  25.137   0.249   3.819
74596W        W33692   3.294  39.907  12.985
74597W        W33693  38.067  19.105   1.289
74598W        W33694   2.849  30.429  12.860
74599W        W33695  14.289  18.790   0.734
74600W        W33696  11.219  26.189   2.775
74601W        W33697   9.379  10.772   3.793
74602W        W33698  35.099  42.972   1.260
74603W        W33699   0.777  15.249  13.805
74604W        W33700   5.930  34.599   3.207
74605W        W33701  43.508  38.844   0.860
74606W        W33702  33.058   8.392  11.986
74607W        W33703   2.327  43.279  11.527
74608W        W33704  25.179   6.842  13.460
74609W        W33705  11.844  26.587   4.337
74610W        W33706  36.077   7.886  12.978
74611W        W33707  12.637   2.810  13.938
74612W        W33708   2.344  11.150   9.928
74613W        W33709  17.214  41.439  10.638
74614W        W33710   2.248  27.997   0.868
74615W        W33711  13.611  41.319  13.432
74616W        W33712  20.059  34.113  12.036
74617W        W33713  44.979  23.122   2.760
74618W        W33714   8.194  32.511   2.716
74619W        W33715  38.421   4.204   3.341
74620W        W33716  15.202   1.313  13.002
74621W        W33717  20.230  15.647   2.388
74622W        W33718  34.395  29.470  10.549
74623W        W33719   0.778  28.493  13.875
74624W        W33720  41.816  41.406   4.636
74625W        W33721   5.246  44.939  13.792
74626W        W33722   0.983  32.964   4.819
74627W        W33723   6.901  11.190  11.567
74628W        W33724  18.214  20.587   0.909
74629W        W33725  35.934   5.198   3.359
74630W        W33726   0.259   3.842   3.659
74631W        W33727  41.507  18.142  10.466
74632W        W33728  31.471  15.316   1.832
74633W        W33729   3.711  20.133   2.705
74634W        W33730  19.750  28.019   1.782
74635W        W33731  29.977  42.477  12.019
74636W        W33732  17.661  21.139  12.949
74637W        W33733  35.982  20.769  10.566
74638W        W33734  11.863  19.656   1.326
74639W        W33735   7.768  30.938   3.220
74640W        W33736  10.377  38.969   5.319
74641W        W33737   4.761  24.134  14.467
74642W        W33738  35.502  26.150   2.795
74643W        W33739   8.279  39.967   4.231
74644W        W33740  34.439  28.138  11.520
74645W        W33741   5.690  11.319  10.465
74646W        W33742  29.000  23.149   3.362
74647W        W33743  11.315  15.110   2.214
74648W        W33744  28.979  13.168   4.331
74649W        W33745  14.738  39.507   0.420
74650W        W33746   3.955  32.022  13.441
74651W        W33747  17.095  21.083   1.766
74652W        W33748   3.327  38.971  10.455
74653W        W33749  10.160  35.039   2.886
74654W        W33750   9.227  24.122   1.902
74655W        W33751  18.747  36.093   0.890
74656W        W33752  10.651  41.038   2.879
74657W        W33753  12.844  25.021   0.434
74658W        W33754  21.230  18.292  13.054
74659W        W33755  20.536  25.111  10.630
74660W        W33756  44.381  17.678   1.344
74661W        W33757  17.725  41.930   1.739
74662W        W33758   6.293  39.980   4.774
74663W        W33759  38.507  27.528   2.879
74664W        W33760  29.935   2.300  13.913
74665W        W33761  21.100  36.504  14.316
74666W        W33762   7.326  15.589   5.204
74667W        W33763  44.909  27.586   4.611
74668W        W33764  35.006  22.024  11.388
74669W        W33765   8.666  39.497   1.703
74670W        W33766  21.531  38.855  12.838
74671W        W33767  21.575  32.400  14.315
74672W        W33768  32.504  38.500  14.499
74673W        W33769  21.630   3.884   1.722
74674W        W33770  17.098  40.054  13.438
74675W        W33771   5.260  28.185  12.943
74676W        W33772  21.566  19.212   2.807
74677W        W33773   9.735  33.551   2.758
74678W        W33774   2.236  35.533   3.172
74679W        W33775  17.624   4.303   1.417
74680W        W33776  14.156  14.216   3.766
74681W        W33777  19.214  44.798   0.354
74682W        W33778   0.385  27.986   4.613
74683W        W33779  17.300  15.724  10.938
74684W        W33780  10.333  44.419  12.533
74685W        W33781   2.274  25.503   2.798
74686W        W33782  22.096  19.195  10.139
74687W        W33783  20.575   7.262   5.733
74688W        W33784   1.777  13.138  13.525
74689W        W33785  28.478  16.246  12.894
74690W        W33786  38.369   7.724   4.165
74691W        W33787  41.024  23.018   4.299
74692W        W33788  25.972  22.193  10.508
74693W        W33789   5.398  43.846   1.347
74694W        W33790  35.514  22.524   4.685
74695W        W33791  42.392   1.340   2.793
74696W        W33792  12.824  10.300  14.013
74697W        W33793  40.888   7.810   0.854
74698W        W33794  22.588   7.688   1.413
74699W        W33795   4.942  31.461   3.762
74700W        W33796  37.413   5.352   4.838
74701W        W33797  38.858  38.541  11.474
74702W        W33798  44.765  29.059   0.819
74703W        W33799  27.543  43.011   0.435
74704W        W33800  12.230  10.858  13.863
74705W        W33801   7.385  10.861  13.543
74706W        W33802  17.184   3.374  10.946
74707W        W33803  44.888  15.636   0.881
74708W        W33804   4.928   9.845   4.302
74709W        W33805  31.471  28.488   1.736
74710W        W33806  10.269  20.689  13.507
74711W        W33807  31.083   7.379  12.975
74712W        W33808  32.009  21.096  11.448
74713W        W33809   6.760  19.657   2.831
74714W        W33810  42.367  18.774  12.832
74715W        W33811   2.310  14.240  13.030
74716W        W33812  42.900  31.979  12.913
74717W        W33813  23.663   0.301  12.096
74718W        W33814  11.756  28.631   3.693
74719W        W33815  30.542  13.150  12.964
74720W        W33816  24.005   5.739  11.904
74721W        W33817  26.078  23.545  11.384
74722W        W33818  27.617  37.862   2.379
74723W        W33819  39.010  34.913   1.746
74724W        W33820  30.576   3.280  11.073
74725W        W33821   9.859  41.489  11.471
74726W        W33822  20.554  21.543   0.258
74727W        W33823  29.132  22.538   3.732
74728W        W33824  36.347   2.430   2.863
74729W        W33825  39.816  36.538   1.373
74730W        W33826  25.021  18.254   1.392
74731W        W33827  18.114  29.460  10.513
74732W        W33828  29.586  10.148  14.005
74733W        W33829  17.631  38.435  13.378
74734W        W33830   6.739  22.567   5.092
74735W        W33831  23.029   4.936   3.857
74736W        W33832  30.524  36.397   1.885
74737W        W33833  18.697  19.595   2.225
74738W        W33834  25.121  34.022   0.732
74739W        W33835  13.717  10.870  11.463
74740W        W33836   5.315  29.659   1.776
74741W        W33837  25.013   7.866   0.733
74742W        W33838  15.278   6.366   0.483
74743W        W33839   1.362  28.029   4.605
74744W        W33840  34.026  30.432  13.922
74745W        W33841  11.712  36.539   2.378
74746W        W33842   7.355  35.554   3.733
74747W        W33843  39.995   1.424  12.018
74748W        W33844   1.768   4.269  14.012
74749W        W33845  31.570  14.622  11.882
74750W        W33846   7.252   6.399  11.042
74751W        W33847  37.856  29.621  11.012
74752W        W33848   6.301  22.586  14.964
74753W        W33849  32.903  31.085  11.402
74754W        W33850  38.052  10.639  14.932
74755W        W33851  23.068   6.188  10.980
74756W        W33852   5.923   8.191  10.477
74757W        W33853  42.352  41.396  14.342
74758W        W33854   7.803   4.307   4.656
74759W        W33855  43.872   7.200   4.126
74760W        W33856  27.681  42.302  11.609
74761W        W33857  31.899  31.648  11.548
74762W        W33858  29.937  44.495   3.842
74763W        W33859  15.772  31.996   3.862
74764W        W33860  36.446  23.998   0.916
74765W        W33861  26.538  43.940  11.120
74766W        W33862   5.368  43.324   3.294
74767W        W33863  40.831   1.283   3.804
74768W        W33864   2.328  42.363   4.348
74769W        W33865  33.394  40.350   4.139
74770W        W33866  31.551   4.324   3.151
74771W        W33867  15.693  14.275  13.518
74772W        W33868  39.901  25.470  14.325
74773W        W33869   2.328   5.860  12.566
74774W        W33870  16.668  42.435   4.673
74775W        W33871   9.801  30.439  14.886
74776W        W33872   6.339  31.971   2.409
74777W        W33873  14.111  10.339   2.895
74778W        W33874  41.436  17.144   2.342
74779W        W33875  13.307  43.346  14.992
74780W        W33876  18.213   3.866   3.646
74781W        W33877  18.760   2.734  14.017
74782W        W33878  30.148  44.393  10.961
74783W        W33879  37.843  10.273   2.725
74784W        W33880  42.324  40.497   3.234
74785W        W33881  28.150  29.074  10.480
74786W        W33882  30.624  18.163  10.570
74787W        W33883  39.823  14.774   4.307
74788W        W33884  19.284   9.314   2.850
74789W        W33885   7.277   4.883  13.365
74790W        W33886  40.043  22.105   0.242
74791W        W33887   8.714   5.216   0.860
74792W        W33888  40.504  27.181  10.993
74793W        W33889  42.488   2.914  11.073
74794W        W33890   6.821  32.010   4.138
74795W        W33891  40.337  13.632  12.069
74796W        W33892  42.323  42.982   0.880
74797W        W33893  38.509  15.597   5.201
74798W        W33894  17.266  27.139   3.798
74799W        W33895  21.185  36.091   0.331
74800W        W33896  39.367  32.482   2.250
74801W        W33897   7.807  14.320  10.464
74802W        W33898  40.549   3.927   2.390
74803W        W33899  12.792  24.501   4.166
74804W        W33900   1.372  27.456  13.960
74805W        W33901  11.686  26.106  14.776
74806W        W33902   8.383  40.532  11.588
74807W        W33903   2.358  31.640   2.180
74808W        W33904   7.175  24.722   0.246
74809W        W33905   7.230   8.681   4.714
74810W        W33906   4.935  12.649   4.156
74811W        W33907  11.796  16.166   0.748
74812W        W33908  35.512  28.182   3.260
74813W        W33909  42.016  18.098   0.855
74814W        W33910  44.895  44.477  13.859
74815W        W33911  21.516  26.677   0.962
74816W        W33912  16.679  17.214   4.331
74817W        W33913  20.638  10.180   0.315
74818W        W33914   3.297  40.456   3.697
74819W        W33915  38.510  27.062   4.690
74820W        W33916  34.520  28.066   2.772
74821W        W33917  38.980  33.025   3.271
74822W        W33918  33.888  17.089   4.760
74823W        W33919  33.088   8.232  14.468
74824W        W33920  13.682  23.693  10.625
74825W        W33921  22.621   2.810   1.765
74826W        W33922  11.132   7.320   3.802
74827W        W33923   1.449  27.508  11.447
74828W        W33924  36.541  13.800   0.326
74829W        W33925  31.618  34.552   3.189
74830W        W33926   5.430  10.248   3.146
74831W        W33927  38.417  32.621   3.238
74832W        W33928  18.090  32.101   3.340
74833W        W33929  10.645  38.941   3.264
74834W        W33930  18.598  24.106   5.286
74835W        W33931  25.164  16.568  11.386
74836W        W33932  23.028  30.047   1.323
74837W        W33933  29.620   6.403   3.263
74838W        W33934  39.911  30.548   0.892
74839W        W33935  28.454  11.858  11.488
74840W        W33936   8.825  31.952  10.142
74841W        W33937   2.268  15.109   2.367
74842W        W33938  32.102  24.041  13.411
74843W        W33939   3.732  25.503   5.186
74844W        W33940  13.761  14.593   4.740
74845W        W33941   9.232  26.066  13.792
74846W        W33942  39.883  36.081   3.760
74847W        W33943  23.565   5.383  10.557
74848W        W33944  44.931  41.510  12.450
74849W        W33945  33.560   8.226   1.765
74850W        W33946   3.940   7.769   1.260
74851W        W33947  37.544   3.790  12.864
74852W        W33948  27.516  30.470   2.892
74853W        W33949  30.426  11.298  14.994
74854W        W33950  44.280  29.523   5.257
74855W        W33951  14.313   1.445   3.386
74856W        W33952  34.871  23.134  14.866
74857W        W33953  16.679  36.048  12.858
74858W        W33954   7.276  35.445  12.856
74859W        W33955  32.010   3.235   2.199
74860W        W33956  41.520  25.135  10.535
74861W        W33957  42.812  17.221   0.443
74862W        W33958  28.066   9.148   3.178
74863W        W33959  21.709   8.184   0.912
74864W        W33960  41.839  12.732  12.463
74865W        W33961  16.594  39.454   0.801
74866W        W33962  15.328  10.751   0.379
74867W        W33963  36.050  17.695  12.069
74868W        W33964   4.444  44.269   2.776
74869W        W33965  25.706   3.323   1.364
74870W        W33966   2.881   2.251   2.743
74871W        W33967   6.365  40.397   3.787
74872W        W33968   3.268  35.103  14.826
74873W        W33969   6.819  34.099  11.513
74874W        W33970  22.634   9.826   1.891
74875W        W33971  10.861  33.429   2.818
74876W        W33972   5.408  26.641  14.478
74877W        W33973  12.684  22.550   2.833
74878W        W33974  37.003  42.028  13.809
74879W        W33975  30.964  19.230   4.788
74880W        W33976  41.525  44.847   1.328
74881W        W33977  32.101  44.447   2.255
74882W        W33978   7.173  27.593  12.478
74883W        W33979  25.478  32.973   2.699
74884W        W33980  28.974  34.585   4.347
74885W        W33981  23.222  42.973  12.052
74886W        W33982   1.846   0.967  12.012
74887W        W33983  33.070  26.177   1.816
74888W        W33984   6.809  19.083  14.965
74889W        W33985  43.842  29.601  10.945
74890W        W33986  44.850  42.958  13.016
74891W        W33987  14.335  18.677  11.562
74892W        W33988  14.227   7.894  10.968
74893W        W33989  22.122  13.196  13.838
74894W        W33990  10.273  43.980   1.419
74895W        W33991  37.854   9.852   3.866
74896W        W33992  20.028   7.232  13.544
74897W        W33993  25.642  28.530   3.818
74898W        W33994  14.807   8.762  13.389
74899W        W33995  12.224  15.303   0.909
74900W        W33996   1.798  33.072  12.484
74901W        W33997  44.385  44.886  14.340
74902W        W33998  41.490  29.646  10.897
74903W        W33999  43.275  11.172  13.309
74904W        W34000  29.628   0.330  11.576
74905W        W34001  13.339  10.824  13.842
74906W        W34002   2.829  22.010  12.347
74907W        W34003  20.200  22.056  13.028
74908W        W34004   5.887  27.158  14.911
74909W        W34005  30.047   0.859  13.831
74910W        W34006  32.500   1.279   4.645
74911W        W34007   9.841   5.317  12.439
74912W        W34008  35.539  28.956  14.370
74913W        W34009  25.019  32.988  14.476
74914W        W34010  36.863   6.252  13.986
74915W        W34011  30.499  37.026   4.243
74916W        W34012  40.502   9.363   2.899
74917W        W34013  27.525  14.101   4.127
74918W        W34014  12.618  24.719  11.033
74919W        W34015  13.626   1.458   4.135
74920W        W34016  17.118  27.445  12.481
74921W        W34017   3.428  11.853  13.531
74922W        W34018   2.351  21.565   1.771
74923W        W34019   5.863   3.407  10.409
74924W        W34020  17.116  40.438  10.893
74925W        W34021   2.416   3.930   1.877
74926W        W34022  36.522   4.701  14.440
74927W        W34023  16.687  20.184   0.425
74928W        W34024  32.954   2.228  14.859
74929W        W34025  35.476  43.864   3.644
74930W        W34026  10.153  42.525  14.486
74931W        W34027   6.772  34.611   2.803
74932W        W34028  13.640   1.379   0.736
74933W        W34029  17.625   5.434  13.896
74934W        W34030  25.473  40.402   1.923
74935W        W34031  16.798  41.010   1.350
74936W        W34032   0.383  21.554   1.285
74937W        W34033   7.672   6.824   4.610
74938W        W34034  21.098  28.046   3.856
74939W        W34035   8.814  21.176  14.373
74940W        W34036  26.620  16.226  11.855
74941W        W34037   3.436  38.916   1.446
74942W        W34038   9.292  33.011   4.192
74943W        W34039  22.026  18.080  11.903
74944W        W34040  40.441  33.616  12.518
74945W        W34041  22.605   7.776  12.547
74946W        W34042  35.914  17.561   3.265
74947W        W34043  38.845  32.458   1.722
74948W        W34044   7.335  38.034   3.160
74949W        W34045  31.106   1.756  14.957
74950W        W34046  30.988  36.990  13.530
74951W        W34047  11.630  43.328  12.874
74952W        W34048  29.433   5.760   2.896
74953W        W34049  20.160  16.218  14.932
74954W        W34050   5.224  27.949   0.329
74955W        W34051   4.250  12.830  14.962
74956W        W34052  13.773  18.076  14.299
74957W        W34053  22.536  26.007   4.661
74958W        W34054  28.111  16.140   1.760
74959W        W34055  39.401   9.204  12.433
74960W        W34056  40.844  35.394   2.858
74961W        W34057  33.436   2.879  14.468
74962W        W34058  14.148  32.037  12.389
74963W        W34059  44.784  31.947   1.344
74964W        W34060  13.743  10.184   4.716
74965W        W34061  32.901   1.246  12.978
74966W        W34062  11.257  31.941  11.573
74967W        W34063  32.953  28.120  14.868
74968W        W34064  40.546  25.070  11.378
74969W        W34065  29.118   1.406  11.870
74970W        W34066   5.326   7.341   1.920
74971W        W34067   0.942  12.236  10.447
74972W        W34068  43.467  24.123  12.933
74973W        W34069  27.041  21.624   0.248
74974W        W34070  15.141   7.866   3.203
74975W        W34071  33.381  29.641   0.407
74976W        W34072  44.444  13.781  13.011
74977W        W34073  28.510  27.455   0.377
74978W        W34074  12.771  39.863  11.983
74979W        W34075  38.533   7.908   1.817
74980W        W34076   3.417  24.691   1.895
74981W        W34077  38.450   3.262  13.817
74982W        W34078  41.882  18.230  12.558
74983W        W34079  40.861  20.709  10.615
74984W        W34080  37.988  31.534  11.564
74985W        W34081  40.869  28.642   3.706
74986W        W34082  22.006   1.949   2.331
74987W        W34083  12.788  42.386   0.449
74988W        W34084   8.658  12.287   1.901
74989W        W34085  26.513  23.219  14.767
74990W        W34086   3.227   4.417   1.699
74991W        W34087  23.083   6.356   2.307
74992W        W34088  37.351   3.721   2.665
74993W        W34089  20.584  29.956  10.965
74994W        W34090  12.311  19.074  13.959
74995W        W34091  18.592  43.870   1.444
74996W        W34092  31.953  39.811  10.155
74997W        W34093  35.957   2.958  11.415
74998W        W34094  30.462  42.776  10.489
74999W        W34095  38.560  38.334  12.005
75000W        W34096  30.622  31.056   2.734
75001W        W34097   9.394   4.904  14.428
75002W        W34098  39.842  20.628  13.870
75003W        W34099  34.931  22.135   3.713
75004W        W34100  10.837  32.939  11.539
75005W        W34101  17.157  41.971  12.577
75006W        W34102   9.803  23.235   1.766
75007W        W34103  34.494  41.027  12.015
75008W        W34104  40.825  35.431   1.405
75009W        W34105  35.983  35.996  14.851
75010W        W34106  12.332   7.824   0.919
75011W        W34107  31.542  26.196  13.955
75012W        W34108   9.235  37.043  14.397
75013W        W34109  31.505   5.312   2.759
75014W        W34110  25.524  11.236   0.450
75015W        W34111   3.830  19.137   2.696
75016W        W34112   8.807  29.429  12.085
75017W        W34113  36.964   7.831  12.077
75018W        W34114  16.653   5.250   3.367
75019W        W34115   9.258  10.298   9.957
75020W        W34116  29.597   8.694  14.876
75021W        W34117  16.274   3.418  11.906
75022W        W34118  10.728  17.725  12.046
75023W        W34119  41.802  37.423  12.868
75024W        W34120  29.522  32.924   0.839
75025W        W34121  43.281  42.451  14.435
75026W        W34122   1.957  42.371  13.352
75027W        W34123  44.786  28.522   2.307
75028W        W34124  27.117  30.048  12.451
75029W        W34125  43.449   2.352   2.178
75030W        W34126  44.802   4.285  12.039
75031W        W34127  16.724  11.252  11.068
75032W        W34128  29.017  23.597   1.820
75033W        W34129  33.403  39.373  13.833
75034W        W34130   8.690  10.170   1.332
75035W        W34131  12.754  44.354  14.887
75036W        W34132  10.813   9.833   4.278
75037W        W34133   9.884  29.452   5.706
75038W        W34134  42.293  12.729  11.974
75039W        W34135  33.474  19.058   0.312
75040W        W34136  32.891  30.566   2.807
75041W        W34137  15.235  37.923  14.993
75042W        W34138  36.878  14.633  13.914
75043W        W34139   3.346   2.292   5.143
75044W        W34140   8.403  39.915   0.940
75045W        W34141  35.480  36.434  13.822
75046W        W34142  25.216  35.048   4.169
75047W        W34143  21.126   6.678   4.634
75048W        W34144  27.013  19.263   4.222
75049W        W34145  15.698  29.156   1.270
75050W        W34146  27.480  11.374  13.997
75051W        W34147  35.512  33.544  10.485
75052W        W34148   8.385   3.334  12.836
75053W        W34149  12.174  35.015   1.385
75054W        W34150  24.517  41.862   1.817
75055W        W34151   7.725  39.039   2.829
75056W        W34152  36.018  44.483  14.945
75057W        W34153  23.643  38.834   2.375
75058W        W34154   9.795   7.288   1.447
75059W        W34155  17.283  18.740   1.306
75060W        W34156  23.609  11.347   1.410
75061W        W34157  14.595  26.961   4.704
75062W        W34158  36.464  16.715   4.604
75063W        W34159   0.363  38.530  12.341
75064W        W34160  18.059  29.172   3.194
75065W        W34161   0.364  18.171   1.718
75066W        W34162  44.803  33.103   2.834
75067W        W34163  32.598   4.307   3.726
75068W        W34164  32.025  37.566  13.972
75069W        W34165  38.836  37.365  11.974
75070W        W34166  11.793  34.432  13.008
75071W        W34167   7.806  44.446  13.873
75072W        W34168   9.350   5.721   2.708
75073W        W34169   5.896  27.680   3.657
75074W        W34170   4.334  44.944  10.436
75075W        W34171  18.148   5.855  12.929
75076W        W34172  38.345   7.285   3.674
75077W        W34173   7.670  41.905  11.103
75078W        W34174  33.609  40.467   2.672
75079W        W34175  17.776   9.187  11.465
75080W        W34176  31.002  20.106   2.787
75081W        W34177  44.823   2.747   4.312
75082W        W34178  31.117  20.148   0.901
75083W        W34179  37.087  18.078   4.311
75084W        W34180  24.221  34.974   5.115
75085W        W34181  30.054  44.339  10.471
75086W        W34182  15.586  11.728   4.730
75087W        W34183   9.855  32.470   0.448
75088W        W34184  33.388  41.384   2.731
75089W        W34185   7.739   4.275  10.945
75090W        W34186  14.234   6.848  11.605
75091W        W34187   3.903  27.094   0.755
75092W        W34188  15.304   8.684  14.838
75093W        W34189   2.920  39.040   0.273
75094W        W34190  25.498  29.643  14.389
75095W        W34191  28.951  21.077  13.426
75096W        W34192  34.990  13.258   1.344
75097W        W34193  34.016  17.580  14.989
75098W        W34194  26.644  27.980  13.327
75099W        W34195  26.703  36.069   2.837
75100W        W34196  14.781  19.587  10.912
75101W        W34197  25.078  20.601   3.180
75102W        W34198  36.899  32.404   4.782
75103W        W34199  42.480  33.902   2.204
75104W        W34200  17.792  12.350  14.454
75105W        W34201  19.069  23.725  11.985
75106W        W34202  10.869  14.596   1.815
75107W        W34203   0.800  12.146   1.717
75108W        W34204  24.037  11.681   2.674
75109W        W34205  23.008  37.863   3.843
75110W        W34206  27.009  18.624   0.268
75111W        W34207  39.980  18.094   3.703
75112W        W34208  16.804  26.023   0.878
75113W        W34209   0.277  14.334   1.438
75114W        W34210   6.840  17.241   2.740
75115W        W34211  38.379  36.439  12.563
75116W        W34212  15.319  42.309  12.475
75117W        W34213   3.398  12.807   4.286
75118W        W34214  44.821  19.553  10.943
75119W        W34215  19.054  35.377  14.950
75120W        W34216  35.065   7.742   3.760
75121W        W34217  38.903   8.676   1.768
75122W        W34218   5.906   7.281   3.205
75123W        W34219  23.502  28.674  11.413
75124W        W34220  32.080   3.390  11.541
75125W        W34221  24.215  20.627  10.472
75126W        W34222  38.534  17.603  14.790
75127W        W34223  39.476   5.710  14.396
75128W        W34224  26.606  36.930   1.913
75129W        W34225  26.563  38.557  14.497
75130W        W34226   0.782   1.479   1.767
75131W        W34227  31.542  26.192  11.103
75132W        W34228  18.710  14.269  14.468
75133W        W34229  18.657   3.829  14.990
75134W        W34230  15.595  11.354   2.192
75135W        W34231   7.761  17.785   4.819
75136W        W34232  27.689  17.118  14.986
75137W        W34233   2.281  32.626  10.463
75138W        W34234  37.957  12.335   1.836
75139W        W34235  22.563  23.576   0.862
75140W        W34236  41.399  25.529  13.934
75141W        W34237  41.310  22.717  14.504
75142W        W34238  26.491   0.349   0.303
75143W        W34239   7.243  12.295   0.889
75144W        W34240  28.598  10.787   2.739
75145W        W34241  23.017   6.253  12.435
75146W        W34242  19.581  17.099   4.276
75147W        W34243  43.015  34.471   4.253
75148W        W34244  39.431  38.468   4.778
75149W        W34245  16.197  29.457   3.267
75150W        W34246  16.570  24.557   2.394
75151W        W34247   2.732  26.676   1.827
75152W        W34248  14.235  37.949   1.220
75153W        W34249  27.995  11.748   5.263
75154W        W34250  15.306  41.387   1.810
75155W        W34251  30.487  38.452   1.784
75156W        W34252   9.766  17.559   0.945
75157W        W34253  37.028   3.303  14.306
75158W        W34254  20.581  40.893   1.815
75159W        W34255  20.070  40.981   2.840
75160W        W34256  33.984  34.872   2.403
75161W        W34257  31.598   4.735  11.449
75162W        W34258  34.516  18.696   0.297
75163W        W34259  18.146  42.311   1.790
75164W        W34260  16.611   5.696   4.622
75165W        W34261  13.639  27.621   1.777
75166W        W34262  41.903  30.122   0.455
75167W        W34263  14.704   5.293   2.739
75168W        W34264  43.828  15.750   0.818
75169W        W34265  12.827  33.051  13.870
75170W        W34266   9.257  26.013   3.288
75171W        W34267  42.293  28.485  12.086
75172W        W34268  27.979  27.055  14.360
75173W        W34269  21.682  29.520  13.810
75174W        W34270  12.130  42.936   3.724
75175W        W34271  11.726  13.846   3.838
75176W        W34272  30.920   0.329  12.362
75177W        W34273  31.931  20.635   3.336
75178W        W34274  13.150  24.220   4.799
75179W        W34275  30.454  20.076   2.726
75180W        W34276  34.517  20.054  11.409
75181W        W34277  10.257  24.053  11.001
75182W        W34278   1.851   4.439   2.184
75183W        W34279  16.087  40.009   2.715
75184W        W34280  33.409  12.622  14.948
75185W        W34281  24.992  30.151   0.891
75186W        W34282  17.087  14.107  13.517
75187W        W34283  24.641  15.581   4.817
75188W        W34284  18.121  25.652   2.802
75189W        W34285   4.379  30.083   2.317
75190W        W34286  36.985  43.498   3.731
75191W        W34287  36.470  34.085   0.835
75192W        W34288  29.052  19.251  11.537
75193W        W34289  12.228   1.843   0.382
75194W        W34290  22.041  33.111  13.925
75195W        W34291  27.061  39.484   0.275
75196W        W34292  14.185  32.563   1.359
75197W        W34293  29.037  44.947  10.510
75198W        W34294  23.124  28.007   4.353
75199W        W34295  42.825   1.839   0.744
75200W        W34296   2.843   5.735  10.547
75201W        W34297  34.546  33.977  13.357
75202W        W34298   1.795  35.936   1.802
75203W        W34299  12.188   7.408   4.817
75204W        W34300  38.438  37.480   2.816
75205W        W34301  38.062  25.194   4.213
75206W        W34302  31.141  42.428   1.856
75207W        W34303   7.688  41.366  12.528
75208W        W34304   9.852  11.263  10.515
75209W        W34305  33.576  27.448  14.871
75210W        W34306  26.954  37.947   5.210
75211W        W34307  27.094  28.475  12.848
75212W        W34308  39.464  23.035  10.403
75213W        W34309  11.175  20.247  13.799
75214W        W34310   0.928  26.562  14.997
75215W        W34311  27.660  14.636   1.816
75216W        W34312  17.171  18.778   1.728
75217W        W34313  34.887  42.968   3.728
75218W        W34314  18.655   4.840  14.363
75219W        W34315   3.436  37.847   2.896
75220W        W34316  44.001   9.685  11.065
75221W        W34317  27.516  16.742   1.881
75222W        W34318  12.644  17.703  11.950
75223W        W34319  10.362  26.037  14.005
75224W        W34320  14.800   2.936   1.811
75225W        W34321  36.428  24.655   4.733
75226W        W34322  33.386  34.954  14.341
75227W        W34323  26.067  25.556   3.748
75228W        W34324  41.486  32.922  11.440
75229W        W34325  36.896  33.440  10.611
75230W        W34326  29.133  17.745   2.858
75231W        W34327  18.717   5.720   1.744
75232W        W34328  33.466  34.956   1.902
75233W        W34329  16.670  41.332  11.467
75234W        W34330  36.556  30.077  10.567
75235W        W34331  36.487  11.244   2.884
75236W        W34332  16.616  16.568   1.756
75237W        W34333   9.756   8.306   0.346
75238W        W34334  40.966  10.723  14.460
75239W        W34335  10.859  28.481  11.456
75240W        W34336  24.527   9.698  11.425
75241W        W34337  24.031  19.095  13.045
75242W        W34338   4.301  17.291   4.599
75243W        W34339  40.395  43.272   3.666
75244W        W34340  29.535   2.338  13.961
75245W        W34341  18.132  13.192   4.173
75246W        W34342  10.282  18.137  14.959
75247W        W34343  28.652  34.869  14.367
75248W        W34344  40.434   4.775   4.697
75249W        W34345  37.433   4.816  14.418
75250W        W34346  16.624  31.917   1.413
75251W        W34347  41.511  38.891  12.858
75252W        W34348   6.308  33.459   5.315
75253W        W34349  14.139  16.655   3.817
75254W        W34350  13.718  10.279  12.865
75255W        W34351   2.365  36.995  10.922
75256W        W34352  19.712  12.243   0.340
75257W        W34353  44.835  37.469   3.250
75258W        W34354  28.102  44.915  14.884
75259W        W34355  25.099  42.897   4.729
75260W        W34356   2.802  12.828   0.947
75261W        W34357  23.084  22.115  13.518
75262W        W34358  19.153  26.666  12.512
75263W        W34359  10.803  19.060   0.911
75264W        W34360  13.677  12.299   4.735
75265W        W34361  21.606  36.098   3.675
75266W        W34362  10.197  26.186  13.545
75267W        W34363  43.403   8.343   1.287
75268W        W34364  19.250  25.133   4.761
75269W        W34365  40.041  19.120  11.082
75270W        W34366  32.903  30.597   0.931
75271W        W34367  28.184  25.120  14.477
75272W        W34368  26.142  40.331  10.555
75273W        W34369   0.749  18.123  12.541
75274W        W34370   3.774  40.309   3.785
75275W        W34371   2.375  15.813  14.972
75276W        W34372  24.225  25.056   1.754
75277W        W34373  40.893  23.093  11.561
75278W        W34374  39.361   2.857   2.241
75279W        W34375  35.871  28.669   1.751
75280W        W34376  20.617  41.933  13.995
75281W        W34377  24.656  30.605   4.328
75282W        W34378   0.925  38.064   0.321
75283W        W34379  23.611  15.300  12.510
75284W        W34380  25.212  34.506  14.935
75285W        W34381   3.787  31.034  13.527
75286W        W34382  18.742  41.789  13.365
75287W        W34383  36.024  42.991   4.708
75288W        W34384  43.476  42.504  12.016
75289W        W34385  42.300  31.496  10.528
75290W        W34386  14.137   3.339   2.185
75291W        W34387  27.963  38.370  12.078
75292W        W34388  38.057  10.267   4.653
75293W        W34389  16.766  31.559   0.354
75294W        W34390  42.324  34.933  14.956
75295W        W34391   7.207   1.350   3.776
75296W        W34392  29.099  43.276  12.554
75297W        W34393   8.706  13.674  10.610
75298W        W34394   2.737   2.451   0.321
75299W        W34395   8.403   0.382  10.419
75300W        W34396   1.288  23.603   3.858
75301W        W34397  12.647  27.053  11.997
75302W        W34398  42.399  32.900  12.865
75303W        W34399  14.714  43.451  12.461
75304W        W34400  42.288  12.766   1.834
75305W        W34401  26.990  38.551   3.799
75306W        W34402  25.984   3.423   0.316
75307W        W34403  26.623  19.758  12.929
75308W        W34404  40.004  22.995   3.638
75309W        W34405  32.035  18.273   2.305
75310W        W34406  33.433  16.569  12.027
75311W        W34407  23.694  20.549  12.408
75312W        W34408  17.640  22.036   2.285
75313W        W34409  10.716  42.300  11.540
75314W        W34410  39.329  13.658   0.299
75315W        W34411  25.550  28.512   3.166
75316W        W34412  31.939   4.249  13.869
75317W        W34413  28.054   9.668  12.508
75318W        W34414   6.875  44.289  12.058
75319W        W34415  25.683  32.524   2.417
75320W        W34416  35.026  10.748  14.818
75321W        W34417  44.323  29.967   4.274
75322W        W34418  33.525  16.083  13.936
75323W        W34419  44.264   5.734   2.723
75324W        W34420  41.965  27.961  14.927
75325W        W34421  10.830  14.196   0.340
75326W        W34422  20.625   4.877  10.956
75327W        W34423  40.994  24.599  14.001
75328W        W34424  40.442  42.980  10.443
75329W        W34425  28.187  31.978  13.859
75330W        W34426  36.523   8.223   2.257
75331W        W34427  15.262  33.420   2.713
75332W        W34428   1.445  10.790  14.928
75333W        W34429  42.004   8.807  10.945
75334W        W34430  32.490  44.421   4.142
75335W        W34431  36.097  21.261  11.490
75336W        W34432  11.671  17.261   0.331
75337W        W34433  39.832  40.990   1.439
75338W        W34434  18.136  22.223  13.898
75339W        W34435  33.408  44.768   4.131
75340W        W34436  29.002   1.292  13.423
75341W        W34437  18.608   6.730  10.161
75342W        W34438  19.134  28.004   3.773
75343W        W34439  16.719  42.366  10.947
75344W        W34440  40.840  34.087   2.742
75345W        W34441  33.453   7.759   1.740
75346W        W34442   0.830  28.064  10.536
75347W        W34443   9.815  16.708  14.907
75348W        W34444   6.399  41.369   1.711
75349W        W34445  32.905  19.744   4.127
75350W        W34446  39.890  43.803  12.545
75351W        W34447  11.854   0.793  14.276
75352W        W34448  38.859  22.162  12.556
75353W        W34449  25.660   9.379  13.008
75354W        W34450   9.662  44.280  12.383
75355W        W34451  16.710  16.182   2.821
75356W        W34452  32.546  28.461   5.724
75357W        W34453  36.018  35.972   4.744
75358W        W34454  17.104  10.146   9.927
75359W        W34455  17.299   1.386  11.567
75360W        W34456  36.902  37.073   2.380
75361W        W34457  31.010  34.889   0.337
75362W        W34458   6.376  34.438  14.862
75363W        W34459  15.191  39.410  10.111
75364W        W34460   6.825  21.563   4.184
75365W        W34461   0.324  22.513  14.796
75366W        W34462  24.184  14.210  14.997
75367W        W34463  22.043  27.669  12.385
75368W        W34464  14.830   1.468   4.793
75369W        W34465  25.091  18.181  11.124
75370W        W34466  40.391   9.259   1.375
75371W        W34467  14.094  27.011  11.580
75372W        W34468  40.506  21.063  10.939
75373W        W34469  35.029  42.460  11.454
75374W        W34470  30.428  23.206  10.515
75375W        W34471  26.613  32.918  10.455
75376W        W34472  17.227  28.603  10.020
75377W        W34473  12.800  24.092  13.435
75378W        W34474  16.140  32.931   2.875
75379W        W34475  34.077  33.923   3.289
75380W        W34476  17.148  34.953  14.829
75381W        W34477  33.107  41.895   1.210
75382W        W34478   6.914  13.647  13.959
75383W        W34479  15.322  20.589   1.422
75384W        W34480  31.934  15.634   1.860
75385W        W34481  36.391   2.319  12.013
75386W        W34482  26.041  16.786  10.430
75387W        W34483  36.871  30.472  13.861
75388W        W34484  38.338  25.015   3.786
75389W        W34485  20.138  32.920   0.769
75390W        W34486  27.643  28.524  10.921
75391W        W34487  17.082   8.352   0.735
75392W        W34488  19.209  31.576   3.634
75393W        W34489  38.954  21.119  12.492
75394W        W34490  32.393  38.457  13.020
75395W        W34491  35.526  39.858  12.913
75396W        W34492  16.134  18.756   2.367
75397W        W34493  28.118  37.535   2.877
75398W        W34494   6.802  28.021  10.562
75399W        W34495  31.936  35.438   1.352
75400W        W34496  24.632  42.476   4.730
75401W        W34497  13.269   0.811   5.119
75402W        W34498  35.544  34.948  12.434
75403W        W34499  24.559  13.768  13.530
75404W        W34500  10.660   5.340  13.031
75405W        W34501  35.370   7.203  13.835
75406W        W34502   8.811   3.883   2.744
75407W        W34503  22.190  20.158  13.914
75408W        W34504  30.934  13.762  12.573
75409W        W34505  35.453  33.087  12.831
75410W        W34506  23.640  15.121  11.974
75411W        W34507  35.944  26.563  13.872
75412W        W34508  14.798  26.161  10.548
75413W        W34509  38.351  35.865   2.208
75414W        W34510  35.901  36.927  13.474
75415W        W34511  30.658   5.406   1.245
75416W        W34512  35.455  26.605   1.859
75417W        W34513  29.614  21.540  12.061
75418W        W34514  41.857   4.257   3.765
75419W        W34515  10.312  42.857   3.666
75420W        W34516  29.619  21.643   2.364
75421W        W34517  20.724  11.697   0.451
75422W        W34518  13.116  41.915  14.809
75423W        W34519  27.537  37.890  13.014
75424W        W34520   1.831  35.938  13.824
75425W        W34521   8.791  19.283   5.111
75426W        W34522   9.859  40.975   2.840
75427W        W34523  18.283  12.847  14.801
75428W        W34524  26.015  35.998   3.380
75429W        W34525  14.778  23.546  14.322
75430W        W34526   4.447  15.170   3.373
75431W        W34527  10.872  26.537  12.915
75432W        W34528  11.802  35.372   0.444
75433W        W34529  24.072  12.668   0.288
75434W        W34530  34.089  30.156  10.996
75435W        W34531   3.857  12.151   1.921
75436W        W34532  17.200  22.698  12.565
75437W        W34533   2.273  35.396   4.277
75438W        W34534  32.503  33.897   1.243
75439W        W34535  23.501  19.744  12.531
75440W        W34536  35.387  33.476  14.999
75441W        W34537  24.690  23.493  12.557
75442W        W34538  21.225   8.317  12.571
75443W        W34539  18.255  16.285  12.069
75444W        W34540  24.700  30.619   3.851
75445W        W34541  42.377  35.574   2.206
75446W        W34542  22.665   6.851  13.853
75447W        W34543   5.312  35.560  12.005
75448W        W34544  39.558  11.779   4.234
75449W        W34545  40.987  29.425  10.901
75450W        W34546  17.119  29.112  14.810
75451W        W34547   7.408  14.199  11.601
75452W        W34548  20.663  25.096   1.790
75453W        W34549  30.596  24.543  13.040
75454W        W34550  13.178   9.655  13.381
75455W        W34551   7.744  18.275   4.293
75456W        W34552  44.784  18.741   4.681
75457W        W34553  28.434   1.834  13.335
75458W        W34554  22.095   8.226  13.965
75459W        W34555  26.080  14.646  13.532
75460W        W34556   8.191  31.122   4.352
75461W        W34557  28.107   3.229   4.605
75462W        W34558  19.066   3.907   2.280
75463W        W34559   7.409  17.660  13.979
75464W        W34560  13.611  30.077  13.051
75465W        W34561  43.768  17.558  14.358
75466W        W34562  40.039  21.172  11.050
75467W        W34563  43.925  22.684  14.909
75468W        W34564   8.770  10.272  13.943
75469W        W34565  44.501   2.821  11.113
75470W        W34566  10.853   1.346  11.083
75471W        W34567   4.308  41.955  13.060
75472W        W34568  33.111  34.000   3.281
75473W        W34569  37.993  25.696   4.265
75474W        W34570  41.851   5.329   4.211
75475W        W34571  14.612  26.123   2.681
75476W        W34572   9.156  17.620   3.796
75477W        W34573  25.670  26.982  11.931
75478W        W34574  40.873  14.252  13.470
75479W        W34575   3.823  40.971  13.961
75480W        W34576  16.590   4.723  13.524
75481W        W34577   6.731  31.605   4.231
75482W        W34578  15.270  14.714  12.406
75483W        W34579  16.072  32.975   3.308
75484W        W34580   9.655  16.745  13.921
75485W        W34581  32.612  19.068  14.912
75486W        W34582  23.234  34.471  11.076
75487W        W34583   6.325  41.484   4.682
75488W        W34584  13.270   5.264   3.753
75489W        W34585  40.510   5.800  13.020
75490W        W34586  40.526  25.089  12.393
75491W        W34587  27.173  34.075   5.761
75492W        W34588  43.448  17.673   1.237
75493W        W34589  32.030  14.726   3.766
75494W        W34590   4.932  25.586  10.969
75495W        W34591  37.974  21.588  13.865
75496W        W34592  24.029  32.974   4.245
75497W        W34593  29.029  21.063   3.716
75498W        W34594  39.417  13.197   2.728
75499W        W34595  18.550   1.763   4.342
75500W        W34596  18.669  27.570   1.799
75501W        W34597   4.941   3.748  13.799
75502W        W34598  30.044  15.681  13.517
75503W        W34599  38.392  38.470  12.939
75504W        W34600   2.437  27.020   1.862
75505W        W34601  18.767  28.135  13.447
75506W        W34602   5.697  41.912   4.174
75507W        W34603  39.544  38.466  14.812
75508W        W34604  15.687   2.790  13.368
75509W        W34605  21.091   9.858  13.526
75510W        W34606  22.154  17.283   0.449
75511W        W34607  44.488  25.994  14.832
75512W        W34608  37.554  28.092  12.548
75513W        W34609  28.569   9.761  12.496
75514W        W34610  32.904   7.176  10.955
75515W        W34611  21.131   0.933   4.720
75516W        W34612  19.772  37.020   0.945
75517W        W34613  14.336  19.552  10.564
75518W        W34614  21.124  24.092   3.779
75519W        W34615  30.646   8.740   3.793
75520W        W34616  43.497   1.345   0.424
75521W        W34617   2.320  39.329   1.392
75522W        W34618  40.942  23.573   4.699
75523W        W34619  16.279   9.830   0.402
75524W        W34620  42.312  42.958  12.078
75525W        W34621  44.388  11.294   9.982
75526W        W34622   3.912  16.261   0.846
75527W        W34623  36.576  29.121   3.741
75528W        W34624  16.717  41.001  10.935
75529W        W34625  27.633  40.466   3.648
75530W        W34626   2.886   8.225  14.292
75531W        W34627   8.324   4.816   3.269
75532W        W34628   2.964  34.113  11.029
75533W        W34629  26.961  23.508  13.799
75534W        W34630  29.529  12.718  12.431
75535W        W34631  33.019  21.178  13.058
75536W        W34632   5.346  35.941   4.662
75537W        W34633  16.116   7.300  14.901
75538W        W34634  44.786  33.031  14.455
75539W        W34635   3.460  25.702  12.954
75540W        W34636   3.415  13.801  12.014
75541W        W34637  22.170  17.128   4.331
75542W        W34638  19.654  33.504  14.401
75543W        W34639  40.858  26.610  14.828
75544W        W34640   1.318  10.287  11.911
75545W        W34641   0.872   5.778  10.465
75546W        W34642  18.085   4.372  10.553
75547W        W34643   0.797  16.748   4.641
75548W        W34644  31.410  20.602  12.959
75549W        W34645  19.159  39.513   4.153
75550W        W34646  41.914  13.276   0.767
75551W        W34647  25.529  39.469  14.030
75552W        W34648   8.279  11.266   1.834
75553W        W34649   9.282  26.978   2.836
75554W        W34650  30.553  10.305  10.476
75555W        W34651  43.957   2.896  14.360
75556W        W34652  22.145   3.377   5.228
75557W        W34653  16.701   4.794  13.954
75558W        W34654  36.087   1.794  11.558
75559W        W34655  31.529  36.550  13.023
75560W        W34656   5.258  12.242   1.224
75561W        W34657  10.232   1.337   1.911
75562W        W34658   9.260  10.172  13.934
75563W        W34659   2.820   8.863   3.221
75564W        W34660  39.033  36.579  10.938
75565W        W34661   7.222  28.132   4.269
75566W        W34662  41.957   8.668  13.546
75567W        W34663  41.392  19.776   4.228
75568W        W34664  26.147  11.728  10.898
75569W        W34665   0.870  21.043  14.846
75570W        W34666   9.239  15.761  13.433
75571W        W34667   2.796  10.817  11.035
75572W        W34668  13.703  39.494  14.943
75573W        W34669  22.243  29.640   0.269
75574W        W34670  37.082   4.926   4.690
75575W        W34671   3.861  23.723   0.784
75576W        W34672  10.364  15.624  13.796
75577W        W34673  32.130  43.450   4.267
75578W        W34674   0.268  14.747   0.395
75579W        W34675   5.806  11.286  12.485
75580W        W34676  29.572   5.725  11.485
75581W        W34677   8.713   7.787  13.543
75582W        W34678  21.753  11.247   2.371
75583W        W34679   6.845   8.329  14.790
75584W        W34680  24.108  43.831  11.491
75585W        W34681  38.847  42.478  12.984
75586W        W34682  44.984  33.013   4.793
75587W        W34683   1.315  35.105  12.349
75588W        W34684  22.091  25.153  10.945
75589W        W34685  43.351  24.547   2.830
75590W        W34686  36.448  26.607  10.023
75591W        W34687   7.737  23.642  12.418
75592W        W34688  22.137  40.955   2.744
75593W        W34689  18.129  26.987   2.220
75594W        W34690  23.590  36.894   0.445
75595W        W34691  27.949  34.033   2.832
75596W        W34692  29.946  37.960  11.120
75597W        W34693  10.818  10.789  12.506
75598W        W34694  20.092  14.824  10.888
75599W        W34695   9.320  39.485   0.782
75600W        W34696  22.660   2.847  12.947
75601W        W34697   8.286  34.456   1.718
75602W        W34698  30.132  29.059   4.775
75603W        W34699  38.034  43.494   0.407
75604W        W34700  12.716  11.172   2.697
75605W        W34701  44.001  29.654  14.969
75606W        W34702  30.460  23.009  11.915
75607W        W34703   2.964  28.660  13.905
75608W        W34704   2.262   6.264  10.599
75609W        W34705  42.972   6.183   2.389
75610W        W34706  37.337  22.011   3.699
75611W        W34707  40.539  37.455   2.259
75612W        W34708  13.683   4.214   0.358
75613W        W34709  36.406  38.001  12.415
75614W        W34710  31.406  21.610   2.757
75615W        W34711  21.254  12.657  10.616
75616W        W34712  20.722   8.743  10.970
75617W        W34713  13.673  21.694  12.828
75618W        W34714  36.977  15.166   0.378
75619W        W34715   9.208  27.557   0.829
75620W        W34716  42.391  21.180  11.858
75621W        W34717  37.346  13.614   0.755
75622W        W34718   6.421  17.661   0.953
75623W        W34719  31.024  20.602  13.937
75624W        W34720  11.724  35.444   4.742
75625W        W34721  10.724  30.041   5.674
75626W        W34722  20.192  44.431  10.944
75627W        W34723   4.746  27.629   4.189
75628W        W34724  18.683  36.930  10.913
75629W        W34725  11.168  18.271   3.269
75630W        W34726   4.208  10.726  11.521
75631W        W34727  35.888  24.621   0.800
75632W        W34728  12.357  43.286  12.548
75633W        W34729  24.093  34.469   1.262
75634W        W34730  18.639  32.458  14.407
75635W        W34731  18.170  31.508  13.833
75636W        W34732  43.018  18.730  12.010
75637W        W34733   6.387  28.457   1.331
75638W        W34734  27.666  44.976  12.539
75639W        W34735   9.247  19.705   1.263
75640W        W34736  31.129  40.309   2.878
75641W        W34737  22.646   6.190   2.668
75642W        W34738  10.144  24.633  10.465
75643W        W34739  16.795  30.049  14.371
75644W        W34740  18.225  27.516   3.310
75645W        W34741   4.838  19.566  12.441
75646W        W34742  26.131  37.426   1.280
75647W        W34743  13.833  42.290  14.433
75648W        W34744   8.293  28.674   0.407
75649W        W34745  37.567   0.291  12.423
75650W        W34746  12.330  10.639  11.444
75651W        W34747  38.002   0.912  13.931
75652W        W34748  36.437  24.020   2.815
75653W        W34749  31.475  25.181   3.197
75654W        W34750  19.545  33.954  11.001
75655W        W34751  38.338  40.872   0.750
75656W        W34752  40.506  40.354   1.860
75657W        W34753  16.573  30.633   9.929
75658W        W34754  10.780  35.979  14.376
75659W        W34755  39.423  24.574   3.160
75660W        W34756  43.487   0.903   0.265
75661W        W34757  13.221   1.317   0.427
75662W        W34758   0.860  20.728  10.486
75663W        W34759  17.227  36.443  12.845
75664W        W34760  38.834   7.172  14.508
75665W        W34761  33.998  29.550  12.909
75666W        W34762  25.096  25.519   5.205
75667W        W34763   3.461  18.553  14.499
75668W        W34764  25.687  10.329  13.919
75669W        W34765  39.927  35.862  12.909
75670W        W34766  42.478  42.991   2.774
75671W        W34767  13.299   7.873   4.644
75672W        W34768   5.933   1.883   2.776
75673W        W34769   6.759  14.607   2.361
75674W        W34770  24.084  13.845  10.479
75675W        W34771  26.042   9.201   4.117
75676W        W34772   9.801  31.578   3.214
75677W        W34773  13.337  34.944   2.274
75678W        W34774  25.702  10.709   4.133
75679W        W34775  29.149   3.851   0.260
75680W        W34776  43.280  42.008  13.839
75681W        W34777  14.199  13.316  10.451
75682W        W34778  27.178  35.042  14.395
75683W        W34779  25.183  37.378  11.554
75684W        W34780   2.367  41.403  14.392
75685W        W34781  26.134  27.653   3.661
75686W        W34782  25.073  43.415  11.392
75687W        W34783  25.481   0.307   2.205
75688W        W34784  15.704  35.418   4.242
75689W        W34785  14.645  38.394   3.378
75690W        W34786  43.944  12.825   1.336
75691W        W34787   3.429  43.464   2.874
75692W        W34788  31.546  32.025   3.159
75693W        W34789  29.120  15.803   1.401
75694W        W34790  11.767   2.745   4.203
75695W        W34791  28.499  28.675   1.877
75696W        W34792  36.030  38.556   1.238
75697W        W34793  19.152  23.501   4.637
75698W        W34794  16.092   4.270   3.783
75699W        W34795   5.873  28.652   3.798
75700W        W34796   0.453  44.819   1.918
75701W        W34797  15.686  39.968   3.223
75702W        W34798   1.808  19.082  11.046
75703W        W34799   1.757  19.049   2.876
75704W        W34800   8.194   7.670   0.414
75705W        W34801   9.305   9.177  12.037
75706W        W34802  33.048  28.028   4.282
75707W        W34803  11.822  14.690   3.309
75708W        W34804  32.410   6.878   1.300
75709W        W34805  41.016   2.735  13.902
75710W        W34806  29.083  39.359  12.435
75711W        W34807  37.020   1.914  10.953
75712W        W34808  40.945  12.828  11.005
75713W        W34809   2.770  25.571   2.787
75714W        W34810  42.374  24.567   3.256
75715W        W34811   3.714  41.927   3.296
75716W        W34812  24.582  43.956  10.585
75717W        W34813   7.803  35.077  13.994
75718W        W34814  36.928   5.397  12.984
75719W        W34815  20.139  27.950  14.905
75720W        W34816  37.536  18.616   3.333
75721W        W34817  42.350  33.470   4.213
75722W        W34818   4.699  10.144  12.536
75723W        W34819  23.112  37.949  14.306
75724W        W34820  25.625  31.623   4.755
75725W        W34821  10.323   6.815   3.735
75726W        W34822  15.181  27.155   2.690
75727W        W34823   0.758  16.116  11.443
75728W        W34824  29.548  18.110   0.440
75729W        W34825  28.653  28.161  12.479
75730W        W34826  21.618   4.922   1.751
75731W        W34827  21.222  17.563  12.525
75732W        W34828  13.328  38.479  12.481
75733W        W34829   5.845  28.514   3.325
75734W        W34830  19.762  26.028   0.902
75735W        W34831  33.535   5.424   2.291
75736W        W34832  10.737  26.481  11.380
75737W        W34833   7.870  18.068   2.869
75738W        W34834  12.170  36.006   3.824
75739W        W34835  26.976  18.662   2.718
75740W        W34836  34.496  13.327  13.972
75741W        W34837  38.059   4.402   1.376
75742W        W34838  20.038  13.690   1.754
75743W        W34839  38.997  19.050  10.522
75744W        W34840  37.423  33.468  14.791
75745W        W34841  26.199   2.910  10.505
75746W        W34842   6.415   5.806  12.407
75747W        W34843   7.211  19.186   2.333
75748W        W34844  31.047  11.745  13.529
75749W        W34845  40.404  44.974   1.704
75750W        W34846  19.152  24.529   4.222
75751W        W34847  25.965   8.713  11.582
75752W        W34848  15.730  20.259   0.328
75753W        W34849  31.596  33.006   2.327
75754W        W34850   5.217  17.796   1.742
75755W        W34851  15.596  38.455  10.613
75756W        W34852  20.703  14.191  14.007
75757W        W34853   6.687   9.866  10.606
75758W        W34854  43.875  17.130   1.887
75759W        W34855  41.423   9.800   1.264
75760W        W34856   1.952   3.436   4.786
75761W        W34857  21.263  30.154   4.750
75762W        W34858  21.700  10.166   0.389
75763W        W34859   4.882  32.914  12.543
75764W        W34860  33.471   1.926  14.989
75765W        W34861  38.469   1.758   3.322
75766W        W34862   2.373  29.474   4.763
75767W        W34863  43.820  13.344   1.707
75768W        W34864  33.399  26.978  12.823
75769W        W34865  10.324  32.528  10.641
75770W        W34866  34.446  25.633   0.812
75771W        W34867   6.219  23.619  14.878
75772W        W34868   6.856  34.900   4.779
75773W        W34869   3.809  43.968   3.804
75774W        W34870  13.841   0.393   0.839
75775W        W34871  28.988  40.386   0.429
75776W        W34872  36.563  24.197   1.781
75777W        W34873   3.367  16.294  14.931
75778W        W34874  22.064  23.567   2.336
75779W        W34875  16.170  31.072  12.065
75780W        W34876  30.134  17.268  12.530
75781W        W34877  37.458  42.316   0.453
75782W        W34878   6.825   7.285  14.429
75783W        W34879  42.821   6.417   0.905
75784W        W34880   3.399  21.031   2.803
75785W        W34881  22.168  41.806  12.439
75786W        W34882   8.743  13.218  14.459
75787W        W34883   8.691  30.530  13.935
75788W        W34884  31.950   7.758  14.435
75789W        W34885  14.194   8.235  14.455
75790W        W34886  36.916  35.554   4.754
75791W        W34887  41.379  39.410   3.681
75792W        W34888  24.201  39.442   3.185
75793W        W34889  10.251  13.665  14.889
75794W        W34890   7.361   0.335   2.749
75795W        W34891  19.580  17.736   4.201
75796W        W34892  35.409  39.320   1.366
75797W        W34893   2.438  28.005   3.725
75798W        W34894  20.274  27.672  13.852
75799W        W34895  26.129  19.067  13.342
75800W        W34896   1.833  17.674   4.666
75801W        W34897  32.442  36.988   4.222
75802W        W34898  18.132  27.466  14.810
75803W        W34899   4.916  31.928  13.910
75804W        W34900  33.399  20.695  11.379
75805W        W34901  21.145  39.991  10.045
75806W        W34902  32.404  25.116  13.946
75807W        W34903  12.301  44.808  13.471
75808W        W34904  15.679  37.004   0.376
75809W        W34905   5.892  23.194   3.746
75810W        W34906  11.147   3.440   4.324
75811W        W34907  30.103  16.219   5.165
75812W        W34908   1.467   7.878  12.437
75813W        W34909   4.211  11.722  14.426
75814W        W34910   8.371  27.628   3.197
75815W        W34911  30.522  29.973  14.951
75816W        W34912   9.779  37.343  12.927
75817W        W34913  16.745  39.007  14.001
75818W        W34914  19.154  38.502  12.850
75819W        W34915  15.681  40.001   9.931
75820W        W34916  36.083  41.893  12.915
75821W        W34917  42.914   8.809  13.456
75822W        W34918  13.269   6.837  12.531
75823W        W34919  40.879   3.930   1.338
75824W        W34920  13.623   8.359  11.574
75825W        W34921   0.262   9.162  12.906
75826W        W34922  15.658  29.046  11.963
75827W        W34923  29.494  43.328  10.522
75828W        W34924  36.353  38.474  13.811
75829W        W34925  18.603  22.220  12.072
75830W        W34926  15.822   0.909   3.249
75831W        W34927  15.091  41.009  11.935
75832W        W34928  22.715  27.959  12.867
75833W        W34929  27.523  30.012  11.976
75834W        W34930  44.486  27.982  14.029
75835W        W34931  16.663  44.328   4.835
75836W        W34932  23.204  14.252  11.120
75837W        W34933  34.954   3.267   2.216
75838W        W34934  12.730  44.395   2.399
75839W        W34935  27.982   0.910  12.444
75840W        W34936  15.107  29.059   0.878
75841W        W34937  11.159  32.911  13.916
75842W        W34938  32.503  11.836   0.726
75843W        W34939  29.444  44.299   4.668
75844W        W34940  14.246  13.609   0.356
75845W        W34941   4.937   3.860   3.306
75846W        W34942  14.284  25.130   0.759
75847W        W34943   0.788   3.263  11.593
75848W        W34944  32.030  37.851   4.141
75849W        W34945   3.371  41.964  12.408
75850W        W34946  37.014  21.084  11.042
75851W        W34947  17.710  37.358  14.284
75852W        W34948  30.960  24.661   1.451
75853W        W34949  26.479  36.043   1.228
75854W        W34950   7.221  24.983  12.961
75855W        W34951   3.943  34.883  10.514
75856W        W34952  41.367   3.328  10.591
75857W        W34953  19.222   7.729  12.382
75858W        W34954  37.553  39.399  13.876
75859W        W34955  22.092  22.567  13.978
75860W        W34956  31.033  10.771   3.679
75861W        W34957   9.800   5.898  14.778
75862W        W34958  40.434   1.278   4.599
75863W        W34959   9.244  37.467  14.381
75864W        W34960  17.659  11.344  11.371
75865W        W34961  19.665  12.300   1.341
75866W        W34962  43.304   8.821  12.051
75867W        W34963  15.206  34.090  10.494
75868W        W34964  36.953  44.279   3.281
75869W        W34965  20.076   7.706   3.191
75870W        W34966  29.632   3.398   4.636
75871W        W34967  19.156  15.596   4.281
75872W        W34968  38.551  39.426  10.542
75873W        W34969  25.969  38.937   3.807
75874W        W34970  17.176  35.602   3.354
75875W        W34971  20.188  40.896  11.504
75876W        W34972  22.591  30.518  10.042
75877W        W34973  35.957  32.489  14.969
75878W        W34974   7.814  17.632  14.820
75879W        W34975  34.893  15.130   2.257
75880W        W34976  42.378  17.770  11.126
75881W        W34977  31.061   2.843  12.546
75882W        W34978  25.550   9.728  13.966
75883W        W34979  16.125  25.076  13.318
75884W        W34980  43.020  39.876   2.797
75885W        W34981  25.133  12.359  13.877
75886W        W34982  33.914  12.762  14.358
75887W        W34983  30.658  27.017   2.343
75888W        W34984   0.472  19.138   2.399
75889W        W34985  34.515  23.676   0.780
75890W        W34986  17.115  38.370   1.414
75891W        W34987   5.289  23.011  12.533
75892W        W34988   1.831  41.393   3.675
75893W        W34989  14.278  15.820   3.278
75894W        W34990  39.988  43.007  10.501
75895W        W34991  16.718  21.737  11.521
75896W        W34992  14.176  28.963   1.840
75897W        W34993  23.010  17.582   1.320
75898W        W34994   0.272  22.199   1.877
75899W        W34995   8.711  43.803  11.933
75900W        W34996  24.681  10.797   2.267
75901W        W34997  12.726  21.168   1.870
75902W        W34998  43.910  10.228  10.624
75903W        W34999  24.601  37.347  12.871
75904W        W35000  32.508  34.559  10.633
75905W        W35001  35.409  16.813   2.672
75906W        W35002  22.200   1.472  12.500
75907W        W35003  13.348  20.551  13.804
75908W        W35004   6.772   5.722  14.890
75909W        W35005  21.058   8.394  13.852
75910W        W35006  32.137  39.550   2.306
75911W        W35007  22.137  13.722   1.415
75912W        W35008  19.675  23.008   1.278
75913W        W35009  44.297  43.925   2.877
75914W        W35010  24.062  32.905  12.875
75915W        W35011   8.696  27.673  11.981
75916W        W35012  16.746  10.231   0.432
75917W        W35013  39.823   2.257  14.334
75918W        W35014   9.386  31.152   0.464
75919W        W35015  16.702   8.729   0.762
75920W        W35016  41.939   7.803   4.315
75921W        W35017  23.995  33.517   3.862
75922W        W35018  17.600  22.569   2.792
75923W        W35019  11.751  26.971  10.899
75924W        W35020   8.688  15.684   0.268
75925W        W35021  27.953   3.941   1.427
75926W        W35022  35.461  30.484  11.410
75927W        W35023   3.853  42.478   3.370
75928W        W35024  16.735  40.442   1.874
75929W        W35025  11.148  10.706   0.325
75930W        W35026  17.297  12.122  11.480
75931W        W35027  44.998  11.684  11.947
75932W        W35028   6.907  15.265   2.405
75933W        W35029  27.153  44.316   4.760
75934W        W35030  16.118  30.627   2.848
75935W        W35031  42.787  12.650   0.360
75936W        W35032   3.884   5.388   2.374
75937W        W35033   1.770  16.246  14.319
75938W        W35034  12.259  20.124  11.072
75939W        W35035  26.016  37.896   3.303
75940W        W35036  29.079  31.139   1.385
75941W        W35037  36.867  44.764  11.402
75942W        W35038  36.524  42.944   0.402
75943W        W35039   5.349  22.104   4.828
75944W        W35040  38.508  13.117   3.194
75945W        W35041  22.665  10.321   2.330
75946W        W35042  12.631  18.594  12.896
75947W        W35043  23.593   3.922  13.378
75948W        W35044  14.336  21.609   3.248
75949W        W35045  39.365  14.223   0.764
75950W        W35046   7.390   9.817   0.891
75951W        W35047   7.383  31.490  13.449
75952W        W35048   5.904  31.415   3.263
75953W        W35049  27.085   7.298   1.219
75954W        W35050  13.707  43.877   0.420
75955W        W35051  25.576  23.031   1.215
75956W        W35052  30.990   8.242   4.241
75957W        W35053  10.161  25.037  12.007
75958W        W35054  35.493  23.082  14.001
75959W        W35055  29.647  27.012   0.952
75960W        W35056   5.810   9.711   4.754
75961W        W35057  24.147  41.388   2.364
75962W        W35058  31.012  28.121  13.801
75963W        W35059   0.743   5.804  10.935
75964W        W35060   8.869  16.153  14.335
75965W        W35061  31.950  23.091  14.383
75966W        W35062  28.109  43.871   3.293
75967W        W35063  13.842  24.190  12.573
75968W        W35064   0.396  30.596  13.452
75969W        W35065  24.069  28.981   1.723
75970W        W35066  13.658  14.147   1.328
75971W        W35067  25.488   4.826   2.392
75972W        W35068  20.261  35.967  13.425
75973W        W35069  26.610  23.093   4.240
75974W        W35070  10.695  11.782  14.516
75975W        W35071   9.361   9.744   3.254
75976W        W35072  11.858  39.813   3.353
75977W        W35073  36.913  32.008   2.809
75978W        W35074  11.828   4.779   3.660
75979W        W35075  33.968  37.364   1.268
75980W        W35076  24.685  39.417  12.877
75981W        W35077  15.178  26.631   1.331
75982W        W35078  10.829  24.607  13.366
75983W        W35079   8.861  27.063   0.410
75984W        W35080  19.260  12.653   0.956
75985W        W35081   5.303   1.442  11.577
75986W        W35082   7.747   8.252   2.312
75987W        W35083   8.829  40.367   1.307
75988W        W35084  27.189  14.763   3.238
75989W        W35085  13.180   6.275   1.422
75990W        W35086   7.306   8.293   3.213
75991W        W35087   1.337  24.667  14.916
75992W        W35088  24.627  28.985  13.837
75993W        W35089  21.590  32.132  13.854
75994W        W35090  15.303  25.688  10.583
75995W        W35091  39.019  33.124   3.715
75996W        W35092  25.644  16.165   3.685
75997W        W35093  28.019  18.289   1.251
75998W        W35094   0.259   5.754   1.359
75999W        W35095  17.228  14.625  14.481
76000W        W35096  32.089  33.969  14.401
76001W        W35097  43.016   9.799   3.264
76002W        W35098  20.068  21.649  14.341
76003W        W35099  14.824  12.737  10.413
76004W        W35100  33.903   9.749  14.853
76005W        W35101  13.268  40.441  11.538
76006W        W35102  34.909   1.419   1.876
76007W        W35103  26.583  16.671  12.905
76008W        W35104  44.903  14.825  11.864
76009W        W35105   3.444  17.292   2.775
76010W        W35106  21.648  39.392   0.937
76011W        W35107  17.680  39.959   5.316
76012W        W35108  35.087   5.851  10.548
76013W        W35109  26.693  11.316   4.177
76014W        W35110   9.781  21.204  12.968
76015W        W35111  41.816  25.179  12.516
76016W        W35112  26.974  33.058  12.956
76017W        W35113  27.108  44.990  14.508
76018W        W35114   5.781  24.200  10.482
76019W        W35115   4.812  31.640   4.207
76020W        W35116  39.012  36.058   0.950
76021W        W35117   8.723  16.100   4.278
76022W        W35118  16.687  23.056   0.370
76023W        W35119  25.602  36.476  14.317
76024W        W35120   0.299  20.629   4.162
76025W        W35121   5.911   8.274   0.859
76026W        W35122  14.616  32.439  12.516
76027W        W35123  37.473  24.134  14.997
76028W        W35124   3.926  12.207   2.727
76029W        W35125   8.806   1.345  14.805
76030W        W35126  28.164  14.752   2.185
76031W        W35127  29.141   6.276  13.991
76032W        W35128   8.889  32.076  13.316
76033W        W35129  41.862  31.123  11.008
76034W        W35130  22.739  31.925  13.848
76035W        W35131   6.292  32.570  13.799
76036W        W35132  43.428  22.102  11.387
76037W        W35133  23.169  27.105   2.242
76038W        W35134   3.303  15.812  14.515
76039W        W35135  31.150  43.863   3.699
76040W        W35136  29.145   4.782   1.695
76041W        W35137  23.717  37.371   0.478
76042W        W35138  12.848  36.917   0.425
76043W        W35139  40.486  33.949   3.265
76044W        W35140  31.482  42.970  10.900
76045W        W35141  21.263   1.905  11.457
76046W        W35142   4.736  17.067   3.198
76047W        W35143  22.681   3.351   3.712
76048W        W35144  42.343  13.729   2.842
76049W        W35145  28.639   1.276  11.094
76050W        W35146   8.704   8.737  11.976
76051W        W35147  16.119  10.770  13.814
76052W        W35148  22.049  12.616   4.629
76053W        W35149  18.190  30.926  13.897
76054W        W35150  42.944  16.267   4.322
76055W        W35151   7.359  25.546   3.277
76056W        W35152  26.545  20.156  14.379
76057W        W35153  31.088  27.063   3.819
76058W        W35154  10.300   3.319  11.086
76059W        W35155  13.131  24.667   0.363
76060W        W35156  24.006  40.397   2.301
76061W        W35157  17.696  11.275  12.936
76062W        W35158   8.891  29.066   5.121
76063W        W35159  30.501   7.263   1.833
76064W        W35160  39.970  42.448  13.792
76065W        W35161  44.810  25.995   4.272
76066W        W35162  37.406   7.722   2.264
76067W        W35163  19.259   2.803  12.412
76068W        W35164  35.362   4.389  13.993
76069W        W35165  16.135  16.774  10.926
76070W        W35166  20.545  15.679  12.964
76071W        W35167   6.869  37.433  12.970
76072W        W35168   6.230  33.473  12.842
76073W        W35169  12.666  12.833  13.308
76074W        W35170  34.071  31.601   2.896
76075W        W35171  10.704  32.551  13.372
76076W        W35172  13.324  21.521   3.847
76077W        W35173  17.139  12.116   4.625
76078W        W35174  25.510  29.424   1.855
76079W        W35175  35.951  21.111  11.099
76080W        W35176  16.720   3.384  14.418
76081W        W35177  29.091  41.354  14.365
76082W        W35178  23.595  32.521   3.754
76083W        W35179  37.066  19.687  10.599
76084W        W35180  18.712  20.121   3.368
76085W        W35181  11.633  18.740   4.165
76086W        W35182  42.955  32.030  12.503
76087W        W35183  42.343  32.089  14.407
76088W        W35184   6.353  31.475  14.950
76089W        W35185  19.672  10.218  13.463
76090W        W35186  41.853  20.588   2.736
76091W        W35187  16.105  28.978   2.342
76092W        W35188  24.608  29.616  10.468
76093W        W35189  18.710  16.087  12.000
76094W        W35190  28.546   1.973  13.983
76095W        W35191  31.565  23.631   0.802
76096W        W35192   3.774  18.578  10.909
76097W        W35193  15.243  10.138   0.303
76098W        W35194  22.114   1.832   0.878
76099W        W35195  16.132  15.807   4.249
76100W        W35196  36.530  17.561  10.964
76101W        W35197  32.458  13.216  14.362
76102W        W35198   1.968   1.389   0.850
76103W        W35199  19.622  35.602  14.503
76104W        W35200  39.492  32.466  10.588
76105W        W35201  20.760  28.941   2.254
76106W        W35202  14.322   2.357   0.462
76107W        W35203   9.230  19.212   5.097
76108W        W35204  28.074  26.075   3.654
76109W        W35205  29.106  32.611  14.859
76110W        W35206  37.000  28.591  10.585
76111W        W35207  16.617  32.530  14.778
76112W        W35208  21.154  23.576  13.964
76113W        W35209  26.958   3.870  14.356
76114W        W35210  25.696  23.567   4.353
76115W        W35211   4.727  28.004  12.562
76116W        W35212  34.080  10.649  10.930
76117W        W35213   4.893   9.304   1.893
76118W        W35214  44.005  22.234   3.812
76119W        W35215  26.066  28.627   0.833
76120W        W35216  39.508  24.191   3.808
76121W        W35217   6.921  29.117   1.707
76122W        W35218  31.628  12.823   3.231
76123W        W35219   1.964  13.776  14.880
76124W        W35220  28.032   9.365   4.754
76125W        W35221  37.336  27.169   1.838
76126W        W35222  15.244  35.899   1.279
76127W        W35223  36.014  10.180   0.471
76128W        W35224  16.254  14.221  12.049
76129W        W35225  35.572   5.816   2.852
76130W        W35226  32.435  25.678   4.772
76131W        W35227   3.427  11.303  13.993
76132W        W35228  14.758  31.593   1.346
76133W        W35229  22.192  25.474   3.819
76134W        W35230  20.081  39.957  14.392
76135W        W35231   4.405  27.482  13.794
76136W        W35232  37.400  30.565   1.332
76137W        W35233  18.714   5.297  12.089
76138W        W35234   2.328  42.434  12.481
76139W        W35235   1.237  12.158   2.731
76140W        W35236  36.989   0.783  12.924
76141W        W35237  25.547  35.447   2.292
76142W        W35238   1.270  39.956  10.983
76143W        W35239  12.676  20.585  10.590
76144W        W35240  34.533  22.580   2.231
76145W        W35241  32.996  23.047   4.598
76146W        W35242   6.345  18.150  11.116
76147W        W35243  41.994  41.473  14.367
76148W        W35244  25.601  21.712  14.496
76149W        W35245  44.853  39.991  13.820
76150W        W35246  13.769  34.113   4.711
76151W        W35247  24.540   4.896  10.458
76152W        W35248  33.879  35.458   2.695
76153W        W35249  20.665  26.642   0.940
76154W        W35250   3.296  38.013  13.426
76155W        W35251   6.775  26.586  14.359
76156W        W35252  32.579  20.137   3.181
76157W        W35253  34.431  14.681   0.794
76158W        W35254  23.607  36.354   3.362
76159W        W35255  32.419  18.279   0.387
76160W        W35256  42.285  41.356   1.222
76161W        W35257  13.192  33.988   0.378
76162W        W35258  24.102  39.314   4.339
76163W        W35259  29.924  29.427  13.001
76164W        W35260   9.888  12.627   4.747
76165W        W35261  18.551   9.177  11.949
76166W        W35262  20.731  44.502   2.240
76167W        W35263   2.961  31.124   0.318
76168W        W35264   8.710   6.349  10.986
76169W        W35265  38.451  35.588   4.285
76170W        W35266  12.788  13.182  11.394
76171W        W35267   8.338  38.506  13.888
76172W        W35268  10.175  19.646  12.967
76173W        W35269  10.317  25.580   2.800
76174W        W35270  38.023   8.330  11.382
76175W        W35271  22.520  39.383   4.693
76176W        W35272   4.856  22.021   4.696
76177W        W35273  13.641  16.281  14.429
76178W        W35274  11.138  12.233  14.018
76179W        W35275  38.930  14.681   1.224
76180W        W35276  42.410   8.278  11.433
76181W        W35277  34.549  37.894  13.910
76182W        W35278   4.259  18.175   1.446
76183W        W35279   9.672   8.723   2.335
76184W        W35280  20.239  34.411   2.877
76185W        W35281  22.107  14.717   3.210
76186W        W35282  30.979  33.529  10.504
76187W        W35283   2.360  18.285  13.053
76188W        W35284   7.218  44.441  12.400
76189W        W35285  20.126  10.303   5.267
76190W        W35286  19.772  41.882  10.558
76191W        W35287  25.095  36.576  12.413
76192W        W35288  15.171  19.223   4.605
76193W        W35289   8.281  23.106  13.327
76194W        W35290  44.453  10.783   2.703
76195W        W35291  39.921  41.466  12.477
76196W        W35292  35.519  24.025  10.037
76197W        W35293  18.160  43.824  14.420
76198W        W35294  11.696  42.027   2.762
76199W        W35295  10.677  25.191  12.548
76200W        W35296   8.704  44.822  13.895
76201W        W35297  22.683  15.693  14.364
76202W        W35298  12.171   2.831  14.875
76203W        W35299  38.478  40.939   3.257
76204W        W35300  29.920  21.541  12.361
76205W        W35301  31.507  25.968  11.607
76206W        W35302  25.520  15.788  11.983
76207W        W35303  22.511  10.780   4.262
76208W        W35304   3.322   8.872   3.189
76209W        W35305   3.755  28.618   4.800
76210W        W35306  25.697   4.221  14.786
76211W        W35307  31.419   8.728   0.377
76212W        W35308  27.531  33.068   3.158
76213W        W35309   7.313  22.033  12.538
76214W        W35310  25.090  24.688  13.906
76215W        W35311  38.865  28.523  14.288
76216W        W35312  15.109  14.323   0.339
76217W        W35313   2.466  38.074  13.060
76218W        W35314  37.044  25.002   0.262
76219W        W35315  31.068   9.672  10.405
76220W        W35316  28.555  15.801   1.277
76221W        W35317  28.022  15.252  14.957
76222W        W35318   2.375   9.195   0.302
76223W        W35319  11.762  42.399  11.523
76224W        W35320  20.069  34.504   2.372
76225W        W35321  14.588   4.843  14.782
76226W        W35322  17.687   9.777   2.405
76227W        W35323  26.113   3.717  12.978
76228W        W35324  21.063  16.625   1.713
76229W        W35325  16.207  23.057   4.316
76230W        W35326  43.339  23.002   1.891
76231W        W35327  14.601  34.528   2.342
76232W        W35328  17.732  42.803  14.833
76233W        W35329  22.089  35.374  12.566
76234W        W35330   3.360  36.544  11.464
76235W        W35331   1.798  14.695   0.860
76236W        W35332  38.552  16.809  10.500
76237W        W35333  29.968   9.699  13.035
76238W        W35334   7.742   0.866  12.082
76239W        W35335  44.998  42.991   4.307
76240W        W35336  28.067  31.471   1.889
76241W        W35337  37.543  41.407  14.005
76242W        W35338  20.183  25.555  11.383
76243W        W35339  23.007  21.101  12.998
76244W        W35340  11.310   9.695  12.383
76245W        W35341   1.779  26.637  11.936
76246W        W35342   3.910   8.216   3.321
76247W        W35343  17.079  29.485   2.750
76248W        W35344  27.983  33.426   3.231
76249W        W35345  27.054  34.369   4.690
76250W        W35346  43.830  35.418   3.632
76251W        W35347  19.651  12.633   2.752
76252W        W35348   2.736  24.120   1.912
76253W        W35349   6.695  41.495   1.775
76254W        W35350  44.762  25.001   1.885
76255W        W35351   4.720   1.806   3.191
76256W        W35352  14.304   6.702   3.206
76257W        W35353  10.669  21.215  13.437
76258W        W35354  39.510  11.796   4.748
76259W        W35355  41.809  43.426   1.228
76260W        W35356  34.952  42.516   0.751
76261W        W35357   5.732   4.906   0.282
76262W        W35358  26.657  34.456   0.369
76263W        W35359  16.111  35.391   3.796
76264W        W35360   3.874   4.383  11.507
76265W        W35361   1.758  40.465  13.424
76266W        W35362  11.809  39.023  13.005
76267W        W35363  44.938  20.734   0.419
76268W        W35364  30.652  24.196  12.933
76269W        W35365  26.530  31.642   3.830
76270W        W35366   4.759  10.290   2.847
76271W        W35367  21.167  16.571  11.539
76272W        W35368  26.695  12.773   4.676
76273W        W35369  28.011  30.116  12.540
76274W        W35370  18.597  11.318  14.432
76275W        W35371  25.529  38.406  12.997
76276W        W35372  36.392  40.312   0.936
76277W        W35373  31.947   3.232   0.317
76278W        W35374   7.772  39.466   0.371
76279W        W35375  42.016  36.089  10.451
76280W        W35376   4.698  21.709  14.849
76281W        W35377  40.543  26.155   2.710
76282W        W35378  15.122  32.587  10.047
76283W        W35379  29.956   9.786  13.452
76284W        W35380   1.741  11.695  12.018
76285W        W35381  32.515  24.651  12.889
76286W        W35382  29.997  40.344   4.224
76287W        W35383  22.646  13.774   2.351
76288W        W35384   2.324  31.896  10.555
76289W        W35385  37.055  26.621  11.096
76290W        W35386   4.848   8.220   3.752
76291W        W35387  17.197  16.696   2.220
76292W        W35388  24.621  23.007  12.993
76293W        W35389  21.184  31.096  14.030
76294W        W35390  13.713  26.587  14.913
76295W        W35391   9.379  22.611  14.348
76296W        W35392  37.567  25.103  12.082
76297W        W35393  31.615  39.332  14.347
76298W        W35394  34.091  30.450   1.372
76299W        W35395  12.212  22.642  12.424
76300W        W35396  26.475   0.430  14.873
76301W        W35397   8.244  44.473  14.370
76302W        W35398   6.900  35.464   1.749
76303W        W35399  28.978   3.885  10.458
76304W        W35400  10.862  22.026   3.285
76305W        W35401   8.162  15.154   0.743
76306W        W35402  12.660   9.369  12.094
76307W        W35403  30.421  15.764   4.736
76308W        W35404  20.625  39.936  11.577
76309W        W35405   9.759   2.235  13.978
76310W        W35406  30.614  17.225  10.455
76311W        W35407  33.498  31.026   3.799
76312W        W35408  18.224  13.126  10.550
76313W        W35409  24.590   7.809  13.988
76314W        W35410  27.452   1.358   2.692
76315W        W35411  15.719  21.654   2.220
76316W        W35412  14.155  10.850   3.347
76317W        W35413  29.047  37.447  11.024
76318W        W35414  30.428   7.813  12.352
76319W        W35415   4.835  16.193  10.942
76320W        W35416  31.906  39.487  13.402
76321W        W35417   9.763  22.544   4.619
76322W        W35418   3.936  10.352  10.515
76323W        W35419  12.229  22.238  10.509
76324W        W35420   7.850  15.210  12.060
76325W        W35421  33.436  31.524   2.871
76326W        W35422  34.420  10.786  13.043
76327W        W35423  26.960  38.853   1.372
76328W        W35424  40.933  36.557   2.210
76329W        W35425   6.785  26.080  14.318
76330W        W35426  38.570  39.927   3.653
76331W        W35427  11.634  29.965   2.687
76332W        W35428  39.867  19.093   3.239
76333W        W35429  21.107  40.544   1.857
76334W        W35430  44.505  10.693   1.712
76335W        W35431  27.030  37.545   1.729
76336W        W35432   3.946   3.851  13.966
76337W        W35433   5.339  17.298   0.371
76338W        W35434  36.014  14.834   1.359
76339W        W35435  38.326  42.957   0.741
76340W        W35436   3.872   9.328   2.239
76341W        W35437  40.809  27.622   3.385
76342W        W35438  13.716  36.359  11.387
76343W        W35439   3.329  39.040   3.275
76344W        W35440  25.605   7.179   0.946
76345W        W35441  28.459  11.669  12.388
76346W        W35442  40.004  24.598   1.334
76347W        W35443   3.820   8.202   4.267
76348W        W35444   8.695  12.137  14.494
76349W        W35445  31.905   3.744  13.417
76350W        W35446   2.952   0.768  12.888
76351W        W35447   4.910  34.948  13.827
76352W        W35448  13.277  20.669   3.174
76353W        W35449  30.064  37.510  12.356
76354W        W35450  37.528  29.448  12.525
76355W        W35451  11.830   7.905   3.214
76356W        W35452  13.803  14.236  14.304
76357W        W35453  12.191  36.452  11.947
76358W        W35454  33.034  18.787  13.463
76359W        W35455  20.614  38.426   2.326
76360W        W35456   0.257   9.743  13.538
76361W        W35457  28.659  18.676  11.025
76362W        W35458  25.184  42.933   2.832
76363W        W35459  27.044  30.944   4.261
76364W        W35460   1.370  37.973  11.861
76365W        W35461  32.136   0.949  13.506
76366W        W35462  27.973  19.764   1.719
76367W        W35463  21.542  39.351  13.499
76368W        W35464  22.112  11.698  12.824
76369W        W35465  40.468  37.876   1.799
76370W        W35466  10.366   0.380  10.592
76371W        W35467   6.274  38.450  14.772
76372W        W35468  36.565  30.981  11.953
76373W        W35469  14.700  24.143   0.451
76374W        W35470   6.833  23.028   1.870
76375W        W35471  35.083  21.195   5.312
76376W        W35472   6.245  24.220  11.425
76377W        W35473  18.655  11.318   0.339
76378W        W35474  38.385  31.424  10.502
76379W        W35475  37.860   3.222   2.681
76380W        W35476  37.554  34.419  10.548
76381W        W35477  29.606  26.119   3.307
76382W        W35478  26.042  16.147   2.786
76383W        W35479   3.822  21.578   1.450
76384W        W35480  40.349  20.073   2.697
76385W        W35481  28.976  27.489   4.687
76386W        W35482  24.051  10.827  11.375
76387W        W35483   7.824  42.021   1.415
76388W        W35484  41.426  13.600   1.422
76389W        W35485   8.707  20.203  14.499
76390W        W35486  18.111  41.395  12.496
76391W        W35487  20.085  38.566   2.683
76392W        W35488  44.921   3.359  14.960
76393W        W35489   4.220   6.692  10.938
76394W        W35490   2.745  30.970   4.320
76395W        W35491  42.435  17.638  12.968
76396W        W35492   0.743  29.463   2.722
76397W        W35493  36.899  30.505   3.282
76398W        W35494  19.694   5.274  11.917
76399W        W35495  38.024  41.490   0.279
76400W        W35496   7.820  14.212  14.332
76401W        W35497   7.175  30.978  14.031
76402W        W35498   3.428  41.990   4.181
76403W        W35499  31.614  10.771  10.979
76404W        W35500   9.332  34.968  13.044
76405W        W35501  22.013   2.360   1.327
76406W        W35502  19.564  35.459   5.231
76407W        W35503  16.628  28.140  14.985
76408W        W35504  16.241  42.965   0.801
76409W        W35505  16.702  13.152   4.126
76410W        W35506  28.526   7.850   1.232
76411W        W35507   6.686  32.908   2.225
76412W        W35508  14.777  12.804   0.799
76413W        W35509  19.547  43.971  12.407
76414W        W35510  21.086  39.550  10.555
76415W        W35511  31.537  32.460   1.790
76416W        W35512  35.003  10.767  14.012
76417W        W35513  25.554  24.639  11.018
76418W        W35514  39.890  11.248   5.198
76419W        W35515   5.733  22.226  12.966
76420W        W35516  15.752   7.222  11.904
76421W        W35517  19.741  22.067   2.802
76422W        W35518   2.757   2.462  13.482
76423W        W35519  36.905  27.646  14.513
76424W        W35520   4.219  17.300  13.898
76425W        W35521  39.375  34.112   4.345
76426W        W35522  19.160  14.650   4.816
76427W        W35523  17.152  39.558  11.874
76428W        W35524  38.508  42.983  14.355
76429W        W35525  40.423  21.697  11.535
76430W        W35526  39.425  11.864   0.793
76431W        W35527  37.464   4.399  10.535
76432W        W35528  11.179   5.892   3.279
76433W        W35529  38.854  19.644   4.126
76434W        W35530  10.265  30.535  10.610
76435W        W35531   7.338  15.653   2.286
76436W        W35532   8.838  37.559  14.414
76437W        W35533   9.233  22.668  13.524
76438W        W35534   9.869  32.941  12.559
76439W        W35535  27.570   2.461   1.892
76440W        W35536  26.500  27.674   1.810
76441W        W35537  36.918  11.625   4.326
76442W        W35538   0.427   6.227   3.346
76443W        W35539  23.562  32.443  12.875
76444W        W35540  33.120  13.612  10.433
76445W        W35541  11.847  10.198   4.170
76446W        W35542  10.337   5.708  10.013
76447W        W35543  30.656  17.602  13.914
76448W        W35544  15.116  30.109   0.482
76449W        W35545  27.991  20.263  11.908
76450W        W35546  17.564  39.531   2.212
76451W        W35547  31.053  32.488  11.495
76452W        W35548   7.276   2.419   0.327
76453W        W35549   2.259  35.426  12.936
76454W        W35550  26.689  20.601   3.278
76455W        W35551  38.408  11.207   2.222
76456W        W35552  12.337  33.919  12.362
76457W        W35553  39.903   9.824   4.768
76458W        W35554  41.359  37.994  11.123
76459W        W35555  10.688  35.007   1.410
76460W        W35556  11.683  27.680   0.327
76461W        W35557  14.597  32.107  12.496
76462W        W35558   8.389  19.601   1.759
76463W        W35559  16.128  41.839   0.819
76464W        W35560  40.365   1.848  11.553
76465W        W35561  32.443   7.748  11.971
76466W        W35562  14.113  21.216  14.951
76467W        W35563   2.420  27.660  14.790
76468W        W35564  28.990  28.978   2.828
76469W        W35565  23.681  10.826  13.367
76470W        W35566  15.268  38.026  12.379
76471W        W35567  11.684  11.350  10.472
76472W        W35568  27.942   6.723  12.841
76473W        W35569  35.102  19.186   1.731
76474W        W35570  33.558  37.407  12.860
76475W        W35571  15.689  28.597  10.962
76476W        W35572  13.743  18.586  13.925
76477W        W35573  42.026  25.498   1.856
76478W        W35574   3.232  16.798   2.198
76479W        W35575  26.960  21.513  13.819
76480W        W35576  21.251   9.719   0.843
76481W        W35577  15.687  36.013  14.328
76482W        W35578  31.045  44.322  12.872
76483W        W35579  33.877  42.790   1.312
76484W        W35580  14.274   4.906  11.033
76485W        W35581  14.162  19.265  13.419
76486W        W35582  31.421  14.791   4.667
76487W        W35583  28.497   7.701   3.244
76488W        W35584   7.728  38.982  12.978
76489W        W35585   0.380   8.196  14.298
76490W        W35586  28.030  27.612  13.921
76491W        W35587  39.061  15.143   4.664
76492W        W35588  30.432  41.510  10.932
76493W        W35589  16.119   1.768  14.376
76494W        W35590   5.364  43.317   0.826
76495W        W35591  40.044  32.444  13.843
76496W        W35592   3.903  10.735   4.346
76497W        W35593   8.799   2.471  11.942
76498W        W35594  39.518   4.394  13.363
76499W        W35595  35.470  38.039   4.324
76500W        W35596  33.901  37.518   4.323
76501W        W35597  40.424  29.658  11.952
76502W        W35598   2.942   6.683   3.763
76503W        W35599  19.666  15.113  10.627
76504W        W35600  22.165  15.088  11.112
76505W        W35601  37.577  12.779  10.580
76506W        W35602  32.625   6.790   0.808
76507W        W35603  20.531  36.379   3.779
76508W        W35604   0.449  40.317   2.253
76509W        W35605  24.633   7.253   1.778
76510W        W35606  42.443  17.701   3.159
76511W        W35607  12.226   0.483   1.442
76512W        W35608   4.433  24.086   3.724
76513W        W35609  44.347  19.177  14.977
76514W        W35610   7.295  44.909   4.673
76515W        W35611  36.928  43.822   1.439
76516W        W35612  15.778  12.172  14.960
76517W        W35613  37.436  29.009   4.160
76518W        W35614   1.253  42.854   3.202
76519W        W35615  37.958  25.556  14.966
76520W        W35616  41.527  14.135  11.473
76521W        W35617  42.382  40.826  14.379
76522W        W35618   6.419  32.415   2.756
76523W        W35619  32.558  29.514   0.367
76524W        W35620  41.987  11.719  14.477
76525W        W35621  30.923  40.033   2.197
76526W        W35622  11.786   6.386   4.710
76527W        W35623  14.809  22.648  11.548
76528W        W35624   4.431  31.440   1.740
76529W        W35625  33.119  36.935  13.465
76530W        W35626  44.462  29.643   4.684
76531W        W35627  25.667   2.402   3.776
76532W        W35628  21.228  10.669  12.927
76533W        W35629  19.729  15.303  12.039
76534W        W35630  32.014  43.336  10.556
76535W        W35631  24.128  32.052  13.938
76536W        W35632  35.867   1.257  13.005
76537W        W35633  21.186  23.144   0.889
76538W        W35634  34.041  43.837   2.785
76539W        W35635  24.603  12.246  13.814
76540W        W35636  33.044  42.370  11.894
76541W        W35637   3.870  23.149   0.949
76542W        W35638  10.198  26.085  10.986
76543W        W35639   3.249  10.752  14.318
76544W        W35640  26.487  38.541   4.117
76545W        W35641  25.219  18.088  13.542
76546W        W35642  16.288   9.269   4.125
76547W        W35643  18.726  33.049  12.958
76548W        W35644  39.392  11.734  13.994
76549W        W35645  25.618   3.812  11.569
76550W        W35646  30.992  28.177  11.385
76551W        W35647  27.621  19.628  12.427
76552W        W35648  13.184  12.838  14.949
76553W        W35649  24.719   2.862   4.657
76554W        W35650  11.706  27.990   3.724
76555W        W35651   5.746   5.327  10.611
76556W        W35652   8.819  30.941  14.822
76557W        W35653  43.784  13.233  11.950
76558W        W35654  27.498  39.845  10.948
76559W        W35655   9.866  26.152   0.795
76560W        W35656  24.989  40.441   4.803
76561W        W35657   0.759  33.992   1.844
76562W        W35658  15.810   5.419   1.695
76563W        W35659  10.818  22.714   1.254
76564W        W35660  15.214  27.508  10.471
76565W        W35661  44.771   6.352  11.007
76566W        W35662  12.298  30.488   2.355
76567W        W35663  12.212  26.521  14.847
76568W        W35664  23.649  29.619  11.872
76569W        W35665  20.073  29.656  11.013
76570W        W35666  39.408  38.872  13.974
76571W        W35667  27.627  40.898  12.910
76572W        W35668   5.764  17.240  12.515
76573W        W35669  31.432  36.404   2.336
76574W        W35670  37.415   2.458  14.398
76575W        W35671  26.170  38.872  10.986
76576W        W35672  25.586  42.415  11.522
76577W        W35673  38.873  37.836  10.092
76578W        W35674  17.560  16.281  12.370
76579W        W35675   1.400  18.753  10.637
76580W        W35676  18.553  40.868  10.495
76581W        W35677   9.699  42.466  12.475
76582W        W35678  11.129  24.719   0.397
76583W        W35679  40.809   2.809  11.506
76584W        W35680  11.724  42.811   1.823
76585W        W35681  40.468   0.948  10.499
76586W        W35682  24.984  24.067   3.763
76587W        W35683   0.845  24.589  12.961
76588W        W35684  42.031  31.408   1.289
76589W        W35685  20.065   4.909  12.922
76590W        W35686  37.373  40.014  13.851
76591W        W35687   3.896   5.733  13.355
76592W        W35688  39.949  44.473  12.857
76593W        W35689   7.715  22.089  14.346
76594W        W35690  23.113  36.090   3.243
76595W        W35691  32.437  23.610  14.506
76596W        W35692  24.032   9.152  11.497
76597W        W35693  27.155  30.026   4.249
76598W        W35694  21.113  17.134   1.820
76599W        W35695  27.083  33.914   0.733
76600W        W35696  43.407  12.282   0.482
76601W        W35697  23.495  14.592  14.481
76602W        W35698  12.808  19.738  10.424
76603W        W35699  18.582  38.549  13.892
76604W        W35700  32.596  42.991  11.381
76605W        W35701  17.073  13.616   3.308
76606W        W35702  12.350  19.603   2.686
76607W        W35703  24.153   2.422  14.392
76608W        W35704   1.830  32.550  13.021
76609W        W35705  20.690   6.788   3.298
76610W        W35706  43.337  34.924   4.250
76611W        W35707  14.152  14.828  12.823
76612W        W35708   2.961   5.693  14.943
76613W        W35709  26.082  12.253   1.722
76614W        W35710  35.389  20.199   1.794
76615W        W35711  10.703  23.121   1.278
76616W        W35712  31.515  32.033   0.822
76617W        W35713   2.879  40.526  12.562
76618W        W35714  19.235  19.194   1.425
76619W        W35715  14.233   7.237   3.630
76620W        W35716  21.734  25.116   4.286
76621W        W35717  23.122  21.054  13.369
76622W        W35718  14.203  14.161   3.260
76623W        W35719  41.305  36.035   1.718
76624W        W35720   8.677  36.541  14.862
76625W        W35721   4.753  31.050  14.475
76626W        W35722  21.641  23.721  10.512
76627W        W35723  38.516   7.201  12.009
76628W        W35724   5.384  25.679  12.023
76629W        W35725  26.492  43.299   4.162
76630W        W35726  25.685  21.537  10.142
76631W        W35727  37.047  43.991  13.897
76632W        W35728  39.375  30.443   0.268
76633W        W35729  23.107  44.788   4.304
76634W        W35730   5.296  25.016  12.423
76635W        W35731  37.463  35.907   9.967
76636W        W35732  14.173  18.111   1.773
76637W        W35733  37.893  10.202   3.300
76638W        W35734  11.214  20.617  13.422
76639W        W35735  24.561  12.206   1.270
76640W        W35736  24.216   1.451   3.253
76641W        W35737  40.961  40.995  12.494
76642W        W35738  37.484  31.971  11.096
76643W        W35739   5.356  15.805   1.861
76644W        W35740  36.456   5.899   0.897
76645W        W35741  18.649  39.319   0.825
76646W        W35742  38.438  40.943   1.434
76647W        W35743   4.376  32.137   4.191
76648W        W35744  14.156   2.300   3.826
76649W        W35745  32.463   3.295  14.892
76650W        W35746  40.940  44.325   2.333
76651W        W35747  22.543  11.133   1.774
76652W        W35748  33.104  32.888   0.426
76653W        W35749  13.729  26.527   3.240
76654W        W35750  26.688   7.744  10.947
76655W        W35751  19.043  29.105   3.360
76656W        W35752  14.713  22.230  12.934
76657W        W35753   8.269  39.822  12.395
76658W        W35754  25.551   6.215   0.274
76659W        W35755  34.460  21.170   0.858
76660W        W35756   4.377  10.329  13.411
76661W        W35757  12.307  10.828   0.931
76662W        W35758  17.764   8.379   2.202
76663W        W35759   7.850  17.141  14.459
76664W        W35760   4.235  34.006  13.028
76665W        W35761  20.662   4.225  14.439
76666W        W35762  36.084  17.227   4.641
76667W        W35763  41.320   6.809  11.581
76668W        W35764  34.875  31.031  12.552
76669W        W35765  27.552  20.666   3.801
76670W        W35766   1.387  44.501   4.165
76671W        W35767  25.019  36.006   0.337
76672W        W35768  13.732  23.180  12.075
76673W        W35769  37.083   5.907   1.433
76674W        W35770  29.574  39.884   4.647
76675W        W35771  19.243   6.328   2.844
76676W        W35772   1.955  39.512   4.764
76677W        W35773   2.860   1.936  11.105
76678W        W35774   1.338  32.971  14.355
76679W        W35775  19.655   8.275   2.852
76680W        W35776  43.010  32.026  14.017
76681W        W35777  35.006  43.774   1.816
76682W        W35778  24.982  24.206  10.523
76683W        W35779   5.217  39.021  13.854
76684W        W35780  16.567  12.614   4.758
76685W        W35781  28.164  44.419   3.242
76686W        W35782  43.385   2.918  13.927
76687W        W35783  34.603  29.932  11.103
76688W        W35784  40.499  38.349  13.865
76689W        W35785  30.157  28.562  11.079
76690W        W35786  41.033  37.896   2.804
76691W        W35787  15.739  27.626  12.987
76692W        W35788   6.250  17.235   1.791
76693W        W35789   1.962  15.604   0.962
76694W        W35790  25.027   7.723   1.897
76695W        W35791  17.173  14.148   2.882
76696W        W35792  41.380  43.351  11.396
76697W        W35793  41.009  37.885   2.189
76698W        W35794   6.335   7.731  13.387
76699W        W35795  16.169  10.736  14.897
76700W        W35796   2.402  17.594   3.840
76701W        W35797  20.052  36.471   1.278
76702W        W35798  35.057  14.642  11.911
76703W        W35799  28.510  14.108   2.386
76704W        W35800  17.696  29.618  10.609
76705W        W35801  19.580  33.987   0.388
76706W        W35802  27.967  28.961  11.002
76707W        W35803   0.892   5.378  14.840
76708W        W35804  15.814   0.337  13.811
76709W        W35805  19.638  31.480   2.877
76710W        W35806  33.921   3.947  13.970
76711W        W35807  29.092  30.131   4.717
76712W        W35808  22.242   2.852   1.290
76713W        W35809  30.490  30.138  12.037
76714W        W35810  27.534  19.696  14.382
76715W        W35811  34.435   0.347  13.919
76716W        W35812   1.852  30.015   0.753
76717W        W35813  40.968  29.918  12.995
76718W        W35814   7.286  44.316  14.899
76719W        W35815  29.128   8.163  12.974
76720W        W35816  31.146  41.843  11.052
76721W        W35817   0.277  23.056   0.334
76722W        W35818  42.954  37.078  10.924
76723W        W35819  35.586  40.913  13.975
76724W        W35820  42.797   7.313  11.051
76725W        W35821  33.533   9.802   2.754
76726W        W35822  31.066   8.779  13.486
76727W        W35823  13.657  17.290   1.897
76728W        W35824  29.992  14.618  14.301
76729W        W35825  38.038  36.358  10.977
76730W        W35826  33.476  41.905  12.385
76731W        W35827  20.089   2.759  12.020
76732W        W35828  21.700   2.784  11.582
76733W        W35829   6.895  10.640  12.004
76734W        W35830  14.276  16.100   0.314
76735W        W35831  36.999  41.446  14.805
76736W        W35832  33.452   7.775  12.887
76737W        W35833  28.081  22.139  14.814
76738W        W35834  34.410  10.231  10.942
76739W        W35835  10.820  24.167  13.905
76740W        W35836  10.341  11.251   2.319
76741W        W35837   8.824  32.506  11.899
76742W        W35838  32.400  30.933  13.520
76743W        W35839  24.489   8.786   0.335
76744W        W35840  36.057  17.600  14.482
76745W        W35841  10.156  13.277  11.875
76746W        W35842   5.886  30.069  11.565
76747W        W35843  28.074  37.015   2.774
76748W        W35844  26.562   3.275  13.315
76749W        W35845  10.384  33.936   0.749
76750W        W35846  12.699  35.105  14.767
76751W        W35847  26.549   6.812  14.367
76752W        W35848  28.556   8.656  12.048
76753W        W35849  28.004  26.471   4.122
76754W        W35850  26.678  33.129  12.001
76755W        W35851  14.634  24.989   5.276
76756W        W35852  34.894  36.469  10.587
76757W        W35853  37.001  29.428  10.612
76758W        W35854  13.618  36.456   3.240
76759W        W35855  26.116  22.045   4.606
76760W        W35856  43.314   0.882   0.876
76761W        W35857  12.795  25.968   1.775
76762W        W35858  18.185  39.879   4.308
76763W        W35859  15.766  18.570  10.937
76764W        W35860  38.986  21.068  10.614
76765W        W35861  44.505  25.507   4.124
76766W        W35862  19.168  17.656   0.858
76767W        W35863  42.889  39.857  13.441
76768W        W35864  21.024  37.486   2.815
76769W        W35865  23.586   1.369  11.899
76770W        W35866  35.105  37.036  11.393
76771W        W35867  39.403  19.264  13.044
76772W        W35868  32.488  38.923   0.298
76773W        W35869   3.930   2.257   3.740
76774W        W35870  34.920  39.324   2.222
76775W        W35871   4.228   1.315  10.578
76776W        W35872  30.528  38.336  14.896
76777W        W35873  17.080   3.421  12.531
76778W        W35874  18.114  36.583  12.871
76779W        W35875  24.620  17.225   1.353
76780W        W35876   2.271  27.567   0.920
76781W        W35877  36.936  30.927  13.370
76782W        W35878   4.346  21.661   0.330
76783W        W35879  43.000   5.256   2.857
76784W        W35880  35.417   4.369   2.755
76785W        W35881   6.259  12.838   2.383
76786W        W35882  21.152  16.617   2.665
76787W        W35883   9.287   8.711  13.793
76788W        W35884  17.203   1.792   0.318
76789W        W35885  43.465   0.940   2.219
76790W        W35886  21.139  20.759   4.269
76791W        W35887  23.548   7.676  13.422
76792W        W35888   3.294  27.647   4.335
76793W        W35889   5.731  20.207   2.221
76794W        W35890  18.583  15.775   4.130
76795W        W35891  23.028  30.004  12.570
76796W        W35892  43.458  40.516  11.080
76797W        W35893  33.553   1.854  12.526
76798W        W35894  28.071   4.265  11.475
76799W        W35895   0.311  20.582  13.002
76800W        W35896  40.496  42.374   3.787
76801W        W35897  40.460  28.175  14.515
76802W        W35898  41.846   5.292   2.399
76803W        W35899   1.328  14.645   4.325
76804W        W35900  23.175  33.535  13.009
76805W        W35901   3.335   7.199  11.905
76806W        W35902   4.276  34.912  14.284
76807W        W35903  24.037  26.075  14.000
76808W        W35904  38.906  36.529  12.838
76809W        W35905  25.601  29.117  13.378
76810W        W35906  30.087  34.953   0.731
76811W        W35907  41.886   5.889  12.454
76812W        W35908  22.113  11.309   3.155
76813W        W35909   0.430  39.027  11.957
76814W        W35910  18.672  31.029  11.090
76815W        W35911   1.951  26.685  11.386
76816W        W35912  22.604   0.253  10.406
76817W        W35913  36.034   6.912   2.783
76818W        W35914  29.436  39.347   3.856
76819W        W35915  35.017   7.758   3.333
76820W        W35916  15.138   6.877   4.668
76821W        W35917   1.320  12.147   2.271
76822W        W35918  29.462  26.599  13.512
76823W        W35919  37.881  27.591  14.947
76824W        W35920  39.437  19.566  13.987
76825W        W35921   9.695  22.244  10.479
76826W        W35922  10.360  11.624  13.442
76827W        W35923   7.203  13.687  11.497
76828W        W35924  34.386   1.416  13.809
76829W        W35925  33.502  42.409   3.246
76830W        W35926   6.352  37.349   2.208
76831W        W35927  20.543  40.356  10.998
76832W        W35928  33.073  17.129   0.933
76833W        W35929  28.577  31.599   4.733
76834W        W35930  43.406  12.214   4.114
76835W        W35931  22.597  16.296   2.393
76836W        W35932  24.177  25.135  10.131
76837W        W35933  20.090  24.181   3.350
76838W        W35934  37.831  10.303  13.874
76839W        W35935  14.289  40.047   3.826
76840W        W35936  28.000  18.634   3.749
76841W        W35937  18.078   2.764  12.462
76842W        W35938  24.650  31.431  11.101
76843W        W35939  17.600  25.550   2.724
76844W        W35940  18.140  23.654   1.706
76845W        W35941  23.642  14.226  14.464
76846W        W35942  40.431  30.046  11.449
76847W        W35943   5.379   3.435   2.258
76848W        W35944   4.850  21.171  11.976
76849W        W35945  44.831   1.394   1.417
76850W        W35946   1.947  36.026  13.036
76851W        W35947   0.492  21.518  14.337
76852W        W35948  42.430  16.289   0.777
76853W        W35949   7.286   7.341   4.170
76854W        W35950  43.912  20.538   4.207
76855W        W35951  36.453  22.166   2.842
76856W        W35952  13.175   8.684   0.410
76857W        W35953   7.361  22.207  13.958
76858W        W35954  34.093  12.671  12.479
76859W        W35955  37.445  23.133  12.945
76860W        W35956   7.338   2.282  13.817
76861W        W35957   0.861  14.797  12.888
76862W        W35958  17.649  42.818  14.413
76863W        W35959  17.798  30.089  13.867
76864W        W35960  36.082  19.713   0.479
76865W        W35961   1.975   0.258  12.876
76866W        W35962  25.495  15.752  13.529
76867W        W35963  26.074  11.769   0.475
76868W        W35964  14.168   0.806   2.814
76869W        W35965  32.930  23.146   9.483
76870W        W35966  43.965  24.567  14.831
76871W        W35967  42.504   2.908  10.611
76872W        W35968   5.927   6.369   1.445
76873W        W35969   4.886  43.486  12.379
76874W        W35970  12.695  35.026  14.397
76875W        W35971  23.648  43.830  14.425
76876W        W35972   7.227  20.582  10.435
76877W        W35973  12.169  16.648  11.600
76878W        W35974  19.543   6.229  10.911
76879W        W35975  32.605  42.782   2.332
76880W        W35976  10.158  28.958   1.267
76881W        W35977   3.278  33.974   0.897
76882W        W35978  21.035   2.744   1.414
76883W        W35979  27.974  29.136  11.524
76884W        W35980  39.476  25.169  11.475
76885W        W35981  37.503  32.572   2.302
76886W        W35982  29.089   4.254  12.053
76887W        W35983   8.330  27.587  13.328
76888W        W35984   0.312  23.090   4.324
76889W        W35985  22.697  17.127   4.261
76890W        W35986   3.261   6.286   1.825
76891W        W35987  28.140  38.929   3.647
76892W        W35988  24.022  21.519   3.655
76893W        W35989  10.378  37.400  14.888
76894W        W35990  24.990   9.171  13.308
76895W        W35991  28.491  38.880   2.301
76896W        W35992   2.418  32.947  12.982
76897W        W35993  12.804  25.552   2.227
76898W        W35994  39.933  28.575  10.631
76899W        W35995  19.074  36.012   0.753
76900W        W35996   2.808  44.885   3.841
76901W        W35997  28.477  41.485   0.317
76902W        W35998  12.142   2.232  10.493
76903W        W35999  39.502   3.342  11.053
76904W        W36000  43.011  22.153   0.289
76905W        W36001  23.635  14.661   1.887
76906W        W36002  23.101  32.132  11.007
76907W        W36003  29.997  16.150  11.002
76908W        W36004  12.339  24.718   4.657
76909W        W36005  28.951  11.139  13.030
76910W        W36006   9.181  31.512   2.880
76911W        W36007  35.061  33.125  12.885
76912W        W36008  15.146  26.570  12.406
76913W        W36009  31.990  25.672   2.355
76914W        W36010  14.707  43.361   3.178
76915W        W36011   1.844  15.175  11.061
76916W        W36012  40.937  38.418   3.269
76917W        W36013  43.314  18.654  14.992
76918W        W36014  43.413  31.506   4.744
76919W        W36015  17.669  36.975  10.553
76920W        W36016   8.697  15.578   3.209
76921W        W36017   7.191  40.507   4.636
76922W        W36018  23.190  42.995  14.458
76923W        W36019  39.523  17.692  14.475
76924W        W36020  16.589  33.894   1.792
76925W        W36021  28.038   3.443   0.775
76926W        W36022  36.539  22.715  13.909
76927W        W36023  30.954   5.384   1.251
76928W        W36024   9.647   3.288   2.401
76929W        W36025  24.180  29.553   3.172
76930W        W36026  24.493   8.699   3.762
76931W        W36027  25.972  11.837  12.358
76932W        W36028   3.772  15.167   1.897
76933W        W36029  16.162  32.943  10.413
76934W        W36030   4.823  37.854   4.754
76935W        W36031   8.343   2.236   3.272
76936W        W36032  35.534  14.195  11.912
76937W        W36033  29.044  18.150  14.922
76938W        W36034  36.449  40.043   1.712
76939W        W36035   0.815   3.738  11.970
76940W        W36036  27.523  40.371   2.412
76941W        W36037  22.677  17.789   1.888
76942W        W36038   9.751  28.938   4.269
76943W        W36039  22.133   7.241   2.748
76944W        W36040  11.330  17.117   1.768
76945W        W36041  36.514  35.036  13.321
76946W        W36042   2.803  42.869  11.488
76947W        W36043  38.435   9.256   2.336
76948W        W36044  12.707  35.963  13.829
76949W        W36045  13.798  42.031   1.344
76950W        W36046  41.354  40.390  12.096
76951W        W36047  27.678  42.817  14.762
76952W        W36048  19.536  15.806   3.162
76953W        W36049  44.476   0.305   0.266
76954W        W36050  41.020  37.392   2.243
76955W        W36051  17.286  36.048   0.942
76956W        W36052   0.780  19.733  14.278
76957W        W36053  19.179   2.383   4.274
76958W        W36054  11.279  34.025  11.939
76959W        W36055  30.923  19.108   3.317
76960W        W36056  26.970   6.695   3.222
76961W        W36057  39.923  21.628   4.757
76962W        W36058  39.360  17.144   3.856
76963W        W36059  13.746   8.323  11.008
76964W        W36060   6.307  35.981  10.012
76965W        W36061  42.030  44.380  10.407
76966W        W36062   7.895  28.585  11.467
76967W        W36063  42.030  22.662   5.276
76968W        W36064  26.590  29.471  14.853
76969W        W36065   0.357  33.105  11.387
76970W        W36066  35.393   1.826   2.712
76971W        W36067  26.588  18.138   1.804
76972W        W36068  30.616  29.044   3.188
76973W        W36069   8.224  33.898   2.189
76974W        W36070  34.493  12.693   5.724
76975W        W36071   9.345  34.552   0.397
76976W        W36072  22.032  38.460  11.861
76977W        W36073  18.192  24.029  13.930
76978W        W36074  29.489  42.428   4.185
76979W        W36075   8.313  28.613  14.794
76980W        W36076  38.877  13.202   2.181
76981W        W36077   8.724  21.263   2.719
76982W        W36078  40.444  23.692   2.689
76983W        W36079  43.886  30.095  10.947
76984W        W36080  19.615  40.326   0.838
76985W        W36081  33.090  41.489   4.273
76986W        W36082   3.401  16.660   3.209
76987W        W36083  34.017  19.186  13.475
76988W        W36084  29.047  31.933   1.694
76989W        W36085  20.694  40.461   1.908
76990W        W36086  25.153  28.110   1.343
76991W        W36087  13.228   2.734   4.286
76992W        W36088   0.269  12.250   0.361
76993W        W36089  20.613  18.105   2.889
76994W        W36090  11.684  24.220  12.960
76995W        W36091  25.212  33.620  14.958
76996W        W36092  42.504  43.292  12.538
76997W        W36093  26.621   0.778  11.920
76998W        W36094  22.690  43.364   3.665
76999W        W36095  19.612   4.216   4.221
77000W        W36096  41.348  43.812  13.440
77001W        W36097  41.955  15.154  14.307
77002W        W36098  42.361  41.856  13.432
77003W        W36099  16.807  23.511  14.280
77004W        W36100   4.739   4.236  10.548
77005W        W36101  31.075  19.717  14.987
77006W        W36102   8.344  32.130   0.356
77007W        W36103  32.917   4.351   2.402
77008W        W36104   2.334  10.864  11.101
77009W        W36105  19.096   4.780   4.629
77010W        W36106  13.707  17.595   2.812
77011W        W36107   2.965  29.546   2.341
77012W        W36108  13.811  40.985  14.359
77013W        W36109   4.882  29.623  10.946
77014W        W36110  20.754  44.893   4.827
77015W        W36111   4.268  16.813  10.444
77016W        W36112  29.064   9.232  12.416
77017W        W36113   7.715  20.530  14.305
77018W        W36114  43.964  31.567   2.257
77019W        W36115  41.355   8.178  12.433
77020W        W36116  15.668   3.314   2.769
77021W        W36117  28.155  11.813  11.559
77022W        W36118  42.391  20.176  11.520
77023W        W36119  34.578  26.537   0.357
77024W        W36120  29.627   8.679   4.616
77025W        W36121  25.984  30.582   0.301
77026W        W36122   5.868   6.344   4.753
77027W        W36123  37.831   8.360  12.928
77028W        W36124  39.940  27.592  13.989
77029W        W36125   2.782   7.815   1.323
77030W        W36126  38.401  31.407   3.330
77031W        W36127   9.651  29.049   0.402
77032W        W36128  28.969   4.317  13.005
77033W        W36129  35.906  38.447   3.146
77034W        W36130  20.087  37.947   1.302
77035W        W36131  30.468  31.428  12.456
77036W        W36132  29.056  10.808   4.277
77037W        W36133  18.205  21.594   0.768
77038W        W36134   8.794   0.478   3.288
77039W        W36135  23.606  42.000  11.882
77040W        W36136   9.753  13.695   0.464
77041W        W36137  42.355  37.998   3.759
77042W        W36138  20.665  27.488   1.300
77043W        W36139  16.721  16.701  14.012
77044W        W36140  13.277  10.779   0.409
77045W        W36141   4.449  36.492   0.321
77046W        W36142  19.566   4.855  10.994
77047W        W36143   6.405  16.162  10.589
77048W        W36144  37.461  24.520   0.479
77049W        W36145  39.315  43.819  10.894
77050W        W36146   7.766  40.467  10.626
77051W        W36147   0.945  22.699  14.358
77052W        W36148  44.006  38.965  11.450
77053W        W36149  22.052  17.569   2.897
77054W        W36150  24.005  37.016   5.762
77055W        W36151  12.142  39.501   4.819
77056W        W36152  18.275   1.417   4.798
77057W        W36153  44.299   9.664   4.619
77058W        W36154  16.635  41.440   1.235
77059W        W36155  39.824  42.374   4.685
77060W        W36156   9.221   2.339   2.691
77061W        W36157  38.981  33.905  11.542
77062W        W36158  13.296  26.208  11.988
77063W        W36159  31.974  36.383   2.883
77064W        W36160  36.897   4.827  13.889
77065W        W36161   6.867   5.420   2.417
77066W        W36162  21.600  42.345   3.701
77067W        W36163   2.863  27.446  11.575
77068W        W36164  28.983   8.841   3.270
77069W        W36165  17.256  20.604  11.460
77070W        W36166  21.148  37.425  14.394
77071W        W36167  24.694  35.945   3.805
77072W        W36168  32.550  33.469  10.513
77073W        W36169  31.527  30.972   2.768
77074W        W36170   4.286  10.679   3.146
77075W        W36171  43.299   3.219   4.662
77076W        W36172  17.208  32.395   2.376
77077W        W36173   6.190  37.541  11.961
77078W        W36174  12.641   3.234  13.452
77079W        W36175  33.975  39.914  12.403
77080W        W36176  29.497  20.651   0.914
77081W        W36177  35.522   9.296   3.654
77082W        W36178  33.881   3.431   4.188
77083W        W36179  33.427  41.499  14.312
77084W        W36180   1.354  26.972   4.196
77085W        W36181   5.294  10.791  10.510
77086W        W36182  37.360   2.770  11.515
77087W        W36183   6.701  37.542   3.831
77088W        W36184  11.243   2.291  14.956
77089W        W36185  22.577  19.208  10.134
77090W        W36186  25.501   8.261  11.549
77091W        W36187   1.731  15.264   3.715
77092W        W36188  25.562  43.011  14.032
77093W        W36189   7.349  15.819   2.692
77094W        W36190  35.414  18.685   1.330
77095W        W36191  42.835  29.623  12.856
77096W        W36192   1.300   5.430  11.009
77097W        W36193  25.523  44.815  13.041
77098W        W36194  12.767  31.121   4.349
77099W        W36195  40.007   7.186  13.014
77100W        W36196  19.759  35.939   4.281
77101W        W36197  25.077  14.221   1.836
77102W        W36198   9.689  14.298   3.364
77103W        W36199   6.291  23.493   2.844
77104W        W36200  15.170  28.067   0.769
77105W        W36201  27.528  39.818  12.058
77106W        W36202  18.177   5.289   4.799
77107W        W36203   3.258   1.362  10.499
77108W        W36204  24.055  38.975  14.336
77109W        W36205   9.154  36.054  14.332
77110W        W36206  44.816  24.223  12.015
77111W        W36207   2.344  32.082  10.907
77112W        W36208   9.863   4.847  10.498
77113W        W36209  24.977  34.063   2.281
77114W        W36210  17.745  43.821  14.007
77115W        W36211  25.711  37.897   0.351
77116W        W36212  33.424  19.619   3.177
77117W        W36213  30.620  20.525   2.737
77118W        W36214  14.690  18.242   4.665
77119W        W36215  14.307   0.431  12.354
77120W        W36216  25.029  36.984  12.082
77121W        W36217   7.852  20.716   3.337
77122W        W36218  14.813  37.945   1.767
77123W        W36219  20.690  23.029   0.348
77124W        W36220  25.559  42.006  14.841
77125W        W36221  33.625  44.759  13.330
77126W        W36222  32.986  13.646   2.257
77127W        W36223  25.133  15.671   5.320
77128W        W36224  17.168   2.408  12.031
77129W        W36225   1.261   1.869   4.811
77130W        W36226  17.569   8.744   4.210
77131W        W36227   6.705  41.793   1.745
77132W        W36228  19.555  36.995  14.448
77133W        W36229  43.372  34.068  14.899
77134W        W36230   5.788  23.239  12.383
77135W        W36231  43.493  35.496   0.306
77136W        W36232   3.878  38.016   3.304
77137W        W36233  27.121  28.455   2.857
77138W        W36234  22.190  21.239  10.474
77139W        W36235   3.885   1.759   2.666
77140W        W36236   6.922  24.080  13.309
77141W        W36237  22.719   7.207   4.196
77142W        W36238  25.540   7.392   2.221
77143W        W36239  14.164  33.614   0.940
77144W        W36240  23.173  28.136  12.395
77145W        W36241  40.819  43.975   2.181
77146W        W36242  27.014  34.933   4.680
77147W        W36243  27.539  39.027  14.974
77148W        W36244  43.464  25.042   4.648
77149W        W36245  24.013  24.548  10.966
77150W        W36246  28.153  12.230  11.012
77151W        W36247  29.017  25.469   1.393
77152W        W36248   3.712  14.606  12.444
77153W        W36249  31.988  19.545  10.442
77154W        W36250  29.168  24.223  12.025
77155W        W36251  20.755  43.778  12.084
77156W        W36252  28.152   0.335   0.910
77157W        W36253  38.929  32.514   5.298
77158W        W36254   6.379  21.131  10.032
77159W        W36255  30.132  24.126  12.382
77160W        W36256  30.415  14.788  11.470
77161W        W36257  21.248  35.077   0.872
77162W        W36258  22.172  43.811   1.732
77163W        W36259  43.307   8.721  12.377
77164W        W36260   1.871  18.136   0.787
77165W        W36261   2.393   4.773   4.310
77166W        W36262  21.198  25.042  13.799
77167W        W36263  38.455  36.392  11.936
77168W        W36264  32.992  21.117  12.581
77169W        W36265  11.663  12.192  12.957
77170W        W36266  32.566  20.078   2.818
77171W        W36267  16.662  13.155   1.915
77172W        W36268   2.401  28.978  14.886
77173W        W36269   8.280  44.278   0.331
77174W        W36270  26.613  38.539  12.065
77175W        W36271   7.408  38.568   2.268
77176W        W36272  11.764   6.370  12.904
77177W        W36273   9.169   2.916   1.428
77178W        W36274   4.933   6.316  11.507
77179W        W36275  38.956  32.121  12.070
77180W        W36276  21.153  21.167  13.018
77181W        W36277  26.534  17.166   4.329
77182W        W36278  12.228   1.264   2.244
77183W        W36279  19.141   9.699   9.951
77184W        W36280   5.331  30.486   1.847
77185W        W36281  16.811  44.930   0.843
77186W        W36282  32.119  30.964   3.150
77187W        W36283   3.224  19.088  12.485
77188W        W36284   6.835  12.124   0.873
77189W        W36285  40.418  36.444   3.347
77190W        W36286  14.759  15.643  11.921
77191W        W36287  20.246  16.282   4.698
77192W        W36288  28.453  41.821  10.596
77193W        W36289  41.349   7.852  10.962
77194W        W36290   9.881  44.424   3.162
77195W        W36291  24.485  17.665  14.829
77196W        W36292  41.015   2.903   2.192
77197W        W36293  17.171  14.141  11.097
77198W        W36294  12.240  19.553  12.546
77199W        W36295  34.532  26.098   4.285
77200W        W36296   4.842  26.035   1.215
77201W        W36297  19.654  39.511  11.447
77202W        W36298  42.373  24.495   2.832
77203W        W36299  25.473  16.628   3.207
77204W        W36300  37.848   9.224   2.237
77205W        W36301  27.622  42.407   4.198
77206W        W36302  37.011  34.383  11.126
77207W        W36303  32.919  30.430   1.830
77208W        W36304   9.718  17.145  12.080
77209W        W36305  21.515   8.399   0.484
77210W        W36306  27.034  16.144   4.799
77211W        W36307  31.011  32.929  10.902
77212W        W36308   0.484   6.316  13.879
77213W        W36309  10.783  24.573   1.392
77214W        W36310   8.177  27.613  11.059
77215W        W36311  19.135  28.953  10.892
77216W        W36312  32.938  17.097  14.924
77217W        W36313   1.963   5.724  14.897
77218W        W36314  13.227  24.069   1.392
77219W        W36315  35.856  34.507  13.318
77220W        W36316  10.658  27.566   2.862
77221W        W36317  32.629  19.274   0.926
77222W        W36318   3.755  31.950   3.713
77223W        W36319  24.515  21.089  12.452
77224W        W36320  26.039  21.661   0.891
77225W        W36321  18.195  12.163   3.683
77226W        W36322  30.005   1.847   0.274
77227W        W36323  26.150  15.209   2.766
77228W        W36324  29.090  19.164   5.187
77229W        W36325   7.854  37.360   3.838
77230W        W36326   5.888   1.452  14.796
77231W        W36327   8.383   9.789   1.251
77232W        W36328   1.268  18.595  10.977
77233W        W36329  41.945  29.508  10.601
77234W        W36330  44.396  31.993   5.129
77235W        W36331  11.358  28.625   3.749
77236W        W36332  34.877   2.940  13.064
77237W        W36333  40.465  14.225   0.782
77238W        W36334  15.721  28.530  13.798
77239W        W36335  10.146   2.297  13.791
77240W        W36336  36.436  36.914   3.666
77241W        W36337   8.373  30.477   3.859
77242W        W36338   8.694   0.987   3.164
77243W        W36339  37.489  41.801   5.137
77244W        W36340  15.256   6.844  11.014
77245W        W36341   0.273   6.268  11.051
77246W        W36342  41.430  39.512  13.412
77247W        W36343  11.800   0.422  12.964
77248W        W36344  23.053   7.186   4.272
77249W        W36345  23.582  15.229   3.679
77250W        W36346  44.893  27.678  14.963
77251W        W36347  27.081  21.076   1.714
77252W        W36348  14.776  34.006   0.945
77253W        W36349  32.397  25.501  14.006
77254W        W36350  17.186   9.177   1.219
77255W        W36351   7.184  23.587  11.500
77256W        W36352   5.379  36.852   3.326
77257W        W36353  32.982   3.942  13.452
77258W        W36354   5.813  36.353   1.232
77259W        W36355   3.404  33.123  14.365
77260W        W36356  40.534  42.297   1.752
77261W        W36357  22.176   8.297  11.579
77262W        W36358  10.195  21.518  10.978
77263W        W36359  24.508   5.702   0.847
77264W        W36360   0.760   4.409   1.224
77265W        W36361  41.416  14.732  14.370
77266W        W36362  12.345  28.046   1.775
77267W        W36363  38.478   4.337  10.586
77268W        W36364  20.257  15.132   2.694
77269W        W36365   1.883  33.077   2.763
77270W        W36366  28.655   5.837  10.566
77271W        W36367  41.451  22.647  11.487
77272W        W36368   5.728  20.091  14.496
77273W        W36369   6.779  12.329  12.001
77274W        W36370   9.340   8.178  12.503
77275W        W36371  17.784  22.712  13.466
77276W        W36372   8.705  42.316   2.222
77277W        W36373  36.388  36.893   1.275
77278W        W36374  14.236   4.734   4.197
77279W        W36375  27.129   1.483  11.890
77280W        W36376   5.865  29.158   1.827
77281W        W36377  13.735  27.106  14.829
77282W        W36378  24.012  16.641  13.996
77283W        W36379  40.042  34.393  14.029
77284W        W36380  44.431  10.761  14.989
77285W        W36381  36.369  25.112   0.407
77286W        W36382  16.688  30.011   2.823
77287W        W36383  41.968  33.382  11.518
77288W        W36384   2.401  13.106  12.043
77289W        W36385  12.755  42.425  14.427
77290W        W36386  25.596  25.500  14.310
77291W        W36387  30.609  23.085  11.551
77292W        W36388   4.927  43.842  14.316
77293W        W36389  12.141   2.785  10.967
77294W        W36390  11.702  28.525   2.290
77295W        W36391   5.376  43.311   2.777
77296W        W36392  33.936  10.738  14.873
77297W        W36393  29.935  12.313  14.425
77298W        W36394  12.188  31.023   4.735
77299W        W36395   3.261  35.964   3.821
77300W        W36396  28.556   6.199   2.698
77301W        W36397  13.304  33.531  11.096
77302W        W36398   2.918  35.553  14.362
77303W        W36399   8.224  17.145   3.341
77304W        W36400  39.449  39.907   4.125
77305W        W36401  12.720  42.926  14.974
77306W        W36402   1.246  20.155  13.316
77307W        W36403  16.572   7.280  13.969
77308W        W36404  41.987  27.477  13.056
77309W        W36405  15.252  40.987   4.634
77310W        W36406  42.883  27.195  14.437
77311W        W36407   9.853   1.782  11.573
77312W        W36408  43.456  12.241  14.010
77313W        W36409   9.722  35.001   0.740
77314W        W36410   7.861  13.629  10.436
77315W        W36411  37.360  43.801  10.607
77316W        W36412   9.210  30.483  11.517
77317W        W36413  35.535  38.327   2.362
77318W        W36414  30.138  39.969   2.229
77319W        W36415  27.583  27.531  13.370
77320W        W36416  12.238  42.417   2.786
77321W        W36417  16.245  32.488  13.975
77322W        W36418  14.313  30.507  12.083
77323W        W36419   9.230   6.844   1.405
77324W        W36420   0.941  14.170  13.538
77325W        W36421   3.294  11.783   3.868
77326W        W36422  11.316  32.070  14.800
77327W        W36423  19.162  33.523   1.304
77328W        W36424   9.363  41.456  11.129
77329W        W36425  32.429  16.701  14.349
77330W        W36426   8.283  25.490  13.858
77331W        W36427  27.108  36.983  11.474
77332W        W36428  10.350   2.339   4.637
77333W        W36429  15.809  23.643   1.217
77334W        W36430  44.328   9.317  14.311
77335W        W36431  14.770  14.765   2.219
77336W        W36432  44.995  17.196  12.944
77337W        W36433  22.245  23.568  13.042
77338W        W36434  37.979  17.680   4.740
77339W        W36435  19.227  33.983   1.230
77340W        W36436  11.865  34.423   2.321
77341W        W36437   6.698  34.587   3.279
77342W        W36438  36.493   5.692   4.823
77343W        W36439   1.308  43.321   3.330
77344W        W36440  33.009  27.564   3.833
77345W        W36441  19.542  16.141   3.218
77346W        W36442   6.225  25.128  13.818
77347W        W36443   5.269   3.246  11.067
77348W        W36444  17.239   2.871  12.451
77349W        W36445  15.713  17.774  14.894
77350W        W36446  21.668  33.397  10.625
77351W        W36447   1.747  28.579  12.365
77352W        W36448  35.994  22.172  13.859
77353W        W36449  19.777   3.891   3.743
77354W        W36450  19.737  37.363   5.284
77355W        W36451  34.512  12.678   2.719
77356W        W36452  32.613   0.955  11.998
77357W        W36453  19.776  28.452   3.739
77358W        W36454  44.859  33.086  11.480
77359W        W36455  33.013  41.021  11.386
77360W        W36456   2.737  44.855  12.415
77361W        W36457  44.268  24.173   5.215
77362W        W36458  40.327  28.946   3.822
77363W        W36459  30.961   7.834   2.394
77364W        W36460  37.451  30.544  12.449
77365W        W36461  11.822  42.796  11.446
77366W        W36462  10.682   7.780  13.951
77367W        W36463  35.975  11.621  13.357
77368W        W36464  36.048   7.223  10.462
77369W        W36465  38.510  39.827  10.482
77370W        W36466   5.348   8.885  12.995
77371W        W36467  24.616  26.203   3.290
77372W        W36468  12.671  32.040   2.859
77373W        W36469  43.974  28.149  13.001
77374W        W36470  34.057  41.996  13.327
77375W        W36471  40.857  16.241  13.974
77376W        W36472  41.824  11.644  13.865
77377W        W36473   3.783   9.783   1.447
77378W        W36474  38.401  25.554   4.698
77379W        W36475  27.691  11.851  12.342
77380W        W36476  35.957  39.008  12.079
77381W        W36477  38.922  35.042   2.240
77382W        W36478  32.057   0.987  13.932
77383W        W36479  23.498  37.419   4.322
77384W        W36480  14.137  17.251  10.567
77385W        W36481  17.095   2.408   4.261
77386W        W36482  24.186  29.175  13.452
77387W        W36483  10.308   3.229   0.879
77388W        W36484   9.863  15.725   0.280
77389W        W36485   6.324  21.185   3.241
77390W        W36486  42.032  35.999  11.948
77391W        W36487  16.073  19.078   3.805
77392W        W36488  44.995  15.697  10.024
77393W        W36489   0.973  29.580  11.501
77394W        W36490   4.841  15.577   2.678
77395W        W36491   4.403  16.146   3.292
77396W        W36492  25.574  34.555   0.898
77397W        W36493  21.658  40.900   4.833
77398W        W36494  39.322  43.468   1.334
77399W        W36495  27.029  34.438   0.799
77400W        W36496  42.910  24.692  14.777
77401W        W36497   4.425  42.971   4.258
77402W        W36498  11.730  12.739  11.939
77403W        W36499   3.714  30.001  14.023
77404W        W36500   8.340   0.922  12.907
77405W        W36501  27.656  33.623   4.625
77406W        W36502  24.108  25.182  13.816
77407W        W36503  24.999   3.733  12.905
77408W        W36504  22.501  28.119  13.835
77409W        W36505  21.109   0.905  13.825
77410W        W36506  37.412  44.458   4.740
77411W        W36507  36.914  27.116   3.169
77412W        W36508  26.170   0.862   0.879
77413W        W36509   1.337  25.672   1.388
77414W        W36510   2.454  39.820  12.451
77415W        W36511   7.365  32.417  12.036
77416W        W36512   1.350  43.890   1.424
77417W        W36513   8.773  38.413  13.862
77418W        W36514   9.865  20.248   2.805
77419W        W36515  11.188  20.695  10.614
77420W        W36516  19.653  40.352  14.304
77421W        W36517  30.090  31.147  12.474
77422W        W36518  24.975  37.934  14.780
77423W        W36519  38.565  43.774   0.811
77424W        W36520  12.314  28.125  10.554
77425W        W36521  29.647   8.373  14.792
77426W        W36522  31.917   5.806   3.341
77427W        W36523  23.166  25.962  14.300
77428W        W36524  12.324   1.884  11.577
77429W        W36525  23.001   2.454  12.516
77430W        W36526  14.185   2.386  10.963
77431W        W36527   4.342  19.600   3.858
77432W        W36528  10.875  17.781  14.861
77433W        W36529  41.305  31.113   1.813
77434W        W36530  20.141  24.160  13.840
77435W        W36531  11.755   1.252  11.012
77436W        W36532  18.754  23.180  13.312
77437W        W36533  21.135  44.804   0.408
77438W        W36534   4.440   3.866  14.765
77439W        W36535  39.854  16.575  12.861
77440W        W36536   2.782  31.437  14.275
77441W        W36537  18.271   8.393  14.512
77442W        W36538  37.397  33.611   4.798
77443W        W36539   4.317   6.334  12.061
77444W        W36540   7.867  23.686  13.035
77445W        W36541  39.000  12.272  12.835
77446W        W36542   6.698  36.915  13.336
77447W        W36543  18.123  22.166  10.423
77448W        W36544  23.681   2.967  12.827
77449W        W36545  39.472  36.570   1.775
77450W        W36546  14.327   5.824   1.450
77451W        W36547  19.634  43.767   1.414
77452W        W36548   5.929  13.138  13.810
77453W        W36549   6.253   1.821  12.877
77454W        W36550   3.932  23.217  10.533
77455W        W36551  42.436  43.963   0.248
77456W        W36552  29.920  22.053   4.722
77457W        W36553  41.322   1.253  13.812
77458W        W36554  28.134   3.924   4.312
77459W        W36555  37.395  38.835  12.880
77460W        W36556   2.754  26.565   2.706
77461W        W36557  36.417  37.496  12.563
77462W        W36558  24.683   6.345  13.401
77463W        W36559  24.709   1.293  13.876
77464W        W36560  26.458  18.615  11.418
77465W        W36561  28.031  30.485  14.906
77466W        W36562  28.540   0.914  14.802
77467W        W36563  39.032  44.406   3.847
77468W        W36564  14.240  29.046   2.255
77469W        W36565  34.926  41.929   2.701
77470W        W36566  18.764  12.627  12.066
77471W        W36567  29.531  28.085  14.873
77472W        W36568  40.510   6.779  11.598
77473W        W36569  18.555  29.604   4.700
77474W        W36570  30.014   8.245  13.964
77475W        W36571   3.439   1.801  12.865
77476W        W36572  32.606  38.007   0.322
77477W        W36573  43.876  32.062  11.109
77478W        W36574  39.843  30.037  11.905
77479W        W36575  11.199  38.460   3.791
77480W        W36576  34.942   6.707  10.901
77481W        W36577  18.638   4.371   0.759
77482W        W36578   6.737  15.160  13.331
77483W        W36579  34.488  27.565   3.232
77484W        W36580  29.638  30.016  12.927
77485W        W36581  28.003  33.969  10.945
77486W        W36582  21.647  34.383   1.327
77487W        W36583  26.097  32.051  14.474
77488W        W36584  41.042  23.587  14.931
77489W        W36585  38.966  23.672  14.325
77490W        W36586   1.343  29.946   3.823
77491W        W36587  24.226  18.593  11.113
77492W        W36588   5.395  39.449  13.059
77493W        W36589  13.662  24.670   1.286
77494W        W36590  24.699  29.013   4.814
77495W        W36591  18.570  27.468  13.546
77496W        W36592   3.926  15.736   1.923
77497W        W36593  32.887   0.281  12.439
77498W        W36594  22.634  21.143   0.898
77499W        W36595   4.332  28.104  14.383
77500W        W36596  19.729  26.472  13.817
77501W        W36597  19.269   0.821  12.473
77502W        W36598   7.771  25.168   2.313
77503W        W36599  42.961  33.083  11.477
77504W        W36600  26.551   4.814  12.426
77505W        W36601  22.530  41.805  11.950
77506W        W36602  34.027  30.451  10.551
77507W        W36603  44.385   0.260   1.411
77508W        W36604   2.790  33.434   3.758
77509W        W36605  24.549  30.467  14.812
77510W        W36606  44.875  13.188   4.296
77511W        W36607  30.599  22.571   3.746
77512W        W36608  33.489  39.548   3.205
77513W        W36609  12.818  31.591  14.363
77514W        W36610  29.659  23.146  14.354
77515W        W36611  30.139  31.005  12.887
77516W        W36612   1.420  35.856   4.745
77517W        W36613  19.252  37.568  14.451
77518W        W36614  11.184   6.687  11.445
77519W        W36615  32.951  28.674   1.318
77520W        W36616  28.939  16.130  12.048
77521W        W36617   5.895  11.134  14.337
77522W        W36618  43.485  26.073  12.454
77523W        W36619   2.374  13.774  12.976
77524W        W36620  43.017  43.889  14.772
77525W        W36621   4.290  33.897  14.894
77526W        W36622  31.525  35.534  12.398
77527W        W36623   3.356  20.676  14.999
77528W        W36624   3.939  29.988  14.322
77529W        W36625  17.620  15.130   3.320
77530W        W36626  16.113  30.496   4.616
77531W        W36627  42.911  34.428   4.635
77532W        W36628  37.510   9.284  13.793
77533W        W36629  31.128  39.836  12.351
77534W        W36630  41.866  39.516   3.318
77535W        W36631  33.425  28.453  13.511
77536W        W36632  40.528  33.010  13.480
77537W        W36633  33.572  15.271  14.927
77538W        W36634  31.101  40.003  14.300
77539W        W36635  40.028  28.987  11.086
77540W        W36636   5.195  31.897   4.301
77541W        W36637   2.943  43.352   2.788
77542W        W36638  20.764  19.218   4.201
77543W        W36639  37.883  32.920   3.697
77544W        W36640  37.963  39.008   0.810
77545W        W36641  43.001  33.446  13.862
77546W        W36642  41.373  39.324   1.711
77547W        W36643  21.019   6.263  13.865
77548W        W36644  16.661  31.596   3.238
77549W        W36645  42.386  33.611  13.800
77550W        W36646  11.193   8.872  13.984
77551W        W36647  10.720  27.535   4.683
77552W        W36648  12.256  30.643  13.328
77553W        W36649   4.220  42.402  14.372
77554W        W36650  28.996   6.366  14.387
77555W        W36651  41.868  24.595  13.042
77556W        W36652  38.448  20.546  11.589
77557W        W36653  40.548  17.629   3.700
77558W        W36654  17.302   7.778  13.949
77559W        W36655  27.068  31.406  10.619
77560W        W36656  32.037  42.399   2.692
77561W        W36657  25.697  34.536   2.731
77562W        W36658   2.722   3.762  14.996
77563W        W36659  26.545  16.672   0.424
77564W        W36660  23.210  36.063   4.246
77565W        W36661  36.950  14.281   4.722
77566W        W36662  23.001   0.810   0.307
77567W        W36663  36.588  35.561   4.823
77568W        W36664   8.334  32.939   2.896
77569W        W36665  15.674   8.867   4.196
77570W        W36666  20.130  34.058  14.300
77571W        W36667   2.762  39.031   4.617
77572W        W36668  38.018  41.359   4.151
77573W        W36669   4.899  16.131   2.203
77574W        W36670  23.645  27.684   0.274
77575W        W36671  37.440  13.251   0.820
77576W        W36672  22.104  38.348  13.885
77577W        W36673  41.360  23.503  10.954
77578W        W36674  34.397   4.850  11.397
77579W        W36675  10.794  33.034   1.244
77580W        W36676  12.280  41.859   4.830
77581W        W36677  20.697  34.602  12.914
77582W        W36678  22.593   4.411   0.804
77583W        W36679  39.924  30.622  12.487
77584W        W36680   2.244   4.235  11.473
77585W        W36681  16.612  41.477   2.329
77586W        W36682   5.774  18.295  13.497
77587W        W36683  15.596  39.047   3.683
77588W        W36684  34.041  19.557   1.917
77589W        W36685  36.458  36.562   1.439
77590W        W36686  19.203  44.898  11.030
77591W        W36687  32.413  33.875  11.085
77592W        W36688  29.171  34.876  11.493
77593W        W36689   3.809  16.699   1.922
77594W        W36690   4.756  19.202   2.275
77595W        W36691  43.485  20.533  12.385
77596W        W36692  14.805   1.944   4.809
77597W        W36693   5.775   9.735   3.668
77598W        W36694  22.239  20.085   4.682
77599W        W36695  25.662  29.012   0.424
77600W        W36696  33.602  20.615  10.452
77601W        W36697  18.200  33.093   4.308
77602W        W36698  10.267   3.752   1.883
77603W        W36699  26.640  30.463  12.379
77604W        W36700   2.833  13.730   4.216
77605W        W36701  37.952   7.778   2.243
77606W        W36702  23.155  18.777  12.409
77607W        W36703  34.385   8.680   3.282
77608W        W36704  10.640  11.788  14.925
77609W        W36705   7.377  22.647   1.734
77610W        W36706  44.983  27.146   3.196
77611W        W36707  13.222   7.904  13.340
77612W        W36708   7.834   5.377  13.829
77613W        W36709  25.575   5.425  13.810
77614W        W36710  31.483  41.343   0.804
77615W        W36711  29.132  21.223   4.625
77616W        W36712  13.784   2.721   1.737
77617W        W36713   6.382  23.011   4.714
77618W        W36714  30.016   9.165   3.261
77619W        W36715  12.684  31.424  10.055
77620W        W36716   8.861  25.706  12.838
77621W        W36717   4.901  23.496   0.767
77622W        W36718  25.657  34.565   9.576
77623W        W36719  22.200  40.408   4.305
77624W        W36720   2.723  40.511  10.912
77625W        W36721  17.780  31.092   1.908
77626W        W36722   8.268  28.675   2.750
77627W        W36723  31.576  10.764   2.854
77628W        W36724   0.489  11.226  14.810
77629W        W36725  44.269  26.048   1.781
77630W        W36726  29.608  20.274   2.784
77631W        W36727   3.397  21.040  14.874
77632W        W36728  10.682  28.057  11.976
77633W        W36729  23.572  11.296  14.460
77634W        W36730  40.808   0.398  13.361
77635W        W36731  25.097   7.873  12.442
77636W        W36732  31.070  44.841   3.341
77637W        W36733   4.304  23.698   0.945
77638W        W36734  20.603  35.527  11.047
77639W        W36735  20.197  16.269   2.768
77640W        W36736  25.977  29.477  14.998
77641W        W36737  25.218   7.281   2.892
77642W        W36738  18.619  28.043  12.503
77643W        W36739  15.596   8.180   2.309
77644W        W36740  29.499  40.469   9.996
77645W        W36741  25.205  38.059   2.257
77646W        W36742  41.328   3.955   1.381
77647W        W36743  38.833  12.614  14.966
77648W        W36744  31.999  12.819   4.193
77649W        W36745  43.786  17.763   0.891
77650W        W36746   7.839  36.984  12.449
77651W        W36747  33.091  37.353  11.966
77652W        W36748  37.005  27.062  12.933
77653W        W36749  11.342  17.701   0.966
77654W        W36750  31.138  36.554   4.354
77655W        W36751  36.448   2.279   3.727
77656W        W36752   0.422  31.929   1.253
77657W        W36753  17.072  28.657   1.428
77658W        W36754  40.975  26.658  11.032
77659W        W36755  10.269   6.799   3.225
77660W        W36756  24.209  44.436  12.868
77661W        W36757  12.635   2.766  10.419
77662W        W36758  24.662   3.887  14.934
77663W        W36759  41.936  38.475  14.987
77664W        W36760  31.033  16.277   1.279
77665W        W36761  28.466  27.554   0.829
77666W        W36762  24.975  15.261   3.634
77667W        W36763  30.974   1.933   5.144
77668W        W36764  19.755   0.285   0.873
77669W        W36765   9.732   6.200  12.502
77670W        W36766  15.609   1.372   3.196
77671W        W36767  38.028  16.298  10.482
77672W        W36768  24.983  36.469   2.689
77673W        W36769  41.371   6.309  10.541
77674W        W36770   0.971  29.520  13.060
77675W        W36771  12.274  20.267   5.284
77676W        W36772   1.811  39.353   1.832
77677W        W36773  15.294  15.156   2.804
77678W        W36774  34.079  22.106  12.888
77679W        W36775   7.895   3.900   3.190
77680W        W36776   8.266   7.232   3.332
77681W        W36777  23.220  26.523  12.534
77682W        W36778  40.516  21.124  11.861
77683W        W36779  36.439  16.196   1.282
77684W        W36780  15.191  43.451  10.571
77685W        W36781  24.088  12.776  11.966
77686W        W36782  44.795  30.450   2.369
77687W        W36783  25.142   8.871   3.785
77688W        W36784  18.140  30.002   2.794
77689W        W36785  36.593  13.712  14.761
77690W        W36786   0.345  26.043  12.465
77691W        W36787  27.966   3.257   2.245
77692W        W36788   4.794  43.887   2.368
77693W        W36789  25.083  37.521  13.854
77694W        W36790  17.067   7.383  14.905
77695W        W36791  26.197  37.085   1.706
77696W        W36792   0.329  24.225   3.836
77697W        W36793  15.147  34.459  11.394
77698W        W36794  20.613   3.928  11.982
77699W        W36795   8.788  12.329   0.331
77700W        W36796  22.055  18.260   4.617
77701W        W36797  27.589  21.196  13.468
77702W        W36798  21.035  35.392   4.711
77703W        W36799  20.206  30.951  12.921
77704W        W36800  17.306  25.632  12.484
77705W        W36801  37.028  17.193  12.944
77706W        W36802  23.085   1.871   2.674
77707W        W36803  15.717   5.418   0.956
77708W        W36804  12.137   2.423  12.859
77709W        W36805  25.091  31.010   4.598
77710W        W36806  15.668  37.549   4.636
77711W        W36807  27.651  30.116   2.754
77712W        W36808   0.870   4.749   3.632
77713W        W36809  27.490  44.273  13.340
77714W        W36810  28.613  28.649   3.652
77715W        W36811  29.941   4.432   0.962
77716W        W36812  23.537   4.894   0.386
77717W        W36813  13.608  25.006   4.623
77718W        W36814  34.084  10.232  10.055
77719W        W36815   2.453  31.456   1.376
77720W        W36816   1.770  12.162   2.778
77721W        W36817  16.803   8.687  11.975
77722W        W36818  39.808   0.390  14.490
77723W        W36819  12.170  35.891   2.191
77724W        W36820  20.132   2.901   2.682
77725W        W36821  42.363  17.747   4.632
77726W        W36822  34.478  38.527  11.064
77727W        W36823  32.463  35.032   0.856
77728W        W36824  15.123  25.013   1.365
77729W        W36825   8.869  22.526   3.330
77730W        W36826  39.931  43.476  12.987
77731W        W36827  37.872  41.429  14.928
77732W        W36828  23.506  33.067   3.277
77733W        W36829  24.222  22.704  14.376
77734W        W36830  21.597   7.412   3.760
77735W        W36831  15.294  41.496   2.185
77736W        W36832  10.191  29.014   4.264
77737W        W36833  23.563   2.465  12.373
77738W        W36834  39.436  12.184   3.265
77739W        W36835  44.417  39.925   1.802
77740W        W36836  25.039   7.339   4.157
77741W        W36837  28.138   5.804   1.884
77742W        W36838  11.823  22.558  12.557
77743W        W36839   8.833  16.733  13.883
77744W        W36840   9.323  44.952   2.278
77745W        W36841  39.942  32.449  14.825
77746W        W36842  15.700  44.338   3.314
77747W        W36843  14.152  20.042  14.799
77748W        W36844  23.057  39.472  12.936
77749W        W36845  43.953  34.043   3.767
77750W        W36846  32.439  42.460  14.335
77751W        W36847  29.521  22.669   0.282
77752W        W36848  24.149  13.819   1.808
77753W        W36849  41.943  15.698   2.294
77754W        W36850   8.679   6.825  13.853
77755W        W36851  42.481  17.653   1.272
77756W        W36852  32.447  20.679  12.366
77757W        W36853  19.172  13.241  11.950
77758W        W36854  44.429   4.411  11.916
77759W        W36855  26.479   6.400  11.912
77760W        W36856  41.479  43.342  14.772
77761W        W36857  34.428  12.221  12.072
77762W        W36858  41.814   6.183  11.009
77763W        W36859  44.791  31.082   1.216
77764W        W36860  23.541  37.493  12.453
77765W        W36861  42.357  10.790   3.147
77766W        W36862  29.078  43.460  14.433
77767W        W36863  26.571   4.221   2.882
77768W        W36864  29.174  27.485   1.425
77769W        W36865  15.792  25.101   1.311
77770W        W36866   6.835  12.680   0.256
77771W        W36867  41.330  13.750  13.448
77772W        W36868  17.573  27.148   0.836
77773W        W36869  38.903  26.978  11.588
77774W        W36870  12.774  10.356   0.282
77775W        W36871   1.364  32.415   0.453
77776W        W36872  11.674   8.199   2.418
77777W        W36873   8.399  11.836  14.899
77778W        W36874  17.088  20.687  14.299
77779W        W36875  33.412  29.461   3.845
77780W        W36876   7.859  26.057  10.049
77781W        W36877  34.094  18.226   0.948
77782W        W36878  15.619  33.624   0.732
77783W        W36879  35.528  26.524  12.391
77784W        W36880   4.358  14.598   0.291
77785W        W36881  40.050  11.372   3.219
77786W        W36882  34.106  33.042  12.996
77787W        W36883  31.929  18.098  13.348
77788W        W36884  41.507  26.080   1.732
77789W        W36885  31.942   9.308  12.028
77790W        W36886   3.723  22.192   3.243
77791W        W36887  14.210  30.581   1.836
77792W        W36888  29.530   2.447  12.400
77793W        W36889  21.728  25.674  13.546
77794W        W36890  12.787   9.269  11.599
77795W        W36891  41.432  31.553   3.791
77796W        W36892  10.287  21.652  13.457
77797W        W36893  27.998  42.320  13.800
77798W        W36894  18.629  41.001   0.386
77799W        W36895  21.552  36.526   0.960
77800W        W36896  27.195  39.933  12.959
77801W        W36897  39.043  28.491   2.829
77802W        W36898   4.280   5.762  13.375
77803W        W36899  43.895  44.942  12.043
77804W        W36900   0.261  34.517  11.032
77805W        W36901  24.552  21.625   0.825
77806W        W36902  24.558  17.243   1.863
77807W        W36903  21.028  27.567   1.863
77808W        W36904  20.225  14.230   5.312
77809W        W36905  36.087  31.509   1.809
77810W        W36906  28.609   3.940  13.450
77811W        W36907   4.867  41.867   4.299
77812W        W36908   2.869  35.397  12.391
77813W        W36909  38.865  23.619  14.846
77814W        W36910  33.467  38.938  14.306
77815W        W36911  10.860  21.197   2.289
77816W        W36912  33.929  36.026  12.913
77817W        W36913  35.374  41.888  14.874
77818W        W36914  27.014   5.731   3.693
77819W        W36915  44.950  26.158   0.358
77820W        W36916  13.157  17.296   2.182
77821W        W36917  37.557  25.537   1.262
77822W        W36918  27.995   8.691  14.321
77823W        W36919   3.271  37.390  11.905
77824W        W36920  34.923  31.969   2.360
77825W        W36921  15.776  11.157   3.371
77826W        W36922   5.225   5.717  12.557
77827W        W36923  44.328  27.110   2.812
77828W        W36924  40.857  12.825   0.778
77829W        W36925  20.212  23.161  14.829
77830W        W36926   1.773  26.122  13.865
77831W        W36927  27.506   1.311  14.294
77832W        W36928  32.573  11.262   4.128
77833W        W36929  14.787  44.910  13.456
77834W        W36930  16.089  31.455  12.064
77835W        W36931  10.692  25.521   2.810
77836W        W36932  41.004  14.299   1.736
77837W        W36933  33.616  26.678   1.781
77838W        W36934   2.348   4.296   1.904
77839W        W36935  40.927  16.180  10.905
77840W        W36936  28.667   5.748   0.841
77841W        W36937  15.582  34.874  11.882
77842W        W36938  23.208  26.648   4.629
77843W        W36939   8.181   6.311   0.866
77844W        W36940  29.174  29.976  10.609
77845W        W36941  35.497   1.931   2.311
77846W        W36942  22.157  32.928  12.872
77847W        W36943  23.656  42.494  12.534
77848W        W36944  13.800  43.304  10.408
77849W        W36945  34.437  44.325  14.777
77850W        W36946  16.270  28.674  12.353
77851W        W36947  10.705  37.968  14.385
77852W        W36948  35.949  10.218  12.436
77853W        W36949  17.669  17.233   4.242
77854W        W36950  18.176  26.035  12.494
77855W        W36951   6.725  40.808   2.352
77856W        W36952  37.352   6.278  10.609
77857W        W36953  16.248  18.288  11.114
77858W        W36954   4.855  32.054   0.292
77859W        W36955  44.314  13.730  10.535
77860W        W36956  11.783  24.154  12.072
77861W        W36957   8.695  40.395   5.162
77862W        W36958  43.281  43.351   0.362
77863W        W36959  25.478  36.856  14.493
77864W        W36960  24.523  16.136   1.935
77865W        W36961  18.617  42.796  10.497
77866W        W36962   9.249  31.965   4.708
77867W        W36963  29.172  25.024  11.014
77868W        W36964  22.226  19.168   3.701
77869W        W36965  11.209  17.297   2.321
77870W        W36966  43.975  31.961   0.822
77871W        W36967   2.262  13.822  11.048
77872W        W36968   9.172  26.965  12.869
77873W        W36969  41.939  43.282  14.461
77874W        W36970  27.016   0.855  10.927
77875W        W36971   1.929   7.411   0.815
77876W        W36972   9.656  18.107  13.983
77877W        W36973  30.553  37.481   9.510
77878W        W36974   9.658  10.842   3.805
77879W        W36975  19.665   3.915  11.081
77880W        W36976  28.549  24.651   2.212
77881W        W36977  39.991  37.022  14.309
77882W        W36978   7.346  35.872  11.084
77883W        W36979  15.241  32.562   4.273
77884W        W36980  35.391  11.344   2.902
77885W        W36981  31.136  12.760   4.339
77886W        W36982  43.516  26.002   1.433
77887W        W36983  41.838   8.261  10.594
77888W        W36984  13.688  30.539   3.216
77889W        W36985  12.809  11.262  13.804
77890W        W36986   1.483  43.938  12.936
77891W        W36987  40.920  30.974  10.441
77892W        W36988   5.229  39.841  14.793
77893W        W36989  19.182   7.724   1.227
77894W        W36990  26.972  24.060   3.256
77895W        W36991  14.774  31.588  11.414
77896W        W36992  19.667  14.746  10.952
77897W        W36993  34.568  43.369   3.671
77898W        W36994   8.256  10.230  11.111
77899W        W36995  26.093  20.164   2.729
77900W        W36996  36.393   3.317   2.738
77901W        W36997   6.214  34.555  14.321
77902W        W36998  36.405  36.349  12.420
77903W        W36999  33.405  35.457  14.357
77904W        W37000   0.408  20.161   4.114
77905W        W37001  23.718  19.136   9.444
77906W        W37002  37.085  21.522   2.261
77907W        W37003  17.117  36.431  13.464
77908W        W37004  28.608  42.830  13.887
77909W        W37005  12.118  21.238  13.026
77910W        W37006  36.859   7.337  11.110
77911W        W37007  43.823   9.261  14.814
77912W        W37008  42.998  33.951  11.422
77913W        W37009   0.276  26.564  12.841
77914W        W37010  23.180  40.892  10.445
77915W        W37011   2.309   4.709  13.365
77916W        W37012  11.374  43.331   2.360
77917W        W37013  20.179   4.389  10.458
77918W        W37014  16.760   5.721   3.633
77919W        W37015  39.968  27.073  11.960
77920W        W37016  20.652  22.193   1.278
77921W        W37017  40.321  25.591   3.867
77922W        W37018   1.300  40.025  13.893
77923W        W37019  17.270  36.489  13.966
77924W        W37020  42.785  44.811   4.324
77925W        W37021  19.098  25.123  13.898
77926W        W37022  19.689  34.992   0.450
77927W        W37023  16.681  38.482   3.370
77928W        W37024  26.011   2.438   1.239
77929W        W37025  24.060  38.937  13.970
77930W        W37026   3.762  29.558  11.023
77931W        W37027  13.205   9.354  13.474
77932W        W37028   6.402  20.682  12.413
77933W        W37029   0.443  18.157  12.412
77934W        W37030  17.220  27.540  13.041
77935W        W37031  17.739  21.545   4.673
77936W        W37032  42.306   9.745  14.286
77937W        W37033   6.727  42.290   4.178
77938W        W37034  22.663  38.884   0.408
77939W        W37035  41.525   3.298  12.001
77940W        W37036  43.396  33.877  11.591
77941W        W37037  31.596   3.223   0.319
77942W        W37038  36.497  13.113   4.288
77943W        W37039  40.421  38.061  13.866
77944W        W37040  33.091  15.140   4.813
77945W        W37041  13.177  36.956   3.163
77946W        W37042  17.677  27.023   2.676
77947W        W37043  20.686   5.699  13.316
77948W        W37044  25.705  19.682   0.253
77949W        W37045  25.482  36.087   4.175
77950W        W37046  31.961  17.769  10.926
77951W        W37047  41.928  24.042   3.163
77952W        W37048  43.977  17.781  13.454
77953W        W37049  12.323  44.326   0.922
77954W        W37050  38.499  43.490  13.414
77955W        W37051   0.271  39.500  12.084
77956W        W37052  13.190  41.985   4.264
77957W        W37053  38.431  27.599   0.965
77958W        W37054  20.047  28.064  11.934
77959W        W37055  36.574  23.226   1.797
77960W        W37056  17.598  42.368  10.458
77961W        W37057  38.012  41.797   4.618
77962W        W37058  31.152   8.267  11.882
77963W        W37059  34.385  30.021   0.376
77964W        W37060   3.336   0.453   2.210
77965W        W37061   1.300  36.484  10.445
77966W        W37062  13.178  33.506  13.961
77967W        W37063   5.329  39.478  12.468
77968W        W37064  38.065  33.077   3.171
77969W        W37065   4.900   8.897  10.012
77970W        W37066  20.740  31.134  13.008
77971W        W37067  14.253  41.527   4.805
77972W        W37068  23.197   1.275  11.570
77973W        W37069  14.749   4.856   0.775
77974W        W37070  16.793  28.952   3.838
77975W        W37071  29.658  24.060  14.292
77976W        W37072  37.513  13.687  12.874
77977W        W37073   0.807  39.889   1.694
77978W        W37074   4.882  33.558  14.333
77979W        W37075   4.263  17.215   3.378
77980W        W37076  10.341  20.167   1.785
77981W        W37077  26.206  13.245   3.199
77982W        W37078   5.865   2.904  13.982
77983W        W37079  29.669  44.364   5.224
77984W        W37080  17.304  35.484  12.935
77985W        W37081  32.922   2.366   1.250
77986W        W37082  21.251  32.410   0.259
77987W        W37083   6.689   1.832   4.717
77988W        W37084  31.408   8.264  14.929
77989W        W37085   3.295  30.474   3.291
77990W        W37086  29.920  39.849   2.887
77991W        W37087  37.967  18.788   0.782
77992W        W37088  31.638  33.015   0.466
77993W        W37089  27.012   6.893   1.262
77994W        W37090  17.211  36.845  11.570
77995W        W37091  28.636  36.450  10.975
77996W        W37092   8.813  35.567   2.852
77997W        W37093  38.859   5.922  12.953
77998W        W37094  15.809   9.331  11.425
77999W        W37095  32.022  37.508  11.452
78000W        W37096  20.594   0.271  12.480
78001W        W37097  20.716   4.350   2.727
78002W        W37098   9.666   4.847   1.908
78003W        W37099  11.298  37.574  14.496
78004W        W37100  26.651  42.338  12.962
78005W        W37101  35.883  34.583  14.401
78006W        W37102  28.667  23.675  13.431
78007W        W37103  12.646   8.743   3.822
78008W        W37104   4.386  41.925  14.031
78009W        W37105   9.166  33.015   3.187
78010W        W37106   2.411  14.130   3.722
78011W        W37107  32.004  36.027   4.284
78012W        W37108  41.338  15.730  14.988
78013W        W37109   1.761  41.423   0.335
78014W        W37110  17.797  15.730   4.803
78015W        W37111  18.554  28.000   0.829
78016W        W37112   2.441  19.670   0.263
78017W        W37113  34.449  33.943  14.959
78018W        W37114  44.372  42.367   4.750
78019W        W37115  17.183  30.512  13.989
78020W        W37116   9.810  19.583   2.885
78021W        W37117  29.922  15.686  11.497
78022W        W37118  34.427  10.334   3.347
78023W        W37119  39.356  37.578   4.724
78024W        W37120  32.064  13.731  11.908
78025W        W37121  15.803  29.156   9.982
78026W        W37122  37.355   5.690   1.262
78027W        W37123  15.232  29.535  11.879
78028W        W37124   6.308  41.319   2.253
78029W        W37125  27.586  19.057   3.797
78030W        W37126  27.689  31.079   1.828
78031W        W37127  37.086  11.708  10.583
78032W        W37128   2.412  12.652  11.030
78033W        W37129  13.833  38.867  12.045
78034W        W37130  23.114  32.564  13.870
78035W        W37131  40.823  44.857  10.589
78036W        W37132  42.960   7.826  11.605
78037W        W37133  34.875  25.587  13.389
78038W        W37134  17.661   1.371   4.817
78039W        W37135  21.697  42.021  12.408
78040W        W37136  24.536  42.492   3.733
78041W        W37137  27.109  16.085  12.361
78042W        W37138  29.933  14.193   3.807
78043W        W37139  25.082  37.944   5.185
78044W        W37140  34.424  11.828   1.259
78045W        W37141  18.264  41.991   0.372
78046W        W37142  40.473  23.072   3.739
78047W        W37143  12.287  13.258   0.462
78048W        W37144  42.003  22.106  14.426
78049W        W37145  31.030  33.902   0.958
78050W        W37146  15.133   0.452  14.515
78051W        W37147  31.555  21.515  14.502
78052W        W37148  12.207   6.838   3.769
78053W        W37149  41.291  30.002   1.314
78054W        W37150  34.026  13.707   3.230
78055W        W37151  13.113  44.404   0.934
78056W        W37152  25.675  38.839  12.982
78057W        W37153  36.969  24.593   0.927
78058W        W37154  16.109   0.781  11.493
78059W        W37155  28.096  18.257   3.771
78060W        W37156  37.529   6.697  13.977
78061W        W37157  31.000  13.667   2.276
78062W        W37158  32.888  23.595  14.899
78063W        W37159  32.101  29.464   1.365
78064W        W37160  26.098  42.841   4.784
78065W        W37161  16.312  25.527   2.241
78066W        W37162   6.869  15.655  11.909
78067W        W37163  34.101  20.128  10.477
78068W        W37164  27.050  21.193   0.278
78069W        W37165  20.628   6.417  12.387
78070W        W37166  32.418  36.423   3.657
78071W        W37167  42.455  27.126  13.002
78072W        W37168  29.920  37.460   0.903
78073W        W37169   8.226  14.707   3.212
78074W        W37170  37.884   7.773   4.140
78075W        W37171  14.186   1.479  11.866
78076W        W37172   7.330  39.053  14.498
78077W        W37173  38.918  13.272  11.992
78078W        W37174  43.384   6.294   4.681
78079W        W37175  27.054  40.399  11.923
78080W        W37176  29.173   5.270   2.281
78081W        W37177   8.901  36.064   4.669
78082W        W37178   2.346   1.781  13.005
78083W        W37179   7.221  43.885  12.849
78084W        W37180  21.173  39.984  13.498
78085W        W37181   4.432   6.678  12.913
78086W        W37182  22.020  29.568   1.737
78087W        W37183  24.110   5.814  13.990
78088W        W37184  38.878  15.099  12.885
78089W        W37185   7.733   2.758   4.780
78090W        W37186  11.154   8.277   3.699
78091W        W37187  15.759  39.512  13.538
78092W        W37188   3.944  25.487  10.409
78093W        W37189   5.923   9.198  11.554
78094W        W37190  13.237  26.673   1.393
78095W        W37191  12.805  26.047   3.235
78096W        W37192  24.111  37.038  11.569
78097W        W37193  36.527  31.466  14.992
78098W        W37194   8.236  20.586  11.555
78099W        W37195  37.485  35.983  14.788
78100W        W37196  33.910  21.579   1.815
78101W        W37197  19.663  19.737   1.778
78102W        W37198  41.479  23.185  13.822
78103W        W37199  23.220  36.421   4.328
78104W        W37200   7.289  39.001   0.409
78105W        W37201  27.510  16.318   3.655
78106W        W37202  36.855  18.249  14.478
78107W        W37203  34.018  16.253  14.343
78108W        W37204  15.094   4.863   0.381
78109W        W37205  10.757  23.507   0.316
78110W        W37206  34.029  12.275   1.259
78111W        W37207   5.201  39.014  14.395
78112W        W37208   0.283  44.894  11.508
78113W        W37209  35.004   0.986  14.399
78114W        W37210  13.817  35.358   4.801
78115W        W37211  11.243  15.312   1.322
78116W        W37212  22.503   5.798   4.661
78117W        W37213  44.342  41.455   3.791
78118W        W37214  19.696   6.830  12.580
78119W        W37215  30.109  26.687  14.440
78120W        W37216  15.145  44.314  10.619
78121W        W37217  38.459  17.077   1.760
78122W        W37218  11.218  37.845   3.822
78123W        W37219   3.339  43.468   1.367
78124W        W37220  14.594  44.431   1.834
78125W        W37221  18.601   5.799   9.954
78126W        W37222  30.095   0.256   4.190
78127W        W37223   0.945  40.406   3.806
78128W        W37224   4.373  26.045  12.974
78129W        W37225   9.168  26.649   2.402
78130W        W37226  40.410  43.294  12.885
78131W        W37227  35.548  11.214  13.854
78132W        W37228  22.511  11.691  11.935
78133W        W37229  18.693  26.462  13.027
78134W        W37230  19.131  14.664  10.623
78135W        W37231  42.441  29.983   3.766
78136W        W37232  35.028  36.512   3.349
78137W        W37233  25.086  36.540   2.264
78138W        W37234  26.544  13.655   4.270
78139W        W37235  24.703  20.637   2.305
78140W        W37236  31.055   2.851  11.542
78141W        W37237  17.628  38.071   0.958
78142W        W37238  27.023   3.218   1.380
78143W        W37239  23.565  41.445   1.757
78144W        W37240  37.493  36.592   1.876
78145W        W37241  43.447   7.243   2.684
78146W        W37242  35.526  23.057   1.226
78147W        W37243  18.597  10.706  11.422
78148W        W37244   7.808  44.281   3.359
78149W        W37245  44.821  41.310   4.212
78150W        W37246   5.417  12.648  13.951
78151W        W37247  31.574  28.968  12.025
78152W        W37248  43.801  23.199   0.408
78153W        W37249  25.979   1.280   0.868
78154W        W37250   0.383  24.125  13.504
78155W        W37251  34.864  33.495   2.718
78156W        W37252  29.446  31.092   1.769
78157W        W37253   8.812  21.072  11.525
78158W        W37254   4.401   3.428  11.079
78159W        W37255  43.425  24.100   1.799
78160W        W37256  35.946  25.573   0.344
78161W        W37257   6.340   7.390  11.392
78162W        W37258  41.446   1.976   4.237
78163W        W37259  24.511  42.875  10.473
78164W        W37260   2.391   3.373  11.025
78165W        W37261  14.712  38.880  14.362
78166W        W37262  36.017  34.911   1.220
78167W        W37263  28.057  30.983   1.434
78168W        W37264  42.917   4.425  13.331
78169W        W37265  30.516  11.731   2.202
78170W        W37266  29.522  42.482   4.808
78171W        W37267  19.253  28.056  12.888
78172W        W37268   9.889  29.513   3.221
78173W        W37269  29.170  42.847  13.349
78174W        W37270   1.360   6.772   1.253
78175W        W37271   0.793   4.380   2.777
78176W        W37272  40.037  21.091   2.271
78177W        W37273  16.663   5.919  12.436
78178W        W37274  24.530   4.232  14.405
78179W        W37275  33.495  31.101  10.959
78180W        W37276  16.669  34.549   4.316
78181W        W37277  21.595  43.021  13.983
78182W        W37278  10.654  14.648  11.058
78183W        W37279  24.720   0.870   3.372
78184W        W37280   0.439  12.660  10.443
78185W        W37281  27.513   0.886  14.494
78186W        W37282   6.720  13.679   0.449
78187W        W37283  35.885  43.906  14.335
78188W        W37284  16.630  25.210   2.665
78189W        W37285   1.381  23.552   4.812
78190W        W37286  25.214  24.571   4.322
78191W        W37287   8.373  19.177  12.084
78192W        W37288  12.702   4.310  12.389
78193W        W37289  13.804   0.472  13.807
78194W        W37290   5.369  35.523  14.473
78195W        W37291  31.033  19.149   9.454
78196W        W37292  13.308  19.543  13.456
78197W        W37293  30.138  43.328   3.203
78198W        W37294  37.409  10.730   0.904
78199W        W37295  25.529   0.871   4.258
78200W        W37296  26.961  34.482  12.866
78201W        W37297  26.676  15.813  13.525
78202W        W37298  15.189   4.245  10.956
78203W        W37299   6.889  42.941   4.203
78204W        W37300  25.571  18.572  12.548
78205W        W37301  38.036   0.285   0.967
78206W        W37302  39.986  35.866   2.275
78207W        W37303  26.677   4.406  11.450
78208W        W37304   6.266  40.966   4.223
78209W        W37305  39.849  23.620  12.459
78210W        W37306   1.378  11.302   3.311
78211W        W37307  31.099  25.106  13.853
78212W        W37308  23.042  15.195   2.360
78213W        W37309  30.069  33.083   0.827
78214W        W37310  42.312   0.419  14.962
78215W        W37311  26.577  17.589   3.163
78216W        W37312  43.793  32.091  10.626
78217W        W37313  30.064  37.052   1.365
78218W        W37314  22.561  39.559   1.756
78219W        W37315  13.740   4.321   2.295
78220W        W37316  41.488  21.090  11.532
78221W        W37317  16.573  12.630   2.856
78222W        W37318  30.042   3.364   2.685
78223W        W37319   2.420  16.269  10.421
78224W        W37320   7.899  25.527   5.571
78225W        W37321  13.331  16.250  12.978
78226W        W37322  18.727  27.056   0.359
78227W        W37323  36.950  31.625  12.961
78228W        W37324  39.487  16.776   1.315
78229W        W37325  15.151  13.164   2.245
78230W        W37326  16.623  26.158  11.466
78231W        W37327  14.628   5.716  10.481
78232W        W37328  12.320  20.235   1.356
78233W        W37329  13.276  22.163  13.028
78234W        W37330  37.497   8.350  12.482
78235W        W37331   1.431  16.081   2.699
78236W        W37332  34.995  36.353   0.393
78237W        W37333  43.936  36.482   4.215
78238W        W37334   7.667  15.242   5.301
78239W        W37335  14.602  21.018   2.854
78240W        W37336  10.189   2.361  10.490
78241W        W37337  19.239   8.690  13.979
78242W        W37338  25.554  28.943  11.912
78243W        W37339  41.485  40.397  12.432
78244W        W37340   9.314  23.019  11.863
78245W        W37341  11.794  16.655   0.379
78246W        W37342   2.887   6.376  11.454
78247W        W37343  44.453   1.267  13.030
78248W        W37344  14.608  21.040   4.275
78249W        W37345   6.820  30.117   3.691
78250W        W37346  31.469  36.913  14.909
78251W        W37347  28.999  23.703  13.451
78252W        W37348  16.690  31.070  11.538
78253W        W37349  33.618  37.493   1.696
78254W        W37350  32.497  20.609   2.334
78255W        W37351  33.468  40.956   4.640
78256W        W37352  18.220  22.660  13.970
78257W        W37353  15.208   0.949  14.307
78258W        W37354  42.836  10.355  14.380
78259W        W37355  37.528   5.715   2.279
78260W        W37356  20.141  35.013   3.845
78261W        W37357  31.967  10.272  10.941
78262W        W37358   7.247  13.173   2.267
78263W        W37359  41.505  40.970  12.450
78264W        W37360   5.371  42.806   4.784
78265W        W37361  34.534  16.225  14.512
78266W        W37362   4.433   6.362  14.301
78267W        W37363  41.393  37.953   2.784
78268W        W37364  21.564  28.048  10.074
78269W        W37365  30.131  37.029   4.611
78270W        W37366  16.727  43.506   1.412
78271W        W37367   5.814   0.853  12.431
78272W        W37368  22.093  21.680   4.623
78273W        W37369  13.798  27.977   3.346
78274W        W37370  35.010  42.008   1.842
78275W        W37371  16.157  25.561   3.782
78276W        W37372  41.470  31.435  10.997
78277W        W37373  42.923  30.941  13.871
78278W        W37374  17.283  24.011  11.056
78279W        W37375  44.942  12.829  13.545
78280W        W37376  42.473  38.485   1.447
78281W        W37377  24.550  37.852   4.733
78282W        W37378  12.269   9.232  11.612
78283W        W37379   8.843  28.164  13.546
78284W        W37380  37.443   4.806   2.693
78285W        W37381  30.480  41.318  14.987
78286W        W37382  28.079  21.682   2.682
78287W        W37383  13.332  23.239  13.314
78288W        W37384  41.429   1.811  10.443
78289W        W37385  35.982  10.665   1.740
78290W        W37386  36.854  15.760  14.796
78291W        W37387  37.373  43.515   4.210
78292W        W37388  11.281  23.584  14.354
78293W        W37389   3.387   1.402   3.662
78294W        W37390  11.138  23.503  14.894
78295W        W37391   8.308  40.448   0.456
78296W        W37392  19.267  13.727   4.614
78297W        W37393  14.160  27.522   0.865
78298W        W37394  18.716  17.121   4.198
78299W        W37395  39.844  42.869   0.916
78300W        W37396  28.528  38.945  13.851
78301W        W37397  15.686  10.291  10.543
78302W        W37398  20.233  10.321   1.896
78303W        W37399   8.326  17.738  13.805
78304W        W37400   6.803  21.173  13.014
78305W        W37401  39.913   6.264   2.845
78306W        W37402  38.385  31.103   1.420
78307W        W37403  22.516  17.247  11.480
78308W        W37404  14.754  39.476   4.182
78309W        W37405   6.378  26.558  11.037
78310W        W37406  21.218   5.861   3.853
78311W        W37407  28.980  39.450   4.777
78312W        W37408  43.355  22.083   0.368
78313W        W37409  26.125  10.692  11.915
78314W        W37410   3.909   5.758   2.209
78315W        W37411  41.507  44.874  11.884
78316W        W37412  36.419  12.844   3.652
78317W        W37413  22.624  11.264   3.820
78318W        W37414  29.601  16.169   4.143
78319W        W37415  25.593  13.172   1.709
78320W        W37416  42.459   4.442   3.337
78321W        W37417  11.864  14.269  12.933
78322W        W37418  15.693   5.336   2.350
78323W        W37419  18.626  31.598   0.446
78324W        W37420  19.708  33.884   1.349
78325W        W37421  41.536   4.899   0.968
78326W        W37422  36.875   6.795   2.721
78327W        W37423   6.683  42.905   1.752
78328W        W37424  34.382  11.868  10.075
78329W        W37425   9.713  36.545  14.761
78330W        W37426  31.036  39.543  14.969
78331W        W37427  35.495   2.364   1.877
78332W        W37428  37.558  25.051  11.386
78333W        W37429   1.820  28.653   4.318
78334W        W37430  39.395  32.139  12.398
78335W        W37431  26.692  14.767  11.016
78336W        W37432  38.439  42.794  12.545
78337W        W37433   1.376   6.305   4.295
78338W        W37434   6.899  25.123  13.394
78339W        W37435  38.333  41.900  10.931
78340W        W37436   2.438   8.692   0.878
78341W        W37437  23.720  11.339  10.893
78342W        W37438  30.083  40.029  11.944
78343W        W37439  17.597  23.089  10.959
78344W        W37440  43.926  14.286   1.760
78345W        W37441   4.445  18.617  14.844
78346W        W37442  42.436  43.960  13.923
78347W        W37443   1.280   3.456   2.273
78348W        W37444  20.087  25.019   4.216
78349W        W37445   9.365   2.342  10.627
78350W        W37446  31.561  10.180  11.079
78351W        W37447  43.947  38.881   0.759
78352W        W37448  11.205  27.944   0.308
78353W        W37449  11.665   7.266  10.121
78354W        W37450  20.703  39.322  14.950
78355W        W37451  11.777  37.346   3.769
78356W        W37452  23.590  41.528  10.478
78357W        W37453  10.868  13.272   4.790
78358W        W37454   6.767  15.088  12.897
78359W        W37455  29.088  15.737   5.295
78360W        W37456   8.289  36.554  13.884
78361W        W37457   2.274  37.496   1.300
78362W        W37458   5.311  39.019  10.519
78363W        W37459  25.059  43.992   1.384
78364W        W37460   1.327   3.782   0.796
78365W        W37461  40.853  26.517   3.168
78366W        W37462  27.508  38.340  13.533
78367W        W37463  14.602  20.666   2.266
78368W        W37464  14.834  14.749  10.153
78369W        W37465  39.493  21.526  10.906
78370W        W37466  20.555   8.795  13.924
78371W        W37467   9.259   4.272   0.336
78372W        W37468  18.789  12.835   4.317
78373W        W37469  25.485   3.884  11.088
78374W        W37470  23.630  19.764   0.950
78375W        W37471  41.386  36.370  13.813
78376W        W37472  29.491  13.656  10.641
78377W        W37473  33.881  17.145  14.438
78378W        W37474  21.022  26.664  11.972
78379W        W37475   2.462  28.991   4.157
78380W        W37476  42.876  23.094   3.868
78381W        W37477  29.470  28.584   2.265
78382W        W37478  10.230  38.988   3.817
78383W        W37479  34.119  18.587   4.179
78384W        W37480  32.953  21.092   0.920
78385W        W37481   2.275  10.706   3.176
78386W        W37482  28.556  37.015  13.445
78387W        W37483  33.418  44.430  10.926
78388W        W37484  41.372  10.143  11.447
78389W        W37485   3.386  29.027  14.323
78390W        W37486  15.713  36.423   0.404
78391W        W37487   2.238  39.011   0.935
78392W        W37488  23.234  43.359  10.463
78393W        W37489   3.926  29.551   2.818
78394W        W37490  29.952  12.756  10.597
78395W        W37491   3.742  32.076   0.742
78396W        W37492  30.546  22.007   9.982
78397W        W37493  38.902  39.391  13.835
78398W        W37494  26.617  30.927  14.030
78399W        W37495  39.352   0.444   3.784
78400W        W37496   8.326  44.296   3.788
78401W        W37497  38.428  37.933  10.515
78402W        W37498  43.855   8.261   0.441
78403W        W37499  25.699  34.509   5.669
78404W        W37500  11.148  32.608  11.417
78405W        W37501  33.398  42.457  12.349
78406W        W37502  25.123  44.849   4.274
78407W        W37503  25.701  10.825  11.571
78408W        W37504  15.610  21.524   3.295
78409W        W37505  10.741  38.843  10.554
78410W        W37506  24.219  35.967  11.060
78411W        W37507  19.127  21.563  14.400
78412W        W37508  24.594  37.039   1.730
78413W        W37509  38.465  35.982  12.061
78414W        W37510  23.129  10.259  13.494
78415W        W37511  44.902  16.289  10.568
78416W        W37512  33.907  29.976  12.065
78417W        W37513  41.356  16.113   3.189
78418W        W37514  41.958  42.456  11.609
78419W        W37515   6.389  17.225   0.312
78420W        W37516  37.983   4.391   0.354
78421W        W37517  18.599  10.661  14.415
78422W        W37518  18.211  29.122  14.480
78423W        W37519  44.424   9.200   3.679
78424W        W37520  33.468   3.863   1.802
78425W        W37521  23.221  36.896  13.319
78426W        W37522   5.930   0.371  11.009
78427W        W37523  33.425  32.390  11.955
78428W        W37524  39.345  16.106  12.568
78429W        W37525  19.175  11.703   0.418
78430W        W37526  40.366  18.148   2.726
78431W        W37527  31.991  25.580   0.839
78432W        W37528  31.987  23.218   3.272
78433W        W37529  10.798  35.596  11.886
78434W        W37530   7.773  37.487   3.316
78435W        W37531  20.576  30.452   2.271
78436W        W37532  24.668  13.212   4.655
78437W        W37533  15.095   7.369  13.518
78438W        W37534  14.613  20.566  14.335
78439W        W37535  29.604   8.705   2.198
78440W        W37536   1.808   1.444  13.931
78441W        W37537  25.580  10.358   4.708
78442W        W37538  15.750  12.257  13.342
78443W        W37539  40.034  31.916   4.623
78444W        W37540   8.694  19.104  11.593
78445W        W37541   8.762  11.753   2.186
78446W        W37542  14.209  44.816  14.896
78447W        W37543  38.486  23.090   2.702
78448W        W37544   5.253  17.782   4.798
78449W        W37545   6.828  26.024   0.459
78450W        W37546  30.949  12.735   3.857
78451W        W37547   1.782   8.658   0.248
78452W        W37548  16.677  12.855  13.515
78453W        W37549  17.069   6.197  13.429
78454W        W37550  13.687  41.852  12.088
78455W        W37551  24.620  40.858   1.912
78456W        W37552  32.124  30.996   4.319
78457W        W37553  40.933  37.480  14.377
78458W        W37554  33.403  39.415   1.366
78459W        W37555  32.529  37.505  10.561
78460W        W37556  27.559  38.983   4.310
78461W        W37557   5.394   9.663  14.849
78462W        W37558  31.119  27.195   0.766
78463W        W37559  34.071  43.785  14.933
78464W        W37560   9.700   6.274   1.861
78465W        W37561  16.093  23.131  11.454
78466W        W37562  19.192  12.730  12.067
78467W        W37563  17.792  34.407  13.812
78468W        W37564  39.410  31.098   1.846
78469W        W37565   7.821  16.205   1.763
78470W        W37566  17.633   2.317  14.413
78471W        W37567   8.727  38.907   0.739
78472W        W37568  17.676  44.789   4.141
78473W        W37569  20.107  32.395  12.093
78474W        W37570  28.438   5.849   4.205
78475W        W37571   3.734  11.159   0.269
78476W        W37572  23.544   7.372   2.182
78477W        W37573  35.442  34.409   0.899
78478W        W37574  12.775  31.936   0.808
78479W        W37575  26.160  18.166  11.397
78480W        W37576  25.530   3.878   1.265
78481W        W37577  34.901  37.571   1.743
78482W        W37578  11.235   7.816  11.858
78483W        W37579  17.801  33.884  12.478
78484W        W37580  37.881  15.666   4.609
78485W        W37581  28.028  35.385  13.060
78486W        W37582  24.149  12.209   1.887
78487W        W37583  12.663  39.442   2.689
78488W        W37584  26.166  32.428   1.271
78489W        W37585  30.060  31.550   3.237
78490W        W37586  35.526  21.185  13.311
78491W        W37587   6.352  32.082   0.741
78492W        W37588  35.937   1.875  12.912
78493W        W37589   1.944  31.434   4.227
78494W        W37590  37.335  39.344   3.327
78495W        W37591  27.983  23.685  11.961
78496W        W37592  10.868  32.128   1.438
78497W        W37593   2.802  11.717  10.606
78498W        W37594  24.001  14.822  14.995
78499W        W37595  40.004  21.654   3.185
78500W        W37596  19.709   3.884   0.467
78501W        W37597  37.856  42.348   1.312
78502W        W37598  35.594   1.323   3.374
78503W        W37599  39.457   3.357   3.205
78504W        W37600  22.026  30.585  10.497
78505W        W37601  10.739  22.653   2.270
78506W        W37602  22.643  44.472  14.872
78507W        W37603  14.724  14.831  11.912
78508W        W37604  33.588   8.303  14.846
78509W        W37605  39.349  33.495  14.359
78510W        W37606  43.349  30.029   1.908
78511W        W37607  16.296  38.514  11.868
78512W        W37608  28.601  27.494   2.738
78513W        W37609  13.645  15.702   3.805
78514W        W37610  23.703  43.794   3.639
78515W        W37611   3.948  44.967   3.223
78516W        W37612  23.045   8.845  11.500
78517W        W37613  36.356  36.473   2.207
78518W        W37614  38.892  11.840   2.280
78519W        W37615   5.385  10.378   0.255
78520W        W37616  41.523  44.484  10.508
78521W        W37617  43.827  31.902   0.423
78522W        W37618  20.543   7.790   3.673
78523W        W37619  13.348  44.963   2.813
78524W        W37620   8.746  20.145   2.789
78525W        W37621  39.883  43.323  11.560
78526W        W37622  24.697  15.317  12.890
78527W        W37623  20.562  22.229  14.460
78528W        W37624  18.562  11.861  14.873
78529W        W37625  26.597  34.571  13.050
78530W        W37626  31.081  26.616  10.989
78531W        W37627  35.090  29.543  13.941
78532W        W37628  30.604  35.460  13.974
78533W        W37629   9.225  11.187   2.898
78534W        W37630  38.851  43.816  13.033
78535W        W37631  41.334  42.421  14.380
78536W        W37632  41.952  31.553   1.714
78537W        W37633  39.980  24.137   2.768
78538W        W37634   9.389   5.877  10.411
78539W        W37635  19.189  35.050  12.428
78540W        W37636   0.326  29.092  12.065
78541W        W37637  16.797  33.410   1.385
78542W        W37638  10.682  22.102  12.500
78543W        W37639  12.204  10.276  14.991
78544W        W37640  29.605  29.553  10.939
78545W        W37641   9.330   4.778   3.332
78546W        W37642   6.685   4.826  14.848
78547W        W37643   6.803  10.255   3.672
78548W        W37644  27.982  14.268   0.882
78549W        W37645  21.129  28.085  13.842
78550W        W37646  35.007  18.248  13.941
78551W        W37647  17.305  29.115   1.709
78552W        W37648   4.825  35.517  11.520
78553W        W37649  41.488  28.146   5.192
78554W        W37650   2.367  10.827   1.797
78555W        W37651  21.064  15.312   4.293
78556W        W37652  29.990  13.112   2.778
78557W        W37653   3.436   4.805   0.372
78558W        W37654  15.690  28.063   3.201
78559W        W37655  42.414  31.508   3.345
78560W        W37656  13.716  11.777   0.929
78561W        W37657  26.492  39.521  11.064
78562W        W37658  13.770  14.651  14.014
78563W        W37659  42.802  23.651   2.381
78564W        W37660  23.583  37.420   5.088
78565W        W37661  20.165  12.836   1.702
78566W        W37662  25.549  36.928   1.742
78567W        W37663  26.562  44.931   2.300
78568W        W37664  25.480  34.984  13.321
78569W        W37665  42.370   6.270  13.038
78570W        W37666  38.430  29.038  10.974
78571W        W37667  19.621  15.741   5.311
78572W        W37668   0.909  26.147  11.554
78573W        W37669  39.516  13.700  11.960
78574W        W37670  15.660  30.072   2.742
78575W        W37671  39.878  15.196  14.838
78576W        W37672   6.359  39.863   4.298
78577W        W37673  17.103   6.404  10.954
78578W        W37674  40.885  13.699   2.835
78579W        W37675   0.888  19.729   5.202
78580W        W37676  25.634  13.190   4.646
78581W        W37677  40.031  32.560  11.503
78582W        W37678   8.740   9.286  12.044
78583W        W37679  42.027   1.882   0.876
78584W        W37680  19.040  22.250   4.314
78585W        W37681   6.759  10.634  11.466
78586W        W37682  41.913  44.981   0.939
78587W        W37683   2.405  44.426  14.804
78588W        W37684  43.339  40.002   3.299
78589W        W37685  26.549  33.899   1.392
78590W        W37686  31.956  19.184  14.310
78591W        W37687   8.777  37.430  11.120
78592W        W37688   1.335  19.558   3.837
78593W        W37689  27.560  21.523  13.831
78594W        W37690  27.066  17.184   0.907
78595W        W37691   7.380  17.656  11.090
78596W        W37692  28.074  33.473  11.452
78597W        W37693  14.728  38.892   4.148
78598W        W37694  35.876   6.207   1.439
78599W        W37695   8.182  31.089  13.467
78600W        W37696  25.638  24.590  11.440
78601W        W37697  31.908  27.521  13.947
78602W        W37698   9.846  35.932  13.888
78603W        W37699  43.390  23.639  13.914
78604W        W37700   1.257  24.716  10.923
78605W        W37701  41.297  34.503   1.763
78606W        W37702  31.935  37.903   2.764
78607W        W37703  44.911  15.695  14.342
78608W        W37704  35.409  17.661  10.407
78609W        W37705  28.173  18.050  13.947
78610W        W37706  42.301  22.623   2.347
78611W        W37707  25.068   6.378  14.495
78612W        W37708   9.864  26.590  13.541
78613W        W37709   8.404  22.619   0.789
78614W        W37710  42.783  20.270   2.214
78615W        W37711  37.403  41.880   2.696
78616W        W37712  35.434  43.495  11.524
78617W        W37713  12.771  20.665   4.209
78618W        W37714  35.594  31.635   1.402
78619W        W37715   9.836  28.465  12.020
78620W        W37716  25.990  28.580  13.505
78621W        W37717  29.600   4.314  13.833
78622W        W37718  41.396  44.485  12.025
78623W        W37719  21.185  39.531  11.467
78624W        W37720  32.942  24.162  11.392
78625W        W37721  19.609  31.466  11.526
78626W        W37722  34.495   4.250   2.378
78627W        W37723  27.467  29.483  12.344
78628W        W37724  43.370  16.109   3.726
78629W        W37725  34.017   6.362  11.931
78630W        W37726  42.919  40.820   1.844
78631W        W37727  28.980   7.200  14.971
78632W        W37728  35.928  24.725  11.451
78633W        W37729   2.339  22.666  12.379
78634W        W37730  15.175  24.037  12.937
78635W        W37731  33.406   5.932   2.319
78636W        W37732  43.431  18.060  11.551
78637W        W37733  16.111  13.339   4.184
78638W        W37734  44.759  40.819   3.300
78639W        W37735  15.180  44.360  12.825
78640W        W37736  25.055  22.110   0.896
78641W        W37737  11.167  11.283   1.865
78642W        W37738   5.719  39.903  14.831
78643W        W37739  10.269  43.306  13.964
78644W        W37740  33.874  23.191   3.150
78645W        W37741  43.356  10.358   4.821
78646W        W37742  13.167   2.395   3.681
78647W        W37743  37.515   9.195   9.492
78648W        W37744  18.150   1.345  11.871
78649W        W37745  19.561   4.929   4.612
78650W        W37746   8.700   1.950  11.911
78651W        W37747  17.785   8.361   2.870
78652W        W37748  16.158  18.069   4.158
78653W        W37749  43.810  32.097   4.201
78654W        W37750  32.053   4.849  14.000
78655W        W37751  25.599   2.431  11.457
78656W        W37752   5.805  29.154  13.511
78657W        W37753   9.848  37.031   4.708
78658W        W37754  31.497   3.862  14.347
78659W        W37755  30.958  41.449  13.457
78660W        W37756  13.234   6.814  12.923
78661W        W37757  41.294   4.715  10.460
78662W        W37758  18.149  41.464  14.503
78663W        W37759  25.151  40.030   3.155
78664W        W37760  16.185  23.626   0.794
78665W        W37761  43.980  31.534  14.771
78666W        W37762  29.160  25.123   2.902
78667W        W37763  31.923  20.683  12.552
78668W        W37764  30.920  19.221  14.935
78669W        W37765  33.398  25.174  12.879
78670W        W37766   2.896  14.775   3.705
78671W        W37767  40.312   6.767   2.758
78672W        W37768  31.105  31.004  14.915
78673W        W37769  10.286  17.160  14.768
78674W        W37770  24.027  44.955   3.790
78675W        W37771   7.857  34.025  11.385
78676W        W37772  21.519  14.597  10.427
78677W        W37773   3.331   9.755  12.493
78678W        W37774  39.883  12.776   3.184
78679W        W37775  33.558  12.844   2.301
78680W        W37776  11.738   5.325  13.317
78681W        W37777  14.609  44.357  13.895
78682W        W37778  14.796  18.163   1.240
78683W        W37779  22.071  13.264  12.998
78684W        W37780  42.310  39.367   1.715
78685W        W37781   1.250  43.456  11.480
78686W        W37782   6.413  44.422   4.781
78687W        W37783   5.868  20.195  10.959
78688W        W37784  22.205   0.372  13.466
78689W        W37785  26.011  36.382   0.476
78690W        W37786  40.418  11.829  14.499
78691W        W37787  35.018  15.087   4.175
78692W        W37788   9.843  17.676   1.231
78693W        W37789  42.315  42.508   0.342
78694W        W37790  22.123  33.956   3.783
78695W        W37791  19.284   9.274  12.562
78696W        W37792   1.258  24.090  12.355
78697W        W37793  34.901  34.476   1.884
78698W        W37794   4.857  29.992  10.407
78699W        W37795   1.830  41.012   2.307
78700W        W37796  15.794   6.395   4.731
78701W        W37797   8.701  28.531  14.912
78702W        W37798  26.080   1.757  14.350
78703W        W37799   0.326   2.933   2.784
78704W        W37800   5.707  43.339   1.289
78705W        W37801  18.200   0.795  14.942
78706W        W37802  28.638  11.835   1.905
78707W        W37803  24.512  32.081  13.483
78708W        W37804  44.364   1.919  10.064
78709W        W37805   4.264  20.189   2.279
78710W        W37806  34.112  35.578   4.714
78711W        W37807  33.993  41.503  12.850
78712W        W37808  17.271   2.466   2.716
78713W        W37809   8.722  38.876   1.920
78714W        W37810  20.598   1.875   4.129
78715W        W37811  42.830  35.509  13.840
78716W        W37812   0.909  13.644   2.211
78717W        W37813   5.706  10.347   2.286
78718W        W37814  28.524  11.299   1.710
78719W        W37815  26.636  23.623  11.450
78720W        W37816  13.336   2.894   2.213
78721W        W37817  21.088   4.767   2.407
78722W        W37818  29.574  23.099   0.426
78723W        W37819  14.694   0.762  13.883
78724W        W37820  26.178  30.423   1.231
78725W        W37821  15.153   6.188  11.606
78726W        W37822  12.816  35.544   3.210
78727W        W37823  28.667   7.250  13.011
78728W        W37824  34.432  16.272  11.971
78729W        W37825  40.410   6.388   0.852
78730W        W37826  15.284  34.601  13.049
78731W        W37827   6.784  17.593  12.019
78732W        W37828   5.878  17.201   2.285
78733W        W37829  17.758  43.017   2.686
78734W        W37830  43.937   1.760   0.837
78735W        W37831  41.986  14.691   0.934
78736W        W37832  11.839   4.718  14.402
78737W        W37833  12.831  12.806  11.041
78738W        W37834  15.726  23.715   2.666
78739W        W37835  10.752   9.751   0.849
78740W        W37836  19.771  24.090   3.693
78741W        W37837   9.652  20.730   0.260
78742W        W37838  32.088  44.422   3.176
78743W        W37839  36.347  21.545   1.802
78744W        W37840  38.481  15.758   4.352
78745W        W37841  26.063  33.950  13.537
78746W        W37842  21.575  12.672   9.528
78747W        W37843  20.764  12.290  14.959
78748W        W37844  16.262  41.864   1.307
78749W        W37845  39.007  18.552  14.982
78750W        W37846  20.091  27.179   0.931
78751W        W37847  22.117   0.490   4.679
78752W        W37848  30.647  28.982  12.490
78753W        W37849  17.560   2.347   1.340
78754W        W37850  26.055  31.549  12.921
78755W        W37851  21.143  25.188  11.016
78756W        W37852  16.118  31.437   1.798
78757W        W37853   1.386  32.939  13.427
78758W        W37854  33.564   2.434   0.828
78759W        W37855  38.365  17.602  14.439
78760W        W37856  22.205   2.948   0.891
78761W        W37857  14.109  26.183   4.808
78762W        W37858  20.643  33.448  10.950
78763W        W37859  44.949  35.546   2.303
78764W        W37860  22.582  31.062   2.393
78765W        W37861  22.046  35.050   3.168
78766W        W37862   1.408  15.755  14.352
78767W        W37863   1.918   2.322   2.251
78768W        W37864   1.475  25.010  13.795
78769W        W37865  16.776  17.234  11.036
78770W        W37866   8.783  18.103  14.301
78771W        W37867  22.531  25.175   0.444
78772W        W37868   6.405  14.279   3.851
78773W        W37869  31.532   4.903   1.902
78774W        W37870  31.089   1.947  11.920
78775W        W37871  22.156  21.187   4.212
78776W        W37872  29.080  22.689  11.546
78777W        W37873   0.919  21.545   2.741
78778W        W37874   8.850  23.085   4.620
78779W        W37875  39.049  15.806  14.785
78780W        W37876   4.228  20.694   3.846
78781W        W37877  37.373  27.580   4.144
78782W        W37878  29.100  11.135  10.979
78783W        W37879  21.167  22.534   3.788
78784W        W37880  38.369  30.146   0.914
78785W        W37881   3.460  19.279   0.836
78786W        W37882  18.152  32.083   2.328
78787W        W37883  21.138   4.363   2.705
78788W        W37884   0.460  34.034  12.427
78789W        W37885  38.063  41.400   2.703
78790W        W37886  43.960   3.348  10.638
78791W        W37887  19.633  36.417   1.342
78792W        W37888  34.034   8.887  11.125
78793W        W37889  28.041  40.538  12.578
78794W        W37890  17.711  11.809  10.945
78795W        W37891  10.771  20.238   1.375
78796W        W37892  29.457   1.436   2.664
78797W        W37893  31.091  39.534  11.439
78798W        W37894   5.758  13.232   3.235
78799W        W37895  13.661  35.523   3.806
78800W        W37896  37.067  30.103  12.488
78801W        W37897   9.392  30.083   2.196
78802W        W37898  17.241  23.699  11.049
78803W        W37899   6.254  24.026   2.410
78804W        W37900  26.039  22.682   1.822
78805W        W37901   9.267  43.410  14.413
78806W        W37902  16.578   3.357  10.410
78807W        W37903  42.287   5.692  13.871
78808W        W37904  37.521   6.746  14.339
78809W        W37905  13.741  18.128  14.816
78810W        W37906  23.587   1.447  13.964
78811W        W37907  15.113  34.565   2.260
78812W        W37908   9.702  23.495   1.701
78813W        W37909   2.915  16.163  10.520
78814W        W37910  10.759  15.277   2.851
78815W        W37911  27.527  37.841   0.926
78816W        W37912   7.684  28.536   9.976
78817W        W37913   7.289   8.296  10.603
78818W        W37914  13.664  14.210   5.116
78819W        W37915  32.038  16.102  13.424
78820W        W37916  12.281  19.071   3.215
78821W        W37917  15.717   0.893  10.523
78822W        W37918   7.244  23.592  13.829
78823W        W37919   2.272  15.278  11.068
78824W        W37920  23.141  44.442   4.742
78825W        W37921  24.230   8.189   5.313
78826W        W37922  14.219  26.110  10.939
78827W        W37923  28.573  39.843   0.328
78828W        W37924  21.174  18.160   2.353
78829W        W37925  13.205  25.159  10.527
78830W        W37926  40.334   1.784  11.956
78831W        W37927  13.321  11.300   2.291
78832W        W37928  39.442  40.350   3.192
78833W        W37929   1.906  33.125   0.247
78834W        W37930   8.773  34.502   4.790
78835W        W37931   2.825   9.887   2.668
78836W        W37932  23.643  35.035  14.382
78837W        W37933  35.426  32.916  14.307
78838W        W37934  12.663  43.841   3.767
78839W        W37935   5.787   7.845  14.457
78840W        W37936  32.932  13.174   3.827
78841W        W37937  23.044   7.859   2.274
78842W        W37938   0.954   5.205  11.087
78843W        W37939   9.744  41.329   0.309
78844W        W37940  10.379  23.133   4.296
78845W        W37941  29.171  23.497  12.989
78846W        W37942  19.739  30.948   0.364
78847W        W37943  29.429   4.802   3.766
78848W        W37944  39.446  22.712  12.925
78849W        W37945  39.460  39.013   3.725
78850W        W37946  14.625  20.567  11.382
78851W        W37947  22.105  35.494   0.753
78852W        W37948  26.077  33.508   5.234
78853W        W37949   5.242  28.971   0.796
78854W        W37950  11.788   7.417  13.369
78855W        W37951  11.747  38.392   0.346
78856W        W37952  28.953  39.455   2.775
78857W        W37953  39.494  17.061  10.630
78858W        W37954   1.421  16.805  11.610
78859W        W37955  21.171  21.735  14.372
78860W        W37956  15.104  41.307  10.542
78861W        W37957  41.786  25.637  14.977
78862W        W37958  38.047  16.751  12.083
78863W        W37959  40.938  32.628   0.397
78864W        W37960   0.337  44.427  13.537
78865W        W37961  44.410   3.260  13.445
78866W        W37962  29.093  41.937   2.759
78867W        W37963  12.158   6.853   1.694
78868W        W37964  11.335   5.876  14.402
78869W        W37965  29.936   7.859  12.033
78870W        W37966   8.310  33.036   4.668
78871W        W37967   9.301  29.172   4.779
78872W        W37968  21.711  43.407   2.246
78873W        W37969  39.424  25.709  13.408
78874W        W37970  41.933  29.668  12.426
78875W        W37971  32.399  42.993   3.776
78876W        W37972  31.426  23.576   0.421
78877W        W37973   4.399  14.095   2.215
78878W        W37974  41.527  34.565  12.849
78879W        W37975  30.152  12.273  12.890
78880W        W37976  23.712  18.159   1.929
78881W        W37977   7.289  30.079   2.335
78882W        W37978  30.137   6.289  14.982
78883W        W37979  33.384   8.310   2.322
78884W        W37980  14.256  44.402   5.127
78885W        W37981  40.828  30.161  10.568
78886W        W37982  11.777  41.910   2.377
78887W        W37983  21.745   3.953   4.801
78888W        W37984   1.405  33.934   2.817
78889W        W37985  10.195  22.728  10.075
78890W        W37986   0.448   3.243   0.367
78891W        W37987  26.575  31.580   1.281
78892W        W37988  14.116  16.581  10.963
78893W        W37989   4.773  14.185   0.838
78894W        W37990  34.975  36.943  10.625
78895W        W37991  44.912  23.708   1.445
78896W        W37992   1.811  10.216   3.750
78897W        W37993  26.575  11.663   2.349
78898W        W37994  26.614  34.907  13.791
78899W        W37995  27.099   4.414   0.288
78900W        W37996  12.184   5.423  11.104
78901W        W37997   6.785  32.627  14.303
78902W        W37998  39.526  36.988   4.792
78903W        W37999   2.811  33.032   0.414
78904W        W38000  32.902   1.445   4.670
78905W        W38001  23.174  23.598   1.851
78906W        W38002   5.221   0.283  10.911
78907W        W38003  39.520  15.298   4.763
78908W        W38004   1.309   0.419   3.371
78909W        W38005  27.574  26.977  11.064
78910W        W38006  38.531  30.430   3.727
78911W        W38007  21.727  15.084  10.633
78912W        W38008  39.882  37.499  13.431
78913W        W38009  18.598  31.621   2.794
78914W        W38010  27.687   4.410  11.865
78915W        W38011  31.615  21.660   0.380
78916W        W38012  23.642   7.249  10.070
78917W        W38013   1.310  15.670  14.991
78918W        W38014  22.617  38.554   2.279
78919W        W38015  34.092  11.805  10.544
78920W        W38016  42.479  25.482  12.831
78921W        W38017  11.239  39.869  14.906
78922W        W38018  26.515   5.774   0.279
78923W        W38019  11.666  31.544   1.928
78924W        W38020  11.177  18.101   0.782
78925W        W38021  18.184  36.414  11.580
78926W        W38022  17.176  10.225  13.345
78927W        W38023  37.530  18.288   4.123
78928W        W38024  30.000   7.714  13.524
78929W        W38025  32.090  13.699   0.443
78930W        W38026  12.645  13.606   3.151
78931W        W38027  42.508   8.387  11.047
78932W        W38028  24.696  43.304  12.907
78933W        W38029  14.266  24.186  12.480
78934W        W38030  40.507  41.882   3.797
78935W        W38031  27.040   4.208   0.827
78936W        W38032  19.271  37.068  11.992
78937W        W38033  35.465   0.963  11.123
78938W        W38034  19.684   0.364  11.032
78939W        W38035  21.545  35.519  10.530
78940W        W38036  15.604  37.546  14.348
78941W        W38037  29.106   8.264   3.334
78942W        W38038  39.355   1.343  12.950
78943W        W38039  44.492   7.830   4.737
78944W        W38040  13.135  17.714  12.888
78945W        W38041  31.046  17.720   9.617
78946W        W38042  22.051  33.381  10.482
78947W        W38043  32.904   6.249  13.017
78948W        W38044  22.719  14.790  11.511
78949W        W38045   7.327  24.508   1.926
78950W        W38046  32.971   2.757  10.435
78951W        W38047  37.415  20.736  12.387
78952W        W38048  24.669  25.539  12.493
78953W        W38049   8.857  13.619   1.866
78954W        W38050  28.635  35.075  14.868
78955W        W38051   4.328  41.907   2.795
78956W        W38052  32.137   1.342   2.197
78957W        W38053  35.422  31.906  11.537
78958W        W38054  22.572  22.122   3.821
78959W        W38055  33.007  15.616  13.377
78960W        W38056   4.799  29.669   5.216
78961W        W38057  42.929  24.548   3.798
78962W        W38058  10.777  34.926   2.249
78963W        W38059  31.961  42.427  13.357
78964W        W38060  42.397  36.471  10.511
78965W        W38061   5.928  17.060  11.870
78966W        W38062   3.311  19.125   2.223
78967W        W38063  29.654   3.441  12.027
78968W        W38064  15.277  33.879   2.693
78969W        W38065  19.054  30.513  14.332
78970W        W38066  19.267  32.631  12.092
78971W        W38067  38.503  41.445   2.184
78972W        W38068  34.045  44.844  14.983
78973W        W38069  29.008  25.600  12.376
78974W        W38070  38.922  40.538  14.016
78975W        W38071   9.181  12.254   2.291
78976W        W38072  32.512   4.882   0.874
78977W        W38073  13.742  36.351   4.598
78978W        W38074  22.514  12.819   2.185
78979W        W38075  43.963  23.010  13.958
78980W        W38076  19.731  30.965   5.274
78981W        W38077  18.156  20.532  14.771
78982W        W38078   4.751  18.604  13.881
78983W        W38079   9.690  35.429   0.761
78984W        W38080  40.439  29.998   3.285
78985W        W38081   1.455   7.856  12.934
78986W        W38082  20.746  21.740   2.320
78987W        W38083  29.531  28.071  12.941
78988W        W38084  39.487   0.882   4.202
78989W        W38085  15.139  37.543   0.940
78990W        W38086  10.198  39.859   3.281
78991W        W38087   6.347   5.204   3.295
78992W        W38088  21.740  39.418  12.553
78993W        W38089  21.148  24.077   1.284
78994W        W38090  32.479   7.769   3.170
78995W        W38091  44.503  13.732   0.965
78996W        W38092  37.397  14.730   4.678
78997W        W38093   9.307  26.041  11.999
78998W        W38094   2.849   8.677   2.765
78999W        W38095  17.763  11.687  10.469
79000W        W38096  43.848  23.992   2.889
79001W        W38097  26.540  30.057   1.843
79002W        W38098  26.003  26.689  10.959
79003W        W38099  28.185   3.776   2.799
79004W        W38100  26.958  44.772  11.428
79005W        W38101  28.610  18.066   4.603
79006W        W38102  34.516  34.546   3.228
79007W        W38103   3.348  43.460  14.915
79008W        W38104  33.611   4.780   4.217
79009W        W38105  42.525  41.030  12.526
79010W        W38106   4.401  24.634  14.806
79011W        W38107  39.060  29.084  11.588
79012W        W38108  44.466  32.572   3.754
79013W        W38109  43.913  14.305  12.847
79014W        W38110  10.168  38.523  12.531
79015W        W38111  25.607   9.206   0.938
79016W        W38112   6.836   4.784  12.463
79017W        W38113   6.190  12.853  12.847
79018W        W38114  32.065  34.918  10.517
79019W        W38115  38.837  23.098  10.508
79020W        W38116  13.661   8.889  14.778
79021W        W38117  41.858  12.622  12.995
79022W        W38118  44.892   8.233  11.005
79023W        W38119  20.722  36.957  10.985
79024W        W38120   2.259  34.107  14.028
79025W        W38121  30.532  35.503  11.452
79026W        W38122  19.676  29.117  14.363
79027W        W38123  37.853  13.793   0.382
79028W        W38124  24.550  40.981   0.962
79029W        W38125  17.286  31.046  10.908
79030W        W38126  36.377  27.059  12.504
79031W        W38127  36.036  26.110  11.032
79032W        W38128  15.595   0.477  12.976
79033W        W38129  44.955  34.866   4.739
79034W        W38130   0.338  42.846  12.544
79035W        W38131  36.903  34.960   3.754
79036W        W38132  11.243  23.496   2.758
79037W        W38133  32.421   6.421  12.358
79038W        W38134   8.326   7.257   1.313
79039W        W38135  38.361  32.464  13.847
79040W        W38136   6.823  27.187   1.742
79041W        W38137  26.496  16.575  14.837
79042W        W38138   2.965  30.965  11.600
79043W        W38139  33.394  13.717   1.439
79044W        W38140  20.620  17.132   3.376
79045W        W38141  19.707  20.247  14.501
79046W        W38142  31.409  31.897   0.283
79047W        W38143  21.691   6.239   2.260
79048W        W38144   2.363  32.983  13.822
79049W        W38145  43.789  34.606  10.621
79050W        W38146  11.238   7.874  13.005
79051W        W38147  11.628  44.874   3.229
79052W        W38148  38.425  18.548  13.885
79053W        W38149  23.142  38.362   2.805
79054W        W38150  19.610   6.698  11.876
79055W        W38151  44.907   7.874   1.231
79056W        W38152  29.513  38.535   3.304
79057W        W38153  30.013  22.164   2.223
79058W        W38154   5.198  18.663  12.568
79059W        W38155  19.269   7.302   2.411
79060W        W38156   4.382  10.262  14.934
79061W        W38157   9.201   0.950  13.833
79062W        W38158  43.952  44.929  13.868
79063W        W38159  38.450   1.306  14.320
79064W        W38160  44.435   1.912  13.331
79065W        W38161  22.613   1.384   1.772
79066W        W38162  12.720  18.700   0.757
79067W        W38163  17.173   9.330   9.557
79068W        W38164  36.007  42.362   4.778
79069W        W38165  22.208   4.233   3.223
79070W        W38166   3.278  24.128   0.769
79071W        W38167  24.212  22.995   1.771
79072W        W38168  23.650   3.409  13.807
79073W        W38169   4.747  30.151  12.476
79074W        W38170  44.436  36.920   1.210
79075W        W38171  12.235  14.612  11.911
79076W        W38172  26.644  33.094  11.443
79077W        W38173  26.518  43.352  11.542
79078W        W38174  40.810  31.621  14.839
79079W        W38175  26.983  16.246   1.735
79080W        W38176  15.670  24.619   3.242
79081W        W38177  41.481  28.185   0.363
79082W        W38178  33.442  11.370   0.311
79083W        W38179  34.909  32.626   4.718
79084W        W38180  31.144   4.944  10.995
79085W        W38181  11.185  40.351  11.378
79086W        W38182  14.249  42.827  12.974
79087W        W38183  34.976  11.241  12.472
79088W        W38184   2.292  24.600  11.098
79089W        W38185   3.290  40.863  10.456
79090W        W38186  27.587  27.953  13.992
79091W        W38187  30.421  32.120   0.268
79092W        W38188   4.306  32.919   1.891
79093W        W38189  33.073  43.437  14.860
79094W        W38190  15.784  17.572  12.970
79095W        W38191  24.675  22.245   1.715
79096W        W38192  41.800  15.584   0.373
79097W        W38193  36.957   2.332   0.817
79098W        W38194  16.711  31.095  12.544
79099W        W38195  39.473  26.111  14.501
79100W        W38196  14.177   7.323  14.906
79101W        W38197   1.959  21.671   2.358
79102W        W38198  21.042  21.151  11.889
79103W        W38199  31.006   9.351  13.422
79104W        W38200  31.460  17.238   4.177
79105W        W38201  42.828  33.591  14.368
79106W        W38202  29.932  12.311  12.500
79107W        W38203  23.492  26.952  13.058
79108W        W38204  40.330   5.888  11.972
79109W        W38205  21.720  34.961   2.804
79110W        W38206   9.797  29.481   4.183
79111W        W38207  30.033  30.436   5.082
79112W        W38208  18.669  40.343  11.422
79113W        W38209   5.385  17.792   0.767
79114W        W38210  34.120  11.631  11.996
79115W        W38211  40.357  36.063  13.544
79116W        W38212   5.381  36.038   0.856
79117W        W38213   6.374   7.865  10.508
79118W        W38214  35.885  20.537   1.421
79119W        W38215   6.861  17.596  11.533
79120W        W38216  28.671  24.524   1.865
79121W        W38217   7.194   2.899   4.206
79122W        W38218  24.490   7.672  11.382
79123W        W38219   8.733  28.498   3.207
79124W        W38220  11.672   6.388  10.957
79125W        W38221  21.132   5.932  14.451
79126W        W38222  16.125  34.556   0.328
79127W        W38223   1.918  43.981   1.271
79128W        W38224  39.363  43.819   0.962
79129W        W38225   9.218  17.786  14.365
79130W        W38226   4.754  16.735  14.441
79131W        W38227  24.048  38.005  10.091
79132W        W38228  40.433  42.488  13.057
79133W        W38229  35.391  38.893  14.432
79134W        W38230  16.312   4.249  12.979
79135W        W38231  28.093  11.277  14.823
79136W        W38232  41.519  33.621   3.262
79137W        W38233   1.358  23.237   0.263
79138W        W38234  38.557   6.247  12.083
79139W        W38235  35.035  31.599  14.773
79140W        W38236  36.064  43.290   0.379
79141W        W38237  27.944  35.469  12.449
79142W        W38238  24.580  26.952   3.665
79143W        W38239   9.202  35.427   0.359
79144W        W38240   8.666  13.275   4.732
79145W        W38241  17.630  22.162  14.790
79146W        W38242  16.167  26.487   1.879
79147W        W38243  10.245  38.943   4.188
79148W        W38244  30.611  23.053  12.474
79149W        W38245   8.777   0.333  12.877
79150W        W38246  30.445   2.910   3.170
79151W        W38247  10.651  38.030   0.345
79152W        W38248  42.975  23.059   1.267
79153W        W38249  29.427  19.568   2.300
79154W        W38250   8.193  18.228  14.299
79155W        W38251   8.206  10.765   3.816
79156W        W38252  27.160   5.860   0.742
79157W        W38253  32.914  17.582  13.416
79158W        W38254  24.667   3.308   2.866
79159W        W38255  25.977  13.764  13.344
79160W        W38256  17.152  29.927   0.328
79161W        W38257  38.372   0.380  13.366
79162W        W38258  30.575  42.292  10.986
79163W        W38259  30.510  34.403  11.463
79164W        W38260  41.908   6.218  14.024
79165W        W38261  34.950  15.765  14.361
79166W        W38262  18.263  30.570  13.401
79167W        W38263  40.347  30.944   3.778
79168W        W38264  37.879  36.572   2.196
79169W        W38265  44.837  29.037  12.973
79170W        W38266  19.069  17.084   2.774
79171W        W38267  19.689  44.756   4.664
79172W        W38268   6.741  18.610   2.243
79173W        W38269  40.398   4.834  14.515
79174W        W38270  15.612   3.809   1.249
79175W        W38271  19.620  12.184   3.360
79176W        W38272  29.646  21.579  13.459
79177W        W38273  20.718  42.940  13.445
79178W        W38274  19.093   6.418   0.742
79179W        W38275   0.760  18.123   3.650
79180W        W38276  31.527   1.840  11.524
79181W        W38277  12.825  12.727   2.219
79182W        W38278  12.189  41.835   0.475
79183W        W38279  32.100  32.616   4.653
79184W        W38280  36.984   1.437  12.416
79185W        W38281  31.044   8.228   1.437
79186W        W38282  43.889  42.401   2.209
79187W        W38283  26.666  29.041   3.363
79188W        W38284  15.285   5.409   3.655
79189W        W38285   9.647  23.579  12.546
79190W        W38286  43.324   2.771   3.807
79191W        W38287  30.550  11.663   0.847
79192W        W38288   1.258   5.884   1.356
79193W        W38289  17.582   7.778  13.418
79194W        W38290   0.927   1.473   0.752
79195W        W38291   7.190  24.647   0.742
79196W        W38292  42.436   8.755   0.838
79197W        W38293  32.478  19.717  11.411
79198W        W38294   4.765  31.422  12.540
79199W        W38295  44.842  20.100   0.888
79200W        W38296   1.327   0.405   1.387
79201W        W38297   1.838  44.801   2.355
79202W        W38298  17.152  30.963   2.727
79203W        W38299  38.831  38.024  14.410
79204W        W38300  31.417   0.401   0.245
79205W        W38301  30.576  22.500   1.313
79206W        W38302  32.053  39.051  13.862
79207W        W38303  13.799  42.930   0.394
79208W        W38304  24.145   0.324  11.529
79209W        W38305  35.480  21.136   0.263
79210W        W38306   0.775  14.267  13.952
79211W        W38307  18.670  42.440  13.831
79212W        W38308  41.506  43.277   0.881
79213W        W38309   2.389   1.915   1.801
79214W        W38310   6.232  31.503   1.239
79215W        W38311  33.512  41.814  10.938
79216W        W38312  18.766  39.902  14.440
79217W        W38313  29.439  41.472   1.863
79218W        W38314   6.779  12.660  13.475
79219W        W38315  24.001  13.711  13.014
79220W        W38316   4.214  44.824  11.068
79221W        W38317  42.987  11.252   3.262
79222W        W38318  16.729  41.319   2.866
79223W        W38319  38.008   3.798   1.324
79224W        W38320  29.174  21.732  14.916
79225W        W38321  16.667  12.268  13.920
79226W        W38322  24.031  31.640   2.354
79227W        W38323  44.812  20.609  12.863
79228W        W38324  18.186  40.364  10.491
79229W        W38325  18.211  17.583  11.116
79230W        W38326  15.092  16.087  10.946
79231W        W38327  15.255  15.725   0.351
79232W        W38328  14.664   8.345   2.401
79233W        W38329  14.130  25.668  11.110
79234W        W38330  32.978   2.751   4.180
79235W        W38331  15.294  44.909  11.548
79236W        W38332   3.240  14.154  13.347
79237W        W38333  19.597   6.844   4.205
79238W        W38334  28.615   9.252   4.352
79239W        W38335  20.694  10.820   3.747
79240W        W38336  40.799   2.444   0.802
79241W        W38337  44.316  42.885  14.392
79242W        W38338   3.789  20.241  12.051
79243W        W38339  16.627  10.647   5.582
79244W        W38340  38.075  26.083   2.667
79245W        W38341   7.750  14.325   1.762
79246W        W38342  44.260  15.673  11.052
79247W        W38343  29.020  18.205  13.335
79248W        W38344   5.232  42.295   1.407
79249W        W38345  27.066  23.667  10.598
79250W        W38346  28.073  21.088   4.202
79251W        W38347   5.420  19.128   0.965
79252W        W38348  17.301  16.128   3.839
79253W        W38349  23.587   8.698  11.428
79254W        W38350   2.453  37.032  12.096
79255W        W38351  37.051  28.058   4.267
79256W        W38352   5.336   2.941   4.734
79257W        W38353  17.558   4.793   0.919
79258W        W38354  33.562  40.404   2.267
79259W        W38355   1.773  24.070  12.402
79260W        W38356  27.023  30.528   0.947
79261W        W38357   1.742  41.872   4.256
79262W        W38358  25.191  12.769  13.823
79263W        W38359  24.693  35.465   3.211
79264W        W38360  31.040  39.425  10.895
79265W        W38361  40.445  12.270  10.620
79266W        W38362  33.545  28.185  11.078
79267W        W38363  39.872  13.282  10.955
79268W        W38364  38.470  16.777   1.701
79269W        W38365  28.452  36.070   1.744
79270W        W38366   6.189  21.681  11.120
79271W        W38367   3.428  42.986  10.497
79272W        W38368  25.535  11.215   4.329
79273W        W38369   5.749  17.694   4.688
79274W        W38370  15.710  38.961   3.374
79275W        W38371  10.376  41.816   4.832
79276W        W38372  32.508  38.900  13.806
79277W        W38373  35.924   0.770  11.431
79278W        W38374  38.414   2.241   3.688
79279W        W38375  24.698  39.420  10.954
79280W        W38376   9.167  29.468   9.969
79281W        W38377  16.711  25.033   1.826
79282W        W38378  33.389  30.999   4.805
79283W        W38379  27.041  18.786   4.334
79284W        W38380  41.847  31.957   2.854
79285W        W38381  10.187  35.051   3.831
79286W        W38382  18.546  22.669  11.906
79287W        W38383  33.037  29.992   0.428
79288W        W38384  24.623  18.737   0.317
79289W        W38385  22.230  16.314   1.753
79290W        W38386  28.634  34.478   0.405
79291W        W38387  12.617  12.675   4.255
79292W        W38388  43.893   7.239  10.983
79293W        W38389  32.057  29.939  13.863
79294W        W38390  35.486   7.388  11.380
79295W        W38391  41.342  26.497   0.883
79296W        W38392  17.637  32.504   3.339
79297W        W38393  32.538  41.389   4.743
79298W        W38394  40.048   7.180   2.713
79299W        W38395  42.520   8.811  11.113
79300W        W38396   8.887  43.940   2.878
79301W        W38397  15.698  14.219   0.441
79302W        W38398  42.427  44.419  10.628
79303W        W38399  25.548   0.870   1.450
79304W        W38400   9.807  29.603   5.270
79305W        W38401   4.856  21.205   5.293
79306W        W38402   1.287  30.954  13.060
79307W        W38403  22.538  29.627  10.030
79308W        W38404  32.541  32.915   1.918
79309W        W38405  31.467  39.044   0.782
79310W        W38406  19.248  17.255   3.705
79311W        W38407  24.142  22.506   1.914
79312W        W38408   9.240  22.245   3.379
79313W        W38409  31.024  15.622  13.376
79314W        W38410   6.855   1.803  11.379
79315W        W38411   9.784   9.314   4.792
79316W        W38412  23.051  38.977  11.429
79317W        W38413  34.992  14.246   1.300
79318W        W38414   9.818  31.463   2.259
79319W        W38415  33.594  26.477  12.366
79320W        W38416  34.537   4.318  10.419
79321W        W38417  17.187  27.462   4.620
79322W        W38418   3.838  38.427   2.686
79323W        W38419   5.861  18.623   2.372
79324W        W38420  12.292  39.968  13.964
79325W        W38421  28.514  34.499  14.385
79326W        W38422  28.071  14.260  14.515
79327W        W38423   0.273  19.049   4.332
79328W        W38424   4.232  44.939   3.865
79329W        W38425  28.174  20.627   1.759
79330W        W38426  32.442  42.790  14.009
79331W        W38427  14.601  34.487   4.788
79332W        W38428  26.688  12.171   4.233
79333W        W38429  40.053  39.034  10.585
79334W        W38430  13.271  25.207  13.530
79335W        W38431  12.798  29.472   4.136
79336W        W38432  37.034  25.170  12.867
79337W        W38433  19.086  17.577  10.408
79338W        W38434  33.427  36.476  10.957
79339W        W38435   3.433  44.501   2.398
79340W        W38436  10.848  35.043   2.768
79341W        W38437  19.101  33.421   4.710
79342W        W38438  10.311   6.296   0.278
79343W        W38439  13.668  37.536  12.092
79344W        W38440  29.653  23.031   4.672
79345W        W38441  18.099  35.012   4.214
79346W        W38442  22.138  12.789   1.348
79347W        W38443  27.595  30.089   3.737
79348W        W38444   2.959   1.947   3.812
79349W        W38445   8.364  16.286  12.498
79350W        W38446  12.666  23.991   3.339
79351W        W38447  30.493  42.461   2.348
79352W        W38448  25.091   4.749  14.367
79353W        W38449  15.255  40.872  11.383
79354W        W38450  17.141   3.820  14.907
79355W        W38451  17.797   6.877   3.173
79356W        W38452   2.902  31.134  14.464
79357W        W38453  33.988  36.098   2.866
79358W        W38454  10.838  34.476   4.685
79359W        W38455   2.912  27.570  12.370
79360W        W38456  14.223  25.198  10.988
79361W        W38457  16.706  16.223  13.838
79362W        W38458  25.683   6.399   5.286
79363W        W38459  27.652  40.352  13.420
79364W        W38460  34.500   2.319   4.261
79365W        W38461  36.994   3.416   3.757
79366W        W38462  21.588   9.879  12.985
79367W        W38463  16.237  42.439   3.171
79368W        W38464  10.205  41.922  13.404
79369W        W38465  14.683  36.058  11.594
79370W        W38466   6.331  39.912   5.321
79371W        W38467   2.805  44.468  14.013
79372W        W38468  22.010  33.946  14.950
79373W        W38469   0.320  27.500  10.532
79374W        W38470  38.909   9.890  14.919
79375W        W38471  23.087  40.041   4.141
79376W        W38472  30.130  24.987  14.979
79377W        W38473   4.727  23.665   3.776
79378W        W38474  36.553   3.750   4.146
79379W        W38475  39.954  40.822   0.879
79380W        W38476  36.065  26.175  10.515
79381W        W38477  24.642  40.915  12.036
79382W        W38478   3.888  18.693   0.811
79383W        W38479  26.981  39.532  14.008
79384W        W38480  25.572  39.893   3.329
79385W        W38481  35.075  15.757   1.818
79386W        W38482  30.989  19.761  12.028
79387W        W38483  35.408  12.324   1.735
79388W        W38484  24.612  41.900  12.042
79389W        W38485  15.653   2.241   2.787
79390W        W38486   2.934  30.097  11.483
79391W        W38487  41.035  26.479  10.511
79392W        W38488  31.529  16.671  13.521
79393W        W38489  15.783  23.687  12.003
79394W        W38490  11.773  26.541   5.126
79395W        W38491  13.342  12.705   3.660
79396W        W38492  43.002  39.427   4.708
79397W        W38493  26.642   6.815   0.937
79398W        W38494   3.215  28.610  12.523
79399W        W38495   6.418  16.134  13.827
79400W        W38496  41.914   9.320  11.930
79401W        W38497  30.609  11.764  12.076
79402W        W38498  36.395  42.416  14.309
79403W        W38499  29.052   0.831   0.373
79404W        W38500  44.411  25.005   4.731
79405W        W38501  44.982  42.359  10.899
79406W        W38502  25.692  19.766   3.811
79407W        W38503  10.234  35.868  14.293
79408W        W38504  12.702   7.237  10.464
79409W        W38505  23.020   5.889  11.987
79410W        W38506  33.089  33.382  14.327
79411W        W38507  18.625  31.599  12.420
79412W        W38508   6.381   4.778  13.502
79413W        W38509  23.241  21.596   1.864
79414W        W38510  38.846  27.087   1.249
79415W        W38511  20.725  34.446  11.593
79416W        W38512  31.106  44.323   5.267
79417W        W38513  18.578  43.367   1.772
79418W        W38514  40.333  19.618  13.048
79419W        W38515  11.137   3.219   4.604
79420W        W38516  22.126  15.132  12.852
79421W        W38517  29.999  24.660  11.907
79422W        W38518  10.707  32.538  12.859
79423W        W38519  13.191  12.726   0.825
79424W        W38520  14.668  28.133  14.871
79425W        W38521  34.373   2.459   1.426
79426W        W38522  35.504  40.438  13.321
79427W        W38523  24.126  15.115  13.996
79428W        W38524  11.344  26.205   4.212
79429W        W38525  24.600   5.310  14.769
79430W        W38526  19.744  41.357  12.520
79431W        W38527  15.687  25.001   2.379
79432W        W38528  42.885  22.586  12.823
79433W        W38529  18.579  18.292   0.967
79434W        W38530  25.554   4.912   4.745
79435W        W38531  40.039   0.976  12.910
79436W        W38532   6.824  20.684   4.194
79437W        W38533   6.215   6.905  11.425
79438W        W38534   0.907  28.528  10.982
79439W        W38535  23.028  29.110   0.303
79440W        W38536  18.737  24.479   3.156
79441W        W38537  15.795  21.546  14.339
79442W        W38538   2.822  32.432   3.805
79443W        W38539  22.150   3.357  13.479
79444W        W38540  26.019  24.977   0.371
79445W        W38541  30.078  16.140  10.432
79446W        W38542  27.148  26.495   5.207
79447W        W38543  27.607  19.545  14.760
79448W        W38544  26.602  34.001  14.809
79449W        W38545   3.411   6.787  13.020
79450W        W38546  18.245  36.045   0.459
79451W        W38547  32.576  15.318  13.998
79452W        W38548  22.018   8.897   2.813
79453W        W38549  18.595  30.647  11.398
79454W        W38550  14.694   3.889   4.636
79455W        W38551  22.042   9.707  13.347
79456W        W38552  24.576  34.601   5.254
79457W        W38553  19.256  20.160   4.327
79458W        W38554  31.104   3.907  13.319
79459W        W38555   3.258  39.825   2.348
79460W        W38556  33.452  11.781   0.737
79461W        W38557   5.367  33.997   1.434
79462W        W38558  13.614  35.432  14.317
79463W        W38559  20.742  36.399  13.011
79464W        W38560  23.990   8.822   4.333
79465W        W38561  25.983   8.333   0.269
79466W        W38562  14.610  38.534   2.895
79467W        W38563   5.339   2.298  10.486
79468W        W38564  16.166  37.049  12.400
79469W        W38565  29.938  29.664   2.273
79470W        W38566  18.697  25.191   1.392
79471W        W38567  10.839   0.963   2.273
79472W        W38568  15.243  39.363   0.478
79473W        W38569  33.930   4.829  12.879
79474W        W38570  27.042  36.058  14.378
79475W        W38571  31.456  30.109  12.414
79476W        W38572   4.937   7.732  11.543
79477W        W38573  21.577   6.789   4.788
79478W        W38574   4.752  31.573  14.381
79479W        W38575  32.965  24.101   4.131
79480W        W38576   1.393  33.600   0.874
79481W        W38577  10.339  37.920   1.702
79482W        W38578  31.109  43.317  11.545
79483W        W38579  13.245  43.777   3.228
79484W        W38580  15.707  43.830   3.298
79485W        W38581  33.400  37.954   3.871
79486W        W38582  22.571  12.138   1.889
79487W        W38583  23.528  12.134   2.694
79488W        W38584  43.907   1.779   4.719
79489W        W38585  35.892   2.731   4.295
79490W        W38586  19.702   0.275  14.512
79491W        W38587  15.133  15.128   1.726
79492W        W38588  24.995  10.867   4.655
79493W        W38589  13.188  32.394   2.668
79494W        W38590  27.603  18.679   1.801
79495W        W38591  40.954  19.262  13.320
79496W        W38592  19.689  40.863   0.922
79497W        W38593  42.368  30.461  14.791
79498W        W38594  14.185  32.558  12.088
79499W        W38595   5.305  20.592   0.466
79500W        W38596  36.570  27.161   3.698
79501W        W38597  16.288  25.174  11.598
79502W        W38598   8.772  42.792   4.640
79503W        W38599  23.087  29.660  14.363
79504W        W38600  36.349  36.075  13.516
79505W        W38601  22.095  14.161   3.652
79506W        W38602  30.472  22.591  11.455
79507W        W38603   3.937  40.403   1.782
79508W        W38604  34.445   7.681   3.174
79509W        W38605  12.220  40.862  13.418
79510W        W38606  12.253  13.830  10.636
79511W        W38607  38.400  24.713  13.925
79512W        W38608  30.047  41.519   0.401
79513W        W38609  30.942  34.120  14.458
79514W        W38610   7.350  29.942  14.504
79515W        W38611  23.236  10.824   3.709
79516W        W38612  37.343  33.506   3.738
79517W        W38613  20.134  30.131   0.781
79518W        W38614  37.033  27.521   1.921
79519W        W38615  12.118   1.959   2.351
79520W        W38616  30.083  23.593  14.349
79521W        W38617  18.586   2.947   2.376
79522W        W38618  14.329  17.081  13.942
79523W        W38619  27.152  30.600   2.246
79524W        W38620  33.581  26.602  11.550
79525W        W38621   0.794  36.370   2.668
79526W        W38622  29.962  10.661   4.256
79527W        W38623   7.764  26.062   0.242
79528W        W38624  37.484   9.693  10.541
79529W        W38625  32.013  24.595   2.826
79530W        W38626  18.708  33.618  14.931
79531W        W38627   1.363  17.210   0.436
79532W        W38628  39.370   8.253  14.426
79533W        W38629   2.886   8.728   0.347
79534W        W38630  30.578  24.083  14.489
79535W        W38631   9.212   8.246   2.780
79536W        W38632   1.968   1.313   1.344
79537W        W38633  41.935  26.482   1.331
79538W        W38634  37.527  23.059  11.096
79539W        W38635   1.369  36.887  14.396
79540W        W38636   0.832  23.020   3.685
79541W        W38637  16.735  39.379   1.344
79542W        W38638   0.935  29.053  13.514
79543W        W38639  42.798  27.187   3.311
79544W        W38640  31.033  20.041  14.362
79545W        W38641   8.690  18.665  11.490
79546W        W38642  41.040  13.231   3.198
79547W        W38643  24.043  31.532   3.258
79548W        W38644  34.067  21.210  10.440
79549W        W38645  42.949   3.228   1.220
79550W        W38646  42.963   6.428  14.815
79551W        W38647   6.689  44.866  14.883
79552W        W38648   9.195  31.455   4.722
79553W        W38649  33.570  20.249   4.783
79554W        W38650  29.962   3.869  13.354
79555W        W38651  39.369  24.545  11.417
79556W        W38652  36.052   1.768  12.507
79557W        W38653  43.863  41.309  12.344
79558W        W38654  13.267  43.465   3.768
79559W        W38655  18.743   2.231  13.343
79560W        W38656   6.733  25.571   2.790
79561W        W38657   4.445  26.986  11.585
79562W        W38658  10.200  19.185   2.782
79563W        W38659  41.008  18.250   0.246
79564W        W38660  35.015  13.289   2.766
79565W        W38661  43.480   2.825  13.308
79566W        W38662   6.688   5.691  11.095
79567W        W38663  43.369  18.128   0.927
79568W        W38664  14.185   0.810   0.249
79569W        W38665  19.134  20.687   0.461
79570W        W38666  15.628  13.270   3.370
79571W        W38667  31.091  34.864   0.763
79572W        W38668  27.133  16.157   2.725
79573W        W38669  26.539  31.091   1.326
79574W        W38670  18.064  13.640  14.336
79575W        W38671  42.448  19.231  13.509
79576W        W38672  18.692  25.152  13.498
79577W        W38673   1.348  35.401   3.723
79578W        W38674   7.722  19.604   0.256
79579W        W38675  32.596  23.608  12.011
79580W        W38676  44.474  25.995  11.901
79581W        W38677  23.097  44.758   1.350
79582W        W38678  11.667  13.739  11.389
79583W        W38679  10.262  22.156  12.873
79584W        W38680  20.219  43.803  10.913
79585W        W38681  38.966  27.474  13.541
79586W        W38682   0.291  20.685   0.295
79587W        W38683  12.323   2.291   3.237
79588W        W38684  40.829  38.496  10.992
79589W        W38685   4.386  16.234  12.960
79590W        W38686  20.749   7.357  12.904
79591W        W38687  35.417  14.180   1.706
79592W        W38688  17.628  24.071   2.259
79593W        W38689  22.091  15.303   3.749
79594W        W38690  34.889  16.591  13.020
79595W        W38691  42.411  16.594   4.769
79596W        W38692  19.114   6.752   2.261
79597W        W38693  23.643  18.288  14.017
79598W        W38694   3.896  32.484   3.777
79599W        W38695   3.391  42.480   3.855
79600W        W38696   6.354  23.503  11.424
79601W        W38697  44.850  18.108  13.379
79602W        W38698   8.834  26.550  13.991
79603W        W38699  22.217   5.880   4.270
79604W        W38700  37.400  23.524  12.466
79605W        W38701  14.737  10.215  12.959
79606W        W38702   8.772  17.714   3.650
79607W        W38703  30.591  17.721  13.424
79608W        W38704  39.450  19.624   0.901
79609W        W38705  43.397   6.184   0.841
79610W        W38706  44.440  14.141  10.891
79611W        W38707  27.118  13.113   4.126
79612W        W38708   9.198  38.913   4.257
79613W        W38709   3.349   1.759  14.993
79614W        W38710  19.604  20.231   3.840
79615W        W38711  43.452  29.640   0.249
79616W        W38712   4.867  23.150  13.816
79617W        W38713   2.398  29.951   2.231
79618W        W38714   8.244  19.765   1.320
79619W        W38715  43.872   1.766   0.472
79620W        W38716  14.300  38.562  12.016
79621W        W38717   8.682  29.560  10.512
79622W        W38718   8.669   2.918  12.093
79623W        W38719   2.265  28.163  14.346
79624W        W38720  16.239  16.707   4.225
79625W        W38721   4.301  25.085  14.996
79626W        W38722  28.574  22.582  13.528
79627W        W38723  16.308  11.155  11.870
79628W        W38724   3.385  38.847  11.530
79629W        W38725  17.708  24.524   3.154
79630W        W38726   9.784   5.848   3.319
79631W        W38727   7.713  21.678   0.363
79632W        W38728  36.850  10.717  11.863
79633W        W38729  35.928  23.997  13.429
79634W        W38730  43.392  40.972   3.810
79635W        W38731  15.127   6.190   4.144
79636W        W38732  42.448  21.545  14.475
79637W        W38733   3.274   9.769   2.849
79638W        W38734   3.403  40.972   4.814
79639W        W38735  16.220  41.372   3.206
79640W        W38736  39.830   4.854   3.784
79641W        W38737  10.355  11.699  12.945
79642W        W38738  20.099  12.722   3.649
79643W        W38739  16.639  35.012  12.452
79644W        W38740  40.811  18.615   4.660
79645W        W38741   3.368  19.711  12.985
79646W        W38742   8.675  15.795  14.356
79647W        W38743  23.065  37.454  12.854
79648W        W38744  21.157  44.759  14.510
79649W        W38745  43.382  36.059  12.950
79650W        W38746  22.186   8.697   0.311
79651W        W38747  32.899   0.416  12.050
79652W        W38748  29.940  44.011  14.917
79653W        W38749  40.426  10.327   0.365
79654W        W38750   5.249  22.714  10.113
79655W        W38751  41.493  35.914  10.455
79656W        W38752  39.548  39.912  14.386
79657W        W38753  22.650  29.155  12.507
79658W        W38754  27.990   7.330   1.313
79659W        W38755  27.185  36.933   1.419
79660W        W38756  39.907  35.001  11.972
79661W        W38757  29.441   4.446   0.946
79662W        W38758   1.340  24.623  13.969
79663W        W38759  39.920  40.044  12.886
79664W        W38760   0.775  31.119  11.046
79665W        W38761  14.596  16.163  14.280
79666W        W38762  25.124  36.038   5.155
79667W        W38763  29.021  24.143  14.498
79668W        W38764   2.743   3.918   4.339
79669W        W38765   6.766   2.453  10.447
79670W        W38766  36.966  11.183  12.927
79671W        W38767  21.129   8.868   2.328
79672W        W38768  25.126   7.288  12.477
79673W        W38769  34.903  34.019   2.290
79674W        W38770  44.985  39.900   0.474
79675W        W38771  31.554   4.417   0.813
79676W        W38772  26.200  32.447   3.807
79677W        W38773  43.857  24.160  14.881
79678W        W38774  11.207  22.717  13.400
79679W        W38775  33.009  24.610   3.315
79680W        W38776  13.841  37.839  11.527
79681W        W38777  17.160   7.798   2.691
79682W        W38778  44.266  34.511  10.632
79683W        W38779   6.753  44.918   1.305
79684W        W38780   2.370  15.098   4.697
79685W        W38781  38.386  19.717   0.846
79686W        W38782  20.249  16.201  10.461
79687W        W38783   9.254  26.119  12.893
79688W        W38784   7.255  18.133   1.904
79689W        W38785  39.323  12.817  13.003
79690W        W38786  19.190  25.137   0.363
79691W        W38787  36.460  23.657  13.818
79692W        W38788  37.547  35.380  14.415
79693W        W38789  36.059  18.206  13.347
79694W        W38790  36.499  28.981  11.582
79695W        W38791   1.297  15.717  10.599
79696W        W38792   8.232   3.800  11.082
79697W        W38793  25.522   3.325   0.457
79698W        W38794  10.288   1.965  12.852
79699W        W38795  32.995   5.224   1.298
79700W        W38796   6.765   1.882   3.371
79701W        W38797  35.004  40.407  11.427
79702W        W38798  38.954   2.778  12.984
79703W        W38799  32.141  40.344   3.187
79704W        W38800  32.962  28.108   0.790
79705W        W38801  21.650  20.235  13.508
79706W        W38802  35.083  22.503  11.596
79707W        W38803  12.737  37.940   4.335
79708W        W38804  22.061   3.839  14.858
79709W        W38805   1.873  23.701  10.565
79710W        W38806   8.882   2.952   2.737
79711W        W38807  17.584  30.925   3.814
79712W        W38808  13.326  29.590  14.028
79713W        W38809  28.127  17.134  10.612
79714W        W38810  32.610  18.052   1.776
79715W        W38811   1.839  44.771  10.466
79716W        W38812  40.892  33.380  14.324
79717W        W38813   5.414  16.090  11.592
79718W        W38814   4.378  29.938  13.863
79719W        W38815  17.778  37.486  11.009
79720W        W38816  31.042  38.032   9.532
79721W        W38817  22.147  41.835   0.859
79722W        W38818  30.031  14.625   3.831
79723W        W38819   0.793  11.704   3.242
79724W        W38820  37.018  38.373   3.836
79725W        W38821  42.777  32.625   2.321
79726W        W38822  28.650   1.796  11.096
79727W        W38823  38.895  13.146   4.317
79728W        W38824  38.327  30.636   4.304
79729W        W38825  41.793  39.560   0.435
79730W        W38826  19.264   2.287  14.279
79731W        W38827   7.710  17.300   0.306
79732W        W38828  44.297  10.639   3.204
79733W        W38829  12.140  22.647  14.401
79734W        W38830  23.631  37.909   1.325
79735W        W38831  16.678  20.128  12.397
79736W        W38832  12.185   0.911   2.416
79737W        W38833  22.163   4.881   1.760
79738W        W38834  24.611  42.014   3.344
79739W        W38835  15.205   4.369  13.999
79740W        W38836  36.519  12.259  12.431
79741W        W38837   0.932  42.511  14.495
79742W        W38838  12.755   9.364  11.084
79743W        W38839   3.256  27.574   3.253
79744W        W38840   7.850   6.383   2.376
79745W        W38841  40.478  12.344  14.787
79746W        W38842  29.618  23.197   1.799
79747W        W38843  11.135   4.447   4.350
79748W        W38844  27.979   2.828  10.463
79749W        W38845   9.698   0.326  10.552
79750W        W38846  11.736   4.881   3.351
79751W        W38847  14.236  10.842  12.839
79752W        W38848   3.909  26.582  14.807
79753W        W38849  35.578   3.765  12.376
79754W        W38850  36.887  22.521   2.415
79755W        W38851  20.750   1.460   1.357
79756W        W38852  12.828  41.819   0.776
79757W        W38853  20.540   8.866   0.853
79758W        W38854  31.614   9.298  14.511
79759W        W38855  26.494   1.748   3.238
79760W        W38856  23.734  44.312   0.816
79761W        W38857   8.405   5.348  13.013
79762W        W38858  22.057  16.309  12.056
79763W        W38859  21.699  27.990  13.896
79764W        W38860  28.500  17.277  10.965
79765W        W38861  24.485  19.691  12.072
79766W        W38862  24.581   5.757  10.487
79767W        W38863  36.574   0.832  10.428
79768W        W38864   3.953  39.855   2.227
79769W        W38865  39.950  38.500   4.266
79770W        W38866  24.153  24.514  14.367
79771W        W38867  10.806   6.746  14.416
79772W        W38868  14.153  23.730   1.721
79773W        W38869  43.895  18.653   0.285
79774W        W38870  39.860  35.093  14.464
79775W        W38871   3.915  24.230   3.298
79776W        W38872  42.440  42.018  12.072
79777W        W38873  17.748  19.065   4.339
79778W        W38874  32.988  21.707   1.429
79779W        W38875  31.522  15.083   0.929
79780W        W38876   8.851  20.157  11.074
79781W        W38877  25.090   6.404  12.522
79782W        W38878   3.931  37.552  12.842
79783W        W38879  43.796   0.881   1.753
79784W        W38880  40.399  27.996  13.795
79785W        W38881  25.116  11.246  10.626
79786W        W38882  27.105  12.247   2.702
79787W        W38883  16.617  38.448   1.253
79788W        W38884  33.580   1.250   4.835
79789W        W38885  10.848  41.961  12.921
79790W        W38886  41.883  14.253   4.739
79791W        W38887  14.226  39.526   3.718
79792W        W38888  24.546  25.104   1.767
79793W        W38889  32.459   5.804   0.932
79794W        W38890  36.987  15.245   4.821
79795W        W38891   3.269  18.772  12.580
79796W        W38892  15.612  34.403   1.437
79797W        W38893   6.694   7.322   3.278
79798W        W38894  44.784  33.999   2.214
79799W        W38895  27.155  34.932   1.721
79800W        W38896  10.657   9.654  14.431
79801W        W38897  17.694  20.721   0.845
79802W        W38898  33.128  24.491  13.840
79803W        W38899  39.897   0.905  14.363
79804W        W38900   6.776  29.088  14.887
79805W        W38901  34.575  27.630  14.322
79806W        W38902  35.492  32.998  12.526
79807W        W38903   7.682  15.790   0.959
79808W        W38904   6.373   5.255  10.416
79809W        W38905  37.459   0.324   3.278
79810W        W38906  38.400  23.490  14.779
79811W        W38907  38.554   5.415   3.278
79812W        W38908   5.279   4.713  14.311
79813W        W38909  24.687  24.228  13.364
79814W        W38910  38.485  27.196   3.852
79815W        W38911   8.290  36.466   4.653
79816W        W38912  10.200  11.811  10.485
79817W        W38913  30.049  13.803  13.980
79818W        W38914  37.414  33.914   2.302
79819W        W38915  22.110  35.070   1.394
79820W        W38916  32.499  24.197   0.774
79821W        W38917  40.493  23.625   4.735
79822W        W38918  42.346  41.367  13.804
79823W        W38919  21.087  30.641  12.008
79824W        W38920  15.720   3.898   2.201
79825W        W38921   4.431  35.934   2.803
79826W        W38922  41.968  31.458   2.318
79827W        W38923  30.655   8.337  14.990
79828W        W38924  29.625  14.760   2.689
79829W        W38925  36.361  26.625   0.892
79830W        W38926  21.218  20.042   1.877
79831W        W38927  43.461  22.607  10.054
79832W        W38928  34.961  41.488   4.309
79833W        W38929   5.240  35.439   4.783
79834W        W38930  10.366  44.860   3.751
79835W        W38931  35.433  15.196  14.880
79836W        W38932  16.724  30.973  10.907
79837W        W38933   2.771  20.195   1.737
79838W        W38934  18.120  30.527  10.931
79839W        W38935  39.958   1.781  13.442
79840W        W38936   3.387  37.472  14.313
79841W        W38937  42.488  34.375  12.876
79842W        W38938  39.333   1.832  10.983
79843W        W38939  37.392  28.140  12.994
79844W        W38940  37.399  40.877  11.122
79845W        W38941  23.194  42.359   3.201
79846W        W38942  22.104   6.876  13.038
79847W        W38943  29.646  25.147  14.996
79848W        W38944  14.758  27.647  14.003
79849W        W38945   5.851  10.831   3.241
79850W        W38946  21.696   7.195  11.960
79851W        W38947  30.443  32.401   2.252
79852W        W38948   1.889  37.538  11.864
79853W        W38949  18.130  37.379   2.861
79854W        W38950  26.490  33.605   9.929
79855W        W38951   1.976   8.350  14.932
79856W        W38952  44.864  14.187   2.317
79857W        W38953  21.538  22.711   1.213
79858W        W38954   7.395   5.709   0.955
79859W        W38955  41.946  25.207   2.394
79860W        W38956   1.356  13.739  14.882
79861W        W38957  17.278  18.547  12.958
79862W        W38958  33.583  43.786   0.793
79863W        W38959  25.532  36.842  11.965
79864W        W38960  22.610  14.734   4.166
79865W        W38961  22.558  32.129  10.941
79866W        W38962   4.713  40.364   4.127
79867W        W38963  38.510   1.864  10.546
79868W        W38964  28.060  19.087  13.877
79869W        W38965  27.067  26.124   0.248
79870W        W38966  36.864  40.954   0.400
79871W        W38967   6.234  12.181   1.763
79872W        W38968   2.355  15.782   5.221
79873W        W38969  29.614   2.470   1.415
79874W        W38970   2.722  15.113   0.320
79875W        W38971   4.882   1.389   2.873
79876W        W38972  42.976  22.689   0.415
79877W        W38973  15.162  12.266   0.784
79878W        W38974  10.688  39.389   4.773
79879W        W38975   2.772  28.089  13.850
79880W        W38976  32.032  43.896   2.288
79881W        W38977  29.158  42.852   1.325
79882W        W38978  23.514   5.271  13.941
79883W        W38979  44.808   9.789  13.907
79884W        W38980  18.784   6.913   1.749
79885W        W38981  25.967   1.964  14.922
79886W        W38982  40.314  37.530  11.112
79887W        W38983  32.140  13.321   4.769
79888W        W38984  43.933  14.610  14.450
79889W        W38985  23.159  36.083  13.810
79890W        W38986  25.172  35.045  13.964
79891W        W38987   0.369  27.948  11.536
79892W        W38988  24.499  17.569  10.971
79893W        W38989  42.908  30.042  11.976
79894W        W38990  36.045  30.101  13.062
79895W        W38991  23.242   5.269  14.282
79896W        W38992  16.151   7.832   2.706
79897W        W38993  29.569  17.198  13.543
79898W        W38994  39.002  32.596   4.255
79899W        W38995  22.559  13.752  13.489
79900W        W38996  21.229  15.736   0.348
79901W        W38997   0.410   3.439   3.638
79902W        W38998  13.111  10.839  12.856
79903W        W38999  38.436  13.159  11.959
79904W        W39000  38.862  12.711  10.616
79905W        W39001  17.072  16.300  13.958
79906W        W39002  21.672  20.555   4.221
79907W        W39003  19.214  29.061  13.403
79908W        W39004  41.014  21.106   0.754
79909W        W39005  40.354  24.205  10.980
79910W        W39006  22.606  32.016   1.935
79911W        W39007  31.585   1.277  11.099
79912W        W39008  40.802   5.730   2.229
79913W        W39009  10.262  36.944  13.517
79914W        W39010   7.784  39.887   0.249
79915W        W39011  18.577  25.647  14.425
79916W        W39012  43.488  33.998   2.824
79917W        W39013  35.070  20.250   3.669
79918W        W39014  27.970  27.562  12.391
79919W        W39015  11.192  31.517  13.984
79920W        W39016   9.657  20.756   4.766
79921W        W39017   5.252  18.075   3.236
79922W        W39018  18.558  19.239  11.871
79923W        W39019   5.812  42.784   0.318
79924W        W39020   4.207   3.724   0.855
79925W        W39021  22.743  38.927  14.464
79926W        W39022  11.130  20.550  11.116
79927W        W39023  25.196  20.607  13.823
79928W        W39024   4.917  21.684  14.388
79929W        W39025  39.499  15.783   2.696
79930W        W39026  41.879  41.904  13.843
79931W        W39027  26.462  35.981   2.327
79932W        W39028  19.059  27.459  10.533
79933W        W39029  44.490  18.588   1.239
79934W        W39030  42.975   5.283   3.278
79935W        W39031  22.557  18.194   2.786
79936W        W39032  24.541  17.289  13.325
79937W        W39033  32.110   1.931   2.876
79938W        W39034  16.774  25.703   3.753
79939W        W39035  43.356  24.093  11.879
79940W        W39036  35.907   5.822  11.504
79941W        W39037  12.634   9.218   2.303
79942W        W39038   3.876  44.485   1.929
79943W        W39039  39.055  28.664  12.501
79944W        W39040  43.894   3.367  13.371
79945W        W39041  30.602   6.237  14.971
79946W        W39042  30.545  27.660   3.869
79947W        W39043  22.587  15.723   1.302
79948W        W39044   8.246  11.695   3.351
79949W        W39045   3.940  25.626   2.237
79950W        W39046  21.225  28.616  14.767
79951W        W39047  26.615   2.444  10.618
79952W        W39048   8.298  42.281  14.029
79953W        W39049  31.099  37.907   0.896
79954W        W39050  25.215  26.565  12.503
79955W        W39051  19.108  25.469  14.482
79956W        W39052  36.080  18.249  12.414
79957W        W39053   7.838   1.295  14.829
79958W        W39054   1.793  28.983  12.953
79959W        W39055  43.969  29.453   2.755
79960W        W39056  24.586   4.700  14.786
79961W        W39057  19.089  17.601   1.268
79962W        W39058  19.622  28.645  13.510
79963W        W39059  26.208  44.907   1.288
79964W        W39060   2.406  20.701   1.219
79965W        W39061   9.661  42.933  11.901
79966W        W39062  37.936  12.219   2.674
79967W        W39063  20.165  25.517  12.858
79968W        W39064  44.851  19.251  10.552
79969W        W39065  16.609  12.234  12.462
79970W        W39066  39.560  20.619  14.993
79971W        W39067  25.506   2.746   3.292
79972W        W39068  14.242  25.571   4.718
79973W        W39069  13.171  39.925   4.345
79974W        W39070  15.611  24.973  13.977
79975W        W39071  31.461  14.695   3.334
79976W        W39072  44.477  37.055  11.538
79977W        W39073   0.315  43.829   1.244
79978W        W39074   7.310  28.484   2.675
79979W        W39075   3.239  36.362   3.158
79980W        W39076   4.868  26.185  12.395
79981W        W39077  33.015  31.951  10.580
79982W        W39078  36.453  33.520  14.457
79983W        W39079  17.742  29.618   3.768
79984W        W39080  12.353  14.797  14.775
79985W        W39081  32.057  28.010  13.808
79986W        W39082  27.579  10.244  14.828
79987W        W39083  19.569  42.896   3.796
79988W        W39084  40.973  25.654  10.620
79989W        W39085  37.063   8.216  14.413
79990W        W39086   9.737  27.167  10.490
79991W        W39087  18.660  37.835  12.088
79992W        W39088  42.378  42.925   4.731
79993W        W39089  37.841   9.864   3.287
79994W        W39090   8.213  22.026   0.782
79995W        W39091  25.694  22.114  12.043
79996W        W39092  37.046  39.527  13.342
79997W        W39093  25.020  31.511   1.795
79998W        W39094  34.553  25.705   3.318
79999W        W39095   3.391  12.224   1.439
80000W        W39096   5.322  42.019  12.892
80001W        W39097   6.181  25.558   2.334
80002W        W39098  41.814  20.535   3.177
80003W        W39099  35.896   1.898  14.980
80004W        W39100   3.845  11.742  13.414
80005W        W39101  37.391  32.444  10.407
80006W        W39102  24.570  43.272   0.756
80007W        W39103  12.740  14.601   4.787
80008W        W39104  10.851  14.737   5.630
80009W        W39105  34.984  38.529  12.064
80010W        W39106   5.208  28.507   0.781
80011W        W39107   9.885  31.942   2.900
80012W        W39108  24.135   6.690   0.329
80013W        W39109   3.895  18.544  14.963
80014W        W39110  43.967  38.420  14.838
80015W        W39111   6.753   6.827   2.411
80016W        W39112  11.676  44.425   0.854
80017W        W39113  10.262  35.900   3.667
80018W        W39114  20.225  36.437   3.188
80019W        W39115  21.515  41.792  11.525
80020W        W39116   7.228  39.485  14.372
80021W        W39117   7.795   1.736   4.736
80022W        W39118  23.126   9.857   1.793
80023W        W39119  37.467  26.200   4.746
80024W        W39120   0.461   9.384   0.793
80025W        W39121   8.806  42.323  11.388
80026W        W39122  11.286  39.409  13.863
80027W        W39123   3.828  33.956   0.870
80028W        W39124   8.177  22.192   2.249
80029W        W39125  40.447   3.241  10.582
80030W        W39126  30.486  31.624  13.043
80031W        W39127  19.270  37.515   9.927
80032W        W39128   2.928   2.908   2.872
80033W        W39129  11.774   7.780   0.836
80034W        W39130   2.797  32.079  14.816
80035W        W39131   4.806  26.480   2.828
80036W        W39132   9.729  30.582  12.890
80037W        W39133   1.771  43.927  14.818
80038W        W39134  12.811   6.302   3.368
80039W        W39135   6.786  17.152   4.769
80040W        W39136  35.475  38.559  14.833
80041W        W39137  40.441  22.739   2.198
80042W        W39138  39.025  30.659   2.902
80043W        W39139  38.462  41.301   4.814
80044W        W39140   5.833   6.242  12.834
80045W        W39141  14.257  34.012  11.990
80046W        W39142  14.299  12.225   1.775
80047W        W39143   3.838  32.517  14.871
80048W        W39144  13.285  34.469   2.677
80049W        W39145  32.508  42.346  11.014
80050W        W39146  33.400  38.355  14.842
80051W        W39147   4.798  12.250   3.320
80052W        W39148   2.311  20.132   3.267
80053W        W39149  20.736   0.282  11.605
80054W        W39150  30.633  15.085   0.372
80055W        W39151  19.701  16.246  10.936
80056W        W39152  12.814   5.205  13.931
80057W        W39153  15.134  39.385   3.854
80058W        W39154  39.878  21.606   0.460
80059W        W39155  41.948  39.435  10.513
80060W        W39156  35.428  35.107   0.732
80061W        W39157   7.271   5.341   1.419
80062W        W39158  42.872  37.039  12.982
80063W        W39159  37.398  39.433  13.380
80064W        W39160  14.628  36.382  10.134
80065W        W39161  22.107  18.604   0.292
80066W        W39162  33.107  14.223  12.929
80067W        W39163   3.921   9.380   4.705
80068W        W39164  27.505  12.662   3.205
80069W        W39165  13.169  31.410  13.899
80070W        W39166  36.944  20.093  14.975
80071W        W39167  43.477  37.858   3.156
80072W        W39168  12.162  26.515   9.497
80073W        W39169  18.731  44.010  12.930
80074W        W39170  31.549  16.751   1.792
80075W        W39171   7.337  33.529   4.156
80076W        W39172   0.301  33.530  12.906
80077W        W39173  21.165  21.170  12.468
80078W        W39174  18.594  20.038  13.855
80079W        W39175  20.759  23.612  12.960
80080W        W39176  30.418  36.449  11.399
80081W        W39177   9.683  44.435   0.396
80082W        W39178  30.603  40.947   1.895
80083W        W39179  30.448  22.701  13.367
80084W        W39180  24.568  16.594   4.343
80085W        W39181  19.286   8.262   0.341
80086W        W39182  18.587  37.504   3.324
80087W        W39183  39.053   6.187  10.015
80088W        W39184  42.315  30.109   2.870
80089W        W39185  20.135   9.160   0.255
80090W        W39186  17.770  18.148  10.579
80091W        W39187  28.156  17.692  14.491
80092W        W39188  33.584  30.460   4.285
80093W        W39189  16.086  31.441  12.920
80094W        W39190  32.462  26.050   0.391
80095W        W39191  18.072  44.477  14.398
80096W        W39192  39.950  31.460   0.396
80097W        W39193  34.932  28.076  14.348
80098W        W39194  20.550   2.365   1.819
80099W        W39195  10.359  44.903  13.892
80100W        W39196   7.857  19.053  11.462
80101W        W39197  21.697  14.118  10.984
80102W        W39198  16.619   7.176  11.394
80103W        W39199  14.641  21.250  10.636
80104W        W39200  34.973  25.025   1.776
80105W        W39201  20.760  32.033   1.809
80106W        W39202   8.873  23.085  14.410
80107W        W39203  16.772  12.780  11.950
80108W        W39204   8.192  35.433   0.308
80109W        W39205   2.836   1.472   4.147
80110W        W39206  12.197  20.232  13.945
80111W        W39207  25.051   9.183  11.897
80112W        W39208  22.561  18.695   0.361
80113W        W39209  41.809  12.775   2.319
80114W        W39210  44.424  13.803   3.818
80115W        W39211  36.388  41.953  12.967
80116W        W39212  12.207  30.958  13.998
80117W        W39213  30.443  43.432   3.653
80118W        W39214   6.743  38.963   3.722
80119W        W39215   1.453   0.956   2.863
80120W        W39216  40.345  43.490  14.385
80121W        W39217  41.953  19.145   3.342
80122W        W39218  37.400  33.990   3.682
80123W        W39219  30.637   7.367  13.835
80124W        W39220  43.281  25.004  13.364
80125W        W39221  18.687  38.987  11.946
80126W        W39222  23.493  43.498   0.794
80127W        W39223  18.228  31.608  12.492
80128W        W39224  17.168  11.785   2.213
80129W        W39225  23.569  12.631   2.294
80130W        W39226  37.847  12.655  13.959
80131W        W39227  27.053   7.341   2.408
80132W        W39228  43.275   3.376  11.461
80133W        W39229  27.990  41.361   3.670
80134W        W39230  27.476  18.693  12.923
80135W        W39231   6.322  36.553  11.561
80136W        W39232   5.926  26.577  11.437
80137W        W39233  10.382  10.227   2.827
80138W        W39234   3.814  38.903   3.167
80139W        W39235  32.506  19.207   4.116
80140W        W39236  35.990  35.466   1.796
80141W        W39237  17.094  12.665  11.059
80142W        W39238  22.140  18.667  12.977
80143W        W39239  34.599   4.206  12.057
80144W        W39240  38.390  22.214  11.001
80145W        W39241  11.255  43.361   0.898
80146W        W39242  12.647  19.609   4.831
80147W        W39243   5.717  43.967  11.928
80148W        W39244  41.793  20.097  11.052
80149W        W39245  17.771  28.548   3.378
80150W        W39246  29.626  20.715   9.980
80151W        W39247   1.898  34.577  14.942
80152W        W39248  35.408  42.350  13.946
80153W        W39249  24.563  23.552   0.817
80154W        W39250  38.424  31.434   1.849
80155W        W39251  13.234  38.439   4.306
80156W        W39252  18.066  33.614  11.921
80157W        W39253   9.748  20.646   3.785
80158W        W39254   2.821   9.231   0.815
80159W        W39255  44.938  38.833  11.965
80160W        W39256  28.454  39.029   0.933
80161W        W39257  15.152  42.500  13.501
80162W        W39258  27.472  34.081  14.938
80163W        W39259  24.083   9.796  12.410
80164W        W39260  44.893  28.051   3.371
80165W        W39261  19.166  20.613  10.507
80166W        W39262  11.245  16.109  11.007
80167W        W39263  33.907  40.833   2.767
80168W        W39264   8.680  13.685   4.206
80169W        W39265  39.519  42.000   0.300
80170W        W39266  23.108  39.947  14.362
80171W        W39267  23.715   2.469   2.210
80172W        W39268  33.011   9.243  11.601
80173W        W39269  41.824  35.878  13.451
80174W        W39270  28.941  19.732  11.419
80175W        W39271  10.845  20.171  14.366
80176W        W39272   0.956   2.809  14.483
80177W        W39273  11.647  13.126   3.663
80178W        W39274  31.443   0.426  10.433
80179W        W39275  15.092  17.722   1.860
80180W        W39276  42.935  44.463   3.309
80181W        W39277  42.499  13.262  14.811
80182W        W39278  23.546  21.084  11.470
80183W        W39279  31.046  17.741  10.619
80184W        W39280  13.241  11.311   3.838
80185W        W39281  44.795  21.183   3.233
80186W        W39282  40.813  36.969  11.967
80187W        W39283   3.434  29.543  13.439
80188W        W39284  24.564   0.494   1.830
80189W        W39285  42.367  44.007  11.948
80190W        W39286  39.359   6.182  14.021
80191W        W39287  16.614  14.706   1.285
80192W        W39288  33.397  30.910   1.294
80193W        W39289  23.071   2.884   4.241
80194W        W39290  22.109  28.998  14.479
80195W        W39291  29.142  36.907  11.536
80196W        W39292  35.408  11.671   4.724
80197W        W39293   7.256  38.850   4.197
80198W        W39294   1.480  10.322   2.695
80199W        W39295  42.920  37.880  10.631
80200W        W39296  44.414  30.520  12.507
80201W        W39297  20.589  36.096   5.245
80202W        W39298  18.618  34.533   3.379
80203W        W39299  15.694  19.219   0.361
80204W        W39300  40.549   6.317   3.647
80205W        W39301  19.126   5.404   2.849
80206W        W39302  30.998   7.295  11.521
80207W        W39303  13.239   9.752   3.770
80208W        W39304  38.923   8.159  13.802
80209W        W39305  30.925  22.537  13.801
80210W        W39306  27.050  40.313   9.996
80211W        W39307   1.273  18.134   0.421
80212W        W39308   9.647   2.805  12.353
80213W        W39309  30.425  23.023  13.856
80214W        W39310  25.000  14.746   0.813
80215W        W39311  29.028  15.321  12.449
80216W        W39312  18.096  33.904   2.294
80217W        W39313  37.538  37.518  10.025
80218W        W39314   3.289  37.536  10.916
80219W        W39315  35.435  16.810   1.839
80220W        W39316   6.205  23.006   0.257
80221W        W39317   9.799   0.365   4.701
80222W        W39318   9.175   5.381   2.887
80223W        W39319   2.226  26.618   1.895
80224W        W39320   4.725  40.340   0.290
80225W        W39321   2.384   8.759  14.791
80226W        W39322  33.124  29.604  10.463
80227W        W39323  34.403   3.377   2.712
80228W        W39324  27.575  35.965   1.318
80229W        W39325   0.860  19.130  11.479
80230W        W39326  29.547  41.409  11.440
80231W        W39327  23.722   7.757  14.515
80232W        W39328   0.864   8.356   0.271
80233W        W39329  35.976  36.410  14.362
80234W        W39330  36.570  16.283  13.914
80235W        W39331   3.774  29.530   0.863
80236W        W39332  29.073  44.410   3.851
80237W        W39333  24.521  23.218  10.558
80238W        W39334   1.461  17.801   0.442
80239W        W39335  23.632  32.074   1.857
80240W        W39336  36.359  21.213   5.081
80241W        W39337  18.208   9.203  11.438
80242W        W39338  26.131  12.777  10.972
80243W        W39339   7.376  28.436   0.403
80244W        W39340  31.152  19.039   3.672
80245W        W39341  23.665  31.150   3.654
80246W        W39342  32.003  42.388   0.870
80247W        W39343  43.918  14.197   0.960
80248W        W39344  12.636   3.950  11.609
80249W        W39345  23.674   4.888  10.437
80250W        W39346  17.753  27.562  12.073
80251W        W39347  44.943  11.153   2.353
80252W        W39348  30.938  30.007   1.338
80253W        W39349  12.713  12.138   2.869
80254W        W39350  11.642  10.153   2.766
80255W        W39351  11.760  36.083   1.212
80256W        W39352  41.835   1.888  11.611
80257W        W39353   3.247  29.931  13.512
80258W        W39354  21.658  41.990   3.214
80259W        W39355  30.452  24.100   5.176
80260W        W39356  39.466  42.962  14.808
80261W        W39357  25.031   4.390  13.015
80262W        W39358  25.648  34.079  10.917
80263W        W39359  29.609  30.081  13.364
80264W        W39360  24.489  34.099   0.471
80265W        W39361   2.902  44.756  13.356
80266W        W39362  40.511  27.561  14.798
80267W        W39363  18.188  13.279   1.922
80268W        W39364  30.433  25.555   4.123
80269W        W39365  21.580  27.453   1.929
80270W        W39366   0.901  16.295   0.799
80271W        W39367  42.983  17.623   1.318
80272W        W39368  42.823  44.476   4.293
80273W        W39369   1.241  27.534   0.375
80274W        W39370  24.492   3.930  14.298
80275W        W39371   9.720  25.969   2.723
80276W        W39372  39.439  15.784   0.905
80277W        W39373  41.403  13.310  12.017
80278W        W39374  32.912  29.955   2.386
80279W        W39375  33.019  36.390   1.871
80280W        W39376  19.125  24.195   1.445
80281W        W39377  13.628  25.200   3.265
80282W        W39378   1.338   0.470   4.247
80283W        W39379  25.039  32.106  12.551
80284W        W39380   8.878   4.276  12.494
80285W        W39381  20.037   3.238  11.980
80286W        W39382  22.199  35.377  11.106
80287W        W39383   7.385   3.857  14.970
80288W        W39384  18.265  18.596  13.927
80289W        W39385  18.058  39.318   2.212
80290W        W39386   9.812   5.897   4.802
80291W        W39387  12.155  22.559  11.106
80292W        W39388  17.203   1.336  12.970
80293W        W39389  37.086  30.060  11.868
80294W        W39390   0.862  20.645  10.978
80295W        W39391   4.893  37.944   0.358
80296W        W39392  31.952  13.281   2.762
80297W        W39393  33.047  15.266   3.366
80298W        W39394  32.482  14.137   3.785
80299W        W39395  29.061  18.754  11.528
80300W        W39396  23.561  37.855   4.709
80301W        W39397   4.891   7.405  12.954
80302W        W39398  42.024  31.090   3.635
80303W        W39399  15.238  11.854   3.344
80304W        W39400  10.380   3.852   0.873
80305W        W39401  12.218  13.828   0.907
80306W        W39402   7.259   1.364   1.763
80307W        W39403   0.404   7.690  11.075
80308W        W39404  16.210  26.473  10.938
80309W        W39405  15.120  40.979   3.724
80310W        W39406  15.721   3.775  11.911
80311W        W39407   4.815   8.178   1.397
80312W        W39408  25.584  16.593  13.042
80313W        W39409  22.167  23.161   1.299
80314W        W39410  44.893   7.416  13.907
80315W        W39411  44.497   5.905  12.875
80316W        W39412  32.946  15.806   3.295
80317W        W39413  37.078  42.292   3.644
80318W        W39414  30.575  11.836   2.683
80319W        W39415  20.116  16.149   3.733
80320W        W39416  17.113  35.579   9.468
80321W        W39417  38.470  34.404  11.407
80322W        W39418   4.762  32.974   3.731
80323W        W39419  44.999  17.625  14.024
80324W        W39420  32.983  13.143  12.017
80325W        W39421   5.200  21.694   2.776
80326W        W39422  14.661  32.470   4.171
80327W        W39423  43.852  34.007   3.346
80328W        W39424  18.141   4.359  13.547
80329W        W39425  26.044   2.301  11.572
80330W        W39426  10.710  37.917  11.063
80331W        W39427  18.098  11.128   3.805
80332W        W39428   0.408  10.668  10.619
80333W        W39429   8.665  36.381   2.760
80334W        W39430  32.892  13.626   2.898
80335W        W39431  29.577  38.392   5.196
80336W        W39432  41.360  15.747  12.963
80337W        W39433  14.287   3.886   4.276
80338W        W39434   2.449  30.494   1.702
80339W        W39435  39.373   6.711  11.523
80340W        W39436   5.221  32.015  11.556
80341W        W39437  12.241  40.047  13.541
80342W        W39438   8.696  27.120   2.776
80343W        W39439  18.224  38.443  14.281
80344W        W39440  41.031   7.230  13.322
80345W        W39441  21.248  18.058   4.765
80346W        W39442  16.608  27.116   4.833
80347W        W39443  11.838  19.591   0.326
80348W        W39444  26.668  41.356  14.458
80349W        W39445  19.174  27.537   3.791
80350W        W39446  26.189  27.113  10.462
80351W        W39447  31.513   0.889  14.318
80352W        W39448  10.678  37.906   2.369
80353W        W39449  11.262  36.567   2.668
80354W        W39450   8.759  28.590  12.869
80355W        W39451  38.511  35.978  14.484
80356W        W39452  22.512  26.490   0.393
80357W        W39453  26.118  39.397  12.036
80358W        W39454  11.210  24.136  11.057
80359W        W39455  14.181   0.462  10.595
80360W        W39456  33.591  39.405  12.368
80361W        W39457   1.260  14.300   0.462
80362W        W39458   3.302  12.360  10.641
80363W        W39459  37.497   9.218  11.432
80364W        W39460  11.167   7.371   3.378
80365W        W39461  14.184  29.425   0.728
80366W        W39462  16.129  34.056   4.287
80367W        W39463  14.669   8.691   1.871
80368W        W39464  20.227  38.032   3.148
80369W        W39465  26.101   9.766   2.326
80370W        W39466   5.812  18.150   0.351
80371W        W39467   7.763   7.790  11.502
80372W        W39468  28.076  44.484  10.002
80373W        W39469   7.852  12.291  13.860
80374W        W39470  43.360  39.338  12.968
80375W        W39471   7.173  42.291   4.679
80376W        W39472  41.912   4.349   4.680
80377W        W39473  21.524   6.867  13.034
80378W        W39474  39.034  32.601  12.543
80379W        W39475  20.052  42.911   0.932
80380W        W39476  39.541   1.266   2.894
80381W        W39477  38.517   9.854   3.375
80382W        W39478   3.798  12.822  14.839
80383W        W39479  33.472  39.887  10.933
80384W        W39480  28.106  14.626   4.710
80385W        W39481  26.972  33.606   4.827
80386W        W39482  10.699  18.790  14.908
80387W        W39483  34.873   8.216   3.256
80388W        W39484  36.972   3.907   2.353
80389W        W39485   8.735  33.038  13.410
80390W        W39486  35.108  20.131  14.287
80391W        W39487  32.481  39.459   3.232
80392W        W39488  33.446  23.126   4.612
80393W        W39489   8.230  10.765  11.424
80394W        W39490  15.139  17.245  13.996
80395W        W39491  11.214  33.071  12.065
80396W        W39492  31.967  37.425  14.863
80397W        W39493  30.622   9.756  14.483
80398W        W39494  40.473  30.994  10.918
80399W        W39495  13.622   9.212   4.200
80400W        W39496  21.195   8.383   1.436
80401W        W39497  33.103  14.702   4.719
80402W        W39498  36.530  40.030  10.600
80403W        W39499  19.554  16.081   0.472
80404W        W39500   8.189  34.957   0.444
80405W        W39501  44.965  33.515   4.309
80406W        W39502  14.835   7.411  11.991
80407W        W39503  43.923  12.815   0.886
80408W        W39504  16.244  31.080   9.473
80409W        W39505  14.707   7.718   3.164
80410W        W39506  44.333  36.953  14.927
80411W        W39507  14.262   9.791  10.491
80412W        W39508  40.840  34.899   1.231
80413W        W39509  14.212   9.751   2.680
80414W        W39510   6.784  31.605  13.449
80415W        W39511  18.727  42.321  14.467
80416W        W39512   6.326  31.151  13.923
80417W        W39513   6.883   0.248   3.635
80418W        W39514  31.151  32.140  12.896
80419W        W39515  18.097   0.753  13.389
80420W        W39516   0.445   2.326  11.587
80421W        W39517   3.753  25.030   3.650
80422W        W39518  33.115  22.577   0.730
80423W        W39519   9.160  16.223   1.426
80424W        W39520  25.136  31.632   2.861
80425W        W39521   4.834  39.551   2.179
80426W        W39522   8.770  40.802  13.389
80427W        W39523  14.788  27.190  14.976
80428W        W39524  14.807  42.992   1.830
80429W        W39525  38.548  36.508   4.762
80430W        W39526  10.159   2.907   0.375
80431W        W39527  16.216  25.497  13.056
80432W        W39528  41.328  42.954  13.898
80433W        W39529  35.432  12.621  10.964
80434W        W39530  38.030  10.736  10.468
80435W        W39531  14.264  44.436  13.491
80436W        W39532   6.205   0.289  14.027
80437W        W39533  40.852   1.439  14.923
80438W        W39534  25.616  33.560   3.805
80439W        W39535  28.975  14.166   2.828
80440W        W39536  41.510   8.734   1.860
80441W        W39537  18.765   2.947   4.231
80442W        W39538  41.445  30.953  10.527
80443W        W39539  31.486  11.190   3.640
80444W        W39540  17.789  35.578   3.242
80445W        W39541  34.407   2.771  13.515
80446W        W39542   2.768  28.482   3.759
80447W        W39543   6.817   0.387   0.272
80448W        W39544  28.071  27.983  10.561
80449W        W39545  10.774  31.134  14.780
80450W        W39546  24.997  22.688  10.110
80451W        W39547  28.989  16.142   1.716
80452W        W39548   5.768  29.074   5.231
80453W        W39549   2.380   2.333  11.563
80454W        W39550  18.260  20.147  12.926
80455W        W39551  30.505  27.968   0.421
80456W        W39552   9.867  18.228   0.842
80457W        W39553  13.842  26.978  10.485
80458W        W39554  36.936  33.412   2.884
80459W        W39555   9.663  27.524  13.996
80460W        W39556  35.474  41.863   2.884
80461W        W39557  34.533  33.110   3.302
80462W        W39558   0.896  25.152   0.455
80463W        W39559  13.164  42.791  11.375
80464W        W39560  10.383  23.046  11.051
80465W        W39561  18.183  39.471  11.116
80466W        W39562  39.957  15.762   4.197
80467W        W39563  23.043  33.621   9.969
80468W        W39564  41.397  28.950  14.415
80469W        W39565   2.776   5.917  10.983
80470W        W39566  44.401  29.099  12.957
80471W        W39567  32.918   0.855  13.510
80472W        W39568  41.295   7.232   4.788
80473W        W39569   6.419  11.847  14.765
80474W        W39570   5.894  25.969   1.930
80475W        W39571   5.426  25.550   3.338
80476W        W39572  30.601  39.918  13.033
80477W        W39573  38.924   1.842  11.999
80478W        W39574  17.210  38.412  13.001
80479W        W39575  27.974   2.857   1.433
80480W        W39576  14.270   7.676  10.569
80481W        W39577  40.919  33.569   3.743
80482W        W39578  27.945  10.358  14.962
80483W        W39579  35.912  21.130  14.004
80484W        W39580  30.121  11.756  14.312
80485W        W39581  26.640  37.448   1.857
80486W        W39582  38.364   2.365   0.331
80487W        W39583  24.601  22.169  11.564
80488W        W39584   1.440   2.335  14.975
80489W        W39585  11.335  13.824  10.005
80490W        W39586  44.354   5.265   4.184
80491W        W39587   0.272  43.288   3.352
80492W        W39588   2.414  37.085  12.366
80493W        W39589  41.854  30.528  10.948
80494W        W39590  40.431  16.810   1.732
80495W        W39591  13.830  28.113  14.883
80496W        W39592  42.492   5.860  14.358
80497W        W39593  15.795  11.262   4.649
80498W        W39594  24.112  34.925   9.925
80499W        W39595  24.029  12.146  12.398
80500W        W39596  16.779  14.706   0.363
80501W        W39597   0.418  18.082   4.826
80502W        W39598   7.335  22.022   1.755
80503W        W39599  25.627  24.563   1.356
80504W        W39600  28.672  16.224   2.854
80505W        W39601  33.077   8.863  12.971
80506W        W39602   0.254  22.671   2.835
80507W        W39603  44.398  41.532  11.588
80508W        W39604   6.239  31.904   3.346
80509W        W39605   0.459  16.271   0.950
80510W        W39606  37.951  38.368   4.275
80511W        W39607   8.673  13.109  13.354
80512W        W39608  37.363   8.178  13.841
80513W        W39609  33.574  38.403   4.300
80514W        W39610  20.070  29.556   3.687
80515W        W39611  15.757  17.787   4.695
80516W        W39612  41.412  26.013   1.231
80517W        W39613  12.257  28.541   3.863
80518W        W39614  19.644  39.373  14.921
80519W        W39615  28.507  10.753  14.912
80520W        W39616  38.922  40.886  12.886
80521W        W39617  22.070  35.491  12.824
80522W        W39618  39.835   1.482  10.572
80523W        W39619  10.636  34.454   0.342
80524W        W39620   1.287  20.056   3.748
80525W        W39621  13.829  35.390  11.062
80526W        W39622  17.124  20.268  13.320
80527W        W39623  10.220  35.960   0.947
80528W        W39624  20.624  12.784   4.702
80529W        W39625  14.759  20.206  13.818
80530W        W39626  42.835  40.534   3.831
80531W        W39627  13.602  19.611  11.945
80532W        W39628  17.235   0.258   2.718
80533W        W39629   3.809  13.208   4.208
80534W        W39630  43.987  40.969   3.738
80535W        W39631   2.920   3.816   4.732
80536W        W39632  27.557  10.865   1.927
80537W        W39633  18.099  28.003   3.822
80538W        W39634  31.515  19.177   0.242
80539W        W39635  41.944   4.754  12.541
80540W        W39636  27.110  32.909   2.198
80541W        W39637  10.852  23.667   4.257
80542W        W39638  44.498  28.028  12.945
80543W        W39639  24.138  18.730  12.425
80544W        W39640  31.041   5.928  10.949
80545W        W39641  30.158  13.105  14.772
80546W        W39642  36.093  44.782   1.413
80547W        W39643   7.758  14.275  11.531
80548W        W39644  27.510  11.327  10.534
80549W        W39645   2.379  36.863   4.699
80550W        W39646  43.887   9.733   0.476
80551W        W39647  44.281   1.915   3.693
80552W        W39648  38.446  29.445  13.823
80553W        W39649  19.691   4.803   3.149
80554W        W39650  22.175  37.946   1.389
80555W        W39651  41.966  14.293  10.408
80556W        W39652  33.969   8.262   0.953
80557W        W39653   5.753  21.185   1.873
80558W        W39654  11.862  10.792   1.911
80559W        W39655  39.475   5.718   1.829
80560W        W39656   2.363  34.595  11.418
80561W        W39657  31.917   0.317   3.734
80562W        W39658  25.021  39.356  14.797
80563W        W39659   2.401  44.883  11.500
80564W        W39660  35.452   9.233  10.912
80565W        W39661  38.998  41.021   3.379
80566W        W39662  22.081  33.390   2.404
80567W        W39663  42.996  36.937  13.987
80568W        W39664  23.048  33.955   0.852
80569W        W39665  42.374   5.697   2.793
80570W        W39666  10.668  34.100   2.337
80571W        W39667  21.738  34.448  11.032
80572W        W39668   3.235  40.423  11.411
80573W        W39669  12.261  44.913   1.890
80574W        W39670  29.636  28.082  12.550
80575W        W39671  28.929  13.713   2.247
80576W        W39672   2.890  40.047  14.485
80577W        W39673  33.042  22.077   2.267
80578W        W39674  16.303  33.521  12.352
80579W        W39675  33.879  11.806  11.055
80580W        W39676  21.049  22.174   1.752
80581W        W39677  28.463  11.737  10.486
80582W        W39678   2.850  20.528  12.951
80583W        W39679  34.486  21.245   4.272
80584W        W39680   1.379  27.597  12.339
80585W        W39681   3.874  23.207   0.417
80586W        W39682  24.700  30.973   3.360
80587W        W39683  25.620  42.377   4.833
80588W        W39684  37.389  38.352   1.710
80589W        W39685  19.184   3.245  14.791
80590W        W39686   0.782  16.131  12.864
80591W        W39687   0.761  29.141  10.516
80592W        W39688  29.521  16.634  13.056
80593W        W39689   1.917  32.082  11.096
80594W        W39690  35.070  32.933   4.324
80595W        W39691  24.676  15.729  11.393
80596W        W39692  31.916   5.424   1.237
80597W        W39693  28.665  14.201   0.770
80598W        W39694  13.715  18.728  14.879
80599W        W39695  23.600   6.910   4.713
80600W        W39696  31.440  26.036   3.166
80601W        W39697  27.949   1.314  12.849
80602W        W39698  16.568  19.738   1.412
80603W        W39699  30.971   5.421  13.436
80604W        W39700  33.600  24.638   2.313
80605W        W39701  14.644  40.466   1.379
80606W        W39702  15.095   4.338   3.268
80607W        W39703  11.235  40.808   1.792
80608W        W39704  24.687  23.040  13.984
80609W        W39705  44.949  19.707  14.469
80610W        W39706  39.894  38.019   3.293
80611W        W39707  37.920  19.230   3.196
80612W        W39708  41.039  37.850  11.436
80613W        W39709  28.051   0.450   2.841
80614W        W39710  20.060   9.791  13.343
80615W        W39711  35.945  38.400   3.790
80616W        W39712  31.024  23.087  14.970
80617W        W39713  21.034  27.499  14.292
80618W        W39714  36.065  15.111  10.889
80619W        W39715   2.870  40.317   3.248
80620W        W39716  29.112  36.358  11.985
80621W        W39717  24.549  29.141   1.349
80622W        W39718  29.969  35.986  13.839
80623W        W39719  26.609  35.398   3.863
80624W        W39720  15.820  16.208   2.817
80625W        W39721   8.263  29.049  13.063
80626W        W39722  24.211  37.463  13.819
80627W        W39723  28.499  33.564  14.837
80628W        W39724  25.102  16.774   4.121
80629W        W39725   1.763  26.638  13.819
80630W        W39726   9.373   8.715   1.816
80631W        W39727  38.413  27.531  13.971
80632W        W39728   2.808  20.051   1.224
80633W        W39729   1.348  30.915  14.814
80634W        W39730  12.292  41.454   4.353
80635W        W39731  27.576  36.436   1.793
80636W        W39732  24.698  28.455  11.422
80637W        W39733  42.290  12.199  12.381
80638W        W39734  26.972  38.064   1.770
80639W        W39735  12.819  19.716  14.824
80640W        W39736  17.127   3.347   5.146
80641W        W39737  26.616  25.207   1.438
80642W        W39738  13.811   3.246   4.644
80643W        W39739   3.240  16.251  12.996
80644W        W39740  29.538  30.977  14.766
80645W        W39741  19.741  22.508  11.023
80646W        W39742  31.646  18.151   3.747
80647W        W39743   8.781  44.381  12.970
80648W        W39744  28.660   8.848  12.425
80649W        W39745  39.356  20.618   4.807
80650W        W39746  29.486  35.495  13.408
80651W        W39747   7.835  16.751   2.244
80652W        W39748  26.972   1.796   2.261
80653W        W39749  44.004  41.039  11.471
80654W        W39750   5.217  24.716  14.297
80655W        W39751  43.399  43.324   0.877
80656W        W39752  38.384  39.833  13.402
80657W        W39753  34.963   2.812  14.297
80658W        W39754  18.692   4.401  14.806
80659W        W39755  14.654  25.130  10.605
80660W        W39756  33.099   4.804   0.885
80661W        W39757  27.069   6.328   2.662
80662W        W39758  27.029  32.132  10.412
80663W        W39759  19.775  27.114  12.062
80664W        W39760   7.895  25.504  11.472
80665W        W39761  25.108   6.799  12.563
80666W        W39762   4.379  24.601   9.472
80667W        W39763  17.568  34.535  10.526
80668W        W39764   7.395  34.510  12.357
80669W        W39765   3.795  15.617   0.470
80670W        W39766  25.711  16.155   4.274
80671W        W39767  43.769  27.108   2.404
80672W        W39768  23.988  19.764  14.763
80673W        W39769   7.400   5.321   4.142
80674W        W39770   2.857  31.553   3.317
80675W        W39771  23.119   3.754   4.633
80676W        W39772  15.717   8.731  10.996
80677W        W39773  15.314   4.263  12.042
80678W        W39774  34.032  17.198  13.312
80679W        W39775  43.924  32.600   1.417
80680W        W39776  15.787  22.687   2.890
80681W        W39777   8.269  14.681   4.166
80682W        W39778  10.807  23.014  14.780
80683W        W39779  14.337  25.550   0.773
80684W        W39780  41.894  23.047  11.965
80685W        W39781  10.636  29.574  13.926
80686W        W39782  41.424  26.139   3.155
80687W        W39783   3.317  17.108  14.500
80688W        W39784  32.136  16.158   0.406
80689W        W39785  20.647  34.902  13.846
80690W        W39786  40.306  33.953  12.452
80691W        W39787  39.877   6.680   4.693
80692W        W39788  41.849   2.947  14.798
80693W        W39789  44.763  26.138  12.435
80694W        W39790  16.231   2.951   0.867
80695W        W39791   8.856  22.065   3.228
80696W        W39792  17.562  37.474   0.451
80697W        W39793  21.686   0.960  10.015
80698W        W39794  42.378  40.985   3.800
80699W        W39795  34.382  39.983  14.969
80700W        W39796  14.321   8.230   1.784
80701W        W39797  19.066  30.609  11.538
80702W        W39798   7.754  35.892  10.444
80703W        W39799  35.908  20.108  12.008
80704W        W39800  13.773  14.722   1.301
80705W        W39801  29.443  12.283  12.439
80706W        W39802  24.588   1.913  10.632
80707W        W39803  27.613  42.989   1.729
80708W        W39804  17.274  19.710  10.407
80709W        W39805  43.348  38.407  10.930
80710W        W39806  25.188  15.098   3.210
80711W        W39807  20.249  26.203  13.451
80712W        W39808   1.268   9.786  13.395
80713W        W39809  44.804  33.116   4.296
80714W        W39810  13.273  37.400  11.530
80715W        W39811  34.899  23.567   9.611
80716W        W39812   4.204  30.469  10.956
80717W        W39813  36.500  21.018   0.771
80718W        W39814  24.002  25.593   1.826
80719W        W39815  43.996  21.228  12.915
80720W        W39816   4.346  21.521   4.782
80721W        W39817  10.662   9.721  11.932
80722W        W39818   6.847  31.013  13.889
80723W        W39819   8.753  11.764  12.375
80724W        W39820  21.228  12.179   2.768
80725W        W39821  18.607  42.468  11.374
80726W        W39822  29.653   2.424  10.622
80727W        W39823   9.658   7.257  10.539
80728W        W39824   7.815  26.978  13.794
80729W        W39825  34.094  17.557   4.139
80730W        W39826  20.139  17.681   0.857
80731W        W39827   0.981   7.698  13.500
80732W        W39828   0.396  12.776  13.534
80733W        W39829  34.938  23.565   2.338
80734W        W39830  18.628  18.066  11.540
80735W        W39831   5.856  31.588  14.028
80736W        W39832  28.666  29.643   0.826
80737W        W39833  15.278  25.142   3.851
80738W        W39834   3.890   6.828  11.396
80739W        W39835  30.915  15.623  10.490
80740W        W39836  40.445   2.844  12.917
80741W        W39837   6.811   6.789   2.741
80742W        W39838  10.692  11.636   4.835
80743W        W39839  24.111   5.352   3.346
80744W        W39840  42.877   4.759  12.408
80745W        W39841  21.067  40.808   0.327
80746W        W39842  24.500  25.485  13.451
80747W        W39843   5.734   1.289   0.323
80748W        W39844  24.528   6.253  14.989
80749W        W39845  33.912  11.790   3.314
80750W        W39846  32.566   3.255  11.562
80751W        W39847  34.912  33.535  14.977
80752W        W39848  14.294   0.753   2.408
80753W        W39849  34.029  28.114   0.952
80754W        W39850   7.781  16.643  12.883
80755W        W39851  10.782  42.925   2.225
80756W        W39852  21.586  38.337  12.383
80757W        W39853  42.843  23.530  13.001
80758W        W39854  21.586   5.697  13.390
80759W        W39855  11.856  23.539  11.591
80760W        W39856  32.518  20.196  13.820
80761W        W39857  14.301  16.103  11.593
80762W        W39858  32.494  35.043  12.046
80763W        W39859  32.106  20.556   1.258
80764W        W39860  13.618  31.471   0.391
80765W        W39861   8.705  36.041   2.200
80766W        W39862  24.609  11.303   4.251
80767W        W39863  35.531   3.797   1.240
80768W        W39864   8.209  18.783   3.828
80769W        W39865  25.516  18.296   4.736
80770W        W39866  23.003  23.992   4.773
80771W        W39867   0.918  12.142  11.402
80772W        W39868  35.007  34.518  14.483
80773W        W39869  44.777  37.378   3.840
80774W        W39870  34.013  23.219   2.301
80775W        W39871   2.422   5.273  13.892
80776W        W39872   1.882   6.340   3.826
80777W        W39873  21.097   3.373  13.794
80778W        W39874  15.666  17.786   1.793
80779W        W39875  21.146  24.142  12.845
80780W        W39876  40.999  29.427   1.841
80781W        W39877  23.603   4.225   1.336
80782W        W39878  28.014  20.582  13.964
80783W        W39879  30.594  11.148   1.218
80784W        W39880   3.404  27.067  12.419
80785W        W39881  39.031  15.641  13.470
80786W        W39882  38.388  25.657   4.258
80787W        W39883  10.719   1.341   0.374
80788W        W39884  35.853  44.852   0.352
80789W        W39885  19.609   3.223  12.565
80790W        W39886  24.616  33.118   1.789
80791W        W39887  10.365  44.868   1.255
80792W        W39888  34.493  43.281   4.317
80793W        W39889   3.758  36.554  12.825
80794W        W39890  22.665  37.336   5.112
80795W        W39891  20.734  23.544  13.346
80796W        W39892  17.206  28.501  12.344
80797W        W39893  34.581  16.692  14.321
80798W        W39894  41.886  38.474   2.785
80799W        W39895  43.789   8.880   3.690
80800W        W39896  36.988  41.302  10.636
80801W        W39897  37.479  32.618  13.903
80802W        W39898  12.183  25.606   1.880
80803W        W39899  18.724  28.971   3.772
80804W        W39900  14.245  39.319  13.006
80805W        W39901   2.774  27.181  13.482
80806W        W39902  34.038  17.204   2.742
80807W        W39903  18.682  43.963   1.754
80808W        W39904   3.909   1.297   4.257
80809W        W39905  17.149  10.352   5.122
80810W        W39906  26.030  34.119   3.288
80811W        W39907  22.638  42.323  14.419
80812W        W39908  22.535  40.983  13.994
80813W        W39909  33.025  31.610   2.271
80814W        W39910  21.066  36.558   3.653
80815W        W39911  40.455  33.533   1.755
80816W        W39912   7.859  36.071   3.751
80817W        W39913  23.684  18.764   2.258
80818W        W39914  41.855   1.295  14.486
80819W        W39915  31.506  35.461  11.878
80820W        W39916  27.531   9.713  12.403
80821W        W39917  18.186  20.538  11.052
80822W        W39918   9.172  22.158  13.036
80823W        W39919  32.028  13.141   3.303
80824W        W39920  20.242   2.800  11.607
80825W        W39921  14.740  15.322  13.063
80826W        W39922  41.932   5.361  11.400
80827W        W39923  41.406  21.686  11.910
80828W        W39924   4.874  21.651   0.285
80829W        W39925  17.215  42.517   3.282
80830W        W39926  22.541  22.154   2.213
80831W        W39927  24.179  34.905   4.802
80832W        W39928  15.742  11.771  13.975
80833W        W39929   1.379  25.201   3.325
80834W        W39930  15.267  16.193   1.429
80835W        W39931  26.077   4.438  12.485
80836W        W39932  14.655   2.472   1.828
80837W        W39933   3.712  16.175  14.295
80838W        W39934  38.513  18.061   3.826
80839W        W39935  24.096  41.489   2.868
80840W        W39936  42.965  13.803  12.022
80841W        W39937  22.057  12.840  13.477
80842W        W39938   0.759  13.312  12.484
80843W        W39939   1.250  18.707   3.258
80844W        W39940  12.255  32.008   2.183
80845W        W39941   5.249  16.081  11.881
80846W        W39942  20.052   9.864  14.349
80847W        W39943   4.433  41.441  11.507
80848W        W39944  41.306  10.174   1.888
80849W        W39945  36.360  43.845  14.370
80850W        W39946  37.911  26.462  14.391
80851W        W39947  11.676  35.587  13.342
80852W        W39948   0.884  22.222   4.211
80853W        W39949  37.926  42.385  14.443
80854W        W39950   6.682  30.163  11.910
80855W        W39951  26.961  24.217  10.937
80856W        W39952  27.125  31.027   0.915
80857W        W39953  12.125  27.535   2.819
80858W        W39954  10.279  10.304  14.504
80859W        W39955  12.659  21.553   4.768
80860W        W39956   6.732  30.965  13.397
80861W        W39957   3.259  12.153  10.890
80862W        W39958  31.622  43.488  14.379
80863W        W39959  15.111  22.105   4.239
80864W        W39960  20.613  10.300   2.802
80865W        W39961   5.832   2.382  12.466
80866W        W39962   2.251  35.973  13.379
80867W        W39963  44.322  38.570  14.782
80868W        W39964  43.416  24.720   3.665
80869W        W39965  13.641  44.503  11.493
80870W        W39966  13.194   6.808  14.279
80871W        W39967   9.237   1.393  12.895
80872W        W39968  32.970  40.909   0.380
80873W        W39969  42.320  25.976   4.181
80874W        W39970  14.705  30.512   9.983
80875W        W39971   9.381  20.152  11.380
80876W        W39972  34.895  27.484  12.933
80877W        W39973   9.379  44.956   0.428
80878W        W39974   5.348  36.432  12.941
80879W        W39975   1.373  20.744  11.044
80880W        W39976  16.158  21.191  14.863
80881W        W39977  12.812  38.337  12.997
80882W        W39978  19.077  28.441   1.244
80883W        W39979  17.192  26.117  11.881
80884W        W39980   5.417  33.129  14.283
80885W        W39981   3.946  35.385  11.985
80886W        W39982  14.111  36.460  10.129
80887W        W39983  14.808  20.711   1.262
80888W        W39984  20.699   7.832  10.982
80889W        W39985  18.155   0.483   2.235
80890W        W39986  30.139  31.046   2.773
80891W        W39987  44.483  32.990  12.357
80892W        W39988  36.382  42.980  10.038
80893W        W39989  43.344   8.403   4.769
80894W        W39990  18.583  40.830   4.770
80895W        W39991   9.311  26.537  12.407
80896W        W39992  22.680  43.473   3.166
80897W        W39993  36.843  26.064  11.392
80898W        W39994  31.007  16.722  12.394
80899W        W39995  15.263  34.394   4.769
80900W        W39996  20.074  18.193  12.964
80901W        W39997  17.212  30.417   3.861
80902W        W39998  32.026   5.878  13.403
80903W        W39999  12.294  12.207   0.418
80904W        W40000   8.784  10.738  13.906
80905W        W40001  38.988  25.040  10.489
80906W        W40002  39.895   9.855  10.058
80907W        W40003   3.848  29.987   1.215
80908W        W40004  25.095  40.390   4.345
80909W        W40005  10.785  36.998  12.073
80910W        W40006  29.111  31.453  13.962
80911W        W40007  21.172  10.334   2.713
80912W        W40008  13.638  18.076   0.422
80913W        W40009  20.760   8.893   0.264
80914W        W40010  37.850  31.128  13.401
80915W        W40011  35.941  13.642  12.954
80916W        W40012  42.449  23.558  14.905
80917W        W40013  38.481   1.406   0.289
80918W        W40014  28.950  25.494  11.074
80919W        W40015  41.369  11.773  14.008
80920W        W40016  21.641  24.492   3.191
80921W        W40017   3.388  42.962   3.216
80922W        W40018  27.031  16.736  14.850
80923W        W40019  14.109   4.311   2.227
80924W        W40020  41.043   4.373   3.738
80925W        W40021  30.030  43.787  13.792
80926W        W40022  26.962  37.368  11.430
80927W        W40023  36.506  19.270   1.267
80928W        W40024  30.155  10.641  13.977
80929W        W40025  34.452  16.746   0.411
80930W        W40026   3.888  21.756   0.909
80931W        W40027  40.952  13.219  14.883
80932W        W40028  33.086  20.171   3.255
80933W        W40029  40.316   4.265   4.795
80934W        W40030  12.272  24.563   0.413
80935W        W40031  40.999  34.486   3.362
80936W        W40032  17.667  35.953   9.967
80937W        W40033  22.701  35.002   2.868
80938W        W40034   6.352  29.570   3.830
80939W        W40035  39.963  37.910  13.848
80940W        W40036  12.185  41.876  13.838
80941W        W40037  37.019  19.166   4.137
80942W        W40038  19.769  17.212   0.864
80943W        W40039  41.312  32.920  14.495
80944W        W40040  40.956  35.366  11.928
80945W        W40041  15.254  31.451  10.913
80946W        W40042  17.075  30.550   3.185
80947W        W40043  20.075  23.504  11.499
80948W        W40044   7.375  37.459   2.895
80949W        W40045  10.191  25.167   1.764
80950W        W40046  32.892  36.561   4.228
80951W        W40047  43.990   7.803   2.903
80952W        W40048  22.069  34.547   2.346
80953W        W40049  36.993  30.053  13.417
80954W        W40050  21.578   5.214   4.702
80955W        W40051  22.028  13.211   3.837
80956W        W40052   6.820  28.549  13.895
80957W        W40053  19.277  24.715   3.729
80958W        W40054   1.271  29.941  13.461
80959W        W40055  35.587  35.428   1.378
80960W        W40056   1.392   3.230   4.665
80961W        W40057  37.422   1.942   2.379
80962W        W40058  28.964  35.499  13.530
80963W        W40059  34.080  16.205   1.355
80964W        W40060  16.147   7.735   3.384
80965W        W40061  36.577  28.985  13.855
80966W        W40062  32.598  28.581  11.927
80967W        W40063  11.814  21.568  14.951
80968W        W40064  22.627  41.885  11.513
80969W        W40065  16.217   7.768  11.451
80970W        W40066  16.133  20.711   3.731
80971W        W40067   4.290   4.369  10.539
80972W        W40068  36.525  31.146   2.410
80973W        W40069  24.707   2.358   3.652
80974W        W40070  16.594   5.825   2.285
80975W        W40071  25.662  22.114   1.303
80976W        W40072  30.977  21.570   2.700
80977W        W40073  27.189  39.962   4.157
80978W        W40074  26.475  38.822  14.434
80979W        W40075  24.674   7.791  13.437
80980W        W40076  43.902  16.585   4.643
80981W        W40077  27.494   6.829  10.510
80982W        W40078  17.109  34.028   3.167
80983W        W40079  13.242  32.906  10.490
80984W        W40080  24.081  11.796   5.228
80985W        W40081  15.247  17.192   0.749
80986W        W40082  28.672   3.283  13.793
80987W        W40083  44.947   5.820   2.665
80988W        W40084  40.342  34.408   1.337
80989W        W40085  28.975  40.801   1.415
80990W        W40086  37.072  15.255   0.854
80991W        W40087  13.607  32.011  13.392
80992W        W40088  40.991   4.402  11.918
80993W        W40089  23.096  40.957   0.799
80994W        W40090  11.295  20.733   5.668
80995W        W40091  25.965   1.366   3.201
80996W        W40092  33.025  26.560   0.771
80997W        W40093  31.959  24.588   1.832
80998W        W40094  32.955  10.805  11.904
80999W        W40095   8.860  10.835  11.868
81000W        W40096  28.514  41.321  12.935
81001W        W40097  36.478  36.412   4.678
81002W        W40098   9.390  23.179  11.483
81003W        W40099  43.489   0.784   4.210
81004W        W40100  17.064  16.789   1.901
81005W        W40101   1.467  26.598   0.960
81006W        W40102  35.447  29.138  12.831
81007W        W40103  12.283  37.869   3.334
81008W        W40104  27.131  19.537   3.719
81009W        W40105  15.694  23.208   3.366
81010W        W40106  36.054  13.240   3.783
81011W        W40107  38.411  18.123  12.842
81012W        W40108  19.122  19.043   4.172
81013W        W40109   9.386  33.493  11.553
81014W        W40110  21.155   7.863   5.159
81015W        W40111   2.348   5.306  14.766
81016W        W40112  25.666  16.656   2.332
81017W        W40113  27.582  33.413   3.702
81018W        W40114   0.370  42.390   3.381
81019W        W40115  33.979  41.332   0.346
81020W        W40116   2.251   4.882  14.776
81021W        W40117  29.076  38.511   2.737
81022W        W40118   6.386   1.798   1.894
81023W        W40119  43.369  12.685   2.291
81024W        W40120   1.389  29.640  12.427
81025W        W40121   5.811  24.150  11.097
81026W        W40122   2.401  13.150  10.580
81027W        W40123  10.837  33.948   2.883
81028W        W40124  18.282  37.887   5.680
81029W        W40125  14.740  10.844  11.109
81030W        W40126  14.283   3.461   0.283
81031W        W40127  37.386   1.845  12.988
81032W        W40128  25.095   0.353   1.880
81033W        W40129   8.199  44.766   2.330
81034W        W40130  11.798   5.747  10.451
81035W        W40131   2.745  30.597  13.799
81036W        W40132  41.897   3.737   3.708
81037W        W40133  28.548  11.282   0.391
81038W        W40134  33.423  29.067  13.980
81039W        W40135  31.055  42.023  12.852
81040W        W40136  12.704  34.543   3.333
81041W        W40137  44.934   4.737  11.528
81042W        W40138  40.491   2.818  13.403
81043W        W40139  28.658  41.473  12.006
81044W        W40140  40.976   1.274   0.827
81045W        W40141  30.432  12.273  11.504
81046W        W40142  23.115  17.251   0.341
81047W        W40143  13.771  23.732  14.485
81048W        W40144  35.433  37.516   3.256
81049W        W40145  44.497   3.843  13.904
81050W        W40146  34.581   0.414  14.773
81051W        W40147  12.847  12.172  10.631
81052W        W40148  40.926  13.718  14.980
81053W        W40149   5.322  21.751   4.176
81054W        W40150  41.292  19.750   2.813
81055W        W40151  10.637  19.779   0.813
81056W        W40152  38.854  23.134  11.018
81057W        W40153  25.583  26.077   2.668
81058W        W40154   8.752  38.437  13.022
81059W        W40155  37.451  28.620  14.381
81060W        W40156  37.382  25.182  14.331
81061W        W40157  32.629  21.749  13.466
81062W        W40158  14.333  31.515  14.939
81063W        W40159  25.606  27.969   4.275
81064W        W40160  22.694   3.914  10.627
81065W        W40161  32.920  27.970   0.260
81066W        W40162  43.008  14.335   0.480
81067W        W40163  21.589  33.414   3.214
81068W        W40164   0.985   3.441  13.847
81069W        W40165  37.401  36.932  13.005
81070W        W40166  34.516  29.459   4.276
81071W        W40167  34.114  26.526  10.615
81072W        W40168  29.592  36.387  12.473
81073W        W40169  44.925   9.715   4.254
81074W        W40170  39.885  23.718   2.193
81075W        W40171  42.935  17.081  14.370
81076W        W40172   8.732  21.176  10.435
81077W        W40173  16.704  22.018  11.555
81078W        W40174  17.272  22.035  12.385
81079W        W40175  29.945  34.041  12.549
81080W        W40176  44.887   9.766   1.732
81081W        W40177  38.465  21.151  13.827
81082W        W40178  14.246  32.634   2.206
81083W        W40179  24.600   4.916  13.015
81084W        W40180  10.299  39.005  14.453
81085W        W40181   8.206  37.361   9.964
81086W        W40182  40.926   3.842   2.837
81087W        W40183   7.315  30.423  12.495
81088W        W40184  24.725  24.482   3.365
81089W        W40185  39.468  27.036  12.006
81090W        W40186  23.073  20.167   5.188
81091W        W40187  43.816  28.534  11.112
81092W        W40188  37.489  21.140  12.441
81093W        W40189  30.648   3.358  10.558
81094W        W40190  38.383  33.946  11.044
81095W        W40191   2.884  16.747   1.336
81096W        W40192  13.724  24.516  12.451
81097W        W40193  35.407  44.334  13.840
81098W        W40194   9.887  14.159  14.855
81099W        W40195  19.673   5.730   2.390
81100W        W40196  20.201  38.937  13.993
81101W        W40197  12.178  27.578   4.757
81102W        W40198  42.958  33.044  14.896
81103W        W40199  35.024   8.873  13.015
81104W        W40200  34.960  36.426  11.944
81105W        W40201  31.142  11.346  14.461
81106W        W40202  18.223  28.020  11.453
81107W        W40203  37.427  36.394  14.801
81108W        W40204  37.496  41.537   3.327
81109W        W40205  17.781   6.797  14.770
81110W        W40206  11.831  11.767   0.469
81111W        W40207  38.925  11.175   1.379
81112W        W40208  19.199  30.631  13.816
81113W        W40209  15.793   8.247   5.319
81114W        W40210  28.497  12.684   4.795
81115W        W40211  32.086   7.836   0.814
81116W        W40212  17.271  24.691  13.446
81117W        W40213   0.283   1.915   3.629
81118W        W40214  15.326  20.237  13.958
81119W        W40215  18.586   3.411   5.156
81120W        W40216  26.675  35.539  13.034
81121W        W40217  41.807  38.354   1.448
81122W        W40218  18.196  40.449  14.297
81123W        W40219   1.736  11.207   0.373
81124W        W40220   0.454  28.530   1.308
81125W        W40221  32.497  14.114   3.149
81126W        W40222  22.121  42.986   2.258
81127W        W40223  24.491  32.079  11.912
81128W        W40224   5.791  35.519   3.272
81129W        W40225  41.305   1.299   3.163
81130W        W40226   0.750  25.079   3.700
81131W        W40227  10.215  34.395  10.943
81132W        W40228  31.981  25.192  13.425
81133W        W40229  28.483   9.884   2.759
81134W        W40230  35.601  40.527   0.332
81135W        W40231  25.557  21.174   0.765
81136W        W40232  17.584  34.480   1.431
81137W        W40233  20.768  41.852   4.306
81138W        W40234   9.349  15.794   0.392
81139W        W40235   1.335   0.382  14.475
81140W        W40236  41.930  17.232   1.816
81141W        W40237  24.711   0.984  13.024
81142W        W40238  14.668  17.764  13.947
81143W        W40239  34.934  18.598   3.267
81144W        W40240  10.325  37.344   2.862
81145W        W40241  25.564  18.183  10.061
81146W        W40242   8.175  44.349  14.816
81147W        W40243  14.656   2.396  14.418
81148W        W40244  34.506  26.040   0.750
81149W        W40245  28.169  24.505  13.002
81150W        W40246   1.303  20.696   3.297
81151W        W40247   8.710  18.145  13.465
81152W        W40248  38.424  16.694   3.351
81153W        W40249   0.863  24.977  13.955
81154W        W40250  32.020  25.044   2.776
81155W        W40251  36.440  39.937  13.921
81156W        W40252   0.974   8.380   0.816
81157W        W40253  25.112  25.036   4.622
81158W        W40254  44.916  31.484  11.569
81159W        W40255  15.308  30.965  10.945
81160W        W40256  36.402  24.656  13.986
81161W        W40257  24.711   7.858   2.200
81162W        W40258  12.614   5.868  13.307
81163W        W40259  18.749  19.681  10.026
81164W        W40260  12.665  40.950  12.931
81165W        W40261  23.619   3.343   2.836
81166W        W40262   3.299  36.099   1.407
81167W        W40263  22.059  10.329   0.447
81168W        W40264  33.598  37.433   5.203
81169W        W40265   6.840  14.724  12.026
81170W        W40266  17.733  25.485   0.855
81171W        W40267  37.920   7.730  12.049
81172W        W40268   1.965  39.328  14.367
81173W        W40269  35.967  11.278   4.228
81174W        W40270   8.784  37.496   0.344
81175W        W40271  39.992  31.979  11.610
81176W        W40272  32.915  16.275   2.740
81177W        W40273  34.607  15.275   1.211
81178W        W40274  27.671  16.118  14.325
81179W        W40275  22.100  37.396   4.699
81180W        W40276   4.277  22.532  12.864
81181W        W40277  36.378   4.804   2.195
81182W        W40278   8.369  42.437   4.198
81183W        W40279  18.558  24.153  10.618
81184W        W40280   7.785  29.608  13.807
81185W        W40281  35.892  36.415  14.834
81186W        W40282  23.060  33.080  14.390
81187W        W40283  10.853  30.590   2.755
81188W        W40284  31.639  22.213   0.434
81189W        W40285   0.856  16.717   0.940
81190W        W40286  22.660   2.965   4.125
81191W        W40287  34.612   1.847   2.884
81192W        W40288  44.785   6.836   4.220
81193W        W40289  35.457  44.274  13.443
81194W        W40290  24.593  14.166   2.361
81195W        W40291  29.456   3.853   2.737
81196W        W40292   1.762  43.887   4.833
81197W        W40293  21.233  23.015   2.725
81198W        W40294  18.215  11.154   3.356
81199W        W40295  15.309   2.227   1.706
81200W        W40296  20.054   1.461   1.422
81201W        W40297   2.941   6.183   2.761
81202W        W40298  28.932   4.701   4.115
81203W        W40299   9.699  36.369   4.668
81204W        W40300  39.038  22.019   1.375
81205W        W40301  23.075  21.213   2.324
81206W        W40302  37.356  19.758   4.306
81207W        W40303  12.628  34.544   3.773
81208W        W40304  17.772   6.368  12.524
81209W        W40305  22.125  12.686   3.668
81210W        W40306  14.111   4.213   3.298
81211W        W40307  12.226  43.813   1.320
81212W        W40308  38.985  18.548   3.869
81213W        W40309  15.278  11.777   4.682
81214W        W40310  19.233  35.961   9.641
81215W        W40311  25.503  23.068  10.475
81216W        W40312  36.904  25.071   3.663
81217W        W40313  44.317   7.271   4.203
81218W        W40314  33.442  26.614   1.331
81219W        W40315  36.350  29.010  10.059
81220W        W40316  37.416  34.485  12.412
81221W        W40317  16.095  14.832   2.199
81222W        W40318  44.276  18.118   3.668
81223W        W40319  33.914  42.934   2.220
81224W        W40320   2.348  21.596  13.880
81225W        W40321   9.761  39.818  12.490
81226W        W40322  43.290  17.267  14.777
81227W        W40323  39.823  18.594  10.435
81228W        W40324   4.259   6.362  11.084
81229W        W40325  40.847  22.715  10.475
81230W        W40326  15.627  24.718   0.928
81231W        W40327  13.123  29.160   0.784
81232W        W40328   5.814   6.902   1.766
81233W        W40329   9.751  21.218   4.166
81234W        W40330  23.201  19.203  14.830
81235W        W40331  26.631  10.338   1.415
81236W        W40332  31.522  13.277   4.349
81237W        W40333  38.471  18.292   0.454
81238W        W40334  19.656  26.064   1.925
81239W        W40335  28.019   3.743   2.229
81240W        W40336  10.140  38.506   3.870
81241W        W40337   9.839  37.051   2.298
81242W        W40338  34.419  41.944  13.886
81243W        W40339  41.349  37.385  13.953
81244W        W40340  37.353  19.562   1.711
81245W        W40341   8.160  33.076   0.443
81246W        W40342   8.237  31.445   3.212
81247W        W40343   5.926  19.236   2.670
81248W        W40344  29.499  13.334  11.903
81249W        W40345  15.672  35.461  10.053
81250W        W40346  39.951  25.555   3.869
81251W        W40347  17.228  39.975   2.777
81252W        W40348  37.397   6.299  11.096
81253W        W40349  26.684  36.524   1.243
81254W        W40350   7.825   5.722   3.170
81255W        W40351  26.459  24.025   4.759
81256W        W40352  26.036  16.248  13.832
81257W        W40353  32.924  17.195  13.513
81258W        W40354  14.118  41.422  11.936
81259W        W40355  25.115  11.727  12.556
81260W        W40356   5.784  41.422   1.822
81261W        W40357  41.818  23.616  11.589
81262W        W40358   5.767   1.903  11.093
81263W        W40359  12.317  37.497  14.353
81264W        W40360  10.240  22.171   3.257
81265W        W40361  42.441  30.606  12.025
81266W        W40362  23.108  11.232   4.238
81267W        W40363  29.462  25.986  10.621
81268W        W40364  13.626  40.322   0.262
81269W        W40365   1.843  38.024   2.868
81270W        W40366  10.258  10.363  12.831
81271W        W40367  43.348   9.345   0.445
81272W        W40368  43.324  29.534   4.805
81273W        W40369   0.768  21.687   9.962
81274W        W40370  42.983  21.690  13.478
81275W        W40371  10.278  33.977  10.563
81276W        W40372  10.670  27.986   1.447
81277W        W40373  35.094  13.236   0.432
81278W        W40374  11.247   9.659   2.265
81279W        W40375   9.852  22.732  13.457
81280W        W40376   9.269  41.791   2.768
81281W        W40377  13.664  38.923   1.257
81282W        W40378   9.685  40.902  13.487
81283W        W40379  26.583  33.092   4.782
81284W        W40380  43.796   8.263  11.092
81285W        W40381  33.405  19.043  13.416
81286W        W40382  35.357  40.850  12.074
81287W        W40383  30.925  27.481   4.684
81288W        W40384  37.087  31.623  11.058
81289W        W40385   9.854  23.987   1.447
81290W        W40386   8.856  20.202   1.382
81291W        W40387  36.451  24.677  10.962
81292W        W40388   7.378  16.166  14.768
81293W        W40389  21.737  41.533  11.589
81294W        W40390  38.038  34.941   3.833
81295W        W40391  31.061  34.390   2.230
81296W        W40392   3.252  16.781  13.040
81297W        W40393  15.182  11.859  12.364
81298W        W40394  28.021  16.143   0.938
81299W        W40395  38.413   7.176  12.880
81300W        W40396   4.918  36.483  10.491
81301W        W40397  27.489  34.475  13.988
81302W        W40398  20.666  44.276   4.685
81303W        W40399  19.548  32.913  11.471
81304W        W40400  18.189   2.264  13.476
81305W        W40401  41.961  38.047   1.869
81306W        W40402  38.341  20.058  14.829
81307W        W40403   7.302  37.556   4.641
81308W        W40404   6.871  43.435   2.857
81309W        W40405  43.948  19.242  11.452
81310W        W40406  38.430  30.639   1.242
81311W        W40407  32.087  23.695  13.864
81312W        W40408   6.842  40.392   4.697
81313W        W40409  14.702  10.822   0.435
81314W        W40410  17.691  29.084   4.638
81315W        W40411  41.362  40.918   1.701
81316W        W40412  26.997  25.176   3.837
81317W        W40413  28.007  37.027  12.880
81318W        W40414   3.710  26.067  13.927
81319W        W40415  15.780   1.312   2.197
81320W        W40416  23.596  21.572  10.423
81321W        W40417  31.524   1.400  13.465
81322W        W40418  34.080  12.143   0.891
81323W        W40419  15.593   4.903   0.802
81324W        W40420  30.098  36.493   0.904
81325W        W40421  26.972  36.559   1.933
81326W        W40422  21.619  13.318  13.790
81327W        W40423  39.538  18.089  10.536
81328W        W40424  43.814   0.857   3.361
81329W        W40425  44.775  26.626  13.802
81330W        W40426  27.639  23.708  13.368
81331W        W40427  39.952  17.670  11.045
81332W        W40428  37.558   1.376   1.404
81333W        W40429  25.679  21.687  12.572
81334W        W40430  40.393  38.458  10.554
81335W        W40431  15.694  29.476   3.800
81336W        W40432  39.413   3.424  10.535
81337W        W40433   2.338  31.919  12.393
81338W        W40434  35.523  42.002  13.811
81339W        W40435  11.813  27.636   1.726
81340W        W40436  16.179   6.340   3.781
81341W        W40437  12.645   6.283   4.158
81342W        W40438   0.756  34.905   2.862
81343W        W40439   9.315  17.572  11.906
81344W        W40440  27.456  26.974  11.939
81345W        W40441  22.997  32.601   0.262
81346W        W40442  28.969  37.424   0.733
81347W        W40443   8.183  11.350  13.057
81348W        W40444  19.157  26.457  12.001
81349W        W40445  11.188  44.004   0.825
81350W        W40446  39.367   3.234   1.720
81351W        W40447  28.581   3.752  10.460
81352W        W40448  34.002   1.943   5.258
81353W        W40449  22.008  14.604  10.475
81354W        W40450   5.712  38.897   4.285
81355W        W40451  20.749  12.350   0.924
81356W        W40452  25.971  26.121   1.772
81357W        W40453  40.990  42.927  12.918
81358W        W40454  27.472  40.946  13.437
81359W        W40455  36.091  30.030  10.949
81360W        W40456  31.045  27.467   0.291
81361W        W40457  18.210  35.514  14.394
81362W        W40458  39.449  39.385   1.279
81363W        W40459  32.085  15.127   0.412
81364W        W40460  22.650   5.382   4.244
81365W        W40461  43.830   5.729  11.483
81366W        W40462  32.937  11.253   0.396
81367W        W40463  44.412  27.672   2.686
81368W        W40464  44.860  25.491  11.022
81369W        W40465   4.840  35.955   0.767
81370W        W40466  27.493  40.449   1.224
81371W        W40467  22.216   9.159   2.276
81372W        W40468  37.051  17.188   1.326
81373W        W40469   2.792  11.792   4.155
81374W        W40470   6.185  41.797   3.235
81375W        W40471  39.039  16.731  14.482
81376W        W40472   6.817  36.580  10.975
81377W        W40473  11.306  21.133   2.810
81378W        W40474  43.836  31.037   3.318
81379W        W40475  42.860  30.934  13.373
81380W        W40476   8.284   5.356  13.946
81381W        W40477  32.080  31.525  12.345
81382W        W40478  41.329  38.347  11.875
81383W        W40479  21.250  41.323  10.516
81384W        W40480  35.517  39.404  11.017
81385W        W40481   5.811  15.279  14.349
81386W        W40482   2.237  27.072  11.947
81387W        W40483  39.518  20.613  11.385
81388W        W40484  33.515  24.138  13.360
81389W        W40485  42.475  35.368   4.219
81390W        W40486   7.362  42.421   0.405
81391W        W40487  37.961  35.051  11.999
81392W        W40488  41.868  38.019  14.294
81393W        W40489   7.315   9.343   1.872
81394W        W40490  12.682   5.772   1.358
81395W        W40491  40.505  33.898  13.485
81396W        W40492  33.030  42.863   2.387
81397W        W40493  20.148  22.518  10.525
81398W        W40494  28.974  33.020  14.489
81399W        W40495  43.417   6.874   3.680
81400W        W40496  14.281  24.485   2.268
81401W        W40497   4.773  23.581   2.682
81402W        W40498  41.926  21.260  14.966
81403W        W40499  44.906  32.944   0.823
81404W        W40500  28.013   5.732   4.145
81405W        W40501  22.183  12.302  14.453
81406W        W40502  26.521   2.249   0.925
81407W        W40503  42.028   6.221  10.521
81408W        W40504  36.884  19.285   2.768
81409W        W40505   0.888  22.683   4.752
81410W        W40506  41.828  34.455   3.647
81411W        W40507  20.091  34.384  13.441
81412W        W40508  32.491  17.227   4.353
81413W        W40509   8.753  18.153   1.312
81414W        W40510  16.201  19.775  11.884
81415W        W40511   5.396  41.301   2.768
81416W        W40512  25.653  28.083  10.431
81417W        W40513   9.657  39.963   3.631
81418W        W40514  37.384   7.742   4.173
81419W        W40515   4.405  15.760  11.377
81420W        W40516  30.035   5.809   4.213
81421W        W40517  16.173  31.594  14.370
81422W        W40518  27.510  40.522   1.807
81423W        W40519   6.416   0.414   4.634
81424W        W40520  17.077   0.823   0.440
81425W        W40521   7.898   5.386  14.448
81426W        W40522  44.289  25.609  13.503
81427W        W40523   4.931   6.236   1.906
81428W        W40524  44.375  15.138   9.982
81429W        W40525  15.152  20.068   4.297
81430W        W40526  33.892  22.622  11.027
81431W        W40527  18.678  31.990   3.658
81432W        W40528  27.146  32.092   4.752
81433W        W40529   5.322   9.349  12.567
81434W        W40530  30.997  19.720  13.417
81435W        W40531   6.749   8.712  13.851
81436W        W40532   6.397  11.235  11.435
81437W        W40533  12.813  20.694  14.020
81438W        W40534   7.764  25.054   3.668
81439W        W40535  19.123   5.330  10.929
81440W        W40536   7.805  13.335  14.369
81441W        W40537  12.229   1.868   3.358
81442W        W40538  31.533  25.142  12.037
81443W        W40539  41.313  23.044  11.995
81444W        W40540  26.186   1.440  12.480
81445W        W40541  21.210  27.994   4.261
81446W        W40542   1.474  22.585   2.266
81447W        W40543  17.171  39.547   1.371
81448W        W40544  20.540  18.607  11.535
81449W        W40545  28.465   2.857  11.993
81450W        W40546  40.898  10.638  12.487
81451W        W40547  13.662   8.380   4.335
81452W        W40548   3.729  43.351  11.960
81453W        W40549  21.205  22.243   4.682
81454W        W40550  23.636  21.584  10.897
81455W        W40551  13.167  21.590   1.293
81456W        W40552  42.945  16.144   1.213
81457W        W40553  10.312   9.883  12.054
81458W        W40554   5.424  43.994   1.930
81459W        W40555  41.941   0.887   2.357
81460W        W40556  19.071  32.398  11.464
81461W        W40557  18.714   9.830  13.868
81462W        W40558  25.079   4.771   3.635
81463W        W40559   3.790   3.892  14.943
81464W        W40560  17.278  37.950  11.063
81465W        W40561  17.109  31.023  10.645
81466W        W40562  30.959  31.090   0.890
81467W        W40563  11.274  17.234  12.931
81468W        W40564  33.075   7.750   3.793
81469W        W40565  29.152  37.393   4.347
81470W        W40566  26.080  26.015  12.051
81471W        W40567  39.472  43.323   0.764
81472W        W40568   5.326  23.548   5.635
81473W        W40569  12.610  31.902   3.248
81474W        W40570   3.382  33.048  10.916
81475W        W40571   9.339  19.729  12.058
81476W        W40572  18.119  24.201   0.283
81477W        W40573  20.693  19.184   0.728
81478W        W40574  37.886   5.279   1.892
81479W        W40575   7.845  41.361   3.715
81480W        W40576  29.012   2.287  14.327
81481W        W40577  43.424   2.307  13.499
81482W        W40578  40.531  15.751   0.835
81483W        W40579  26.113  21.068   0.475
81484W        W40580  30.130  26.601  10.963
81485W        W40581  39.520  40.385  10.085
81486W        W40582  43.322   8.688   4.115
81487W        W40583   5.723   0.751  11.413
81488W        W40584  42.412  44.380   4.196
81489W        W40585  44.324  27.588  11.087
81490W        W40586  29.568  35.090  11.116
81491W        W40587  23.523   1.956   4.778
81492W        W40588  37.881  41.841  11.381
81493W        W40589  33.396   0.804  13.921
81494W        W40590  32.037   2.332   5.265
81495W        W40591  39.942  35.442  13.369
81496W        W40592   6.295  24.578  13.413
81497W        W40593  25.534  11.200  11.502
81498W        W40594  26.958  33.049   3.751
81499W        W40595  13.629   1.415   2.852
81500W        W40596  25.976  44.838   3.387
81501W        W40597  21.130   2.922   1.859
81502W        W40598  10.735  32.579   2.844
81503W        W40599  34.909  13.694   3.843
81504W        W40600  19.242   9.878   5.133
81505W        W40601  18.629   8.737   4.152
81506W        W40602  20.185  32.987  13.348
81507W        W40603   0.261  42.425   0.324
81508W        W40604  16.124  14.642  14.292
81509W        W40605  41.497  12.669   3.187
81510W        W40606  35.935  37.879  10.910
81511W        W40607  26.040  21.107  14.281
81512W        W40608  25.089  44.407   3.708
81513W        W40609  31.625  12.719  14.852
81514W        W40610  23.699  26.013   1.333
81515W        W40611  18.709   0.822  13.352
81516W        W40612  20.743  26.518   2.708
81517W        W40613  10.212  44.952   4.323
81518W        W40614  11.298  32.999   1.306
81519W        W40615  11.833  22.024   3.286
81520W        W40616  36.085   2.791   3.829
81521W        W40617  17.075  21.151  11.996
81522W        W40618   6.314  40.982  14.860
81523W        W40619  21.223  17.105   4.331
81524W        W40620  34.966  20.534  10.147
81525W        W40621  14.254   6.792   3.782
81526W        W40622  10.741  33.086   2.190
81527W        W40623  26.969  38.028  14.423
81528W        W40624  17.646  25.978   0.378
81529W        W40625  11.796  36.085  13.827
81530W        W40626  27.008   6.798   2.847
81531W        W40627  14.328  40.423   0.355
81532W        W40628   6.420  27.171   3.245
81533W        W40629   8.355   7.899   1.704
81534W        W40630  23.556   2.946  11.505
81535W        W40631  29.555  31.963  12.867
81536W        W40632  38.876  27.997   2.245
81537W        W40633  21.129  23.499   4.237
81538W        W40634  44.961  28.966   3.664
81539W        W40635   2.963  43.766  12.491
81540W        W40636  20.708  26.489   3.275
81541W        W40637  27.478  10.161   3.356
81542W        W40638  27.455  34.382   3.309
81543W        W40639  14.222  12.138   0.346
81544W        W40640   0.751  43.833  10.523
81545W        W40641   9.816  14.605  10.907
81546W        W40642   1.876  10.263   2.858
81547W        W40643   6.730  42.858   3.150
81548W        W40644  29.054   4.332   1.289
81549W        W40645  10.778  24.533   1.709
81550W        W40646  28.450   5.859  14.818
81551W        W40647  16.273  16.084   2.705
81552W        W40648  15.682  43.847   5.290
81553W        W40649  28.454  29.469  12.537
81554W        W40650  24.113  32.987  13.922
81555W        W40651  30.464  23.156  13.058
81556W        W40652  16.758  15.250   1.223
81557W        W40653  29.571  37.086  12.559
81558W        W40654  42.020   6.250  14.956
81559W        W40655  15.180   6.793   2.805
81560W        W40656   8.356  36.079   2.825
81561W        W40657   9.657  28.975   2.860
81562W        W40658   7.360  14.722  13.326
81563W        W40659  12.718  15.279   4.691
81564W        W40660   7.275  41.417   1.263
81565W        W40661  17.220  13.125  11.887
81566W        W40662  37.563  25.625   1.823
81567W        W40663   8.852   4.890   2.409
81568W        W40664   9.198  27.943   0.444
81569W        W40665  28.181  17.066  12.420
81570W        W40666  14.279   6.708   4.251
81571W        W40667   2.408  44.274  12.475
81572W        W40668  44.462  37.069   0.474
81573W        W40669  30.074  27.611  14.950
81574W        W40670   4.412  26.207   1.336
81575W        W40671   3.297  19.753   1.834
81576W        W40672  34.974  35.595  11.458
81577W        W40673  24.687  14.591  12.972
81578W        W40674  24.720  39.042   4.311
81579W        W40675  36.950  35.369   2.247
81580W        W40676   0.815  32.033  14.294
81581W        W40677  35.572  40.926  14.965
81582W        W40678  31.040  35.865   0.252
81583W        W40679  26.654  24.586  11.054
81584W        W40680  11.841  25.706   3.324
81585W        W40681  22.071  30.101   1.843
81586W        W40682  17.563  11.284  11.925
81587W        W40683  10.333   6.248  14.005
81588W        W40684   3.840   1.900   4.732
81589W        W40685  15.627  35.453   3.213
81590W        W40686  17.786  29.941  12.562
81591W        W40687  25.632   7.196  11.109
81592W        W40688  15.766   7.859  11.855
81593W        W40689  29.066  13.675   1.930
81594W        W40690  21.715  24.978  10.508
81595W        W40691   5.877  33.039   3.262
81596W        W40692   6.678  19.680   4.757
81597W        W40693  32.139   4.218   2.779
81598W        W40694  20.136  11.238   4.689
81599W        W40695  44.785  10.707  13.965
81600W        W40696  11.797  18.159  13.385
81601W        W40697   6.387  15.715   3.778
81602W        W40698  26.013  13.792   2.684
81603W        W40699  27.643  14.700  13.013
81604W        W40700  20.620   3.218  12.851
81605W        W40701  33.979  11.271  13.823
81606W        W40702  33.132  17.702  12.965
81607W        W40703  22.686  26.144   2.223
81608W        W40704  43.489  28.513   0.833
81609W        W40705   9.690  42.372   4.114
81610W        W40706   3.903  19.701  12.840
81611W        W40707  15.708  32.116  13.334
81612W        W40708  26.028  34.075  12.010
81613W        W40709   4.702  29.931  14.470
81614W        W40710   4.869  31.931  14.385
81615W        W40711  14.198  36.089  10.622
81616W        W40712  13.270  37.830   4.825
81617W        W40713  38.972  36.547   2.735
81618W        W40714  35.027   7.791  13.479
81619W        W40715   9.372  19.541   3.662
81620W        W40716  14.615  20.531   0.263
81621W        W40717  25.606  15.189   3.234
81622W        W40718  10.187  40.450  13.312
81623W        W40719  27.955  32.516   0.771
81624W        W40720   7.349  38.978   2.715
81625W        W40721  34.087  14.757   5.113
81626W        W40722  29.165  32.889   2.418
81627W        W40723  29.003  27.197   1.302
81628W        W40724  38.424  15.100   0.819
81629W        W40725  18.053   1.754   1.728
81630W        W40726  26.117  30.955   0.456
81631W        W40727   4.442  36.974   4.231
81632W        W40728  44.880  15.665  10.471
81633W        W40729  44.952  24.033  13.837
81634W        W40730  22.622   4.421  14.784
81635W        W40731   1.259  43.011   2.263
81636W        W40732  32.433  29.985  10.417
81637W        W40733  32.965  23.187   1.215
81638W        W40734  15.789  32.510   0.430
81639W        W40735  25.031  18.286  10.085
81640W        W40736  14.634  17.236   2.713
81641W        W40737  20.624  42.293  13.955
81642W        W40738  29.103  11.644   1.295
81643W        W40739  22.222   0.934  12.469
81644W        W40740  29.526  18.107  11.460
81645W        W40741  30.098  41.401   0.862
81646W        W40742  28.577  34.445   1.266
81647W        W40743  25.645  37.959  12.023
81648W        W40744  40.822  23.519   3.752
81649W        W40745  14.823   1.961  13.344
81650W        W40746  37.347  43.369  13.029
81651W        W40747  22.168   1.264   1.784
81652W        W40748   5.929  19.256  11.484
81653W        W40749  33.976  21.121  12.858
81654W        W40750  18.623  36.433   2.340
81655W        W40751  40.475  33.941  13.994
81656W        W40752   3.235   5.331  10.561
81657W        W40753  12.652  31.029  12.930
81658W        W40754  16.270   7.795  10.626
81659W        W40755  23.037   1.909   1.434
81660W        W40756  26.177  33.030  14.907
81661W        W40757  26.113  24.701  13.958
81662W        W40758  42.825  41.461   2.257
81663W        W40759  38.069  25.657  11.859
81664W        W40760  14.816   8.362  12.865
81665W        W40761  31.078   6.230   9.973
81666W        W40762  18.180  43.335   0.290
81667W        W40763  44.308  38.905  10.150
81668W        W40764  34.527  26.053  11.502
81669W        W40765  11.161  18.736   4.269
81670W        W40766  41.451  12.821  12.405
81671W        W40767  18.204  17.105   3.802
81672W        W40768  37.414  39.440  10.616
81673W        W40769  39.471  13.116   2.279
81674W        W40770   0.280  12.212  10.544
81675W        W40771  18.220   6.292  12.514
81676W        W40772  29.002  12.200   2.894
81677W        W40773   1.476  25.657   4.703
81678W        W40774  12.615   4.815  11.871
81679W        W40775  36.473   4.926   5.145
81680W        W40776  41.399  40.538   5.282
81681W        W40777  41.415  18.685   3.378
81682W        W40778   2.467  39.341  13.944
81683W        W40779  29.167   8.750   4.696
81684W        W40780  27.129  26.633   0.816
81685W        W40781  37.354   4.226  12.577
81686W        W40782  21.576  25.488   2.901
81687W        W40783  44.812  15.150  13.404
81688W        W40784  12.312  19.711   3.237
81689W        W40785   6.839  33.463   0.249
81690W        W40786  37.949  12.757   2.296
81691W        W40787   8.882  37.073  14.863
81692W        W40788  40.354  39.532  12.924
81693W        W40789   3.299  18.143   1.336
81694W        W40790  11.156  18.295  12.992
81695W        W40791   6.836   4.316   1.774
81696W        W40792  30.474  39.036  12.939
81697W        W40793  34.381   1.785  12.838
81698W        W40794   5.205  44.984  14.856
81699W        W40795   9.323  42.351   3.269
81700W        W40796  24.130  31.634  11.419
81701W        W40797  10.267  11.635   4.710
81702W        W40798  20.241   7.885   4.706
81703W        W40799  27.597   4.423  14.928
81704W        W40800  33.057   8.719   3.231
81705W        W40801  10.679  34.478  11.010
81706W        W40802  43.381  30.981  12.969
81707W        W40803  15.651   5.244  10.521
81708W        W40804  14.782   5.299  10.532
81709W        W40805   7.850  29.173   5.276
81710W        W40806  25.611  29.933  12.463
81711W        W40807  13.607  41.870  13.842
81712W        W40808   9.770  15.273  10.511
81713W        W40809  44.947  36.560  12.017
81714W        W40810  35.050  31.956  14.277
81715W        W40811  42.451  35.854  12.016
81716W        W40812   7.905  23.161  11.075
81717W        W40813   9.712  24.651   0.438
81718W        W40814  14.607   6.424   3.324
81719W        W40815  16.207   2.262   3.322
81720W        W40816   6.682   9.879  11.563
81721W        W40817  39.509  37.081  13.969
81722W        W40818  19.715  12.769   1.338
81723W        W40819  32.978   2.268   1.744
81724W        W40820   3.896  19.629   0.819
81725W        W40821   7.800   7.807  14.783
81726W        W40822  31.575  13.161  14.323
81727W        W40823   1.404  13.828  12.953
81728W        W40824  42.425   9.391  11.939
81729W        W40825  15.103  30.532  12.958
81730W        W40826  38.570   7.682   2.894
81731W        W40827  24.024  28.965  12.561
81732W        W40828  26.571   2.321  12.427
81733W        W40829  35.418   8.733   0.798
81734W        W40830  10.371  23.510   0.256
81735W        W40831  44.984   8.806   1.326
81736W        W40832  11.661   0.328   2.207
81737W        W40833  12.771  21.085   2.291
81738W        W40834   5.243  20.064  12.387
81739W        W40835  38.535  26.145   3.775
81740W        W40836   9.355  13.827   3.148
81741W        W40837  11.865  30.505   0.403
81742W        W40838  12.130   2.356  13.393
81743W        W40839   7.732  37.482   4.827
81744W        W40840   0.816  11.852   4.178
81745W        W40841  44.941  15.650  10.887
81746W        W40842  17.733  37.490   1.323
81747W        W40843  10.843  41.976  13.320
81748W        W40844  20.639  17.096  11.430
81749W        W40845  24.024  22.555  12.838
81750W        W40846  39.450  34.041  12.574
81751W        W40847  42.437  42.425  12.865
81752W        W40848  10.683  42.833  11.079
81753W        W40849  26.533  41.832   3.633
81754W        W40850  13.187  43.021   3.755
81755W        W40851  21.583  17.770   0.309
81756W        W40852   9.151  22.513  14.830
81757W        W40853  37.865   5.196  11.488
81758W        W40854  14.316   9.262   3.775
81759W        W40855  18.079  11.653  11.120
81760W        W40856  20.269  38.374  13.537
81761W        W40857  12.716  38.518  11.867
81762W        W40858  35.957  32.523   0.357
81763W        W40859   6.686   1.458   0.344
81764W        W40860  24.683   2.762   0.907
81765W        W40861   6.841  31.919   3.871
81766W        W40862  30.458  44.443   2.318
81767W        W40863  43.472  27.547   3.298
81768W        W40864  25.532   3.351  10.100
81769W        W40865   6.906  28.592   0.275
81770W        W40866  27.491  25.179  12.577
81771W        W40867  37.037  30.631  10.890
81772W        W40868  41.924  10.221   4.173
81773W        W40869   3.950  22.641   1.810
81774W        W40870  11.219  26.156   1.831
81775W        W40871  15.818  38.953  11.958
81776W        W40872   7.691  42.814   5.316
81777W        W40873  13.802  25.978  11.538
81778W        W40874   2.264  41.295  11.549
81779W        W40875  14.302  15.712   0.321
81780W        W40876   6.803   8.767   2.748
81781W        W40877   7.254   5.872   2.888
81782W        W40878  34.380  43.973   2.744
81783W        W40879   1.243  36.559   1.267
81784W        W40880  33.077  44.851  13.413
81785W        W40881   5.438  15.618  12.522
81786W        W40882  15.616  33.469   1.314
81787W        W40883  15.819  38.030   1.375
81788W        W40884  27.581   0.925   3.341
81789W        W40885  28.032  26.589  10.503
81790W        W40886  37.576   7.893  11.084
81791W        W40887   2.950  27.154   9.929
81792W        W40888  23.003  23.501   2.403
81793W        W40889   4.910  28.126  13.377
81794W        W40890  11.301  25.061   1.792
81795W        W40891  35.556  37.842   2.882
81796W        W40892  23.539  18.755   4.138
81797W        W40893  11.292  20.589   0.745
81798W        W40894  38.858   5.201   3.318
81799W        W40895  23.587  19.543  13.009
81800W        W40896  10.156  26.504  12.083
81801W        W40897  13.795  27.015   0.267
81802W        W40898  26.049   3.370  12.823
81803W        W40899  21.566  20.687  11.891
81804W        W40900  14.203  19.593  14.947
81805W        W40901  20.060  14.105   4.326
81806W        W40902  37.544   8.342  12.885
81807W        W40903  37.422   0.919  10.938
81808W        W40904  42.905   6.823  14.891
81809W        W40905  40.015   4.866  12.403
81810W        W40906  17.698  38.434  14.381
81811W        W40907  33.391  26.032   2.684
81812W        W40908  36.895  18.208  11.020
81813W        W40909  14.157   0.835   1.220
81814W        W40910  10.380  14.240  14.399
81815W        W40911  34.075  44.396   4.652
81816W        W40912  40.429  36.878   1.326
81817W        W40913  34.571  22.226   0.388
81818W        W40914  33.888   1.930  14.910
81819W        W40915  16.741  15.141   1.770
81820W        W40916   0.353  30.564  14.347
81821W        W40917   1.867  43.277  10.424
81822W        W40918   8.404  11.233   4.246
81823W        W40919  10.263  17.653  10.935
81824W        W40920  33.079  39.933   3.709
81825W        W40921  22.168  16.754  13.874
81826W        W40922  17.618  43.843   2.758
81827W        W40923  37.900  32.991  11.424
81828W        W40924  37.047  28.172  12.474
81829W        W40925  44.472   1.942  13.952
81830W        W40926   9.355  30.498   4.259
81831W        W40927  22.638  14.119   4.228
81832W        W40928   1.882  21.147   4.654
81833W        W40929   2.892  15.792   4.665
81834W        W40930   1.917  24.197   3.309
81835W        W40931   4.832  15.726   0.821
81836W        W40932  25.567  23.114   4.665
81837W        W40933  40.338  31.076   2.752
81838W        W40934  32.930   4.885  14.500
81839W        W40935  30.075  37.459   4.250
81840W        W40936   7.281  37.843  14.930
81841W        W40937  35.058  41.922  14.807
81842W        W40938  10.319   2.267   1.239
81843W        W40939   6.814  23.241   3.821
81844W        W40940  32.021  13.710  12.986
81845W        W40941  25.215   0.746  14.928
81846W        W40942  34.448  24.537  14.950
81847W        W40943  12.146  28.122   4.249
81848W        W40944   0.298  38.454   4.694
81849W        W40945  30.465   1.850   2.730
81850W        W40946  43.336  20.107  14.868
81851W        W40947  21.721  15.286   2.270
81852W        W40948  17.725   7.313   4.721
81853W        W40949  24.069  32.908  11.954
81854W        W40950  40.361   5.222   4.755
81855W        W40951   8.244  16.590   1.844
81856W        W40952  39.839   9.329   4.176
81857W        W40953  41.410  25.711   1.281
81858W        W40954  19.059  20.131  13.496
81859W        W40955  21.579  10.320   0.785
81860W        W40956  15.195  41.413   4.266
81861W        W40957  30.918   0.319   3.726
81862W        W40958  20.605   7.359  12.442
81863W        W40959  26.126  22.611  14.842
81864W        W40960   8.712  30.586  14.939
81865W        W40961  42.289   8.317   2.889
81866W        W40962  16.254  44.863   3.660
81867W        W40963  28.162  16.279   2.415
81868W        W40964  24.614  18.263  10.130
81869W        W40965  31.026  36.010  10.579
81870W        W40966  41.980   3.428  14.822
81871W        W40967  22.099  34.561  10.603
81872W        W40968  33.429  20.747   3.208
81873W        W40969   8.809  42.468  10.543
81874W        W40970  14.197  42.426  10.480
81875W        W40971  10.755   5.430  10.542
81876W        W40972  31.076  11.371  13.520
81877W        W40973  11.363  37.083  13.048
81878W        W40974  25.084   5.233  10.525
81879W        W40975  17.082  16.227   4.726
81880W        W40976  32.966  19.737   1.828
81881W        W40977  31.433  16.160  11.919
81882W        W40978  17.268  28.471  13.335
81883W        W40979  11.146  17.772  10.630
81884W        W40980  17.244  28.057  11.406
81885W        W40981  11.211  12.838   3.208
81886W        W40982  42.410  26.126   3.756
81887W        W40983   4.911  11.136   2.762
81888W        W40984  42.979  35.914   0.929
81889W        W40985  11.339  24.994   1.427
81890W        W40986  29.951  11.339  12.981
81891W        W40987  33.971   2.814  10.994
81892W        W40988  11.260  24.077  13.890
81893W        W40989  44.824  23.509   0.926
81894W        W40990  27.196  29.628  11.495
81895W        W40991   9.159   1.805  13.447
81896W        W40992  23.006  32.499  11.387
81897W        W40993  30.051   6.903  10.462
81898W        W40994  14.178  11.295  14.024
81899W        W40995   9.768   5.251   1.786
81900W        W40996  40.037  14.307  14.374
81901W        W40997  35.873  32.442  11.497
81902W        W40998  42.513  35.085  11.426
81903W        W40999   3.821  14.276  11.942
81904W        W41000  11.786  18.286  10.503
81905W        W41001  36.521  22.740   4.815
81906W        W41002  44.962  23.131   1.345
81907W        W41003   4.342  14.186  13.898
81908W        W41004  33.879   4.756   0.328
81909W        W41005  17.561  28.957  14.427
81910W        W41006  14.328  40.867  13.828
81911W        W41007   6.302  20.274  14.510
81912W        W41008  11.162  40.053   0.464
81913W        W41009  15.632   2.876   0.282
81914W        W41010   8.810  31.990   4.633
81915W        W41011  43.408  21.733   2.881
81916W        W41012   6.312  44.451  10.580
81917W        W41013  33.591  15.120   3.768
81918W        W41014  33.026  14.641   9.533
81919W        W41015  23.183   8.206  14.936
81920W        W41016  42.308  16.147   0.295
81921W        W41017   6.682  13.285  10.426
81922W        W41018  13.320  16.804   9.532
81923W        W41019   7.671  37.432  13.399
81924W        W41020  13.834  23.686   2.750
81925W        W41021  20.625  42.378  13.322
81926W        W41022  14.630   6.708   2.818
81927W        W41023   4.853  28.630   3.843
81928W        W41024  25.684  39.512   4.696
81929W        W41025  11.286  36.424  14.010
81930W        W41026  40.003  41.399  13.844
81931W        W41027  31.552   0.932   0.279
81932W        W41028  25.964  38.368   3.826
81933W        W41029   8.392  44.323   2.849
81934W        W41030  42.792   4.750  14.425
81935W        W41031   4.252  35.410  14.884
81936W        W41032  34.414  14.773   3.269
81937W        W41033  13.153  24.519   3.233
81938W        W41034   8.186  24.125   0.306
81939W        W41035  32.599  18.138   2.197
81940W        W41036  35.512  10.711  14.965
81941W        W41037  28.462   2.358   3.643
81942W        W41038  13.337  31.008   0.945
81943W        W41039  40.897  16.172  11.414
81944W        W41040  35.926  20.576  11.932
81945W        W41041  38.554   2.745   2.191
81946W        W41042  30.591  37.902  14.026
81947W        W41043  18.731  17.073  14.278
81948W        W41044  17.799  10.844  13.418
81949W        W41045  44.908  20.199  12.991
81950W        W41046  22.672   1.452   3.770
81951W        W41047   9.311   8.253  11.887
81952W        W41048  22.198   8.779  12.870
81953W        W41049   6.237  32.889   1.932
81954W        W41050   1.842  13.170  13.909
81955W        W41051   4.319   3.806   1.430
81956W        W41052  43.934  23.037   2.199
81957W        W41053  42.938  12.348   3.843
81958W        W41054   2.735  37.015  11.889
81959W        W41055  19.279   0.487  11.414
81960W        W41056   6.688   8.184  14.023
81961W        W41057  19.099  37.030  13.908
81962W        W41058  12.355  17.682  12.465
81963W        W41059  33.566  16.253   2.675
81964W        W41060   2.268  19.229   3.856
81965W        W41061   8.763  44.410  13.333
81966W        W41062  14.646   4.300  14.353
81967W        W41063  38.481  21.577  11.517
81968W        W41064  13.709  41.420  12.516
81969W        W41065  31.593   1.739  11.095
81970W        W41066  15.683  37.033   2.380
81971W        W41067  28.956  26.957  13.429
81972W        W41068  39.936  29.530   0.395
81973W        W41069  23.629   4.231  14.441
81974W        W41070   1.888  13.262   3.330
81975W        W41071  34.074  10.217   1.260
81976W        W41072  19.746  43.897  10.627
81977W        W41073  27.474  26.185   3.382
81978W        W41074  12.784  25.023   3.771
81979W        W41075   3.253  28.487  14.481
81980W        W41076   4.340  26.147  12.022
81981W        W41077  31.946  37.395   4.259
81982W        W41078  12.224  19.101  14.310
81983W        W41079  15.616  24.673  10.557
81984W        W41080   7.188  24.030  12.368
81985W        W41081  21.078   5.764   3.257
81986W        W41082  35.892  14.609   2.833
81987W        W41083  24.087  32.618  14.419
81988W        W41084  29.160  14.184   4.304
81989W        W41085   7.810  23.218  13.384
81990W        W41086  33.084  33.051  12.358
81991W        W41087  26.165  42.436   3.148
81992W        W41088   2.268   5.304   1.369
81993W        W41089  22.584  32.062   2.207
81994W        W41090  39.473   0.975  12.970
81995W        W41091   7.854  34.106   1.288
81996W        W41092   3.229   0.273   1.703
81997W        W41093  31.080  22.517  11.940
81998W        W41094   6.805   4.373  14.919
81999W        W41095  40.800   7.788   4.342
82000W        W41096   1.867  35.968  14.311
82001W        W41097   3.373   9.747  14.377
82002W        W41098  38.505  15.634  11.602
82003W        W41099  28.066  27.596  13.426
82004W        W41100  20.045  31.421  12.426
82005W        W41101  12.762  11.205  12.925
82006W        W41102  14.107  42.942  13.548
82007W        W41103   3.726  31.478   0.821
82008W        W41104   1.442  24.680  13.348
82009W        W41105   9.211   5.696  14.407
82010W        W41106  16.568  26.955  12.427
82011W        W41107  43.404  24.500   4.623
82012W        W41108  11.731  20.646  11.128
82013W        W41109  29.086   4.295  11.405
82014W        W41110  40.031  10.163   9.940
82015W        W41111   7.385  14.271   3.803
82016W        W41112  16.805   7.876   2.354
82017W        W41113  31.981  32.607   0.881
82018W        W41114   4.894  37.996  13.325
82019W        W41115   5.389   3.754   3.282
82020W        W41116  17.279  25.046  12.945
82021W        W41117  38.845  44.878   1.835
82022W        W41118   2.742  26.538   0.455
82023W        W41119   5.194  36.887  11.054
82024W        W41120  41.315  18.594   1.908
82025W        W41121  39.814  35.579   2.691
82026W        W41122  42.408   2.808  14.987
82027W        W41123  11.633  23.594  13.996
82028W        W41124  36.016  18.732  13.879
82029W        W41125   5.873  13.121  13.405
82030W        W41126  40.544  10.698  13.988
82031W        W41127  35.599   3.398   0.827
82032W        W41128  40.055  11.792  11.040
82033W        W41129  15.667   1.382  10.956
82034W        W41130  20.637  20.541  10.951
82035W        W41131  16.587  30.421   3.182
82036W        W41132  32.068  22.166   3.282
82037W        W41133  40.047  23.538  11.601
82038W        W41134  23.222  36.065  11.383
82039W        W41135  36.035   0.405  13.337
82040W        W41136  16.237  34.064   3.279
82041W        W41137  26.606   7.228  14.375
82042W        W41138  34.532  41.801   1.731
82043W        W41139  33.088  26.604  13.417
82044W        W41140  13.166  39.962  10.152
82045W        W41141  31.540   2.369   3.350
82046W        W41142  44.866  18.648  10.946
82047W        W41143  22.250   6.278  13.475
82048W        W41144   4.317  19.748   0.421
82049W        W41145  21.624  14.130  14.795
82050W        W41146  36.076  20.134  14.279
82051W        W41147  15.763  30.097  11.424
82052W        W41148  25.047  38.885   1.838
82053W        W41149   0.485  23.139   4.656
82054W        W41150   4.711   1.269  12.506
82055W        W41151   5.866  17.682  14.831
82056W        W41152   6.270  29.611  11.003
82057W        W41153  18.721  16.786  13.913
82058W        W41154  28.053  13.306   1.877
82059W        W41155  40.806  36.872   4.179
82060W        W41156  18.773  13.239   3.260
82061W        W41157   8.843   9.260  13.358
82062W        W41158  32.481  16.682   2.723
82063W        W41159  19.260  36.855   3.723
82064W        W41160  42.485  39.445  10.441
82065W        W41161  11.308   6.824  13.907
82066W        W41162  23.004  32.888   3.853
82067W        W41163   0.466  42.870  13.344
82068W        W41164  14.815   2.832   4.246
82069W        W41165  34.966  35.090  10.539
82070W        W41166  12.245  30.143   1.367
82071W        W41167  37.892  15.231   5.699
82072W        W41168  18.561  36.870  11.981
82073W        W41169  39.416  44.409   2.745
82074W        W41170  18.719   1.272  10.630
82075W        W41171  40.319  28.571   1.896
82076W        W41172  27.118  23.195   1.233
82077W        W41173  17.772  24.090  11.484
82078W        W41174  19.152  16.110  12.423
82079W        W41175  17.217  38.384  14.325
82080W        W41176  25.548  28.144  13.380
82081W        W41177  32.628   2.857   0.913
82082W        W41178   8.218  16.135   1.786
82083W        W41179  11.691  31.444  12.538
82084W        W41180  35.858   7.764   0.884
82085W        W41181   4.365  30.518  13.435
82086W        W41182  30.565  44.494  13.499
82087W        W41183  42.902   0.954   5.252
82088W        W41184  38.416   3.809  11.430
82089W        W41185  22.074  38.905  10.532
82090W        W41186   8.353   6.266   3.820
82091W        W41187  37.405  42.387  13.943
82092W        W41188   1.417  14.260   3.302
82093W        W41189   6.812  30.478   3.146
82094W        W41190  20.216  33.556  12.548
82095W        W41191   2.233  32.613   0.269
82096W        W41192  23.049  41.879  13.984
82097W        W41193  36.570  23.686   2.882
82098W        W41194  14.736  31.119   3.829
82099W        W41195  30.454  39.456   1.419
82100W        W41196  33.927  26.491  12.923
82101W        W41197  44.010  28.138  12.472
82102W        W41198  20.181  10.711   0.368
82103W        W41199   8.223   0.887   1.412
82104W        W41200  34.070  38.071  11.919
82105W        W41201  21.562  31.137   3.279
82106W        W41202  17.687  29.439  12.415
82107W        W41203  28.503  13.285  14.941
82108W        W41204  20.097  28.043   4.171
82109W        W41205   2.435  27.143  12.426
82110W        W41206  23.683  40.459   2.715
82111W        W41207  16.607   2.268  11.450
82112W        W41208   5.342  26.619  11.944
82113W        W41209  25.595   7.669  14.773
82114W        W41210  14.165  11.815   3.661
82115W        W41211  28.158   6.310   3.780
82116W        W41212  31.114  33.581   2.409
82117W        W41213   1.283  28.661   4.321
82118W        W41214  27.029  44.924   2.707
82119W        W41215  38.940  13.711   4.801
82120W        W41216  25.190  30.065  13.986
82121W        W41217   9.787   9.248   3.282
82122W        W41218  19.265  27.490   3.231
82123W        W41219  11.302   1.352  14.945
82124W        W41220  23.705  28.564  10.430
82125W        W41221  40.895  36.062   0.368
82126W        W41222  26.676  12.844  14.330
82127W        W41223  34.028  44.821  11.040
82128W        W41224  29.562  27.972   3.698
82129W        W41225  15.665  12.348   1.342
82130W        W41226  41.367  14.163   2.297
82131W        W41227  24.541  17.255  10.610
82132W        W41228  37.081   8.830   2.364
82133W        W41229  40.508  37.041   2.873
82134W        W41230  11.366  32.444  10.923
82135W        W41231  19.101  23.618   1.836
82136W        W41232  17.784   1.401   4.166
82137W        W41233  28.960  32.596  12.826
82138W        W41234  23.570  26.205   2.329
82139W        W41235  33.039  32.964   2.217
82140W        W41236  36.912  10.737  14.390
82141W        W41237   1.283  20.621   2.745
82142W        W41238  42.403  10.256  13.987
82143W        W41239  11.268  15.206   0.295
82144W        W41240  41.806  22.153  10.492
82145W        W41241   8.660   9.687   3.275
82146W        W41242   7.900  27.086  11.390
82147W        W41243  25.597  10.366  12.056
82148W        W41244  29.661   4.826  11.541
82149W        W41245  32.103  32.607  10.593
82150W        W41246  12.674  39.414  14.813
82151W        W41247  25.663  20.731   3.251
82152W        W41248  10.358   9.216   2.283
82153W        W41249  10.378   4.365   0.337
82154W        W41250   6.878   1.467  13.855
82155W        W41251  12.651  40.816   1.343
82156W        W41252   7.808  23.530  13.895
82157W        W41253   9.854   0.410  14.449
82158W        W41254   7.898  36.044  13.334
82159W        W41255   4.896  14.227  11.528
82160W        W41256  27.493  39.972   3.350
82161W        W41257  23.679  18.709   3.698
82162W        W41258  14.751  35.016  11.545
82163W        W41259  38.960   4.808  11.377
82164W        W41260  37.957  15.215  11.876
82165W        W41261  37.499  20.610   4.794
82166W        W41262  30.600  12.175   3.864
82167W        W41263   3.759  34.005   0.327
82168W        W41264   8.829  27.447   5.121
82169W        W41265  13.183  17.216  14.494
82170W        W41266  13.600  13.846   3.690
82171W        W41267  41.024  43.307   0.311
82172W        W41268  14.703   8.320   1.827
82173W        W41269   7.281   0.376   1.325
82174W        W41270  38.819  33.388   2.336
82175W        W41271  35.383  17.304   4.274
82176W        W41272  10.214  43.406   2.869
82177W        W41273  34.967  25.481   3.311
82178W        W41274  10.807   6.683  11.575
82179W        W41275   4.928  29.503  13.384
82180W        W41276   4.240  30.999   4.728
82181W        W41277  12.125  34.872   3.247
82182W        W41278  13.293  38.524  11.489
82183W        W41279   5.388  15.234  10.637
82184W        W41280  23.984  31.973  12.058
82185W        W41281  42.494  29.154   1.830
82186W        W41282   5.784   5.807   2.366
82187W        W41283  26.501  33.048   2.212
82188W        W41284  18.787  34.888  14.835
82189W        W41285  21.614   7.308   1.864
82190W        W41286   7.874   6.864   2.686
82191W        W41287   7.175   5.698  10.906
82192W        W41288  26.158  44.388   3.259
82193W        W41289  18.272   0.445  14.384
82194W        W41290   4.780  44.385   3.750
82195W        W41291  39.337  15.607  11.448
82196W        W41292  31.435  25.562  11.087
82197W        W41293  38.916  22.701   3.845
82198W        W41294  35.503  25.519  11.872
82199W        W41295  29.549   5.694  12.561
82200W        W41296  35.977  41.503   0.898
82201W        W41297  24.103  39.062   2.272
82202W        W41298  14.099  27.088  14.379
82203W        W41299   4.372  18.068   3.213
82204W        W41300  17.237  17.689   0.266
82205W        W41301  31.447  18.650   0.867
82206W        W41302  32.015  15.159   2.265
82207W        W41303   5.739   0.946   1.758
82208W        W41304  33.604  35.985  12.879
82209W        W41305  24.532  12.649  12.376
82210W        W41306   3.830  15.688  14.356
82211W        W41307  40.448  41.431   4.266
82212W        W41308  10.296  33.625  10.463
82213W        W41309   8.896   2.887  11.480
82214W        W41310  18.281  43.999   0.908
82215W        W41311   4.448  15.805  14.412
82216W        W41312   7.367  13.662  14.899
82217W        W41313   1.326  40.954   0.378
82218W        W41314   7.411   2.469   4.735
82219W        W41315  12.290  38.842  11.985
82220W        W41316   9.878   5.422  12.971
82221W        W41317  22.533  25.047   2.786
82222W        W41318  43.422  28.048  14.487
82223W        W41319  12.641  37.972  14.506
82224W        W41320  27.523  44.984  14.777
82225W        W41321  15.757  43.771  13.808
82226W        W41322  11.815  37.392  14.345
82227W        W41323  23.033  28.530  13.546
82228W        W41324  25.191  33.527   4.291
82229W        W41325  27.475  38.928  13.538
82230W        W41326  43.772  34.963   3.382
82231W        W41327  25.704   1.765  13.346
82232W        W41328  10.862  30.926   4.318
82233W        W41329  31.896  27.991  13.423
82234W        W41330  43.911  37.364   0.892
82235W        W41331  24.104  38.057  10.484
82236W        W41332  20.740  30.529  12.001
82237W        W41333   5.274  23.082   2.691
82238W        W41334   7.743  38.486   1.312
82239W        W41335  38.046  34.450  14.324
82240W        W41336  34.114  40.814  12.368
82241W        W41337   0.471   3.428   2.230
82242W        W41338  17.109  29.494   4.273
82243W        W41339   8.167   8.751  14.789
82244W        W41340  22.731  10.733   1.726
82245W        W41341   3.215  19.701   0.830
82246W        W41342  10.685  20.233  12.412
82247W        W41343   9.735  36.926   0.959
82248W        W41344  29.976  36.868  12.495
82249W        W41345  28.085  31.121   4.274
82250W        W41346  12.710  17.089   5.292
82251W        W41347  11.249  37.357   0.937
82252W        W41348  15.685  37.505  13.409
82253W        W41349  30.533  38.553   0.799
82254W        W41350  10.325   6.874  11.456
82255W        W41351  21.036   7.314  14.428
82256W        W41352  29.539   9.684  11.444
82257W        W41353   9.777  23.567   4.685
82258W        W41354  21.590  43.895   4.675
82259W        W41355  20.260  13.722  14.958
82260W        W41356  25.483  16.144  13.408
82261W        W41357  19.243  34.026   0.243
82262W        W41358  42.887  44.320  14.874
82263W        W41359  12.613   7.389   4.277
82264W        W41360   2.432  29.101  12.974
82265W        W41361  31.060  23.211   2.840
82266W        W41362  41.884  28.445  12.355
82267W        W41363  20.232  41.963   0.250
82268W        W41364  20.100  18.710  11.504
82269W        W41365  21.096   4.715   2.898
82270W        W41366   5.720  13.342  12.458
82271W        W41367  41.441  29.436   3.248
82272W        W41368   9.251  13.815  12.509
82273W        W41369  10.224  19.630   4.820
82274W        W41370  29.648  19.669  11.393
82275W        W41371  43.345  27.590   1.403
82276W        W41372  25.201  24.087   4.626
82277W        W41373  11.713  13.747  10.991
82278W        W41374  32.928  18.562   3.269
82279W        W41375   4.836  30.931  13.039
82280W        W41376   0.272  41.986   0.817
82281W        W41377  15.282  37.088   2.782
82282W        W41378  10.827  39.908   4.341
82283W        W41379   0.767  15.775  11.071
82284W        W41380   2.813  35.500   2.192
82285W        W41381   3.383  13.668  13.987
82286W        W41382   6.742  33.524  11.455
82287W        W41383  40.340  44.830   4.756
82288W        W41384  44.329  32.636  10.583
82289W        W41385   8.856  29.667  13.794
82290W        W41386  32.089  35.898  10.982
82291W        W41387   2.402  43.298   0.274
82292W        W41388  10.357   1.307  11.961
82293W        W41389   4.813  41.801   4.760
82294W        W41390  18.782  40.026  12.458
82295W        W41391  28.598   7.398   2.872
82296W        W41392  33.123  17.740   0.835
82297W        W41393  38.397  33.591  12.537
82298W        W41394  43.949   7.863   4.140
82299W        W41395  22.619  39.513  12.057
82300W        W41396   4.338   8.318  11.047
82301W        W41397  37.340   0.779  13.434
82302W        W41398  36.941   8.851  13.041
82303W        W41399   0.897  11.663  10.559
82304W        W41400  34.562   0.775  10.461
82305W        W41401  25.596  25.544   0.321
82306W        W41402  24.008   4.855  14.366
82307W        W41403   3.744  21.656   1.723
82308W        W41404   5.688  38.878   0.447
82309W        W41405  22.137  10.734   3.733
82310W        W41406  44.873  28.493  12.939
82311W        W41407   5.754   0.295   1.717
82312W        W41408  38.024  32.892   0.773
82313W        W41409  39.370  36.965   1.260
82314W        W41410  34.493  37.995   3.859
82315W        W41411   0.752  23.118  11.577
82316W        W41412  41.364  33.950   1.707
82317W        W41413  27.567  35.580  14.021
82318W        W41414  17.743  37.470  14.823
82319W        W41415  32.017  38.549  12.925
82320W        W41416  36.930  29.012   0.853
82321W        W41417   5.236  25.499  12.417
82322W        W41418  22.148  12.726  11.975
82323W        W41419  12.203  25.043  12.355
82324W        W41420  23.079  44.835  11.408
82325W        W41421   1.309  24.560  10.505
82326W        W41422  44.335  32.482  14.954
82327W        W41423  29.613  26.609  13.805
82328W        W41424   4.359  25.655   3.175
82329W        W41425  27.139  40.442   1.705
82330W        W41426  23.111  44.886  12.850
82331W        W41427  26.050  43.851   4.315
82332W        W41428  36.938  35.597   0.400
82333W        W41429  33.599   7.326   0.807
82334W        W41430  10.700  37.082   0.745
82335W        W41431  14.680   6.417   2.205
82336W        W41432  37.471  44.448   5.133
82337W        W41433   3.857  37.519   4.804
82338W        W41434  31.618   7.275   2.188
82339W        W41435  13.645  30.424  14.442
82340W        W41436  24.553  43.277   4.634
82341W        W41437  36.423  19.060   4.761
82342W        W41438   7.266  39.858  12.547
82343W        W41439  19.053  27.545   1.736
82344W        W41440  40.883  37.833  13.014
82345W        W41441  22.565  12.123  11.508
82346W        W41442  23.038  12.805   3.807
82347W        W41443  31.942  41.509   3.374
82348W        W41444  18.060  17.254   2.315
82349W        W41445  25.709  43.430   2.859
82350W        W41446  44.962  28.086   1.363
82351W        W41447  24.640  43.980   2.386
82352W        W41448  44.503  20.530  10.945
82353W        W41449  41.804  31.936   0.945
82354W        W41450  25.117  17.602  11.423
82355W        W41451   3.283  29.043  10.578
82356W        W41452  30.909   4.787   5.220
82357W        W41453  39.008  36.085  14.332
82358W        W41454  29.482   6.348  12.977
82359W        W41455  11.220  18.666   2.223
82360W        W41456  12.347  25.178  11.375
82361W        W41457  17.180  38.414   3.744
82362W        W41458  19.725  10.147  13.843
82363W        W41459  29.112  26.990   3.233
82364W        W41460  14.209  31.010   2.366
82365W        W41461  39.964  37.461   5.187
82366W        W41462  26.052  21.583   4.695
82367W        W41463  26.087  39.530   2.291
82368W        W41464  15.222  40.490   2.770
82369W        W41465  12.207   6.293   0.914
82370W        W41466  23.242   8.656  13.426
82371W        W41467  34.612  42.521  14.982
82372W        W41468  13.753   7.405  14.439
82373W        W41469  44.490  29.963  13.029
82374W        W41470  13.249   8.247  10.896
82375W        W41471   6.745   8.332   0.861
82376W        W41472  33.537  29.146   4.782
82377W        W41473  25.566  20.248   0.263
82378W        W41474   6.711  15.254   4.676
82379W        W41475  16.263   0.855   4.295
82380W        W41476   5.852  35.377  14.924
82381W        W41477  23.594  13.297   1.304
82382W        W41478  31.414  23.654  10.021
82383W        W41479  12.303  28.986   2.797
82384W        W41480  12.701   8.173   0.434
82385W        W41481  29.082  34.926   4.340
82386W        W41482  17.731  31.108   3.381
82387W        W41483  20.167  35.858  10.015
82388W        W41484  42.430  38.856   9.942
82389W        W41485  22.134   7.337  14.911
82390W        W41486   0.743   9.279   2.394
82391W        W41487  21.088  27.688   4.688
82392W        W41488  11.808  10.208  14.445
82393W        W41489  10.244  14.620   2.744
82394W        W41490  15.591   7.690   3.662
82395W        W41491  44.322   7.360   1.776
82396W        W41492  23.513  31.438  14.950
82397W        W41493  40.845  21.047   4.115
82398W        W41494   0.472  34.407   4.221
82399W        W41495  20.068   3.292  13.525
82400W        W41496   0.906  33.087   0.313
82401W        W41497   7.395  30.468  13.909
82402W        W41498  12.664  16.685  14.781
82403W        W41499  16.664   3.300  11.449
82404W        W41500  27.624  18.111   4.768
82405W        W41501  38.400  29.167  13.997
82406W        W41502  42.859  24.668  10.594
82407W        W41503   6.345  22.054  11.005
82408W        W41504  44.868   7.767  12.953
82409W        W41505   8.664  12.652  14.390
82410W        W41506  27.626  11.735  11.498
82411W        W41507  29.618  44.862  10.513
82412W        W41508  32.600  36.919  14.494
82413W        W41509  44.468  31.579  12.840
82414W        W41510  32.628  33.546  10.096
82415W        W41511  39.928  15.687   3.744
82416W        W41512  37.925  11.223   3.214
82417W        W41513  39.535   8.694  11.024
82418W        W41514  33.893  18.781  12.069
82419W        W41515  23.198  29.928  12.921
82420W        W41516  26.091  26.138   2.817
82421W        W41517  31.136  44.363  11.591
82422W        W41518  20.735  22.066   0.842
82423W        W41519   5.379  29.172  11.510
82424W        W41520  24.595   7.787   3.809
82425W        W41521   3.328  12.850  12.422
82426W        W41522   0.375  34.868   0.243
82427W        W41523  21.526   5.238  14.826
82428W        W41524  11.825  34.947  11.468
82429W        W41525  37.534   2.890  14.934
82430W        W41526  40.852  11.340   5.618
82431W        W41527  28.437  19.050   9.492
82432W        W41528  11.776  17.603  13.462
82433W        W41529   1.246  14.143  14.373
82434W        W41530   0.368  32.063  12.954
82435W        W41531  11.250  10.183   3.289
82436W        W41532  18.612   1.859   2.396
82437W        W41533  11.365  32.015   2.316
82438W        W41534  42.375  27.456   0.964
82439W        W41535  21.039  38.859  13.479
82440W        W41536  41.980  38.995   0.260
82441W        W41537  27.190   5.411   3.729
82442W        W41538  34.379  17.758  14.358
82443W        W41539  39.505  36.495   2.382
82444W        W41540  39.470  15.689   4.650
82445W        W41541  16.667  36.913   2.221
82446W        W41542  17.645   9.768   2.895
82447W        W41543  11.710  23.615  10.475
82448W        W41544  39.030  35.088  12.545
82449W        W41545  39.840   1.337  14.864
82450W        W41546  25.058  38.470   1.262
82451W        W41547   1.770  23.716   1.801
82452W        W41548  32.135  34.407  11.034
82453W        W41549  33.435  36.845  14.999
82454W        W41550   6.748  35.937   4.282
82455W        W41551  44.920  33.439  12.986
82456W        W41552  34.051   7.723  11.113
82457W        W41553  33.958  29.489   2.745
82458W        W41554  22.033   3.931   1.827
82459W        W41555   8.749  43.828  10.558
82460W        W41556  32.047   2.965   3.154
82461W        W41557  10.223   1.237   3.706
82462W        W41558   3.888   7.218  10.445
82463W        W41559  28.493  14.206  10.982
82464W        W41560  11.213  41.929  14.474
82465W        W41561  23.160   2.905   0.469
82466W        W41562  36.590  29.111   4.209
82467W        W41563  15.757  16.647   2.384
82468W        W41564  11.370   5.210  14.339
82469W        W41565  25.543  32.071   2.868
82470W        W41566  21.617  19.129  11.915
82471W        W41567  15.213   5.926   2.723
82472W        W41568  21.065  39.952   3.220
82473W        W41569  13.110  22.598  11.473
82474W        W41570  20.734  14.807  11.609
82475W        W41571  38.415  23.122  10.449
82476W        W41572  33.908  17.564  11.449
82477W        W41573  32.453   5.827   4.213
82478W        W41574  30.516  25.965   2.755
82479W        W41575   6.885  11.226   2.332
82480W        W41576  10.658  24.073  14.944
82481W        W41577  17.698  12.824  13.055
82482W        W41578  32.974  25.105  14.486
82483W        W41579  43.870   7.295  14.507
82484W        W41580  31.018   1.312  10.464
82485W        W41581  11.656  15.145   1.756
82486W        W41582  20.263  28.144  12.922
82487W        W41583   7.799  32.919  13.874
82488W        W41584  10.347   7.791  11.872
82489W        W41585  42.994  32.397  13.994
82490W        W41586   3.923  33.949  13.833
82491W        W41587  31.041  24.049   3.155
82492W        W41588   2.397  28.150   2.900
82493W        W41589  21.218   2.259  12.019
82494W        W41590  41.345  31.941   2.716
82495W        W41591  42.413  14.111  14.818
82496W        W41592  19.112  23.562   4.172
82497W        W41593  25.681  18.086   2.901
82498W        W41594  33.979  33.977  11.380
82499W        W41595  33.129   7.726   4.339
82500W        W41596  14.134   9.790  12.449
82501W        W41597  34.566   3.917  10.619
82502W        W41598  29.173  41.834  11.992
82503W        W41599  18.243  37.582  10.914
82504W        W41600  27.056  44.260  12.446
82505W        W41601   5.219   6.206  10.638
82506W        W41602  33.574   6.412  12.834
82507W        W41603  26.671  23.137   2.376
82508W        W41604  16.180  23.501  13.822
82509W        W41605  24.180  29.979   3.196
82510W        W41606   3.808  41.538  13.961
82511W        W41607  22.241  30.418  11.539
82512W        W41608  12.217   8.732   1.848
82513W        W41609  36.061   4.381  12.907
82514W        W41610  14.222   1.731  14.980
82515W        W41611   8.846  40.500  10.567
82516W        W41612  29.637  30.087   4.729
82517W        W41613  38.070  31.571  13.913
82518W        W41614   8.252  17.109  14.938
82519W        W41615  38.326  21.250   5.218
82520W        W41616  40.862  40.351  12.451
82521W        W41617  24.066   7.779  14.284
82522W        W41618  42.951   0.390   4.791
82523W        W41619   3.845  40.837   0.307
82524W        W41620  36.360  20.608  12.057
82525W        W41621  38.942  20.568   2.357
82526W        W41622  39.966  20.085  13.386
82527W        W41623  28.972  44.452  11.879
82528W        W41624   2.276  41.887   3.248
82529W        W41625  32.480  31.070  10.958
82530W        W41626  24.573   5.704  12.453
82531W        W41627   4.343  43.801  11.019
82532W        W41628   1.419  33.550  11.559
82533W        W41629  25.602  27.984  11.861
82534W        W41630  42.809   1.301  14.487
82535W        W41631  37.451  31.468  12.531
82536W        W41632  34.989   9.275  12.834
82537W        W41633  11.341  36.951  13.876
82538W        W41634  13.165   6.804  13.548
82539W        W41635   0.253  39.437  11.497
82540W        W41636  32.566  26.031   1.694
82541W        W41637  26.590  11.134  12.404
82542W        W41638  29.584  30.522   3.305
82543W        W41639  11.228  12.336  10.966
82544W        W41640  18.120  30.068   3.656
82545W        W41641  15.164  10.138  10.517
82546W        W41642  11.146   8.280  11.557
82547W        W41643  12.663  19.056   1.837
82548W        W41644  14.601  34.556  13.436
82549W        W41645  35.976   3.955   4.660
82550W        W41646   1.395  41.915   3.382
82551W        W41647  13.623  34.391   1.222
82552W        W41648  21.603   2.740   2.217
82553W        W41649  14.177   2.879  10.586
82554W        W41650   0.853  43.943   4.196
82555W        W41651   4.383  25.214   0.349
82556W        W41652  32.972  30.535   0.287
82557W        W41653  43.312   8.810  14.991
82558W        W41654  19.662   9.690  12.367
82559W        W41655   4.325  31.478   3.836
82560W        W41656  13.619  27.525  13.444
82561W        W41657  29.027  35.073  13.963
82562W        W41658  25.642  35.363  13.019
82563W        W41659   3.773  23.670  13.972
82564W        W41660  24.054  10.718   5.317
82565W        W41661  19.145  25.122  11.901
82566W        W41662  29.038   1.881   0.476
82567W        W41663  39.899  10.254  14.007
82568W        W41664  16.174  17.235   3.808
82569W        W41665  18.710  33.005  10.575
82570W        W41666  42.995  34.872   3.365
82571W        W41667  40.308  38.831   3.205
82572W        W41668  33.963   4.394   1.421
82573W        W41669   1.449  36.024  13.957
82574W        W41670   1.437  26.101   1.839
82575W        W41671  34.889  33.418   0.964
82576W        W41672   4.932  30.532  11.577
82577W        W41673  39.863  29.581   1.748
82578W        W41674   4.270  21.088   0.342
82579W        W41675  19.620   0.264  10.495
82580W        W41676  17.262  20.088   9.995
82581W        W41677  20.737  17.581  12.961
82582W        W41678  16.720  13.226   4.765
82583W        W41679  20.535  25.568   0.769
82584W        W41680  41.460  25.657  12.375
82585W        W41681  38.446  42.397  14.772
82586W        W41682  22.686  25.673   4.277
82587W        W41683  22.135  11.297   1.378
82588W        W41684  20.565   0.769   0.287
82589W        W41685   3.860  43.331   3.755
82590W        W41686  28.539  17.755   2.413
82591W        W41687   9.828  42.356  14.350
82592W        W41688   9.878  14.142  11.031
82593W        W41689   4.924  27.615   3.861
82594W        W41690   3.864  20.241   1.802
82595W        W41691  29.060  13.667  11.398
82596W        W41692  31.992   7.859  12.411
82597W        W41693  25.991   5.252   4.655
82598W        W41694  24.623  33.998   1.250
82599W        W41695   2.317  34.914  14.417
82600W        W41696  23.024  44.359   3.305
82601W        W41697   1.892  34.395  10.588
82602W        W41698   9.251  25.202   1.267
82603W        W41699  19.579   1.939   3.713
82604W        W41700   3.276  37.508   0.788
82605W        W41701   6.749  19.203  12.889
82606W        W41702  12.811  42.884  12.534
82607W        W41703  29.458  18.255   5.229
82608W        W41704   4.336   1.809  13.969
82609W        W41705  14.279  40.363   4.162
82610W        W41706  34.609  18.772   1.805
82611W        W41707  12.202  15.756   2.680
82612W        W41708  40.511  30.450   4.292
82613W        W41709  35.911  20.138   4.808
82614W        W41710  33.998  14.791  13.497
82615W        W41711  21.262  15.161   2.408
82616W        W41712  36.416  29.133  14.823
82617W        W41713  40.439  39.500   2.813
82618W        W41714   7.709   5.893   1.818
82619W        W41715  38.833  15.626   3.377
82620W        W41716  30.965   4.224  11.443
82621W        W41717  31.597   2.879  12.444
82622W        W41718  20.154   8.357   0.245
82623W        W41719  30.562  39.041   3.194
82624W        W41720  41.022  35.539   4.676
82625W        W41721  36.371  21.263   3.726
82626W        W41722  25.051  43.983  12.503
82627W        W41723  26.952  39.560   1.349
82628W        W41724  35.013  15.758  12.867
82629W        W41725  30.574  17.106   0.258
82630W        W41726  20.525   9.761   4.274
82631W        W41727  14.200  11.200   3.699
82632W        W41728  26.468  17.097  13.430
82633W        W41729  17.284  35.900   2.233
82634W        W41730  35.079  23.736   5.729
82635W        W41731  37.030  44.296   2.827
82636W        W41732  18.581  40.847   2.730
82637W        W41733  30.037   0.777  10.562
82638W        W41734  18.178  38.522  13.368
82639W        W41735  32.029   7.738   5.221
82640W        W41736  21.745  17.128  11.384
82641W        W41737   1.404  32.086   3.636
82642W        W41738  30.004  27.641   3.171
82643W        W41739   7.732  34.966   1.832
82644W        W41740  29.570   8.177  12.435
82645W        W41741   2.413  35.518   4.726
82646W        W41742  28.033  23.069   2.371
82647W        W41743  36.497  29.952  13.328
82648W        W41744   0.407   1.326   4.224
82649W        W41745  20.234  18.579   0.423
82650W        W41746  21.112  32.006   3.194
82651W        W41747  22.006  29.450  13.353
82652W        W41748  39.382  10.746  11.434
82653W        W41749  22.201  27.678  10.988
82654W        W41750   7.696   7.842   2.727
82655W        W41751  10.799  35.558  10.943
82656W        W41752  12.157  22.033   2.253
82657W        W41753  10.245  10.868  10.159
82658W        W41754  29.173  33.528   3.673
82659W        W41755  28.168  13.707  13.368
82660W        W41756  11.319   4.254   2.339
82661W        W41757   9.319  12.700  13.849
82662W        W41758  44.880  26.095  13.952
82663W        W41759  42.984   4.219   0.387
82664W        W41760  13.813  12.639   3.722
82665W        W41761  40.482  33.982   4.247
82666W        W41762  11.169  29.951  14.369
82667W        W41763  31.036  31.420  11.990
82668W        W41764   0.309  11.844   3.204
82669W        W41765  30.085   6.828   1.223
82670W        W41766  36.851  21.184   4.178
82671W        W41767  14.719  31.103  14.953
82672W        W41768  29.069  22.170  14.401
82673W        W41769  41.999   8.323   4.648
82674W        W41770  44.286   7.719   0.837
82675W        W41771  32.958  15.181  10.903
82676W        W41772   5.294  41.474   1.411
82677W        W41773  32.612   9.767   3.345
82678W        W41774   2.865  39.886   2.184
82679W        W41775  14.242  13.116   5.164
82680W        W41776   5.272  27.495  11.999
82681W        W41777  34.117   4.785   1.386
82682W        W41778   5.436  35.970  12.410
82683W        W41779  33.096   4.831  13.915
82684W        W41780   4.444   9.731  12.467
82685W        W41781  10.712  25.972   3.809
82686W        W41782  32.102   8.172  14.837
82687W        W41783   3.876  21.115   4.191
82688W        W41784  35.603   5.874  10.892
82689W        W41785  23.177  40.303   1.793
82690W        W41786  16.298   4.213   4.240
82691W        W41787  44.818  41.323  14.499
82692W        W41788  11.629  11.249  11.402
82693W        W41789  11.335  25.011   0.901
82694W        W41790  22.679  36.537  10.926
82695W        W41791  33.448   0.860  14.484
82696W        W41792  10.796  13.611   3.213
82697W        W41793  23.612  15.227   4.175
82698W        W41794  30.023  44.323  13.545
82699W        W41795  43.824  44.300   0.270
82700W        W41796  38.358   3.370   0.398
82701W        W41797  29.581  19.223  13.373
82702W        W41798   1.246   1.947   3.801
82703W        W41799  12.229  37.866  14.390
82704W        W41800  44.465  25.700   2.871
82705W        W41801  12.822  42.993   1.378
82706W        W41802  23.699  31.960  13.894
82707W        W41803  27.012  40.870   2.385
82708W        W41804  36.402  21.142  13.831
82709W        W41805  32.901  22.588  10.075
82710W        W41806  16.626  30.590  12.553
82711W        W41807  32.443  18.675   1.931
82712W        W41808  24.618  36.991   3.863
82713W        W41809  11.222  12.824   0.753
82714W        W41810  35.400  32.631   3.234
82715W        W41811   9.373   7.675   0.935
82716W        W41812  25.545  40.544  10.514
82717W        W41813  12.640  14.103   1.714
82718W        W41814  33.574   9.182   5.154
82719W        W41815   1.356  14.266  12.442
82720W        W41816  32.583  29.943   0.288
82721W        W41817  14.668  13.768   2.231
82722W        W41818  30.912  17.135   4.785
82723W        W41819  12.624   8.307   2.711
82724W        W41820  18.145  31.126  11.903
82725W        W41821  27.187   9.278   0.447
82726W        W41822  24.124   1.754   4.667
82727W        W41823  16.128  16.624  10.585
82728W        W41824  11.710  14.200  10.065
82729W        W41825   2.246   0.360   3.298
82730W        W41826   0.477  41.381   3.175
82731W        W41827   7.911   7.794   1.813
82732W        W41828  11.807   6.331   0.310
82733W        W41829  43.448   0.284  10.573
82734W        W41830  37.575  27.014  11.993
82735W        W41831   3.917  41.858   0.938
82736W        W41832   7.380  18.551   1.353
82737W        W41833   1.931  23.594   3.773
82738W        W41834   0.847  25.086   4.689
82739W        W41835   7.695  12.828   4.132
82740W        W41836   4.348  18.149   4.731
82741W        W41837  18.149  41.793  14.279
82742W        W41838  37.853  43.996   4.796
82743W        W41839  20.100   2.466  11.049
82744W        W41840  43.330  42.921   2.374
82745W        W41841  18.094  18.663   3.267
82746W        W41842  34.938   2.937   4.309
82747W        W41843   6.359  40.904  13.958
82748W        W41844  41.968  25.029  14.965
82749W        W41845  29.087  34.397   5.116
82750W        W41846  36.491  23.611  13.472
82751W        W41847   1.903  10.771   2.719
82752W        W41848  41.929  13.601  11.377
82753W        W41849  41.884  28.094   4.270
82754W        W41850  15.790  34.408  14.893
82755W        W41851   7.771  21.718   1.735
82756W        W41852  27.156  38.513  13.392
82757W        W41853   2.242  24.206   2.234
82758W        W41854  36.914   4.847  12.447
82759W        W41855  37.406   0.330  14.340
82760W        W41856  36.920   8.225   0.307
82761W        W41857  17.075  35.871  11.887
82762W        W41858   5.205  17.218  12.493
82763W        W41859   5.847  26.621   0.334
82764W        W41860  41.031  20.166  11.058
82765W        W41861  28.127  38.017   3.187
82766W        W41862  28.528   2.345  14.858
82767W        W41863  35.069  20.635  10.544
82768W        W41864  22.533  14.267  10.513
82769W        W41865  21.723  38.515   0.449
82770W        W41866  36.894  27.197  10.559
82771W        W41867  12.726   0.948   2.788
82772W        W41868  22.514  26.998  14.292
82773W        W41869   2.862  32.404  13.442
82774W        W41870  18.755  24.597   0.363
82775W        W41871   0.773  32.513   1.908
82776W        W41872  15.795  26.140  13.908
82777W        W41873  29.141  31.930   4.622
82778W        W41874  27.083  24.054   4.767
82779W        W41875  35.371  17.271   4.628
82780W        W41876   2.418  34.472  13.807
82781W        W41877  35.909  18.197   3.664
82782W        W41878  25.496   0.747  14.381
82783W        W41879  37.086  38.336  11.439
82784W        W41880  40.379  22.194  13.506
82785W        W41881  16.590  35.485   2.318
82786W        W41882  26.483  41.974  14.829
82787W        W41883  15.766  33.062   0.819
82788W        W41884  37.437   6.275   3.267
82789W        W41885  17.179  13.134   0.755
82790W        W41886  19.563   5.263   4.308
82791W        W41887  27.123   5.822   0.386
82792W        W41888  32.954  32.081  10.904
82793W        W41889  41.460  17.206  13.346
82794W        W41890  29.947  38.424   0.741
82795W        W41891  39.510   9.274  11.613
82796W        W41892  34.582   9.366  12.529
82797W        W41893  22.735  30.117   3.819
82798W        W41894   7.320  22.043   0.757
82799W        W41895  28.098  11.802   3.187
82800W        W41896  23.058  42.423   4.603
82801W        W41897   1.733   3.757   1.415
82802W        W41898  10.808  30.075  14.941
82803W        W41899  40.928  43.985  11.391
82804W        W41900  40.936  41.354   4.770
82805W        W41901   6.282  34.540   4.674
82806W        W41902  35.590  31.453  10.452
82807W        W41903  30.588   1.289   4.122
82808W        W41904  36.441  30.608  14.380
82809W        W41905  23.624  41.378   4.654
82810W        W41906  13.149  18.583  12.087
82811W        W41907  14.280  38.832   2.256
82812W        W41908  40.400   1.365  11.865
82813W        W41909   6.358  28.601  13.047
82814W        W41910   4.849  35.477   2.312
82815W        W41911  30.431  20.634   4.652
82816W        W41912  17.296  31.012   3.208
82817W        W41913  39.411  11.693  12.078
82818W        W41914  16.726  44.392  13.919
82819W        W41915  15.742  16.650   3.827
82820W        W41916   8.222   8.843  12.356
82821W        W41917  34.056  26.486   9.444
82822W        W41918  20.092  37.563   1.246
82823W        W41919   1.840  22.573  11.053
82824W        W41920  36.363  38.976   1.303
82825W        W41921  24.030  18.125  13.490
82826W        W41922  24.111   6.689  10.471
82827W        W41923  28.979  41.008  11.577
82828W        W41924  15.628  13.814   2.307
82829W        W41925  44.986  35.962  14.863
82830W        W41926  24.034  26.199  13.465
82831W        W41927  11.199  43.358   0.358
82832W        W41928  35.413  12.824   1.889
82833W        W41929  29.173   9.297  13.013
82834W        W41930  41.939  17.135  12.527
82835W        W41931   7.417  22.023  11.399
82836W        W41932  32.554  35.992   0.921
82837W        W41933  11.368  31.427   3.764
82838W        W41934  41.428  33.529  14.935
82839W        W41935  14.622  31.936   3.640
82840W        W41936   3.413  39.544  11.937
82841W        W41937  27.631  43.311   2.288
82842W        W41938   1.269  18.097   0.735
82843W        W41939  38.848  43.273  13.359
82844W        W41940  15.298  38.881   0.364
82845W        W41941   9.345  17.633   0.772
82846W        W41942  25.560   4.940   0.846
82847W        W41943  36.035   6.258   4.838
82848W        W41944  27.169   2.901  14.907
82849W        W41945  37.870  19.046   4.261
82850W        W41946  18.220  11.656   4.188
82851W        W41947  40.498  16.590  11.610
82852W        W41948   0.454  23.056  14.973
82853W        W41949  33.885   8.726  14.789
82854W        W41950  11.369  12.746   1.879
82855W        W41951  21.167  44.853  13.529
82856W        W41952   9.305  21.145   2.896
82857W        W41953  23.055  15.777   4.214
82858W        W41954   8.373  35.971  13.397
82859W        W41955  21.184  23.018  14.411
82860W        W41956   1.885  11.762   2.674
82861W        W41957  44.979  28.564  11.605
82862W        W41958  36.051   8.748  14.368
82863W        W41959  15.630   7.719   4.320
82864W        W41960  30.443  39.331  12.394
82865W        W41961  42.347  10.305   1.827
82866W        W41962  20.194  21.033   9.921
82867W        W41963  34.527   3.426  12.540
82868W        W41964  17.738   9.693   0.749
82869W        W41965  19.122   4.390   3.789
82870W        W41966  31.621   9.377   2.747
82871W        W41967  33.620   9.254   1.748
82872W        W41968  30.513  15.772   2.857
82873W        W41969  34.568  20.161   4.220
82874W        W41970  31.614  23.089   4.334
82875W        W41971  31.932  37.859   0.400
82876W        W41972   7.720   3.717   0.938
82877W        W41973  17.094  11.718  14.506
82878W        W41974  15.709  27.187   1.703
82879W        W41975  31.028  44.394   4.347
82880W        W41976  18.710  12.229  14.992
82881W        W41977   9.875  22.604  13.889
82882W        W41978   6.372   7.838   3.703
82883W        W41979   3.259  18.594   2.672
82884W        W41980  27.588   0.835  12.392
82885W        W41981  34.437  28.076  11.911
82886W        W41982  22.221  10.159   1.881
82887W        W41983  18.203   2.837   1.788
82888W        W41984  23.667  19.766   3.773
82889W        W41985  25.516   5.344   1.932
82890W        W41986  16.680  10.820   5.240
82891W        W41987  14.760  34.537  14.285
82892W        W41988  35.021  25.662   4.135
82893W        W41989  32.414  12.621  12.075
82894W        W41990  28.006  38.329   1.392
82895W        W41991   9.266  17.252   4.684
82896W        W41992  30.420  30.608  10.900
82897W        W41993   6.206  38.522   3.698
82898W        W41994   4.306  20.089   4.251
82899W        W41995  42.011  16.190   2.340
82900W        W41996  44.762  41.032   4.695
82901W        W41997  20.057  23.676   1.922
82902W        W41998   2.817  15.285   1.412
82903W        W41999  27.006  20.222  13.501
82904W        W42000  12.847  21.177  11.008
82905W        W42001   6.373  17.643  13.820
82906W        W42002   1.434  11.814  10.905
82907W        W42003  23.234  24.162  11.586
82908W        W42004  16.652   8.179  12.406
82909W        W42005  19.109   4.862  11.469
82910W        W42006  42.794  21.190  12.349
82911W        W42007  41.880  29.139   4.144
82912W        W42008  24.530  11.790   0.379
82913W        W42009   9.704  12.673   1.933
82914W        W42010  39.402  43.338  11.604
82915W        W42011  31.072  14.206   5.304
82916W        W42012  23.021  35.051   0.281
82917W        W42013   7.266  21.077  11.897
82918W        W42014  11.264  10.316  12.404
82919W        W42015   3.756  40.990  10.927
82920W        W42016   3.424  43.382   0.414
82921W        W42017  18.166  11.251  11.576
82922W        W42018   0.283  44.466  12.485
82923W        W42019  23.029  36.881  12.484
82924W        W42020  14.727  30.031  12.559
82925W        W42021  23.115  29.460  13.421
82926W        W42022  14.189  18.209  10.900
82927W        W42023  31.629  30.074   1.389
82928W        W42024  26.017  13.606  14.303
82929W        W42025   9.366  23.182   3.343
82930W        W42026  42.780  22.177   1.374
82931W        W42027  31.007  32.047  11.878
82932W        W42028  44.328  39.398  14.796
82933W        W42029   8.342  40.424  14.415
82934W        W42030  13.251   9.798  14.365
82935W        W42031  34.878   0.334   1.408
82936W        W42032  20.209  35.508   4.753
82937W        W42033   2.277  36.588  14.946
82938W        W42034   7.359  40.836   0.966
82939W        W42035  12.738  21.039   3.696
82940W        W42036   5.242  10.218   2.315
82941W        W42037  35.069  22.189   1.935
82942W        W42038  25.118  43.004   3.162
82943W        W42039  17.288   0.388  11.087
82944W        W42040   3.330   9.379  11.859
82945W        W42041  15.791  14.693   2.274
82946W        W42042  33.617  31.961  14.842
82947W        W42043  15.770   6.237   1.922
82948W        W42044  26.052   6.236  12.463
82949W        W42045  39.019  27.537   4.284
82950W        W42046  34.433  39.916   0.400
82951W        W42047  15.609  31.075  11.600
82952W        W42048  37.383  35.067  13.374
82953W        W42049  37.030  40.836   2.350
82954W        W42050  37.363  29.642  13.500
82955W        W42051  31.462  15.106  12.373
82956W        W42052   8.741  32.112   2.731
82957W        W42053  32.619  18.198  11.390
82958W        W42054  31.147   3.897  10.960
82959W        W42055  27.942   9.201   2.818
82960W        W42056   8.828  13.320   3.655
82961W        W42057  33.552  13.154   4.202
82962W        W42058  14.234   6.748  11.103
82963W        W42059  28.988  40.367   3.360
82964W        W42060  11.306  32.536  14.766
82965W        W42061   4.441  24.707  13.403
82966W        W42062   2.407   8.871  10.475
82967W        W42063   7.244  10.174  11.086
82968W        W42064   6.854  33.607   2.211
82969W        W42065  20.270  41.354   1.848
82970W        W42066  38.926   2.391   4.839
82971W        W42067   8.874   2.749   1.444
82972W        W42068  15.095  24.151  14.345
82973W        W42069  29.175  16.099  10.600
82974W        W42070  40.967  21.634  10.445
82975W        W42071  43.951  19.104  14.403
82976W        W42072  16.215  24.704   1.376
82977W        W42073  32.994  13.188   9.442
82978W        W42074   3.953  43.844   4.794
82979W        W42075  12.200  28.054  13.965
82980W        W42076  12.853   8.345  14.330
82981W        W42077  33.582   3.234   2.300
82982W        W42078   7.754  36.392   0.421
82983W        W42079  15.741  13.803   2.696
82984W        W42080   6.251  20.578  13.402
82985W        W42081  39.433  36.916  13.022
82986W        W42082  25.567  26.486  13.939
82987W        W42083  25.529  40.855   2.300
82988W        W42084  18.579  37.916  12.406
82989W        W42085  30.102  34.389   0.302
82990W        W42086   4.739  39.391  14.990
82991W        W42087  21.100  19.778   3.186
82992W        W42088  28.947   3.735  14.277
82993W        W42089  38.938   4.794  10.952
82994W        W42090  12.628  16.704  10.144
82995W        W42091  35.509   0.281  11.378
82996W        W42092  23.074  16.216  13.859
82997W        W42093  40.406   1.807   2.313
82998W        W42094  11.210  33.035   3.156
82999W        W42095  44.407  13.754  13.515
83000W        W42096  29.619   2.314   3.770
83001W        W42097  41.986  11.321  12.413
83002W        W42098   4.842   2.733   4.818
83003W        W42099  33.402  39.870  13.400
83004W        W42100  31.948   8.280   4.258
83005W        W42101  15.710   0.836   1.931
83006W        W42102  20.155   6.421  13.415
83007W        W42103   5.364   3.407  14.466
83008W        W42104  36.448  44.479  13.519
83009W        W42105  17.664   3.267   4.161
83010W        W42106  36.357   9.855   3.305
83011W        W42107  28.467  34.867   3.311
83012W        W42108  30.996  10.269   0.832
83013W        W42109  24.022   2.333  12.916
83014W        W42110   4.397   6.362   0.964
83015W        W42111  32.500   9.373  11.386
83016W        W42112  14.295  44.831  13.335
83017W        W42113   2.858  34.428   1.880
83018W        W42114   5.298   2.869   4.156
83019W        W42115  28.442  29.016  12.365
83020W        W42116  40.443  10.823   9.498
83021W        W42117  40.462   9.740   3.280
83022W        W42118  25.506  35.882  13.442
83023W        W42119  41.328   2.381  10.611
83024W        W42120  26.583  37.435  10.893
83025W        W42121  23.711  21.212   3.225
83026W        W42122  28.131  17.115   2.743
83027W        W42123  26.141  13.324  11.053
83028W        W42124   1.473  15.593   1.884
83029W        W42125  14.268  26.032  12.902
83030W        W42126   7.832  16.097  11.520
83031W        W42127  17.189  11.818   5.290
83032W        W42128  27.616  26.036  11.119
83033W        W42129  19.078   3.351   3.198
83034W        W42130  32.535  29.568   1.263
83035W        W42131  40.044   5.770  11.059
83036W        W42132   8.895   6.736   1.442
83037W        W42133  20.095   5.826  13.477
83038W        W42134  11.805   7.240   4.350
83039W        W42135  30.127   4.914   2.314
83040W        W42136   2.387  43.860   3.838
83041W        W42137   6.343  19.631  11.383
83042W        W42138  39.525  26.609   5.166
83043W        W42139  41.907  17.148  11.962
83044W        W42140   3.448  16.774  14.490
83045W        W42141   9.307   3.418   1.775
83046W        W42142  17.757  26.968  12.870
83047W        W42143  26.629  15.186  14.946
83048W        W42144  24.135  37.985  13.040
83049W        W42145  13.651  39.506   1.885
83050W        W42146  22.746  24.691   4.730
83051W        W42147  33.953  16.611   3.336
83052W        W42148  26.698  22.572   3.222
83053W        W42149   6.875  32.630   2.224
83054W        W42150   0.261  36.967  12.341
83055W        W42151  10.756  35.978   4.226
83056W        W42152  32.979  18.623   2.300
83057W        W42153  14.202   8.274  11.967
83058W        W42154  41.872  13.314  14.322
83059W        W42155  36.950  15.792  13.845
83060W        W42156  27.600   7.308   0.357
83061W        W42157  27.012  13.183   3.778
83062W        W42158  11.754  35.040   4.643
83063W        W42159  40.937   2.722  13.399
83064W        W42160  32.897  35.556   4.602
83065W        W42161  34.075  32.002  14.790
83066W        W42162  12.361  33.599   0.805
83067W        W42163  12.229  27.512  11.379
83068W        W42164   4.869  17.174  13.409
83069W        W42165  29.532  32.021   4.233
83070W        W42166  18.257  25.032   1.368
83071W        W42167  10.841  39.912   2.307
83072W        W42168  26.563  27.954  14.955
83073W        W42169  39.001  21.039  14.006
83074W        W42170  16.098  44.875  13.865
83075W        W42171   8.186  23.534  14.358
83076W        W42172   3.787  34.565  11.551
83077W        W42173  12.833  15.297   4.249
83078W        W42174  10.803   1.895   3.162
83079W        W42175  13.710  39.541  11.022
83080W        W42176  31.575   6.295   4.245
83081W        W42177   3.935  30.104   1.712
83082W        W42178  15.272   7.756   3.803
83083W        W42179  21.525  36.369  13.806
83084W        W42180  17.769   8.221  13.801
83085W        W42181   2.308  44.796   3.303
83086W        W42182  33.595  30.909   4.221
83087W        W42183  23.657  21.750   2.271
83088W        W42184  36.438  39.339   3.235
83089W        W42185  42.370  14.623  11.416
83090W        W42186  21.196  21.757   3.631
83091W        W42187  38.880  17.590  12.035
83092W        W42188  10.668  10.338  14.898
83093W        W42189  30.049   6.720   0.803
83094W        W42190  40.479  42.346   0.339
83095W        W42191  11.235  28.074  10.956
83096W        W42192  42.940  22.714  14.927
83097W        W42193   8.798  31.514  13.829
83098W        W42194   3.273  13.244   5.191
83099W        W42195   5.819  29.553   5.185
83100W        W42196  11.849   2.880  11.926
83101W        W42197  43.925  14.692  12.916
83102W        W42198  33.970  36.373  13.438
83103W        W42199  31.980  19.655  13.803
83104W        W42200  42.322  35.497   3.151
83105W        W42201  18.068  16.122   2.856
83106W        W42202  26.149  12.342   2.813
83107W        W42203  34.902  19.280   0.268
83108W        W42204   9.365   5.378  11.943
83109W        W42205  22.609  26.156   3.666
83110W        W42206  44.963  39.361  10.621
83111W        W42207  26.493  26.168  14.919
83112W        W42208   3.896  13.185  13.877
83113W        W42209  23.696  24.662   1.804
83114W        W42210  11.781  27.552  14.949
83115W        W42211  30.461  43.509   4.250
83116W        W42212   2.942   4.232   0.840
83117W        W42213  39.486   6.852   2.221
83118W        W42214   3.379  34.011   0.305
83119W        W42215   0.271  19.158  13.485
83120W        W42216  25.623   3.360  12.983
83121W        W42217  19.741   7.275  14.348
83122W        W42218   6.742   7.735  12.913
83123W        W42219  16.790  21.667  12.466
83124W        W42220   3.909   5.702  12.425
83125W        W42221  33.441  19.232  10.490
83126W        W42222  18.558  38.906   1.395
83127W        W42223  11.180   2.844  10.422
83128W        W42224  32.626  13.166   1.769
83129W        W42225  32.633  17.218   0.964
83130W        W42226  26.975  20.176  14.817
83131W        W42227   1.753  30.034  12.526
83132W        W42228  32.061  33.967   1.420
83133W        W42229  43.876   4.881   1.443
83134W        W42230  35.087  10.327   0.340
83135W        W42231  37.404  22.112  10.140
83136W        W42232  11.692  37.944   3.342
83137W        W42233  40.916  43.865  13.475
83138W        W42234   2.355  23.500   1.746
83139W        W42235  32.911  19.701   3.664
83140W        W42236  28.143  22.115  10.597
83141W        W42237  40.852  10.344   0.900
83142W        W42238  13.189  31.477   5.182
83143W        W42239  12.856  14.681  13.900
83144W        W42240  40.370   7.668  13.031
83145W        W42241  33.097  35.019  13.860
83146W        W42242  19.140  43.844  11.420
83147W        W42243   5.370  34.864   0.836
83148W        W42244   7.896  39.064  14.879
83149W        W42245   5.250  29.573   3.280
83150W        W42246   2.413  27.669   2.805
83151W        W42247  29.437  12.679   2.814
83152W        W42248  19.071  13.237  14.319
83153W        W42249  37.034  20.558  14.377
83154W        W42250  18.261  36.990  14.931
83155W        W42251  34.419  37.544  14.323
83156W        W42252  20.270  37.932  13.523
83157W        W42253  16.722  42.464  14.823
83158W        W42254   4.787  26.204   1.928
83159W        W42255  34.462   8.818  14.830
83160W        W42256  21.207  11.791   4.748
83161W        W42257  25.677   9.816  13.427
83162W        W42258  24.666  11.245  14.014
83163W        W42259  29.432  13.139  13.051
83164W        W42260  39.333  10.270  14.959
83165W        W42261  34.915   1.889  11.374
83166W        W42262   8.332  40.947  12.902
83167W        W42263  39.477  36.422  13.929
83168W        W42264  16.630  33.031  10.985
83169W        W42265  22.618   8.322  13.030
83170W        W42266   1.908  17.274  14.875
83171W        W42267  10.227  40.512  14.871
83172W        W42268   5.809  44.371   3.243
83173W        W42269  37.833  34.426   3.861
83174W        W42270  30.587  24.661  13.526
83175W        W42271   3.409  37.034   1.290
83176W        W42272  25.533   9.753   1.222
83177W        W42273  33.041  38.826  12.577
83178W        W42274  21.534  12.303  10.154
83179W        W42275  38.910  27.065  12.395
83180W        W42276   9.814   3.756  12.361
83181W        W42277  27.139   8.350  12.037
83182W        W42278  14.644   0.451   3.200
83183W        W42279  18.707  30.547   3.753
83184W        W42280   9.802  34.462   0.748
83185W        W42281   6.911   5.840   3.345
83186W        W42282  18.217  26.669   1.315
83187W        W42283  16.796  32.496  10.427
83188W        W42284  36.469  12.611   0.847
83189W        W42285   3.722  12.125   2.348
83190W        W42286  35.999   4.445  11.381
83191W        W42287  27.644  19.071   9.996
83192W        W42288  42.406  37.516  10.996
83193W        W42289   0.746  29.638   0.763
83194W        W42290   5.735  23.716  11.612
83195W        W42291   3.746   0.397   1.854
83196W        W42292  38.405   7.293   2.200
83197W        W42293  21.593   3.240  11.072
83198W        W42294  22.225  27.602  11.494
83199W        W42295  42.474   4.881   1.217
83200W        W42296   0.768  16.747  11.604
83201W        W42297  24.577   5.282   3.332
83202W        W42298   2.270  42.939  10.578
83203W        W42299  21.189   1.327   5.170
83204W        W42300   4.392   5.720   3.326
83205W        W42301   7.724   1.475  12.976
83206W        W42302   6.769  42.320  12.421
83207W        W42303  30.036  39.818  14.916
83208W        W42304  12.775  40.345  11.439
83209W        W42305  12.826  36.521  14.030
83210W        W42306   2.912  42.395   0.280
83211W        W42307  42.388   4.357  12.379
83212W        W42308  17.783  29.157   2.292
83213W        W42309  41.373  23.008  11.464
83214W        W42310   6.336   4.261   1.773
83215W        W42311  10.162  26.038  12.072
83216W        W42312  40.911  19.236   4.302
83217W        W42313  34.375  24.711   0.454
83218W        W42314  30.910   5.922  11.540
83219W        W42315  35.088  25.114  10.148
83220W        W42316  38.350  22.645   0.920
83221W        W42317  38.066  19.627   5.210
83222W        W42318  40.923  30.938   1.709
83223W        W42319  35.980  21.649   1.845
83224W        W42320  22.045  16.804  14.951
83225W        W42321   7.415  39.857  11.598
83226W        W42322  29.062  10.824   4.811
83227W        W42323   3.860   7.752  10.521
83228W        W42324  40.870  23.594  13.000
83229W        W42325  24.080  21.742   1.828
83230W        W42326   3.406  44.312  11.070
83231W        W42327  15.158  17.185  14.398
83232W        W42328   6.808  35.010   4.291
83233W        W42329  43.423  29.960   1.376
83234W        W42330  20.680   0.488   1.741
83235W        W42331   4.287   0.790   3.314
83236W        W42332   3.298   3.349   4.617
83237W        W42333  17.668  35.104  13.543
83238W        W42334  12.197  19.271  12.541
83239W        W42335   4.793  31.631   0.740
83240W        W42336   0.895  31.991   0.900
83241W        W42337  41.949   2.962   2.207
83242W        W42338  17.108   2.372   1.859
83243W        W42339   6.275  41.039   9.960
83244W        W42340  23.144  37.009  11.995
83245W        W42341  37.491  17.085  11.374
83246W        W42342  44.826  11.242  11.995
83247W        W42343  23.735  13.703  13.307
83248W        W42344  11.771  15.277  12.356
83249W        W42345  35.370  13.825  14.802
83250W        W42346  30.150  16.791  13.542
83251W        W42347  11.239   8.197   2.369
83252W        W42348  33.920  18.705  13.917
83253W        W42349  41.950   8.834  14.900
83254W        W42350  31.002  28.525   3.657
83255W        W42351  33.448  28.454  10.913
83256W        W42352  38.514  28.439  11.578
83257W        W42353  37.337  21.178  13.371
83258W        W42354  26.149  14.105  11.951
83259W        W42355   4.753   6.308   1.388
83260W        W42356  30.590  28.982  13.875
83261W        W42357  31.896   4.400   0.405
83262W        W42358   6.805  23.114  13.841
83263W        W42359  19.687   5.210   4.828
83264W        W42360  17.634  23.718  14.434
83265W        W42361  24.551  22.069  10.928
83266W        W42362  18.582  21.526  11.082
83267W        W42363   2.783  39.492  11.012
83268W        W42364  39.900   6.910   3.322
83269W        W42365  33.968   7.257   4.667
83270W        W42366  27.097  37.067  11.062
83271W        W42367  19.113  43.927   3.218
83272W        W42368  20.065  22.181   4.666
83273W        W42369  34.880  23.090  14.356
83274W        W42370  10.660  41.292   4.724
83275W        W42371   0.429   2.941  12.833
83276W        W42372  12.323   3.855  11.051
83277W        W42373  38.854  31.987   2.353
83278W        W42374  21.631  43.003  11.445
83279W        W42375   8.175   5.413   3.149
83280W        W42376  18.588   7.184  13.793
83281W        W42377  23.559   8.229  12.342
83282W        W42378  15.817  19.225   0.944
83283W        W42379  30.017  31.405  11.060
83284W        W42380  28.032  41.338   2.243
83285W        W42381  17.160   3.392   4.116
83286W        W42382   2.248  31.032  13.861
83287W        W42383  28.964   0.446   4.262
83288W        W42384  44.843  37.079   3.381
83289W        W42385  39.884  24.667   1.766
83290W        W42386  32.087  15.209  13.008
83291W        W42387  25.078  37.926  12.573
83292W        W42388  29.619  20.725  12.046
83293W        W42389   0.277  10.212  14.825
83294W        W42390   6.310  38.921   0.853
83295W        W42391   1.863  19.151  13.541
83296W        W42392  42.907   7.352   3.204
83297W        W42393  16.786  25.545   3.259
83298W        W42394  14.829   4.841  10.024
83299W        W42395   6.400   1.808  10.901
83300W        W42396   7.892  34.033  11.030
83301W        W42397  33.054  19.613   2.859
83302W        W42398  29.639  40.349   4.147
83303W        W42399  10.877  22.222  13.525
83304W        W42400  22.074  21.199   3.699
83305W        W42401   9.191  14.720  14.976
83306W        W42402  30.009  23.224  10.635
83307W        W42403  39.423  42.510  11.995
83308W        W42404  33.927  29.558  12.029
83309W        W42405  21.584  37.550   1.319
83310W        W42406   3.360  34.497  14.913
83311W        W42407  37.054  19.551   0.822
83312W        W42408  44.372   8.819   1.423
83313W        W42409  15.152   4.444   4.235
83314W        W42410  22.519  19.212   0.896
83315W        W42411  22.095  31.524   0.267
83316W        W42412  17.727  42.017   1.414
83317W        W42413   4.283  35.986  11.555
83318W        W42414  37.556  15.109   1.924
83319W        W42415  17.675  35.531   3.850
83320W        W42416   2.421  21.600  14.315
83321W        W42417  11.188  34.512   3.251
83322W        W42418  15.779  27.941   2.280
83323W        W42419  28.677   4.219  14.317
83324W        W42420  12.361   6.843  11.519
83325W        W42421  12.278  29.934   1.805
83326W        W42422  25.213  40.003  12.425
83327W        W42423  38.376   0.971   2.358
83328W        W42424  43.437  44.951   1.928
83329W        W42425  27.036  21.260   0.940
83330W        W42426  42.999  17.732   2.766
83331W        W42427  28.067  38.485   9.955
83332W        W42428   7.791  19.610   4.318
83333W        W42429  27.605   4.272   4.181
83334W        W42430   3.361   5.741   4.771
83335W        W42431  40.859  21.154  11.486
83336W        W42432  28.506   5.286  14.991
83337W        W42433  23.109  24.188   4.256
83338W        W42434  13.786  40.983  13.525
83339W        W42435  44.504  37.575   5.161
83340W        W42436  37.902  13.211   4.652
83341W        W42437   3.801  24.479   3.255
83342W        W42438  24.099  16.077   0.288
83343W        W42439  30.419  19.756  14.925
83344W        W42440  21.248  14.617  12.493
83345W        W42441  18.714   8.189  14.763
83346W        W42442   5.223  22.180  10.542
83347W        W42443  14.208  25.110   0.309
83348W        W42444  24.686  44.490  14.361
83349W        W42445  36.430  22.030  14.500
83350W        W42446  31.916   2.336   4.627
83351W        W42447  23.135  28.999   1.393
83352W        W42448  25.181  10.261  10.598
83353W        W42449  22.016  40.364  12.858
83354W        W42450  19.773  42.000   3.737
83355W        W42451   3.887  35.909  14.836
83356W        W42452   9.805  25.500  14.008
83357W        W42453  42.499  10.789   4.709
83358W        W42454  24.478  12.350   4.148
83359W        W42455   7.215  41.990  14.013
83360W        W42456  31.492  22.738  12.473
83361W        W42457  42.945  36.985  14.475
83362W        W42458   0.944   7.276   4.271
83363W        W42459  17.307   0.280   1.701
83364W        W42460  40.459  24.106  11.930
83365W        W42461  38.426  19.124  13.012
83366W        W42462  12.295  25.041  14.843
83367W        W42463   7.823  41.434   0.920
83368W        W42464  11.848   2.944   4.815
83369W        W42465  43.783  44.988   3.815
83370W        W42466  18.560  27.566   0.350
83371W        W42467  26.457   4.867  14.322
83372W        W42468  36.515  25.192  10.140
83373W        W42469  40.881  44.373  10.976
83374W        W42470   7.238   2.930  10.912
83375W        W42471  16.664   3.884   4.817
83376W        W42472  15.711  41.807  13.389
83377W        W42473   2.806  42.373   1.386
83378W        W42474  36.370  28.508  11.449
83379W        W42475  33.130  34.575  10.934
83380W        W42476  13.798  39.888   0.947
83381W        W42477  11.657  26.629  12.392
83382W        W42478   6.698  40.962  14.917
83383W        W42479  36.887  43.838   4.154
83384W        W42480  16.786  18.556   0.362
83385W        W42481   2.443  29.628   4.315
83386W        W42482  20.554  35.523   2.739
83387W        W42483  21.114  34.461  13.339
83388W        W42484  32.020  44.380  10.577
83389W        W42485  20.613  12.737   3.745
83390W        W42486   1.951  29.470  13.819
83391W        W42487  39.836  28.668   0.356
83392W        W42488   6.391  41.981   4.814
83393W        W42489  27.957  22.747   2.802
83394W        W42490  25.189   0.391   1.357
83395W        W42491   8.722  13.616  12.413
83396W        W42492  29.582  16.601   0.895
83397W        W42493  20.582  21.070  13.370
83398W        W42494  24.109  27.109  10.894
83399W        W42495  35.588  30.573  14.948
83400W        W42496  11.307  36.867   1.927
83401W        W42497  32.535  22.113   1.269
83402W        W42498  16.668  12.725  11.542
83403W        W42499  30.565  13.731  14.504
83404W        W42500   1.844  21.525  11.484
83405W        W42501  12.844   6.298  11.460
83406W        W42502  35.968  38.340   0.246
83407W        W42503  37.874  42.859  13.944
83408W        W42504   5.242  24.594  13.324
83409W        W42505   1.345   7.256   4.199
83410W        W42506  35.378  39.492   3.331
83411W        W42507  37.579   1.482   0.333
83412W        W42508   5.266  27.161  14.322
83413W        W42509  44.444  28.979   3.295
83414W        W42510  14.119  22.511   5.237
83415W        W42511  36.920  22.725  14.393
83416W        W42512   4.745  14.644   4.815
83417W        W42513  19.635  26.514  14.491
83418W        W42514  23.632  12.135   4.735
83419W        W42515  32.397  16.734  13.487
83420W        W42516  21.736  39.993  11.960
83421W        W42517  29.651  33.536  14.989
83422W        W42518  27.502   9.666   0.330
83423W        W42519  40.851   0.767  13.969
83424W        W42520  36.378  36.999   2.317
83425W        W42521  33.488   8.750   0.920
83426W        W42522  23.517  27.970   1.417
83427W        W42523  38.351  37.068   3.778
83428W        W42524  15.614  21.651   0.953
83429W        W42525  11.724  14.261   4.640
83430W        W42526  20.534  38.368  11.380
83431W        W42527  10.188  28.497  12.987
83432W        W42528   7.389  43.314  11.003
83433W        W42529  44.890   7.296   4.608
83434W        W42530  21.617   3.775  13.835
83435W        W42531  18.155  36.914   3.304
83436W        W42532  10.275  19.253   3.248
83437W        W42533  24.168  33.025   1.253
83438W        W42534  14.097  19.167   0.905
83439W        W42535  12.277  37.563  11.023
83440W        W42536  39.493  18.705   1.715
83441W        W42537  27.561  25.543   1.284
83442W        W42538  31.924   2.927  14.798
83443W        W42539  12.249  12.777   3.756
83444W        W42540   8.816  27.480  10.990
83445W        W42541  24.027  39.510  13.531
83446W        W42542   3.944   0.402   4.688
83447W        W42543   6.249  31.143   2.853
83448W        W42544  24.588  24.113  12.937
83449W        W42545   0.301  10.776   0.947
83450W        W42546  35.009  29.073   0.763
83451W        W42547  10.666  42.881   1.851
83452W        W42548   7.300   9.311  14.288
83453W        W42549  19.059  25.183   2.698
83454W        W42550  36.555  30.043   1.700
83455W        W42551  14.605   1.892  11.519
83456W        W42552  12.836  28.560  11.038
83457W        W42553  16.629  34.534   5.806
83458W        W42554   3.823  22.715   3.748
83459W        W42555   9.245  29.565   4.756
83460W        W42556   8.828  14.723   2.394
83461W        W42557  34.432  19.253  10.902
83462W        W42558  11.816  33.586  12.859
83463W        W42559  35.446  23.702   9.540
83464W        W42560  22.099  22.144   1.874
83465W        W42561  25.008   2.833   3.150
83466W        W42562  28.948  28.462  14.808
83467W        W42563  26.045  17.723   1.408
83468W        W42564  33.925  10.872  12.891
83469W        W42565  12.144  10.794  10.912
83470W        W42566   2.894  38.509  11.925
83471W        W42567   6.282  15.629   4.829
83472W        W42568  30.499  33.907   2.222
83473W        W42569  36.574  23.578  14.482
83474W        W42570   6.785  38.547  13.994
83475W        W42571  28.138  17.573   1.702
83476W        W42572  42.338  28.512   3.691
83477W        W42573  25.076  40.928  14.006
83478W        W42574  33.564   3.910   3.687
83479W        W42575  17.080  27.004  10.549
83480W        W42576   5.720  17.088  13.813
83481W        W42577  29.562  37.390  12.474
83482W        W42578  39.896  21.590  12.872
83483W        W42579  17.620  31.033  13.942
83484W        W42580  21.699   2.250  11.552
83485W        W42581  16.582  19.108   0.842
83486W        W42582  37.834  36.974   1.244
83487W        W42583  14.709   2.950  13.887
83488W        W42584  21.038  32.002   4.733
83489W        W42585  42.971  19.555   2.707
83490W        W42586  28.643  11.730  10.005
83491W        W42587   7.753  43.930  12.909
83492W        W42588   5.233  25.679   2.259
83493W        W42589  18.755  34.037   0.373
83494W        W42590  38.463   8.797   1.398
83495W        W42591  17.653   6.322   3.688
83496W        W42592  21.621  12.739   0.438
83497W        W42593  32.095  20.190  12.389
83498W        W42594  27.502  16.131   4.221
83499W        W42595  27.034  37.033   2.735
83500W        W42596  42.992   1.281  12.556
83501W        W42597  43.856  17.796  10.918
83502W        W42598  42.360  15.641  11.920
83503W        W42599  25.035  18.650  14.852
83504W        W42600  37.864  35.509   4.726
83505W        W42601  15.136   2.406   3.235
83506W        W42602  42.923  42.980  11.880
83507W        W42603  41.436  17.731   2.786
83508W        W42604  17.224  30.544   0.338
83509W        W42605  38.481  17.099   0.811
83510W        W42606  15.253  34.382  12.521
83511W        W42607  27.943  14.715  11.544
83512W        W42608  38.842  15.107  13.931
83513W        W42609  21.037  31.004  11.579
83514W        W42610  40.036   1.251   3.753
83515W        W42611  13.786  17.561   4.186
83516W        W42612   2.292  31.504   1.853
83517W        W42613  23.540  11.750  11.105
83518W        W42614  17.568  24.066   0.926
83519W        W42615   8.706  11.328  13.031
83520W        W42616  20.547   2.316   1.346
83521W        W42617  42.897  25.131  10.403
83522W        W42618   6.905  27.507   4.666
83523W        W42619   2.314  10.862  10.609
83524W        W42620  15.680  11.271   3.686
83525W        W42621  44.949   8.335  14.918
83526W        W42622  17.758  27.948  12.580
83527W        W42623   7.417   9.171  14.966
83528W        W42624  42.812  14.692   1.223
83529W        W42625  34.413   0.939   1.422
83530W        W42626  22.638  38.330   1.890
83531W        W42627  12.629  11.371   3.232
83532W        W42628  30.092   2.884   4.253
83533W        W42629  23.553   1.364   2.394
83534W        W42630  32.487   5.728  11.074
83535W        W42631  27.637  44.410  12.502
83536W        W42632  24.626  30.463  12.033
83537W        W42633  18.228  16.637   3.815
83538W        W42634  13.772  18.663   1.224
83539W        W42635  43.003   4.253  10.638
83540W        W42636   3.772   9.743   0.321
83541W        W42637  16.800  21.673   2.702
83542W        W42638  28.975  29.522   0.447
83543W        W42639  19.610  44.367  14.342
83544W        W42640  30.156  22.127  13.375
83545W        W42641  25.074  35.517  14.788
83546W        W42642  28.606   0.895  11.980
83547W        W42643  28.124   1.442  14.779
83548W        W42644  25.472  27.101   2.687
83549W        W42645  28.561  30.556  12.344
83550W        W42646   6.241  15.321   1.702
83551W        W42647  36.094  32.414  11.076
83552W        W42648  28.632  20.557   3.258
83553W        W42649  35.419  44.973   4.660
83554W        W42650  14.787  20.640   4.812
83555W        W42651  17.783  12.620  14.840
83556W        W42652  16.162   2.741   4.153
83557W        W42653  37.514  20.728  12.963
83558W        W42654  23.642  31.461  12.012
83559W        W42655  44.889  29.064   1.385
83560W        W42656  15.181  14.214   2.779
83561W        W42657  34.549  41.523  10.436
83562W        W42658  15.117  26.572   2.756
83563W        W42659  44.325  15.242  10.440
83564W        W42660  44.356   2.395  13.532
83565W        W42661  38.326  35.379  11.073
83566W        W42662  27.941  22.554  12.377
83567W        W42663   0.750  24.583  11.118
83568W        W42664  38.883  14.631  10.446
83569W        W42665  38.065   2.322   0.963
83570W        W42666   8.736   3.299  14.873
83571W        W42667  22.704  18.085  12.501
83572W        W42668  44.477   0.790   1.272
83573W        W42669  33.915  44.430  12.827
83574W        W42670  40.312  13.112  14.484
83575W        W42671  22.059  25.981  11.419
83576W        W42672  43.011  37.554  13.852
83577W        W42673  18.756  40.423  12.056
83578W        W42674  31.144  39.052  11.535
83579W        W42675   4.739  27.142   0.283
83580W        W42676  25.970  21.205   5.674
83581W        W42677  26.200  10.141  14.321
83582W        W42678  16.639  10.876  13.399
83583W        W42679  36.052  26.702   0.836
83584W        W42680   7.182  29.447   4.270
83585W        W42681  10.263  18.191  11.512
83586W        W42682  28.602  38.396  11.081
83587W        W42683  15.203  41.794   0.896
83588W        W42684  30.527   9.718  14.031
83589W        W42685  11.367  30.438  14.870
83590W        W42686  28.001  24.030  10.624
83591W        W42687  43.363  38.054   2.865
83592W        W42688  43.959  10.810   1.250
83593W        W42689  11.840  31.446  12.892
83594W        W42690   0.825  11.784  14.284
83595W        W42691   5.805  37.842  11.934
83596W        W42692   4.923  27.004   1.271
83597W        W42693   4.808  24.062   2.682
83598W        W42694  12.667  10.669   0.830
83599W        W42695  36.023   5.861  10.597
83600W        W42696   5.857  44.966  14.012
83601W        W42697   0.393  11.675  12.925
83602W        W42698  34.385  22.172   0.961
83603W        W42699  12.680  43.310   4.186
83604W        W42700  40.862  24.695  13.049
83605W        W42701  41.896  28.940  11.946
83606W        W42702  39.344  20.546  12.524
83607W        W42703  37.371   4.297   4.755
83608W        W42704  29.097  12.671  12.438
83609W        W42705  17.644  26.608  11.404
83610W        W42706  41.895  37.957  13.997
83611W        W42707   0.863  44.959   2.771
83612W        W42708  14.719  35.481   3.221
83613W        W42709  29.488  20.567   3.287
83614W        W42710  23.519  21.588   3.318
83615W        W42711  18.556  38.392  12.011
83616W        W42712  43.272  21.754  11.862
83617W        W42713  15.212  27.146  14.949
83618W        W42714  41.449  42.852  11.470
83619W        W42715   8.696  28.110  11.497
83620W        W42716  43.971  35.007   1.263
83621W        W42717   7.713   6.193   4.287
83622W        W42718   8.678   5.758  11.098
83623W        W42719  29.933  39.024   3.805
83624W        W42720  18.544  32.397  10.603
83625W        W42721  23.724  18.576   1.880
83626W        W42722   4.815  18.654   0.438
83627W        W42723  13.133  40.011  14.483
83628W        W42724   4.446   6.202   3.343
83629W        W42725  26.023   2.226   0.799
83630W        W42726   4.313  44.855   0.822
83631W        W42727  32.064  16.680  13.037
83632W        W42728  16.708   3.956  12.500
83633W        W42729  33.548   3.397   5.211
83634W        W42730  21.516  31.125  12.540
83635W        W42731  28.524  19.174   1.256
83636W        W42732  33.881  31.948  11.938
83637W        W42733  13.660  17.670  14.496
83638W        W42734  20.665  15.302  14.857
83639W        W42735  33.448   4.938   5.281
83640W        W42736  22.659  18.105   0.893
83641W        W42737  38.860  35.387   2.277
83642W        W42738  24.713  37.028  11.063
83643W        W42739  34.545  32.958  11.612
83644W        W42740  37.484  19.667  14.426
83645W        W42741  40.316  35.911   4.693
83646W        W42742  24.037  10.369  10.034
83647W        W42743   7.265   1.799   4.824
83648W        W42744  36.415  37.835   2.394
83649W        W42745   2.882  26.957  14.921
83650W        W42746  14.806  14.756   4.607
83651W        W42747  37.967  29.432   2.400
83652W        W42748  39.877  26.669   0.377
83653W        W42749  20.669  36.021   4.702
83654W        W42750   2.409   6.282   1.342
83655W        W42751   3.819  31.968  14.280
83656W        W42752  20.118  24.226   2.810
83657W        W42753  20.690   4.322   0.301
83658W        W42754  29.103  32.411   4.711
83659W        W42755  13.156  27.558  11.554
83660W        W42756  12.658  41.943  12.923
83661W        W42757   1.956  38.926  10.955
83662W        W42758   9.751  36.499  13.524
83663W        W42759   8.800  31.419  10.056
83664W        W42760   3.302  38.370  11.431
83665W        W42761  35.978   5.344   1.765
83666W        W42762  43.005  31.423  12.405
83667W        W42763  43.875  36.444   1.281
83668W        W42764  41.315  20.224  10.496
83669W        W42765  13.736  21.554  12.471
83670W        W42766  22.073   6.240   3.300
83671W        W42767  13.126   2.355  11.121
83672W        W42768  14.791  41.976   4.795
83673W        W42769  18.579  19.209  10.546
83674W        W42770  40.314  22.231   0.819
83675W        W42771   4.914   4.235   2.850
83676W        W42772  25.564  37.080   3.320
83677W        W42773  15.732   8.797   5.082
83678W        W42774  44.262   2.794   1.838
83679W        W42775  21.600  37.871   5.657
83680W        W42776  23.052  14.713  11.926
83681W        W42777  35.080  40.488   1.320
83682W        W42778  22.595  30.536  14.325
83683W        W42779  30.918  22.558   4.323
83684W        W42780   9.160  36.092  10.140
83685W        W42781  42.505  37.956   1.313
83686W        W42782  12.275  37.390   3.741
83687W        W42783  44.914  24.701  13.377
83688W        W42784   9.800  12.149   1.721
83689W        W42785  13.810   9.817  14.822
83690W        W42786  24.558   9.882   0.769
83691W        W42787  12.843   5.812  11.127
83692W        W42788  19.739   7.847  11.007
83693W        W42789  27.531   2.775  14.983
83694W        W42790  38.019  23.518   0.906
83695W        W42791  37.954  40.894   4.784
83696W        W42792  22.693   4.342  11.476
83697W        W42793  17.746  24.147   3.865
83698W        W42794  26.964  25.504  13.491
83699W        W42795   0.954  39.928   3.861
83700W        W42796  23.532  35.028   3.365
83701W        W42797   9.295  34.604  12.392
83702W        W42798  19.061  11.294  13.336
83703W        W42799   5.328  33.925   4.680
83704W        W42800  38.833  22.681   0.836
83705W        W42801   7.805  24.192   9.978
83706W        W42802  33.488  13.153   4.665
83707W        W42803  24.181  30.951  14.794
83708W        W42804   0.894  43.326   3.149
83709W        W42805  29.616   2.457  14.841
83710W        W42806  21.091  37.948   4.706
83711W        W42807  34.436  13.348   2.342
83712W        W42808  35.386  29.595   0.266
83713W        W42809  20.058  24.718  13.890
83714W        W42810  33.950   7.713   2.875
83715W        W42811  30.500  30.488  13.326
83716W        W42812   1.899  10.787  14.765
83717W        W42813  42.814  18.602   4.330
83718W        W42814  26.698  22.102   2.248
83719W        W42815  39.986   8.209   2.747
83720W        W42816  28.525  18.267  13.340
83721W        W42817   9.686  25.591  14.442
83722W        W42818  32.450  29.433   2.325
83723W        W42819  32.078  44.446  12.348
83724W        W42820  21.161  24.559  11.506
83725W        W42821  26.095   7.354  12.993
83726W        W42822  36.056  32.962   3.853
83727W        W42823   3.725   8.311  13.540
83728W        W42824   1.915   8.895  11.127
83729W        W42825  39.808  32.110   5.124
83730W        W42826  38.571  14.268   9.490
83731W        W42827  41.835  22.039   3.322
83732W        W42828   2.788   1.460  10.957
83733W        W42829  12.754  31.015   2.389
83734W        W42830  38.520  30.101   0.254
83735W        W42831  32.413   1.453  12.829
83736W        W42832  31.018  15.666   5.192
83737W        W42833  26.102   9.731  13.354
83738W        W42834  17.625  35.096   0.730
83739W        W42835  27.449  10.211  12.855
83740W        W42836  23.088  12.612   2.668
83741W        W42837  12.345  23.708  13.808
83742W        W42838  22.147   2.405  12.869
83743W        W42839  33.546  31.529  12.519
83744W        W42840  17.571   8.798  11.525
83745W        W42841  26.164  17.725  14.798
83746W        W42842  42.894  38.039   4.745
83747W        W42843  39.494  38.904  12.969
83748W        W42844  20.076  31.403   2.384
83749W        W42845  21.515  33.077  10.416
83750W        W42846   2.867  17.091  13.902
83751W        W42847  26.698  24.569  13.039
83752W        W42848  10.328  29.607   4.305
83753W        W42849  42.453   1.417  14.890
83754W        W42850   7.397   0.464   3.274
83755W        W42851  41.533  16.593  13.321
83756W        W42852  21.155  28.158  12.902
83757W        W42853   2.913  42.957   3.276
83758W        W42854  15.317  10.791  11.599
83759W        W42855   9.703  34.027   1.775
83760W        W42856  35.521  41.527   3.154
83761W        W42857  34.957   3.729   2.742
83762W        W42858  32.454   3.754  12.940
83763W        W42859  26.069   3.363  11.592
83764W        W42860  22.086  30.474   1.431
83765W        W42861   1.471  37.535   0.858
83766W        W42862  39.450  41.946   2.708
83767W        W42863  28.452   1.898   3.367
83768W        W42864  35.928   6.834  13.325
83769W        W42865  13.263  12.198   2.397
83770W        W42866  24.621   6.840  14.480
83771W        W42867  28.009  14.821  12.499
83772W        W42868  40.424  13.217  10.644
83773W        W42869   1.753   8.693  12.837
83774W        W42870  38.829  37.962   3.675
83775W        W42871  25.520  38.910   5.143
83776W        W42872  26.015  41.855   3.248
83777W        W42873  31.916   9.322   5.285
83778W        W42874  30.148  29.538  14.488
83779W        W42875  34.594  44.778   3.194
83780W        W42876   5.856  43.406  12.563
83781W        W42877   8.745  19.653   1.373
83782W        W42878   1.383   6.804  14.809
83783W        W42879  42.350   4.846  14.377
83784W        W42880  36.867  38.908   2.357
83785W        W42881  19.237  10.341   2.890
83786W        W42882  36.858  42.868  11.605
83787W        W42883   9.243   7.372  13.358
83788W        W42884  11.696  37.478   1.292
83789W        W42885   9.312  34.945   1.315
83790W        W42886  31.556  23.105   2.298
83791W        W42887  43.821  41.403   4.657
83792W        W42888  27.095  14.225  13.378
83793W        W42889  44.796  11.312  11.379
83794W        W42890  17.173  25.647  11.547
83795W        W42891   4.802  16.751   2.368
83796W        W42892  10.370  31.555   1.840
83797W        W42893  35.095   3.802  13.373
83798W        W42894  38.077  27.090   0.327
83799W        W42895   4.303  30.158   0.364
83800W        W42896  34.497  40.884   0.382
83801W        W42897  43.971  26.671  10.152
83802W        W42898  32.467  43.348   4.685
83803W        W42899  26.681  40.989   3.173
83804W        W42900  21.028  16.654   3.283
83805W        W42901  27.535  29.496   2.181
83806W        W42902  42.894   7.911   2.412
83807W        W42903  43.009  10.652   2.744
83808W        W42904  42.451  36.930   0.905
83809W        W42905  10.789  38.821  12.556
83810W        W42906   8.850  21.262  13.389
83811W        W42907  43.008  42.928   5.121
83812W        W42908  16.251  38.927  11.086
83813W        W42909   0.760  13.696  11.874
83814W        W42910  42.363   8.730   1.742
83815W        W42911  38.906  44.465  13.977
83816W        W42912  19.285   7.730  11.976
83817W        W42913   9.182  11.714  13.830
83818W        W42914  20.526  23.104  11.427
83819W        W42915  21.585  29.559  11.494
83820W        W42916  30.070  39.041   2.393
83821W        W42917  14.666  38.385   1.214
83822W        W42918   8.326  20.206   3.298
83823W        W42919   5.206   6.245   0.929
83824W        W42920  21.060  25.673   3.647
83825W        W42921  38.335  25.990   1.325
83826W        W42922   5.347  17.096  10.153
83827W        W42923   4.396   5.888   4.711
83828W        W42924   2.449  22.018  11.977
83829W        W42925  16.644  36.023  12.501
83830W        W42926  43.388  27.493  14.317
83831W        W42927   4.407  10.161   2.328
83832W        W42928   4.808  19.120  10.619
83833W        W42929  11.236  32.608   3.377
83834W        W42930  12.328  36.356  12.965
83835W        W42931  28.625   9.216  11.044
83836W        W42932  30.526  15.294  13.945
83837W        W42933  43.768  42.421  13.987
83838W        W42934  37.029   6.734  14.767
83839W        W42935  14.677   9.756  10.618
83840W        W42936  25.125   8.351   2.192
83841W        W42937  14.310   5.784  14.463
83842W        W42938  17.760  27.190   1.331
83843W        W42939  43.331  29.137  12.033
83844W        W42940  15.225  23.210   3.193
83845W        W42941  30.119  35.000   2.378
83846W        W42942   9.878  36.579  10.608
83847W        W42943  27.184  15.621  12.392
83848W        W42944  29.024   4.798   2.745
83849W        W42945   6.806  28.932   4.726
83850W        W42946  19.670  10.318  10.147
83851W        W42947  24.987  17.684  11.981
83852W        W42948  43.401  14.288  11.903
83853W        W42949  19.695  15.724  11.456
83854W        W42950  38.366  12.828   5.086
83855W        W42951  30.958  25.473   1.235
83856W        W42952  36.027  23.172  12.538
83857W        W42953  23.606  10.288   5.698
83858W        W42954  43.867  35.587   4.195
83859W        W42955  29.951   9.662   0.918
83860W        W42956   1.337  28.944  11.593
83861W        W42957   4.277   3.448   2.777
83862W        W42958  12.248  22.166  11.071
83863W        W42959  29.028   3.400  12.061
83864W        W42960   8.677  31.416  13.376
83865W        W42961  22.116  43.379  12.449
83866W        W42962  20.646   2.946  13.935
83867W        W42963  43.959  29.427   1.293
83868W        W42964  12.294  26.018   1.726
83869W        W42965  35.001  13.176   1.832
83870W        W42966  12.153   9.271   3.831
83871W        W42967   9.395  21.141  14.966
83872W        W42968  27.482  32.529   4.828
83873W        W42969  36.920   7.383   9.499
83874W        W42970  36.412  31.460   1.879
83875W        W42971  15.318  27.472   4.740
83876W        W42972  12.162  34.992   2.286
83877W        W42973   9.698   0.754  14.816
83878W        W42974  19.236  21.076  11.999
83879W        W42975  18.598  31.994  10.464
83880W        W42976   5.249  27.661   1.346
83881W        W42977  18.201  42.800  11.404
83882W        W42978   1.435  15.741   0.396
83883W        W42979  20.132  34.470   1.921
83884W        W42980   1.307  33.102  11.902
83885W        W42981  19.736  11.332  13.321
83886W        W42982  39.940  10.338   1.776
83887W        W42983  14.779  17.762  13.479
83888W        W42984   3.832  18.137  13.794
83889W        W42985  26.031  26.569  12.962
83890W        W42986  24.649  32.619  13.002
83891W        W42987  29.057  43.506  11.597
83892W        W42988  38.570  32.929  11.904
83893W        W42989  29.447  27.511   4.171
83894W        W42990   0.432  28.173  11.052
83895W        W42991  19.594  19.248   3.185
83896W        W42992   1.942  43.333   3.843
83897W        W42993  29.542  10.800   3.377
83898W        W42994  13.818  13.224  14.026
83899W        W42995  35.365  16.213  14.343
83900W        W42996   9.873  35.905   1.802
83901W        W42997  38.340  27.563  10.435
83902W        W42998  27.994  37.562   2.297
83903W        W42999  18.269   8.383   4.608
83904W        W43000   5.248  36.521  12.542
83905W        W43001  28.667  16.247  14.939
83906W        W43002  18.080   4.366  13.021
83907W        W43003  38.434  39.844   1.833
83908W        W43004  37.366   8.239  11.510
83909W        W43005  27.168  31.629  11.115
83910W        W43006  18.091   2.280  14.366
83911W        W43007  17.644  27.994   0.905
83912W        W43008  44.466  32.974  11.543
83913W        W43009   6.241   0.467   4.148
83914W        W43010  23.535  18.562   1.350
83915W        W43011  37.462  30.650   3.693
83916W        W43012  40.327  41.891   5.275
83917W        W43013  15.246  43.859  13.892
83918W        W43014  21.023  23.633  11.986
83919W        W43015  28.653  40.473  11.455
83920W        W43016  41.299  21.611  14.330
83921W        W43017  25.201  12.689   2.869
83922W        W43018   7.797   1.776   4.177
83923W        W43019  30.994  35.045   3.646
83924W        W43020  16.675  32.121   0.437
83925W        W43021  10.708  18.662  13.321
83926W        W43022  29.116  13.217   1.354
83927W        W43023  21.553  30.915   0.440
83928W        W43024  14.227  33.003   3.345
83929W        W43025  30.084   0.952  14.399
83930W        W43026  28.026  33.041   3.662
83931W        W43027  14.728  13.151   0.888
83932W        W43028   1.379  42.351  14.760
83933W        W43029  23.501  20.565  14.923
83934W        W43030  18.578  29.557  11.595
83935W        W43031   2.953   6.275   0.244
83936W        W43032  39.058  18.079   2.720
83937W        W43033  14.113  20.211  10.446
83938W        W43034  32.508  43.340  13.974
83939W        W43035  22.120  18.201   3.789
83940W        W43036  20.719   9.701  13.926
83941W        W43037   6.241  29.474  14.318
83942W        W43038  42.320  31.040   4.706
83943W        W43039  35.436  25.566   2.789
83944W        W43040  39.892  14.326   3.741
83945W        W43041   3.863  39.325   4.135
83946W        W43042  38.028  24.525  13.972
83947W        W43043  32.565   4.868  11.970
83948W        W43044  11.863  18.569  10.601
83949W        W43045  44.982  21.568   3.824
83950W        W43046  13.731   5.294  10.606
83951W        W43047   4.412  30.047  11.093
83952W        W43048  40.315  32.041  12.365
83953W        W43049   3.253  44.343   0.299
83954W        W43050  29.433  41.939   3.709
83955W        W43051  27.667   4.371   2.861
83956W        W43052   4.326  11.706   1.259
83957W        W43053  13.716  37.993  11.094
83958W        W43054  37.387  38.969   2.409
83959W        W43055   7.879  41.505  11.903
83960W        W43056  15.163  41.297   3.804
83961W        W43057   2.747   8.314   2.815
83962W        W43058  17.303  34.039   2.865
83963W        W43059  38.423  25.211   1.309
83964W        W43060  22.736  40.311   4.311
83965W        W43061  36.069  15.140   0.348
83966W        W43062  15.809  28.949   0.440
83967W        W43063  41.350   0.874   1.794
83968W        W43064  15.823  12.146   4.777
83969W        W43065  20.673   8.380   0.439
83970W        W43066  23.017  39.828  13.541
83971W        W43067  27.174  13.206   3.332
83972W        W43068  32.992   9.653   3.677
83973W        W43069  38.417  40.363   4.784
83974W        W43070  42.386  23.025   4.350
83975W        W43071  38.426   2.868   1.926
83976W        W43072  25.031  10.217   4.128
83977W        W43073  22.219  11.175   1.916
83978W        W43074  31.033  29.613   2.767
83979W        W43075  15.596  27.643  13.907
83980W        W43076  28.969  42.863   3.826
83981W        W43077  21.736  20.169  12.951
83982W        W43078  39.869  22.648  11.411
83983W        W43079   1.781  23.235  12.537
83984W        W43080   3.214  14.766   2.411
83985W        W43081  14.652  29.950   2.280
83986W        W43082  25.528   8.775  10.081
83987W        W43083  43.887  14.334   3.265
83988W        W43084   2.280  41.403   0.369
83989W        W43085  42.302  40.939  11.016
83990W        W43086  28.470   4.347   0.801
83991W        W43087  35.920  19.176  12.958
83992W        W43088  32.955  24.185  10.985
83993W        W43089   9.176   3.308  13.943
83994W        W43090  25.199  33.565  14.423
83995W        W43091  32.110  19.772   3.291
83996W        W43092  21.646   7.856  12.850
83997W        W43093  12.222   2.269   2.323
83998W        W43094  12.283  44.416  10.526
83999W        W43095   9.855  24.532  11.448
84000W        W43096   1.905  19.175   1.431
84001W        W43097  36.040  15.325   2.735
84002W        W43098  19.283  38.062   1.923
84003W        W43099  10.640  25.031   4.754
84004W        W43100   8.694  37.547   0.911
84005W        W43101  12.651  44.765   0.772
84006W        W43102  30.908  28.119   0.899
84007W        W43103  19.136  18.629   4.788
84008W        W43104  37.086   6.804  12.826
84009W        W43105  10.640   0.417   2.865
84010W        W43106   9.391   4.314  11.954
84011W        W43107  36.447  35.493  10.953
84012W        W43108  42.441  10.676   4.193
84013W        W43109  43.470  39.064   2.690
84014W        W43110  23.669   2.953   4.771
84015W        W43111  35.035  43.479   3.194
84016W        W43112  16.688  18.672  10.505
84017W        W43113  23.606  38.422  11.426
84018W        W43114   4.318  17.624   1.428
84019W        W43115  35.598  17.625   1.840
84020W        W43116   1.400   0.261  14.956
84021W        W43117  24.678  21.758  11.876
84022W        W43118  36.547   1.278   4.198
84023W        W43119  34.019  37.862  11.545
84024W        W43120  39.013  12.313   1.311
84025W        W43121  35.556  31.413   0.346
84026W        W43122   1.372  20.696  12.535
84027W        W43123  15.324  31.521   2.301
84028W        W43124  19.683  44.266  14.008
84029W        W43125  35.446  11.187   4.279
84030W        W43126   8.266  16.612   2.198
84031W        W43127  41.954  43.983   3.191
84032W        W43128  29.989  20.747  14.317
84033W        W43129  23.113  34.115  13.473
84034W        W43130  14.814  33.620  10.154
84035W        W43131  14.781  41.889  12.079
84036W        W43132  24.060   3.933  12.884
84037W        W43133  17.672   4.266  10.962
84038W        W43134   8.219  34.483  14.509
84039W        W43135  44.783   8.205   2.850
84040W        W43136  24.124  15.816  10.642
84041W        W43137  32.587  26.576   3.655
84042W        W43138   7.174  38.822   0.826
84043W        W43139  25.118   7.869   3.742
84044W        W43140  14.304  16.224   1.384
84045W        W43141  18.184   6.849   1.348
84046W        W43142   6.762  37.078  12.986
84047W        W43143  11.166  12.343  13.343
84048W        W43144  35.375  29.467   3.285
84049W        W43145  41.812  33.442  14.814
84050W        W43146  20.762  25.974   2.835
84051W        W43147  13.247   4.806   1.423
84052W        W43148  44.325  30.026  14.829
84053W        W43149  23.037  32.973   1.344
84054W        W43150  20.559   0.986   2.364
84055W        W43151  39.501  37.499   0.449
84056W        W43152  27.999  36.857  11.920
84057W        W43153  19.125   0.806  10.525
84058W        W43154  16.168  10.784  12.012
84059W        W43155   3.309   8.887   5.178
84060W        W43156  38.400  43.352   1.915
84061W        W43157  12.164  40.481  11.048
84062W        W43158   7.399  27.156   0.885
84063W        W43159  13.256  30.079  11.589
84064W        W43160  18.121   0.904   1.233
84065W        W43161  33.600  44.421   2.897
84066W        W43162  17.090  32.085   3.179
84067W        W43163  13.639  15.670  12.962
84068W        W43164  41.966  24.170   3.834
84069W        W43165  35.584  11.718   2.876
84070W        W43166   7.193  41.891  11.581
84071W        W43167  29.988  14.745   3.265
84072W        W43168  32.112   6.245   0.812
84073W        W43169  24.702  20.039  14.947
84074W        W43170  14.326  19.216  11.609
84075W        W43171   5.748  31.914  13.835
84076W        W43172   8.297   7.803  14.318
84077W        W43173   5.279  29.935  12.999
84078W        W43174  13.814  38.918   1.860
84079W        W43175  30.592  25.133   1.317
84080W        W43176  27.579  20.686  11.379
84081W        W43177   6.875   5.401  14.832
84082W        W43178   1.953  18.704   2.697
84083W        W43179  13.749   8.821  11.496
84084W        W43180   2.950  38.072   4.820
84085W        W43181  18.198  10.205   0.441
84086W        W43182  14.651  36.459  14.426
84087W        W43183   6.755  22.572   1.707
84088W        W43184  35.594  19.540   4.678
84089W        W43185  33.539   0.303  13.922
84090W        W43186  16.796   9.716  11.509
84091W        W43187  14.161  22.130   0.263
84092W        W43188  19.279  14.139  12.040
84093W        W43189   3.290  12.690   3.816
84094W        W43190  26.610   1.865   1.765
84095W        W43191   9.789  17.797   3.377
84096W        W43192  17.259  29.602   5.293
84097W        W43193  29.509  43.932   4.339
84098W        W43194  44.827  26.636  10.915
84099W        W43195  42.451  30.996   3.290
84100W        W43196  14.325  23.133  14.274
84101W        W43197  25.688   8.273   4.650
84102W        W43198   5.690  21.513  12.002
84103W        W43199   3.928  12.283   3.364
84104W        W43200  40.930  34.097   1.741
84105W        W43201  30.949  12.336  14.853
84106W        W43202  21.643  38.496   3.848
84107W        W43203  14.608  15.822  14.361
84108W        W43204  29.065   2.765  13.339
84109W        W43205  42.948  28.152  14.933
84110W        W43206  16.590   4.726  14.932
84111W        W43207  32.530  30.991   4.351
84112W        W43208  13.260  43.892  11.455
84113W        W43209  37.860  44.985   3.701
84114W        W43210  19.277  13.796  13.836
84115W        W43211  14.776  27.086   0.398
84116W        W43212  26.490  42.513  12.444
84117W        W43213  17.744  38.859   9.646
84118W        W43214  24.601  21.253  14.300
84119W        W43215  25.117  40.921  10.587
84120W        W43216  15.666   9.744  14.953
84121W        W43217  18.687  22.157   2.192
84122W        W43218   9.729  30.088  10.945
84123W        W43219   6.427  13.765   1.265
84124W        W43220  12.704  37.950  11.955
84125W        W43221  19.682  10.317   0.257
84126W        W43222  28.072  21.160  11.378
84127W        W43223  13.213  12.221  14.787
84128W        W43224  19.218  21.633   0.869
84129W        W43225  35.386  16.628   1.229
84130W        W43226  24.059   2.748  10.994
84131W        W43227  26.060  34.919  12.973
84132W        W43228  15.084  18.567  11.425
84133W        W43229  41.836  24.561   1.376
84134W        W43230  21.603   4.380  10.893
84135W        W43231   9.679  42.303   4.807
84136W        W43232   0.371  32.127   2.376
84137W        W43233   3.736  29.158  11.049
84138W        W43234  41.481  40.036   4.693
84139W        W43235  44.964  14.669   1.778
84140W        W43236  20.234  42.438   3.178
84141W        W43237  30.477   8.374   2.205
84142W        W43238  13.254   8.708  14.944
84143W        W43239  37.938  21.657   2.872
84144W        W43240  10.731  23.069   2.396
84145W        W43241  23.042  21.137  11.515
84146W        W43242  25.212  20.205  12.549
84147W        W43243  44.770  24.038   1.392
84148W        W43244  37.943  30.101  14.793
84149W        W43245  38.462  26.564   0.918
84150W        W43246  11.780  16.264  13.468
84151W        W43247  11.764  40.351  13.058
84152W        W43248   9.647  22.583   3.746
84153W        W43249  29.030  17.722  10.424
84154W        W43250  26.636  23.986   0.751
84155W        W43251  44.914   4.913   3.655
84156W        W43252  28.529  31.559  14.962
84157W        W43253  22.236  27.167  13.342
84158W        W43254  20.040   1.354  14.022
84159W        W43255  14.256  27.968   2.688
84160W        W43256  27.978  11.845   1.323
84161W        W43257  27.574   4.266   3.634
84162W        W43258  43.489   7.711  14.904
84163W        W43259   0.461   5.343  11.107
84164W        W43260   5.264  31.036   1.447
84165W        W43261  14.622   7.871   2.344
84166W        W43262  26.008  34.095  14.301
84167W        W43263   1.742   5.229   0.940
84168W        W43264  25.609  39.333  11.581
84169W        W43265  16.567  18.197   2.824
84170W        W43266   0.962  29.976   4.306
84171W        W43267  20.152  42.500  12.342
84172W        W43268  14.232  39.883   0.787
84173W        W43269  34.529  32.610   0.292
84174W        W43270  36.970  43.948   0.271
84175W        W43271  18.196   3.381   4.811
84176W        W43272   6.209  14.184   2.361
84177W        W43273   0.864  31.558  11.956
84178W        W43274   6.825  37.519   1.911
84179W        W43275  36.959   1.274  10.434
84180W        W43276  34.053   3.267   4.684
84181W        W43277  41.926  35.458  12.453
84182W        W43278   7.313  17.292  13.864
84183W        W43279  26.986  12.747  13.476
84184W        W43280  18.227   4.940   0.467
84185W        W43281  28.447  12.616   2.291
84186W        W43282  26.001  15.320  11.420
84187W        W43283  23.176   1.758  12.918
84188W        W43284  38.392  41.015  11.909
84189W        W43285  39.463  36.382  12.875
84190W        W43286  38.032   5.842  11.919
84191W        W43287  20.608  38.020  12.842
84192W        W43288  18.656  11.693  12.957
84193W        W43289  41.867  23.045   3.634
84194W        W43290  22.155  33.514  10.949
84195W        W43291  34.038  29.165  12.347
84196W        W43292  44.867  22.158  14.881
84197W        W43293  14.683  21.168   4.610
84198W        W43294  30.140  21.566   4.341
84199W        W43295  12.684  20.621  13.018
84200W        W43296  34.547   9.819   9.440
84201W        W43297  12.352  10.168  13.900
84202W        W43298  42.456  18.089  14.330
84203W        W43299  17.276  40.910   2.748
84204W        W43300  18.767   6.749  10.947
84205W        W43301  17.726   6.769   4.604
84206W        W43302   9.157  30.608   3.378
84207W        W43303   9.340  16.080  12.366
84208W        W43304   1.772   3.882  11.951
84209W        W43305  29.501  44.820   1.429
84210W        W43306  19.698   6.747   1.226
84211W        W43307  17.162  41.305   9.980
84212W        W43308   9.244  35.043   2.838
84213W        W43309  39.423  26.508   3.235
84214W        W43310   0.298  42.297  14.307
84215W        W43311  12.615  38.472   0.877
84216W        W43312  23.145  11.711  13.319
84217W        W43313  36.391   8.683   0.447
84218W        W43314   1.447  30.931  11.492
84219W        W43315  38.464  24.084  14.940
84220W        W43316   3.377  32.006   1.698
84221W        W43317  17.596  10.240   1.437
84222W        W43318  23.730  15.726   1.270
84223W        W43319   0.792  16.805  14.301
84224W        W43320  35.432   3.279  11.028
84225W        W43321   1.291  24.482   1.857
84226W        W43322  11.812  32.472  13.383
84227W        W43323  23.543  42.433   4.169
84228W        W43324  40.864  39.926   4.759
84229W        W43325  27.166  36.460   1.403
84230W        W43326   0.376  21.051   2.316
84231W        W43327  36.468  42.408   0.340
84232W        W43328  13.841   3.885  12.060
84233W        W43329  20.185   8.797  12.067
84234W        W43330  37.045  15.684  11.938
84235W        W43331  43.308   0.312   0.280
84236W        W43332  31.080  18.227  14.363
84237W        W43333  21.743  16.209   3.760
84238W        W43334   9.858   1.813   4.722
84239W        W43335   6.829  19.158   0.412
84240W        W43336  37.390  30.142   3.657
84241W        W43337  16.174  22.169  11.432
84242W        W43338  32.574  41.345  10.571
84243W        W43339  38.947   0.787  10.925
84244W        W43340  27.965  23.709  13.395
84245W        W43341  33.623   2.956  11.968
84246W        W43342  35.066  14.677  11.435
84247W        W43343  12.361   6.750   0.414
84248W        W43344  33.510  11.232   2.204
84249W        W43345  43.396  12.844  13.006
84250W        W43346   9.666  25.686  11.376
84251W        W43347   7.243  37.943   2.708
84252W        W43348  31.958  28.637   0.429
84253W        W43349   3.295  20.162   5.093
84254W        W43350  10.233  34.984   1.778
84255W        W43351  14.649  16.600  14.348
84256W        W43352  13.225  41.410  12.979
84257W        W43353   6.843  33.600  14.959
84258W        W43354  21.101   5.915  12.038
84259W        W43355   1.848  44.441   1.921
84260W        W43356  25.139  13.705   3.354
84261W        W43357  35.938  30.649  14.799
84262W        W43358   1.778  40.466   4.698
84263W        W43359  13.327  29.652  11.013
84264W        W43360  29.031  24.605  12.484
84265W        W43361  15.215  27.982  14.374
84266W        W43362  42.499   1.467   3.683
84267W        W43363   9.207  35.382  11.914
84268W        W43364  20.075  31.565  11.443
84269W        W43365   0.472   6.263   0.843
84270W        W43366  27.550   7.692   1.432
84271W        W43367  11.335  10.372   1.914
84272W        W43368  43.893  33.097  10.621
84273W        W43369  20.165  13.669   9.659
84274W        W43370  19.688  42.971  13.852
84275W        W43371  33.524   2.724   4.779
84276W        W43372  34.381  32.516  10.512
84277W        W43373  40.541  19.179  11.903
84278W        W43374  36.939   0.920   0.416
84279W        W43375   0.791  19.726  11.097
84280W        W43376   2.790  32.918   3.328
84281W        W43377  11.741   9.847   3.177
84282W        W43378  30.130  24.630   1.287
84283W        W43379  37.412  29.660  10.466
84284W        W43380  20.203   8.272  11.515
84285W        W43381  32.906  12.282   3.856
84286W        W43382   3.375  21.604   0.297
84287W        W43383  43.787  40.373   4.319
84288W        W43384  27.023  20.584  14.781
84289W        W43385  41.437  16.110   1.396
84290W        W43386  38.872  27.567   4.623
84291W        W43387  31.430  31.141  14.329
84292W        W43388   0.466  10.791  12.079
84293W        W43389  34.446  15.636  12.964
84294W        W43390  41.861  40.893   1.297
84295W        W43391  12.361  19.062   1.373
84296W        W43392  43.020  10.733  12.834
84297W        W43393  38.357  30.587  10.942
84298W        W43394  15.693   1.765  13.465
84299W        W43395  37.055  38.519  13.874
84300W        W43396  32.578  17.690  14.762
84301W        W43397   2.835  35.597   0.391
84302W        W43398  12.758   6.817  12.449
84303W        W43399  28.000  40.392  10.528
84304W        W43400   5.394  39.023  12.902
84305W        W43401  40.531  19.175  12.983
84306W        W43402  43.806  32.028   2.232
84307W        W43403  31.510  11.652  14.005
84308W        W43404  24.206  19.701  12.022
84309W        W43405  11.267  13.644  13.880
84310W        W43406  39.530  25.087   1.277
84311W        W43407  18.645   6.839  11.995
84312W        W43408   2.429  35.428   0.271
84313W        W43409  43.431   7.686   3.194
84314W        W43410  26.079  41.468  12.401
84315W        W43411  27.190   6.705  11.094
84316W        W43412  22.569   9.847   5.726
84317W        W43413  13.738  44.377   9.971
84318W        W43414   5.862  17.680  10.609
84319W        W43415   0.889  16.602   0.288
84320W        W43416  29.040  26.110  10.941
84321W        W43417  16.751  17.649   2.316
84322W        W43418   7.667  23.055   2.224
84323W        W43419  23.140   6.423   0.394
84324W        W43420  22.146  25.624  13.930
84325W        W43421   0.814   5.214   1.822
84326W        W43422  19.161  36.089  11.993
84327W        W43423  39.535  23.129  12.556
84328W        W43424  10.144   5.229  13.031
84329W        W43425  15.583  27.056   2.406
84330W        W43426  28.177  21.727   1.919
84331W        W43427  30.562  20.118  11.008
84332W        W43428   4.292  16.163  11.897
84333W        W43429  41.928  40.816  11.905
84334W        W43430   8.688   5.286   4.633
84335W        W43431   0.781   1.332   1.353
84336W        W43432  33.065  12.265   4.672
84337W        W43433  27.570  23.071   0.335
84338W        W43434  17.134  43.990  10.023
84339W        W43435  34.488   6.695  11.469
84340W        W43436  14.263  43.925  14.415
84341W        W43437   5.730  10.341   1.878
84342W        W43438  12.285  17.123   4.757
84343W        W43439  22.689  35.883  11.050
84344W        W43440   9.730   0.933   4.237
84345W        W43441  26.080  12.138   0.373
84346W        W43442  23.616  11.309  11.462
84347W        W43443   5.364  28.059   1.223
84348W        W43444  31.647  14.284  11.947
84349W        W43445   5.213  44.373  11.600
84350W        W43446  24.531  32.561  11.467
84351W        W43447  44.455   4.748  12.947
84352W        W43448  22.623  24.686   0.333
84353W        W43449  17.777  23.041  14.451
84354W        W43450  31.428  15.708  13.476
84355W        W43451  26.979   5.432   3.173
84356W        W43452  24.992  19.609   4.286
84357W        W43453  15.226  38.475  14.461
84358W        W43454   5.325  33.110   4.321
84359W        W43455   7.294  15.118   5.200
84360W        W43456  27.674  14.192  13.950
84361W        W43457   5.199  41.882   1.349
84362W        W43458  34.976   5.375  12.882
84363W        W43459  10.176  42.382  11.385
84364W        W43460   1.360  14.804  12.422
84365W        W43461  12.219  21.737  14.356
84366W        W43462  44.937  41.981   0.426
84367W        W43463   0.314  20.660   3.280
84368W        W43464  10.834  38.951  11.861
84369W        W43465  40.054  32.532   1.217
84370W        W43466  20.728  33.497  10.526
84371W        W43467   2.282   4.341  10.548
84372W        W43468  10.201  41.888   0.776
84373W        W43469  10.231  13.812   2.727
84374W        W43470   2.457  36.900   1.283
84375W        W43471  40.827  34.415   4.660
84376W        W43472  39.401  40.990  14.919
84377W        W43473   9.770  39.832  13.381
84378W        W43474  30.618  18.143   2.743
84379W        W43475  41.301  37.560  14.920
84380W        W43476  41.475  44.487  14.797
84381W        W43477  20.098  29.957  12.055
84382W        W43478  21.049  22.647   4.733
84383W        W43479   3.803  33.588  13.901
84384W        W43480  34.604  43.929  14.441
84385W        W43481  30.042  11.791   4.626
84386W        W43482  28.494  29.566   3.343
84387W        W43483  13.733   3.710  11.076
84388W        W43484  27.666  40.802   4.609
84389W        W43485  42.314  36.476  12.428
84390W        W43486  21.608  38.329  14.860
84391W        W43487   0.914   7.288   2.779
84392W        W43488  43.783  20.601   3.828
84393W        W43489  22.112  23.240  14.760
84394W        W43490  11.834  22.518   4.674
84395W        W43491  29.053  33.488  11.063
84396W        W43492  36.945  24.183   2.880
84397W        W43493  39.348  34.865  14.983
84398W        W43494  35.380   8.737   5.150
84399W        W43495   0.414  22.010  13.975
84400W        W43496  10.691  34.412   3.767
84401W        W43497   3.301  15.221   4.779
84402W        W43498  30.547  28.525  14.280
84403W        W43499  20.644   4.259   2.407
84404W        W43500  19.098  23.124  11.886
84405W        W43501  38.362  32.962   3.326
84406W        W43502  18.679  33.577   1.387
84407W        W43503  21.138  15.090   1.749
84408W        W43504  19.778  13.752   5.213
84409W        W43505  10.243   9.326  13.339
84410W        W43506  26.113  30.088  11.062
84411W        W43507   6.333  43.986  11.948
84412W        W43508  31.145   4.432  13.339
84413W        W43509  20.556  43.482   2.393
84414W        W43510  32.604  31.139   2.679
84415W        W43511  22.620  39.961   3.814
84416W        W43512   4.269  11.699  10.456
84417W        W43513  43.500  22.519   1.444
84418W        W43514  44.911  43.367   3.350
84419W        W43515  14.624   9.266   4.129
84420W        W43516   1.255  28.438   0.928
84421W        W43517  23.097  22.250  14.349
84422W        W43518  22.226  10.821   4.672
84423W        W43519  13.792  30.143  14.002
84424W        W43520  15.088  36.537   4.351
84425W        W43521  31.524  16.153  14.388
84426W        W43522  38.920  37.336  13.872
84427W        W43523  23.065  11.272  10.615
84428W        W43524   0.988  37.518  14.831
84429W        W43525   8.205  23.037  10.993
84430W        W43526  32.422   6.418  11.555
84431W        W43527  40.892  22.015   1.431
84432W        W43528   5.377  14.335   0.269
84433W        W43529  42.858  39.506  14.905
84434W        W43530   1.295  24.108  14.308
84435W        W43531  23.633   9.675   2.228
84436W        W43532  40.852  44.344  13.883
84437W        W43533   1.906   4.322   3.238
84438W        W43534  40.875  27.583   1.712
84439W        W43535  39.866   8.834   1.355
84440W        W43536  29.965  11.162   2.274
84441W        W43537  43.970  19.715   1.883
84442W        W43538  20.118  37.576   1.744
84443W        W43539   4.348  14.207   1.399
84444W        W43540  14.744   9.358  14.398
84445W        W43541   8.203  12.263  13.063
84446W        W43542  10.659  31.121  14.497
84447W        W43543  14.781  25.646   4.176
84448W        W43544  30.470  18.612   2.704
84449W        W43545   4.891  42.892  14.415
84450W        W43546  13.648  43.380   3.720
84451W        W43547  24.094  28.677  12.357
84452W        W43548  27.620  20.187   3.865
84453W        W43549  38.955  42.419  14.456
84454W        W43550  16.153  10.874   3.212
84455W        W43551   1.372  38.072   3.247
84456W        W43552  20.663   5.348   3.860
84457W        W43553  38.497  18.055   1.743
84458W        W43554  27.681  27.544   2.232
84459W        W43555  37.895  24.223   3.717
84460W        W43556  36.975  24.020  10.018
84461W        W43557  17.727  17.245  13.835
84462W        W43558   2.841   1.866   4.790
84463W        W43559  18.135  43.513  13.339
84464W        W43560  26.047  44.288  14.492
84465W        W43561  43.297  27.074  13.891
84466W        W43562   9.286  42.997  12.003
84467W        W43563  13.664   8.894  13.485
84468W        W43564  39.537  44.416  14.358
84469W        W43565  12.289   2.466   2.770
84470W        W43566  42.399  22.600  11.014
84471W        W43567  24.567  25.616   3.178
84472W        W43568  29.587  30.945   2.802
84473W        W43569  33.599   7.391  10.422
84474W        W43570   3.788  24.509   9.614
84475W        W43571   9.695  21.607  14.515
84476W        W43572  27.094  26.017   2.846
84477W        W43573  14.296  14.813   1.793
84478W        W43574  19.741  15.274  14.369
84479W        W43575  34.867  38.408  13.031
84480W        W43576  24.628  37.514   0.387
84481W        W43577  32.626  35.463  11.506
84482W        W43578   6.841  40.398  10.513
84483W        W43579  33.449  15.717  13.340
84484W        W43580  11.301  22.231  11.539
84485W        W43581   7.181  36.859  11.387
84486W        W43582  26.499   0.352  12.979
84487W        W43583   2.303  38.426   2.269
84488W        W43584   5.906  37.562   2.770
84489W        W43585  16.620  20.041   1.248
84490W        W43586  12.814  27.980  14.856
84491W        W43587  28.134  10.352  13.936
84492W        W43588  18.556  40.042  13.468
84493W        W43589  32.490   4.324   1.263
84494W        W43590  12.740  20.241   2.665
84495W        W43591   7.734   6.421  10.446
84496W        W43592   4.294  28.636  11.408
84497W        W43593   9.191   3.774   3.342
84498W        W43594  37.055  29.123   1.387
84499W        W43595  38.862  38.401  13.960
84500W        W43596  32.086  17.217  12.962
84501W        W43597   9.654   5.772   4.221
84502W        W43598  23.133  27.610   1.825
84503W        W43599  38.476  44.353   0.739
84504W        W43600  29.485  23.686   3.857
84505W        W43601  16.728  21.678   4.715
84506W        W43602  33.087  31.417   4.810
84507W        W43603  33.403   8.898  10.932
84508W        W43604  15.750  40.865   2.703
84509W        W43605   8.696  28.978  14.794
84510W        W43606   3.338   9.730  13.960
84511W        W43607  18.547  18.111  12.906
84512W        W43608  26.961  10.684   0.318
84513W        W43609  28.126  38.491   3.349
84514W        W43610  11.295  39.882   4.157
84515W        W43611  11.773   4.350  12.481
84516W        W43612  27.167  27.649   2.353
84517W        W43613  12.325  42.322  12.383
84518W        W43614  21.131   2.366  14.768
84519W        W43615  20.750  13.160   1.285
84520W        W43616  38.410   7.363   3.305
84521W        W43617  27.147  43.770  12.525
84522W        W43618  39.852  41.504  10.556
84523W        W43619  35.983  31.036  14.999
84524W        W43620  29.157   6.904  12.834
84525W        W43621  18.714  26.139  11.501
84526W        W43622  24.521  42.864  13.340
84527W        W43623   6.188  13.293   3.803
84528W        W43624  18.662   6.408   1.232
84529W        W43625  14.770  43.957  11.022
84530W        W43626  43.798  31.092  14.373
84531W        W43627  41.975   8.295   1.384
84532W        W43628  17.108  24.499  11.426
84533W        W43629  17.146  37.042   0.873
84534W        W43630  35.938   1.317  10.495
84535W        W43631  31.449  26.166   3.831
84536W        W43632  26.660  33.928  13.920
84537W        W43633   2.943  13.335   3.816
84538W        W43634  30.570  28.072   3.303
84539W        W43635  17.065   4.445   1.779
84540W        W43636  22.614  37.564   9.964
84541W        W43637  10.751   0.887  11.056
84542W        W43638  22.574  30.496   4.717
84543W        W43639  25.698  38.334  13.316
84544W        W43640  30.149   3.841   4.298
84545W        W43641  31.464  14.679  13.413
84546W        W43642   4.708  33.508   3.273
84547W        W43643   1.871   8.348  13.839
84548W        W43644   9.655   1.885   0.968
84549W        W43645  28.637  15.167  11.590
84550W        W43646  44.438   6.334  11.468
84551W        W43647  13.817  42.448   3.365
84552W        W43648  40.371  18.693  13.433
84553W        W43649   8.214  12.705  10.581
84554W        W43650  35.552  42.847  14.487
84555W        W43651  33.916  38.389  11.949
84556W        W43652   6.249  23.588   4.644
84557W        W43653  28.021  44.966  10.468
84558W        W43654  42.281   6.206   1.817
84559W        W43655   1.775  27.120   3.719
84560W        W43656  36.888  29.488   0.430
84561W        W43657  28.437   0.250  12.982
84562W        W43658  26.627  43.503   3.834
84563W        W43659  38.016  14.235  14.360
84564W        W43660  10.649   7.747   2.375
84565W        W43661  15.199  32.917   1.432
84566W        W43662  10.796  37.493   2.273
84567W        W43663  28.138   7.349   4.234
84568W        W43664   2.741  16.592  10.598
84569W        W43665  41.877  30.592  11.949
84570W        W43666  35.542  24.689  11.463
84571W        W43667  16.225  27.574  12.477
84572W        W43668   1.842  28.966   2.383
84573W        W43669   3.926  13.124   1.739
84574W        W43670   4.869  29.979   4.779
84575W        W43671   0.274  18.646   1.444
84576W        W43672   9.647  21.756  14.931
84577W        W43673  34.413  23.540   1.896
84578W        W43674  37.511   9.831   2.231
84579W        W43675   1.977  40.324  14.474
84580W        W43676   4.415  36.416   3.169
84581W        W43677  19.536  29.949  12.040
84582W        W43678  44.924  14.187  10.962
84583W        W43679  20.041  22.187   1.832
84584W        W43680  10.786  11.707   3.745
84585W        W43681  21.165  21.737  13.919
84586W        W43682  10.718  29.544   2.216
84587W        W43683  37.375  41.804   3.850
84588W        W43684  11.720   9.394  10.450
84589W        W43685  37.397   7.677   2.855
84590W        W43686  29.497  23.081   1.278
84591W        W43687   4.212  39.383  12.982
84592W        W43688  37.400  42.495   4.829
84593W        W43689   5.365  41.927  11.551
84594W        W43690  19.063   5.717   1.330
84595W        W43691  40.527  10.636  12.579
84596W        W43692  41.329   4.396   4.250
84597W        W43693  36.472  24.677   2.722
84598W        W43694  23.192  17.289  10.506
84599W        W43695   3.230  28.166  10.102
84600W        W43696  17.780  14.113   0.936
84601W        W43697  42.527  35.510  13.467
84602W        W43698  37.853   2.371   2.670
84603W        W43699  35.857  26.114   2.866
84604W        W43700  35.083  37.055   2.744
84605W        W43701  43.822  25.053   3.741
84606W        W43702   7.369  35.018   4.346
84607W        W43703  35.095  42.979  13.839
84608W        W43704  38.427  44.791   2.817
84609W        W43705  43.457  35.973  14.820
84610W        W43706  16.184  11.334   2.677
84611W        W43707  38.569  44.498   4.666
84612W        W43708  21.083  29.056   0.471
84613W        W43709  38.465  25.072  14.391
84614W        W43710  32.954  34.002   0.380
84615W        W43711  32.127  39.526  10.942
84616W        W43712  34.567   4.811   3.193
84617W        W43713  29.666  42.482  11.531
84618W        W43714   7.359  21.157  14.409
84619W        W43715   4.910  20.731   1.854
84620W        W43716  25.209  10.732  13.817
84621W        W43717  27.527  44.367  14.307
84622W        W43718  39.006  10.273   3.344
84623W        W43719  38.939  35.081  10.460
84624W        W43720  17.287  11.867   1.863
84625W        W43721  31.031  11.682  11.929
84626W        W43722  32.563  40.455  12.480
84627W        W43723  38.851  12.673  14.329
84628W        W43724   3.299   2.894  10.615
84629W        W43725  20.562  20.100   4.742
84630W        W43726  24.612  17.145  14.762
84631W        W43727  16.138  12.826   3.831
84632W        W43728  11.664  42.452   0.964
84633W        W43729  14.774   9.827   3.844
84634W        W43730  25.495  32.535   1.397
84635W        W43731   3.859  14.135   1.434
84636W        W43732  44.900   1.376   2.903
84637W        W43733  11.803   9.349  12.865
84638W        W43734  25.027   7.866  11.093
84639W        W43735   6.847  25.648  12.950
84640W        W43736  22.209  22.018   2.407
84641W        W43737  42.339   6.376   2.267
84642W        W43738  30.529  15.699  13.980
84643W        W43739  29.547   2.753   2.690
84644W        W43740  10.860  22.542  14.982
84645W        W43741  21.739  10.299  14.479
84646W        W43742  10.706  11.363   4.783
84647W        W43743  40.837   0.951  10.901
84648W        W43744  30.582  22.067   5.296
84649W        W43745  42.382  34.465  14.367
84650W        W43746  31.123  15.777  14.321
84651W        W43747  13.163   8.867  10.152
84652W        W43748  11.642  12.773  13.983
84653W        W43749  17.731   9.670  11.094
84654W        W43750  17.683  27.101  11.596
84655W        W43751  39.369  29.933   0.281
84656W        W43752   4.882  13.670  12.875
84657W        W43753  41.373  36.546  11.903
84658W        W43754   2.323  42.484   1.393
84659W        W43755  31.996  40.802  13.539
84660W        W43756   1.901  33.437  11.397
84661W        W43757  36.560  26.582  14.837
84662W        W43758  30.516  30.919   4.783
84663W        W43759   1.374  20.221   2.903
84664W        W43760  43.428  40.516   1.895
84665W        W43761  12.296   8.658  13.393
84666W        W43762   2.291  24.502   1.717
84667W        W43763  11.330   7.215   4.345
84668W        W43764  29.664   6.726   4.290
84669W        W43765   6.756  36.029  11.024
84670W        W43766   8.720  24.645   4.809
84671W        W43767  40.866   1.836  13.478
84672W        W43768   1.320   7.272   3.206
84673W        W43769  33.505  42.331   2.744
84674W        W43770  22.656   2.238   1.892
84675W        W43771  20.543  10.294   1.409
84676W        W43772  18.581  31.569  13.990
84677W        W43773  31.002  23.007  12.018
84678W        W43774   0.455  26.612   3.386
84679W        W43775   1.473   9.739   4.832
84680W        W43776  11.731  25.493   3.783
84681W        W43777  14.338  15.287   0.311
84682W        W43778  23.735  16.094  13.869
84683W        W43779   1.480   3.818  11.402
84684W        W43780  31.045  42.377   1.240
84685W        W43781  11.738  19.539  12.431
84686W        W43782   1.957  20.189  12.910
84687W        W43783  24.507  38.906   1.254
84688W        W43784  23.129  42.335  14.379
84689W        W43785  44.394  29.484  10.607
84690W        W43786  32.481  27.467   3.376
84691W        W43787   5.803  25.219  12.516
84692W        W43788  31.150  25.647   2.663
84693W        W43789  40.827  32.131   3.286
84694W        W43790  25.510   1.934   3.299
84695W        W43791  38.029   2.322  14.961
84696W        W43792   9.155  28.075  11.924
84697W        W43793  34.089   1.469   4.701
84698W        W43794  31.645  40.514   2.822
84699W        W43795  35.974  32.964   2.349
84700W        W43796  15.096  42.977   4.728
84701W        W43797  35.407  27.589  10.075
84702W        W43798   7.723   4.394   4.302
84703W        W43799  21.259  37.061   3.368
84704W        W43800  43.448  34.917   0.773
84705W        W43801  24.523  33.536   4.256
84706W        W43802  24.976  18.247   1.931
84707W        W43803  27.630  39.826   0.934
84708W        W43804  34.967  24.661  12.487
84709W        W43805  30.135  12.721   4.153
84710W        W43806  42.459  29.666   2.391
84711W        W43807  13.111  28.628   0.735
84712W        W43808  10.715  10.846   3.842
84713W        W43809  36.487  13.601  10.015
84714W        W43810  43.458   7.909  12.858
84715W        W43811  15.823  31.153  14.383
84716W        W43812  32.948  11.294   2.396
84717W        W43813  24.076  34.591  13.832
84718W        W43814  23.166  33.510  11.583
84719W        W43815  15.648  12.296  11.391
84720W        W43816   8.702  41.472   2.314
84721W        W43817   3.325  23.085  12.503
84722W        W43818  34.605  36.370  12.401
84723W        W43819   6.704  11.866   3.698
84724W        W43820  43.417  11.773   9.989
84725W        W43821  16.801  23.684  14.025
84726W        W43822  20.140   3.450  10.896
84727W        W43823  27.154  24.603   3.729
84728W        W43824   7.794  14.259   3.750
84729W        W43825  21.203  18.209   1.368
84730W        W43826  38.325   0.410  13.828
84731W        W43827  13.777  42.801  11.991
84732W        W43828   3.843  38.901  13.340
84733W        W43829  28.604   1.297  13.475
84734W        W43830  12.774   2.873  12.085
84735W        W43831  23.219  18.286  13.420
84736W        W43832  27.075   9.337  11.918
84737W        W43833  18.669  40.351   5.297
84738W        W43834  23.717  40.949   2.790
84739W        W43835  19.188  22.689  10.616
84740W        W43836  19.644   5.809   4.321
84741W        W43837  39.022  26.131   4.125
84742W        W43838  31.547  34.926   4.284
84743W        W43839  44.379  39.044  11.374
84744W        W43840  21.049  24.121  14.462
84745W        W43841  17.234  39.982   1.925
84746W        W43842  41.322  38.340   3.859
84747W        W43843   3.240  15.777   4.760
84748W        W43844  42.483  38.024  13.529
84749W        W43845  33.574   4.377   2.414
84750W        W43846  32.564  15.115  11.499
84751W        W43847   1.451  17.277  12.379
84752W        W43848  43.973  29.033   3.650
84753W        W43849  40.017  26.089  11.493
84754W        W43850  26.115  13.628   3.211
84755W        W43851  43.865  40.403  13.541
84756W        W43852  28.453  20.192  10.910
84757W        W43853  15.129  31.130   0.288
84758W        W43854   9.277   1.442   3.208
84759W        W43855  43.430  23.101  12.415
84760W        W43856  22.015  31.585   3.829
84761W        W43857  20.130  18.283  13.485
84762W        W43858  41.408   0.433  14.322
84763W        W43859  34.025  24.020  13.409
84764W        W43860  13.706  10.331   3.189
84765W        W43861   6.895   0.884   1.213
84766W        W43862  28.660  26.021  11.488
84767W        W43863  34.004  32.138   2.313
84768W        W43864   6.389  15.150  11.959
84769W        W43865  13.724   6.201  10.932
84770W        W43866  15.673  36.548   1.889
84771W        W43867  22.570  18.159   3.764
84772W        W43868  37.375  30.485   3.284
84773W        W43869  20.222   4.319  11.606
84774W        W43870  18.239  36.436   3.184
84775W        W43871   7.830  35.380  14.804
84776W        W43872  29.948  42.866   3.269
84777W        W43873  42.347  42.848  13.979
84778W        W43874   3.953  27.503   0.961
84779W        W43875  26.970   4.734  14.316
84780W        W43876  25.650  34.082   3.163
84781W        W43877  28.069  19.656  12.834
84782W        W43878   4.872  27.529   2.662
84783W        W43879  26.679  13.645  13.870
84784W        W43880  37.024  19.707   1.886
84785W        W43881  12.272  33.054  10.942
84786W        W43882  33.554  14.237   1.269
84787W        W43883  10.177  20.180   0.956
84788W        W43884  14.125   9.722  14.486
84789W        W43885   4.262  16.604  11.989
84790W        W43886  38.058  37.045  14.501
84791W        W43887  23.052  32.994   4.279
84792W        W43888  13.628  19.646  11.512
84793W        W43889  20.608  29.986  11.907
84794W        W43890  25.685  27.136   2.227
84795W        W43891  15.180  22.171   4.608
84796W        W43892   1.420   6.863   3.309
84797W        W43893  24.193  10.679  14.992
84798W        W43894  37.081  27.463   4.731
84799W        W43895  13.346  21.264  13.023
84800W        W43896  24.720  36.546  13.050
84801W        W43897  34.377  11.864  11.469
84802W        W43898  12.755  20.137  14.367
84803W        W43899  26.466  36.976  12.086
84804W        W43900  18.696  27.161  12.386
84805W        W43901   0.851   7.720   2.260
84806W        W43902  42.877  31.017  12.000
84807W        W43903  24.592  27.178  11.434
84808W        W43904  27.689  26.981  10.625
84809W        W43905  39.399  25.105   3.380
84810W        W43906   8.254  37.999   4.833
84811W        W43907  42.291  22.595   1.374
84812W        W43908   3.743  35.541   0.386
84813W        W43909   1.421  21.086   2.400
84814W        W43910  33.415   4.712   0.413
84815W        W43911  40.990  14.767   3.233
84816W        W43912  30.582   0.930   2.391
84817W        W43913  43.798  29.949   0.484
84818W        W43914   2.371  37.845   2.357
84819W        W43915  11.272   2.811  13.378
84820W        W43916  32.586   3.321  12.930
84821W        W43917   7.177   5.806  14.373
84822W        W43918  33.618  20.169   1.265
84823W        W43919   3.945  28.984   4.173
84824W        W43920  36.876   7.851  13.857
84825W        W43921   4.704  18.086   2.882
84826W        W43922  19.247   4.390  13.980
84827W        W43923  39.972   9.796  12.855
84828W        W43924  37.582  20.618   4.201
84829W        W43925  30.601  32.457  12.409
84830W        W43926  15.796  42.335   4.813
84831W        W43927  16.724   1.735   4.619
84832W        W43928   1.776  10.691  12.427
84833W        W43929  30.647   3.430  12.826
84834W        W43930  11.625  24.720  10.092
84835W        W43931  18.648   9.755  13.464
84836W        W43932   4.402  35.399   3.264
84837W        W43933  34.116  19.104   2.246
84838W        W43934  42.438  37.357   0.965
84839W        W43935   6.343  10.360  13.314
84840W        W43936  42.304  34.377   4.783
84841W        W43937  42.896  23.726  10.637
84842W        W43938   6.695  39.830   4.700
84843W        W43939  13.699   3.923   4.153
84844W        W43940  25.566  27.625   0.455
84845W        W43941  15.211  28.450  14.959
84846W        W43942  42.305  28.984  11.108
84847W        W43943  17.269   7.412   0.896
84848W        W43944   5.792  10.195  13.497
84849W        W43945  19.203  12.755   0.470
84850W        W43946  37.906   3.451  14.927
84851W        W43947  26.136  42.286  14.887
84852W        W43948  27.453   8.374   1.363
84853W        W43949  19.209  19.773   1.695
84854W        W43950  38.366   6.817   0.887
84855W        W43951  34.429  33.935   3.631
84856W        W43952  17.558  34.101  13.474
84857W        W43953  10.696  32.488  10.039
84858W        W43954   2.403   8.869  12.963
84859W        W43955  26.120  28.547   3.678
84860W        W43956  33.036   9.344   0.408
84861W        W43957  18.572   3.950  14.504
84862W        W43958   8.669  20.681   2.670
84863W        W43959   9.244  29.007   2.751
84864W        W43960  12.186  19.759   1.357
84865W        W43961   5.805  25.643   2.390
84866W        W43962   5.250  19.742   4.824
84867W        W43963  41.989  29.936   1.304
84868W        W43964   0.963  35.571   0.727
84869W        W43965   9.362  30.481  10.626
84870W        W43966  23.032   2.763   4.742
84871W        W43967  39.376  44.359   4.626
84872W        W43968  10.371  35.475   0.967
84873W        W43969  23.555  27.965  10.561
84874W        W43970  26.113  23.238  14.858
84875W        W43971  14.648  29.995   0.813
84876W        W43972   6.719   1.421   1.220
84877W        W43973  12.360  19.165  13.520
84878W        W43974  27.996  17.306   3.314
84879W        W43975  30.061  23.593   9.640
84880W        W43976  27.650   4.913   4.210
84881W        W43977  11.624   2.309   1.854
84882W        W43978   9.173  33.089  11.983
84883W        W43979   3.219  20.202   3.234
84884W        W43980  36.535  25.992   4.137
84885W        W43981  28.621   8.272  13.943
84886W        W43982   0.912  17.249   2.293
84887W        W43983   7.850  39.392   2.845
84888W        W43984   8.783  31.447  11.111
84889W        W43985  31.970  42.331   4.237
84890W        W43986  24.201  20.692  13.892
84891W        W43987  21.657  24.714   0.443
84892W        W43988  37.845  36.540   1.859
84893W        W43989  23.575  26.194  13.347
84894W        W43990  37.052  44.005  14.817
84895W        W43991  37.346  32.904  10.988
84896W        W43992   1.334  23.528  11.898
84897W        W43993  41.954  22.734  12.421
84898W        W43994   5.735  24.110   2.716
84899W        W43995   0.810  29.947   2.694
84900W        W43996   1.772  15.702   5.312
84901W        W43997  29.654   9.733  14.358
84902W        W43998  31.631  34.461  10.542
84903W        W43999   0.825  34.425  13.793
84904W        W44000  42.481  22.045  14.809
84905W        W44001  11.232   6.226  12.363
84906W        W44002  34.497  12.328   1.779
84907W        W44003  10.379  29.595  10.905
84908W        W44004  43.830  34.886   0.768
84909W        W44005   6.870  14.226   0.748
84910W        W44006  10.228  31.022  14.401
84911W        W44007  22.590   0.364  14.994
84912W        W44008  27.049  23.989  12.029
84913W        W44009  41.368  22.997   4.313
84914W        W44010  19.656  20.704  12.943
84915W        W44011  38.347  23.514   2.181
84916W        W44012   1.812  38.880   2.770
84917W        W44013  31.482   5.218   4.347
84918W        W44014   8.399  42.288  14.362
84919W        W44015   2.441  32.430   3.244
84920W        W44016  35.939  31.134   3.843
84921W        W44017   7.859   3.313   0.391
84922W        W44018  34.484  25.707   1.290
84923W        W44019   3.922  38.482   1.269
84924W        W44020  11.174  37.339   2.902
84925W        W44021  15.641  31.477  12.918
84926W        W44022  19.182  20.030  11.089
84927W        W44023   3.724   8.685  14.928
84928W        W44024  33.901  25.134   1.409
84929W        W44025  43.838   8.890  10.491
84930W        W44026  16.227  23.172  13.536
84931W        W44027  41.411  35.858   3.241
84932W        W44028  17.756  16.724  13.456
84933W        W44029  24.504   9.346  12.948
84934W        W44030  13.305  18.767   4.200
84935W        W44031  40.395  29.112   4.691
84936W        W44032  28.552  35.965  11.902
84937W        W44033  25.527  43.858   1.780
84938W        W44034  16.651  30.654   4.346
84939W        W44035  17.238  27.168   0.251
84940W        W44036  19.717  36.544  12.007
84941W        W44037   0.965  41.490  13.485
84942W        W44038  36.509  39.009  11.538
84943W        W44039  31.013  20.614  14.761
84944W        W44040   6.421  37.069   3.841
84945W        W44041  25.164  33.970  10.919
84946W        W44042  11.687  32.938   3.733
84947W        W44043  16.626  28.070   1.873
84948W        W44044  28.449   7.220  12.443
84949W        W44045   3.229  24.531  12.935
84950W        W44046  31.527  41.309  14.029
84951W        W44047  17.085  33.064  12.929
84952W        W44048   5.247  35.371   3.181
84953W        W44049  34.988   2.316   4.654
84954W        W44050  23.035  34.419  14.440
84955W        W44051  40.420  35.577  13.320
84956W        W44052  36.855   3.426  13.377
84957W        W44053   8.724   4.756   1.927
84958W        W44054  41.988   0.776   1.807
84959W        W44055  12.288  10.305  10.988
84960W        W44056  16.625  19.720   0.312
84961W        W44057  32.098  35.411  10.423
84962W        W44058  25.046  13.159   4.291
84963W        W44059  17.257  34.876  11.124
84964W        W44060  28.149  19.052   4.267
84965W        W44061  25.050   1.397   0.469
84966W        W44062  22.212  37.983   3.762
84967W        W44063  19.166  40.892   3.711
84968W        W44064  44.840  20.715   3.714
84969W        W44065  36.067  38.905  12.404
84970W        W44066  29.447  20.623   2.744
84971W        W44067   0.913  32.525  11.911
84972W        W44068   9.662  13.630  13.047
84973W        W44069  35.853  15.759  13.455
84974W        W44070  16.143  40.405  11.930
84975W        W44071   5.754  26.117   0.430
84976W        W44072  27.691   6.196  12.847
84977W        W44073  39.024  32.099   4.211
84978W        W44074  10.249  34.938   1.420
84979W        W44075  16.705  24.638  10.455
84980W        W44076  21.236  11.716   1.306
84981W        W44077   3.403  40.326   2.367
84982W        W44078  16.654  37.573  13.934
84983W        W44079  10.653   5.863   1.436
84984W        W44080  14.658  24.047   3.788
84985W        W44081  38.074   7.821   2.766
84986W        W44082  43.493  22.629  10.455
84987W        W44083  16.103   2.238  13.334
84988W        W44084  33.880  37.951  11.009
84989W        W44085  10.753   5.743   3.821
84990W        W44086  16.594  26.585  12.959
84991W        W44087  27.058  27.026  11.951
84992W        W44088  36.381  36.353  12.989
84993W        W44089  42.445  36.891  11.596
84994W        W44090  28.543  32.125  12.001
84995W        W44091   3.796  34.511  12.844
84996W        W44092  20.195  43.901  14.914
84997W        W44093   2.915  24.668   4.169
84998W        W44094  43.477   9.806  14.831
84999W        W44095  31.057   2.237   1.418
85000W        W44096  31.998  10.760  14.984
85001W        W44097  10.190  35.881  10.420
85002W        W44098  43.819   5.713   4.249
85003W        W44099  26.646   1.292  11.076
85004W        W44100  40.835  43.982  13.797
85005W        W44101   5.770  28.995  14.948
85006W        W44102  20.257  28.439   1.370
85007W        W44103  27.632  39.339  11.069
85008W        W44104  28.644  25.606  13.018
85009W        W44105  10.219  24.517   4.697
85010W        W44106  29.574  24.157  10.579
85011W        W44107  31.145  43.459  14.490
85012W        W44108  11.672  23.731   1.255
85013W        W44109   5.330  26.176  14.467
85014W        W44110  35.600  35.532  14.811
85015W        W44111  35.456   8.199   3.710
85016W        W44112   3.328  14.667  12.568
85017W        W44113  25.689  40.923   1.872
85018W        W44114  37.908   8.385   0.872
85019W        W44115   8.730  31.145   3.384
85020W        W44116  37.496  18.654   4.154
85021W        W44117  19.645  18.259  14.451
85022W        W44118  42.916  15.261   0.460
85023W        W44119  32.075  30.486  10.941
85024W        W44120  39.038   8.718  13.498
85025W        W44121  26.459  27.028   0.944
85026W        W44122   6.864   6.201   1.901
85027W        W44123  42.908  21.143   1.313
85028W        W44124   8.332  22.732  13.829
85029W        W44125  18.662  11.208   2.719
85030W        W44126  36.896  26.538  11.564
85031W        W44127  34.890   9.167  13.479
85032W        W44128  13.685   2.394   4.302
85033W        W44129  42.842  33.406   5.316
85034W        W44130   0.861  23.658   3.636
85035W        W44131  13.196  36.510  11.586
85036W        W44132  16.120  43.512   1.915
85037W        W44133  11.222  34.875  13.821
85038W        W44134   9.786   2.815   0.967
85039W        W44135  30.948   1.876   4.233
85040W        W44136  27.445   0.925  10.983
85041W        W44137  41.928   0.272  10.616
85042W        W44138   4.711   4.239  13.545
85043W        W44139  20.135  15.191   0.802
85044W        W44140  28.516  20.609   9.621
85045W        W44141  24.017  35.886   4.156
85046W        W44142  28.103  26.051   1.694
85047W        W44143   6.726  43.444  12.870
85048W        W44144  27.949  21.610  14.985
85049W        W44145  31.051  25.467   0.945
85050W        W44146   4.809   9.334  13.426
85051W        W44147  37.506  14.670  14.412
85052W        W44148   4.414  39.053   3.779
85053W        W44149  37.387  11.197  10.618
85054W        W44150  37.564  20.607   3.227
85055W        W44151  38.526  25.626   1.277
85056W        W44152  30.058  44.840  13.507
85057W        W44153   8.889  29.164   2.713
85058W        W44154  34.015   3.253  14.474
85059W        W44155  28.473  22.548   1.741
85060W        W44156   2.238  21.095  13.022
85061W        W44157  37.966  41.971   3.366
85062W        W44158  14.335  21.606   2.300
85063W        W44159  28.162  39.868   3.650
85064W        W44160  25.200  28.556   0.773
85065W        W44161  10.839  26.965   0.844
85066W        W44162  26.028  44.934  14.360
85067W        W44163   3.425   9.274  13.543
85068W        W44164   3.265  18.175  10.618
85069W        W44165  30.658  35.447  14.384
85070W        W44166  27.532  27.124   3.213
85071W        W44167  41.422  36.077   2.902
85072W        W44168   8.213  22.191   0.284
85073W        W44169   9.170  27.504   5.690
85074W        W44170  23.226  43.498   4.731
85075W        W44171  23.541  26.145  14.943
85076W        W44172  31.983  42.512   3.661
85077W        W44173  27.662   1.903  10.421
85078W        W44174  18.557  30.109   2.220
85079W        W44175  43.486  42.330   3.649
85080W        W44176  39.845  23.727  11.981
85081W        W44177  21.242   3.424  12.866
85082W        W44178   1.304  29.461   3.814
85083W        W44179   3.875   3.446  11.573
85084W        W44180  35.522   7.883   2.274
85085W        W44181  27.960   7.218   5.263
85086W        W44182  44.481  10.650  13.432
85087W        W44183  27.190  18.652   2.323
85088W        W44184   8.802  32.090   4.322
85089W        W44185  37.847  25.631   0.448
85090W        W44186  20.664  25.554   3.197
85091W        W44187   5.933   4.341  11.115
85092W        W44188  26.522  28.169   5.300
85093W        W44189  28.036  14.193   0.484
85094W        W44190  19.713  30.515  14.390
85095W        W44191  37.460   4.872   0.928
85096W        W44192  20.213  24.547   4.196
85097W        W44193  40.903  26.128  10.563
85098W        W44194   4.301   1.793   4.238
85099W        W44195  20.111  24.600   3.233
85100W        W44196  17.168   8.216   2.211
85101W        W44197  41.835  43.443   3.799
85102W        W44198  33.116  31.121   1.211
85103W        W44199  30.995  29.544   2.308
85104W        W44200  40.821  39.494   2.192
85105W        W44201  38.957  26.135   0.340
85106W        W44202  30.559   3.315   4.160
85107W        W44203  19.699  34.017   3.736
85108W        W44204  15.284  27.650   2.195
85109W        W44205  10.869  37.000  13.944
85110W        W44206  32.057  42.402   4.666
85111W        W44207  23.192  41.830  13.344
85112W        W44208   4.777  32.047  12.507
85113W        W44209  14.699  29.439  13.324
85114W        W44210  10.334   2.821   2.792
85115W        W44211  30.538  27.052  13.040
85116W        W44212  16.261  42.821  13.016
85117W        W44213   8.282   7.260  14.975
85118W        W44214  44.400  25.085  11.410
85119W        W44215  25.697  20.229  11.961
85120W        W44216  22.625  14.160   2.890
85121W        W44217  33.585   3.726   2.375
85122W        W44218  31.149  22.524   1.373
85123W        W44219  43.348  24.616   0.448
85124W        W44220   1.334   5.760  14.399
85125W        W44221  35.097  34.932   4.625
85126W        W44222   4.328   6.262   4.649
85127W        W44223  32.890  26.464  10.041
85128W        W44224  18.599  26.542   1.343
85129W        W44225  39.500   8.325   0.929
85130W        W44226  29.655   0.325  10.993
85131W        W44227  37.339  31.565   2.392
85132W        W44228   1.365  23.054  10.929
85133W        W44229  32.588  26.646  10.935
85134W        W44230  17.269  23.070  11.516
85135W        W44231  38.522  34.570  10.468
85136W        W44232  19.075  22.587   0.308
85137W        W44233  30.628  15.765  11.439
85138W        W44234   0.829  16.770  13.532
85139W        W44235  13.773  23.630  12.576
85140W        W44236  17.126   3.345   4.778
85141W        W44237  22.596  18.757  14.015
85142W        W44238   8.350  24.605   5.791
85143W        W44239  31.940  39.047   1.800
85144W        W44240  25.670  32.523   3.358
85145W        W44241  36.510  17.798   0.470
85146W        W44242  43.830  30.520  10.585
85147W        W44243   4.319   0.793  10.620
85148W        W44244  14.677  19.660   2.721
85149W        W44245  29.535  16.263   0.246
85150W        W44246  37.025  21.686  13.359
85151W        W44247  24.002  37.888  14.907
85152W        W44248  33.096  19.226  11.375
85153W        W44249  37.514   0.953  10.521
85154W        W44250   6.847  40.348   2.830
85155W        W44251   4.791  11.680   0.802
85156W        W44252  44.926  10.250  14.326
85157W        W44253  25.203  35.910   2.331
85158W        W44254   8.310   8.822   4.775
85159W        W44255   2.944   2.959   4.150
85160W        W44256   7.872  44.411  12.403
85161W        W44257  30.123  21.055   1.431
85162W        W44258  12.212  23.214  13.983
85163W        W44259   1.938  29.452  12.385
85164W        W44260   8.734  22.133  10.991
85165W        W44261  11.260  27.632   4.133
85166W        W44262  29.493  17.237  14.376
85167W        W44263  26.990  26.970  12.902
85168W        W44264  23.619  42.857  12.564
85169W        W44265  16.264  21.139  11.474
85170W        W44266  17.600   1.309   2.404
85171W        W44267  18.282  37.505  10.503
85172W        W44268  17.592  14.621  10.458
85173W        W44269  10.351  31.474   2.714
85174W        W44270  34.097  16.756  10.003
85175W        W44271  17.145  41.413  11.103
85176W        W44272  30.027   0.359  12.931
85177W        W44273   9.391  40.819  14.018
85178W        W44274   4.360  29.493  10.629
85179W        W44275  38.837  26.683   2.883
85180W        W44276  34.595   1.956   1.879
85181W        W44277  23.188   8.364  13.445
85182W        W44278  40.948  21.186   1.283
85183W        W44279   9.806  44.771  12.402
85184W        W44280  21.557  27.061  13.398
85185W        W44281  18.607  36.037  12.091
85186W        W44282  22.637  25.617  12.001
85187W        W44283   9.222  33.464  10.030
85188W        W44284  28.600   1.741  10.573
85189W        W44285  10.716   5.750  11.875
85190W        W44286  18.765  24.698  13.313
85191W        W44287  13.164  23.064  14.365
85192W        W44288   6.315  29.596  10.426
85193W        W44289  39.454  43.511   4.320
85194W        W44290  20.747  22.997   1.860
85195W        W44291  43.794  34.912  10.518
85196W        W44292   8.285  19.761   3.828
85197W        W44293  19.286   5.727   2.793
85198W        W44294   3.916   7.685   4.295
85199W        W44295  10.166  20.066  11.892
85200W        W44296  21.226  36.425   3.258
85201W        W44297  20.103  38.505  14.355
85202W        W44298  35.366  13.277   1.756
85203W        W44299  23.503  16.238  10.416
85204W        W44300  33.980   2.733  11.461
85205W        W44301  36.053  44.799  12.833
85206W        W44302   5.774  33.541   3.845
85207W        W44303   7.363  44.799  12.043
85208W        W44304   4.390  35.384  11.385
85209W        W44305   5.826  44.413   0.804
85210W        W44306  18.204  40.354   0.459
85211W        W44307  10.729   4.747  12.087
85212W        W44308   9.244  42.976  14.943
85213W        W44309  22.712  23.087   1.285
85214W        W44310  13.323  17.787  10.571
85215W        W44311  28.075  12.637  12.391
85216W        W44312  31.127  30.019   2.703
85217W        W44313  18.749  24.113   3.674
85218W        W44314  19.600  43.379   1.722
85219W        W44315  20.600  42.494   4.719
85220W        W44316  13.617  10.683   4.303
85221W        W44317  25.092  38.565  13.493
85222W        W44318   3.765  20.185   3.754
85223W        W44319  39.836   0.744  13.492
85224W        W44320  23.705  23.204  13.409
85225W        W44321   4.337  36.073   1.868
85226W        W44322  27.183  37.505  11.920
85227W        W44323   2.446   6.888   0.873
85228W        W44324  19.679  24.102   0.382
85229W        W44325  20.614  22.673  12.884
85230W        W44326  13.675  22.605   3.250
85231W        W44327   3.945  26.191   3.238
85232W        W44328  27.963   5.362   1.425
85233W        W44329  39.853  28.082  10.482
85234W        W44330  16.800  20.108   3.799
85235W        W44331  12.797  35.993  12.853
85236W        W44332   6.220  39.002  10.448
85237W        W44333   3.872   1.970  14.444
85238W        W44334   2.736  34.590   2.300
85239W        W44335  37.942   1.751   4.271
85240W        W44336  11.342  35.929   4.625
85241W        W44337  24.678  33.425   3.812
85242W        W44338  14.653  24.556  14.408
85243W        W44339  16.159  40.386   4.793
85244W        W44340  41.438  27.174  12.999
85245W        W44341  14.149  20.251   1.333
85246W        W44342  44.843  18.788   2.276
85247W        W44343   0.795  37.866   2.846
85248W        W44344   5.850  41.786  14.386
85249W        W44345  14.268  40.476   2.742
85250W        W44346  35.998  11.764   1.916
85251W        W44347  31.479  35.437   1.280
85252W        W44348  22.144  22.191  14.322
85253W        W44349   3.255   5.240  12.361
85254W        W44350  25.092   6.417   3.350
85255W        W44351   1.926  23.088  10.505
85256W        W44352  23.714  25.571  11.908
85257W        W44353  24.156   3.858  14.460
85258W        W44354  20.065  32.897  14.809
85259W        W44355  13.709   9.150   0.371
85260W        W44356  44.918  12.682   1.247
85261W        W44357  15.261   2.342   1.366
85262W        W44358  41.809  32.994  12.940
85263W        W44359   5.403  16.802   2.269
85264W        W44360  28.598   5.393   0.271
85265W        W44361  29.470  21.739   4.279
85266W        W44362  28.120  42.456   2.721
85267W        W44363  43.794   4.351   1.215
85268W        W44364  13.657  30.947  12.393
85269W        W44365  37.521  42.793  14.514
85270W        W44366  23.088   0.343   2.189
85271W        W44367  41.908   1.958   4.601
85272W        W44368  20.694  20.242   2.691
85273W        W44369  14.614  17.149   9.944
85274W        W44370  40.939  40.479   1.727
85275W        W44371  34.931  35.900   1.746
85276W        W44372  22.146  30.614   2.666
85277W        W44373  14.782  21.168  13.533
85278W        W44374  11.149  38.993  10.082
85279W        W44375   5.378   8.834   3.855
85280W        W44376  20.650  39.889  10.962
85281W        W44377  35.853  37.026   3.737
85282W        W44378  10.834  24.196   0.255
85283W        W44379   0.952  37.453   5.251
85284W        W44380   8.887  22.073  13.933
85285W        W44381  20.744  37.493   4.331
85286W        W44382   6.874   5.261   1.752
85287W        W44383   0.778   1.915  14.413
85288W        W44384  23.698  22.192   2.366
85289W        W44385  21.194  13.179   0.786
85290W        W44386  37.443  23.234   3.719
85291W        W44387   6.314  24.479   2.183
85292W        W44388   6.718  26.480  12.086
85293W        W44389  11.743  26.482  13.864
85294W        W44390  16.111   2.873   2.346
85295W        W44391   1.304  14.271   3.698
85296W        W44392   7.378   2.876  14.024
85297W        W44393  30.109  40.881   4.815
85298W        W44394  11.138   5.769  11.081
85299W        W44395  25.680  27.028   4.270
85300W        W44396  16.797  11.726  12.563
85301W        W44397  32.134  33.104   0.295
85302W        W44398  43.324   5.711   0.407
85303W        W44399  25.492  30.077   0.735
85304W        W44400   6.919  33.980  13.526
85305W        W44401  10.142  17.655   0.870
85306W        W44402  15.670   2.237  14.284
85307W        W44403  27.512  21.110   1.917
85308W        W44404  21.217  28.103   0.419
85309W        W44405  10.661   2.923  12.384
85310W        W44406  30.951  10.795   0.906
85311W        W44407   6.397  21.026  12.983
85312W        W44408  15.298  15.288   1.356
85313W        W44409  34.505  10.237   1.407
85314W        W44410   0.761  42.899  10.141
85315W        W44411  20.745  24.653   2.407
85316W        W44412   6.393  38.995  10.965
85317W        W44413  22.552  35.494  12.346
85318W        W44414  35.865  28.113   2.375
85319W        W44415  17.751   0.912   2.275
85320W        W44416  21.124  34.419  12.561
85321W        W44417  41.430  38.478   3.176
85322W        W44418  16.812   4.787   3.223
85323W        W44419  26.139  32.626  12.865
85324W        W44420   3.411  32.080   2.764
85325W        W44421  25.630  31.984   4.679
85326W        W44422  32.107  34.471   4.770
85327W        W44423  42.779  16.807   9.938
85328W        W44424  23.084  37.052  12.907
85329W        W44425  13.740   7.855  11.057
85330W        W44426  24.012   8.285  10.443
85331W        W44427  12.729  21.196  11.437
85332W        W44428  14.661  21.648  10.896
85333W        W44429   0.484  19.645  14.389
85334W        W44430  29.996   8.699   0.908
85335W        W44431  26.509  30.046  11.472
85336W        W44432  31.641  10.811  13.837
85337W        W44433  23.217  39.521  11.033
85338W        W44434  15.783  20.035   5.293
85339W        W44435  25.988   0.460  12.853
85340W        W44436   4.922  44.268   3.322
85341W        W44437  33.067   0.908   3.149
85342W        W44438  23.118   1.905   3.647
85343W        W44439  19.130  16.717   4.168
85344W        W44440  18.187  25.686  14.336
85345W        W44441  20.757  38.426   3.805
85346W        W44442  27.186   0.250   0.785
85347W        W44443   9.167  35.070  12.400
85348W        W44444  42.324  38.415  14.323
85349W        W44445   7.851  30.010   0.391
85350W        W44446  17.720  21.129  14.871
85351W        W44447  20.190  38.475   2.212
85352W        W44448  23.686   7.864   3.852
85353W        W44449   3.216  34.423  12.006
85354W        W44450  24.714  23.542   2.877
85355W        W44451  38.329  42.028  11.496
85356W        W44452  26.175  36.400  14.881
85357W        W44453  30.561   1.236  13.892
85358W        W44454  35.423  17.765  13.503
85359W        W44455  15.258  28.972  12.925
85360W        W44456  37.366  28.935  10.502
85361W        W44457  13.248  30.942  14.814
85362W        W44458   6.697  28.069   3.347
85363W        W44459  38.395  37.411  14.945
85364W        W44460   9.676   7.402   0.961
85365W        W44461  38.909  20.101  14.815
85366W        W44462  19.733   1.329   3.663
85367W        W44463  41.388  13.303   3.358
85368W        W44464   1.931  22.208   1.247
85369W        W44465  43.020  11.815   1.242
85370W        W44466  32.962   1.950   1.846
85371W        W44467   1.297  25.069   2.772
85372W        W44468  39.997  20.222   3.234
85373W        W44469  20.651   6.182   3.383
85374W        W44470  43.931  11.176  10.427
85375W        W44471  44.921  44.343  14.439
85376W        W44472  18.612  35.363  10.028
85377W        W44473   0.934  17.670   3.861
85378W        W44474  39.021  25.203   9.924
85379W        W44475  15.198   9.808   2.287
85380W        W44476  21.127   9.806   2.385
85381W        W44477   6.279  19.742   1.332
85382W        W44478  28.457  30.986  14.872
85383W        W44479  27.005  15.306  10.535
85384W        W44480  25.047  10.169   3.724
85385W        W44481  39.003  18.561  11.524
85386W        W44482  44.352  15.740   4.613
85387W        W44483  11.779  19.273   4.752
85388W        W44484  17.769  16.644  12.442
85389W        W44485  17.755   2.927   1.382
85390W        W44486  14.324   0.420   2.778
85391W        W44487  33.919  15.161   2.418
85392W        W44488  10.366  18.588   2.677
85393W        W44489  38.054   5.845  10.421
85394W        W44490  32.927   7.700  12.972
85395W        W44491  42.314   5.391   2.857
85396W        W44492   2.961  39.413   2.745
85397W        W44493  25.179  23.118  10.096
85398W        W44494  20.552  34.495   3.181
85399W        W44495  10.355  14.677  12.367
85400W        W44496  44.927  29.615   2.298
85401W        W44497  24.505  14.095  11.447
85402W        W44498  18.627  16.791  12.891
85403W        W44499   7.379  15.282  10.481
85404W        W44500   1.427  41.011   1.311
85405W        W44501  15.276  10.854  11.999
85406W        W44502  22.233  11.860   1.267
85407W        W44503  20.616  16.784  14.493
85408W        W44504  12.307  22.722  13.343
85409W        W44505   8.310  12.825  12.960
85410W        W44506  19.099  14.339  12.351
85411W        W44507  34.096  39.042   2.198
85412W        W44508  39.905  11.680   1.289
85413W        W44509  13.825  44.326   4.269
85414W        W44510  11.815  44.486  13.033
85415W        W44511  11.863   7.697  11.983
85416W        W44512  38.997   2.242   2.348
85417W        W44513  27.051  21.215  12.339
85418W        W44514   2.447  41.458  13.477
85419W        W44515   6.909  39.517  10.438
85420W        W44516   3.912  44.871  14.485
85421W        W44517  26.070  17.587   1.880
85422W        W44518   0.362  12.840  11.531
85423W        W44519  28.678  24.224   4.699
85424W        W44520  32.028  11.645   1.327
85425W        W44521   7.883  19.080   0.266
85426W        W44522  38.560  40.001   3.308
85427W        W44523  41.523  19.562   4.761
85428W        W44524  24.061  40.520   4.327
85429W        W44525  25.607  24.522  12.398
85430W        W44526  13.208  43.847  13.865
85431W        W44527   1.267  28.522   3.631
85432W        W44528  32.429  32.000  14.913
85433W        W44529  33.484  21.749  13.407
85434W        W44530   5.213  34.924   1.435
85435W        W44531  44.853  44.776   0.765
85436W        W44532  16.709  14.753  10.594
85437W        W44533  38.374  27.532  12.083
85438W        W44534   3.815  31.081   0.736
85439W        W44535  10.830  43.010  14.416
85440W        W44536  28.538  25.569   3.145
85441W        W44537  27.984   2.905   0.959
85442W        W44538  12.291  28.480   5.586
85443W        W44539   2.758  26.476  14.759
85444W        W44540  44.312  19.743   9.930
85445W        W44541   6.783  21.757  12.975
85446W        W44542  28.642  28.533  12.429
85447W        W44543   6.831  43.336  11.559
85448W        W44544   8.234  17.121   4.229
85449W        W44545   6.918  43.305  10.566
85450W        W44546   6.856  18.112  14.401
85451W        W44547  17.221  38.982   1.933
85452W        W44548  38.950  37.367  12.394
85453W        W44549  34.033  34.018  14.433
85454W        W44550  30.614  38.531   3.382
85455W        W44551   0.834  26.503   0.926
85456W        W44552  27.568  29.076  12.434
85457W        W44553   5.246  29.447  13.000
85458W        W44554  22.639  42.305  12.511
85459W        W44555   6.887  30.458  13.874
85460W        W44556  34.540   6.814   0.840
85461W        W44557   4.869  27.533  11.462
85462W        W44558  11.777  41.507  11.018
85463W        W44559  20.168   1.328   4.699
85464W        W44560  16.576  13.762  11.471
85465W        W44561  37.860   8.232  13.864
85466W        W44562   9.334  26.007   5.700
85467W        W44563   9.889  13.841  12.364
85468W        W44564  42.518  29.429   0.324
85469W        W44565  35.520  41.842  10.415
85470W        W44566   6.904  14.184   2.728
85471W        W44567  40.001  26.057  13.997
85472W        W44568  18.221  10.827   2.209
85473W        W44569  43.843  20.051   3.218
85474W        W44570  29.592   5.300  13.961
85475W        W44571  27.009  31.582  11.412
85476W        W44572  42.837  40.437   5.160
85477W        W44573   5.697  27.655   1.390
85478W        W44574   7.783   3.750  14.782
85479W        W44575   7.699  11.191  10.611
85480W        W44576  37.550  41.307  10.538
85481W        W44577   7.731   8.768  12.431
85482W        W44578   2.275  34.374   4.351
85483W        W44579  41.453  22.624  13.039
85484W        W44580  29.474   6.789   0.817
85485W        W44581   5.347  23.546   2.807
85486W        W44582  33.953  44.910  10.436
85487W        W44583  30.919  28.560  10.961
85488W        W44584  30.074  25.187   9.960
85489W        W44585   5.905  30.156   3.736
85490W        W44586  28.014  44.772   4.777
85491W        W44587  18.256   7.828   4.116
85492W        W44588  10.675   1.766   2.277
85493W        W44589  35.881  37.448   4.124
85494W        W44590   8.335  28.451  13.335
85495W        W44591  29.972  13.117  11.484
85496W        W44592  28.646  24.185   2.398
85497W        W44593  22.178   7.683  14.887
85498W        W44594  25.962  41.446   2.751
85499W        W44595   3.303  40.416   2.721
85500W        W44596   1.280  31.062  13.911
85501W        W44597  12.680  41.524  11.490
85502W        W44598  38.896   7.171  12.053
85503W        W44599   0.920  26.172  14.012
85504W        W44600   4.434  41.043  10.944
85505W        W44601   7.346  20.158  12.494
85506W        W44602   5.905  14.735  14.816
85507W        W44603   8.282  10.209   2.368
85508W        W44604  32.000  41.310  10.633
85509W        W44605   1.365  37.485   2.813
85510W        W44606   5.355   1.391   4.139
85511W        W44607  23.660  22.556  11.509
85512W        W44608  29.965  37.942  11.501
85513W        W44609  41.904  42.502  10.927
85514W        W44610  38.558   7.761  10.988
85515W        W44611  44.964  23.033   3.358
85516W        W44612  15.820  24.988   0.281
85517W        W44613  32.411  12.664   1.839
85518W        W44614  44.356  26.486   1.419
85519W        W44615  12.210  20.561  14.767
85520W        W44616   0.390  16.209   2.192
85521W        W44617  40.375  26.575   3.629
85522W        W44618  15.809  36.959   5.582
85523W        W44619  32.086  32.940  10.561
85524W        W44620   0.749  27.540   3.636
85525W        W44621  16.717  28.050  14.514
85526W        W44622  19.173  10.161   1.385
85527W        W44623   8.666  32.093  12.890
85528W        W44624  26.105  14.228   0.361
85529W        W44625  16.618  20.655   1.754
85530W        W44626  43.837   6.874   1.311
85531W        W44627   2.806  33.981   3.171
85532W        W44628  41.319  40.511  10.505
85533W        W44629  27.103  21.647   3.749
85534W        W44630  13.268  30.156  12.996
85535W        W44631  21.196  30.657   2.774
85536W        W44632  30.980  39.445   0.842
85537W        W44633   0.379  25.497  10.591
85538W        W44634  33.079  39.025   3.674
85539W        W44635   7.188   6.723  13.979
85540W        W44636  23.119  12.260   0.408
85541W        W44637  44.492  42.969  12.902
85542W        W44638  40.367  21.513   3.164
85543W        W44639  32.634  41.799  12.873
85544W        W44640  32.974  29.938  12.528
85545W        W44641  39.399  42.496   1.381
85546W        W44642   4.214  20.567   1.762
85547W        W44643  40.511  23.680  12.982
85548W        W44644  27.090  39.035   4.172
85549W        W44645  43.413  17.759  10.613
85550W        W44646  24.539  18.193  11.947
85551W        W44647  42.946  24.014   2.249
85552W        W44648  18.713  15.752   0.323
85553W        W44649  34.932  21.707   1.375
85554W        W44650  16.624  29.961  13.354
85555W        W44651  25.691  19.150   4.157
85556W        W44652  43.978  20.047   2.863
85557W        W44653  23.128   9.351  12.348
85558W        W44654  28.987  35.859  14.311
85559W        W44655  21.072  14.605   4.195
85560W        W44656  10.154   1.801   3.336
85561W        W44657  24.992  23.141  14.344
85562W        W44658  42.412  13.842   4.222
85563W        W44659  15.264   7.366  11.447
85564W        W44660  37.963   3.796  13.915
85565W        W44661  13.227   2.776  10.430
85566W        W44662   1.320  19.657   2.256
85567W        W44663  43.418  39.025  12.053
85568W        W44664   0.852  17.567  13.958
85569W        W44665  43.773   2.834  13.885
85570W        W44666  42.851  26.502   3.322
85571W        W44667  40.499  32.443  13.027
85572W        W44668  24.479  27.487   0.324
85573W        W44669  42.874  43.432  11.480
85574W        W44670  26.080  34.448   1.307
85575W        W44671   0.779   6.269  13.362
85576W        W44672  18.119   8.386  14.877
85577W        W44673  15.667   8.395   4.707
85578W        W44674  18.266  32.486  12.479
85579W        W44675   4.714   1.824   4.839
85580W        W44676   6.870  38.939   0.448
85581W        W44677  15.199  34.909  14.900
85582W        W44678   3.913  41.970  11.024
85583W        W44679  31.047  16.691   0.265
85584W        W44680  24.101   5.697   2.337
85585W        W44681   3.753  42.798   0.351
85586W        W44682   9.277   6.753  10.430
85587W        W44683  26.145   6.344   0.418
85588W        W44684   7.710  16.315   2.373
85589W        W44685   7.747  26.191  11.096
85590W        W44686  18.694  43.928  12.363
85591W        W44687  44.785  22.202  14.015
85592W        W44688  12.243  11.788   3.819
85593W        W44689  31.447  20.035   1.700
85594W        W44690  21.122  43.320  12.933
85595W        W44691  17.759  41.485   0.459
85596W        W44692   0.783   2.387  13.007
85597W        W44693   5.717  39.050  12.342
85598W        W44694  43.778  39.030  12.911
85599W        W44695   0.254   3.214  13.995
85600W        W44696  36.414  16.152   5.262
85601W        W44697  28.661  37.907   2.258
85602W        W44698  38.992   2.311   5.168
85603W        W44699  14.609   3.364   4.177
85604W        W44700  22.529  37.985  14.872
85605W        W44701   2.820  36.961  11.491
85606W        W44702  12.323   5.862   3.703
85607W        W44703  19.185  13.762   3.677
85608W        W44704  21.241  41.346  11.074
85609W        W44705  22.505  35.975   5.253
85610W        W44706  35.558  30.472  10.465
85611W        W44707  40.340  26.605  14.977
85612W        W44708  19.571  41.839  14.483
85613W        W44709  30.128  38.538  10.565
85614W        W44710   3.312  24.067  11.037
85615W        W44711  16.194  39.918   0.749
85616W        W44712  41.986  21.155  12.386
85617W        W44713  31.460  13.170  13.457
85618W        W44714  25.044  12.682   2.322
85619W        W44715  23.157  14.644   4.248
85620W        W44716   4.238  29.504  11.411
85621W        W44717  43.777  40.876   1.401
85622W        W44718  44.280  29.568   0.462
85623W        W44719  23.040  17.678   0.401
85624W        W44720  43.986   5.200  10.562
85625W        W44721  34.981  36.071   2.329
85626W        W44722  16.609  11.127   2.846
85627W        W44723  20.174  32.138  12.464
85628W        W44724  13.785  38.884   4.789
85629W        W44725  11.158   1.326   3.828
85630W        W44726  35.102  22.212  14.466
85631W        W44727  27.651  11.261   2.671
85632W        W44728  13.828  23.061  13.328
85633W        W44729  24.623  27.069   1.866
85634W        W44730  21.054  26.020  14.017
85635W        W44731  20.166  41.946   1.317
85636W        W44732  20.585  39.492   3.706
85637W        W44733  17.087  11.715   1.420
85638W        W44734   6.760  44.809   4.146
85639W        W44735  35.012   8.801   0.848
85640W        W44736  21.568  40.993  12.901
85641W        W44737   9.394  32.502  13.371
85642W        W44738  39.361  12.734   2.744
85643W        W44739  18.053  26.478  11.080
85644W        W44740  23.080  40.999  11.380
85645W        W44741  36.889  21.088   0.868
85646W        W44742  24.012  41.887  12.371
85647W        W44743  33.913  36.002  14.503
85648W        W44744  22.028  18.098   3.220
85649W        W44745   9.865   8.207  12.467
85650W        W44746   7.894  34.880  14.468
85651W        W44747   0.914   5.276  12.431
85652W        W44748  31.133  17.146  11.104
85653W        W44749  32.413  15.260   4.219
85654W        W44750  10.197  34.933   5.301
85655W        W44751  42.486  10.718   0.322
85656W        W44752   2.766  11.361  13.326
85657W        W44753  33.494  44.364   4.256
85658W        W44754  12.636  38.947  12.539
85659W        W44755  27.487  42.931  11.984
85660W        W44756  12.276   2.801  13.807
85661W        W44757   7.387  41.917   0.252
85662W        W44758  25.567  26.508   5.129
85663W        W44759  21.645   2.880   2.860
85664W        W44760   2.407  35.450  11.442
85665W        W44761  15.130  23.109  14.301
85666W        W44762  38.454   5.236   2.322
85667W        W44763  25.150   5.398   4.795
85668W        W44764  40.472  12.256  11.978
85669W        W44765  23.548  43.329   4.597
85670W        W44766   1.943   8.679   4.343
85671W        W44767  15.770  25.034  14.767
85672W        W44768  11.208   4.406   1.766
85673W        W44769  21.570  39.000   4.274
85674W        W44770  41.881  16.281   4.636
85675W        W44771  36.920  35.007  13.918
85676W        W44772  17.282  10.384  13.829
85677W        W44773   5.199   4.250   0.406
85678W        W44774  37.881  36.527   4.752
85679W        W44775  19.739  22.647  14.764
85680W        W44776   5.787   2.241   3.862
85681W        W44777  15.601  18.077  14.347
85682W        W44778  31.463   4.887  12.078
85683W        W44779  14.189  25.597   4.129
85684W        W44780  24.623   1.834   0.871
85685W        W44781   2.433  42.322   3.869
85686W        W44782  24.131  35.533  10.112
85687W        W44783  18.284  16.246   3.678
85688W        W44784  11.262  16.644  11.050
85689W        W44785   5.312  12.337  12.345
85690W        W44786  21.575   3.783   1.324
85691W        W44787  17.304  25.548   3.763
85692W        W44788  20.607  22.543  11.902
85693W        W44789   3.299   0.957  10.976
85694W        W44790  27.620  12.777  11.579
85695W        W44791  35.587   2.782  14.782
85696W        W44792  37.884  37.480  12.438
85697W        W44793  43.959  29.528   0.332
85698W        W44794   5.874  20.707  13.437
85699W        W44795  10.752  16.183  14.275
85700W        W44796  42.787   2.434  14.853
85701W        W44797  12.121  18.237  12.481
85702W        W44798  39.314  24.021  12.933
85703W        W44799  28.464  38.431   0.781
85704W        W44800  33.542  29.936   1.831
85705W        W44801  37.952   1.364   1.213
85706W        W44802  40.010   3.883  14.479
85707W        W44803  28.070  21.573   0.876
85708W        W44804  14.676   2.306  13.001
85709W        W44805  37.830   4.289   2.206
85710W        W44806  37.911   4.402  12.920
85711W        W44807  26.013  31.472  13.807
85712W        W44808  24.539  11.182   1.923
85713W        W44809  37.934  39.526  13.528
85714W        W44810  11.147   3.822  14.446
85715W        W44811  39.049  38.941  11.599
85716W        W44812  26.086  33.883  14.852
85717W        W44813  26.658   7.875  12.386
85718W        W44814  37.029  32.999   1.429
85719W        W44815  39.972  40.960  12.578
85720W        W44816   9.746  39.328  10.457
85721W        W44817   8.235   8.836   2.311
85722W        W44818  34.990  15.153  13.361
85723W        W44819  17.192  11.768   3.378
85724W        W44820  27.477   2.916  12.462
85725W        W44821  29.986  13.240  13.967
85726W        W44822  36.919  42.912  13.317
85727W        W44823   5.201  20.155  10.505
85728W        W44824  25.599  43.818   4.601
85729W        W44825  11.182  44.839  12.562
85730W        W44826  10.675  20.174   3.740
85731W        W44827  12.227  40.932  11.076
85732W        W44828   0.879   5.703   0.849
85733W        W44829  37.065  37.865   2.296
85734W        W44830  23.621  31.427   1.843
85735W        W44831  30.593   2.919   1.736
85736W        W44832  15.111  14.695   0.914
85737W        W44833  26.011  36.404   9.994
85738W        W44834  38.329   2.934   0.263
85739W        W44835  22.702   8.347   2.724
85740W        W44836  39.904  30.099  10.428
85741W        W44837   5.757  28.532  14.298
85742W        W44838   6.289   2.916   1.698
85743W        W44839  16.771  33.956   9.993
85744W        W44840   2.270  40.318   4.133
85745W        W44841  42.477  33.082  14.494
85746W        W44842  41.961   7.223  11.922
85747W        W44843  38.498  18.767  10.451
85748W        W44844   3.925   1.307   2.687
85749W        W44845  40.328  20.044   4.616
85750W        W44846  19.548  29.436   4.193
85751W        W44847  27.661  30.487  14.409
85752W        W44848   6.764  13.603   2.795
85753W        W44849  42.325  11.151   3.722
85754W        W44850   3.341  25.175  11.069
85755W        W44851  17.126  15.244   1.241
85756W        W44852   8.690  35.886   1.401
85757W        W44853  22.146   8.192  12.954
85758W        W44854  14.615  35.987   3.775
85759W        W44855   1.754  37.390  12.411
85760W        W44856  10.651  31.549   1.347
85761W        W44857  13.824  17.735   3.830
85762W        W44858   9.332  35.872  11.504
85763W        W44859  12.235  31.967   3.230
85764W        W44860  33.881  37.413   4.820
85765W        W44861  27.195   3.849   3.759
85766W        W44862  39.052  20.156  11.069
85767W        W44863  20.265  39.438  10.916
85768W        W44864  12.320   5.382   1.263
85769W        W44865  11.656  42.335  11.075
85770W        W44866  31.087  36.494  12.420
85771W        W44867  15.285  41.501  13.432
85772W        W44868  22.560  18.230  14.014
85773W        W44869  20.750  41.398   1.753
85774W        W44870  33.551  28.020   4.329
85775W        W44871  28.087  25.049   1.808
85776W        W44872  22.637   0.428   2.669
85777W        W44873  36.049   9.301  12.989
85778W        W44874  30.076  28.470  11.926
85779W        W44875   8.197  42.500  12.464
85780W        W44876   6.223  10.259   5.200
85781W        W44877  41.911   5.309   3.703
85782W        W44878  28.542   6.416   1.237
85783W        W44879  32.105  13.689  10.470
85784W        W44880  43.307  43.276  11.878
85785W        W44881  43.852  38.944   0.336
85786W        W44882  12.253  30.597   0.267
85787W        W44883  44.406  24.537  12.037
85788W        W44884  32.444  22.251   0.383
85789W        W44885  33.096  17.208  14.401
85790W        W44886  38.908  16.263   2.893
85791W        W44887   8.779  26.107  13.877
85792W        W44888  41.989  20.060  12.556
85793W        W44889  29.998  32.132   0.315
85794W        W44890  13.299   1.732  11.390
85795W        W44891  44.448  33.435   0.869
85796W        W44892   9.856  11.757  12.987
85797W        W44893   8.767  20.760  12.884
85798W        W44894   5.267  26.149  12.895
85799W        W44895  16.305  13.660   4.729
85800W        W44896  23.719  33.405   2.800
85801W        W44897  33.940  31.464  12.033
85802W        W44898  14.716  14.590   3.815
85803W        W44899   3.387  13.202  11.562
85804W        W44900   5.330  44.307   0.948
85805W        W44901  29.980  40.952  11.533
85806W        W44902  13.198   8.294  10.590
85807W        W44903  26.481  28.600   1.765
85808W        W44904  25.208  30.606   3.745
85809W        W44905   6.853   7.876   1.889
85810W        W44906  31.630   3.439  12.070
85811W        W44907   7.776  19.174  14.340
85812W        W44908   5.931  27.546  12.480
85813W        W44909   9.884  18.645   4.307
85814W        W44910  41.336  38.823   3.287
85815W        W44911  10.868  35.024   4.688
85816W        W44912  36.392   2.839  12.396
85817W        W44913  39.459  22.583   3.258
85818W        W44914  28.934  27.171  10.593
85819W        W44915  33.010  11.343  14.773
85820W        W44916  29.528  19.139   4.833
85821W        W44917  11.359   2.818   0.323
85822W        W44918  21.698  32.061   0.435
85823W        W44919   1.371  10.736  13.000
85824W        W44920  41.370  21.651   4.295
85825W        W44921  24.667  37.004  11.504
85826W        W44922  15.593  29.033   9.499
85827W        W44923  16.151  35.924   3.648
85828W        W44924  29.536  19.245   5.117
85829W        W44925  18.109  24.663  14.826
85830W        W44926  43.396  41.947  14.463
85831W        W44927  23.212  23.163  11.917
85832W        W44928  36.848  33.530   4.692
85833W        W44929  17.746  43.925  13.011
85834W        W44930  28.024  16.306   1.367
85835W        W44931   4.762  22.578   4.739
85836W        W44932   0.951   0.366   1.385
85837W        W44933  37.552   3.255  12.938
85838W        W44934  12.817  37.891  11.081
85839W        W44935  33.564  24.509   1.859
85840W        W44936  25.067  30.463  13.491
85841W        W44937  32.564  37.017   2.305
85842W        W44938  40.536  38.561  14.893
85843W        W44939   8.333  35.875   3.341
85844W        W44940  19.575  20.066   2.214
85845W        W44941  19.544  10.746  12.944
85846W        W44942  10.255  41.851  14.818
85847W        W44943  39.863   6.375  10.538
85848W        W44944  12.798  41.812  14.897
85849W        W44945  44.475   5.797   2.375
85850W        W44946   2.301   7.248  13.846
85851W        W44947  15.118  35.025  13.341
85852W        W44948   8.722  33.081   2.701
85853W        W44949  10.657   2.803  14.350
85854W        W44950   0.455  40.367  11.485
85855W        W44951  33.515  25.560   0.271
85856W        W44952  24.533   7.245   4.647
85857W        W44953  26.144  39.319  11.600
85858W        W44954  16.744   4.371  14.287
85859W        W44955  38.907  20.525  13.410
85860W        W44956  25.509   7.822   3.645
85861W        W44957  43.897  26.548  13.800
85862W        W44958   7.844  41.470  10.461
85863W        W44959  34.503  34.991   0.290
85864W        W44960  27.095  41.361  11.984
85865W        W44961   7.898  11.237  10.104
85866W        W44962  22.247  36.379   1.291
85867W        W44963   9.197  25.605   1.332
85868W        W44964  27.073  33.994  12.421
85869W        W44965  13.210  19.701  10.427
85870W        W44966  21.072  43.767  10.142
85871W        W44967  34.509  20.538   4.618
85872W        W44968  24.089  14.827   1.281
85873W        W44969  28.993  30.644  12.877
85874W        W44970  10.663  40.414  12.906
85875W        W44971   4.326  27.061  13.871
85876W        W44972  33.465  42.417   4.768
85877W        W44973  17.611  26.641  13.907
85878W        W44974  37.354  32.067   4.164
85879W        W44975  43.353   7.377  13.052
85880W        W44976   3.816   4.341  14.484
85881W        W44977  37.020  19.212   0.400
85882W        W44978  32.471   1.876  11.127
85883W        W44979  18.117  38.825   4.262
85884W        W44980  20.567  41.000  14.479
85885W        W44981  35.504  26.613   3.341
85886W        W44982   4.800  26.594  12.045
85887W        W44983  30.085  33.026  12.049
85888W        W44984  18.227  28.171   2.236
85889W        W44985  29.664  25.674  10.448
85890W        W44986   8.277  13.335   3.381
85891W        W44987  28.103   6.751   4.196
85892W        W44988  16.209  26.656  12.979
85893W        W44989  23.544  38.400   1.334
85894W        W44990  33.569  27.979  10.523
85895W        W44991  14.225  13.178   4.766
85896W        W44992  16.236  14.750  11.957
85897W        W44993  29.453   1.921   1.450
85898W        W44994  22.662   7.690   4.184
85899W        W44995  22.607  27.593  14.304
85900W        W44996   8.251  33.989  14.940
85901W        W44997  22.246  27.680   0.935
85902W        W44998  24.001  30.108   2.873
85903W        W44999   8.862   9.380   0.822
85904W        W45000  36.410  44.916  12.457
85905W        W45001  33.947   4.297   0.875
85906W        W45002  44.773  28.588  13.977
85907W        W45003  18.078  19.123   2.231
85908W        W45004   1.277  44.900  13.044
85909W        W45005  29.996  40.367  13.363
85910W        W45006  26.092  10.313   0.868
85911W        W45007  15.151  28.641  11.001
85912W        W45008   5.307  41.927  12.388
85913W        W45009  15.164  11.809  14.020
85914W        W45010   8.852  24.066  14.976
85915W        W45011  34.976  28.044  11.874
85916W        W45012  33.623  42.342  10.538
85917W        W45013  38.348  37.952   1.935
85918W        W45014  43.339  12.686  10.477
85919W        W45015  35.369  11.320  11.928
85920W        W45016  32.017   4.859   1.828
85921W        W45017  10.155  37.343   2.368
85922W        W45018  37.363   8.664  11.117
85923W        W45019   1.817  44.289  11.915
85924W        W45020  32.462  26.144  11.106
85925W        W45021  23.506  28.938  12.030
85926W        W45022  25.196   1.329   2.862
85927W        W45023  34.936  43.349   3.640
85928W        W45024  11.178  18.713  11.109
85929W        W45025  37.483  40.901   0.260
85930W        W45026  34.015  18.265   4.601
85931W        W45027  31.979   5.692  13.014
85932W        W45028  39.975  10.668   5.161
85933W        W45029   6.200  39.842   3.795
85934W        W45030  44.326  28.640   0.386
85935W        W45031  10.225  29.484  10.032
85936W        W45032  32.579  40.852   3.835
85937W        W45033  28.482   3.428  13.540
85938W        W45034  41.371  35.033  12.565
85939W        W45035   9.322  19.282   3.385
85940W        W45036  34.907  11.260  11.485
85941W        W45037  23.627  14.753   2.730
85942W        W45038  17.208  18.776   4.790
85943W        W45039   1.477  12.833  14.457
85944W        W45040   2.903  14.186   4.196
85945W        W45041  17.786  34.027  10.559
85946W        W45042  23.508  11.701  13.911
85947W        W45043  33.985   6.416   3.183
85948W        W45044  11.716  27.613  13.449
85949W        W45045  14.208   8.677   2.260
85950W        W45046  16.599  30.043   0.259
85951W        W45047  17.777  14.722  14.835
85952W        W45048  43.920  27.005  11.460
85953W        W45049  24.176  38.330  13.831
85954W        W45050  38.527  41.511   0.345
85955W        W45051  22.556   7.347  14.393
85956W        W45052  26.531  42.386  11.082
85957W        W45053  16.298  33.044   4.315
85958W        W45054   4.377  44.851   4.715
85959W        W45055  33.978  33.941  12.431
85960W        W45056  39.016  11.231  10.158
85961W        W45057  25.001  12.769  14.847
85962W        W45058   2.853  10.343   2.864
85963W        W45059  10.686  30.640   0.897
85964W        W45060   7.281  10.258  12.898
85965W        W45061  20.057  31.975   1.838
85966W        W45062  34.086  31.096   4.765
85967W        W45063  29.481  30.488  12.575
85968W        W45064   5.365  17.205  11.911
85969W        W45065  37.408  31.976   4.702
85970W        W45066  21.650  36.421   3.281
85971W        W45067  18.179  32.026  12.026
85972W        W45068  33.032  35.107   0.471
85973W        W45069  37.483   3.326   4.331
85974W        W45070  17.274  14.181  12.539
85975W        W45071  22.156  31.563   2.237
85976W        W45072  21.126  27.645   9.995
85977W        W45073  16.623  42.832   3.823
85978W        W45074  10.350  40.434  10.494
85979W        W45075   2.761  26.508   3.199
85980W        W45076  43.970  32.903   1.214
85981W        W45077   5.874  38.838  12.910
85982W        W45078   0.932  23.612   2.221
85983W        W45079   6.910  35.871  14.369
85984W        W45080  14.636  36.552   1.348
85985W        W45081   7.316  15.179  10.007
85986W        W45082  44.340  36.931  13.396
85987W        W45083   4.406  29.614  13.522
85988W        W45084  41.929  28.068  14.503
85989W        W45085  44.944  11.286  13.865
85990W        W45086  42.844  23.670  14.978
85991W        W45087  22.173  20.235   0.448
85992W        W45088  37.440  12.632   1.362
85993W        W45089  29.474   3.773  13.422
85994W        W45090  37.055  24.699  14.493
85995W        W45091  37.508   9.157   3.326
85996W        W45092  43.423  39.004   2.314
85997W        W45093   3.368  43.959   4.177
85998W        W45094   0.745  24.185   4.330
85999W        W45095  25.513   0.836   4.792
86000W        W45096  38.521  23.640  14.004
86001W        W45097  30.160  26.135   2.369
86002W        W45098   7.271  21.528   2.701
86003W        W45099  13.810   0.270  13.436
86004W        W45100  22.598  33.045   2.681
86005W        W45101  40.408  34.866   3.797
86006W        W45102  27.531   5.240  12.896
86007W        W45103   7.266  31.607   2.317
86008W        W45104  13.774  39.357   3.156
86009W        W45105   6.858  26.567   2.255
86010W        W45106   1.886   2.458  11.117
86011W        W45107   9.286  30.422   0.814
86012W        W45108  34.057  44.303  11.523
86013W        W45109  22.209   7.263   3.282
86014W        W45110   1.346   8.739   2.235
86015W        W45111  22.040   0.282  11.464
86016W        W45112   0.493  10.166   2.703
86017W        W45113   0.383  16.180   3.817
86018W        W45114  21.627   9.316  12.534
86019W        W45115  25.481  40.832   0.353
86020W        W45116   3.357  23.018  11.470
86021W        W45117   1.880  21.213   3.354
86022W        W45118  21.060  21.097   1.221
86023W        W45119   7.725  34.061  11.934
86024W        W45120  24.126  29.436  12.340
86025W        W45121  20.208  38.947  14.979
86026W        W45122  22.243  25.167   1.256
86027W        W45123  20.206  43.855   1.775
86028W        W45124  12.722  22.224  13.486
86029W        W45125   2.779  22.185  14.298
86030W        W45126  18.177  18.585  13.039
86031W        W45127  29.979  42.914   4.198
86032W        W45128  20.259  18.285  11.501
86033W        W45129  28.531  37.904  12.889
86034W        W45130   2.855  20.597   0.822
86035W        W45131  29.468  37.427  11.476
86036W        W45132  41.534  20.647  14.759
86037W        W45133   1.480  33.929  14.288
86038W        W45134  36.484  21.219   2.360
86039W        W45135  39.517  36.986   2.744
86040W        W45136  44.814  12.311   4.723
86041W        W45137  33.123  40.053   0.830
86042W        W45138   7.688   9.713  12.432
86043W        W45139  21.669  26.494   3.832
86044W        W45140  14.785  38.918  13.496
86045W        W45141  15.269  14.803  11.063
86046W        W45142  22.545  19.253  11.074
86047W        W45143  39.379   0.281   4.658
86048W        W45144   3.809  29.632  11.395
86049W        W45145  22.606  23.507  11.406
86050W        W45146  28.154  14.831   0.480
86051W        W45147  44.864  44.412  10.900
86052W        W45148  40.393  16.168   4.617
86053W        W45149  21.017   1.862  14.859
86054W        W45150   1.421  17.616  11.021
86055W        W45151  30.026  25.535  11.953
86056W        W45152   1.463  21.729  11.449
86057W        W45153  41.340  17.225  14.406
86058W        W45154  17.227  11.340   3.759
86059W        W45155   3.303  41.042   4.207
86060W        W45156  15.292  25.160  10.408
86061W        W45157  18.133   5.321   1.906
86062W        W45158   2.814  12.752   3.813
86063W        W45159  11.734  16.774  11.552
86064W        W45160   1.300   2.330   0.866
86065W        W45161   2.768  27.056  14.440
86066W        W45162  24.478  26.643   0.408
86067W        W45163  10.208   8.744   0.739
86068W        W45164  39.008  23.617  11.418
86069W        W45165  26.599  30.496  10.419
86070W        W45166  12.248  35.579  12.941
86071W        W45167  35.960  15.212  14.795
86072W        W45168  23.066  20.235  13.942
86073W        W45169  16.109   1.354   2.758
86074W        W45170  12.306   0.856  12.051
86075W        W45171  13.312  44.454   4.351
86076W        W45172  33.450  10.262   1.264
86077W        W45173  11.361  29.965   1.802
86078W        W45174  15.212   8.205   2.707
86079W        W45175   5.687  14.218  12.844
86080W        W45176  12.296  26.609   5.764
86081W        W45177   6.707  29.027   4.326
86082W        W45178  38.481  13.189  14.834
86083W        W45179  20.568  34.408   0.828
86084W        W45180  27.033  35.489  13.836
86085W        W45181   1.384  38.405  14.474
86086W        W45182  17.071  21.683   0.436
86087W        W45183  24.149   2.883  11.566
86088W        W45184  31.109  10.653   2.689
86089W        W45185   3.917   0.767  14.464
86090W        W45186   7.292  28.162   3.326
86091W        W45187  44.265  23.148   3.831
86092W        W45188  15.634  38.916  10.979
86093W        W45189   2.873  26.069  13.893
86094W        W45190  24.584   0.901  11.125
86095W        W45191  16.655   5.425  14.465
86096W        W45192  44.854  42.511  12.409
86097W        W45193  15.083  25.992   0.815
86098W        W45194  13.800  12.165   4.282
86099W        W45195  15.722   3.730  12.485
86100W        W45196  20.532  19.775   1.812
86101W        W45197  38.017  21.114  11.551
86102W        W45198  35.578  42.855   2.746
86103W        W45199  16.228  30.124   0.956
86104W        W45200  32.966  29.112   3.758
86105W        W45201  18.262  22.097   3.732
86106W        W45202  13.227   8.226   3.843
86107W        W45203  39.822  29.106  14.293
86108W        W45204  25.657  18.782   1.735
86109W        W45205  39.537  40.505   1.783
86110W        W45206  22.203  27.611   1.234
86111W        W45207   6.887  15.763   4.653
86112W        W45208  43.876  29.458   3.278
86113W        W45209  22.092  25.205  13.361
86114W        W45210  29.543  39.523  13.472
86115W        W45211  18.718   0.892   2.738
86116W        W45212  44.898  26.686  11.540
86117W        W45213  33.099  10.185   3.829
86118W        W45214  29.963  44.895  12.451
86119W        W45215  12.192  39.947   3.728
86120W        W45216  23.048  18.170   2.407
86121W        W45217  26.206  16.185  11.936
86122W        W45218  36.901  37.449  11.875
86123W        W45219  25.510  25.620   2.304
86124W        W45220  28.131  41.969  11.856
86125W        W45221  24.601   3.740   0.830
86126W        W45222   7.401  13.696  13.832
86127W        W45223  18.740   2.382  14.798
86128W        W45224   8.665  26.513   2.821
86129W        W45225   1.371  14.645  13.890
86130W        W45226  24.215  32.478   2.346
86131W        W45227  30.514  20.123  14.393
86132W        W45228  32.526   7.409  10.022
86133W        W45229  21.045  44.793   4.298
86134W        W45230  15.591  26.530   4.261
86135W        W45231  19.043  44.430  12.401
86136W        W45232  12.253  26.687   3.644
86137W        W45233  20.526  22.641  11.114
86138W        W45234  13.235  33.104   1.834
86139W        W45235  44.875  12.707  12.893
86140W        W45236   5.296  37.501   1.927
86141W        W45237  14.329  13.776  12.933
86142W        W45238  36.954   6.310   3.814
86143W        W45239  13.802  22.669  14.844
86144W        W45240  32.502   7.865   2.890
86145W        W45241   1.894  31.954   4.824
86146W        W45242  21.700  10.871  14.303
86147W        W45243  35.947   5.924   2.237
86148W        W45244  37.441  39.334  12.405
86149W        W45245  10.144  34.562  12.490
86150W        W45246  27.002  39.065  14.880
86151W        W45247  14.255   4.435  15.000
86152W        W45248  24.020  25.651   0.384
86153W        W45249  18.052  13.287  14.981
86154W        W45250   3.774  13.701  11.489
86155W        W45251  24.177  13.315  11.554
86156W        W45252   9.175   8.899  12.367
86157W        W45253  38.872  10.806   0.457
86158W        W45254   0.934  35.489  12.464
86159W        W45255  39.488  44.856   1.865
86160W        W45256   5.776   4.270   0.275
86161W        W45257  26.561  16.102   3.270
86162W        W45258  23.570   9.732   5.752
86163W        W45259  30.462  35.854   4.159
86164W        W45260  24.678  38.463  10.530
86165W        W45261   8.183   7.813   2.811
86166W        W45262  18.619  16.703   0.253
86167W        W45263  16.717   1.475   1.340
86168W        W45264  12.835   3.928   4.260
86169W        W45265   6.874  38.558  11.435
86170W        W45266  18.070  42.812  13.435
86171W        W45267  31.502   7.200   1.294
86172W        W45268  29.655  16.197  14.791
86173W        W45269  19.603  20.252   1.266
86174W        W45270  13.623  29.491   0.334
86175W        W45271  10.775  29.000   9.555
86176W        W45272  13.315  27.054   3.312
86177W        W45273   1.766  10.292   4.212
86178W        W45274  25.484  11.317   2.709
86179W        W45275  40.463  11.283   4.698
86180W        W45276  38.885  19.142   1.817
86181W        W45277   6.810   1.779   4.209
86182W        W45278  39.318  32.110  10.568
86183W        W45279  34.030  18.763   3.743
86184W        W45280  15.278  11.250  11.509
86185W        W45281  35.871  14.670   0.248
86186W        W45282  23.590  43.013  11.984
86187W        W45283  11.731   0.384   3.801
86188W        W45284  32.432  40.004   4.665
86189W        W45285   0.841  21.150  10.910
86190W        W45286   7.724  29.996  13.004
86191W        W45287  14.699   5.931  13.408
86192W        W45288  12.215   2.245   1.378
86193W        W45289   5.732  13.682  13.835
86194W        W45290  25.496   9.292   2.751
86195W        W45291  13.753  40.506  12.558
86196W        W45292  44.767  34.007   3.258
86197W        W45293   5.855  23.120  13.471
86198W        W45294  11.317  26.131  12.554
86199W        W45295   8.285  19.266   1.247
86200W        W45296  13.722  15.168  13.054
86201W        W45297   5.418  36.926  11.901
86202W        W45298   6.919  12.856   4.806
86203W        W45299  24.595  13.680  11.927
86204W        W45300  35.067  17.674   3.159
86205W        W45301  19.609  31.050   2.677
86206W        W45302   0.809   1.239   4.829
86207W        W45303  14.335  40.839   1.216
86208W        W45304  36.925  29.005   2.261
86209W        W45305  31.093  21.690   0.450
86210W        W45306   3.830  26.650   4.214
86211W        W45307   5.363  32.591   2.253
86212W        W45308  23.513  18.554  10.491
86213W        W45309  17.091  40.021  14.003
86214W        W45310   7.290  18.224   3.234
86215W        W45311   9.708  32.599  10.471
86216W        W45312  44.485  44.773   3.846
86217W        W45313   8.782  33.106   0.926
86218W        W45314  35.604  25.175  12.549
86219W        W45315  11.243  26.475   0.829
86220W        W45316  28.609  28.962   1.798
86221W        W45317  32.105  36.519   4.702
86222W        W45318   9.666  27.019  13.943
86223W        W45319  39.326   9.853   2.230
86224W        W45320   5.310   3.249  12.484
86225W        W45321  24.533  14.705  11.442
86226W        W45322  30.154   7.387   0.387
86227W        W45323   6.307  28.987   4.185
86228W        W45324  42.979   6.206  13.537
86229W        W45325   2.904  40.828  10.406
86230W        W45326  12.305  42.961   2.851
86231W        W45327  38.986  33.499   4.622
86232W        W45328  24.072  39.878  13.316
86233W        W45329  24.671  18.278   3.763
86234W        W45330  31.934  19.119   4.334
86235W        W45331  25.204  16.076  13.903
86236W        W45332  43.366  25.613  14.493
86237W        W45333  19.181  26.500   3.744
86238W        W45334  29.056  36.384   2.797
86239W        W45335  18.580   3.263  12.019
86240W        W45336  34.382  11.237   9.937
86241W        W45337  15.322  21.153  13.863
86242W        W45338  17.591   6.705  13.398
86243W        W45339  41.414  31.120  12.502
86244W        W45340  22.743  14.136  14.393
86245W        W45341  10.304  34.605   0.378
86246W        W45342  17.307  24.577  10.947
86247W        W45343  29.926   7.292  14.930
86248W        W45344   8.685   9.791  11.049
86249W        W45345  27.141  15.640  11.527
86250W        W45346  42.316  22.569   2.766
86251W        W45347  36.407  41.821   4.113
86252W        W45348  27.603   3.249  14.965
86253W        W45349   6.753  23.669  12.936
86254W        W45350  38.439  26.566   4.653
86255W        W45351  14.624  32.008  14.805
86256W        W45352  17.071  11.263   2.662
86257W        W45353  33.109  25.594  14.955
86258W        W45354  21.613   4.427  14.299
86259W        W45355  37.382   9.270   1.218
86260W        W45356   0.280  19.672  10.437
86261W        W45357  15.205   9.657  13.416
86262W        W45358  16.664  38.920   3.813
86263W        W45359  39.432   9.190   3.229
86264W        W45360  43.939  24.210  14.282
86265W        W45361  32.917  36.091  12.054
86266W        W45362  29.974  38.072   0.930
86267W        W45363  32.031   2.804  14.482
86268W        W45364  18.207   6.370   1.733
86269W        W45365  16.790  41.941  11.609
86270W        W45366  37.883  43.417  12.440
86271W        W45367  36.512  16.574   1.861
86272W        W45368  19.556  24.009  12.924
86273W        W45369  38.833   8.336  12.012
86274W        W45370  33.480  38.415  14.012
86275W        W45371  30.572  29.540   4.208
86276W        W45372   5.771  26.683   4.241
86277W        W45373  25.104  24.054  12.980
86278W        W45374  15.223   3.809   2.709
86279W        W45375  34.069   6.270  13.851
86280W        W45376  41.349  41.017   1.415
86281W        W45377  20.744  34.886   4.705
86282W        W45378  43.428  17.267   4.787
86283W        W45379  21.691  27.026  12.486
86284W        W45380  11.328  21.085   2.397
86285W        W45381  14.699  27.189  14.332
86286W        W45382  27.943  14.144  11.394
86287W        W45383  44.890  29.009  11.958
86288W        W45384   5.322  15.273   4.603
86289W        W45385  34.908  41.467   9.931
86290W        W45386  25.980  23.583   1.755
86291W        W45387  21.145  35.953   5.585
86292W        W45388  24.215  38.441   1.901
86293W        W45389  41.413  27.491  11.439
86294W        W45390  12.158   8.665  12.949
86295W        W45391   3.408  16.788   0.360
86296W        W45392  27.018   4.778   2.758
86297W        W45393  36.398  15.621   9.581
86298W        W45394  32.900  29.644   1.750
86299W        W45395  16.638   3.866  11.996
86300W        W45396  27.527  16.225  11.988
86301W        W45397  28.539  10.785  12.879
86302W        W45398  21.696   3.316   0.445
86303W        W45399  19.737  24.069   2.813
86304W        W45400  28.127  32.419   4.757
86305W        W45401   4.403  41.839  14.800
86306W        W45402  24.070  20.133   1.347
86307W        W45403  10.324   5.853  13.324
86308W        W45404  27.574  23.561  13.054
86309W        W45405  21.196   7.912   0.470
86310W        W45406  33.879  17.247   2.383
86311W        W45407  14.341  11.352   2.771
86312W        W45408   3.827  36.848   3.639
86313W        W45409  41.985  41.419   2.179
86314W        W45410  33.011  12.629  13.998
86315W        W45411   7.763   2.726  14.847
86316W        W45412  41.396   4.824  14.398
86317W        W45413  42.367  26.129  11.889
86318W        W45414   9.367  32.527   3.811
86319W        W45415   7.686  13.172   4.797
86320W        W45416  28.531  12.319  14.308
86321W        W45417  42.906  30.921   0.263
86322W        W45418  15.756  19.608   1.850
86323W        W45419   8.257  11.848   0.371
86324W        W45420   3.737  17.681   1.428
86325W        W45421  27.977  41.951   3.358
86326W        W45422  21.694  16.691   2.891
86327W        W45423  14.616  16.672  10.996
86328W        W45424  22.230   0.839   2.208
86329W        W45425  15.198  11.690  10.494
86330W        W45426  42.321   4.296   1.841
86331W        W45427  33.007  33.991   2.736
86332W        W45428  25.074  13.276  14.337
86333W        W45429  11.351  19.739   2.332
86334W        W45430  31.912  17.304   1.416
86335W        W45431  31.604  30.929  11.543
86336W        W45432   6.404  22.661  10.009
86337W        W45433  23.117   4.920  11.541
86338W        W45434  36.961  19.147   1.867
86339W        W45435  25.514  35.367  10.958
86340W        W45436  37.926  29.568   3.658
86341W        W45437   6.246  19.623  12.465
86342W        W45438   0.917  40.827   4.770
86343W        W45439  18.143  28.526  10.553
86344W        W45440  27.011  33.127   5.206
86345W        W45441   4.286  30.917  14.933
86346W        W45442  34.008  11.275   3.687
86347W        W45443   7.804  26.534   0.308
86348W        W45444  27.071  16.190   0.816
86349W        W45445  21.525  15.227  13.460
86350W        W45446  41.400  27.105  11.977
86351W        W45447  41.391  22.010  13.990
86352W        W45448   2.315  19.092  11.448
86353W        W45449  16.709  15.190   0.889
86354W        W45450  37.336  36.453  11.470
86355W        W45451  44.912   8.881  14.990
86356W        W45452  20.535   9.730   2.713
86357W        W45453  18.222  35.065  13.813
86358W        W45454   5.809  42.875  12.892
86359W        W45455  36.461   8.859   1.384
86360W        W45456  34.533   9.208   3.324
86361W        W45457  19.734  30.570  12.847
86362W        W45458  36.509  34.100  12.387
86363W        W45459  24.714  32.911  11.983
86364W        W45460  40.912   9.203   2.258
86365W        W45461  22.215  34.593  12.524
86366W        W45462  30.580  42.984  10.897
86367W        W45463   1.923  35.889  12.488
86368W        W45464  38.336   6.264  12.842
86369W        W45465   5.225  42.352   3.255
86370W        W45466  38.824  39.856  12.954
86371W        W45467  26.106   9.284  10.511
86372W        W45468  17.625   3.266   2.803
86373W        W45469  27.020  34.546   0.408
86374W        W45470  40.539  35.062   2.680
86375W        W45471  42.871  26.163  13.023
86376W        W45472  14.268   9.820  13.045
86377W        W45473  41.803  17.219  14.299
86378W        W45474  35.045  28.129  10.042
86379W        W45475  37.980  20.253  13.970
86380W        W45476   2.457  24.694   2.317
86381W        W45477  17.747  41.398  14.393
86382W        W45478  19.281   0.320  12.088
86383W        W45479  36.354  30.538   2.802
86384W        W45480   7.366  40.891   1.875
86385W        W45481  14.126  25.078   4.771
86386W        W45482  44.450  17.672   3.178
86387W        W45483  28.437  44.857  11.964
86388W        W45484   1.472   6.908   4.236
86389W        W45485  24.035   1.858   1.415
86390W        W45486   4.854  11.171  11.437
86391W        W45487  18.789  44.264  14.970
86392W        W45488  30.027  23.492   4.324
86393W        W45489  44.835  16.132  13.419
86394W        W45490  38.903  44.946  14.841
86395W        W45491   3.253  29.647  10.569
86396W        W45492  31.974  27.512  10.431
86397W        W45493  26.021  40.977   1.440
86398W        W45494  38.950  34.487  10.550
86399W        W45495  34.074  15.759   4.299
86400W        W45496  39.501  14.717   2.749
86401W        W45497  28.558  12.672  12.068
86402W        W45498  34.508  42.869  11.463
86403W        W45499  28.179   4.745   0.879
86404W        W45500  30.916  36.452   1.844
86405W        W45501  11.235  14.226   9.599
86406W        W45502  18.721  22.240  14.315
86407W        W45503   0.353  12.660  14.807
86408W        W45504  35.984   2.729   4.787
86409W        W45505  37.002  26.982   2.767
86410W        W45506  39.395  10.802  14.900
86411W        W45507  13.629  40.880   1.793
86412W        W45508  26.594  10.213  13.352
86413W        W45509   8.191  23.239   2.325
86414W        W45510  16.216  38.408  13.340
86415W        W45511  33.039  15.619  12.010
86416W        W45512  30.947  42.488  13.473
86417W        W45513   4.839  33.464  12.539
86418W        W45514  20.056  24.121   0.457
86419W        W45515  42.938  37.833   1.433
86420W        W45516  42.393  13.190   3.802
86421W        W45517   6.834  26.183   5.276
86422W        W45518  25.698  39.862   1.932
86423W        W45519  43.397   3.445  10.092
86424W        W45520   3.796  32.117   9.986
86425W        W45521   9.199  34.596  13.914
86426W        W45522  17.708  43.897  13.496
86427W        W45523  20.208  20.578  11.106
86428W        W45524   4.726  22.515  14.920
86429W        W45525  13.607  43.367   1.409
86430W        W45526   0.350  22.597   4.184
86431W        W45527  23.032   1.475  13.420
86432W        W45528  29.135   1.870   4.281
86433W        W45529   4.404   5.888  12.387
86434W        W45530   1.245  21.710  14.826
86435W        W45531  44.503  37.438  12.989
86436W        W45532  39.878  29.062   2.747
86437W        W45533  26.616   3.436   2.778
86438W        W45534  25.574  28.642   0.473
86439W        W45535  15.101   1.452   4.213
86440W        W45536   0.806  35.448  13.439
86441W        W45537  33.451  21.148   3.322
86442W        W45538  31.004   5.860  10.509
86443W        W45539  39.390  19.693  12.008
86444W        W45540  12.695  15.146   2.311
86445W        W45541   8.738  44.359  12.014
86446W        W45542  28.011  28.063   4.701
86447W        W45543  44.413  37.347   1.316
86448W        W45544  43.022  39.475  13.034
86449W        W45545  44.321   5.888   1.231
86450W        W45546  35.932  32.898   4.796
86451W        W45547  41.921   1.479  11.945
86452W        W45548  36.904  30.631   0.347
86453W        W45549  31.513  34.396  12.840
86454W        W45550  41.935  37.571  11.568
86455W        W45551  25.115  13.615   4.619
86456W        W45552  29.587   6.293   1.272
86457W        W45553  13.301  20.141   2.241
86458W        W45554  18.173  14.319   1.383
86459W        W45555  21.514  17.650  12.482
86460W        W45556   1.338  32.608  11.431
86461W        W45557  34.103   0.413   3.738
86462W        W45558  32.989  44.999  11.122
86463W        W45559  30.035  36.043   4.123
86464W        W45560  25.600  43.492   1.436
86465W        W45561   9.876  30.151   2.879
86466W        W45562  37.526  26.616   0.398
86467W        W45563  37.018  22.512   1.443
86468W        W45564  40.493   8.248  13.967
86469W        W45565  19.553  43.910   2.799
86470W        W45566   2.467   0.343   3.779
86471W        W45567  15.112  22.533  14.843
86472W        W45568  40.820  39.936  12.493
86473W        W45569  11.308   9.315  12.553
86474W        W45570  37.918   4.258   3.326
86475W        W45571  28.079  43.492   4.136
86476W        W45572  22.550  44.445  12.528
86477W        W45573  24.597   7.768  12.060
86478W        W45574  33.511  36.370  14.319
86479W        W45575   3.382   7.741  13.430
86480W        W45576  36.079  18.550   4.174
86481W        W45577  29.058  25.999   1.265
86482W        W45578  40.327   9.865   0.281
86483W        W45579  22.054   0.920  11.492
86484W        W45580  39.028  42.917   1.749
86485W        W45581  25.617  24.014  14.018
86486W        W45582  37.886  34.390   0.276
86487W        W45583  37.533  14.671   3.341
86488W        W45584  20.219  21.594   4.817
86489W        W45585  32.399   8.222   1.885
86490W        W45586   6.404  12.688   2.682
86491W        W45587   6.869  32.448  11.392
86492W        W45588  30.445   2.921   0.791
86493W        W45589  39.966  18.159   0.429
86494W        W45590  23.173  27.165  14.455
86495W        W45591  30.099   7.187  11.591
86496W        W45592  15.225  27.599  12.093
86497W        W45593  42.498  25.597  11.072
86498W        W45594  31.596  29.510   2.232
86499W        W45595  27.995  19.147   2.336
86500W        W45596  19.156  19.771  13.388
86501W        W45597   9.362  27.097   3.771
86502W        W45598  32.046  14.227   4.205
86503W        W45599  29.638   3.750  12.536
86504W        W45600  37.022  32.554   1.746
86505W        W45601   4.704  26.968   0.855
86506W        W45602   1.884  31.555  13.815
86507W        W45603   1.917  26.600  10.005
86508W        W45604  25.137   2.471  12.006
86509W        W45605  14.596  28.620   5.224
86510W        W45606   0.866  21.097  12.421
86511W        W45607  28.490   1.367   3.200
86512W        W45608   3.339   5.254  14.510
86513W        W45609  28.167  43.448   4.799
86514W        W45610  33.094  14.241  13.881
86515W        W45611  16.572  18.202   0.810
86516W        W45612   2.735  35.404  10.542
86517W        W45613   8.387  43.335  14.916
86518W        W45614  26.464   5.304   2.231
86519W        W45615  18.606  21.088  10.135
86520W        W45616  42.927   2.381   5.171
86521W        W45617   7.794  32.977  12.502
86522W        W45618   9.707  35.984   1.288
86523W        W45619  34.047  43.977  10.554
86524W        W45620  11.305   6.262  11.075
86525W        W45621  20.685  42.489  10.432
86526W        W45622  11.285   3.271   0.925
86527W        W45623  27.501  23.027  11.122
86528W        W45624  41.791  10.729   3.768
86529W        W45625  29.551   4.264  12.985
86530W        W45626  34.873   3.336  14.931
86531W        W45627  40.430  29.546  11.525
86532W        W45628  38.558  20.035   1.824
86533W        W45629  27.505  25.548   0.875
86534W        W45630  21.044  22.061  14.346
86535W        W45631  33.918   4.733   4.167
86536W        W45632  40.019  31.015  11.895
86537W        W45633  15.302   2.752  11.443
86538W        W45634  12.806  17.261   3.189
86539W        W45635  44.970  18.106  12.869
86540W        W45636  26.674  42.422  14.987
86541W        W45637  20.137  21.751   1.889
86542W        W45638  13.750  38.418  14.323
86543W        W45639  18.649  20.262   4.256
86544W        W45640   7.800  41.906   1.808
86545W        W45641   8.736  18.784  12.016
86546W        W45642   0.325  24.014  14.767
86547W        W45643   8.809  10.140  11.982
86548W        W45644   6.203  42.485  11.900
86549W        W45645  29.447  32.961  14.968
86550W        W45646  42.995   5.822   3.740
86551W        W45647  33.963   1.745   0.791
86552W        W45648  37.541   7.323  13.842
86553W        W45649   3.838   9.690   0.914
86554W        W45650  20.063   7.238   2.253
86555W        W45651   2.409  42.917  14.934
86556W        W45652  39.879  18.285   3.379
86557W        W45653  38.909  17.085   0.268
86558W        W45654  43.975  22.648  12.951
86559W        W45655  16.599  43.399   0.787
86560W        W45656   5.742  22.655   4.222
86561W        W45657  25.685  10.766  11.105
86562W        W45658  37.336   9.692   1.713
86563W        W45659  39.387  14.152   1.782
86564W        W45660  18.062  20.144  13.325
86565W        W45661   7.404   5.778   4.731
86566W        W45662  29.919  38.857   2.751
86567W        W45663   9.774   5.400  10.977
86568W        W45664  24.554  38.908  11.502
86569W        W45665   3.768  17.589  10.635
86570W        W45666  15.589  36.372   9.485
86571W        W45667  10.265  39.378  11.432
86572W        W45668  25.664   5.280  11.963
86573W        W45669  37.396  42.947   4.775
86574W        W45670   2.824   6.236   4.338
86575W        W45671  29.934  39.376  11.450
86576W        W45672  26.611  43.319  13.485
86577W        W45673  13.686  11.207   3.868
86578W        W45674  19.588  30.477  11.898
86579W        W45675   0.861  10.681  14.760
86580W        W45676  10.701  26.653   2.219
86581W        W45677  20.074  36.942  12.340
86582W        W45678  42.816  15.230  11.508
86583W        W45679  42.433  30.508   3.735
86584W        W45680  40.034  43.382  10.615
86585W        W45681  39.481  10.359   2.304
86586W        W45682  23.493  38.538  10.906
86587W        W45683   1.851  43.811   3.205
86588W        W45684   2.744  21.087  10.591
86589W        W45685  18.203  29.460  12.384
86590W        W45686  27.940  40.872  12.529
86591W        W45687  14.674  33.028   2.236
86592W        W45688  42.915   7.800  12.490
86593W        W45689  17.196  30.948  12.480
86594W        W45690  41.440  20.166   3.290
86595W        W45691  23.007  22.668  14.014
86596W        W45692  26.111  36.958  12.504
86597W        W45693  33.108  15.596  13.939
86598W        W45694   3.950  16.673   1.213
86599W        W45695  44.286  38.946  10.624
86600W        W45696  21.142  23.699   1.890
86601W        W45697  28.001   5.386   3.377
86602W        W45698  24.479  23.495  11.029
86603W        W45699  11.639   1.922   9.957
86604W        W45700   6.689  36.063   0.300
86605W        W45701  21.551  10.371  13.958
86606W        W45702  30.413   9.257  11.479
86607W        W45703   9.312   0.393  14.955
86608W        W45704  24.508   6.859   3.798
86609W        W45705  12.179  29.432  12.516
86610W        W45706  30.580   4.771   2.371
86611W        W45707  19.767  30.926  11.099
86612W        W45708   5.712  11.717  12.823
86613W        W45709  44.286  29.162   0.326
86614W        W45710  31.453  11.252  13.029
86615W        W45711  36.890   3.450   0.889
86616W        W45712   4.363  17.688  10.637
86617W        W45713   5.815  44.983   1.308
86618W        W45714  12.190  36.385  11.020
86619W        W45715  34.513  14.221   0.831
86620W        W45716  15.193  12.197   3.245
86621W        W45717  26.048  39.394  10.442
86622W        W45718  12.359  36.438   2.813
86623W        W45719  16.290  36.438   0.268
86624W        W45720  22.182  20.217  10.521
86625W        W45721  38.054  32.493   4.117
86626W        W45722   4.298   2.837   1.444
86627W        W45723   4.867  31.968   3.676
86628W        W45724  38.997  40.373  10.588
86629W        W45725   8.307  11.138   2.805
86630W        W45726  33.939  42.468   2.804
86631W        W45727  19.603  25.664   2.273
86632W        W45728  43.890   2.779  14.957
86633W        W45729  29.130  28.993   2.376
86634W        W45730  38.409   8.752  13.806
86635W        W45731  32.421  42.787  14.832
86636W        W45732  22.099  31.427  13.454
86637W        W45733   2.457  44.765  12.413
86638W        W45734  41.009  35.908   2.186
86639W        W45735  41.822  18.125  11.020
86640W        W45736   3.926  13.841  12.087
86641W        W45737  26.541  35.373   2.868
86642W        W45738  42.874  10.804  13.523
86643W        W45739   4.362  11.686  14.945
86644W        W45740  16.673  16.313  14.759
86645W        W45741   2.282  25.989   3.784
86646W        W45742  24.012  27.457   4.642
86647W        W45743   3.951  44.410  12.837
86648W        W45744  23.493   0.823   1.439
86649W        W45745  34.049   7.720   2.270
86650W        W45746   6.390  11.836   4.711
86651W        W45747  24.570  41.329  11.034
86652W        W45748  44.990  11.657  10.963
86653W        W45749  35.965  35.421  10.573
86654W        W45750  29.034  23.675  13.889
86655W        W45751  23.630  10.359  11.111
86656W        W45752   1.745  35.393  13.993
86657W        W45753  19.545   9.230  13.314
86658W        W45754  19.040   5.714   0.255
86659W        W45755  18.683  24.166  13.972
86660W        W45756  40.487  27.960  10.143
86661W        W45757  28.996   3.248   1.234
86662W        W45758  33.098  19.675  12.465
86663W        W45759   0.762  37.506   0.362
86664W        W45760  11.267  39.019   3.254
86665W        W45761  39.993  31.924   3.319
86666W        W45762   4.746  40.877   0.445
86667W        W45763  11.290  40.806   0.288
86668W        W45764  26.650  41.974  11.377
86669W        W45765  30.093  40.317   0.422
86670W        W45766  35.918   3.755  14.863
86671W        W45767  28.153  15.644  11.421
86672W        W45768  25.095  44.961   1.218
86673W        W45769  36.518   7.703  12.830
86674W        W45770   4.353  35.107   4.695
86675W        W45771  43.820  34.980  13.818
86676W        W45772  38.416  22.160  10.643
86677W        W45773  31.962  16.250   1.237
86678W        W45774  12.147  27.541   5.204
86679W        W45775  43.979  10.772  13.488
86680W        W45776  42.999   4.776   1.754
86681W        W45777  28.045  31.933  10.057
86682W        W45778   6.217  28.462   3.732
86683W        W45779  26.702  35.083  11.560
86684W        W45780   1.286  24.692   4.290
86685W        W45781   9.258  39.352   3.207
86686W        W45782  12.327   4.871   4.135
86687W        W45783  16.074  38.949   2.798
86688W        W45784  16.185   0.382  11.968
86689W        W45785   5.439  41.507  14.892
86690W        W45786  20.077  43.280   2.876
86691W        W45787  17.264   8.672   3.777
86692W        W45788  10.662  39.493  14.282
86693W        W45789  29.073  22.217  13.948
86694W        W45790  43.490  39.972  14.918
86695W        W45791  16.315  20.047   4.694
86696W        W45792  22.132  13.181   0.867
86697W        W45793  27.545  22.509  12.438
86698W        W45794  20.707  26.167  11.899
86699W        W45795  41.472  21.597   1.266
86700W        W45796  17.688  17.159   3.830
86701W        W45797  30.940  38.035  13.929
86702W        W45798  36.387  38.952  12.904
86703W        W45799  12.339  44.395  12.424
86704W        W45800  32.445  28.579   1.922
86705W        W45801  13.846  22.054   1.871
86706W        W45802  26.104  23.543  10.981
86707W        W45803  35.373   2.450  11.373
86708W        W45804  30.074  29.596  12.046
86709W        W45805  10.336  42.842  14.939
86710W        W45806  37.011  45.000   0.870
86711W        W45807  22.165   0.856  14.911
86712W        W45808  16.093  43.802  12.392
86713W        W45809  30.486   8.285   0.404
86714W        W45810  28.037   0.917   4.249
86715W        W45811  13.772  35.898  11.448
86716W        W45812   0.795  19.559  14.763
86717W        W45813   4.779  41.839   0.786
86718W        W45814  28.616  18.765   4.773
86719W        W45815  32.904   1.238   4.246
86720W        W45816  40.955  28.147   0.754
86721W        W45817  11.808  33.418   3.150
86722W        W45818  31.987  31.929   0.918
86723W        W45819  29.567  11.780   4.224
86724W        W45820   4.259  35.973  11.094
86725W        W45821   6.833  22.650   4.759
86726W        W45822  43.481  10.225  14.290
86727W        W45823  31.073  21.178  10.424
86728W        W45824   1.251   9.775   2.772
86729W        W45825  11.673  13.759   4.236
86730W        W45826   2.882  29.075  12.493
86731W        W45827  23.234  21.206   3.697
86732W        W45828  40.392  44.453  11.612
86733W        W45829  31.554  10.258  13.904
86734W        W45830  41.500   7.906  12.034
86735W        W45831  16.314  14.725   4.806
86736W        W45832  35.566   3.883   2.382
86737W        W45833  27.528  42.467  10.914
86738W        W45834  36.086  28.948   0.293
86739W        W45835  30.042  13.185   4.139
86740W        W45836  43.820  26.130  13.928
86741W        W45837  21.640   6.254  12.422
86742W        W45838  17.786  37.842   1.782
86743W        W45839  14.313  21.091  10.618
86744W        W45840  28.522  22.611   1.315
86745W        W45841  21.166  33.038   3.861
86746W        W45842  14.639  28.116   2.323
86747W        W45843  23.069  18.748   3.193
86748W        W45844  11.730  20.711   0.270
86749W        W45845  31.488  37.398  11.415
86750W        W45846   2.298  44.783   2.357
86751W        W45847  27.977   3.409   5.238
86752W        W45848  10.763  13.129   0.365
86753W        W45849  21.686   7.711   3.312
86754W        W45850  44.970  13.218  14.302
86755W        W45851  20.627  27.464  12.348
86756W        W45852  19.570  19.640  11.564
86757W        W45853  39.997  15.282   0.865
86758W        W45854   7.744  41.984  11.959
86759W        W45855  30.961  31.553  11.603
86760W        W45856  26.655   7.353  12.390
86761W        W45857  21.168  29.975  12.468
86762W        W45858   9.263  32.524   4.294
86763W        W45859  10.767  23.583   4.721
86764W        W45860   8.848  32.925  14.431
86765W        W45861   2.822  11.856  11.471
86766W        W45862  25.503  11.664   2.396
86767W        W45863  19.598  11.827  14.438
86768W        W45864   9.832  19.665  10.915
86769W        W45865  33.005   5.775  13.826
86770W        W45866  30.608  31.014   3.808
86771W        W45867  30.095  25.676  12.396
86772W        W45868  27.090  17.101   2.903
86773W        W45869  28.504  40.832   4.274
86774W        W45870  43.789  42.928  14.508
86775W        W45871  19.780  16.296   0.749
86776W        W45872  43.955  32.428   3.677
86777W        W45873  15.091  13.186  10.983
86778W        W45874   3.455  25.172  13.433
86779W        W45875  43.793  29.036  14.480
86780W        W45876  18.184   4.888   4.640
86781W        W45877  25.575  37.035  10.949
86782W        W45878  17.213  23.079   2.810
86783W        W45879  27.470  31.623  12.068
86784W        W45880  36.934  13.347   3.195
86785W        W45881  35.916  30.475  12.061
86786W        W45882  42.516  16.268   4.656
86787W        W45883  19.734  40.545   3.860
86788W        W45884  14.640  37.417  11.492
86789W        W45885  16.194  11.816  11.042
86790W        W45886  24.075  16.263   4.266
86791W        W45887  24.121  18.711   1.424
86792W        W45888   3.420  11.694  13.820
86793W        W45889  32.104  32.891   4.630
86794W        W45890  26.206  10.855   0.385
86795W        W45891  15.806  16.571   5.192
86796W        W45892  15.327   7.694   2.239
86797W        W45893  38.485  21.628  13.422
86798W        W45894  29.003  25.124  14.311
86799W        W45895  32.912  31.571  13.431
86800W        W45896  28.059  14.248   5.167
86801W        W45897  20.639  19.257   1.701
86802W        W45898   0.302  28.565  10.524
86803W        W45899   8.873   0.453  11.061
86804W        W45900  30.451  14.293   5.110
86805W        W45901  25.692  36.997  10.425
86806W        W45902  27.647  35.968  11.578
86807W        W45903  33.910  16.314  12.425
86808W        W45904   3.412   0.768   0.759
86809W        W45905  44.761  28.653  10.488
86810W        W45906  44.447  36.918  10.430
86811W        W45907  42.864  22.710   2.297
86812W        W45908  27.002  10.838   1.340
86813W        W45909   7.236  14.691   4.145
86814W        W45910  23.003  13.213  11.537
86815W        W45911  10.828  29.062   2.703
86816W        W45912   4.274  16.615  11.425
86817W        W45913  20.056  33.885   0.450
86818W        W45914  35.004  23.734   4.661
86819W        W45915   7.898  15.258   4.216
86820W        W45916  38.469  36.846   3.222
86821W        W45917  35.929  10.168  13.415
86822W        W45918  35.559  14.663  11.490
86823W        W45919  35.540   8.262  12.913
86824W        W45920   6.185   7.209  13.533
86825W        W45921  35.026  30.914   2.374
86826W        W45922  37.400   5.222  14.876
86827W        W45923  10.203  11.722   2.285
86828W        W45924   4.837   2.463   3.789
86829W        W45925  16.683   4.212  12.962
86830W        W45926  40.901  10.687  11.402
86831W        W45927  29.140   7.903  11.481
86832W        W45928  33.397  18.629   1.228
86833W        W45929  38.335   6.866   3.197
86834W        W45930  40.321  10.804  14.381
86835W        W45931   4.350  16.233   0.388
86836W        W45932  35.969  30.973  10.949
86837W        W45933  11.193  12.782  13.517
86838W        W45934  33.964  31.930  10.921
86839W        W45935  20.130  11.842  12.574
86840W        W45936   2.952   1.834   0.415
86841W        W45937  36.016  12.778  13.979
86842W        W45938  33.532  10.159  14.420
86843W        W45939  28.175   0.878  14.829
86844W        W45940  35.426  34.972  10.619
86845W        W45941  38.403  41.492  13.843
86846W        W45942  23.050   2.321  13.466
86847W        W45943  42.474  31.960   0.741
86848W        W45944   3.404  42.364   4.802
86849W        W45945  42.478  12.139  10.907
86850W        W45946  22.557  36.429  13.940
86851W        W45947  11.690  28.473  10.548
86852W        W45948  23.012  17.801  13.458
86853W        W45949  44.010  21.113   3.662
86854W        W45950  39.961  31.042   4.832
86855W        W45951   1.243  13.622   3.867
86856W        W45952  29.535   2.934   1.317
86857W        W45953  27.484  12.757  12.969
86858W        W45954  24.134  26.196   4.676
86859W        W45955  40.446  11.678  13.822
86860W        W45956  15.700  39.987  12.500
86861W        W45957  43.293  41.827   1.858
86862W        W45958  41.896  41.409  12.823
86863W        W45959  41.933   7.292   0.425
86864W        W45960  24.702  21.686  13.501
86865W        W45961  42.501   1.244   2.344
86866W        W45962  36.020   5.715   2.686
86867W        W45963  21.154  42.412   2.795
86868W        W45964  17.639  43.398   1.827
86869W        W45965  12.200  40.831   4.657
86870W        W45966   3.396  34.376   4.614
86871W        W45967   7.176  12.157  14.317
86872W        W45968  28.529  28.957  13.024
86873W        W45969  41.293  44.963   2.778
86874W        W45970   9.674  25.519   0.248
86875W        W45971   1.888  38.944   4.598
86876W        W45972  17.190  26.972   3.175
86877W        W45973  18.572  33.557   3.812
86878W        W45974  36.464  33.399   9.939
86879W        W45975  29.632   7.764   4.293
86880W        W45976   3.810  39.012  12.390
86881W        W45977  38.923  34.376  11.057
86882W        W45978   6.764   2.889   0.280
86883W        W45979   2.340  18.784   3.869
86884W        W45980  43.356  19.660   1.935
86885W        W45981   2.863  11.232   0.456
86886W        W45982  14.099  23.623  11.087
86887W        W45983   5.931  36.039  11.896
86888W        W45984  38.931  44.986   4.720
86889W        W45985  12.268  34.450   1.422
86890W        W45986  30.472   9.277   4.128
86891W        W45987  17.071   5.861   2.333
86892W        W45988  29.653  37.547   4.728
86893W        W45989  33.065  26.617   2.826
86894W        W45990  17.099  12.847   2.279
86895W        W45991  32.486   7.703  11.509
86896W        W45992  42.920  37.987  12.366
86897W        W45993  34.940  29.572   4.696
86898W        W45994  40.398  25.578  14.458
86899W        W45995  28.965  32.952   4.322
86900W        W45996  43.001  42.869   3.794
86901W        W45997  23.571  38.553  13.045
86902W        W45998  38.955  19.178  13.354
86903W        W45999  28.638   8.838  13.916
86904W        W46000  36.997   2.940   0.897
86905W        W46001   7.908  38.073  11.584
86906W        W46002  15.593  33.403  14.339
86907W        W46003  37.565  14.638   1.387
86908W        W46004  30.601  25.158  11.541
86909W        W46005  24.041  27.008  12.059
86910W        W46006  13.626   9.209   0.772
86911W        W46007  22.068  33.532  11.420
86912W        W46008  41.494  33.063   4.260
86913W        W46009  17.742  38.333   1.448
86914W        W46010  16.154   3.265   2.693
86915W        W46011  34.970  31.510  13.915
86916W        W46012   0.369  14.590  10.584
86917W        W46013   8.668  38.823   3.172
86918W        W46014  38.374  44.882   3.174
86919W        W46015  30.601  12.234  13.044
86920W        W46016   4.770  26.030  13.805
86921W        W46017   2.826  20.095  13.361
86922W        W46018  23.510  17.141  10.955
86923W        W46019  20.524   2.926   4.281
86924W        W46020   6.289  35.572  14.388
86925W        W46021   8.788   2.728  10.502
86926W        W46022  34.519  43.378   0.925
86927W        W46023   6.186   8.168  11.040
86928W        W46024  15.119   4.405  13.525
86929W        W46025  34.604  14.636  14.788
86930W        W46026   5.706  20.143   0.730
86931W        W46027  19.093  17.166  11.891
86932W        W46028   6.747   0.875  10.521
86933W        W46029  32.435   4.873  10.574
86934W        W46030  11.643  33.582   2.222
86935W        W46031   9.790   1.850   3.652
86936W        W46032  11.332   6.787   1.705
86937W        W46033  37.870  44.501  13.500
86938W        W46034  18.067  37.537  14.503
86939W        W46035   1.824  10.359  12.377
86940W        W46036  32.072  39.844  11.071
86941W        W46037  14.340   0.385   3.315
86942W        W46038  30.542   3.310  11.396
86943W        W46039  29.444   3.939   4.715
86944W        W46040  25.641   1.290   0.810
86945W        W46041   6.407  20.081   1.764
86946W        W46042  10.142  10.729   1.322
86947W        W46043  13.730  17.573  13.829
86948W        W46044   1.290  11.722  13.975
86949W        W46045  14.203  30.118   1.438
86950W        W46046   4.925  36.393  10.939
86951W        W46047  43.872  20.062  11.481
86952W        W46048  39.424  21.085   4.303
86953W        W46049  30.972   3.949  10.489
86954W        W46050  28.547  13.783   4.635
86955W        W46051  36.489  11.191  12.347
86956W        W46052   4.786  35.529  14.400
86957W        W46053  40.488  30.546   3.278
86958W        W46054  19.080  39.329  12.038
86959W        W46055   2.344  26.511   2.855
86960W        W46056  22.684   9.153   1.785
86961W        W46057  38.509  35.470   4.728
86962W        W46058  39.997  14.152  11.572
86963W        W46059  29.653  19.217   0.922
86964W        W46060  20.042  15.712   4.327
86965W        W46061   2.888   2.810  13.405
86966W        W46062  41.410  18.113   1.292
86967W        W46063   9.703   6.890   3.235
86968W        W46064   2.439   9.861   2.253
86969W        W46065  39.553  34.448  14.780
86970W        W46066  29.056  19.675   4.172
86971W        W46067  44.270   5.363  12.523
86972W        W46068  22.237  36.465   2.399
86973W        W46069  27.982  18.103   0.903
86974W        W46070  44.939  10.311   0.811
86975W        W46071   5.256   4.720  13.050
86976W        W46072   2.900  32.554   4.115
86977W        W46073   2.924  32.004   1.268
86978W        W46074   1.950   1.844  13.993
86979W        W46075  22.035  14.273  12.503
86980W        W46076  37.565   6.286  14.832
86981W        W46077   2.845  16.637   2.414
86982W        W46078  16.777   3.308  13.400
86983W        W46079  27.112   6.269   3.802
86984W        W46080   1.260  44.969   3.200
86985W        W46081  14.606  29.037  11.931
86986W        W46082  33.907  26.075   0.729
86987W        W46083  34.471  30.603   4.665
86988W        W46084  13.213  10.879  14.953
86989W        W46085  18.584  35.451   5.309
86990W        W46086  35.997  25.039   9.976
86991W        W46087   9.743  23.550  14.455
86992W        W46088  15.313  42.775   1.708
86993W        W46089   2.788  31.102  10.905
86994W        W46090  26.650  27.621  14.390
86995W        W46091   9.767  14.716   0.806
86996W        W46092  12.827   6.709  14.929
86997W        W46093  14.768  21.558   1.284
86998W        W46094   0.487   2.398   0.775
86999W        W46095  33.052   4.295   2.769
87000W        W46096  10.657   6.353  10.432
87001W        W46097  12.712  39.552  13.407
87002W        W46098  24.059  13.655   1.400
87003W        W46099  30.543  39.009  10.633
87004W        W46100  18.107   1.734  10.481
87005W        W46101  37.375   0.840   2.896
87006W        W46102  35.931  13.676  12.017
87007W        W46103  38.876  38.463  10.998
87008W        W46104   7.409  22.195   0.406
87009W        W46105  18.585  22.238  11.083
87010W        W46106  22.058   5.382  13.866
87011W        W46107  10.712  12.712  12.947
87012W        W46108  30.501  41.035  10.467
87013W        W46109   3.802  37.517  12.371
87014W        W46110  35.977  36.485  12.960
87015W        W46111   6.814  28.987   0.439
87016W        W46112  13.330  33.495  14.939
87017W        W46113   5.828  35.048   3.362
87018W        W46114  39.911  13.814  10.517
87019W        W46115   9.388  30.002   4.726
87020W        W46116  28.521  21.727   1.854
87021W        W46117  27.022   3.364  14.891
87022W        W46118   2.265  28.635  13.467
87023W        W46119  26.644  31.973   2.318
87024W        W46120   3.323  35.870   0.323
87025W        W46121   5.749  29.927   3.271
87026W        W46122  35.574  26.544   4.705
87027W        W46123  32.606  40.537   4.630
87028W        W46124  33.115   1.324  12.450
87029W        W46125  44.918  25.649  14.340
87030W        W46126  33.528   1.775   1.349
87031W        W46127   2.765   8.685  12.365
87032W        W46128   7.781  36.525   4.187
87033W        W46129  39.890  21.714   1.261
87034W        W46130  27.959  28.112   3.736
87035W        W46131  24.062  25.663   4.254
87036W        W46132   7.688   1.926   0.313
87037W        W46133  35.568  30.443   3.633
87038W        W46134  13.150  24.489   3.641
87039W        W46135  42.795  26.570  14.406
87040W        W46136  43.310   4.327  12.946
87041W        W46137  43.283   1.744   2.865
87042W        W46138  29.614   6.920   2.876
87043W        W46139  33.089  29.017  13.336
87044W        W46140  17.161   5.706  10.603
87045W        W46141  38.988  26.595  11.043
87046W        W46142   1.878   6.296   0.791
87047W        W46143  38.863  20.170   4.679
87048W        W46144  39.367   4.249   0.416
87049W        W46145  24.057  38.932  11.991
87050W        W46146  27.495  15.281   4.740
87051W        W46147  29.067   0.427  14.807
87052W        W46148  25.637  26.466  13.023
87053W        W46149  12.311   9.264   1.792
87054W        W46150  43.427  39.541   1.212
87055W        W46151  24.136   0.382  13.358
87056W        W46152  41.384  27.063  14.468
87057W        W46153  11.231   6.891  12.975
87058W        W46154   7.200  44.264   3.850
87059W        W46155  31.121  41.963  10.495
87060W        W46156  38.484   1.897  13.492
87061W        W46157   1.966  10.653  14.411
87062W        W46158  38.930  43.497   3.284
87063W        W46159  42.023  42.456  14.508
87064W        W46160  12.616   5.384   1.396
87065W        W46161  43.353  36.357   1.789
87066W        W46162  16.766  19.653  10.974
87067W        W46163   0.748  39.048  11.957
87068W        W46164  20.273  28.967   2.200
87069W        W46165  37.003  36.094   0.853
87070W        W46166  38.871  13.253   1.329
87071W        W46167   7.336   7.676   4.811
87072W        W46168  14.727  35.369   2.747
87073W        W46169  26.635  37.835   5.103
87074W        W46170  29.488  12.616   4.598
87075W        W46171  44.905   7.853  12.032
87076W        W46172  39.004  16.169  10.448
87077W        W46173  32.635   1.920  13.479
87078W        W46174  24.563  15.671  10.425
87079W        W46175   9.364  32.913  13.980
87080W        W46176  34.440  42.421  11.096
87081W        W46177  41.931  18.219   3.270
87082W        W46178  25.205  38.362  12.964
87083W        W46179   0.830   8.193  14.014
87084W        W46180  40.518  22.567  13.942
87085W        W46181  10.155  20.054  10.994
87086W        W46182   3.904   5.317  11.090
87087W        W46183  17.660  28.518  11.448
87088W        W46184  10.872   6.239  10.062
87089W        W46185  43.509  12.339  12.975
87090W        W46186  14.657  39.322  10.014
87091W        W46187  41.321  16.242   4.659
87092W        W46188   6.320   6.893   4.725
87093W        W46189  41.961  22.675   2.880
87094W        W46190  35.869  14.787   1.903
87095W        W46191   6.710   7.720  11.926
87096W        W46192  23.119  11.742   0.867
87097W        W46193  42.444   7.724   3.242
87098W        W46194  35.043  18.720   9.594
87099W        W46195   7.172  43.422   0.908
87100W        W46196  20.538  36.471  14.922
87101W        W46197  33.510   8.784  12.977
87102W        W46198  29.540   2.834  14.017
87103W        W46199  36.559  33.938   3.807
87104W        W46200  31.068   1.330   3.833
87105W        W46201  19.584   6.910   2.844
87106W        W46202  13.283   1.360  12.482
87107W        W46203  38.040  23.065  13.964
87108W        W46204  35.533  27.506   3.176
87109W        W46205  33.099   2.269   4.739
87110W        W46206  37.075  36.983  14.915
87111W        W46207   6.362  44.392   4.263
87112W        W46208  19.572  35.037   2.785
87113W        W46209   2.879   1.782  12.863
87114W        W46210   5.729   3.315  11.445
87115W        W46211   9.668  26.489   3.356
87116W        W46212  33.499  14.627  12.937
87117W        W46213  40.463  33.014   3.346
87118W        W46214  38.857  42.936   0.770
87119W        W46215  33.983  28.966   1.300
87120W        W46216   5.313  37.991  11.573
87121W        W46217  17.640  14.819  13.949
87122W        W46218  28.600  37.916   3.856
87123W        W46219   6.721  44.983  12.991
87124W        W46220  20.069  17.115  14.450
87125W        W46221  11.758  17.183  13.833
87126W        W46222   1.933  40.885  13.540
87127W        W46223  14.150  13.281   1.220
87128W        W46224  31.999  35.580  13.872
87129W        W46225   1.343  38.401   2.843
87130W        W46226  33.405  30.429   3.714
87131W        W46227  17.616  31.071  10.501
87132W        W46228  43.429  10.328  11.899
87133W        W46229   0.299  20.724   1.394
87134W        W46230  39.057   4.919  14.849
87135W        W46231  13.309  25.672   1.450
87136W        W46232  11.162  18.639  11.957
87137W        W46233   2.250   9.281   3.243
87138W        W46234  30.000   0.475   3.191
87139W        W46235  13.634  10.745   2.856
87140W        W46236  30.610  14.216   0.902
87141W        W46237  38.329  10.195   3.205
87142W        W46238  27.123   2.390  13.340
87143W        W46239   5.197   8.327  11.990
87144W        W46240  17.582  20.093   0.872
87145W        W46241  21.060   3.874   3.223
87146W        W46242  29.150   3.234  10.450
87147W        W46243   0.294  34.928   4.194
87148W        W46244   6.392  41.414  13.346
87149W        W46245   4.249   5.900   3.698
87150W        W46246  29.046  34.048   1.237
87151W        W46247  17.738  22.708  11.595
87152W        W46248  42.507  36.947   2.228
87153W        W46249   8.715  31.456   4.736
87154W        W46250  18.713   8.186   5.118
87155W        W46251   9.235  10.861  13.390
87156W        W46252  38.348  10.731  14.276
87157W        W46253  34.075  38.029   4.207
87158W        W46254  37.406  17.092   4.172
87159W        W46255  42.917  17.566  13.823
87160W        W46256   3.712  42.376   1.848
87161W        W46257   4.356   6.821   4.311
87162W        W46258  29.620  15.308   1.343
87163W        W46259  17.739  43.871   4.155
87164W        W46260   7.908   8.280   2.840
87165W        W46261  15.709  35.957  12.039
87166W        W46262  25.585  33.512   1.869
87167W        W46263   1.267  43.920  13.925
87168W        W46264  32.125  13.220   2.313
87169W        W46265  25.552  31.566  14.461
87170W        W46266   0.772  20.253  13.458
87171W        W46267  30.936  14.599   0.444
87172W        W46268  20.595  11.182  13.362
87173W        W46269   5.770  27.676   3.244
87174W        W46270  37.050  16.640   3.676
87175W        W46271   7.905   2.469   1.293
87176W        W46272  42.429   3.357   1.368
87177W        W46273  22.505  39.058   2.803
87178W        W46274  34.402  32.014   2.283
87179W        W46275  31.035  42.431  12.984
87180W        W46276  24.496  43.016   3.248
87181W        W46277  37.959   9.299   0.770
87182W        W46278   0.490  40.450  12.546
87183W        W46279  35.860  23.572   4.268
87184W        W46280  32.571  19.602   5.160
87185W        W46281  21.249  34.903  11.114
87186W        W46282   8.771   0.753   4.815
87187W        W46283  38.977  30.444  10.940
87188W        W46284  29.568  18.100  11.042
87189W        W46285  43.303   5.914   0.774
87190W        W46286  13.660  15.107  10.892
87191W        W46287   0.922  34.584   2.838
87192W        W46288  11.369   5.749  13.916
87193W        W46289  13.727  22.617   4.618
87194W        W46290  40.916  21.089  13.860
87195W        W46291  37.397   6.839   2.266
87196W        W46292  13.241  23.083   1.394
87197W        W46293  27.176   8.785   1.212
87198W        W46294   4.341   0.801  14.484
87199W        W46295  28.109  20.753  14.911
87200W        W46296  30.461   4.245  12.399
87201W        W46297  39.424  43.504  13.873
87202W        W46298  14.752   5.909   3.295
87203W        W46299  26.017  29.502   3.280
87204W        W46300  14.228   1.840  12.474
87205W        W46301  36.363  32.031   1.387
87206W        W46302  16.234  15.752  11.384
87207W        W46303  22.621   4.700   0.786
87208W        W46304  31.421  42.416  14.891
87209W        W46305  35.073  39.871   4.212
87210W        W46306   8.387   2.729  13.966
87211W        W46307  33.488   3.377   1.819
87212W        W46308  10.826  12.808  12.556
87213W        W46309  32.459  42.402  13.861
87214W        W46310  17.690   6.694   4.323
87215W        W46311   2.443  18.253   2.181
87216W        W46312  40.990  17.068   1.215
87217W        W46313  41.314  34.055   2.816
87218W        W46314  15.305  15.652   0.755
87219W        W46315  25.162   3.328  14.890
87220W        W46316  21.104   8.728  12.019
87221W        W46317  29.667  27.599  12.966
87222W        W46318   5.719  30.464   1.394
87223W        W46319  33.572   8.863  14.973
87224W        W46320  16.813  19.585   3.795
87225W        W46321   0.986  21.730  11.526
87226W        W46322  34.871  43.454  12.893
87227W        W46323  29.563  38.942   1.218
87228W        W46324  38.018  24.205   1.320
87229W        W46325  12.676  21.633  11.514
87230W        W46326   8.226  24.495  12.353
87231W        W46327   0.853  17.556   2.708
87232W        W46328   8.874   7.714  10.525
87233W        W46329  12.779  31.580   5.211
87234W        W46330  20.562  43.419  12.557
87235W        W46331  23.733  34.547  10.928
87236W        W46332   0.840  35.960   3.163
87237W        W46333  28.627   7.731  14.869
87238W        W46334  30.972   5.757   0.870
87239W        W46335   5.893  22.561  14.448
87240W        W46336   6.917   4.721   4.288
87241W        W46337  41.883  27.478  12.462
87242W        W46338  10.230  32.125   3.660
87243W        W46339  14.234  28.556   0.436
87244W        W46340  40.977  31.055   3.211
87245W        W46341  40.817  43.429  11.882
87246W        W46342   3.395  23.547   1.920
87247W        W46343  40.334  25.021   0.742
87248W        W46344  33.485   0.926   1.385
87249W        W46345  26.475  25.147   3.824
87250W        W46346   1.330  41.390   4.739
87251W        W46347  25.471  42.982  13.524
87252W        W46348  44.347  43.977   4.630
87253W        W46349  44.491  19.221   0.333
87254W        W46350   1.909  18.673  14.790
87255W        W46351  15.105   9.219   2.710
87256W        W46352  12.684  28.600  11.992
87257W        W46353  38.553  34.038  11.373
87258W        W46354  15.088  13.629   2.810
87259W        W46355  40.417  25.132  10.433
87260W        W46356  42.931   2.414  10.464
87261W        W46357  42.283  14.179  13.872
87262W        W46358  37.531  38.015   4.706
87263W        W46359   0.769  36.923  13.976
87264W        W46360  42.484   1.403   4.682
87265W        W46361  39.314  34.401   3.858
87266W        W46362  10.688   9.815   0.268
87267W        W46363  24.216   3.408  10.028
87268W        W46364  43.346  27.009  11.601
87269W        W46365  17.189  34.536  13.317
87270W        W46366  26.637  42.425  10.519
87271W        W46367  40.513   3.869  10.537
87272W        W46368  40.304  36.031  12.025
87273W        W46369  17.306  24.108  10.142
87274W        W46370  31.405   7.759  14.919
87275W        W46371  33.938   1.844  14.488
87276W        W46372  22.597  14.336  12.861
87277W        W46373  41.533  32.908  14.812
87278W        W46374  34.065  20.681   4.618
87279W        W46375  44.489  36.904   3.242
87280W        W46376  39.901  34.917  12.935
87281W        W46377  20.529   6.237   1.351
87282W        W46378   5.364  33.953  13.334
87283W        W46379  12.722  43.006   1.699
87284W        W46380   4.816  35.109  10.541
87285W        W46381   0.786  26.003   2.852
87286W        W46382  19.282   8.226  12.417
87287W        W46383  38.058  19.131  11.100
87288W        W46384  15.700  37.023   3.269
87289W        W46385  20.175  44.803   4.313
87290W        W46386   2.458  29.969   0.946
87291W        W46387  11.277  31.950   1.734
87292W        W46388  17.066  26.493  13.415
87293W        W46389  29.477   4.836  12.992
87294W        W46390  21.072   7.250   3.727
87295W        W46391  32.033  40.877  11.407
87296W        W46392  36.388   4.704   1.857
87297W        W46393  36.043  16.134   0.856
87298W        W46394  19.271  40.008   1.891
87299W        W46395  19.689  41.031   0.303
87300W        W46396  40.337  41.407  11.953
87301W        W46397   0.408  29.483  10.623
87302W        W46398  25.601  21.657   5.208
87303W        W46399  20.688  33.571   1.422
87304W        W46400  16.192  11.230   1.708
87305W        W46401  34.478  31.622  14.889
87306W        W46402  36.460   9.796  14.286
87307W        W46403  36.054  22.652  14.986
87308W        W46404   3.927   1.862   0.879
87309W        W46405  28.442  14.234  13.047
87310W        W46406  11.718  13.305  11.479
87311W        W46407  10.742  32.394   3.665
87312W        W46408  22.073  19.224   1.416
87313W        W46409  12.825   2.873   4.824
87314W        W46410  23.633  38.888   1.425
87315W        W46411  34.600  37.941  12.041
87316W        W46412  26.205   0.842  11.973
87317W        W46413  37.902  32.904  14.477
87318W        W46414  23.124   9.309  14.484
87319W        W46415  39.811  34.921   0.938
87320W        W46416  35.564   7.334   3.726
87321W        W46417  27.131   8.836  13.342
87322W        W46418  18.743  28.074  13.820
87323W        W46419  12.848  10.754  13.498
87324W        W46420  32.943  20.661  10.060
87325W        W46421  31.051  44.285   0.953
87326W        W46422  31.641  34.969  11.466
87327W        W46423  40.471  42.296  14.854
87328W        W46424  15.170   4.936  12.344
87329W        W46425   5.236  40.395  11.965
87330W        W46426  30.955  35.934   3.210
87331W        W46427  26.604  26.985  14.779
87332W        W46428  20.583  42.017   0.916
87333W        W46429  10.159  33.982  12.826
87334W        W46430  40.461  40.406  12.929
87335W        W46431  30.522  10.715  11.516
87336W        W46432  41.301   4.418   1.253
87337W        W46433  13.785  41.521   3.283
87338W        W46434  34.073  36.963  14.350
87339W        W46435   1.958  34.080   1.932
87340W        W46436  11.851  33.090   4.738
87341W        W46437  19.700  31.940  10.456
87342W        W46438  39.989  12.772   0.771
87343W        W46439  37.017  27.636  14.810
87344W        W46440  36.507  33.996  13.834
87345W        W46441  22.566   9.681  12.856
87346W        W46442  12.710  39.913   0.765
87347W        W46443  16.293  20.144  11.416
87348W        W46444  27.021  13.815  10.902
87349W        W46445   4.940   7.701  11.927
87350W        W46446  43.007  36.498  12.387
87351W        W46447  21.045  14.823  13.019
87352W        W46448  18.170  27.125   0.449
87353W        W46449  32.395  28.982  11.058
87354W        W46450  15.682  28.631   2.841
87355W        W46451  12.702   3.347   1.897
87356W        W46452   4.227  39.451  14.469
87357W        W46453  34.512  15.147  13.811
87358W        W46454  33.383  29.655   1.732
87359W        W46455   8.206  21.752  12.380
87360W        W46456  31.955   2.292   4.120
87361W        W46457   3.357  38.440   4.700
87362W        W46458   8.332  30.643  14.947
87363W        W46459  23.735  31.452   4.303
87364W        W46460  28.071   0.940  10.986
87365W        W46461  33.097  37.863  13.473
87366W        W46462  24.071  17.784  14.002
87367W        W46463  35.082  15.250   9.940
87368W        W46464  29.985  41.927  13.435
87369W        W46465  15.154  21.601   4.305
87370W        W46466  30.437  15.179   4.115
87371W        W46467  42.983  20.169  14.838
87372W        W46468  30.008  11.342  14.382
87373W        W46469  10.638  26.534  10.608
87374W        W46470   4.403  24.595  11.594
87375W        W46471  25.707  39.451  12.972
87376W        W46472  32.595  37.002   3.655
87377W        W46473  21.182   0.822  12.872
87378W        W46474  17.637   2.914  14.918
87379W        W46475  12.133   7.373   0.362
87380W        W46476  25.160   4.700  13.822
87381W        W46477  19.257   0.789   3.705
87382W        W46478  24.015  13.321   1.777
87383W        W46479   8.328  28.942  10.996
87384W        W46480  13.207  35.368  12.451
87385W        W46481  12.313  20.144   9.947
87386W        W46482  18.233  43.844  10.456
87387W        W46483   1.306  35.538   2.218
87388W        W46484  24.089  42.021  10.958
87389W        W46485  29.169  41.852   0.408
87390W        W46486  31.144  11.214  12.889
87391W        W46487  32.096  21.187   0.795
87392W        W46488  44.846  38.993  14.770
87393W        W46489   0.403  36.053   2.821
87394W        W46490  24.481  14.135   3.720
87395W        W46491   5.215  16.216   2.397
87396W        W46492  19.194  32.486   3.285
87397W        W46493  44.266  30.148   1.438
87398W        W46494  17.685  25.601  14.930
87399W        W46495  42.999  38.922  13.468
87400W        W46496  28.997  15.582  14.967
87401W        W46497  31.508   8.846  11.591
87402W        W46498  39.992  37.472  14.881
87403W        W46499  15.581  28.073   0.893
87404W        W46500  44.443  13.291  10.406
87405W        W46501   8.402  38.554  14.431
87406W        W46502  35.054   7.849  10.531
87407W        W46503   8.185  20.103   2.799
87408W        W46504   9.355  17.626  13.544
87409W        W46505  39.862   1.964  14.804
87410W        W46506  21.530  28.517   3.163
87411W        W46507  24.005  44.826   2.722
87412W        W46508  39.404  44.969  11.601
87413W        W46509  33.381   5.878   0.476
87414W        W46510  19.267  39.923   5.751
87415W        W46511   4.715  28.144  10.960
87416W        W46512  20.574  33.081  14.791
87417W        W46513  10.167  39.331   1.267
87418W        W46514  10.178  23.579   3.776
87419W        W46515  12.199  11.317   4.622
87420W        W46516  34.428   1.790  13.542
87421W        W46517   3.219  30.907   1.874
87422W        W46518   5.303  39.919  10.564
87423W        W46519  37.507  34.011  14.764
87424W        W46520  12.843  24.043   1.848
87425W        W46521  35.573   6.343   3.363
87426W        W46522  24.158  29.100   1.354
87427W        W46523  38.448  39.057   2.383
87428W        W46524  38.332  39.942   4.791
87429W        W46525  33.047  31.471  13.905
87430W        W46526   3.906  22.203  12.381
87431W        W46527  33.114  13.174   0.378
87432W        W46528   3.944   7.800  13.031
87433W        W46529  29.945  18.596   2.317
87434W        W46530  10.861   9.382   3.162
87435W        W46531   2.340  33.488  10.566
87436W        W46532  28.508  27.507  13.792
87437W        W46533  15.785  39.026   1.783
87438W        W46534   5.438  37.945  13.837
87439W        W46535  27.677  17.649   2.206
87440W        W46536  10.832  41.446   4.291
87441W        W46537   7.707  32.060   1.928
87442W        W46538  17.292  25.108  14.992
87443W        W46539   5.916  28.166  13.316
87444W        W46540  22.069  20.209   1.807
87445W        W46541  25.061   9.239   4.324
87446W        W46542  16.232  44.459  12.398
87447W        W46543  12.840  32.130  13.425
87448W        W46544   2.845  18.109  10.539
87449W        W46545   5.859  32.028   3.355
87450W        W46546  15.202   5.295  14.370
87451W        W46547  34.118  37.384   1.814
87452W        W46548  26.964  19.575   1.396
87453W        W46549   4.283   5.255   4.740
87454W        W46550   2.866  14.834  11.962
87455W        W46551   8.827  44.315  14.924
87456W        W46552  30.976  43.872   0.845
87457W        W46553   2.812  23.082   3.385
87458W        W46554  40.872  36.484   3.744
87459W        W46555   0.299  23.111  14.009
87460W        W46556  31.617  31.448  14.507
87461W        W46557  21.723  11.333  10.633
87462W        W46558  29.056   4.251  10.574
87463W        W46559  15.619  32.618  12.009
87464W        W46560   7.792  29.967   3.359
87465W        W46561  21.053  17.630   0.413
87466W        W46562  25.492  28.937  13.807
87467W        W46563  12.693  15.787  14.367
87468W        W46564  14.232  16.766  14.919
87469W        W46565   5.729  26.143   4.814
87470W        W46566  16.613  31.488   4.346
87471W        W46567  44.292   0.944  10.413
87472W        W46568  33.445  16.128   1.403
87473W        W46569  27.554  16.239  11.094
87474W        W46570   0.254  44.884   4.227
87475W        W46571  22.601  23.699  10.481
87476W        W46572  29.077  32.619  14.376
87477W        W46573  33.410  25.160  14.012
87478W        W46574   1.269  28.126   2.228
87479W        W46575  41.885   5.202  10.435
87480W        W46576  13.173  24.188   4.273
87481W        W46577  21.573  39.425  10.096
87482W        W46578  10.802  11.702  12.344
87483W        W46579  13.827  20.111  10.641
87484W        W46580  10.372  15.609   0.413
87485W        W46581  11.158  23.109  13.347
87486W        W46582  17.064  43.974   0.417
87487W        W46583  42.010   4.942  10.608
87488W        W46584  42.514  27.167   4.636
87489W        W46585  15.712  32.530  14.359
87490W        W46586  23.694  37.555   2.777
87491W        W46587  40.391  13.229   2.365
87492W        W46588  26.598  31.971  13.808
87493W        W46589   5.862   4.766  11.958
87494W        W46590  44.959   2.441   0.378
87495W        W46591   5.758   6.872   4.732
87496W        W46592  15.123  18.605  14.813
87497W        W46593  17.590   1.384   3.355
87498W        W46594  40.963   8.757  10.136
87499W        W46595  39.340  31.951  13.930
87500W        W46596  29.067  28.577  12.447
87501W        W46597  15.311  15.287   5.566
87502W        W46598  19.737  15.695  12.368
87503W        W46599  35.483  28.668   4.278
87504W        W46600  24.191  22.206   2.823
87505W        W46601   2.466   5.295  10.994
87506W        W46602  37.900  12.273   3.207
87507W        W46603  44.974  31.576   3.205
87508W        W46604  34.992  21.601   0.473
87509W        W46605  36.589  15.599  11.395
87510W        W46606  14.755  43.813   0.432
87511W        W46607   7.361  11.682  10.899
87512W        W46608  30.025  44.309   4.797
87513W        W46609   1.309   8.370   2.251
87514W        W46610  11.205  15.178  13.998
87515W        W46611   2.407  38.360   3.680
87516W        W46612  37.387  34.406  11.035
87517W        W46613  20.057   8.197  12.001
87518W        W46614  36.592   8.161  12.347
87519W        W46615  35.429   5.744  13.812
87520W        W46616   8.379  40.944   4.753
87521W        W46617  36.024   2.306  13.492
87522W        W46618  40.822  33.056  14.918
87523W        W46619  17.085   2.406   2.301
87524W        W46620  21.746  10.741   3.841
87525W        W46621   6.829  22.583  13.984
87526W        W46622  10.216  31.018   1.240
87527W        W46623  36.566   1.331  14.479
87528W        W46624  39.825  11.738   3.320
87529W        W46625   6.837  11.715  12.015
87530W        W46626  21.152  25.620  12.437
87531W        W46627  35.089  29.001   3.167
87532W        W46628  38.860  17.592  14.315
87533W        W46629  24.646  16.617   0.394
87534W        W46630   9.321  37.005   0.410
87535W        W46631   3.869  25.109   0.283
87536W        W46632  43.851  40.348  11.882
87537W        W46633  43.468   1.916   3.260
87538W        W46634  35.867  10.762  14.912
87539W        W46635  37.881   0.478   0.260
87540W        W46636  17.674  19.235  13.880
87541W        W46637   6.278  27.015   4.632
87542W        W46638  26.488  14.221   3.813
87543W        W46639  12.781   8.693  10.462
87544W        W46640  44.341  12.336  10.588
87545W        W46641  44.989  13.603  11.395
87546W        W46642  44.352   4.714  11.070
87547W        W46643   1.373  24.003  11.382
87548W        W46644  10.212  11.842   3.197
87549W        W46645  18.156  19.762  11.958
87550W        W46646  38.374  21.664   3.794
87551W        W46647   7.221  10.862   2.822
87552W        W46648   7.216  30.552   4.685
87553W        W46649  36.004  29.629  13.959
87554W        W46650  23.061  40.954  14.769
87555W        W46651  18.719   2.350   4.184
87556W        W46652  41.911  22.234   2.686
87557W        W46653  33.486  42.968   9.949
87558W        W46654  30.412   6.753   3.251
87559W        W46655  17.621  28.993  11.481
87560W        W46656   7.409   0.291  13.507
87561W        W46657  41.532  28.012  11.378
87562W        W46658  37.355  33.522  12.971
87563W        W46659   1.444  24.028  13.994
87564W        W46660  20.244  22.022  10.606
87565W        W46661  42.995  40.492   2.762
87566W        W46662  10.188  10.694   3.378
87567W        W46663  28.448   4.238   3.256
87568W        W46664  41.855  24.486   1.803
87569W        W46665  21.193   1.927  13.054
87570W        W46666   4.846   9.321  11.992
87571W        W46667  24.598  12.784  11.542
87572W        W46668  21.242  10.721   0.266
87573W        W46669   3.779  13.284   1.260
87574W        W46670  15.180   5.267  13.443
87575W        W46671  15.152  19.641   3.839
87576W        W46672  22.237  41.830  12.004
87577W        W46673  42.998  23.171   0.305
87578W        W46674  34.592  37.523  11.562
87579W        W46675  39.837  38.404   1.357
87580W        W46676  20.256  22.646   2.295
87581W        W46677  16.101  40.500  13.838
87582W        W46678  20.235   0.271   2.822
87583W        W46679  43.801   8.174   1.784
87584W        W46680  26.624   4.864   0.266
87585W        W46681  31.455   6.739  10.546
87586W        W46682  29.559  25.110   3.761
87587W        W46683   5.888   7.408  11.417
87588W        W46684   2.294  13.679  10.463
87589W        W46685   7.845  18.696  10.404
87590W        W46686  30.065  27.649  11.881
87591W        W46687  34.097  23.205  12.872
87592W        W46688  32.102  39.530   1.727
87593W        W46689  14.729  37.925   0.430
87594W        W46690  35.884  15.675  11.057
87595W        W46691  11.235  38.963  10.966
87596W        W46692  20.715  10.187   4.659
87597W        W46693  26.512  41.000   1.765
87598W        W46694   7.901  17.734   5.631
87599W        W46695   1.809   4.276   1.425
87600W        W46696  35.031   5.781   2.257
87601W        W46697  10.671  16.747   2.894
87602W        W46698   4.353   4.809  10.910
87603W        W46699  28.440  36.006   2.805
87604W        W46700  40.900   7.892  13.823
87605W        W46701  19.092   4.333   0.278
87606W        W46702  39.925   3.828  11.487
87607W        W46703  30.594  42.428  11.594
87608W        W46704  26.116  41.380  10.454
87609W        W46705  23.119  14.649   4.659
87610W        W46706   0.395  33.114   3.712
87611W        W46707   6.864  16.152  14.824
87612W        W46708  18.222  41.838  10.617
87613W        W46709  25.987  33.111   5.688
87614W        W46710  39.541  43.870  11.587
87615W        W46711  44.442  44.488  11.572
87616W        W46712  21.695  17.695  13.953
87617W        W46713  27.458  24.204  12.031
87618W        W46714   9.239  20.588   0.869
87619W        W46715  21.575  44.481   2.881
87620W        W46716  37.862   6.737  12.398
87621W        W46717  39.845  39.559   2.767
87622W        W46718  27.176   3.316  14.446
87623W        W46719  13.828  27.508  12.340
87624W        W46720  17.772   2.274   2.375
87625W        W46721  34.883   4.859   0.352
87626W        W46722  30.025  27.562   4.174
87627W        W46723  36.490  31.587  11.990
87628W        W46724   9.226  34.006   3.692
87629W        W46725  39.014  31.014   3.170
87630W        W46726  20.082  20.038  14.002
87631W        W46727  38.466   4.417  14.905
87632W        W46728  31.585  42.904   4.245
87633W        W46729   8.849   3.352   3.806
87634W        W46730  23.567  41.505  13.839
87635W        W46731  24.106   7.184   2.864
87636W        W46732  35.436   1.264   0.375
87637W        W46733  43.003  29.035   1.356
87638W        W46734  36.560  17.290   4.824
87639W        W46735   5.861  42.018  14.024
87640W        W46736   7.887  25.524  12.489
87641W        W46737  13.691  29.167   3.339
87642W        W46738  35.542  16.084   1.247
87643W        W46739  32.958  16.260   1.875
87644W        W46740  23.161  14.607  14.031
87645W        W46741  29.039  43.341  11.963
87646W        W46742  37.427  44.971  10.464
87647W        W46743   2.933  13.299  13.515
87648W        W46744  40.549  20.223   1.353
87649W        W46745  34.983  37.495   3.284
87650W        W46746   1.849  17.585  11.542
87651W        W46747  17.068  41.477  14.019
87652W        W46748  16.269  33.008   0.759
87653W        W46749   0.821   4.944  14.356
87654W        W46750  32.106  20.554   9.988
87655W        W46751  30.088  37.869  12.013
87656W        W46752  29.538  28.493   0.434
87657W        W46753  12.700   8.393  14.864
87658W        W46754   4.353   4.389  12.473
87659W        W46755  44.923   3.749   2.304
87660W        W46756   9.685  31.416  13.930
87661W        W46757  38.932   9.763   3.363
87662W        W46758  29.984  22.007  12.351
87663W        W46759   9.795  12.739  10.585
87664W        W46760   9.686   2.857   1.279
87665W        W46761  30.546  25.102   4.817
87666W        W46762  12.204  16.079  14.311
87667W        W46763  32.415  35.457   2.195
87668W        W46764  41.342  29.548   0.852
87669W        W46765   7.229   9.157   4.752
87670W        W46766  35.992  22.613   2.341
87671W        W46767  32.020  40.024  10.622
87672W        W46768  23.646   0.920  12.858
87673W        W46769  26.689  36.025  14.998
87674W        W46770  27.082  28.145  11.074
87675W        W46771  17.603   3.747  13.865
87676W        W46772  29.965   2.937  13.035
87677W        W46773  18.664  15.159   3.736
87678W        W46774  41.340  29.640  13.539
87679W        W46775  34.603  33.950   4.737
87680W        W46776  20.710   5.403  11.934
87681W        W46777  43.297  11.811   4.822
87682W        W46778   0.452  24.718  10.912
87683W        W46779   5.250  13.246   0.797
87684W        W46780   2.846   8.208  13.044
87685W        W46781  23.601  36.350  14.777
87686W        W46782  15.208  12.789  12.937
87687W        W46783  28.073   0.426   3.224
87688W        W46784   4.867  31.087  10.986
87689W        W46785   8.184  35.371   3.304
87690W        W46786  24.525  32.599   2.697
87691W        W46787  16.661  20.151  10.461
87692W        W46788  20.698  27.552  12.874
87693W        W46789  44.279  15.752   3.183
87694W        W46790   9.368  29.932   4.218
87695W        W46791  12.194  17.614  13.945
87696W        W46792  42.823  17.085  11.866
87697W        W46793   4.765   6.308   2.278
87698W        W46794  12.229  19.275  11.389
87699W        W46795  37.042  31.901  13.318
87700W        W46796   5.230  30.477   1.330
87701W        W46797   7.887  35.441  10.625
87702W        W46798   6.323   8.201   1.359
87703W        W46799  14.236  14.785   3.825
87704W        W46800  44.901   0.306  10.547
87705W        W46801  13.251   8.187   4.650
87706W        W46802  40.976  34.384   4.176
87707W        W46803  21.569  18.785   0.945
87708W        W46804   1.936  17.757  13.961
87709W        W46805  19.094  14.275  10.929
87710W        W46806  10.724  23.593  11.976
87711W        W46807  28.943   3.918  14.910
87712W        W46808   0.943  38.423  14.987
87713W        W46809   3.952  30.480   4.239
87714W        W46810   7.747   1.876   3.331
87715W        W46811   4.271  13.322   1.370
87716W        W46812  10.840  44.998  13.925
87717W        W46813  13.259  28.657   3.223
87718W        W46814  18.636  25.607   0.756
87719W        W46815  39.986   4.232   0.810
87720W        W46816  34.586  26.532   3.307
87721W        W46817  29.480  22.252   3.305
87722W        W46818  31.460   8.374  13.947
87723W        W46819  34.601  38.995   2.721
87724W        W46820   8.664   6.850  14.416
87725W        W46821  33.617  19.219   4.665
87726W        W46822  15.577  25.125  12.372
87727W        W46823   1.786  12.722  13.918
87728W        W46824  37.411  28.447   4.687
87729W        W46825  23.633  16.210   3.166
87730W        W46826  29.017  41.865   4.195
87731W        W46827  34.990   4.204  12.413
87732W        W46828   5.395  14.160   3.282
87733W        W46829  17.594  31.637   1.805
87734W        W46830   3.458  28.056  10.458
87735W        W46831   6.391  18.687   1.794
87736W        W46832  31.585  27.165  11.559
87737W        W46833  24.131  28.042  10.483
87738W        W46834  34.957  15.086   3.782
87739W        W46835  32.068  30.475  12.061
87740W        W46836  19.591  28.102  10.924
87741W        W46837  16.598  13.132   3.290
87742W        W46838   6.196   0.944   3.799
87743W        W46839  14.215   2.327   1.304
87744W        W46840   6.342  23.614  13.846
87745W        W46841   6.885  25.204   4.295
87746W        W46842  27.156  41.863  14.311
87747W        W46843  32.910  26.956   1.415
87748W        W46844  18.256  20.648  13.345
87749W        W46845   8.316   5.868   3.819
87750W        W46846   0.417  24.662  13.957
87751W        W46847   2.866  12.319   2.876
87752W        W46848   3.293  19.560  11.510
87753W        W46849  38.871  26.104   3.755
87754W        W46850  30.922  11.370   2.340
87755W        W46851  23.151  18.222   3.333
87756W        W46852  31.557  15.763  10.120
87757W        W46853  25.530  20.124   9.935
87758W        W46854  20.214   7.866   9.985
87759W        W46855  29.636  40.836   1.710
87760W        W46856  27.167   3.714  12.871
87761W        W46857  36.040   1.296   3.754
87762W        W46858  19.238   3.805   2.664
87763W        W46859  28.650   9.152   2.761
87764W        W46860  32.964   5.757  12.964
87765W        W46861  30.032  15.160   0.870
87766W        W46862  44.430   6.835  10.448
87767W        W46863  17.267   0.358   3.151
87768W        W46864  44.303   6.312   1.840
87769W        W46865  19.146  19.739   2.278
87770W        W46866   5.864  27.150   0.959
87771W        W46867   7.842  36.093  14.884
87772W        W46868   2.838  22.564  11.913
87773W        W46869  12.270  21.568   2.842
87774W        W46870   0.251  17.568  12.929
87775W        W46871   5.784  44.844  14.765
87776W        W46872  13.200   9.188   4.670
87777W        W46873   4.208   1.390   3.154
87778W        W46874  41.522  40.960   0.433
87779W        W46875   4.869  12.339   0.840
87780W        W46876  24.174   6.421   0.248
87781W        W46877   7.209  22.084  12.078
87782W        W46878   1.453  19.774   1.230
87783W        W46879  39.839  23.101  11.043
87784W        W46880   0.931  17.305  10.971
87785W        W46881   6.713  14.108  11.928
87786W        W46882  33.048  26.672   5.302
87787W        W46883  26.694   8.302  10.525
87788W        W46884  33.510   4.930  10.944
87789W        W46885  33.598  39.350  13.005
87790W        W46886   7.730  44.470   2.223
87791W        W46887  41.959  21.142   2.875
87792W        W46888  43.428  29.600  12.372
87793W        W46889  43.397   3.800  11.031
87794W        W46890  17.072  33.003  12.516
87795W        W46891  32.012  43.839  10.512
87796W        W46892  19.688  28.179  10.595
87797W        W46893  27.530  23.727   2.398
87798W        W46894  16.660  33.455  14.821
87799W        W46895   9.766   9.350   0.357
87800W        W46896  31.409   7.211  14.899
87801W        W46897  31.138   2.409  10.937
87802W        W46898   3.911  18.184  10.075
87803W        W46899   1.897  27.073   4.618
87804W        W46900  28.658  20.746   4.211
87805W        W46901  18.119  24.168  11.876
87806W        W46902  37.076  23.669   4.630
87807W        W46903  18.109  28.110  14.963
87808W        W46904  22.073  34.066  10.447
87809W        W46905  20.743  38.967   1.756
87810W        W46906  16.699  37.336  11.906
87811W        W46907  30.648  29.481  11.887
87812W        W46908   0.806  19.553  13.323
87813W        W46909  25.155   3.317   3.175
87814W        W46910  20.261  41.929   3.712
87815W        W46911   9.257  42.500   2.706
87816W        W46912  40.544  20.222   4.187
87817W        W46913  31.144   4.435  10.573
87818W        W46914  12.713  29.476  14.342
87819W        W46915  30.069  21.198   2.735
87820W        W46916  19.670  34.100   3.209
87821W        W46917  21.590   9.884  14.453
87822W        W46918  19.586  29.006   0.463
87823W        W46919  43.398  36.402   0.763
87824W        W46920  19.759  40.908  11.940
87825W        W46921  44.964   0.928   3.863
87826W        W46922  10.292  22.115   0.755
87827W        W46923   6.743   0.257   1.893
87828W        W46924  10.757  19.106  12.831
87829W        W46925  11.127  32.100  14.383
87830W        W46926  15.634  26.500  12.347
87831W        W46927  16.652  20.207  14.004
87832W        W46928  21.572  11.799   3.786
87833W        W46929  24.209  17.691  14.825
87834W        W46930  17.140  27.616   0.278
87835W        W46931  17.735  31.499   2.290
87836W        W46932  40.916  26.126   2.273
87837W        W46933  32.390  27.122   3.631
87838W        W46934   1.418  18.746  13.794
87839W        W46935  27.674  11.797   2.230
87840W        W46936  29.631   6.252   2.383
87841W        W46937  24.092  31.928   1.722
87842W        W46938  36.941   1.942  14.785
87843W        W46939   7.875  16.615  14.800
87844W        W46940  35.994  25.679  14.997
87845W        W46941  18.154  32.084   2.887
87846W        W46942   7.291   0.255  11.495
87847W        W46943   7.339  30.942   4.649
87848W        W46944  11.671  38.528   2.260
87849W        W46945  32.929   2.842   1.342
87850W        W46946  36.463  19.085   3.232
87851W        W46947  35.956  38.044   3.855
87852W        W46948  33.400  21.036  10.567
87853W        W46949  44.295   0.316  12.396
87854W        W46950  23.560  19.569   1.867
87855W        W46951   9.373  23.719  14.949
87856W        W46952   7.667   2.879  10.508
87857W        W46953  16.176  37.945  11.030
87858W        W46954  28.956  25.611   3.745
87859W        W46955  15.271   9.724  14.416
87860W        W46956  25.568  11.698   3.371
87861W        W46957  17.611  44.278  10.516
87862W        W46958  26.574  16.226   4.732
87863W        W46959  18.151  23.580   2.346
87864W        W46960   6.371  24.536  12.869
87865W        W46961  30.087  29.166   3.866
87866W        W46962  16.751  35.903   1.733
87867W        W46963  16.810  12.790  14.908
87868W        W46964  14.629  34.012   2.366
87869W        W46965   2.762  41.891   4.152
87870W        W46966   5.719   3.219   1.418
87871W        W46967  13.640  25.012  11.878
87872W        W46968  44.374  27.950  14.409
87873W        W46969  42.834  30.054   4.132
87874W        W46970  41.472  13.767   3.331
87875W        W46971   4.370  37.889   2.380
87876W        W46972   8.726  21.532  11.939
87877W        W46973   7.286  25.520  10.949
87878W        W46974  13.126  15.140  13.519
87879W        W46975  19.043   5.886   1.792
87880W        W46976   1.745  14.830  11.873
87881W        W46977   8.344  26.625  10.428
87882W        W46978  29.662  42.872   2.350
87883W        W46979  14.700   4.925   1.757
87884W        W46980  33.965  40.426  11.598
87885W        W46981   4.353  39.024  13.337
87886W        W46982   9.216  26.475   3.342
87887W        W46983  16.308  12.611   4.133
87888W        W46984  31.907  20.672   0.926
87889W        W46985  19.674  28.598   3.312
87890W        W46986  36.096  23.647   3.239
87891W        W46987  11.212  11.371   1.354
87892W        W46988  35.506   0.753  13.492
87893W        W46989  22.728   3.831   0.733
87894W        W46990   7.714   2.961  14.458
87895W        W46991   4.844  42.357  11.042
87896W        W46992  13.662  18.205   0.857
87897W        W46993  26.964  21.095   2.675
87898W        W46994   9.354  11.658   3.680
87899W        W46995  35.081  40.438   4.143
87900W        W46996  37.538  20.226   1.390
87901W        W46997  41.462  44.300  10.907
87902W        W46998  43.802  13.315  13.509
87903W        W46999   3.281  17.759  14.373
87904W        W47000  41.848   8.771   0.875
87905W        W47001  16.648  43.767   0.789
87906W        W47002  19.747  32.957  14.430
87907W        W47003  20.768  37.937   4.608
87908W        W47004  23.084  32.414   1.232
87909W        W47005  42.835  37.449   1.777
87910W        W47006  35.417   9.153   0.260
87911W        W47007  34.945  44.301  13.545
87912W        W47008  14.604  14.209   0.309
87913W        W47009  40.970  36.903   3.289
87914W        W47010   3.238  19.118   1.802
87915W        W47011  24.482  36.882  12.522
87916W        W47012  24.199  40.891   2.197
87917W        W47013  35.855  34.468  12.075
87918W        W47014  41.428   3.372  13.311
87919W        W47015  34.118  29.130   0.324
87920W        W47016  23.165   5.832  14.456
87921W        W47017  18.583  17.559  10.945
87922W        W47018  20.655  23.506   3.267
87923W        W47019  40.407  17.291   1.927
87924W        W47020   5.721  18.716   2.744
87925W        W47021  30.104  11.718   1.357
87926W        W47022  25.494  28.940  11.492
87927W        W47023  25.205  40.502   1.360
87928W        W47024  43.811  34.022  12.468
87929W        W47025  40.360  38.860   3.746
87930W        W47026  43.977  37.968  11.857
87931W        W47027   9.774   9.315  13.987
87932W        W47028  29.664  28.031   5.288
87933W        W47029  15.217  31.402  12.993
87934W        W47030  32.049  25.510   0.304
87935W        W47031   0.789  29.069  12.041
87936W        W47032  16.642  44.381   3.703
87937W        W47033   2.801   9.365   1.785
87938W        W47034  22.574  19.680   3.853
87939W        W47035  25.094   0.437  12.913
87940W        W47036  15.274   5.876   0.377
87941W        W47037  14.215  21.215   4.291
87942W        W47038   7.802  28.131  12.565
87943W        W47039   6.329  10.219   1.365
87944W        W47040  29.112   6.923  10.424
87945W        W47041   3.866   6.353  10.481
87946W        W47042  28.958  35.457  12.038
87947W        W47043  38.066  35.005   3.163
87948W        W47044   5.799  32.976  11.456
87949W        W47045  22.048  31.110  11.434
87950W        W47046   2.413  40.956   4.618
87951W        W47047   8.340  24.219   9.969
87952W        W47048   9.753  32.473  12.532
87953W        W47049   8.333   5.795  14.498
87954W        W47050   0.446  11.165  11.455
87955W        W47051  17.666  23.528  11.457
87956W        W47052  25.968  41.015  12.073
87957W        W47053  15.157  10.191  13.479
87958W        W47054   1.376   7.853   3.279
87959W        W47055  23.157   7.785   4.599
87960W        W47056  17.682  14.165   2.868
87961W        W47057  38.852  32.530   4.748
87962W        W47058  22.643  19.631  13.921
87963W        W47059  17.263   9.778  13.415
87964W        W47060   3.790  11.821  12.077
87965W        W47061   7.772  22.046   0.822
87966W        W47062  29.984  20.183   3.694
87967W        W47063  15.325  42.947  11.041
87968W        W47064  32.486  34.527  14.332
87969W        W47065  10.704   0.903  12.508
87970W        W47066  34.119   9.718   1.852
87971W        W47067   6.686  11.722   2.844
87972W        W47068  28.001  16.131  11.381
87973W        W47069  29.003   5.425   1.319
87974W        W47070  20.243  14.796   4.268
87975W        W47071  23.017   9.847   0.780
87976W        W47072  40.432   7.755   0.812
87977W        W47073  24.592  22.545   4.729
87978W        W47074  19.621  14.778   1.858
87979W        W47075  21.603  27.013   3.173
87980W        W47076  25.003  26.002  10.645
87981W        W47077  11.214  31.916   4.326
87982W        W47078  41.927   2.421  10.560
87983W        W47079  21.119   2.274   1.854
87984W        W47080  29.175  22.247  10.476
87985W        W47081  34.981   3.861  10.504
87986W        W47082  27.584  36.540   4.755
87987W        W47083  36.051   5.801   0.809
87988W        W47084   9.839   5.245  14.407
87989W        W47085  24.679  44.305   2.831
87990W        W47086  17.713  16.258  12.059
87991W        W47087  33.028  44.983  10.628
87992W        W47088  39.932  21.665  12.093
87993W        W47089  41.387   1.816  14.366
87994W        W47090   8.871  43.928  13.407
87995W        W47091  30.938  19.650  12.999
87996W        W47092  27.655  28.505  12.406
87997W        W47093  41.814  27.690  10.446
87998W        W47094  21.555  17.117   3.246
87999W        W47095  39.548  38.869   0.426
88000W        W47096  12.222  33.952   2.806
88001W        W47097  23.538  12.148   1.327
88002W        W47098  28.976  21.216   2.793
88003W        W47099  15.588   9.318  13.966
88004W        W47100  17.644  18.253   0.881
88005W        W47101  44.925  12.779   4.354
88006W        W47102  42.376  25.129  12.010
88007W        W47103  30.500  21.117  10.996
88008W        W47104  42.505  16.308  14.965
88009W        W47105  32.419  31.580   1.414
88010W        W47106   0.952  15.119   1.872
88011W        W47107  32.913   0.472  10.610
88012W        W47108  26.500   9.868  11.592
88013W        W47109  21.639  36.432   1.343
88014W        W47110   4.900  30.434   4.344
88015W        W47111  35.536  43.438  14.962
88016W        W47112   2.784  38.825  14.024
88017W        W47113   3.847  25.473   9.642
88018W        W47114  33.484  29.144  12.366
88019W        W47115  44.921   1.316   0.423
88020W        W47116  44.436  42.315  13.445
88021W        W47117  32.424  37.914  11.071
88022W        W47118  38.456  39.505   4.709
88023W        W47119  13.264  12.838   1.786
88024W        W47120  12.703   6.414   1.844
88025W        W47121  37.426   8.803  14.030
88026W        W47122  28.092  42.427   1.370
88027W        W47123  22.203  36.479  10.588
88028W        W47124   5.927  42.335   1.869
88029W        W47125  22.511  18.089  11.883
88030W        W47126  15.736  16.269   1.434
88031W        W47127  36.047  28.605   4.309
88032W        W47128  37.993  41.945  14.323
88033W        W47129  13.681  17.305  11.475
88034W        W47130  21.635  44.404  12.428
88035W        W47131  10.678  22.581  12.373
88036W        W47132  23.021  33.576   0.314
88037W        W47133   3.412  25.520   3.817
88038W        W47134  41.400  41.415   1.227
88039W        W47135  32.088  25.117  12.562
88040W        W47136  24.219  12.266   1.310
88041W        W47137  26.069  11.731   4.312
88042W        W47138  32.130  37.538  13.368
88043W        W47139   7.191  28.592   4.675
88044W        W47140  40.878  38.978  10.561
88045W        W47141  16.113  24.992   0.361
88046W        W47142  15.725   3.734   0.955
88047W        W47143  43.373  17.062   0.248
88048W        W47144  25.153  12.134  14.837
88049W        W47145  34.988  44.450   4.820
88050W        W47146   8.845  32.067   0.870
88051W        W47147  12.816  19.573  14.503
88052W        W47148  37.886  34.514  13.319
88053W        W47149  30.629  13.837   0.409
88054W        W47150   8.219  39.899   1.288
88055W        W47151  15.607  13.636   0.776
88056W        W47152   7.354  29.532  14.923
88057W        W47153  33.955   2.452   4.800
88058W        W47154  20.059  33.076  10.581
88059W        W47155  27.168  38.889  11.918
88060W        W47156   3.877  14.102   2.270
88061W        W47157  15.312  35.422   4.162
88062W        W47158  13.190  23.191  14.021
88063W        W47159  30.988  37.365   2.816
88064W        W47160  18.680  21.188   0.906
88065W        W47161  30.448  33.600   2.772
88066W        W47162  40.450  41.513  14.415
88067W        W47163  35.026   3.815   1.366
88068W        W47164  18.178  42.841  14.897
88069W        W47165  25.575   0.964  12.934
88070W        W47166  40.873  27.992   1.695
88071W        W47167  41.470   6.851   2.715
88072W        W47168  24.158  27.587  10.553
88073W        W47169   6.734  44.387   1.293
88074W        W47170   2.341  27.127   0.844
88075W        W47171  41.818   8.191  14.475
88076W        W47172  30.598  28.961   0.309
88077W        W47173  31.031  42.835  13.046
88078W        W47174  35.904  41.031   2.677
88079W        W47175  18.709  17.116  14.888
88080W        W47176  20.707  35.854   5.694
88081W        W47177  40.357   6.202   0.308
88082W        W47178  14.214  11.173  13.411
88083W        W47179   7.776  33.968   0.888
88084W        W47180   3.721  37.953   0.268
88085W        W47181   3.877  34.376  13.355
88086W        W47182  44.378  43.474  10.970
88087W        W47183  21.164  40.809   4.724
88088W        W47184  27.955  42.827   5.215
88089W        W47185  21.677  37.556  12.876
88090W        W47186  35.371  19.141   0.822
88091W        W47187  12.181   1.827   0.786
88092W        W47188  43.382  24.082   0.430
88093W        W47189  10.876  28.127   1.772
88094W        W47190  29.524  33.439   1.752
88095W        W47191  44.505  44.008   4.233
88096W        W47192  40.519  28.158   3.839
88097W        W47193  16.164  28.947  12.370
88098W        W47194  15.664   9.330   3.334
88099W        W47195  10.818  20.690   0.468
88100W        W47196   0.876  23.062   1.694
88101W        W47197   9.645  38.460   2.902
88102W        W47198  30.927   2.383   4.730
88103W        W47199  35.518  10.724  12.957
88104W        W47200  22.202  43.332   1.364
88105W        W47201  13.687  18.105   4.767
88106W        W47202  11.223  32.036  14.032
88107W        W47203   3.339  40.354  11.932
88108W        W47204  17.661  39.372   3.338
88109W        W47205  26.014  43.277  13.038
88110W        W47206  11.226  22.706  11.378
88111W        W47207  27.655  39.483   3.844
88112W        W47208  10.733  10.209   0.837
88113W        W47209  31.970  21.094  11.008
88114W        W47210  17.191  20.199   2.190
88115W        W47211  10.262  33.569  14.445
88116W        W47212  18.710   5.304  10.566
88117W        W47213  29.026   7.334   3.687
88118W        W47214   2.831  21.095   4.202
88119W        W47215  39.030  30.071  14.031
88120W        W47216   9.751  34.093  10.522
88121W        W47217  32.470  14.823   1.330
88122W        W47218  30.485  22.012   1.869
88123W        W47219   8.890   3.888  14.847
88124W        W47220  36.555   2.746   2.835
88125W        W47221   3.405  11.784   0.369
88126W        W47222   2.257  12.130   0.822
88127W        W47223  25.671   5.853  12.436
88128W        W47224   7.724  38.941   5.121
88129W        W47225  19.597  43.979   4.251
88130W        W47226   4.336  33.518   1.219
88131W        W47227  44.437  44.267   5.094
88132W        W47228  28.615  43.346   0.323
88133W        W47229  20.235  26.653   1.873
88134W        W47230  16.195  43.482   4.688
88135W        W47231  27.676  39.374  13.412
88136W        W47232  14.243  26.547   1.398
88137W        W47233  26.675  41.473   2.850
88138W        W47234  20.095  40.468   1.391
88139W        W47235  37.884  34.513   4.781
88140W        W47236  11.161  26.520  13.032
88141W        W47237  35.498   5.262   2.830
88142W        W47238  41.982  12.633   0.274
88143W        W47239  24.134  12.126  14.303
88144W        W47240  29.512  31.963   2.304
88145W        W47241  39.470  31.549   2.412
88146W        W47242  26.025  25.133  10.975
88147W        W47243  39.941  43.935   4.831
88148W        W47244  10.282  30.003   3.198
88149W        W47245  22.027  29.009  11.910
88150W        W47246  20.211  14.682   0.404
88151W        W47247  34.535   0.282   0.849
88152W        W47248  11.771  32.122  14.028
88153W        W47249  35.875  36.449  13.441
88154W        W47250  36.354   9.191  12.076
88155W        W47251  24.100  31.124  11.499
88156W        W47252  16.618  40.374   0.854
88157W        W47253  18.780  42.890   5.294
88158W        W47254   6.730  43.903   0.841
88159W        W47255  37.957   7.789   1.773
88160W        W47256  12.670  15.274   0.828
88161W        W47257  13.782  22.597  12.517
88162W        W47258  17.667  15.816  11.470
88163W        W47259   6.851  43.288  11.078
88164W        W47260  11.628  25.489   1.790
88165W        W47261   8.713  11.819  10.445
88166W        W47262  25.967  34.527   3.304
88167W        W47263  40.469  22.226   0.461
88168W        W47264  41.036  11.206   1.754
88169W        W47265   1.371  30.585   1.389
88170W        W47266  36.467   5.812  12.832
88171W        W47267  35.554  41.422   3.816
88172W        W47268  35.376  44.934   4.295
88173W        W47269  30.139  20.656   1.325
88174W        W47270  28.073  20.555   1.232
88175W        W47271  14.246  19.127  10.898
88176W        W47272   5.361  11.762   0.299
88177W        W47273  13.110  15.803   0.461
88178W        W47274   0.293  37.416  14.405
88179W        W47275   0.280  22.245  10.559
88180W        W47276  15.219  16.288   4.693
88181W        W47277   4.744  13.265  12.980
88182W        W47278  43.019  16.680  14.301
88183W        W47279   8.278   9.158  14.421
88184W        W47280  40.350  22.161  14.801
88185W        W47281  15.178  38.413   2.694
88186W        W47282  41.525  34.918   4.631
88187W        W47283  35.066  40.828   2.411
88188W        W47284  28.573  32.403   2.682
88189W        W47285  43.775  19.771  13.985
88190W        W47286  38.417  28.965  14.778
88191W        W47287   3.886  13.787   1.745
88192W        W47288  14.272  40.533   0.924
88193W        W47289  11.850  25.167  14.406
88194W        W47290  22.697   5.315  10.117
88195W        W47291  36.930  15.250   9.452
88196W        W47292  34.882  14.799   2.776
88197W        W47293   6.369  27.948  12.895
88198W        W47294  20.082  32.020   3.362
88199W        W47295  10.659   3.432   0.737
88200W        W47296  20.565   0.840  11.555
88201W        W47297  21.228  12.121   4.254
88202W        W47298  27.062  31.138   3.710
88203W        W47299  43.443   4.245   4.665
88204W        W47300  29.978  34.453  11.512
88205W        W47301  43.314  36.918  14.845
88206W        W47302  38.037   2.947   1.360
88207W        W47303  24.489  38.542   1.810
88208W        W47304   2.954  25.575   3.643
88209W        W47305  22.075   4.719  12.543
88210W        W47306  11.637  18.284   4.291
88211W        W47307   2.773  16.276   2.208
88212W        W47308  23.224  26.172  12.909
88213W        W47309  43.328  37.085   0.420
88214W        W47310   6.677  18.639  14.811
88215W        W47311  41.479   0.811   0.936
88216W        W47312  16.208  19.677  12.509
88217W        W47313  17.775  38.466  13.000
88218W        W47314  18.664  35.393   2.687
88219W        W47315  40.045   6.325  12.366
88220W        W47316  22.669  41.013  14.907
88221W        W47317  20.547   8.723   3.788
88222W        W47318   6.690  14.321  12.934
88223W        W47319  40.008   6.410  14.291
88224W        W47320  14.171  29.040   2.741
88225W        W47321  25.178  22.588   1.832
88226W        W47322  22.534   1.736   1.796
88227W        W47323  25.099  18.218   9.501
88228W        W47324   5.770  34.588  13.962
88229W        W47325  29.654  28.127  13.446
88230W        W47326  18.241  24.699   4.708
88231W        W47327  25.116  30.919  11.575
88232W        W47328   2.799  32.453  10.891
88233W        W47329  30.943  28.162   3.820
88234W        W47330   6.373  42.923   0.351
88235W        W47331  21.745  10.773   2.261
88236W        W47332  15.664   4.931  11.077
88237W        W47333  19.729   1.817   1.312
88238W        W47334  17.107  42.517  12.368
88239W        W47335  37.928  23.593  14.424
88240W        W47336  36.915  30.473   1.760
88241W        W47337  28.476  30.928   3.715
88242W        W47338  28.012   0.491   1.363
88243W        W47339   6.770  29.968  13.956
88244W        W47340   2.266   0.408  11.603
88245W        W47341   8.848  22.252   3.669
88246W        W47342  37.442   8.756   3.712
88247W        W47343   3.263  26.475   3.776
88248W        W47344   5.310  14.287   5.091
88249W        W47345  28.473  19.283   2.347
88250W        W47346  34.032  21.599  14.501
88251W        W47347  24.540  33.940   4.661
88252W        W47348  29.154  38.890   0.341
88253W        W47349   9.205  39.879  10.489
88254W        W47350  38.546   7.887   1.447
88255W        W47351   6.690  37.974   2.194
88256W        W47352  17.598   3.842   2.298
88257W        W47353   6.359  33.601   0.789
88258W        W47354  35.877  38.971   0.314
88259W        W47355  26.685  39.826   1.336
88260W        W47356   4.308  37.988   3.709
88261W        W47357   2.228  14.598   3.638
88262W        W47358  17.690  25.080   1.450
88263W        W47359  23.621  35.380   0.272
88264W        W47360  42.503  19.745  13.852
88265W        W47361  42.928  41.034  11.999
88266W        W47362  41.319  12.656  11.066
88267W        W47363  24.676   2.932  11.858
88268W        W47364   0.294  30.130   0.283
88269W        W47365  10.310   4.318  11.886
88270W        W47366  13.835  30.631  12.007
88271W        W47367   1.460  40.534  13.455
88272W        W47368  29.540  32.927  12.040
88273W        W47369  41.962   2.901   0.732
88274W        W47370   9.201   0.916   3.319
88275W        W47371  39.979   0.888   3.286
88276W        W47372  16.166  14.658  13.396
88277W        W47373   7.241   8.695   0.743
88278W        W47374   3.920   5.912  10.992
88279W        W47375  30.435  24.977  12.356
88280W        W47376  27.073  11.181  12.886
88281W        W47377  38.513  15.691   1.232
88282W        W47378  29.561  23.235  13.373
88283W        W47379  21.571  40.852   0.415
88284W        W47380   0.381  22.661   0.911
88285W        W47381   3.443  37.434   4.310
88286W        W47382  30.010  23.068   3.279
88287W        W47383  29.070  38.984  14.765
88288W        W47384  11.719  13.776   3.205
88289W        W47385  20.068   4.941  10.893
88290W        W47386   4.424  28.486   4.328
88291W        W47387  39.007  13.165  12.523
88292W        W47388  21.019  29.119  14.884
88293W        W47389  33.893   5.784   2.709
88294W        W47390   4.227  12.796  13.417
88295W        W47391   3.807  19.771  13.865
88296W        W47392  38.401  29.464  10.615
88297W        W47393  42.336  25.698   3.669
88298W        W47394  37.545  35.546   3.749
88299W        W47395  30.096  12.257   3.325
88300W        W47396  41.901  27.062   0.958
88301W        W47397  28.600  39.952   2.323
88302W        W47398  32.419  23.539  11.426
88303W        W47399  37.577  33.508   3.180
88304W        W47400  41.538   6.404   4.200
88305W        W47401  23.713  12.834   1.801
88306W        W47402  42.840   9.751  12.856
88307W        W47403  20.190  10.872   4.304
88308W        W47404  37.481  38.864  12.554
88309W        W47405  35.010  24.037  13.331
88310W        W47406  29.433  13.686   0.919
88311W        W47407  43.286   5.260   1.860
88312W        W47408  35.454  29.144   2.699
88313W        W47409  17.718  26.202  13.489
88314W        W47410   7.205  23.091   3.219
88315W        W47411  12.268   8.385   1.379
88316W        W47412  26.640  38.029  10.137
88317W        W47413  21.225  39.997  11.551
88318W        W47414   7.881  14.706   0.778
88319W        W47415  22.233   7.700   3.776
88320W        W47416  27.620  36.025  11.880
88321W        W47417  17.744   1.919   4.279
88322W        W47418  19.039   6.839  10.627
88323W        W47419  35.384   8.803   1.251
88324W        W47420  39.364  37.349   4.115
88325W        W47421  15.145  25.673   0.848
88326W        W47422  36.532  17.089  10.507
88327W        W47423   0.959  29.075   3.654
88328W        W47424  24.137  26.556  13.309
88329W        W47425   1.886  15.696   2.396
88330W        W47426   3.938  21.564  10.498
88331W        W47427   0.981  18.074   3.235
88332W        W47428  12.809  11.195  10.573
88333W        W47429  14.701  25.033   4.155
88334W        W47430  23.687   5.436  11.971
88335W        W47431  29.503  23.498  10.594
88336W        W47432  16.567  32.608   2.191
88337W        W47433  27.945  35.538  14.318
88338W        W47434  14.621   9.688   2.382
88339W        W47435  15.714  11.635  10.636
88340W        W47436  11.293  36.566  14.417
88341W        W47437  28.953  42.920   3.187
88342W        W47438  40.394   4.329  11.541
88343W        W47439  38.885  44.426  10.912
88344W        W47440  41.895   2.767  11.950
88345W        W47441   7.779  37.915  13.439
88346W        W47442  37.073  23.083   0.292
88347W        W47443  15.817  36.008  12.873
88348W        W47444  30.457   9.256   3.731
88349W        W47445  29.536  18.565  14.798
88350W        W47446   3.728  40.333   3.186
88351W        W47447   7.372  28.627   0.961
88352W        W47448  20.559   4.408   4.286
88353W        W47449  30.051  26.158  11.595
88354W        W47450  14.822  33.093   0.473
88355W        W47451  44.782  29.016  14.969
88356W        W47452   9.771   7.325   1.765
88357W        W47453   6.291  39.827   0.458
88358W        W47454  31.464  11.136   4.279
88359W        W47455  43.337   9.316  13.793
88360W        W47456  33.550  19.270  10.913
88361W        W47457  25.554  12.747  11.508
88362W        W47458  39.002  41.004  10.628
88363W        W47459  11.133  28.556  11.565
88364W        W47460   9.872  29.993   5.572
88365W        W47461  13.302  33.983   0.847
88366W        W47462  15.629  15.119   3.269
88367W        W47463  10.725   6.827   0.859
88368W        W47464  28.674  34.433   2.673
88369W        W47465   3.326  42.433   0.863
88370W        W47466  13.746  25.489  12.471
88371W        W47467  33.088  12.649   4.263
88372W        W47468  40.871  28.511   0.302
88373W        W47469  31.031  35.475  10.974
88374W        W47470  39.499   2.338   3.146
88375W        W47471  25.033  13.304   5.152
88376W        W47472  20.723  13.107  12.380
88377W        W47473  32.059  42.834  11.065
88378W        W47474  33.545  26.545   9.926
88379W        W47475   8.886  12.329  11.868
88380W        W47476  31.593   5.275   1.411
88381W        W47477  40.535   2.226  12.039
88382W        W47478  38.930  17.156   4.262
88383W        W47479  34.063   2.786   3.854
88384W        W47480  44.380  37.355   0.328
88385W        W47481  34.425  20.539   3.195
88386W        W47482   3.878   7.719   3.742
88387W        W47483  23.217  32.136  14.455
88388W        W47484  29.529  39.400  13.024
88389W        W47485  14.278   5.839  12.011
88390W        W47486  37.413  13.297  11.911
88391W        W47487  36.422  41.531   3.730
88392W        W47488  12.355  16.702   2.873
88393W        W47489  18.566   1.855  14.902
88394W        W47490  43.313  10.216   0.917
88395W        W47491  27.124  33.422  10.119
88396W        W47492   7.764  12.837  12.481
88397W        W47493  25.218  39.930   2.867
88398W        W47494  25.562  30.442  11.924
88399W        W47495  17.650  17.212  12.470
88400W        W47496  36.024   7.194  10.897
88401W        W47497  15.642  32.080   2.728
88402W        W47498  23.112  11.679   3.834
88403W        W47499   8.384  42.865   2.773
88404W        W47500   9.230  41.843   1.797
88405W        W47501  38.425   5.754   0.783
88406W        W47502  42.023  17.570   0.428
88407W        W47503   7.890   0.859   1.868
88408W        W47504  11.183   1.778  14.501
88409W        W47505  22.094  26.660  12.339
88410W        W47506  37.549  26.151   3.280
88411W        W47507  15.125  34.898   4.260
88412W        W47508   8.187  18.748   4.220
88413W        W47509  26.669  19.259  12.859
88414W        W47510  27.465  42.876  11.075
88415W        W47511  28.088   0.806   2.711
88416W        W47512  35.427  37.077   0.730
88417W        W47513  36.010  34.415   0.474
88418W        W47514  32.473  11.737  10.609
88419W        W47515  12.198   4.380   3.273
88420W        W47516   9.228  16.724  11.896
88421W        W47517  34.573  21.626   2.756
88422W        W47518  19.648  22.043  13.435
88423W        W47519  22.022  40.436   0.760
88424W        W47520  30.504  10.690  13.803
88425W        W47521  35.573  35.441  10.966
88426W        W47522   5.386   4.367  14.956
88427W        W47523  30.949   5.289  14.883
88428W        W47524  23.717  43.888  11.371
88429W        W47525  12.232  12.298  13.416
88430W        W47526  26.090  22.601   4.238
88431W        W47527  27.487  35.551  12.500
88432W        W47528   2.833  19.612  11.518
88433W        W47529   5.256  13.795  11.089
88434W        W47530  10.688   4.214   0.903
88435W        W47531  21.035  19.622   5.204
88436W        W47532  44.985   1.400   4.731
88437W        W47533  26.619  30.628  11.510
88438W        W47534  43.291  28.090   3.811
88439W        W47535  16.686  38.005  10.087
88440W        W47536   5.899  39.052   3.773
88441W        W47537  20.565   1.805  12.936
88442W        W47538  43.906  18.784   3.157
88443W        W47539  27.029  33.622  13.799
88444W        W47540  19.109   0.258  13.887
88445W        W47541  40.400  34.408  12.577
88446W        W47542  16.691  36.382  12.541
88447W        W47543  20.590   7.315   4.677
88448W        W47544  25.514  40.830  12.873
88449W        W47545  34.406  24.987   1.218
88450W        W47546  19.134   4.415  13.403
88451W        W47547  26.135  33.443   0.947
88452W        W47548  17.110  27.192   4.346
88453W        W47549   1.773  41.789  13.926
88454W        W47550  20.053   7.275  14.929
88455W        W47551  43.015  30.463   1.362
88456W        W47552  23.148   9.850   0.249
88457W        W47553  35.041  30.598   2.196
88458W        W47554   3.240   6.767  12.340
88459W        W47555  36.937  37.345  12.936
88460W        W47556  17.215  31.434  14.993
88461W        W47557   5.863  38.351  10.624
88462W        W47558  43.313  38.446  14.833
88463W        W47559  20.730  16.112   1.729
88464W        W47560  33.391  34.998  10.536
88465W        W47561  15.640  24.210  12.046
88466W        W47562  23.234  13.348   4.141
88467W        W47563  21.256  19.650   0.416
88468W        W47564  27.563   3.861   2.284
88469W        W47565  36.000   2.291   1.348
88470W        W47566  44.811  19.680   0.908
88471W        W47567   5.813  15.793  13.988
88472W        W47568  32.068  35.953   2.287
88473W        W47569   1.450  10.286  13.019
88474W        W47570  16.586   9.834  11.088
88475W        W47571  15.763   5.891   4.601
88476W        W47572  10.748  43.953   3.310
88477W        W47573  40.994  44.771   3.750
88478W        W47574  41.331  23.047   0.876
88479W        W47575  26.159  16.299  14.777
88480W        W47576  33.551   1.375  13.877
88481W        W47577  36.069   9.688  11.982
88482W        W47578   6.843  38.985  13.490
88483W        W47579   5.932   9.766  12.554
88484W        W47580  25.524  12.690   4.261
88485W        W47581  23.558   0.376   1.283
88486W        W47582  35.491  15.236   5.156
88487W        W47583  11.214  13.272   0.889
88488W        W47584   3.917  27.190  14.897
88489W        W47585   0.412  21.261   1.911
88490W        W47586  17.629  11.306   3.762
88491W        W47587  44.974  12.618   2.242
88492W        W47588  38.075  18.675  13.358
88493W        W47589   7.199  16.225  10.450
88494W        W47590  39.338  19.631  14.959
88495W        W47591   2.466   8.268  12.890
88496W        W47592   2.849   5.931   2.806
88497W        W47593  12.775  37.498   0.287
88498W        W47594  13.764  41.976   1.897
88499W        W47595  39.501  44.761   0.811
88500W        W47596  12.774  37.357  13.361
88501W        W47597   3.304   2.299  13.868
88502W        W47598   6.208   7.179   0.266
88503W        W47599  23.068  18.228  11.380
88504W        W47600  29.123  16.098  11.065
88505W        W47601  31.505  23.657  14.310
88506W        W47602  14.805   3.347   2.232
88507W        W47603  27.583  15.769  11.605
88508W        W47604  10.843  32.933  12.497
88509W        W47605  30.507  13.280   4.208
88510W        W47606  24.105  34.482  10.622
88511W        W47607  44.387  30.436   3.679
88512W        W47608  13.622  12.852  13.864
88513W        W47609  40.029  25.026   0.367
88514W        W47610  32.010  26.499   0.429
88515W        W47611  27.643  33.488   2.806
88516W        W47612  41.897  15.646  11.050
88517W        W47613  32.561  44.289  10.549
88518W        W47614  18.176  23.493  11.530
88519W        W47615  22.054  21.021   0.896
88520W        W47616  29.438  44.400   0.844
88521W        W47617  24.041  29.434  11.093
88522W        W47618   3.401   1.454   4.747
88523W        W47619  44.954  28.439  13.528
88524W        W47620  22.012  40.875  14.812
88525W        W47621   0.853   5.877  11.568
88526W        W47622   9.336  25.639  11.534
88527W        W47623  41.354  14.259   0.864
88528W        W47624  14.310   6.300   3.726
88529W        W47625  13.159  30.631  12.573
88530W        W47626   3.228  41.422  13.544
88531W        W47627  15.259  22.643   2.715
88532W        W47628   8.254   6.903   4.834
88533W        W47629   4.363   7.202   3.739
88534W        W47630  17.681   2.929  13.409
88535W        W47631   7.238  12.356   3.671
88536W        W47632  25.031  36.541  12.089
88537W        W47633  35.490  36.095   4.819
88538W        W47634  35.926  19.551  12.364
88539W        W47635  39.951  43.488  11.025
88540W        W47636  40.924   8.713  12.446
88541W        W47637   5.409  33.603  13.947
88542W        W47638  27.450  38.408  13.040
88543W        W47639  35.097  31.628   2.903
88544W        W47640   8.366   3.261  13.361
88545W        W47641   2.332  34.106  12.379
88546W        W47642  18.091  37.465   0.960
88547W        W47643  11.209  13.179  10.969
88548W        W47644  15.109  17.576   3.748
88549W        W47645   7.364  39.055  12.857
88550W        W47646  16.170  38.001  14.944
88551W        W47647  27.482  17.798  12.009
88552W        W47648  25.626  38.559   3.332
88553W        W47649   5.421  25.031   2.778
88554W        W47650  15.803  15.687  14.954
88555W        W47651  19.228  26.564  11.598
88556W        W47652  21.083  25.032   4.231
88557W        W47653  20.139  44.753   3.193
88558W        W47654  38.364   3.292   3.369
88559W        W47655   2.923  31.520   1.272
88560W        W47656  41.877  14.248   0.926
88561W        W47657  30.114   6.751   0.442
88562W        W47658  10.772  13.765  11.431
88563W        W47659   4.441  36.347  13.000
88564W        W47660   7.362  42.387  10.971
88565W        W47661  39.957  32.084  13.542
88566W        W47662  10.366  20.097  13.374
88567W        W47663  23.491  13.220  12.430
88568W        W47664  24.005  15.212   2.378
88569W        W47665  10.181  10.731  11.462
88570W        W47666  16.687  27.016  13.420
88571W        W47667  21.673  30.994  11.376
88572W        W47668  44.778  28.546   2.670
88573W        W47669  43.345  28.441   3.845
88574W        W47670  23.175  37.001   1.697
88575W        W47671  44.774   5.693  13.433
88576W        W47672  44.386  19.056   4.300
88577W        W47673  38.829  18.283   4.834
88578W        W47674  25.553  36.073   3.306
88579W        W47675   7.898  33.506   1.741
88580W        W47676  44.894  13.157   4.773
88581W        W47677  17.792  29.152  14.866
88582W        W47678  21.722  43.940   1.718
88583W        W47679   7.269  28.002  11.371
88584W        W47680  29.170  20.088   3.257
88585W        W47681  13.813   2.945  10.597
88586W        W47682  30.604   0.481   4.155
88587W        W47683  24.490  27.495   3.637
88588W        W47684  21.066  29.096  12.909
88589W        W47685  43.358  27.510   4.243
88590W        W47686  11.653   9.383   3.652
88591W        W47687  30.920  25.667  14.830
88592W        W47688  21.109  40.030  14.832
88593W        W47689  19.575  28.092  14.321
88594W        W47690   4.877  28.673   4.261
88595W        W47691   4.440  42.509  13.541
88596W        W47692  13.666  22.148   4.279
88597W        W47693  27.502  28.929   2.737
88598W        W47694  11.128   8.668  13.053
88599W        W47695  42.872  30.072  11.102
88600W        W47696   8.808  32.891   3.244
88601W        W47697  43.979  30.541  13.842
88602W        W47698   0.349  14.244  13.943
88603W        W47699   7.206  41.798   1.427
88604W        W47700  13.340  13.749  14.022
88605W        W47701  21.130  25.073   3.245
88606W        W47702   8.715  38.403   3.838
88607W        W47703  42.888   8.761   3.221
88608W        W47704  19.713   2.344  13.969
88609W        W47705  23.521  23.531   0.768
88610W        W47706  14.274  43.990  14.953
88611W        W47707  19.608  30.586  12.573
88612W        W47708  37.535  17.716  11.506
88613W        W47709  18.189   8.226   4.180
88614W        W47710  21.720  30.957   0.886
88615W        W47711  21.019  43.364   3.386
88616W        W47712  37.837  27.053  13.055
88617W        W47713  42.901   9.247   2.738
88618W        W47714   0.304  23.536  12.442
88619W        W47715  22.033   6.395  14.431
88620W        W47716  41.346  22.142   1.443
88621W        W47717  23.018  27.003  13.483
88622W        W47718   3.413  11.135   0.883
88623W        W47719   1.838  44.396  14.767
88624W        W47720  44.473  44.473  12.916
88625W        W47721   6.182  29.459  11.543
88626W        W47722  29.116  15.593   2.834
88627W        W47723  25.990  42.301  10.455
88628W        W47724  19.704   5.836  12.378
88629W        W47725   1.804  16.204   0.482
88630W        W47726   6.727  10.278  14.333
88631W        W47727  39.029  36.369   4.647
88632W        W47728  20.035  10.700  12.936
88633W        W47729  33.381  40.331  14.859
88634W        W47730  40.461   7.673  14.350
88635W        W47731  15.630  40.500   0.283
88636W        W47732  24.184  42.979   1.343
88637W        W47733  18.157  44.463   4.149
88638W        W47734   9.799   6.302  14.473
88639W        W47735   6.834  37.915   4.274
88640W        W47736  41.507  24.599  11.037
88641W        W47737  14.151  28.559  14.279
88642W        W47738   2.937  31.523  12.424
88643W        W47739   0.921  34.986   0.759
88644W        W47740  25.536  31.127   3.227
88645W        W47741  10.147   3.403  14.467
88646W        W47742  24.662   0.327   0.420
88647W        W47743  34.563   8.758  13.478
88648W        W47744  36.359   6.808   2.811
88649W        W47745   0.452   1.879   0.263
88650W        W47746   5.375  39.411  10.928
88651W        W47747  15.624  43.933   2.712
88652W        W47748  35.419  20.037  12.942
88653W        W47749  28.031  22.543   0.738
88654W        W47750  26.061  11.690  11.495
88655W        W47751  18.667  41.928  14.406
88656W        W47752  24.198   7.337   0.411
88657W        W47753   8.716   5.730   4.178
88658W        W47754  27.471   4.891   4.722
88659W        W47755  40.388  31.430  12.572
88660W        W47756  41.493  12.651   0.439
88661W        W47757   0.462  24.009   1.265
88662W        W47758  19.741  34.966  14.490
88663W        W47759  40.981   4.813  13.843
88664W        W47760  34.602  15.138  13.443
88665W        W47761  15.271  24.103  12.031
88666W        W47762  10.197  26.081  10.450
88667W        W47763  35.086   2.357  14.377
88668W        W47764  32.905  29.434   3.857
88669W        W47765   7.791   8.330   3.349
88670W        W47766  35.404  29.948   0.281
88671W        W47767   6.887   0.744   2.891
88672W        W47768  24.075   3.772   2.822
88673W        W47769  13.322  33.549  10.428
88674W        W47770   8.376   6.916  11.547
88675W        W47771   8.893  14.777  14.418
88676W        W47772  23.733  10.226   3.699
88677W        W47773   9.860  18.260  14.987
88678W        W47774  36.373  22.566  10.953
88679W        W47775  10.301  26.066  12.430
88680W        W47776  39.320  12.683  11.606
88681W        W47777  36.480  20.138  14.326
88682W        W47778  35.516  35.874   2.677
88683W        W47779   6.283  10.303   4.637
88684W        W47780  21.017  33.878   2.356
88685W        W47781  28.576  22.244  10.535
88686W        W47782  19.042   8.301   3.255
88687W        W47783   1.805  18.144  14.467
88688W        W47784  24.550  34.910   5.220
88689W        W47785   4.904  19.596  10.574
88690W        W47786  32.484  42.779   4.141
88691W        W47787   6.213  31.633  13.521
88692W        W47788  42.311  36.352   3.840
88693W        W47789   5.762   1.962   1.382
88694W        W47790  16.718  39.465  14.430
88695W        W47791   1.322  15.722  12.467
88696W        W47792   2.377   1.360  11.027
88697W        W47793  26.505  24.619  11.425
88698W        W47794  14.123  24.511  12.926
88699W        W47795   0.805  43.411   2.726
88700W        W47796  17.087  21.678   1.414
88701W        W47797  20.596  21.534   2.846
88702W        W47798  29.553  20.170   2.192
88703W        W47799  16.634  22.056   1.447
88704W        W47800  10.692  42.495  11.057
88705W        W47801  17.559  32.411   1.837
88706W        W47802   6.897  13.823   3.362
88707W        W47803  23.211  22.168  10.546
88708W        W47804  24.085   7.368  11.455
88709W        W47805  18.179  19.579   2.755
88710W        W47806  41.295  24.094   0.448
88711W        W47807  12.708  24.116  13.914
88712W        W47808  33.443  14.323  13.503
88713W        W47809  38.514   5.248  13.972
88714W        W47810  32.032  42.960   3.700
88715W        W47811  31.508  15.213   1.401
88716W        W47812   1.283   9.305   2.773
88717W        W47813  38.519  24.619  14.802
88718W        W47814   6.374  16.143   2.760
88719W        W47815  16.810  34.531   2.219
88720W        W47816  39.990   6.259   0.868
88721W        W47817  36.022  14.252   0.884
88722W        W47818  17.789  26.506  12.443
88723W        W47819  22.132  17.238   1.404
88724W        W47820  37.932   2.398  13.346
88725W        W47821   2.798  39.874   4.732
88726W        W47822  25.557  23.645  10.572
88727W        W47823  17.149  24.630   2.671
88728W        W47824  19.057  33.039  10.957
88729W        W47825  44.451   7.269  10.970
88730W        W47826  39.409  19.205   3.835
88731W        W47827   4.820   4.731  14.840
88732W        W47828  14.096  17.597  10.985
88733W        W47829  14.742   8.161   0.376
88734W        W47830   4.886  27.483   1.279
88735W        W47831  18.082   4.906  10.595
88736W        W47832  30.943   2.802   4.818
88737W        W47833  17.738  30.921  10.956
88738W        W47834  42.002  24.213  14.468
88739W        W47835  18.246  32.594   2.736
88740W        W47836  35.512   4.316   3.743
88741W        W47837  12.750  19.284  11.567
88742W        W47838  35.878  21.114  14.859
88743W        W47839  20.063  16.683   3.161
88744W        W47840  32.390  33.903   2.277
88745W        W47841  29.648  27.160  11.022
88746W        W47842  18.600  43.802   2.190
88747W        W47843  37.565  39.810  13.035
88748W        W47844   1.931  14.693  13.970
88749W        W47845   0.308   0.895  12.466
88750W        W47846  14.204   2.953   1.791
88751W        W47847  23.732   6.353  10.575
88752W        W47848  26.577  14.155   3.372
88753W        W47849   5.399  14.702   4.752
88754W        W47850  34.079   7.183  13.864
88755W        W47851  21.081  32.920  12.014
88756W        W47852  14.168  39.328  14.389
88757W        W47853  21.038  32.632   4.717
88758W        W47854  18.289  10.285   3.153
88759W        W47855   7.329  21.692  10.993
88760W        W47856  30.589   9.209   4.656
88761W        W47857  42.417  12.679   0.945
88762W        W47858   3.394   4.702   5.199
88763W        W47859  31.563  19.203  11.091
88764W        W47860  38.030  40.022   4.138
88765W        W47861  24.002  12.787  14.455
88766W        W47862   0.292   2.418  11.015
88767W        W47863  35.533  28.675   2.200
88768W        W47864  20.733  37.889   4.188
88769W        W47865  42.313   4.808   4.159
88770W        W47866   7.208  18.120   4.234
88771W        W47867  43.781  14.764  14.788
88772W        W47868  40.006  18.056   4.123
88773W        W47869  29.580  24.220   3.817
88774W        W47870  31.565  42.974   0.333
88775W        W47871  38.526  37.396  14.401
88776W        W47872  22.209   6.789  14.799
88777W        W47873   3.327   5.751   3.820
88778W        W47874   9.345  29.126   3.659
88779W        W47875   8.236   1.258   4.169
88780W        W47876   8.900   5.378  11.409
88781W        W47877   4.248  40.022   0.335
88782W        W47878  19.721   9.226   0.882
88783W        W47879   0.778  11.183   4.162
88784W        W47880  40.535  42.890  13.793
88785W        W47881  31.411  42.784  11.970
88786W        W47882  39.827  13.726  14.350
88787W        W47883  25.515  31.552  12.014
88788W        W47884  28.067  37.067  13.373
88789W        W47885  30.497  31.079  12.088
88790W        W47886   2.875  11.694  14.357
88791W        W47887  14.258   3.307  11.060
88792W        W47888  17.164  36.024   1.902
88793W        W47889  24.070  15.592   0.308
88794W        W47890   8.821  23.138   0.337
88795W        W47891  37.991  26.167   1.342
88796W        W47892  35.404  30.570  12.078
88797W        W47893  30.935   0.885  14.303
88798W        W47894  33.948  42.955  11.982
88799W        W47895  30.083  31.506   4.180
88800W        W47896  32.947  39.989   0.450
88801W        W47897  31.117   7.344  11.896
88802W        W47898  13.745  35.598   4.135
88803W        W47899   4.736  32.923   0.433
88804W        W47900   5.894  29.050   1.356
88805W        W47901  38.569  42.370  13.518
88806W        W47902   7.816  35.873   4.186
88807W        W47903  15.823  29.624  14.422
88808W        W47904  18.116  27.490   2.392
88809W        W47905  40.021   5.193  13.879
88810W        W47906  44.387  38.993  12.856
88811W        W47907  18.057  40.411   2.190
88812W        W47908  10.723  19.243  10.461
88813W        W47909  19.699  32.041  12.371
88814W        W47910   4.900   2.445  14.952
88815W        W47911  23.190  12.231   2.411
88816W        W47912  18.165  39.852   2.750
88817W        W47913  41.519   7.741  11.465
88818W        W47914  26.595  27.537   2.682
88819W        W47915  22.080  17.145   2.215
88820W        W47916   7.193  41.856  11.034
88821W        W47917   9.240   3.380  12.001
88822W        W47918   3.711  37.925   1.844
88823W        W47919  30.074  44.782  11.018
88824W        W47920  26.127  24.227  12.559
88825W        W47921  25.213  10.331   1.906
88826W        W47922  36.973  36.996   1.804
88827W        W47923  41.964  40.010  14.350
88828W        W47924  19.698   3.347  13.382
88829W        W47925  25.051  31.629  11.550
88830W        W47926  22.237   1.847  12.823
88831W        W47927  43.512  20.215   2.343
88832W        W47928  14.766  27.036  12.539
88833W        W47929  27.581  41.846   0.326
88834W        W47930   2.245  42.436  14.943
88835W        W47931  15.719  19.588  12.983
88836W        W47932   1.432  38.857  11.564
88837W        W47933  40.376  31.053  12.926
88838W        W47934  11.148  31.930   0.427
88839W        W47935   9.758  42.385   3.809
88840W        W47936  42.359   9.386   4.676
88841W        W47937   0.437  10.361  13.356
88842W        W47938   8.259  26.541   4.729
88843W        W47939   1.306   3.747   3.324
88844W        W47940  38.979  17.145  11.015
88845W        W47941   4.772   7.227   0.274
88846W        W47942   9.243  26.075   4.781
88847W        W47943  22.617  28.124   5.218
88848W        W47944   8.224  30.445   2.193
88849W        W47945  10.736  42.361   3.366
88850W        W47946  33.583  22.127   0.248
88851W        W47947  26.953  19.651   0.834
88852W        W47948   4.411  25.702  14.800
88853W        W47949   3.419  14.224   0.781
88854W        W47950   2.840  27.003   5.619
88855W        W47951  24.538  29.569   4.336
88856W        W47952  20.195  13.244  12.381
88857W        W47953  40.913   5.850  10.417
88858W        W47954  44.914   1.390  14.966
88859W        W47955  21.628  10.707  11.943
88860W        W47956  41.531  35.559  11.051
88861W        W47957  32.070  42.966   3.294
88862W        W47958  13.651   2.356   1.352
88863W        W47959  17.274  39.447   4.217
88864W        W47960   0.355  19.759   2.179
88865W        W47961  30.452   6.704   1.220
88866W        W47962  10.677   6.219   4.743
88867W        W47963  26.035  16.645   1.729
88868W        W47964  18.696   6.802   3.764
88869W        W47965   3.372  11.205   4.599
88870W        W47966  40.309   1.457   4.205
88871W        W47967  36.059  22.224   9.573
88872W        W47968  40.463  17.186  13.930
88873W        W47969  44.491  28.471  12.073
88874W        W47970  22.681  28.956  13.493
88875W        W47971  13.740  24.086   2.311
88876W        W47972  15.722  15.657   3.780
88877W        W47973  36.090   1.277  14.944
88878W        W47974  42.488  21.600  11.936
88879W        W47975   5.875  33.944  14.275
88880W        W47976  24.587  30.476  11.050
88881W        W47977  19.078  21.027   5.209
88882W        W47978  12.132   1.260  11.590
88883W        W47979  41.464   2.319   1.764
88884W        W47980   1.297  35.395   1.251
88885W        W47981  28.076  35.407   1.782
88886W        W47982   5.733  35.069  12.026
88887W        W47983  32.431  29.558  11.561
88888W        W47984   0.833  22.572  11.050
88889W        W47985  13.112  30.658   3.224
88890W        W47986  44.347  43.932   1.728
88891W        W47987  27.161  27.644  14.834
88892W        W47988  21.114  25.600   2.709
88893W        W47989  33.477   1.456   0.381
88894W        W47990  42.396  29.927   1.276
88895W        W47991   0.863  24.569   3.358
88896W        W47992  32.632  41.386   2.863
88897W        W47993  16.650   5.861   2.855
88898W        W47994  13.666  33.999   3.214
88899W        W47995  26.586  22.507  11.126
88900W        W47996  44.868   7.694  11.042
88901W        W47997  28.129   2.921   0.276
88902W        W47998  34.603  19.598  10.485
88903W        W47999  15.199  30.564   1.839
88904W        W48000   3.325  13.646  13.395
88905W        W48001  27.642   8.659  10.448
88906W        W48002  11.139  43.331  12.574
88907W        W48003  33.589  19.682  11.102
88908W        W48004  18.177  39.454   1.745
88909W        W48005  30.031  39.872  11.603
88910W        W48006   5.716  31.906  11.029
88911W        W48007   5.897  10.278  12.945
88912W        W48008  40.966   7.410   4.246
88913W        W48009   2.740  36.891   4.180
88914W        W48010  28.001  36.930  13.816
88915W        W48011  11.712  31.013   0.870
88916W        W48012  35.089  42.797  12.464
88917W        W48013  23.085  26.566   4.216
88918W        W48014  33.444   3.809   0.443
88919W        W48015   5.823  16.182  11.549
88920W        W48016  20.613   2.949   3.145
88921W        W48017  20.639  28.028   1.862
88922W        W48018  29.627  24.079  11.409
88923W        W48019  35.995  34.053   4.736
88924W        W48020  27.963  17.585   4.784
88925W        W48021   9.749  20.721  13.977
88926W        W48022  37.571  36.522  14.338
88927W        W48023  29.978  12.245  12.060
88928W        W48024  34.590  27.684   1.928
88929W        W48025  13.182   8.741   5.123
88930W        W48026   2.939  33.890  13.061
88931W        W48027   9.811  20.603  10.567
88932W        W48028  21.576  37.000   4.622
88933W        W48029  19.634  15.758  11.860
88934W        W48030  39.472  10.862  12.952
88935W        W48031  22.675   2.429  12.021
88936W        W48032  39.517  35.517   0.910
88937W        W48033  41.793  24.179  12.052
88938W        W48034  10.653  16.288   0.254
88939W        W48035  39.905  28.932  12.844
88940W        W48036   8.693  33.493   4.626
88941W        W48037  23.693  21.560  14.791
88942W        W48038   3.412  41.821  11.596
88943W        W48039  42.952  27.175   4.251
88944W        W48040  36.007  33.617   5.129
88945W        W48041  23.149  41.523   4.747
88946W        W48042   6.724  41.380  13.015
88947W        W48043  12.323  21.724  13.012
88948W        W48044  13.136  11.716  12.561
88949W        W48045  14.194  39.469  10.107
88950W        W48046   1.851  14.610   4.626
88951W        W48047  16.251  43.468  14.390
88952W        W48048  20.552   6.721  13.420
88953W        W48049  16.147  32.916  14.463
88954W        W48050  14.166   4.325   4.731
88955W        W48051  29.641  24.032   1.720
88956W        W48052  34.582  16.660  11.882
88957W        W48053   9.744  19.647   0.800
88958W        W48054  28.099   1.966   2.727
88959W        W48055  31.115  33.937   3.656
88960W        W48056  10.713  24.495   2.417
88961W        W48057  12.806  41.429  12.090
88962W        W48058  16.736  11.759  12.833
88963W        W48059  13.799   8.900   0.952
88964W        W48060   6.248  26.583   3.288
88965W        W48061  18.112  37.942   2.373
88966W        W48062  16.086  33.557   4.240
88967W        W48063  10.768   0.428  14.008
88968W        W48064  11.271  28.107  12.463
88969W        W48065  33.567  11.826  10.894
88970W        W48066   9.157  17.582  13.870
88971W        W48067  35.494   0.814   4.338
88972W        W48068  13.167  34.108  10.946
88973W        W48069  41.840  13.125   1.818
88974W        W48070  11.168  43.294  12.095
88975W        W48071  26.106  23.035  14.383
88976W        W48072  41.499  43.815  13.024
88977W        W48073  22.080  33.946   1.703
88978W        W48074  16.676  42.869  14.008
88979W        W48075  16.222  41.902  10.479
88980W        W48076  27.458  10.809   0.480
88981W        W48077  25.586   0.282   4.734
88982W        W48078  36.572  37.451  13.490
88983W        W48079  14.650  34.585   5.269
88984W        W48080  31.530  23.559  14.927
88985W        W48081  22.037  36.350  11.999
88986W        W48082   9.311  19.247  12.906
88987W        W48083  38.533  23.507   3.239
88988W        W48084  13.741  43.866  14.491
88989W        W48085   7.276  18.152   2.368
88990W        W48086  40.537  20.755   3.288
88991W        W48087   3.935  30.476   3.785
88992W        W48088  17.070  43.894   3.313
88993W        W48089  31.534   5.721   0.812
88994W        W48090  12.815   2.428   1.377
88995W        W48091  40.872  28.940   0.364
88996W        W48092   0.470   6.903  14.802
88997W        W48093  42.507   1.360   0.401
88998W        W48094  38.519  24.124  11.904
88999W        W48095  33.917  39.454  11.106
89000W        W48096  16.568   8.287   2.234
89001W        W48097  12.728  20.151  13.903
89002W        W48098  30.063   7.261  10.887
89003W        W48099  22.692  11.855   1.364
89004W        W48100  19.535  37.425   3.199
89005W        W48101  20.109  14.317  14.032
89006W        W48102   2.925  37.047  13.885
89007W        W48103  22.662  11.327   2.301
89008W        W48104  44.296  26.703   4.721
89009W        W48105   8.793   2.277   2.321
89010W        W48106  27.074   7.890  11.394
89011W        W48107  44.961   3.440   2.801
89012W        W48108  43.493  43.296  11.058
89013W        W48109   1.733  24.489  10.901
89014W        W48110  19.638  35.908  13.472
89015W        W48111  18.784  11.796   5.285
89016W        W48112  15.134  40.861  12.832
89017W        W48113  25.511  14.631  14.501
89018W        W48114  32.414   2.938   1.695
89019W        W48115  39.872  44.768   3.662
89020W        W48116  42.444  17.202  13.531
89021W        W48117  42.433  33.618  12.829
89022W        W48118  32.068  29.448   4.738
89023W        W48119   4.235  36.973  13.823
89024W        W48120  15.107  29.944   5.714
89025W        W48121  18.545   6.215  11.908
89026W        W48122  21.121  24.197  11.866
89027W        W48123  18.089  42.450  13.881
89028W        W48124  36.943  31.033   2.338
89029W        W48125  11.863   9.746   1.747
89030W        W48126  43.875  13.677  12.566
89031W        W48127  36.096  37.423   3.218
89032W        W48128  25.545  32.443   3.808
89033W        W48129  13.135  43.492  12.024
89034W        W48130  10.715  32.935   5.213
89035W        W48131  42.283  25.161   3.148
89036W        W48132   0.899  42.381   4.692
89037W        W48133  23.113  32.142   0.379
89038W        W48134   9.804  37.900   4.310
89039W        W48135  27.543  10.292   3.756
89040W        W48136   7.723  31.443   3.681
89041W        W48137   1.738  26.489  10.431
89042W        W48138   4.235  19.135   3.760
89043W        W48139  23.623  31.109   4.119
89044W        W48140   9.872   7.870   1.761
89045W        W48141  23.115  40.382   3.828
89046W        W48142   4.795  23.211  14.455
89047W        W48143  20.653  16.718   3.732
89048W        W48144  25.618  25.484  14.845
89049W        W48145   1.842  17.109   1.325
89050W        W48146  23.651   7.351   1.424
89051W        W48147  24.684  13.833  10.636
89052W        W48148  14.759  12.693   1.873
89053W        W48149  42.027  43.972  13.045
89054W        W48150  11.749  12.346  11.891
89055W        W48151  13.806  41.976  14.939
89056W        W48152   8.372  13.129  13.026
89057W        W48153  28.050   9.829   2.761
89058W        W48154  42.312  27.940  12.097
89059W        W48155   3.842  35.373  14.483
89060W        W48156  15.253  21.051  14.812
89061W        W48157   5.753  18.571   1.697
89062W        W48158   1.425  31.147   2.257
89063W        W48159  35.065  22.225   0.359
89064W        W48160  20.547  23.500  10.992
89065W        W48161   5.269   9.667   2.685
89066W        W48162  15.175  28.945  10.536
89067W        W48163  33.933  44.432   2.237
89068W        W48164  36.408  36.362   2.776
89069W        W48165  11.203  16.792   0.758
89070W        W48166   0.831  16.719   1.839
89071W        W48167  14.276  28.676   0.743
89072W        W48168  34.098   3.454  11.865
89073W        W48169  32.955  32.571   0.426
89074W        W48170  30.039  33.406   1.932
89075W        W48171  35.017  10.792  13.535
89076W        W48172  24.719  29.124   3.325
89077W        W48173  12.813  31.136   3.681
89078W        W48174   1.249  31.124  11.861
89079W        W48175  21.620  14.110  13.438
89080W        W48176  28.468  25.083   0.850
89081W        W48177  11.196   3.854   0.754
89082W        W48178  35.893  22.725  10.903
89083W        W48179  42.381  14.832   3.749
89084W        W48180  39.506  21.696   3.683
89085W        W48181  16.157  20.131   1.825
89086W        W48182   9.686  14.333  13.016
89087W        W48183  15.699  39.822  13.307
89088W        W48184   0.318  39.326   3.771
89089W        W48185  21.077  16.136  12.885
89090W        W48186  27.175  28.532   4.163
89091W        W48187  41.858  22.091  12.845
89092W        W48188  11.164  29.999  12.021
89093W        W48189  36.997  27.519  12.907
89094W        W48190   6.683  22.618   1.326
89095W        W48191  30.991  13.715   3.821
89096W        W48192   8.762  11.239   0.793
89097W        W48193  11.713  32.554   0.796
89098W        W48194  25.029  25.553   0.343
89099W        W48195  43.449   8.896  13.462
89100W        W48196   7.859  31.061  14.457
89101W        W48197  28.968   6.854   0.876
89102W        W48198  29.030  16.800   3.330
89103W        W48199  33.448  13.126  14.762
89104W        W48200  22.572  24.657   2.366
89105W        W48201  38.571  24.202   4.815
89106W        W48202   6.242  39.850  12.896
89107W        W48203  36.374  38.481  12.369
89108W        W48204  32.572  25.625  10.633
89109W        W48205  18.185  13.331  12.367
89110W        W48206  38.987  30.133  12.467
89111W        W48207  37.991  41.341  13.452
89112W        W48208  18.196  41.829   2.756
89113W        W48209   9.223  34.584  11.396
89114W        W48210   2.866  11.139  12.536
89115W        W48211   0.750  19.081  14.328
89116W        W48212   4.709  22.082  13.308
89117W        W48213  22.021   3.898  12.405
89118W        W48214  36.966  22.542   2.848
89119W        W48215  31.131  28.967   2.241
89120W        W48216  12.158  27.456  10.030
89121W        W48217  28.597   7.727   2.855
89122W        W48218  33.540   0.457  14.819
89123W        W48219  11.253  34.498  14.901
89124W        W48220  43.887  39.854   0.836
89125W        W48221  37.534  34.066   2.762
89126W        W48222  10.723  37.930  12.450
89127W        W48223  42.878  12.195   2.707
89128W        W48224  38.865   4.358  11.088
89129W        W48225  43.005   3.784   3.172
89130W        W48226  30.920  37.428  14.838
89131W        W48227  28.472  26.521   0.368
89132W        W48228   9.274  17.072   1.844
89133W        W48229   0.752  34.416  13.050
89134W        W48230  24.540  10.831  10.902
89135W        W48231  36.936  21.073   1.724
89136W        W48232   7.272   9.212  10.420
89137W        W48233  15.220   9.361  13.001
89138W        W48234   8.222  18.124  12.910
89139W        W48235  43.446  29.432   1.735
89140W        W48236  33.025   9.806  14.893
89141W        W48237  40.837  35.997  13.987
89142W        W48238  28.937  17.763   1.322
89143W        W48239   0.831  44.371   3.750
89144W        W48240  27.136  32.427   3.694
89145W        W48241  29.548   8.261  13.979
89146W        W48242   7.721   7.222   2.840
89147W        W48243  10.839   4.737  12.578
89148W        W48244  15.228   6.298  14.377
89149W        W48245  15.317  16.680  12.961
89150W        W48246  30.932  34.890  14.347
89151W        W48247  14.245  37.515  12.033
89152W        W48248  37.900  21.523  11.089
89153W        W48249  30.475  18.239   3.318
89154W        W48250  31.537  10.877   1.755
89155W        W48251  44.863  41.356  13.051
89156W        W48252  26.633  42.425   3.209
89157W        W48253  26.969   2.890  11.093
89158W        W48254   7.755  11.741  14.761
89159W        W48255   8.259  36.384  14.994
89160W        W48256  10.202  22.726  12.404
89161W        W48257  21.680  42.812   1.888
89162W        W48258   7.732   5.222   4.309
89163W        W48259  17.193  13.307  10.530
89164W        W48260   5.757  44.454  10.563
89165W        W48261   3.937  14.812  11.472
89166W        W48262  39.016  21.140   2.752
89167W        W48263  43.363   6.281   2.239
89168W        W48264   6.870  16.183   2.187
89169W        W48265  30.102  41.794   4.286
89170W        W48266  20.734   7.268  11.109
89171W        W48267  23.206  17.211  11.865
89172W        W48268   5.347   6.391   4.129
89173W        W48269   1.787  37.495   3.821
89174W        W48270  18.619  17.713   2.765
89175W        W48271   2.325  10.876  14.428
89176W        W48272   9.170  21.133   5.130
89177W        W48273  15.808  38.554  13.047
89178W        W48274  16.743  18.211   0.344
89179W        W48275   6.681  11.820   3.195
89180W        W48276  14.305  21.198  13.846
89181W        W48277  42.453  10.169   0.301
89182W        W48278  21.684  31.583   0.299
89183W        W48279  14.669  24.534   4.264
89184W        W48280   9.646   9.305  11.879
89185W        W48281   2.259   5.775  14.448
89186W        W48282   9.697   9.854   3.844
89187W        W48283  41.878   6.413  11.606
89188W        W48284  31.968   9.247  13.438
89189W        W48285  17.098   4.356  11.017
89190W        W48286   0.336  43.433   1.781
89191W        W48287  17.237  40.408   0.874
89192W        W48288  23.594  20.582   4.333
89193W        W48289  15.204   7.863  13.801
89194W        W48290   0.888  24.054  12.062
89195W        W48291  38.508  26.026  14.919
89196W        W48292  38.517   5.913  12.431
89197W        W48293  16.777  17.786   0.948
89198W        W48294  28.514  19.668  11.989
89199W        W48295  33.543  17.688  12.901
89200W        W48296  10.705  37.915   2.825
89201W        W48297  20.717  13.719  14.809
89202W        W48298  32.412   6.184   4.230
89203W        W48299   7.327  10.329  10.447
89204W        W48300  32.984  21.037  13.458
89205W        W48301  14.267  11.811  11.965
89206W        W48302  33.470  32.905  11.566
89207W        W48303  10.828  18.621  11.091
89208W        W48304  21.094  23.078   4.113
89209W        W48305  30.075  32.510   1.752
89210W        W48306  43.458  24.048  14.961
89211W        W48307  38.486  22.552  12.031
89212W        W48308  10.233  28.659   4.662
89213W        W48309  37.898  43.502   4.158
89214W        W48310   8.325  21.534  13.982
89215W        W48311  32.116   6.394  13.491
89216W        W48312  16.136  40.984  13.876
89217W        W48313   7.332  15.726  11.557
89218W        W48314  31.996  40.903   3.656
89219W        W48315  10.290   8.198   2.672
89220W        W48316  24.163  22.094  14.009
89221W        W48317   0.967  26.526   5.135
89222W        W48318   5.403   0.376   1.364
89223W        W48319  13.711  13.168  13.376
89224W        W48320  10.724  23.234  14.416
89225W        W48321  27.151   3.405  11.422
89226W        W48322   5.343  29.491  14.767
89227W        W48323  41.844  17.748   2.880
89228W        W48324   7.387  37.871   1.451
89229W        W48325  13.691  26.582   4.316
89230W        W48326  16.274  30.114   4.345
89231W        W48327   8.222   1.366   0.315
89232W        W48328  34.077  36.558   3.221
89233W        W48329  27.641  34.081   9.935
89234W        W48330  15.115  29.534  14.341
89235W        W48331   2.315  33.090   2.727
89236W        W48332  39.426   8.219   2.286
89237W        W48333  27.600  41.528   4.207
89238W        W48334   1.899   8.386   2.355
89239W        W48335  32.582  34.981   4.757
89240W        W48336  20.541  43.989   2.819
89241W        W48337   6.705  30.625   1.862
89242W        W48338  38.557  13.265   4.822
89243W        W48339  27.026  38.478   4.255
89244W        W48340  40.438  33.384  12.865
89245W        W48341   1.841  26.134   3.283
89246W        W48342   5.748  13.710   3.717
89247W        W48343  32.977  38.828   2.269
89248W        W48344  29.426   1.870   2.386
89249W        W48345   4.803   1.397  12.926
89250W        W48346   4.250  37.018  12.541
89251W        W48347  37.029  18.265  13.525
89252W        W48348  44.993  20.631   4.637
89253W        W48349  30.463  40.908  14.510
89254W        W48350  37.555  10.242   2.359
89255W        W48351  23.058  44.270  13.850
89256W        W48352   6.224   8.881  10.467
89257W        W48353  41.399  21.575  10.513
89258W        W48354   7.236  26.025  13.967
89259W        W48355  40.946  22.647   3.361
89260W        W48356  22.583  26.994  11.538
89261W        W48357  44.347   4.858  11.505
89262W        W48358  12.643   7.760   2.736
89263W        W48359   1.276  44.359  13.460
89264W        W48360  21.569  13.659  14.810
89265W        W48361  41.413  42.369   0.764
89266W        W48362   9.199  23.132   4.663
89267W        W48363  10.825  20.609  10.456
89268W        W48364  37.886  23.606   3.214
89269W        W48365  35.922  19.111  12.574
89270W        W48366   3.347   2.264   2.199
89271W        W48367  41.972   4.819   3.793
89272W        W48368  23.053   1.806  12.092
89273W        W48369  14.627  24.100  12.369
89274W        W48370  36.959  23.700  12.966
89275W        W48371  18.055  30.981   1.864
89276W        W48372  27.004  39.497  10.513
89277W        W48373  30.005   5.785   0.951
89278W        W48374  44.493  35.497   2.285
89279W        W48375  18.285  14.100   3.651
89280W        W48376  29.162  33.570   1.887
89281W        W48377  15.812   2.784   1.275
89282W        W48378  18.635  12.834   1.409
89283W        W48379   7.321   6.384   0.277
89284W        W48380  10.792  39.016  13.814
89285W        W48381  10.654  22.699   1.783
89286W        W48382  13.230   3.922  14.834
89287W        W48383  15.261   3.891   1.822
89288W        W48384  26.660  35.387   3.168
89289W        W48385  30.000   6.270   1.405
89290W        W48386  36.913  40.514  10.447
89291W        W48387  11.802  38.871  12.058
89292W        W48388  14.657  30.646   2.404
89293W        W48389  40.005  32.920  14.965
89294W        W48390   3.383  38.365  13.835
89295W        W48391  19.690  17.572  13.381
89296W        W48392   1.760  32.503  11.415
89297W        W48393  35.091  35.901  14.888
89298W        W48394  22.647  30.583   4.172
89299W        W48395  11.357   9.208  10.582
89300W        W48396  40.441   0.976   4.621
89301W        W48397  12.132   1.432   0.744
89302W        W48398   7.857  24.512   0.402
89303W        W48399  43.795  43.509   4.776
89304W        W48400  10.221  35.865  12.508
89305W        W48401  39.531  44.824   4.838
89306W        W48402  41.035  41.525  10.982
89307W        W48403   0.819  11.304  11.588
89308W        W48404  18.680  36.540  13.902
89309W        W48405  36.889  14.258  14.782
89310W        W48406   1.761  36.878  14.440
89311W        W48407   8.768  14.770   1.399
89312W        W48408   0.973   2.446   2.236
89313W        W48409  31.075  40.800  11.098
89314W        W48410  24.058  18.687   2.385
89315W        W48411  18.067  43.800   3.862
89316W        W48412  26.519  40.396   3.174
89317W        W48413   7.724  33.398   4.331
89318W        W48414  36.937  24.086   0.471
89319W        W48415  14.638  41.417   2.689
89320W        W48416  21.691   5.827  12.913
89321W        W48417  41.840   9.327  13.805
89322W        W48418  32.142  44.923  13.398
89323W        W48419  29.960  25.578   1.401
89324W        W48420  24.142  18.578  11.932
89325W        W48421  21.229  26.959  11.611
89326W        W48422  33.073  32.535   2.244
89327W        W48423  33.417  33.060   1.425
89328W        W48424   5.429  40.852   3.757
89329W        W48425   2.771  14.647   1.216
89330W        W48426   1.295  41.037  10.542
89331W        W48427  18.787  22.734  11.493
89332W        W48428  17.067  30.012   1.851
89333W        W48429   7.344  16.608  12.352
89334W        W48430  24.069   1.890  13.875
89335W        W48431  44.297  40.933  13.965
89336W        W48432  29.528  44.807  11.045
89337W        W48433  22.513  10.747   0.805
89338W        W48434  35.510  44.495  14.824
89339W        W48435  35.020  13.267  12.440
89340W        W48436  16.740  35.515  11.589
89341W        W48437  36.063  25.204   3.255
89342W        W48438   5.870  28.615  11.034
89343W        W48439  41.935   8.899   2.315
89344W        W48440  24.693  20.129  11.988
89345W        W48441  42.499  37.958  10.574
89346W        W48442  35.359  27.478  11.974
89347W        W48443  12.142  21.707  12.463
89348W        W48444  43.988  27.558   2.212
89349W        W48445  20.578  27.578  13.450
89350W        W48446  30.616  17.664   0.963
89351W        W48447  34.371  10.644   2.689
89352W        W48448  23.508   4.938  10.899
89353W        W48449  18.731  14.808   1.747
89354W        W48450  21.587  21.568  13.512
89355W        W48451  19.255  44.380  13.495
89356W        W48452  35.520   7.687   4.619
89357W        W48453   5.917  21.542   2.376
89358W        W48454   5.220  28.967   3.831
89359W        W48455  16.781   8.770  14.935
89360W        W48456   5.417  43.952  13.512
89361W        W48457   9.848  34.529   2.269
89362W        W48458  22.632   6.788   2.383
89363W        W48459  41.328  23.661   1.755
89364W        W48460  22.561  29.511   0.807
89365W        W48461  24.667   4.722  12.382
89366W        W48462  24.715   8.363  10.901
89367W        W48463  15.185   6.331   1.704
89368W        W48464  27.569  15.686  14.480
89369W        W48465   8.894  11.203  13.840
89370W        W48466  36.496   7.231   0.872
89371W        W48467  22.088  25.045  13.826
89372W        W48468   3.831  29.574  13.439
89373W        W48469   9.875  33.384  13.893
89374W        W48470  16.099  15.195  11.571
89375W        W48471  27.049  12.686  14.486
89376W        W48472  39.558   5.372   4.267
89377W        W48473  33.616  21.138   5.099
89378W        W48474  30.488  30.068   2.690
89379W        W48475  26.050  30.089  12.924
89380W        W48476  16.216   1.250   4.654
89381W        W48477  31.923  15.753   3.377
89382W        W48478  11.860  34.400  14.496
89383W        W48479   8.389  35.042  14.308
89384W        W48480  44.383  35.107  14.787
89385W        W48481  34.937   0.250   3.179
89386W        W48482  38.445  28.627  11.126
89387W        W48483  18.575  15.239   0.368
89388W        W48484  32.125  21.551   3.817
89389W        W48485   3.926  39.065   4.323
89390W        W48486   2.365  10.654  11.566
89391W        W48487  22.206   7.279  12.086
89392W        W48488   5.362  18.237   2.191
89393W        W48489  18.572   4.373   0.304
89394W        W48490   7.382  17.271  10.564
89395W        W48491  33.999  14.287   2.870
89396W        W48492  17.186   6.859  10.416
89397W        W48493  28.467  19.573  10.482
89398W        W48494  14.833   8.692  10.891
89399W        W48495  20.061  10.864  14.978
89400W        W48496   9.215  13.629   4.759
89401W        W48497   1.865  35.429  10.921
89402W        W48498  25.999   1.854   2.714
89403W        W48499  43.279  42.826   3.819
89404W        W48500   8.836  39.512  12.904
89405W        W48501  42.291   2.467  13.979
89406W        W48502   3.938   6.427  10.094
89407W        W48503  37.928  23.035   4.288
89408W        W48504  44.915  32.054  11.935
89409W        W48505  19.683  42.903  14.992
89410W        W48506  34.492  36.476   1.304
89411W        W48507  30.928   9.236  12.978
89412W        W48508  34.047  18.709  10.065
89413W        W48509  21.116  41.474  11.968
89414W        W48510  15.089  16.271  10.621
89415W        W48511  33.592   7.669  10.599
89416W        W48512   8.180  39.554   1.714
89417W        W48513  31.066   4.775   0.373
89418W        W48514  36.977  30.624  13.398
89419W        W48515  34.495  12.146   1.450
89420W        W48516  40.946   0.842  13.486
89421W        W48517  25.528  31.955   1.750
89422W        W48518   9.277  12.266  14.293
89423W        W48519  44.352  37.904  10.148
89424W        W48520   6.291  25.021   2.807
89425W        W48521  25.191  37.026  12.519
89426W        W48522  37.883  22.191  10.462
89427W        W48523  24.052  36.922  12.869
89428W        W48524   5.405   4.914   2.213
89429W        W48525   0.788  33.932   4.716
89430W        W48526   8.318  22.644  11.087
89431W        W48527  30.130  22.037   1.316
89432W        W48528  14.144   0.465   2.355
89433W        W48529   1.240  23.119  11.541
89434W        W48530  34.868  10.673  10.907
89435W        W48531  29.423  32.624  13.806
89436W        W48532  21.633  34.453  13.375
89437W        W48533  20.075   4.855   0.960
89438W        W48534  12.612  19.046   0.761
89439W        W48535  13.234   4.727  13.434
89440W        W48536   4.395  13.306   2.836
89441W        W48537  22.685  37.859  13.803
89442W        W48538  33.883  20.116  12.870
89443W        W48539   7.350   5.233   3.772
89444W        W48540   2.729  35.498   4.785
89445W        W48541  30.514  42.982  14.808
89446W        W48542  16.620   4.832   0.399
89447W        W48543   5.435  30.151  10.548
89448W        W48544   1.753  35.432  12.841
89449W        W48545  39.496   5.279  11.548
89450W        W48546  13.703  25.505   1.339
89451W        W48547  36.574   3.324  11.876
89452W        W48548   3.277   7.699   4.253
89453W        W48549   8.744  22.217  13.315
89454W        W48550  21.581   6.894  13.458
89455W        W48551  26.183  30.470   4.275
89456W        W48552  31.465  12.659  13.541
89457W        W48553  28.504   9.881  11.979
89458W        W48554  35.014   4.800  12.531
89459W        W48555  13.640  26.150   0.427
89460W        W48556  37.345  21.740  14.842
89461W        W48557  37.520  38.494  12.505
89462W        W48558   7.352  41.455  10.608
89463W        W48559  37.970  24.065  12.351
89464W        W48560   2.363  36.498  11.451
89465W        W48561  33.507  38.023  13.821
89466W        W48562   4.768  19.586   0.762
89467W        W48563   4.923   9.209   4.268
89468W        W48564  10.788  44.370  12.873
89469W        W48565  14.264  13.766   1.917
89470W        W48566  36.365  35.582  14.482
89471W        W48567  27.974  20.570  10.429
89472W        W48568  17.784   8.380  12.039
89473W        W48569  32.396  43.900  12.855
89474W        W48570  18.150   1.808  14.774
89475W        W48571  37.555  31.053  10.612
89476W        W48572  34.542  25.069  11.497
89477W        W48573  18.778  44.918  13.001
89478W        W48574  15.768  32.483   3.320
89479W        W48575  34.066  11.353  12.059
89480W        W48576   7.796  37.012  11.393
89481W        W48577  22.644  37.851   3.329
89482W        W48578  19.203   7.390  14.932
89483W        W48579  18.757   5.809  14.839
89484W        W48580  30.548  20.542  12.414
89485W        W48581  15.745  19.593   3.796
89486W        W48582  33.526  33.618   1.702
89487W        W48583   7.762  43.900  13.325
89488W        W48584  20.605  39.394  13.855
89489W        W48585  38.571  37.849   0.310
89490W        W48586   0.337  13.232   1.730
89491W        W48587  42.945  23.646   0.422
89492W        W48588  20.598   8.201  10.072
89493W        W48589  38.879  42.831  10.626
89494W        W48590  24.538  38.914   2.340
89495W        W48591  33.107  29.045  10.985
89496W        W48592  34.605   5.397   0.261
89497W        W48593  37.946  26.535   5.319
89498W        W48594   3.790   9.223   0.771
89499W        W48595  11.631  13.791  13.963
89500W        W48596  25.974  12.192  14.861
89501W        W48597  13.635   2.944   2.727
89502W        W48598  11.206  17.784  10.948
89503W        W48599  16.796  22.204  11.053
89504W        W48600  13.695   1.946  12.482
89505W        W48601  26.160  31.405   1.803
89506W        W48602  23.704  33.889   2.230
89507W        W48603   1.276   3.857  13.394
89508W        W48604  29.163  41.535   2.817
89509W        W48605  36.929  18.633  14.790
89510W        W48606  10.171   2.921   3.270
89511W        W48607   4.919  20.764   3.314
89512W        W48608  29.521  15.255  10.477
89513W        W48609  21.085  34.447   0.754
89514W        W48610   2.427   2.792  12.882
89515W        W48611  44.285  37.979   4.707
89516W        W48612  21.618  17.663   4.139
89517W        W48613  43.937  40.930  12.978
89518W        W48614  33.895  21.587  11.381
89519W        W48615   1.936  34.608   1.218
89520W        W48616   0.284  33.958  12.862
89521W        W48617  43.271  30.643  13.357
89522W        W48618  37.981  13.195   3.737
89523W        W48619  32.932  25.188  10.912
89524W        W48620  14.289   2.290  12.928
89525W        W48621  21.637  21.055  14.905
89526W        W48622   6.267   4.398   0.264
89527W        W48623  35.047  23.594   1.773
89528W        W48624   7.753   5.217   4.697
89529W        W48625  29.478  39.433   1.398
89530W        W48626  32.128   9.800   1.240
89531W        W48627   5.202  25.548  13.985
89532W        W48628  14.289  17.278   3.316
89533W        W48629  40.521  42.391  11.566
89534W        W48630  17.138  19.087   2.389
89535W        W48631  19.049   1.312  12.082
89536W        W48632  31.511  38.374  11.535
89537W        W48633  14.331  22.658  12.038
89538W        W48634  39.988  38.840  11.102
89539W        W48635  25.082   0.357  10.907
89540W        W48636  40.049  31.124  12.408
89541W        W48637  39.025   0.823   0.352
89542W        W48638  10.728  32.499  12.556
89543W        W48639  32.441  17.793  13.848
89544W        W48640  19.748  34.414  11.093
89545W        W48641   1.277  34.042   4.669
89546W        W48642  19.547  20.114  12.864
89547W        W48643  28.487  40.949   3.269
89548W        W48644  20.176   8.893   2.809
89549W        W48645  11.776  36.909  13.426
89550W        W48646  34.087  37.850   4.716
89551W        W48647  20.746   7.276   1.272
89552W        W48648  42.880  28.048   5.253
89553W        W48649   3.837   8.325  12.892
89554W        W48650  43.012  19.108  10.959
89555W        W48651  39.925  17.624  12.873
89556W        W48652  38.335  30.138   4.761
89557W        W48653  10.252  27.067  13.522
89558W        W48654   9.376  36.464   0.425
89559W        W48655  27.543   8.233   3.720
89560W        W48656  11.788   9.243   2.887
89561W        W48657  28.041  11.146  10.117
89562W        W48658  38.437  27.014  11.925
89563W        W48659  33.948  39.551   2.675
89564W        W48660  39.954  16.252   3.811
89565W        W48661  39.322  10.274  12.083
89566W        W48662  44.932  37.581  11.550
89567W        W48663  36.847  41.940  13.045
89568W        W48664  20.769  31.454  10.638
89569W        W48665  31.957  15.177   5.243
89570W        W48666  15.643  32.938   4.675
89571W        W48667   2.357  39.391   3.363
89572W        W48668  17.094  16.093  11.613
89573W        W48669  18.643  11.755  13.427
89574W        W48670  25.505  18.644   9.601
89575W        W48671  14.643  26.980   0.789
89576W        W48672  32.957  35.390   0.465
89577W        W48673  25.657  29.088   4.180
89578W        W48674  32.561  11.263   9.933
89579W        W48675  40.444  12.664   0.855
89580W        W48676  30.941  20.651   3.697
89581W        W48677  25.028  22.148   3.720
89582W        W48678  12.274  40.899   3.734
89583W        W48679  16.159  43.774   0.406
89584W        W48680  21.729  21.148  11.498
89585W        W48681  30.139  19.226   1.433
89586W        W48682  11.710   0.312  10.101
89587W        W48683  24.717   6.363   0.941
89588W        W48684  19.145  22.086  10.569
89589W        W48685  41.975  14.761  14.377
89590W        W48686  18.162  37.493  11.552
89591W        W48687  44.865  35.494  10.440
89592W        W48688  13.644   1.294   0.398
89593W        W48689  21.237  35.552  10.479
89594W        W48690  22.536  21.617  14.389
89595W        W48691  39.315  37.846   1.797
89596W        W48692  22.647  20.202  12.480
89597W        W48693  21.528   4.819  10.575
89598W        W48694  39.821  41.342  13.340
89599W        W48695   6.837  39.541  12.356
89600W        W48696  13.125  43.363  14.335
89601W        W48697  36.985  37.482   2.328
89602W        W48698  31.504  31.118  11.862
89603W        W48699   5.780   1.936  14.944
89604W        W48700  25.021  23.510  13.993
89605W        W48701  43.011   8.720  14.839
89606W        W48702  33.500  25.187  11.896
89607W        W48703   9.180  10.823   1.235
89608W        W48704  27.692  14.183   2.862
89609W        W48705  43.937  27.042   3.363
89610W        W48706  42.792  42.281  13.537
89611W        W48707  16.586   4.208   4.175
89612W        W48708  40.846  19.605   1.330
89613W        W48709  23.195  23.530   2.792
89614W        W48710  11.705  29.958   3.355
89615W        W48711  42.456  41.924  10.507
89616W        W48712  42.960   7.301  12.001
89617W        W48713  27.028  27.498   0.832
89618W        W48714  14.195  44.904  12.925
89619W        W48715  36.517  13.775   4.688
89620W        W48716  15.615  41.895   2.386
89621W        W48717   8.399  15.691  11.534
89622W        W48718   5.814  19.099  13.361
89623W        W48719  19.686  27.163  10.535
89624W        W48720  41.366  24.707   1.290
89625W        W48721  44.855   8.758  12.553
89626W        W48722  28.463  21.149   1.410
89627W        W48723  41.332  34.917   3.698
89628W        W48724  26.695  33.502   2.765
89629W        W48725  24.708  25.468   4.298
89630W        W48726  31.978  10.682   3.340
89631W        W48727   4.416   1.249   2.680
89632W        W48728  19.596  40.029  13.404
89633W        W48729  38.837  41.001   1.243
89634W        W48730   8.861  12.257  11.524
89635W        W48731  36.581   9.208   5.179
89636W        W48732  37.946   6.800   1.409
89637W        W48733  30.030   3.385   1.212
89638W        W48734   0.915  13.668  11.582
89639W        W48735  34.497  18.130   4.812
89640W        W48736  23.035  17.685   0.929
89641W        W48737  18.644  35.537   2.335
89642W        W48738  29.495  24.496   1.740
89643W        W48739  25.010  33.388   2.841
89644W        W48740  36.517   4.703  10.459
89645W        W48741  13.281  43.889  12.446
89646W        W48742  36.894  36.067  10.612
89647W        W48743  17.731  12.755   3.214
89648W        W48744   3.724  22.119   0.804
89649W        W48745   1.877  26.988   1.384
89650W        W48746  12.663  44.819   3.232
89651W        W48747  33.450  27.971   2.718
89652W        W48748  36.976  12.682  13.387
89653W        W48749  11.213  42.775   3.752
89654W        W48750  41.401  18.693  10.485
89655W        W48751   0.956  20.563  14.849
89656W        W48752  18.165  29.652  14.875
89657W        W48753  44.871  13.148  14.027
89658W        W48754   3.416  41.982  13.312
89659W        W48755   9.291   3.326  12.969
89660W        W48756  14.660  26.995   1.418
89661W        W48757  10.806   0.415   3.255
89662W        W48758   8.842  23.555  14.899
89663W        W48759  26.028  26.046  12.537
89664W        W48760   2.878  39.950  13.478
89665W        W48761  23.231  37.413   2.822
89666W        W48762  27.032  40.339   2.869
89667W        W48763  27.998  37.001   3.818
89668W        W48764  14.731  16.313   2.857
89669W        W48765  15.689  23.591  12.439
89670W        W48766  12.722  40.482   3.259
89671W        W48767  18.788   5.385   3.297
89672W        W48768  42.348  38.845  14.846
89673W        W48769  37.555  10.379   3.364
89674W        W48770   8.711   7.258   0.283
89675W        W48771  28.113  30.928  13.333
89676W        W48772  39.330  32.057  14.475
89677W        W48773  18.176   5.906  14.890
89678W        W48774   7.233  37.034  13.325
89679W        W48775   8.169  19.681   0.945
89680W        W48776  13.599   3.219   3.663
89681W        W48777  37.866   9.326   5.662
89682W        W48778  14.093  43.927  12.030
89683W        W48779  35.883  25.974  14.454
89684W        W48780  41.837  25.585  11.083
89685W        W48781  23.640  44.009   0.484
89686W        W48782  43.463  22.540   3.661
89687W        W48783  33.883  28.145  10.511
89688W        W48784  30.656  17.256   3.808
89689W        W48785   2.423  17.782   1.811
89690W        W48786   3.727  33.967   4.781
89691W        W48787  34.519  19.083   4.784
89692W        W48788  21.162  36.044   1.295
89693W        W48789  21.747  37.460   4.662
89694W        W48790  36.359   0.757   1.826
89695W        W48791  44.297  28.057  11.564
89696W        W48792  38.022  28.618   2.274
89697W        W48793  42.929  34.433  11.489
89698W        W48794  28.570  16.298   0.401
89699W        W48795  19.747  41.952   5.186
89700W        W48796  27.131   5.695  12.391
89701W        W48797   0.768  15.733   3.191
89702W        W48798  29.974  10.637   4.835
89703W        W48799   0.796  35.035   3.157
89704W        W48800  14.687   6.825   1.271
89705W        W48801   5.308   5.370   3.149
89706W        W48802  34.886  23.172   2.741
89707W        W48803  33.991  25.136   3.201
89708W        W48804   3.839   3.869  12.436
89709W        W48805  19.707  37.484  10.573
89710W        W48806  27.090  17.253  11.027
89711W        W48807   6.366   3.914  10.441
89712W        W48808   6.799  31.623  14.023
89713W        W48809  23.169  24.047  12.942
89714W        W48810  30.562  31.574   1.243
89715W        W48811  22.035  15.693   4.745
89716W        W48812  29.929  34.989  12.426
89717W        W48813  27.473  32.538  13.850
89718W        W48814  44.978  44.402   3.213
89719W        W48815   5.810   8.403   1.894
89720W        W48816  13.732  30.574  14.924
89721W        W48817  35.910  14.305   2.787
89722W        W48818  15.282  26.479   0.830
89723W        W48819   5.791  16.698  12.933
89724W        W48820  28.602  21.072  14.371
89725W        W48821  33.452  43.408  10.982
89726W        W48822   0.983  17.177  14.764
89727W        W48823   1.868  41.307  13.315
89728W        W48824  43.940  18.556  11.478
89729W        W48825  44.984  23.514   2.776
89730W        W48826  15.713  28.487  14.420
89731W        W48827   2.232   9.851  13.455
89732W        W48828  13.806  13.685  11.587
89733W        W48829  25.515  33.594  14.778
89734W        W48830  41.426   8.708   2.761
89735W        W48831  29.428  31.017  12.532
89736W        W48832   0.489  42.513  10.433
89737W        W48833  12.190  28.008   5.157
89738W        W48834  31.503  27.979   4.260
89739W        W48835  25.963  33.425   5.759
89740W        W48836  27.979  43.871  13.798
89741W        W48837  38.030  24.707   3.196
89742W        W48838  33.881   4.355  11.059
89743W        W48839  38.865  30.626   0.759
89744W        W48840  26.083  29.980   3.854
89745W        W48841  25.523  32.934  14.791
89746W        W48842  38.459   4.314   0.323
89747W        W48843  31.138  39.535  10.474
89748W        W48844  11.288  41.297   0.270
89749W        W48845  43.842  26.147  12.544
89750W        W48846  44.438  18.238  13.541
89751W        W48847  32.986  18.263  13.032
89752W        W48848   9.845  19.603  14.909
89753W        W48849  44.965  15.666  14.804
89754W        W48850  40.360   2.334   1.872
89755W        W48851  19.650  21.526   3.788
89756W        W48852  38.525   6.893   9.506
89757W        W48853  36.894  11.809   2.235
89758W        W48854  28.566  12.246   2.754
89759W        W48855  15.814  32.524  12.839
89760W        W48856  25.055  44.295   1.889
89761W        W48857  38.838  42.410   0.764
89762W        W48858   2.798  36.487   0.901
89763W        W48859  42.313  13.304  11.928
89764W        W48860  23.212   5.389  10.621
89765W        W48861  43.512  39.973  13.470
89766W        W48862  28.645  41.502   1.284
89767W        W48863  42.802   5.238  11.126
89768W        W48864   4.441  14.715   3.346
89769W        W48865  44.960  17.799  13.420
89770W        W48866  35.856  30.019  14.002
89771W        W48867  38.912  34.392  14.516
89772W        W48868  44.415  21.157   1.775
89773W        W48869  27.467  43.339  10.640
89774W        W48870  11.256  12.261   2.817
89775W        W48871  26.000  21.570   1.240
89776W        W48872  43.011  20.082   5.217
89777W        W48873  17.713  10.872  12.975
89778W        W48874   0.895  14.232  11.594
89779W        W48875  11.634  44.787  11.488
89780W        W48876  27.124  23.217  11.082
89781W        W48877  41.011  43.412   1.701
89782W        W48878  39.828   9.821  10.571
89783W        W48879  31.138   3.380  12.062
89784W        W48880  39.951  21.187  13.309
89785W        W48881  39.812   4.909  14.891
89786W        W48882  11.369  36.033   1.409
89787W        W48883  22.582   6.745   4.664
89788W        W48884   3.216  16.255   1.345
89789W        W48885  38.327  30.439  13.809
89790W        W48886  37.449  23.724   0.339
89791W        W48887   6.393  44.346  14.878
89792W        W48888  20.265  23.231   2.359
89793W        W48889  35.876  12.617   4.181
89794W        W48890  37.471   1.310  10.463
89795W        W48891  23.563   7.718  14.982
89796W        W48892  36.557   9.336   1.211
89797W        W48893  36.923  18.631   1.290
89798W        W48894  32.085   0.910  10.476
89799W        W48895   8.693  38.450  10.550
89800W        W48896  35.383  14.747  13.498
89801W        W48897   6.737  31.509  14.422
89802W        W48898   4.424  23.184   4.127
89803W        W48899  40.345  35.584  11.886
89804W        W48900  15.183  14.659  14.445
89805W        W48901  44.994  19.216   1.850
89806W        W48902  20.640  41.296   0.358
89807W        W48903   3.846  43.903  10.486
89808W        W48904  17.301  42.842   3.310
89809W        W48905  41.990  30.097  11.476
89810W        W48906  17.306  33.072  11.072
89811W        W48907  15.650  22.649   3.241
89812W        W48908  36.457  24.140  11.934
89813W        W48909  23.499  17.111  14.990
89814W        W48910  16.659  19.774   0.895
89815W        W48911  31.491   0.385   1.400
89816W        W48912  30.414  27.162   4.170
89817W        W48913  39.857   7.851  14.392
89818W        W48914  13.828  17.765  11.600
89819W        W48915  21.757   2.941   1.731
89820W        W48916   0.249  32.421  11.061
89821W        W48917   8.724   4.212  14.888
89822W        W48918  14.334  28.139  14.860
89823W        W48919  20.274  30.569  13.930
89824W        W48920  25.977  14.246   3.772
89825W        W48921  13.644  18.174   4.210
89826W        W48922  25.997  31.094  10.520
89827W        W48923  17.669   6.803   0.783
89828W        W48924  38.032  33.029   1.754
89829W        W48925  36.448   2.470  14.867
89830W        W48926  28.936  37.518   5.565
89831W        W48927  17.227  24.569   4.654
89832W        W48928   9.385  16.746   3.792
89833W        W48929   6.696  14.180   1.890
89834W        W48930   0.851  35.534  14.493
89835W        W48931  27.068   0.828  10.562
89836W        W48932  44.279  23.051   1.910
89837W        W48933  19.172  18.600  12.555
89838W        W48934  38.501  32.105  13.060
89839W        W48935  36.529   4.826   0.910
89840W        W48936   3.329  40.546   0.321
89841W        W48937   4.822  34.880  11.479
89842W        W48938   8.776  33.981   0.426
89843W        W48939  22.683  13.752   4.191
89844W        W48940   8.878   2.944  14.991
89845W        W48941   8.873  43.390   3.641
89846W        W48942   8.840  44.402  14.017
89847W        W48943  33.588  19.167   0.894
89848W        W48944  41.960  38.956   0.778
89849W        W48945  34.522   2.835  13.009
89850W        W48946   4.792  38.366  12.880
89851W        W48947  14.308  30.125  12.415
89852W        W48948  31.620  37.361   2.258
89853W        W48949   9.355  32.973  10.528
89854W        W48950  43.787  37.406   0.310
89855W        W48951  42.525  42.464  14.980
89856W        W48952  23.638  40.943  14.412
89857W        W48953  25.102  40.488   0.856
89858W        W48954  18.711  21.030   4.680
89859W        W48955  11.816  28.093   0.369
89860W        W48956  32.408   7.325   3.787
89861W        W48957  32.478  13.244   2.240
89862W        W48958  14.809  14.171  14.892
89863W        W48959  43.791  10.357   2.206
89864W        W48960  30.623   8.269   1.750
89865W        W48961  12.739  19.556   3.710
89866W        W48962  23.501  27.995   0.394
89867W        W48963  38.435  12.256   9.940
89868W        W48964  31.013   2.440  12.368
89869W        W48965  27.598  39.054   0.730
89870W        W48966   9.178  18.591  10.624
89871W        W48967  35.043  28.601  14.418
89872W        W48968  11.685  17.566  12.088
89873W        W48969  17.075  18.059   3.709
89874W        W48970  33.882  20.207  13.399
89875W        W48971   4.731   1.822  12.041
89876W        W48972   3.359  30.911   0.945
89877W        W48973  27.505  17.066   3.300
89878W        W48974  34.905   8.391   2.320
89879W        W48975  23.604  13.761  14.803
89880W        W48976  17.575  23.663  11.874
89881W        W48977  41.945  26.148  10.969
89882W        W48978  23.713   4.856  13.837
89883W        W48979   1.922  44.481  11.078
89884W        W48980  35.070   4.928  12.920
89885W        W48981  27.072  19.691  14.765
89886W        W48982  26.090  24.549   1.236
89887W        W48983   7.407  28.651  14.506
89888W        W48984  39.433  35.046   3.845
89889W        W48985  35.534  22.118   1.224
89890W        W48986  32.596  22.742   0.735
89891W        W48987  16.220  29.517  12.354
89892W        W48988  19.062  25.993  14.953
89893W        W48989  21.549  27.017   0.303
89894W        W48990   6.844  29.928  11.447
89895W        W48991  21.202  35.467  13.886
89896W        W48992   2.846  19.133   3.808
89897W        W48993   8.346  30.097   4.733
89898W        W48994  25.175  19.670  12.459
89899W        W48995  41.293  29.967   0.799
89900W        W48996  28.538  33.987  12.501
89901W        W48997  33.458   6.865  11.905
89902W        W48998  44.833   7.713   0.387
89903W        W48999  21.734  19.059   3.280
89904W        W49000  44.288   9.188  10.415
89905W        W49001  27.040  12.126   4.275
89906W        W49002  27.588  39.370   0.869
89907W        W49003  30.971  22.252  12.898
89908W        W49004  14.169  27.519   2.301
89909W        W49005  34.551  33.049   4.699
89910W        W49006   9.194   5.890  14.869
89911W        W49007  22.591   8.739  13.493
89912W        W49008  18.267  12.308  11.861
89913W        W49009  15.149  41.988   0.353
89914W        W49010   5.404  44.828  13.375
89915W        W49011  32.982  38.461  14.430
89916W        W49012  27.170  22.082  12.457
89917W        W49013  34.369  43.005  13.793
89918W        W49014  42.510  14.251   2.199
89919W        W49015  11.724   3.398  12.388
89920W        W49016  43.935  14.244   4.606
89921W        W49017  23.236  40.530  14.810
89922W        W49018  37.578  31.434  12.034
89923W        W49019  26.630   3.757  12.490
89924W        W49020   6.238  34.411  14.024
89925W        W49021  36.943  41.334   4.608
89926W        W49022   7.306  31.113   4.246
89927W        W49023  44.341  22.109   2.178
89928W        W49024  41.469  34.538   2.727
89929W        W49025  11.670  35.910  12.906
89930W        W49026  22.738  32.509  13.356
89931W        W49027  41.378  40.857   4.751
89932W        W49028  29.560  23.663  12.555
89933W        W49029  33.068  35.561   0.835
89934W        W49030  26.022  14.267  10.433
89935W        W49031  19.199  36.354  12.369
89936W        W49032  44.286  12.321   2.401
89937W        W49033   8.740  38.554   2.678
89938W        W49034   5.346   4.923   2.805
89939W        W49035  16.599  15.652  12.535
89940W        W49036  12.782  30.548   3.298
89941W        W49037  36.929  37.398   0.961
89942W        W49038   9.343  32.544  10.469
89943W        W49039  43.304  12.138   4.621
89944W        W49040  11.784  33.395  10.142
89945W        W49041   0.346   3.456  12.939
89946W        W49042  37.996  42.916   0.477
89947W        W49043  19.041  30.974  12.574
89948W        W49044  20.127  26.076   1.828
89949W        W49045  38.445  19.119  12.066
89950W        W49046  40.541  20.567  13.457
89951W        W49047   9.344  15.285  12.876
89952W        W49048  30.079  24.983   9.670
89953W        W49049  41.824  14.264   1.904
89954W        W49050  40.047   4.815  10.607
89955W        W49051  14.323  13.277   0.333
89956W        W49052  31.530   5.723  11.932
89957W        W49053  19.256  17.209  14.982
89958W        W49054  17.083   7.202   0.409
89959W        W49055  38.509  29.620   1.803
89960W        W49056   2.338  17.167  13.395
89961W        W49057  11.758  43.502  13.493
89962W        W49058  23.201  23.502   4.700
89963W        W49059  26.096  28.578  12.972
89964W        W49060  27.572   6.730  13.935
89965W        W49061  10.838  27.093  12.882
89966W        W49062  35.531  12.340   0.316
89967W        W49063  17.697  38.537   1.933
89968W        W49064  36.927  12.843  10.947
89969W        W49065  14.241   7.681  12.363
89970W        W49066  17.769  31.936   0.888
89971W        W49067  39.347  41.862  14.852
89972W        W49068  20.749  32.075   1.236
89973W        W49069  24.573  34.436  14.459
89974W        W49070  24.630  43.290  14.029
89975W        W49071  24.102  42.520  14.025
89976W        W49072  39.811  38.458  12.087
89977W        W49073  17.180  38.381  14.769
89978W        W49074  26.547  41.883   0.465
89979W        W49075  14.715  18.561  10.128
89980W        W49076  14.177  35.494   4.679
89981W        W49077  19.608  27.142   0.474
89982W        W49078  36.052   1.466   0.321
89983W        W49079   2.911   0.742   0.472
89984W        W49080  29.136   0.849   0.825
89985W        W49081  15.302  24.037   0.317
89986W        W49082  39.925  13.351   1.251
89987W        W49083  35.391   4.797   4.821
89988W        W49084  40.921   0.312   1.278
89989W        W49085   6.895  43.981   4.331
89990W        W49086  13.313  30.083   3.177
89991W        W49087  29.108  19.658   0.400
89992W        W49088  24.712  24.978  12.902
89993W        W49089   6.721  42.332   0.253
89994W        W49090  39.935  43.350   1.762
89995W        W49091  17.161  38.064  10.484
89996W        W49092  39.538  24.099   2.186
89997W        W49093  25.638  11.690   2.902
89998W        W49094  35.438  39.999   1.730
89999W        W49095  10.168  35.872  10.102
90000W        W49096  40.480  39.525   4.153
90001W        W49097  36.504   6.744   0.388
90002W        W49098  16.076   4.347  13.947
90003W        W49099  15.207  42.491   0.394
90004W        W49100  18.681   7.268  14.815
90005W        W49101  35.956   6.220   0.914
90006W        W49102  44.356  24.665  12.955
90007W        W49103  11.682  34.077   1.303
90008W        W49104  12.299   4.334   4.810
90009W        W49105   8.298  14.307   1.424
90010W        W49106  14.130  33.904  11.072
90011W        W49107  21.528  36.502  11.034
90012W        W49108  19.575  33.517   4.673
90013W        W49109  26.558  33.879  11.483
90014W        W49110  31.080   7.365   2.411
90015W        W49111  38.067   2.771   4.631
90016W        W49112  33.127  25.537  13.360
90017W        W49113  13.269  29.136   1.809
90018W        W49114   5.792   9.781   2.287
90019W        W49115  13.175   7.355  12.559
90020W        W49116   0.968  15.215  11.377
90021W        W49117  38.963  16.752  13.058
90022W        W49118   1.271  36.013  12.480
90023W        W49119   4.755  43.513   3.836
90024W        W49120  16.169   9.149   4.635
90025W        W49121   2.295  31.513  11.578
90026W        W49122  11.219  44.272  12.077
90027W        W49123  14.774  12.856   3.685
90028W        W49124  43.999  28.453   3.369
90029W        W49125  14.643  19.712   2.339
90030W        W49126  41.513  15.210  11.897
90031W        W49127  14.610  38.915   2.820
90032W        W49128  25.566  15.630  14.458
90033W        W49129  14.338  11.722  13.541
90034W        W49130   7.811   7.889   2.276
90035W        W49131  32.461  34.600   3.672
90036W        W49132  23.134  37.520   0.959
90037W        W49133   2.812  13.163   1.377
90038W        W49134  11.684  22.686  10.071
90039W        W49135  13.769   4.369  14.820
90040W        W49136  27.527  36.404  13.474
90041W        W49137  24.622  36.976  13.857
90042W        W49138  39.320  41.485   4.333
90043W        W49139   0.963  18.786   0.360
90044W        W49140  40.037   7.733  12.049
90045W        W49141   2.966  43.871   1.291
90046W        W49142   5.384  36.910   2.799
90047W        W49143  16.598  40.961  14.451
90048W        W49144  42.378  25.129   2.741
90049W        W49145  32.091   6.829   2.760
90050W        W49146  35.887  36.998   0.962
90051W        W49147   0.283   7.354   0.302
90052W        W49148  36.029  24.206   2.830
90053W        W49149  11.693   3.717   4.213
90054W        W49150   6.918  17.633  11.088
90055W        W49151  21.131  33.123  11.454
90056W        W49152   1.271  15.789  13.026
90057W        W49153  39.846  15.650   4.716
90058W        W49154   0.307   3.855   2.859
90059W        W49155  28.959  38.372   4.346
90060W        W49156  20.078  17.637   0.337
90061W        W49157  39.337  20.627  10.968
90062W        W49158  29.635   2.416   0.267
90063W        W49159  42.888  29.644   1.281
90064W        W49160   8.335  21.136  11.935
90065W        W49161  20.177  29.142   3.720
90066W        W49162  13.295   3.389  10.152
90067W        W49163  11.630  10.346  12.832
90068W        W49164  12.322  26.995   0.733
90069W        W49165  34.910   3.945  12.362
90070W        W49166  15.130  32.035   1.925
90071W        W49167   5.241  12.123  13.401
90072W        W49168  25.082  26.036  13.016
90073W        W49169  23.556   9.163  12.516
90074W        W49170  39.919  10.149   3.226
90075W        W49171  23.021  43.461   1.702
90076W        W49172  20.700  21.103   2.310
90077W        W49173   4.322  26.038  14.369
90078W        W49174  11.857   3.456   3.727
90079W        W49175  20.235  21.618   2.339
90080W        W49176  34.523  10.207  12.492
90081W        W49177  41.796  30.600   3.266
90082W        W49178  19.665  30.493  11.113
90083W        W49179  41.886   7.897  14.486
90084W        W49180   6.727  12.847   3.720
90085W        W49181  19.221   5.276  13.442
90086W        W49182  17.211  19.206   1.382
90087W        W49183  16.317  33.017   3.866
90088W        W49184  42.975   5.344  12.578
90089W        W49185   1.819  43.913   4.354
90090W        W49186  32.577  20.191  14.821
90091W        W49187  44.855  40.852  13.484
90092W        W49188  23.196  43.994   2.292
90093W        W49189  34.887  12.836   3.381
90094W        W49190   3.804  40.529  14.883
90095W        W49191  11.290  28.549  13.858
90096W        W49192  13.317  23.116  10.449
90097W        W49193  19.552  18.705   3.167
90098W        W49194  43.920  33.010   0.352
90099W        W49195   1.852  14.195   4.119
90100W        W49196   7.307  27.119   4.331
90101W        W49197  41.886  43.802  10.508
90102W        W49198  20.247  28.180  13.909
90103W        W49199  39.530  29.579  12.960
90104W        W49200  43.279  19.276  11.471
90105W        W49201  41.033  15.683   3.184
90106W        W49202  34.381  32.634   2.281
90107W        W49203  24.094  34.456   2.252
90108W        W49204   9.672  18.237  13.391
90109W        W49205   9.393   7.791   4.178
90110W        W49206  14.187   2.389   1.867
90111W        W49207  20.686  23.044  12.539
90112W        W49208   6.678  11.307  13.930
90113W        W49209  37.945  38.912   3.739
90114W        W49210  16.254   3.458   3.234
90115W        W49211  43.468  27.675   1.745
90116W        W49212   8.861   1.482  14.001
90117W        W49213  37.465  29.613  12.935
90118W        W49214   5.361  23.203   3.695
90119W        W49215   7.695  21.025  14.442
90120W        W49216  30.532  17.122   2.195
90121W        W49217  28.516  44.299   0.413
90122W        W49218   5.862  26.484   2.668
90123W        W49219   8.879   1.414  12.878
90124W        W49220  35.548   1.878  11.457
90125W        W49221  25.129   0.863  10.612
90126W        W49222  37.347  43.992   0.462
90127W        W49223  12.803  15.716   1.880
90128W        W49224  16.627  24.607   4.156
90129W        W49225  38.946   7.194   3.248
90130W        W49226  12.631   0.961  14.851
90131W        W49227  21.052  35.552   1.694
90132W        W49228  31.910  18.557  10.109
90133W        W49229  38.557  34.016   1.777
90134W        W49230  14.764  44.891   3.733
90135W        W49231  37.893  15.779   0.761
90136W        W49232  44.825  32.550   2.692
90137W        W49233  43.005  30.488  10.991
90138W        W49234  32.557   3.833  11.872
90139W        W49235   1.963   2.937  13.395
90140W        W49236  22.724  29.478   1.445
90141W        W49237  28.606   0.361   3.811
90142W        W49238  26.560  12.720   0.461
90143W        W49239  12.696  20.646   3.372
90144W        W49240  35.369  42.317   1.782
90145W        W49241  30.038   9.752   2.724
90146W        W49242  27.035  42.470  13.801
90147W        W49243  16.586  40.943  13.839
90148W        W49244   3.772  37.547  10.452
90149W        W49245  19.632  38.566   0.910
90150W        W49246  34.057   2.420  14.998
90151W        W49247  40.964   0.975   1.310
90152W        W49248  11.828  14.229  11.873
90153W        W49249   8.355   2.422  11.091
90154W        W49250  15.606  39.885  12.935
90155W        W49251  16.215   3.434  14.923
90156W        W49252  30.108  11.739   1.757
90157W        W49253   8.182  17.796   1.245
90158W        W49254   4.360  22.236   1.285
90159W        W49255  32.115  17.794  12.868
90160W        W49256  29.985  33.068  14.372
90161W        W49257  40.363  19.757   3.165
90162W        W49258   0.922  11.669  12.936
90163W        W49259   4.416  39.831  11.937
90164W        W49260  30.997  28.157   1.339
90165W        W49261  12.355  42.416  13.383
90166W        W49262  20.272  31.108  11.869
90167W        W49263  16.747  12.326  12.001
90168W        W49264  11.732   7.282  10.995
90169W        W49265  41.400   6.357   4.764
90170W        W49266  22.615  18.587   0.940
90171W        W49267  28.599  29.082   0.382
90172W        W49268   0.978  12.752  14.308
90173W        W49269  37.956  10.787  13.521
90174W        W49270   3.930  31.928  12.936
90175W        W49271  17.289  27.140  13.433
90176W        W49272  25.163  23.732   4.704
90177W        W49273   1.417  43.016   3.693
90178W        W49274  30.554  34.001  14.844
90179W        W49275  41.333  43.882   0.740
90180W        W49276  33.067  43.916  13.934
90181W        W49277  24.085  22.556   2.250
90182W        W49278  18.248  10.233   4.181
90183W        W49279  16.130  32.066  14.337
90184W        W49280  30.910  33.492  10.023
90185W        W49281   7.824  24.659  13.943
90186W        W49282  27.602  25.505   2.712
90187W        W49283  33.596  37.484   3.819
90188W        W49284  20.550  32.530  12.358
90189W        W49285   0.891  29.956   2.185
90190W        W49286  24.578  33.498   0.816
90191W        W49287   0.339  33.426   3.386
90192W        W49288  26.032  10.735   2.293
90193W        W49289  16.158  31.008   3.714
90194W        W49290   5.348  36.059  12.998
90195W        W49291  31.151   6.189   0.353
90196W        W49292  17.582  30.420  12.916
90197W        W49293  24.135   7.778  13.895
90198W        W49294  25.689  18.774   5.087
90199W        W49295  18.584  37.966   2.295
90200W        W49296  37.866  28.614   0.476
90201W        W49297  37.967   4.255  11.446
90202W        W49298  37.581  42.394   3.173
90203W        W49299  21.042  20.644  11.378
90204W        W49300  36.955   5.836   3.173
90205W        W49301  44.405  31.069  13.803
90206W        W49302  26.580  16.122   4.176
90207W        W49303  41.460   4.412  13.801
90208W        W49304  31.083   3.236   4.615
90209W        W49305  16.724   0.355   0.805
90210W        W49306  36.508   2.831  14.971
90211W        W49307  43.477  27.985  14.989
90212W        W49308  25.150  41.366  14.374
90213W        W49309  32.123  10.302   0.308
90214W        W49310  31.929  14.156  14.334
90215W        W49311  11.808  21.127   4.203
90216W        W49312  21.141  23.995  11.478
90217W        W49313  40.422  37.342   0.294
90218W        W49314  22.237   0.405  14.399
90219W        W49315  35.363  19.661   0.472
90220W        W49316  26.509  41.972  13.931
90221W        W49317  29.993  43.385  13.881
90222W        W49318  26.061  43.492   3.290
90223W        W49319   2.934  19.657  12.437
90224W        W49320  36.411  19.277  12.468
90225W        W49321  14.095  15.612   1.826
90226W        W49322  14.161  12.251   4.734
90227W        W49323  24.601  36.461  14.316
90228W        W49324  36.564   1.354  13.464
90229W        W49325   3.404  18.297  14.464
90230W        W49326  22.659  34.591   0.251
90231W        W49327  31.934  16.123   2.847
90232W        W49328  33.611  27.650   4.670
90233W        W49329  38.494  15.315  10.939
90234W        W49330  17.132  26.507  14.343
90235W        W49331   1.778   2.942  10.498
90236W        W49332  44.370   6.774  13.063
90237W        W49333   2.234  12.221   4.216
90238W        W49334  36.586   1.392  10.577
90239W        W49335   7.758  20.135   2.205
90240W        W49336  39.467  36.955   0.255
90241W        W49337  23.176  11.188  11.605
90242W        W49338  39.809  18.774   1.427
90243W        W49339  32.487  27.150   3.319
90244W        W49340   5.343   2.843   0.424
90245W        W49341   5.918  10.372   1.222
90246W        W49342  29.154  31.054  14.353
90247W        W49343  38.993  12.133   0.842
90248W        W49344  19.244  32.921  12.578
90249W        W49345  21.593  14.737  11.049
90250W        W49346  31.453   9.731   1.737
90251W        W49347  29.143  12.789   1.906
90252W        W49348  17.217   1.822   1.340
90253W        W49349  35.995  37.994  14.018
90254W        W49350  22.166   5.415  14.451
90255W        W49351  10.319  17.204   1.752
90256W        W49352  30.072  29.144  13.362
90257W        W49353  29.529  28.008   0.469
90258W        W49354  23.168  39.430   1.277
90259W        W49355  17.567  16.275  13.873
90260W        W49356  12.760  22.240   4.747
90261W        W49357  27.503  29.442  10.412
90262W        W49358  29.615  28.073   1.908
90263W        W49359  38.557  28.103   4.119
90264W        W49360  31.106  36.072  11.406
90265W        W49361  28.051   4.411  13.801
90266W        W49362  35.024  30.959  14.394
90267W        W49363  43.343  19.625   1.415
90268W        W49364  26.469  22.627   0.816
90269W        W49365  34.055  10.639  13.890
90270W        W49366  41.918  21.137   0.349
90271W        W49367  43.476  44.969   0.383
90272W        W49368   4.225  36.854   3.282
90273W        W49369  30.919  20.154   3.827
90274W        W49370  14.813  43.020   0.918
90275W        W49371  29.093  15.316   3.209
90276W        W49372  43.895  37.424  10.632
90277W        W49373   3.225  34.562   2.871
90278W        W49374  27.611  17.747  13.345
90279W        W49375  24.112  31.105  10.454
90280W        W49376  23.086   3.833   2.869
90281W        W49377  27.647  40.911  14.944
90282W        W49378  39.835  18.141  11.105
90283W        W49379   7.864  10.377   0.910
90284W        W49380  28.496  25.090  12.416
90285W        W49381  36.094  21.140  10.024
90286W        W49382  41.900  20.034  11.418
90287W        W49383  37.834  12.726  14.943
90288W        W49384  11.835  34.072   4.167
90289W        W49385   3.398   1.748   3.814
90290W        W49386  34.422  27.196   3.736
90291W        W49387   2.848  33.605  13.980
90292W        W49388   9.778  19.172   1.375
90293W        W49389  18.671  21.086  11.412
90294W        W49390  11.753  15.585  13.880
90295W        W49391   8.211  38.356   2.286
90296W        W49392  15.089  35.433   4.703
90297W        W49393  31.120  25.537  10.529
90298W        W49394  24.070  27.626   0.369
90299W        W49395  26.150   2.236  11.957
90300W        W49396   2.901  27.527  10.913
90301W        W49397  14.794  44.967  12.531
90302W        W49398  28.555  27.473   2.378
90303W        W49399  25.616   6.721  10.895
90304W        W49400   1.296  43.343   1.282
90305W        W49401  29.144   7.896   3.838
90306W        W49402  36.845  43.780   2.385
90307W        W49403  27.650  25.470  10.433
90308W        W49404  21.615   6.394   5.173
90309W        W49405  11.771  35.433  12.383
90310W        W49406  38.845   4.269  13.902
90311W        W49407  40.471  28.129   0.322
90312W        W49408   1.810   7.893   0.459
90313W        W49409  10.730  19.238   2.678
90314W        W49410  43.808  14.694  11.078
90315W        W49411  34.882  43.297  12.392
90316W        W49412  44.314   2.916   3.816
90317W        W49413  43.446   2.409   4.258
90318W        W49414  19.120  23.182  14.905
90319W        W49415  44.934  36.579  11.530
90320W        W49416  40.951  21.184  10.625
90321W        W49417  32.011  34.114   4.286
90322W        W49418  21.748  35.999   0.332
90323W        W49419  12.623   5.713   0.476
90324W        W49420   7.895  31.081   4.736
90325W        W49421  44.824  29.622   2.757
90326W        W49422   9.769  38.971   0.316
90327W        W49423   2.463  43.501  10.631
90328W        W49424  35.480  33.893   1.733
90329W        W49425  22.724  31.504  11.908
90330W        W49426   9.166  28.677  13.983
90331W        W49427   9.870  31.945   0.466
90332W        W49428  28.999   1.281  11.487
90333W        W49429  19.080  25.211   2.267
90334W        W49430  29.035  29.038   0.793
90335W        W49431   0.898   5.223   3.704
90336W        W49432   2.965  26.064   1.915
90337W        W49433   9.816  29.086   1.256
90338W        W49434  15.298  25.669  13.515
90339W        W49435   5.429  21.567  10.032
90340W        W49436  13.348  11.272  11.384
90341W        W49437  18.282  15.721   0.263
90342W        W49438  20.047  28.038   0.853
90343W        W49439   9.820  13.129   4.761
90344W        W49440  12.645  41.496  14.280
90345W        W49441   7.722  15.724  12.479
90346W        W49442   6.404  23.557   0.861
90347W        W49443  35.563  27.559  10.537
90348W        W49444   3.784  42.305   0.866
90349W        W49445  15.606  31.094   2.223
90350W        W49446  28.976  13.161  13.014
90351W        W49447  29.041  44.904  14.431
90352W        W49448  10.850  11.631   3.192
90353W        W49449  15.811  43.394  11.534
90354W        W49450   9.661  41.805  13.314
90355W        W49451  35.957  11.207  11.539
90356W        W49452  36.352   5.372   1.299
90357W        W49453   6.297   8.739   3.789
90358W        W49454  10.282  30.025   1.225
90359W        W49455  25.081   3.335   0.729
90360W        W49456  42.339  41.363  13.492
90361W        W49457  18.761  40.366   4.650
90362W        W49458  15.128  37.474  10.032
90363W        W49459  31.622  43.424   1.333
90364W        W49460  35.519  44.793   3.261
90365W        W49461   0.827   6.199  13.023
90366W        W49462  23.985  31.567   4.611
90367W        W49463  37.349  42.010  11.087
90368W        W49464   9.669  12.123  11.519
90369W        W49465  29.591  42.920  14.486
90370W        W49466  29.960  26.549  12.892
90371W        W49467  20.227  32.550  13.042
90372W        W49468   1.312  13.125  14.904
90373W        W49469  36.500  39.324  14.861
90374W        W49470  29.114  32.527   2.831
90375W        W49471   4.416  39.369   0.807
90376W        W49472  24.072  29.613   2.228
90377W        W49473   6.428  30.582   4.136
90378W        W49474   1.471  26.622   1.302
90379W        W49475  33.016  19.056  10.895
90380W        W49476  36.457   3.801  13.020
90381W        W49477  14.323  37.540  14.935
90382W        W49478   9.307  15.732   3.755
90383W        W49479   4.317  41.355   3.334
90384W        W49480  31.597  41.500  12.414
90385W        W49481  43.500  35.882  13.397
90386W        W49482  34.592   2.929  10.990
90387W        W49483  32.017  12.176  13.945
90388W        W49484  32.910   4.304   4.680
90389W        W49485  33.941   0.253  11.498
90390W        W49486  27.031  12.263  13.376
90391W        W49487  43.862   8.772  12.499
90392W        W49488  27.113  15.171   3.832
90393W        W49489  21.123  42.980  12.087
90394W        W49490  39.393  17.576   0.904
90395W        W49491   1.457   6.194  11.572
90396W        W49492  44.304  11.674   5.272
90397W        W49493  12.643   3.433  14.282
90398W        W49494   4.340  18.598  10.568
90399W        W49495  27.502  11.363  14.855
90400W        W49496  31.154  17.073   3.661
90401W        W49497   3.841  24.585  14.802
90402W        W49498   8.655  35.463   4.313
90403W        W49499  13.844  35.032   2.793
90404W        W49500  41.527  34.420   1.289
90405W        W49501  36.548  25.137   4.598
90406W        W49502  35.032  14.675  14.429
90407W        W49503  16.275  16.587  14.848
90408W        W49504  38.376  34.933  13.946
90409W        W49505  40.048  11.357  10.962
90410W        W49506   7.353   8.818   2.898
90411W        W49507  33.623  16.693   3.687
90412W        W49508  11.250  39.991  10.453
90413W        W49509  16.161   0.794  14.954
90414W        W49510   7.696   1.372   3.271
90415W        W49511  44.380   1.416   0.890
90416W        W49512  15.757  43.339   0.333
90417W        W49513  19.692  12.834   3.326
90418W        W49514  26.623  33.887   3.838
90419W        W49515   6.416  42.849  12.432
90420W        W49516  41.431  43.923  11.925
90421W        W49517  43.896   4.313   2.837
90422W        W49518  30.942  37.048   3.345
90423W        W49519   8.265  28.155  14.338
90424W        W49520   4.276  31.996   2.702
90425W        W49521  29.082  11.855  10.914
90426W        W49522  37.402  18.232   1.288
90427W        W49523  38.399   3.887   3.703
90428W        W49524  42.809  20.192  12.989
90429W        W49525  17.111  28.107  10.025
90430W        W49526  36.021  11.262  13.387
90431W        W49527   3.244  19.162   1.329
90432W        W49528  32.509  41.367  12.987
90433W        W49529  25.584  20.732   4.735
90434W        W49530  36.909  17.728  12.946
90435W        W49531  29.927  33.514   2.693
90436W        W49532  30.520  21.684  12.047
90437W        W49533  42.937  11.661   4.270
90438W        W49534   9.318  40.467   2.879
90439W        W49535  32.592  12.236   2.849
90440W        W49536  11.284   4.317   3.147
90441W        W49537  40.548  14.143  10.929
90442W        W49538  30.531  14.747   4.659
90443W        W49539  33.417  36.981   1.430
90444W        W49540  19.277  31.076  14.783
90445W        W49541  25.634  18.594  10.956
90446W        W49542  38.566  28.045  10.433
90447W        W49543  24.095  24.034   4.348
90448W        W49544  25.555  24.489  13.443
90449W        W49545  25.589   8.792   3.234
90450W        W49546   9.223  40.325  13.507
90451W        W49547  32.629  15.264  14.986
90452W        W49548  41.337  11.146  11.875
90453W        W49549  18.759   0.967   3.799
90454W        W49550  12.203  32.559  14.388
90455W        W49551  42.992   4.349   4.742
90456W        W49552  14.628  15.205   3.779
90457W        W49553  30.003  39.472  12.055
90458W        W49554  27.581  25.002  13.503
90459W        W49555  18.103  16.700   0.308
90460W        W49556  37.458  10.859  10.981
90461W        W49557   4.256   2.930   4.684
90462W        W49558   0.818  16.594   3.705
90463W        W49559  40.942  32.607  12.514
90464W        W49560  20.212   9.159   2.406
90465W        W49561  28.119   3.885   3.318
90466W        W49562  43.334  26.605  12.871
90467W        W49563  43.329   2.383   1.396
90468W        W49564  39.334  44.769   3.215
90469W        W49565  44.503  23.596  14.801
90470W        W49566   5.828  40.906   3.751
90471W        W49567  36.908   0.861  10.419
90472W        W49568  42.936  23.707   3.771
90473W        W49569  21.096  21.063  14.955
90474W        W49570  34.041  32.429  12.909
90475W        W49571  28.179  39.408   4.338
90476W        W49572  18.555  40.401   5.768
90477W        W49573   3.808  16.123  13.062
90478W        W49574   0.793  15.694  12.547
90479W        W49575  24.566  25.074   3.239
90480W        W49576   2.346  24.616  10.644
90481W        W49577  13.350   7.417  10.566
90482W        W49578   6.335  40.040  11.909
90483W        W49579  42.968  32.949  10.576
90484W        W49580  10.849  35.019  14.320
90485W        W49581   6.850  42.907   1.228
90486W        W49582  11.710  31.963   0.745
90487W        W49583  24.692  42.299  11.029
90488W        W49584  27.671  15.669  11.100
90489W        W49585  43.873  19.679  12.078
90490W        W49586  14.229  44.795  13.988
90491W        W49587  26.097  28.997  14.372
90492W        W49588   8.401  15.615   4.621
90493W        W49589  16.725  20.182   4.738
90494W        W49590  35.972   3.358  14.785
90495W        W49591  32.498  21.669  11.433
90496W        W49592  30.629   1.269   4.688
90497W        W49593  22.550  40.527  10.992
90498W        W49594  38.353   6.914   4.805
90499W        W49595  15.679   3.262  12.009
90500W        W49596  44.364  12.330  13.486
90501W        W49597  44.977  25.163  11.545
90502W        W49598  41.848  41.925   4.765
90503W        W49599  10.744  22.059   3.667
90504W        W49600  34.939  37.487  11.979
90505W        W49601  29.524  38.964   0.332
90506W        W49602  27.576   9.774   3.368
90507W        W49603  35.523   5.409  12.984
90508W        W49604   5.798  24.986   0.859
90509W        W49605  27.455   6.687   4.238
90510W        W49606  28.664  31.579   0.896
90511W        W49607   0.821  41.505  11.107
90512W        W49608   1.871  20.662  13.544
90513W        W49609   8.834   0.320   4.790
90514W        W49610   1.238  18.077   1.766
90515W        W49611   3.426  20.220  14.286
90516W        W49612  29.560  27.192   3.342
90517W        W49613   1.303  32.936   4.691
90518W        W49614  33.107  13.614  14.421
90519W        W49615  42.342  33.971   3.644
90520W        W49616  15.773  26.028   3.762
90521W        W49617  31.068  40.345   4.605
90522W        W49618  30.009   9.889   3.824
90523W        W49619  17.119  31.932   0.769
90524W        W49620  18.570  40.945  12.054
90525W        W49621  24.995  11.631  13.809
90526W        W49622   5.236   3.289  14.920
90527W        W49623  44.304  23.010   3.215
90528W        W49624  24.536   4.909  11.388
90529W        W49625  24.117  42.881  11.570
90530W        W49626  33.939   9.220  12.383
90531W        W49627  12.188  36.431  13.421
90532W        W49628  39.961  12.718  14.909
90533W        W49629  32.117  10.874  12.578
90534W        W49630  43.327  14.288   2.673
90535W        W49631   6.896  35.062   1.258
90536W        W49632  13.346  19.637   1.889
90537W        W49633  43.905  10.703  11.017
90538W        W49634  21.589  20.145   4.307
90539W        W49635   2.912   0.321   0.472
90540W        W49636  26.184  38.833  11.609
90541W        W49637  40.934   2.919   1.272
90542W        W49638  10.851  35.360  13.371
90543W        W49639  21.614  18.728  13.488
90544W        W49640  33.131   3.400   1.424
90545W        W49641   1.737  19.147   3.249
90546W        W49642  25.989  17.801  13.940
90547W        W49643  23.506  32.056  14.959
90548W        W49644  17.767  26.509  14.876
90549W        W49645  27.172   4.420  14.514
90550W        W49646  27.025  38.930  12.363
90551W        W49647  15.751  27.499   3.307
90552W        W49648   3.385  41.499   0.726
90553W        W49649  40.466  34.054   4.839
90554W        W49650  42.512  15.823  14.462
90555W        W49651  11.174  42.382   2.402
90556W        W49652   4.855   5.212   1.859
90557W        W49653  26.124  33.605   2.197
90558W        W49654   4.270  33.379  10.522
90559W        W49655  34.537  40.951  10.472
90560W        W49656   0.920   5.270   0.360
90561W        W49657  33.977  26.672  13.933
90562W        W49658  14.147   7.202  12.557
90563W        W49659  15.227  23.048   0.933
90564W        W49660  27.091  19.096  11.540
90565W        W49661   9.241   3.407   5.236
90566W        W49662  22.665  36.960   1.831
90567W        W49663  20.184  14.279  14.878
90568W        W49664  18.587  12.824  11.439
90569W        W49665  44.955  44.840   2.410
90570W        W49666   9.261  25.048  10.003
90571W        W49667   7.700  32.449  14.942
90572W        W49668  35.090  36.958  14.981
90573W        W49669  29.611  26.180   2.345
90574W        W49670  29.049  20.081  11.989
90575W        W49671  38.866  11.237  10.626
90576W        W49672  32.104  18.621  14.508
90577W        W49673  21.162  37.463  13.427
90578W        W49674   2.435  18.164  11.008
90579W        W49675   3.876  17.578   1.870
90580W        W49676  25.191   5.749   2.774
90581W        W49677   9.653  40.871  10.519
90582W        W49678  39.874  41.917  14.327
90583W        W49679   9.835  22.555  12.562
90584W        W49680  19.100  16.685  14.321
90585W        W49681  23.154  38.455  13.914
90586W        W49682  12.698  38.964  14.323
90587W        W49683  10.793   2.930  14.785
90588W        W49684  36.379   2.895   3.152
90589W        W49685  12.766   0.985  13.525
90590W        W49686  10.696  11.136  14.500
90591W        W49687  16.735  41.301  14.919
90592W        W49688  31.571  16.305   3.790
90593W        W49689   4.888   9.705   2.803
90594W        W49690   7.333  11.216   4.312
90595W        W49691  25.056  43.791   2.289
90596W        W49692  20.075  28.029   0.448
90597W        W49693  40.919  15.139  14.414
90598W        W49694  10.210  20.688  11.387
90599W        W49695  21.228  42.372  11.585
90600W        W49696  27.063  40.911  13.540
90601W        W49697   8.320   8.321  11.485
90602W        W49698  28.039  44.333  12.497
90603W        W49699  29.483  15.702   5.281
90604W        W49700  29.101   2.453   2.761
90605W        W49701  39.846   9.200   0.386
90606W        W49702  12.142  16.645   0.482
90607W        W49703   8.720  43.939  14.925
90608W        W49704  22.594  36.536   3.152
90609W        W49705  26.008  15.761   0.381
90610W        W49706  31.054  18.736   4.708
90611W        W49707   0.969  23.212   0.372
90612W        W49708  11.142  26.686  12.499
90613W        W49709  29.477  28.078  10.119
90614W        W49710  39.545  25.677   2.219
90615W        W49711  39.886  16.570   2.214
90616W        W49712  12.300   5.815  10.571
90617W        W49713  30.006  38.411  11.986
90618W        W49714  31.073  11.829   4.797
90619W        W49715  21.019  14.210   1.755
90620W        W49716  35.964  44.861   3.262
90621W        W49717  40.977  43.328  12.482
90622W        W49718  28.005  25.663  10.456
90623W        W49719  44.005  31.518  11.588
90624W        W49720  34.099   0.811   3.316
90625W        W49721  43.445  41.966  11.052
90626W        W49722  39.548  40.799   1.765
90627W        W49723  32.930  33.499   1.918
90628W        W49724  10.159  10.693  13.988
90629W        W49725  28.173  41.411  11.465
90630W        W49726  23.088  39.956  12.864
90631W        W49727   3.366  11.753   2.862
90632W        W49728  17.092  14.699   2.838
90633W        W49729  17.569  40.809   2.185
90634W        W49730  27.000  28.954  10.487
90635W        W49731  40.906  32.102   2.828
90636W        W49732  17.649  41.916  11.038
90637W        W49733   3.439   4.915  10.452
90638W        W49734  20.549  38.372   0.459
90639W        W49735  12.217  33.083   2.352
90640W        W49736   9.232  12.855  10.600
90641W        W49737  28.136  32.391  10.514
90642W        W49738  12.761   8.675  14.368
90643W        W49739  22.191  35.412   1.745
90644W        W49740  41.023   3.900  14.442
90645W        W49741  41.403  11.852  14.365
90646W        W49742   8.394  12.268  11.456
90647W        W49743  28.558  24.531  10.486
90648W        W49744  10.195   2.936   1.238
90649W        W49745   8.754   4.889   3.367
90650W        W49746   2.851  31.971   4.237
90651W        W49747  40.530  12.640   4.807
90652W        W49748  15.679  43.386  11.935
90653W        W49749  25.474  43.896   3.851
90654W        W49750  32.445  34.374  14.763
90655W        W49751   2.888  24.110  11.486
90656W        W49752  21.735  16.179  10.623
90657W        W49753  39.040   5.778  11.028
90658W        W49754  28.056  41.370   4.717
90659W        W49755  29.624  17.125   9.921
90660W        W49756  42.349   1.952   1.444
90661W        W49757   6.816  28.484  11.912
90662W        W49758  30.610  17.245   0.859
90663W        W49759  18.289  31.561  14.406
90664W        W49760   4.870  24.629  14.908
90665W        W49761  42.871  11.690  14.017
90666W        W49762  14.150  31.450   3.857
90667W        W49763  10.707   0.799  10.496
90668W        W49764  30.440   1.365   3.669
90669W        W49765  20.078  23.499   4.716
90670W        W49766  34.466  30.561   2.235
90671W        W49767  36.403  25.123   5.258
90672W        W49768   2.279  29.918   4.835
90673W        W49769  37.933  13.197   1.260
90674W        W49770  22.589  26.496  11.383
90675W        W49771   5.914  15.138   3.852
90676W        W49772   2.844  42.825  12.422
90677W        W49773  24.063  29.520  13.465
90678W        W49774  43.872  44.785  13.318
90679W        W49775  34.406  11.733   4.137
90680W        W49776  15.655  32.982   1.321
90681W        W49777   4.392  39.002  13.974
90682W        W49778  11.260   3.750   2.312
90683W        W49779   9.188   5.438  13.310
90684W        W49780   5.304  32.634  10.624
90685W        W49781  11.283  15.324   4.288
90686W        W49782  12.266   3.715  14.502
90687W        W49783  25.652  34.940   1.442
90688W        W49784  12.792  41.882   1.935
90689W        W49785  32.569  42.926  10.426
90690W        W49786   4.426  25.161   3.366
90691W        W49787   3.330   5.709  11.609
90692W        W49788  15.809   3.431   3.770
90693W        W49789   4.713  28.944  12.985
90694W        W49790  12.282  15.197  14.944
90695W        W49791  11.244  30.961   0.862
90696W        W49792  38.536  35.592  13.977
90697W        W49793   0.797  11.833  11.539
90698W        W49794  41.972   0.764   0.420
90699W        W49795   6.294  33.909  12.008
90700W        W49796  44.930   9.183   2.675
90701W        W49797  39.493  27.171  14.475
90702W        W49798  12.194  35.457  10.514
90703W        W49799  23.039   6.278  13.536
90704W        W49800  40.977   3.761   2.409
90705W        W49801  37.050   2.859  13.367
90706W        W49802   2.753  18.562  13.314
90707W        W49803   3.743  25.620  13.865
90708W        W49804  31.574  31.424   0.300
90709W        W49805  21.256  14.330   2.242
90710W        W49806   4.232  42.873   2.746
90711W        W49807  11.129   5.739   3.807
90712W        W49808  31.010  17.063  13.026
90713W        W49809  11.699  33.626  12.437
90714W        W49810  31.143   0.783  11.611
90715W        W49811  42.849  15.234  10.589
90716W        W49812  31.537  32.488  12.862
90717W        W49813   9.682  38.527   4.687
90718W        W49814  17.300  34.434   3.830
90719W        W49815  22.176  26.995   1.805
90720W        W49816   7.366  32.074   1.365
90721W        W49817  18.664  14.317   5.281
90722W        W49818  31.506  27.048  11.947
90723W        W49819  38.925   6.363  13.461
90724W        W49820  18.137  27.942  13.002
90725W        W49821  36.532  31.560   4.340
90726W        W49822  33.112  21.515   0.896
90727W        W49823  44.363  25.136  11.873
90728W        W49824  36.413  27.493  13.473
90729W        W49825  10.245  27.163   0.928
90730W        W49826  22.578  23.552   5.304
90731W        W49827   2.804  13.772   3.373
90732W        W49828  39.065  19.053  10.969
90733W        W49829  20.256  15.085  11.447
90734W        W49830  24.032  17.149  13.342
90735W        W49831  24.979  18.719  13.524
90736W        W49832  21.263   9.871  10.543
90737W        W49833   1.318  18.572  12.055
90738W        W49834  39.358  24.715   0.850
90739W        W49835  40.536  13.704  13.980
90740W        W49836  19.099  42.518   0.909
90741W        W49837   5.880  18.187  14.322
90742W        W49838  25.691  17.620   2.323
90743W        W49839   3.751  27.541   4.727
90744W        W49840  23.571   6.897   4.280
90745W        W49841   6.798  13.672   0.744
90746W        W49842  29.610  36.034  11.472
90747W        W49843  19.212  39.418  14.496
90748W        W49844   7.782   0.753   0.408
90749W        W49845   0.354  41.989   4.764
90750W        W49846   6.303  18.126  13.372
90751W        W49847  25.130  19.242  14.995
90752W        W49848  23.727   6.199   3.381
90753W        W49849   8.828  41.994  10.942
90754W        W49850   1.763  35.018   4.829
90755W        W49851  43.397  14.609  12.500
90756W        W49852  30.940  34.387  11.908
90757W        W49853  42.517  18.784  13.331
90758W        W49854  44.502  13.677  13.891
90759W        W49855   7.335  41.378   3.235
90760W        W49856  23.704  44.853   2.301
90761W        W49857  32.457  32.937  11.605
90762W        W49858  40.876  17.180  11.094
90763W        W49859  32.503   8.752   3.807
90764W        W49860  35.856   6.195  12.356
90765W        W49861   8.714  34.416   2.229
90766W        W49862   9.328  16.673  11.546
90767W        W49863  21.752  41.935  14.843
90768W        W49864  44.495  34.044  14.291
90769W        W49865  27.136  22.667  13.420
90770W        W49866  14.745  41.408  14.415
90771W        W49867  38.838  27.512   2.323
90772W        W49868   2.938  36.590   4.665
90773W        W49869  15.139   2.764   1.834
90774W        W49870  31.475  43.914   1.283
90775W        W49871  29.610  36.935   1.910
90776W        W49872  36.405   8.291   0.247
90777W        W49873  43.276  33.924   2.366
90778W        W49874  16.768  37.941   5.216
90779W        W49875   0.872   9.211   0.434
90780W        W49876   8.759   6.859   4.278
90781W        W49877   0.826  29.564   0.362
90782W        W49878  32.442  24.130  13.059
90783W        W49879   3.905   1.766   4.131
90784W        W49880  34.501  19.242   2.847
90785W        W49881  44.350   6.699  13.980
90786W        W49882  39.880  37.937  13.062
90787W        W49883  18.626  13.148   1.334
90788W        W49884   0.423   8.676  11.015
90789W        W49885  11.243  37.923  12.480
90790W        W49886  15.726  14.312  12.567
90791W        W49887  36.069   3.371   2.775
90792W        W49888   2.403  25.009  11.421
90793W        W49889  11.149  17.164   3.200
90794W        W49890  11.626  41.476  10.479
90795W        W49891  25.580  14.730  13.531
90796W        W49892   2.281  44.444   1.885
90797W        W49893  39.452  22.125  11.556
90798W        W49894  27.180  14.788  10.614
90799W        W49895  22.585   8.678   0.760
90800W        W49896  10.230  29.553  14.929
90801W        W49897  30.938  42.780  14.784
90802W        W49898  35.096  28.669   3.285
90803W        W49899  33.436  30.413  10.984
90804W        W49900   7.875  10.869   0.425
90805W        W49901  29.473  43.854  12.894
90806W        W49902  32.485  29.475  13.522
90807W        W49903  10.856  33.592   0.810
90808W        W49904  30.939  19.064   2.710
90809W        W49905  35.859  28.577  12.401
90810W        W49906  35.436  43.338  14.430
90811W        W49907  36.417  28.031   4.171
90812W        W49908  37.849  37.880  11.392
90813W        W49909  25.496   8.894  14.377
90814W        W49910   0.940  24.124   1.332
90815W        W49911   1.387  44.780   2.883
90816W        W49912  17.262  29.517   3.205
90817W        W49913  18.199  19.090  11.884
90818W        W49914  35.589  19.772  11.509
90819W        W49915  32.008  21.684   1.814
90820W        W49916  38.410  44.956   4.836
90821W        W49917  42.284   2.438  12.926
90822W        W49918  42.945  36.088   3.375
90823W        W49919  34.590   7.290  14.974
90824W        W49920  38.862  36.094   9.987
90825W        W49921  33.537   4.793   3.803
90826W        W49922  39.361  40.995  13.477
90827W        W49923  44.947   6.244   1.744
90828W        W49924  23.542   8.280   4.622
90829W        W49925  21.171  17.264   0.934
90830W        W49926  26.605  43.476  10.536
90831W        W49927   2.376  21.154   0.443
90832W        W49928   2.264  16.570   2.733
90833W        W49929  41.965  18.620  13.952
90834W        W49930  36.401  20.581   4.746
90835W        W49931  11.757  11.769  14.989
90836W        W49932  13.624   9.250  12.840
90837W        W49933   5.332  16.182  13.051
90838W        W49934   3.845  42.337  13.836
90839W        W49935  36.512  35.900   3.806
90840W        W49936  25.703   9.196  10.419
90841W        W49937  32.631  30.109  11.449
90842W        W49938  38.890  37.931   0.294
90843W        W49939  35.388  36.001   0.817
90844W        W49940  27.536  20.240  13.856
90845W        W49941  38.538  32.622  12.382
90846W        W49942  39.534   3.883  11.056
90847W        W49943   9.177  19.744   2.377
90848W        W49944  25.632  44.359  10.624
90849W        W49945  15.649  27.111  12.092
90850W        W49946   5.748  33.443   4.266
90851W        W49947  33.548  13.745  10.505
90852W        W49948  18.127  25.203   4.234
90853W        W49949  31.601  30.022  11.586
90854W        W49950  14.792  42.369  11.474
90855W        W49951  21.088  43.913  13.487
90856W        W49952  39.009   7.777   2.751
90857W        W49953  26.657  10.321   2.345
90858W        W49954  13.764  35.884  13.399
90859W        W49955  22.162  20.211  12.024
90860W        W49956  38.961  26.683  12.870
90861W        W49957  23.123   4.834  14.844
90862W        W49958  31.967  23.557   3.192
90863W        W49959  24.018  10.727   2.669
90864W        W49960   0.754   0.755   1.852
90865W        W49961  18.547   0.780   1.370
90866W        W49962  19.607  31.908   1.427
90867W        W49963  17.182  40.326   1.874
90868W        W49964   7.336  32.954  11.055
90869W        W49965  24.669  13.246   0.279
90870W        W49966  32.636  26.532  14.291
90871W        W49967   6.810  26.677   5.313
90872W        W49968   8.677  40.870   0.947
90873W        W49969   8.690   6.724  12.028
90874W        W49970  38.943   6.808   2.289
90875W        W49971  28.059   5.758   2.232
90876W        W49972  28.515   7.336   0.918
90877W        W49973  12.857  33.911  11.528
90878W        W49974  19.167  22.018   1.763
90879W        W49975  22.104  24.147   0.365
90880W        W49976  24.224  33.549  12.964
90881W        W49977   2.237  29.033  14.350
90882W        W49978  19.550  10.748   0.940
90883W        W49979  18.176   8.676  14.967
90884W        W49980  10.797  44.917   4.839
90885W        W49981   2.749  41.029   4.650
90886W        W49982  15.295  18.761   3.729
90887W        W49983  22.701  28.495  11.499
90888W        W49984   4.364  17.634  11.993
90889W        W49985  14.754  24.700  13.411
90890W        W49986  18.050   0.303   0.789
90891W        W49987  17.606   9.152   5.727
90892W        W49988   5.380  11.627  11.498
90893W        W49989  41.002  11.723   2.275
90894W        W49990  10.699  41.859   0.304
90895W        W49991  24.101  14.162  12.090
90896W        W49992   7.682   2.436  13.432
90897W        W49993  32.492  39.930  12.946
90898W        W49994  19.687  29.442  11.424
90899W        W49995  14.107  13.295  12.421
90900W        W49996  37.942  42.873  10.000
90901W        W49997   2.341   3.366  10.080
90902W        W49998  19.142  32.442  14.006
90903W        W49999  31.645  38.446   2.753
90904W        W50000   6.211  44.416   1.409
90905W        W50001  17.689  30.541   3.819
90906W        W50002  39.322  44.351  10.912
90907W        W50003  44.308  15.577   1.849
90908W        W50004  35.937  18.121   0.250
90909W        W50005  33.893  31.546  10.902
90910W        W50006  41.805  29.546  12.032
90911W        W50007  36.535  43.873  14.014
90912W        W50008  28.616   0.784   4.619
90913W        W50009  31.117  11.314  10.903
90914W        W50010  21.081  33.922   2.822
90915W        W50011  25.986  32.498   0.937
90916W        W50012  24.652  41.358  12.021
90917W        W50013   3.402   5.276   4.752
90918W        W50014  42.826  24.603  12.000
90919W        W50015  11.782   9.823  14.013
90920W        W50016   3.762  27.138   1.735
90921W        W50017   8.728  39.521  10.573
90922W        W50018  44.392  23.184  13.873
90923W        W50019  16.673  12.757  10.500
90924W        W50020  23.494  20.183   0.398
90925W        W50021  17.290  29.006   2.214
90926W        W50022  32.981   2.814  14.317
90927W        W50023  36.550   2.764   1.346
90928W        W50024   7.713  38.993   2.338
90929W        W50025   6.721  41.984  11.040
90930W        W50026  16.723  26.627   4.113
90931W        W50027   4.247  10.799  13.064
90932W        W50028  31.069  29.601   0.921
90933W        W50029  28.130   8.752  13.387
90934W        W50030  19.138  44.809   1.930
90935W        W50031  38.057  19.586   0.443
90936W        W50032  41.337  36.066   4.790
90937W        W50033  19.711   9.703   0.952
90938W        W50034   3.214  21.089  11.106
90939W        W50035  39.328  30.648   2.312
90940W        W50036  22.160   6.731   0.467
90941W        W50037  19.736  12.176  12.028
90942W        W50038   0.412  37.987  14.451
90943W        W50039  39.319  39.859   0.957
90944W        W50040   4.432  10.207   4.819
90945W        W50041   8.352  26.606   0.828
90946W        W50042  26.469  30.424  14.384
90947W        W50043  41.818   9.714   3.289
90948W        W50044   5.286  30.461  11.871
90949W        W50045  38.016  24.713   0.364
90950W        W50046  24.068  42.978   0.901
90951W        W50047  43.817  20.757  12.972
90952W        W50048  35.094  39.455  13.917
90953W        W50049   5.223  34.517  13.314
90954W        W50050  36.853   4.881  10.899
90955W        W50051  34.383  22.139  12.539
90956W        W50052  16.230  21.625  11.388
90957W        W50053  30.613   4.355   0.473
90958W        W50054   5.432  19.677   0.768
90959W        W50055  16.683  31.948   1.764
90960W        W50056   0.743  34.472   1.763
90961W        W50057  34.477  37.474   1.234
90962W        W50058   9.807  10.878   0.351
90963W        W50059  11.686  36.016   0.344
90964W        W50060  12.322  18.590   3.702
90965W        W50061   6.387  42.812  14.999
90966W        W50062  14.161  17.582  12.087
90967W        W50063  21.561  14.271   2.242
90968W        W50064  14.175  33.977   3.270
90969W        W50065  42.777  13.270   2.325
90970W        W50066  30.589  19.739  14.432
90971W        W50067  16.734  40.817   2.836
90972W        W50068  29.481  16.627  13.524
90973W        W50069  32.412  16.077   2.297
90974W        W50070   2.754  23.660  10.044
90975W        W50071  28.142   7.704  11.421
90976W        W50072  19.044  28.651   3.180
90977W        W50073  35.978   1.776   4.167
90978W        W50074  28.528  22.687  11.927
90979W        W50075  18.294  42.844   1.306
90980W        W50076  24.567  26.972   1.222
90981W        W50077  14.690  11.159   0.373
90982W        W50078  40.837  16.589  14.003
90983W        W50079  10.735  37.549  10.503
90984W        W50080   5.771  44.452   3.864
90985W        W50081  31.151   2.315  11.529
90986W        W50082  15.706  19.679  11.433
90987W        W50083  10.149   4.731  12.990
90988W        W50084  30.476  25.067   3.313
90989W        W50085  31.959   7.773  11.039
90990W        W50086   6.722  30.485  11.907
90991W        W50087  43.011   8.341   2.685
90992W        W50088   0.353  41.499   4.295
90993W        W50089  25.135  31.923  10.519
90994W        W50090  30.580  26.587   2.679
90995W        W50091  21.173  38.399  13.803
90996W        W50092   8.351  12.215   4.817
90997W        W50093  23.203   8.712   3.179
90998W        W50094  29.960  17.283  10.580
90999W        W50095  27.640  28.036  14.438
91000W        W50096  14.710  25.212   3.654
91001W        W50097  24.510  14.708   1.273
91002W        W50098  39.928  30.592   3.311
91003W        W50099  26.086  26.522   0.483
91004W        W50100  41.018  38.467  10.553
91005W        W50101  30.586  26.961   2.746
91006W        W50102   0.824   9.707  14.297
91007W        W50103   5.881   3.864  13.423
91008W        W50104  23.135  25.624   3.227
91009W        W50105  16.606   6.402   0.337
91010W        W50106  42.461  17.200   3.289
91011W        W50107  30.618   0.338  12.076
91012W        W50108  19.597  13.258   3.155
91013W        W50109  26.660  42.976  11.520
91014W        W50110  35.976  27.590   1.446
91015W        W50111  25.634  25.101   2.185
91016W        W50112  37.410  42.326  13.411
91017W        W50113  15.701   5.750  11.085
91018W        W50114  23.693   9.646   4.130
91019W        W50115   7.897  24.136  12.845
91020W        W50116  43.006  21.602  12.345
91021W        W50117  28.997  15.262  11.865
91022W        W50118  35.025  33.512   1.854
91023W        W50119  37.011  39.317   0.773
91024W        W50120  11.175  29.545   3.659
91025W        W50121  12.134  18.641  14.426
91026W        W50122  30.615   3.802   0.837
91027W        W50123  28.117   0.917  13.442
91028W        W50124  28.982  13.351  12.518
91029W        W50125  17.179  14.242   4.740
91030W        W50126  30.552   8.826   1.855
91031W        W50127  29.594   3.751   1.274
91032W        W50128  33.488  14.808  10.537
91033W        W50129  39.368   6.846  12.373
91034W        W50130   8.881   9.203  10.515
91035W        W50131   8.262  36.946  12.079
91036W        W50132   4.724  23.085   3.257
91037W        W50133  10.668   5.219  13.882
91038W        W50134   1.916  40.419   1.242
91039W        W50135  18.690   7.287  14.427
91040W        W50136   2.292  11.293  10.964
91041W        W50137  17.712  37.079   2.791
91042W        W50138   5.861  44.296   1.404
91043W        W50139  15.620   0.847  13.864
91044W        W50140  38.859  43.956  13.863
91045W        W50141  13.178  18.742   3.197
91046W        W50142  35.960  39.471  13.858
91047W        W50143  39.892  39.402  12.447
91048W        W50144  27.967  25.145  14.888
91049W        W50145  33.501  44.422  13.523
91050W        W50146  27.084  25.603  11.025
91051W        W50147  19.760  19.263  11.610
91052W        W50148  19.278  19.609   4.767
91053W        W50149   9.221  38.839  12.833
91054W        W50150  34.096   3.820   3.373
91055W        W50151  11.855  22.240  14.776
91056W        W50152  16.252  16.234  11.883
91057W        W50153  26.656   9.359   2.857
91058W        W50154   6.917   3.334   4.679
91059W        W50155  26.190  29.107   0.779
91060W        W50156  40.417  16.811   2.259
91061W        W50157  44.945  20.189  11.437
91062W        W50158  17.298  14.148   0.472
91063W        W50159  40.330  23.117  10.417
91064W        W50160  11.134  28.597  10.889
91065W        W50161  36.932  39.466   2.674
91066W        W50162  22.656  22.536  12.516
91067W        W50163  18.613  25.108   0.405
91068W        W50164  37.387  26.117  14.796
91069W        W50165   4.261  13.343  13.344
91070W        W50166  29.000  36.387   0.314
91071W        W50167  44.819  22.567   0.416
91072W        W50168  24.603  19.736  14.909
91073W        W50169  18.734  11.306   1.716
91074W        W50170  28.035  11.812  10.487
91075W        W50171  24.139  14.682  11.906
91076W        W50172  23.038   8.814  12.077
91077W        W50173  10.357  16.094   1.363
91078W        W50174  23.070  16.700  10.405
91079W        W50175  42.797  39.883   4.337
91080W        W50176  36.413  19.671   1.891
91081W        W50177  26.525   4.230   0.911
91082W        W50178  17.792  30.489  12.481
91083W        W50179  28.615  34.116   2.727
91084W        W50180   9.845  40.529  10.511
91085W        W50181  28.139   7.351  11.926
91086W        W50182  36.353  10.293   0.847
91087W        W50183  34.928  35.434  13.315
91088W        W50184  32.485  37.841   4.168
91089W        W50185  16.285   4.361   4.654
91090W        W50186  38.039  15.327  10.987
91091W        W50187  28.586  20.073  14.901
91092W        W50188  26.626   8.889   4.689
91093W        W50189  10.309  19.192   0.428
91094W        W50190  33.408  22.186   4.688
91095W        W50191  17.133  11.755  12.478
91096W        W50192  26.036  10.729   3.275
91097W        W50193  25.527   2.866  12.004
91098W        W50194  34.051   9.686   5.262
91099W        W50195  14.722  33.920  10.485
91100W        W50196  12.180  15.633  14.903
91101W        W50197  18.139  35.859  12.062
91102W        W50198  31.126  44.405  14.435
91103W        W50199  10.792   7.336   2.299
91104W        W50200  16.273  41.487   0.470
91105W        W50201  31.462  12.783   1.366
91106W        W50202  40.354  13.814  13.004
91107W        W50203  14.128  34.554   2.397
91108W        W50204  24.103  34.939  11.931
91109W        W50205  13.712  37.424  10.910
91110W        W50206  26.993  31.608  11.896
91111W        W50207   2.312  18.256   3.188
91112W        W50208   2.325  26.003  13.879
91113W        W50209  13.153  21.092  10.417
91114W        W50210  29.464   0.256   0.305
91115W        W50211  10.164  12.749  12.978
91116W        W50212  24.697  17.770   1.705
91117W        W50213  37.411   6.840   3.351
91118W        W50214   7.335  44.853  12.391
91119W        W50215   7.389  17.152  13.524
91120W        W50216  23.062  30.435   3.833
91121W        W50217   1.435  32.977  12.963
91122W        W50218  23.118  41.333  14.322
91123W        W50219  38.956  14.624  14.992
91124W        W50220  20.133   1.456  14.432
91125W        W50221   3.363  23.001   3.244
91126W        W50222   3.882  40.979  11.875
91127W        W50223  37.356   2.895   2.285
91128W        W50224  22.155  38.917   4.750
91129W        W50225   2.372  26.110  11.107
91130W        W50226  26.609  44.259   2.402
91131W        W50227  39.557   0.889   3.362
91132W        W50228   0.320  18.086  13.990
91133W        W50229   0.347  42.984   5.127
91134W        W50230  25.140  34.542   5.798
91135W        W50231  15.267  29.070   5.124
91136W        W50232  11.277  39.475  12.061
91137W        W50233  37.433   2.321  14.783
91138W        W50234  38.499   0.874   4.339
91139W        W50235  38.943   2.942   3.694
91140W        W50236   0.898  22.226  11.548
91141W        W50237  38.882  12.192  10.452
91142W        W50238  32.077  25.121  14.850
91143W        W50239  36.545  20.076  11.593
91144W        W50240  13.740  17.247  12.359
91145W        W50241   2.870   2.938  10.992
91146W        W50242  38.034  17.075   0.479
91147W        W50243  40.343  28.553  13.483
91148W        W50244   3.272  32.494   0.341
91149W        W50245  13.712  12.668  10.490
91150W        W50246  17.259  29.617   2.254
91151W        W50247   4.303   0.762  14.856
91152W        W50248   7.803   9.886   3.759
91153W        W50249  36.004  34.429   1.265
91154W        W50250  39.400  37.856  11.904
91155W        W50251  34.963  28.025  13.986
91156W        W50252  36.364   2.922  12.090
91157W        W50253   8.303   9.190   0.846
91158W        W50254  11.707  24.630   0.284
91159W        W50255   2.837  18.067   1.259
91160W        W50256  22.584  32.520   4.219
91161W        W50257  40.993  35.006   3.732
91162W        W50258  12.799  13.211  13.990
91163W        W50259   9.785   4.245   4.696
91164W        W50260   8.343  39.927  11.408
91165W        W50261  24.055  36.016  10.562
91166W        W50262  36.470   0.953  13.965
91167W        W50263  29.999  34.037  11.599
91168W        W50264  37.057  17.221   3.850
91169W        W50265  27.039  43.335   3.766
91170W        W50266  27.674  41.449   4.697
91171W        W50267  26.682   1.791  14.363
91172W        W50268  35.000   6.716   2.854
91173W        W50269  19.589  31.534   0.962
91174W        W50270  38.859  19.601   1.424
91175W        W50271  40.865  33.615  13.346
91176W        W50272   2.285  10.152   1.734
91177W        W50273   7.293  33.131   0.452
91178W        W50274  16.240   7.356   1.275
91179W        W50275  22.020  36.067  13.043
91180W        W50276  11.841  28.680  11.019
91181W        W50277  16.654  21.521   1.890
91182W        W50278  39.962   7.277   3.826
91183W        W50279   7.875   0.383   4.295
91184W        W50280   8.272  13.149  12.461
91185W        W50281  18.791  41.481  12.057
91186W        W50282  37.377  21.131   0.446
91187W        W50283   4.739  43.926   3.657
91188W        W50284  34.952  16.125   1.377
91189W        W50285  43.429  41.788   2.318
91190W        W50286  22.165  21.611   5.228
91191W        W50287  10.785   7.211   3.869
91192W        W50288  25.636  43.320  14.294
91193W        W50289  12.816   5.843   1.768
91194W        W50290  17.651  22.068  12.373
91195W        W50291  18.180  36.930   1.353
91196W        W50292  24.665  10.312   3.378
91197W        W50293  40.473  33.407   4.621
91198W        W50294  22.624  20.126  14.394
91199W        W50295  35.085  21.058  10.461
91200W        W50296   3.363   9.650   9.982
91201W        W50297  31.043  10.309   0.296
91202W        W50298  27.484  40.800  11.422
91203W        W50299  23.645  12.697   2.888
91204W        W50300  28.593  33.066   0.307
91205W        W50301   1.879  44.472   3.238
91206W        W50302   8.303  34.936   4.173
91207W        W50303  37.045  38.913  10.506
91208W        W50304   6.218  26.111   3.673
91209W        W50305  40.032  32.927   1.235
91210W        W50306  24.637  44.260  14.832
91211W        W50307   6.756  11.766   0.299
91212W        W50308  36.919  19.580   4.296
91213W        W50309  43.948   0.891  11.607
91214W        W50310  40.329  20.146  12.848
91215W        W50311  36.019  32.977   1.380
91216W        W50312  20.109  44.428   4.785
91217W        W50313  20.062  30.089  13.421
91218W        W50314  37.422  33.587  11.933
91219W        W50315  35.374  27.105   5.102
91220W        W50316  32.107   1.433  14.462
91221W        W50317  12.262  27.074  11.903
91222W        W50318  15.765  21.242   5.300
91223W        W50319  25.217   1.757  14.409
91224W        W50320  18.614  30.626   0.247
91225W        W50321  26.142  13.156   2.812
91226W        W50322  13.682   0.957   0.358
91227W        W50323  40.883  20.260   1.329
91228W        W50324   4.402  25.580  13.470
91229W        W50325   2.241   1.441   2.691
91230W        W50326   6.872   1.889  14.424
91231W        W50327  23.134  24.538  13.402
91232W        W50328   3.399   5.243   4.332
91233W        W50329  17.163  21.025  13.834
91234W        W50330   7.182  42.304   4.143
91235W        W50331  28.495  11.814  14.940
91236W        W50332   1.345  27.692   3.312
91237W        W50333  19.139   8.707  12.491
91238W        W50334  42.507  15.684  10.017
91239W        W50335  34.027  40.033  13.529
91240W        W50336   0.443   8.357  13.310
91241W        W50337   0.368  20.713  11.499
91242W        W50338   0.359   8.405   0.731
91243W        W50339  16.113   8.178  13.365
91244W        W50340  42.298  13.308   0.730
91245W        W50341  37.435  30.455  12.037
91246W        W50342  27.486  43.361   0.839
91247W        W50343  16.105  14.780   0.874
91248W        W50344   2.721  29.938  10.953
91249W        W50345  27.501  16.572  14.768
91250W        W50346  26.100  17.249  10.029
91251W        W50347  13.109  20.753  14.838
91252W        W50348  33.515   4.433   3.718
91253W        W50349  11.308  24.157  13.422
91254W        W50350  38.409  28.619   3.379
91255W        W50351  17.564   1.328  13.850
91256W        W50352  39.346  28.624   4.338
91257W        W50353  26.636  41.997   0.796
91258W        W50354  19.651  33.381   3.826
91259W        W50355  31.917  18.666   2.722
91260W        W50356  29.468  44.352   1.216
91261W        W50357   4.436  35.930  12.467
91262W        W50358  11.810   5.222   2.869
91263W        W50359  33.442  35.935  12.558
91264W        W50360  26.585  33.902   2.203
91265W        W50361   3.933  10.785  12.444
91266W        W50362  25.677  38.559   2.361
91267W        W50363  30.575  23.675  12.574
91268W        W50364  21.713  30.440  10.512
91269W        W50365  29.612  32.611  14.937
91270W        W50366   0.984  41.381   0.932
91271W        W50367   9.728   3.767  13.453
91272W        W50368  39.040  18.218   3.787
91273W        W50369  17.749  40.444  12.535
91274W        W50370  16.299  42.328  11.118
91275W        W50371  19.584  14.282   1.726
91276W        W50372  18.603  42.444   2.859
91277W        W50373   1.478  29.163  13.895
91278W        W50374   9.764  25.708   3.726
91279W        W50375  21.072  37.952  13.932
91280W        W50376  38.558   3.291  13.511
91281W        W50377  29.566   4.929  14.380
91282W        W50378  21.648  33.981  11.057
91283W        W50379   6.305  12.284   2.357
91284W        W50380   1.334  37.986  12.450
91285W        W50381  38.933  22.683  11.410
91286W        W50382  25.656  23.509   4.620
91287W        W50383  42.029  32.554   2.247
91288W        W50384   1.400   2.420   2.314
91289W        W50385   8.678  22.667  14.502
91290W        W50386  11.343  38.913  12.960
91291W        W50387  12.272  28.098  12.369
91292W        W50388  15.724  20.626   2.848
91293W        W50389  26.460   4.286   2.276
91294W        W50390  29.497  41.397  13.522
91295W        W50391  29.149  22.077   2.212
91296W        W50392  15.742  37.996   0.789
91297W        W50393  16.805  21.081  11.505
91298W        W50394  22.581  19.138   2.329
91299W        W50395  20.666  37.032   2.227
91300W        W50396  44.396  34.054  10.493
91301W        W50397  23.660  43.489   1.268
91302W        W50398  19.609  30.451  10.446
91303W        W50399  15.251  38.522  10.946
91304W        W50400   6.203  19.268  14.846
91305W        W50401  40.809   7.200  12.503
91306W        W50402  10.323  29.169   0.866
91307W        W50403  34.923   2.888   0.800
91308W        W50404  32.426  39.500  10.988
91309W        W50405  10.811  39.947   1.877
91310W        W50406   6.731  12.129  13.962
91311W        W50407  29.547  16.738   4.616
91312W        W50408   3.261   2.369  14.370
91313W        W50409  24.634  33.597   1.431
91314W        W50410   9.351  27.114   2.260
91315W        W50411   8.165  33.600  12.496
91316W        W50412  43.310  20.128  11.521
91317W        W50413  34.899  36.074   1.224
91318W        W50414  16.273  10.872   4.761
91319W        W50415  42.449  34.902  12.484
91320W        W50416  39.335  42.384   1.827
91321W        W50417  31.103   1.401  14.487
91322W        W50418  21.520   7.328  14.464
91323W        W50419  37.033  13.703  11.580
91324W        W50420  41.406  39.017   4.235
91325W        W50421  23.493  16.255  14.882
91326W        W50422  30.491  31.636   2.727
91327W        W50423  17.211  37.083  11.985
91328W        W50424  31.602   1.440   2.798
91329W        W50425  37.460   4.729   2.305
91330W        W50426  23.555   9.307  10.546
91331W        W50427   0.337  31.605   0.800
91332W        W50428  19.271  25.543   4.351
91333W        W50429  13.672   4.265   3.176
91334W        W50430  23.187  12.756   0.398
91335W        W50431  32.126  10.154  11.529
91336W        W50432  41.299  10.204   4.277
91337W        W50433  43.453  28.043   1.835
91338W        W50434  15.708  31.416  10.638
91339W        W50435  20.230   5.231   4.760
91340W        W50436  22.733  40.465   4.635
91341W        W50437  37.885  34.980  13.544
91342W        W50438  30.637  11.629   3.329
91343W        W50439   5.861  21.683  14.515
91344W        W50440  16.121  19.217  14.957
91345W        W50441  15.591   7.853   1.380
91346W        W50442   0.374  15.180  11.394
91347W        W50443  33.090  31.091   4.303
91348W        W50444  36.399   6.427   3.234
91349W        W50445  27.587  29.436   3.669
91350W        W50446   3.882  22.175  14.787
91351W        W50447  44.464  20.719   2.695
91352W        W50448  25.111   4.790   2.222
91353W        W50449  20.080  22.708  13.313
91354W        W50450  13.650  29.594   1.390
91355W        W50451   3.294   7.255   1.421
91356W        W50452  29.074  15.227  13.045
91357W        W50453   7.318   9.836   4.210
91358W        W50454  32.610  17.613   4.282
91359W        W50455  26.576  34.887   3.782
91360W        W50456   6.714   0.283  14.395
91361W        W50457  20.198  42.457  11.048
91362W        W50458  26.670  14.716   2.817
91363W        W50459  38.968   3.220  10.970
91364W        W50460  23.727  18.671  12.562
91365W        W50461  23.025   5.848   4.722
91366W        W50462  12.689  18.760   4.164
91367W        W50463   0.907  32.941   2.857
91368W        W50464  19.246  10.858   2.747
91369W        W50465  21.051   0.839   1.323
91370W        W50466  34.069  17.729   5.251
91371W        W50467  31.051  20.151  12.068
91372W        W50468   2.375   8.749   3.860
91373W        W50469  18.059  12.207  10.644
91374W        W50470  35.589  29.497   4.826
91375W        W50471   3.745  19.283   4.780
91376W        W50472  44.384  28.472   0.780
91377W        W50473  20.728  20.726  12.356
91378W        W50474   6.417  28.640  11.478
91379W        W50475   3.310  42.525  11.568
91380W        W50476  36.913  13.667  11.054
91381W        W50477  39.477  10.326  12.968
91382W        W50478  26.599  27.058  13.541
91383W        W50479  23.109  19.613   3.723
91384W        W50480  23.125  28.942   4.746
91385W        W50481  28.454   9.870   1.428
91386W        W50482  36.011  30.585   0.953
91387W        W50483   4.312  35.038   1.912
91388W        W50484   2.410   0.289  13.378
91389W        W50485  15.658  13.169  10.638
91390W        W50486  12.193  18.177   4.317
91391W        W50487  30.135  41.504   1.783
91392W        W50488  29.447  18.143  10.627
91393W        W50489  39.064  41.495   5.150
91394W        W50490  36.883  29.607  14.442
91395W        W50491  41.849  19.155   0.441
91396W        W50492  36.449  19.756  10.589
91397W        W50493  42.982   5.893  12.937
91398W        W50494   2.760   8.222  10.518
91399W        W50495  36.845  32.588   3.821
91400W        W50496   2.815  18.291   0.955
91401W        W50497   9.350   2.357   1.387
91402W        W50498   7.203  36.467   1.243
91403W        W50499  24.517  33.421   5.109
91404W        W50500  43.484  15.591   1.387
91405W        W50501  38.918  42.911  10.041
91406W        W50502  39.992  28.085   4.772
91407W        W50503  21.754  14.731   3.742
91408W        W50504   2.468  33.610   3.151
91409W        W50505   8.667  30.548   4.253
91410W        W50506  43.461   2.790   2.768
91411W        W50507   1.814  26.052   0.273
91412W        W50508   5.412   8.392  14.509
91413W        W50509  16.108   7.802  14.760
91414W        W50510  24.124  11.205   5.697
91415W        W50511  31.537  29.082   3.234
91416W        W50512   1.800  30.446   4.799
91417W        W50513  14.620   3.230  14.938
91418W        W50514   8.162  16.239  11.119
91419W        W50515  41.340  15.578   0.923
91420W        W50516  37.495  11.335   1.259
91421W        W50517  33.448  33.920   1.346
91422W        W50518  43.292   5.331   4.826
91423W        W50519   4.398  32.053   0.272
91424W        W50520  31.442  38.047   2.334
91425W        W50521  24.504  34.561  11.089
91426W        W50522  38.924   2.844   1.843
91427W        W50523  40.472  40.000  14.920
91428W        W50524  27.994  44.010  12.044
91429W        W50525   1.468  26.563   3.337
91430W        W50526  19.238  32.131   1.224
91431W        W50527  15.219  20.201  14.789
91432W        W50528  37.406   2.243   3.363
91433W        W50529  20.217  36.504   0.366
91434W        W50530  24.516  23.513  14.029
91435W        W50531  18.179  35.592   3.231
91436W        W50532  15.624  32.912  12.559
91437W        W50533  39.389   0.305  14.789
91438W        W50534  17.579  29.958   0.774
91439W        W50535  17.666  13.274   4.239
91440W        W50536  22.078  16.312   0.247
91441W        W50537  28.053  41.443  13.966
91442W        W50538  23.989  39.468   0.903
91443W        W50539  41.973  37.908   4.327
91444W        W50540  32.917  25.997  11.428
91445W        W50541  37.859  18.637   0.279
91446W        W50542  43.856  34.508  10.958
91447W        W50543  38.399  31.112   3.761
91448W        W50544  21.163  37.917  12.348
91449W        W50545  44.792  29.959   3.157
91450W        W50546  30.520  20.680   0.338
91451W        W50547  34.560  19.638  14.288
91452W        W50548  21.664  17.272   2.271
91453W        W50549  36.959  28.024   0.420
91454W        W50550  11.684  44.913  14.328
91455W        W50551  12.192  44.788  11.914
91456W        W50552   9.373  25.162   2.892
91457W        W50553  10.215  30.977   3.764
91458W        W50554  27.187  25.682  12.054
91459W        W50555  24.495  15.233   1.747
91460W        W50556  22.708  19.248   1.303
91461W        W50557  30.999  19.730  11.400
91462W        W50558  43.298  31.547   2.709
91463W        W50559   9.207  12.227   0.409
91464W        W50560   5.822   8.253  12.877
91465W        W50561   9.796  37.465  13.945
91466W        W50562  22.200  39.404  14.938
91467W        W50563  35.453  37.487  10.947
91468W        W50564   9.876  34.954  14.918
91469W        W50565   6.266   6.308   1.912
91470W        W50566  32.617  10.189  10.895
91471W        W50567   2.411  11.310  11.977
91472W        W50568  16.201  13.662   3.300
91473W        W50569  20.651  17.106   3.758
91474W        W50570  44.389   8.750  10.140
91475W        W50571  13.678  41.901   2.772
91476W        W50572  34.570   0.798  14.874
91477W        W50573  15.248  18.545   0.887
91478W        W50574  44.962  38.905   1.419
91479W        W50575  15.237  34.955  14.326
91480W        W50576   1.459  11.692   4.813
91481W        W50577   6.746  16.286  13.371
91482W        W50578  42.409  25.644  12.349
91483W        W50579   3.345  23.152   2.360
91484W        W50580  29.005  17.801  13.900
91485W        W50581   4.425  20.192   2.895
91486W        W50582   6.225  38.931   5.289
91487W        W50583   3.309  11.363  14.890
91488W        W50584  37.498  32.039   3.315
91489W        W50585  19.735  42.440   2.276
91490W        W50586  32.131   4.382  13.334
91491W        W50587   5.437  35.437  10.445
91492W        W50588  38.840  37.359   0.917
91493W        W50589   4.882  11.847   3.152
91494W        W50590  32.964   3.917   4.141
91495W        W50591  32.594  34.383   0.753
91496W        W50592  19.714  22.251   3.250
91497W        W50593  20.566  21.182  14.839
91498W        W50594  19.058  27.495  13.372
91499W        W50595  34.976  40.012   3.377
91500W        W50596   1.770  36.457   1.447
91501W        W50597  22.508  38.532  14.878
91502W        W50598  38.401  31.598  11.940
91503W        W50599  43.902  30.593  11.565
91504W        W50600  29.068  19.733   3.305
91505W        W50601  27.102  43.327   0.483
91506W        W50602  19.074  23.606  14.032
91507W        W50603  20.054  30.123   1.227
91508W        W50604   1.283  38.327  13.955
91509W        W50605   8.731  24.999  14.772
91510W        W50606  19.709  14.139   3.158
91511W        W50607  22.539  35.461  10.119
91512W        W50608  18.175  22.746  10.537
91513W        W50609  32.914  22.055  11.549
91514W        W50610  22.062  25.006  11.458
91515W        W50611  39.022  43.886  12.468
91516W        W50612  34.570  31.614  10.522
91517W        W50613  10.792  22.688  13.850
91518W        W50614   2.472  39.876   3.232
91519W        W50615  20.611   4.384  12.059
91520W        W50616  42.823  13.253   3.288
91521W        W50617  27.136  11.633   4.303
91522W        W50618   5.858  42.935  12.093
91523W        W50619   5.212  34.591   4.802
91524W        W50620  16.113  16.253  14.447
91525W        W50621  36.882  12.185   1.407
91526W        W50622  26.956  25.097  13.524
91527W        W50623  39.455  32.474  13.322
91528W        W50624   5.219  32.083   0.440
91529W        W50625  20.040   7.822  10.570
91530W        W50626   3.779   1.254  13.418
91531W        W50627   3.865  13.747  12.560
91532W        W50628   6.919   0.973   1.799
91533W        W50629   9.207   7.791   0.246
91534W        W50630  31.421  24.209  14.825
91535W        W50631  40.797  41.016  14.790
91536W        W50632   0.895  38.435   2.683
91537W        W50633  22.649   8.297   4.285
91538W        W50634  30.087  22.065   1.695
91539W        W50635  37.558  11.799  10.982
91540W        W50636  31.424  10.231   2.384
91541W        W50637  34.380  43.398  11.013
91542W        W50638  33.104  23.095  11.385
91543W        W50639  28.486  44.849   4.330
91544W        W50640  17.592   7.304   1.764
91545W        W50641  16.088  20.588   3.191
91546W        W50642  39.925  27.637  14.892
91547W        W50643  44.853  38.476   0.426
91548W        W50644  10.691  22.542  12.015
91549W        W50645  33.032   4.397  14.506
91550W        W50646  28.088  20.714   9.464
91551W        W50647  34.868   0.376  13.376
91552W        W50648  26.001  39.938  10.520
91553W        W50649  39.506  36.530   3.313
91554W        W50650   2.263   9.764   4.672
91555W        W50651  44.901  25.100  14.394
91556W        W50652  14.692  11.330  11.564
91557W        W50653   8.234  38.388   4.735
91558W        W50654  42.012  13.723  14.413
91559W        W50655  42.794  20.229  11.525
91560W        W50656  22.516  13.739   0.911
91561W        W50657  13.673  22.702   4.227
91562W        W50658  21.612  32.495   0.475
91563W        W50659  27.000  26.162  14.493
91564W        W50660  36.879  31.936   1.728
91565W        W50661  22.997   3.306  11.891
91566W        W50662  42.292  11.663  12.447
91567W        W50663  28.973  24.176   3.282
91568W        W50664  37.010  18.698  12.951
91569W        W50665   9.369  15.250   2.719
91570W        W50666  18.111   3.820  11.607
91571W        W50667   9.775  17.683  12.371
91572W        W50668  41.801   6.740   4.209
91573W        W50669  16.776  20.636  12.884
91574W        W50670  41.480   9.878  10.104
91575W        W50671  42.923  21.659  11.908
91576W        W50672  24.720   0.932   4.702
91577W        W50673   2.328  34.049   4.243
91578W        W50674  21.166  13.650   2.289
91579W        W50675  44.289  42.793   5.258
91580W        W50676   7.209   4.764   4.598
91581W        W50677  27.639   2.399  13.459
91582W        W50678  43.401  38.911   3.267
91583W        W50679   7.746  13.740  11.119
91584W        W50680  34.045  13.167  12.966
91585W        W50681   4.866  27.094  12.903
91586W        W50682   1.319  34.042   2.269
91587W        W50683  32.486  20.716  13.932
91588W        W50684   2.375   6.231  14.509
91589W        W50685  32.079   9.171   3.197
91590W        W50686  15.645   7.330  10.583
91591W        W50687   4.755  30.445  10.535
91592W        W50688  32.065  41.429   0.923
91593W        W50689   7.270   2.445  11.423
91594W        W50690  11.154  31.091  14.777
91595W        W50691  30.616  12.140   4.731
91596W        W50692   3.320  12.310  11.555
91597W        W50693  19.599  37.000   9.625
91598W        W50694  12.823  32.461   0.874
91599W        W50695  38.526  20.161   2.202
91600W        W50696  42.416   6.804  11.886
91601W        W50697  34.035  32.485   0.933
91602W        W50698  33.557   0.285   1.264
91603W        W50699  33.535   7.314  12.420
91604W        W50700   3.274  24.619   3.757
91605W        W50701  12.129  32.100  10.965
91606W        W50702  41.796   9.310   3.222
91607W        W50703  27.151  38.486  12.896
91608W        W50704  30.542  24.007   2.205
91609W        W50705   4.879  27.010  13.422
91610W        W50706   1.266  42.801  11.413
91611W        W50707  37.439  13.155   3.721
91612W        W50708  13.117   8.271  12.087
91613W        W50709  31.432   3.948   1.738
91614W        W50710  41.029  35.459   2.304
91615W        W50711  23.560   7.286   1.865
91616W        W50712  34.515   3.801   1.322
91617W        W50713  39.379   7.315  13.905
91618W        W50714  38.364  12.300   3.647
91619W        W50715  16.217   0.843  12.548
91620W        W50716  34.441  14.671  14.012
91621W        W50717  20.050  36.373  11.611
91622W        W50718  19.063  34.390   3.847
91623W        W50719   6.391  30.414  14.898
91624W        W50720  35.567  12.616  11.476
91625W        W50721  20.556  42.443   3.219
91626W        W50722  34.449  10.303   5.212
91627W        W50723  10.670  35.418  12.834
91628W        W50724  19.544  33.391  12.987
91629W        W50725  26.986   4.838   9.982
91630W        W50726  30.914   7.759   1.887
91631W        W50727  31.470  21.740   0.916
91632W        W50728  21.606  21.658   5.239
91633W        W50729  35.047  12.832   4.598
91634W        W50730  30.027  43.868  10.573
91635W        W50731  36.960  20.197  13.459
91636W        W50732   7.908  30.084   0.806
91637W        W50733  18.611  18.067   3.693
91638W        W50734   7.252   4.302   0.841
91639W        W50735  23.232   4.908  13.462
91640W        W50736  38.938  19.648  13.316
91641W        W50737  14.819  18.081  10.901
91642W        W50738  18.749  30.611   0.942
91643W        W50739   5.407  22.672   3.794
91644W        W50740   9.150  35.562   4.661
91645W        W50741  43.447   7.845  11.034
91646W        W50742  13.185  35.903   0.967
91647W        W50743  22.622   8.844  14.854
91648W        W50744  32.958   2.334  13.535
91649W        W50745  11.661   4.891  14.770
91650W        W50746  32.121  26.491  12.826
91651W        W50747  28.479  16.108  11.483
91652W        W50748  16.806  23.214   2.342
91653W        W50749  37.059   0.477  13.380
91654W        W50750  42.781  30.032   4.691
91655W        W50751   3.423  16.674   0.812
91656W        W50752  40.895  33.466   1.210
91657W        W50753  43.015  13.828   0.752
91658W        W50754  22.030  17.114   0.843
91659W        W50755   6.303  43.410  12.940
91660W        W50756  38.536  32.028  10.061
91661W        W50757   2.851   4.419   1.704
91662W        W50758  26.502  32.626   1.290
91663W        W50759  40.512  24.485   1.244
91664W        W50760  21.243  12.842  11.402
91665W        W50761  11.868   6.713   1.868
91666W        W50762  36.005  12.700  12.054
91667W        W50763  21.715  11.681   3.232
91668W        W50764  17.785  34.421  14.301
91669W        W50765  42.899  11.288  11.946
91670W        W50766  26.471   5.375  14.987
91671W        W50767  15.822  16.732   1.445
91672W        W50768   6.353  37.897  14.483
91673W        W50769  13.672  39.921   3.236
91674W        W50770  19.182   9.846   3.817
91675W        W50771  23.161   4.387   2.836
91676W        W50772   8.796  27.670   2.813
91677W        W50773  33.461  17.197   0.792
91678W        W50774  14.161   8.692   0.428
91679W        W50775  27.067  41.912   3.729
91680W        W50776  30.010  15.706   4.675
91681W        W50777  38.511  15.319   3.172
91682W        W50778  41.409  16.619   2.688
91683W        W50779  42.526  15.812   1.736
91684W        W50780  39.841  22.614   2.888
91685W        W50781  15.313  12.684   3.717
91686W        W50782  44.860  34.115   4.255
91687W        W50783  24.074   9.208  14.945
91688W        W50784   9.664  35.584   1.276
91689W        W50785  34.545   6.327   4.718
91690W        W50786  19.677  25.163  12.510
91691W        W50787   7.806  17.152   3.819
91692W        W50788   9.791  33.925  14.891
91693W        W50789  26.530  28.182   1.754
91694W        W50790  38.959  24.099   4.135
91695W        W50791   8.385   4.276  10.963
91696W        W50792  41.352  23.606  10.641
91697W        W50793  28.648  24.495   2.759
91698W        W50794  40.023  30.437  10.475
91699W        W50795  31.002  22.598  12.392
91700W        W50796  20.682  25.630  11.571
91701W        W50797   1.395   6.815  13.011
91702W        W50798  21.716  34.964  11.994
91703W        W50799  33.615  40.023  11.461
91704W        W50800  29.511   9.763  14.760
91705W        W50801  43.777  24.638   1.368
91706W        W50802  35.372  27.196  11.517
91707W        W50803  41.854   3.338   0.932
91708W        W50804  31.124  21.699  12.517
91709W        W50805  38.060  16.149   4.323
91710W        W50806  35.886   3.789   4.294
91711W        W50807  22.511  14.312  12.074
91712W        W50808  22.697  38.410   3.218
91713W        W50809  28.543  16.768   1.914
91714W        W50810  30.132  31.404   1.365
91715W        W50811  20.048  24.145  13.311
91716W        W50812   3.276  14.180   2.671
91717W        W50813  30.440  38.862  13.483
91718W        W50814  37.965  11.356   2.666
91719W        W50815  41.386  23.063  14.999
91720W        W50816  17.271  28.516  13.012
91721W        W50817  44.445   3.899   3.321
91722W        W50818  35.428  15.247  13.960
91723W        W50819  44.443  24.201  11.511
91724W        W50820  23.728  21.246  13.528
91725W        W50821  34.504   7.200  12.078
91726W        W50822  17.712  40.443   4.287
91727W        W50823   2.332  17.176   2.818
91728W        W50824  32.626  11.321   3.665
91729W        W50825  23.188   6.801  14.773
91730W        W50826  40.303  36.092   3.243
91731W        W50827   8.295  19.576   4.641
91732W        W50828  36.888  22.111   2.717
91733W        W50829  22.567  12.748  10.088
91734W        W50830  18.727  15.579  13.893
91735W        W50831   6.289  21.650  12.836
91736W        W50832  40.915  25.986  11.886
91737W        W50833  44.480   6.874  14.844
91738W        W50834  17.564  20.169   3.780
91739W        W50835  38.843  20.523   4.787
91740W        W50836  44.970   5.846   1.301
91741W        W50837  42.838   7.789   2.882
91742W        W50838  28.993  38.915   3.830
91743W        W50839   1.843  40.494   2.207
91744W        W50840  41.485  23.188  12.899
91745W        W50841  13.351  36.886   0.300
91746W        W50842  27.095  31.954   3.761
91747W        W50843   1.417  40.837  14.473
91748W        W50844  13.660  27.065  13.538
91749W        W50845  25.542  43.308   3.642
91750W        W50846  14.636  34.879   1.894
91751W        W50847  12.735  10.353  11.445
91752W        W50848  17.799  20.632  12.033
91753W        W50849  33.098   4.920  12.849
91754W        W50850   2.927   4.714   2.776
91755W        W50851   5.283  37.025   0.812
91756W        W50852  19.728  26.572  11.910
91757W        W50853  23.596  27.149   0.450
91758W        W50854   5.354  36.996  14.804
91759W        W50855  29.013  17.802   3.644
91760W        W50856  25.554  28.985   4.682
91761W        W50857  32.521   7.848  12.450
91762W        W50858   6.766  26.029  11.902
91763W        W50859  26.017  35.376  12.946
91764W        W50860  24.169  44.938  14.862
91765W        W50861  14.688  30.528  11.583
91766W        W50862  25.655   5.317  14.408
91767W        W50863  11.309  14.759   9.573
91768W        W50864  24.699  16.655  11.911
91769W        W50865   6.715  28.516  13.400
91770W        W50866   1.404  29.008   3.631
91771W        W50867  27.100  33.491   9.646
91772W        W50868  17.187  22.022   0.328
91773W        W50869   7.796   3.316   9.957
91774W        W50870  34.936  25.983   4.188
91775W        W50871   2.811  13.158  12.502
91776W        W50872  37.430  37.898   2.860
91777W        W50873  10.354  42.876   5.231
91778W        W50874  17.573  32.093   4.182
91779W        W50875  29.074  28.538  11.104
91780W        W50876  18.147  21.221  11.877
91781W        W50877  11.836  14.204  11.038
91782W        W50878  36.387  28.164  14.424
91783W        W50879   4.253  21.049  11.119
91784W        W50880  18.054  16.614   1.731
91785W        W50881  42.472   7.202   4.797
91786W        W50882  27.119  25.613  13.985
91787W        W50883  16.710   0.349  10.625
91788W        W50884   9.707  10.775  12.088
91789W        W50885  31.972  30.636  10.492
91790W        W50886  26.651  39.398  12.466
91791W        W50887  12.293  16.661  11.079
91792W        W50888  43.369  16.717   0.418
91793W        W50889  30.077  24.501  10.579
91794W        W50890  44.805  20.562   0.964
91795W        W50891  33.413  29.957   1.215
91796W        W50892  15.721  22.116   3.807
91797W        W50893  16.226  44.786  14.321
91798W        W50894  23.560  22.157  11.537
91799W        W50895  19.231   9.152  14.464
91800W        W50896  26.198  41.489   3.240
91801W        W50897  25.070  21.743   3.725
91802W        W50898  17.647   8.719  13.507
91803W        W50899   7.741  29.648  14.869
91804W        W50900  14.338  22.654   4.195
91805W        W50901   0.318   8.343  14.998
91806W        W50902  37.863  40.543   9.974
91807W        W50903  17.729  25.522   1.230
91808W        W50904   3.441  16.221  10.897
91809W        W50905  12.823  28.583  10.632
91810W        W50906  11.321   7.719   2.809
91811W        W50907  40.914  12.152  12.851
91812W        W50908  24.645  39.435  12.506
91813W        W50909  30.107  28.072   2.335
91814W        W50910  16.661  25.213   1.383
91815W        W50911  32.551  25.695  13.503
91816W        W50912  34.063  34.977  12.913
91817W        W50913  33.034   3.268  12.403
91818W        W50914  10.805  32.611   3.162
91819W        W50915  44.946  29.544  14.385
91820W        W50916   5.292  38.861   4.794
91821W        W50917   4.858   4.429   2.277
91822W        W50918  25.631  32.051  14.836
91823W        W50919  14.300  32.459  10.506
91824W        W50920  11.784  24.542   3.377
91825W        W50921  29.010  36.935   0.837
91826W        W50922  11.268  43.446  12.984
91827W        W50923  23.592  27.181  11.599
91828W        W50924  37.573   0.446   2.326
91829W        W50925  22.109  17.628   0.353
91830W        W50926   3.383  14.253   2.237
91831W        W50927  21.621  41.444   0.271
91832W        W50928  16.272  18.631   0.284
91833W        W50929  36.504  25.485   3.243
91834W        W50930   2.397  42.909  12.025
91835W        W50931   1.918  15.663  12.936
91836W        W50932  20.042  24.611  14.986
91837W        W50933  16.272  15.208  12.834
91838W        W50934   5.434  32.626  14.829
91839W        W50935  28.476   0.894  12.465
91840W        W50936  33.424  28.008  12.013
91841W        W50937  44.279  44.263   0.284
91842W        W50938   1.861  22.682   1.761
91843W        W50939  28.674  17.175  13.988
91844W        W50940  32.965   2.848  12.861
91845W        W50941  13.757  26.071  12.428
91846W        W50942   0.946  31.086   1.859
91847W        W50943  19.145  40.019  12.463
91848W        W50944  43.926   1.786   3.257
91849W        W50945  38.366  16.318  14.340
91850W        W50946  24.218  25.131  14.433
91851W        W50947   0.757  37.382  10.986
91852W        W50948   1.241  37.846  13.314
91853W        W50949  25.593  38.340   4.172
91854W        W50950  26.672  38.823   1.931
91855W        W50951  34.615  34.613   2.721
91856W        W50952  17.687  44.416   1.212
91857W        W50953   9.755  28.595   0.912
91858W        W50954   6.842  31.039  12.879
91859W        W50955   8.254  33.997   0.767
91860W        W50956  22.095  44.466  14.847
91861W        W50957   7.358  13.334  11.110
91862W        W50958  32.985  27.119   2.676
91863W        W50959  11.232  20.188   1.230
91864W        W50960  33.985  14.788   4.157
91865W        W50961  33.002   6.800   0.439
91866W        W50962  28.517  15.709  10.563
91867W        W50963  43.019  17.205   1.395
91868W        W50964  11.157   4.273   1.413
91869W        W50965  37.942  44.291  12.857
91870W        W50966  17.264  20.231   1.800
91871W        W50967  31.934  24.619  12.558
91872W        W50968   7.726  42.869  10.090
91873W        W50969  40.849  15.751  10.953
91874W        W50970  41.829  40.488   4.764
91875W        W50971  31.120  14.318   2.769
91876W        W50972  15.297  24.099   3.738
91877W        W50973  15.244  31.467  11.396
91878W        W50974  24.549  12.782  10.528
91879W        W50975  33.935  39.952  14.375
91880W        W50976   9.667   3.365  10.611
91881W        W50977  18.726  40.433   0.882
91882W        W50978  32.999  40.436   0.800
91883W        W50979  27.144  11.764  11.077
91884W        W50980  40.849  41.315   1.903
91885W        W50981  25.192  39.866  13.902
91886W        W50982  40.436  24.126   2.313
91887W        W50983  14.108  32.114   0.738
91888W        W50984  42.527  16.601  10.418
91889W        W50985  37.546  38.845   4.236
91890W        W50986   5.825  11.720   4.348
91891W        W50987  25.708  24.082  10.090
91892W        W50988  43.895   3.316  11.418
91893W        W50989  21.529   0.472  13.355
91894W        W50990  11.339  22.006  11.124
91895W        W50991  29.013   1.878  12.921
91896W        W50992  34.495  34.597   1.880
91897W        W50993  32.103  10.318   5.282
91898W        W50994  28.030  18.673   2.300
91899W        W50995  17.070   8.369   0.430
91900W        W50996  28.070  39.441  12.946
91901W        W50997  23.499   6.389   2.870
91902W        W50998  26.487  38.525  13.858
91903W        W50999  20.553  39.525   0.766
91904W        W51000   1.961  20.067   4.753
91905W        W51001  14.812  36.561  14.907
91906W        W51002  17.295  18.563  11.488
91907W        W51003   8.828  30.564   9.947
91908W        W51004  29.043  24.682  13.350
91909W        W51005  27.571   8.393  12.838
91910W        W51006   6.407  35.542  10.463
91911W        W51007  41.010  15.801  11.515
91912W        W51008  31.576  15.722  12.902
91913W        W51009  42.453  23.610   2.250
91914W        W51010   7.681   8.742   5.195
91915W        W51011  27.488  43.514  12.419
91916W        W51012  36.529  22.523  11.434
91917W        W51013  20.201  31.085   1.853
91918W        W51014  28.448  12.285   4.125
91919W        W51015   1.445  21.047   3.357
91920W        W51016  22.103   8.869  13.943
91921W        W51017  20.703   7.794  12.058
91922W        W51018  11.244  13.729  10.407
91923W        W51019  16.778  10.669   1.412
91924W        W51020  39.337  17.186  13.386
91925W        W51021  39.026   5.921   1.383
91926W        W51022  35.590  11.690   3.340
91927W        W51023   5.701   8.379   2.663
91928W        W51024  40.852  29.954  14.836
91929W        W51025  31.927  21.056   2.756
91930W        W51026  13.661   3.419  12.949
91931W        W51027  16.257   4.757  13.314
91932W        W51028  13.289  43.396  11.573
91933W        W51029  28.625  23.111  13.421
91934W        W51030  26.591   0.828   3.780
91935W        W51031   1.449  31.153  13.445
91936W        W51032   9.784   9.230  13.026
91937W        W51033  42.379  21.678  13.450
91938W        W51034  29.461  32.469  12.984
91939W        W51035  29.117  42.498   1.340
91940W        W51036   1.853  20.525  14.330
91941W        W51037   5.348  25.617   0.909
91942W        W51038  18.699   8.345  10.566
91943W        W51039   3.720  40.418   0.899
91944W        W51040  38.045  25.098   3.270
91945W        W51041   9.189  36.092  14.758
91946W        W51042  37.009  37.017  12.431
91947W        W51043  38.821  37.061  14.447
91948W        W51044  12.280  13.310  11.602
91949W        W51045  26.553   3.308   2.393
91950W        W51046  21.699  24.690   1.738
91951W        W51047  37.882  23.066   1.896
91952W        W51048   3.954   9.362  13.433
91953W        W51049  26.084   9.187   3.373
91954W        W51050  40.034  33.418   1.874
91955W        W51051  38.969  39.355   1.740
91956W        W51052   7.174  31.505  10.642
91957W        W51053  43.912  29.581  13.374
91958W        W51054  35.527  35.427   3.870
91959W        W51055  34.528  22.648  11.048
91960W        W51056  23.593   7.255   0.858
91961W        W51057  34.427  25.509  12.509
91962W        W51058  44.300   3.748  12.496
91963W        W51059  34.019  15.626   3.306
91964W        W51060  43.970  28.607  10.511
91965W        W51061  21.121  31.127   5.278
91966W        W51062   0.483  30.567  13.933
91967W        W51063  29.521  20.663  11.452
91968W        W51064  36.510  33.026  12.859
91969W        W51065  31.512  38.891  13.465
91970W        W51066  16.304  26.642  12.459
91971W        W51067  18.174  26.197  11.448
91972W        W51068  25.060  28.572  10.594
91973W        W51069  22.085  26.048   1.232
91974W        W51070  27.686  22.508  14.026
91975W        W51071  23.209  17.108   2.339
91976W        W51072  28.013  18.707   4.187
91977W        W51073  31.096  43.386  11.927
91978W        W51074   9.786  28.093  13.803
91979W        W51075  38.953  24.587   0.877
91980W        W51076   4.324  29.006  13.862
91981W        W51077  19.116  44.305   3.303
91982W        W51078  27.574  42.523   3.208
91983W        W51079  32.493  29.461  12.404
91984W        W51080  14.265  27.547  12.065
91985W        W51081   2.756  32.064  10.501
91986W        W51082  29.464   2.892   3.305
91987W        W51083  37.410   9.674   1.430
91988W        W51084  29.525  42.952  13.950
91989W        W51085  29.919  15.821  13.988
91990W        W51086   1.949  13.687   4.776
91991W        W51087   0.849   7.279  12.422
91992W        W51088  16.682  26.114  14.783
91993W        W51089   7.260  32.441   3.705
91994W        W51090  37.463   6.772  10.425
91995W        W51091   9.774   6.235  12.892
91996W        W51092   4.207  13.764  13.355
91997W        W51093  28.533  24.013  13.837
91998W        W51094  39.473   1.744   0.800
91999W        W51095   0.272  17.626   4.753
92000W        W51096  31.532  44.420   1.341
92001W        W51097  14.156  39.859  10.942
92002W        W51098  39.374  35.936  11.945
92003W        W51099  20.619  30.009   4.143
92004W        W51100  32.053   9.279  10.532
92005W        W51101  18.604   6.272   2.302
92006W        W51102   7.775  37.505   0.807
92007W        W51103   1.789  13.749  12.498
92008W        W51104  23.203   3.326  10.415
92009W        W51105  29.524   3.781   0.857
92010W        W51106  32.532   0.473  14.790
92011W        W51107  39.916   3.370   4.139
92012W        W51108   3.730  17.193   4.612
92013W        W51109  22.678  16.714  11.888
92014W        W51110  31.594  25.661   4.748
92015W        W51111  41.297  34.075  14.388
92016W        W51112  26.552   2.338   1.266
92017W        W51113  38.847  28.654   2.194
92018W        W51114   3.328  41.389   2.867
92019W        W51115  24.519  15.211   4.649
92020W        W51116  14.625  44.351  13.017
92021W        W51117  25.090  29.549  14.421
92022W        W51118  44.271  20.140  14.888
92023W        W51119   1.788  21.513   1.710
92024W        W51120  28.443   1.872  14.863
92025W        W51121  13.182  25.174  14.336
92026W        W51122   1.930  22.631  14.991
92027W        W51123  15.301   5.364  10.893
92028W        W51124  16.568   2.231  13.954
92029W        W51125  35.413   4.708  10.896
92030W        W51126  11.854   5.751   2.316
92031W        W51127  18.765  39.934   1.305
92032W        W51128   0.354  26.204   2.899
92033W        W51129  18.780  41.809   1.367
92034W        W51130   3.881  20.680   3.302
92035W        W51131  12.147  18.745  10.888
92036W        W51132  20.142  18.742  10.909
92037W        W51133  38.535  33.954   0.923
92038W        W51134  28.035  44.479  14.311
92039W        W51135  27.151  40.386  10.498
92040W        W51136  10.179   7.220   1.357
92041W        W51137  17.593  21.142  10.971
92042W        W51138  40.962   7.359   1.231
92043W        W51139  21.536  23.660  12.368
92044W        W51140  22.539  13.659  10.511
92045W        W51141   3.344  30.423   4.314
92046W        W51142  23.194  27.053   3.265
92047W        W51143  42.987  19.661  10.625
92048W        W51144  28.152  45.000  14.006
92049W        W51145  41.818  15.092  11.103
92050W        W51146  28.524  32.923  14.984
92051W        W51147  38.398  34.433  13.989
92052W        W51148   5.875  21.086  12.080
92053W        W51149   9.371  33.383   4.756
92054W        W51150  14.649  17.736   1.272
92055W        W51151  22.673  36.983  12.848
92056W        W51152  29.628  12.199  11.517
92057W        W51153  19.096  33.480   4.167
92058W        W51154  39.517  34.468   2.360
92059W        W51155  42.791   2.288   4.692
92060W        W51156   0.255  19.616  13.868
92061W        W51157  14.105  21.260  12.850
92062W        W51158   6.274  37.419  13.505
92063W        W51159  38.921  33.386  10.430
92064W        W51160  12.834  29.647   0.939
92065W        W51161  16.121  32.109   0.864
92066W        W51162  31.599   5.691   4.163
92067W        W51163  33.496  33.881   3.833
92068W        W51164   2.797  33.973   4.721
92069W        W51165  12.778   0.334   3.347
92070W        W51166  22.654  43.959  10.926
92071W        W51167  35.390   1.432  10.525
92072W        W51168  11.804  36.982  11.408
92073W        W51169  18.295  42.944  12.855
92074W        W51170  19.649  36.078  14.829
92075W        W51171   2.868  15.283   2.810
92076W        W51172  12.682  41.351   1.433
92077W        W51173  34.413  32.142   1.386
92078W        W51174  27.507  20.576  14.782
92079W        W51175   4.707  35.906  13.038
92080W        W51176  30.163  44.407  12.560
92081W        W51177  39.814  35.911  14.762
92082W        W51178  33.389  33.515  13.997
92083W        W51179  12.164  14.827   4.251
92084W        W51180  14.610  41.003   0.334
92085W        W51181  24.142  31.629   0.925
92086W        W51182  34.456   5.728   1.397
92087W        W51183  24.228   7.407   0.735
92088W        W51184   1.416  14.261  13.902
92089W        W51185  40.369  24.048   4.181
92090W        W51186  36.439  10.217  12.561
92091W        W51187  20.205  11.351   1.423
92092W        W51188  40.449  25.549   4.614
92093W        W51189  33.532   8.693   4.143
92094W        W51190  34.055  19.649   4.326
92095W        W51191  34.590  43.421  11.517
92096W        W51192  23.540  24.597   4.757
92097W        W51193  36.051  16.273   5.676
92098W        W51194   8.205  25.567  13.462
92099W        W51195  26.183  25.479  10.966
92100W        W51196  21.221  11.280   4.797
92101W        W51197  27.960   9.377  10.539
92102W        W51198  20.238  43.329  12.832
92103W        W51199  12.741  35.064   0.784
92104W        W51200   2.809  33.090   3.826
92105W        W51201   3.779  30.595  13.506
92106W        W51202  25.218  37.845   2.766
92107W        W51203   4.318  16.798   4.157
92108W        W51204  33.949   1.836   2.329
92109W        W51205  24.517  21.206   0.248
92110W        W51206  42.870  12.671  14.760
92111W        W51207  42.364  36.454   0.413
92112W        W51208  31.534  17.615   0.750
92113W        W51209  34.051  23.211  11.608
92114W        W51210  23.679  40.870  10.897
92115W        W51211  27.055  41.990  14.999
92116W        W51212   3.239  40.801   3.857
92117W        W51213  40.987  34.944   1.897
92118W        W51214  25.006   4.717  13.411
92119W        W51215  16.156  24.587  12.000
92120W        W51216  39.471   1.398   4.133
92121W        W51217  25.196  16.756  14.923
92122W        W51218  32.125  14.188  10.985
92123W        W51219  33.542  10.674   4.204
92124W        W51220   9.823   3.782  11.124
92125W        W51221  44.411  43.452  11.874
92126W        W51222  10.182  16.685   0.322
92127W        W51223  28.630  37.034  13.851
92128W        W51224  29.475  17.721  14.436
92129W        W51225  37.989   6.727  14.357
92130W        W51226   0.820  17.789  10.986
92131W        W51227  25.485  32.887   1.892
92132W        W51228  20.657  28.181   0.729
92133W        W51229  44.496  28.484  12.884
92134W        W51230   7.303   3.281   3.862
92135W        W51231  27.179  17.147  10.471
92136W        W51232   7.253  27.473   0.786
92137W        W51233  11.658  37.077  12.421
92138W        W51234  10.791  20.631  10.140
92139W        W51235  22.502  37.372   3.179
92140W        W51236  36.096   3.847  14.480
92141W        W51237  37.418  20.193   3.334
92142W        W51238  34.564  42.927  11.054
92143W        W51239   0.481   7.712   2.785
92144W        W51240  15.619  27.630  11.097
92145W        W51241   9.840  41.407  10.577
92146W        W51242  18.132  13.206   3.275
92147W        W51243  34.416  37.348  14.952
92148W        W51244  32.433  23.046   4.718
92149W        W51245   6.864  22.580  11.042
92150W        W51246  26.191  43.412  14.334
92151W        W51247  37.955   7.669  10.467
92152W        W51248  16.702  42.504  13.858
92153W        W51249  25.590  30.504  12.898
92154W        W51250   3.864  42.931   2.310
92155W        W51251  40.490   8.868  11.464
92156W        W51252  26.105  32.570  10.031
92157W        W51253   2.467  11.326   0.457
92158W        W51254  21.071   3.292   3.258
92159W        W51255   0.333   4.862   4.230
92160W        W51256  21.699  17.191  12.449
92161W        W51257   2.725  22.230  13.426
92162W        W51258   3.889  22.577   0.913
92163W        W51259  15.163   7.743  14.795
92164W        W51260  20.196  25.496   2.864
92165W        W51261   7.764  12.755  13.327
92166W        W51262  25.029  24.487   3.223
92167W        W51263   8.797  38.017  10.526
92168W        W51264  34.893  21.136   9.978
92169W        W51265  32.468  38.400   0.946
92170W        W51266  25.156  27.605  11.107
92171W        W51267  36.373  22.619   1.713
92172W        W51268  28.049  23.734  12.890
92173W        W51269  16.637  27.646  13.041
92174W        W51270  36.910  22.141   3.781
92175W        W51271  35.451  37.049  13.933
92176W        W51272  34.598  43.306   1.796
92177W        W51273  13.674  18.787  10.906
92178W        W51274  25.702  40.853   0.822
92179W        W51275  17.179   7.678  12.046
92180W        W51276  12.120   3.762   3.251
92181W        W51277  19.047  40.000  10.475
92182W        W51278  18.251  18.081  13.359
92183W        W51279  22.685  29.656  13.438
92184W        W51280  18.568  20.721   1.408
92185W        W51281  20.076  35.522  13.853
92186W        W51282  37.935   4.890   3.335
92187W        W51283  27.121  21.170   1.385
92188W        W51284  41.831  12.752  14.822
92189W        W51285  26.996   1.838   1.712
92190W        W51286  28.464   9.648   4.670
92191W        W51287  10.228  29.531  14.019
92192W        W51288  13.628   1.975  13.529
92193W        W51289  19.571  39.045  12.504
92194W        W51290  14.221  32.897   2.838
92195W        W51291   7.385   4.865   1.865
92196W        W51292  30.058   5.219   1.304
92197W        W51293  41.904  44.810   2.378
92198W        W51294   8.696  31.611  14.841
92199W        W51295  41.022   8.195   4.133
92200W        W51296  13.122  14.754   2.803
92201W        W51297  26.985  27.525  12.576
92202W        W51298  29.625  41.874  14.775
92203W        W51299  17.729  36.054  13.916
92204W        W51300  39.480  28.154   2.398
92205W        W51301   6.889  22.186  11.100
92206W        W51302  25.100  41.300   3.760
92207W        W51303  32.018   1.797  11.059
92208W        W51304  40.453  37.086  12.527
92209W        W51305   9.383  28.584   4.302
92210W        W51306  15.647  35.018   1.705
92211W        W51307  30.908  22.633  12.932
92212W        W51308  16.722   1.842  13.889
92213W        W51309  18.282  21.165  11.607
92214W        W51310  40.498  27.978   0.809
92215W        W51311  35.399   2.324   4.721
92216W        W51312   4.377  19.731  13.492
92217W        W51313   2.250   3.859  13.941
92218W        W51314  16.629  43.483  14.370
92219W        W51315   4.763  37.955   2.183
92220W        W51316  41.327  33.531  13.374
92221W        W51317  44.486   3.856   2.788
92222W        W51318  40.034  36.586  10.967
92223W        W51319  35.882   3.902   2.388
92224W        W51320  35.984  36.503  11.900
92225W        W51321  32.001  31.995   4.659
92226W        W51322  44.313  32.071  14.479
92227W        W51323  31.086   8.844   0.322
92228W        W51324  34.595  43.809   4.662
92229W        W51325  38.326  21.187   3.738
92230W        W51326   2.348  16.092   2.279
92231W        W51327  12.830  30.917  14.483
92232W        W51328   2.273   7.360  13.051
92233W        W51329   9.181  18.573   1.901
92234W        W51330  35.472  32.497  13.810
92235W        W51331  37.470   7.826   5.131
92236W        W51332   0.808  33.988  11.864
92237W        W51333  20.047  35.496   3.297
92238W        W51334  23.623  31.037  10.939
92239W        W51335  16.201  26.127  13.541
92240W        W51336  26.026   1.905  11.983
92241W        W51337  14.263  33.575   5.220
92242W        W51338  42.471   3.289  14.969
92243W        W51339  20.726  21.173   2.687
92244W        W51340  37.388  20.265   5.167
92245W        W51341  14.762  29.584   1.799
92246W        W51342  40.862  19.750  12.892
92247W        W51343  41.989  12.653   2.816
92248W        W51344  38.414  12.288  10.518
92249W        W51345   4.362  43.865  13.806
92250W        W51346  16.306  31.493   0.482
92251W        W51347  31.042  38.455  13.893
92252W        W51348  21.639  11.253  11.963
92253W        W51349  12.298  33.499   0.400
92254W        W51350   5.692  29.438  13.355
92255W        W51351  27.670   7.744  11.529
92256W        W51352  34.949  10.193  11.563
92257W        W51353  26.475  10.185  13.810
92258W        W51354   5.373  43.301  14.957
92259W        W51355  42.882  39.461   2.305
92260W        W51356  11.128  18.773  12.827
92261W        W51357  38.426  37.527   3.287
92262W        W51358  21.104  12.123  13.854
92263W        W51359  39.988  29.646   1.351
92264W        W51360  22.126  12.680  12.425
92265W        W51361  32.946   7.368  14.308
92266W        W51362  12.236  17.698  13.405
92267W        W51363  16.621  11.819   2.729
92268W        W51364  44.862  39.835   2.290
92269W        W51365  42.018  13.626  13.370
92270W        W51366  41.348  31.116  12.899
92271W        W51367  29.125   5.298  12.541
92272W        W51368  26.957   7.900  12.924
92273W        W51369  29.428  29.439   3.779
92274W        W51370  41.991  40.983   1.708
92275W        W51371  34.591  44.996  14.802
92276W        W51372  33.951  14.640  11.123
92277W        W51373  29.948  21.738  12.010
92278W        W51374  30.645   0.859   1.823
92279W        W51375  19.071  26.159  12.392
92280W        W51376  41.518  22.659  11.894
92281W        W51377  39.912  27.014   2.721
92282W        W51378  36.954  19.165   3.214
92283W        W51379  13.349  40.970   3.341
92284W        W51380  37.062   7.814  12.837
92285W        W51381  22.996  33.383   3.229
92286W        W51382  25.189   4.743  11.997
92287W        W51383  17.110  34.491   5.718
92288W        W51384  38.444   9.292  14.839
92289W        W51385  27.992  25.580   4.752
92290W        W51386  44.489  12.628   3.154
92291W        W51387  34.614   6.402  14.346
92292W        W51388  38.055  41.330   2.304
92293W        W51389  29.666  33.946   1.831
92294W        W51390  23.719  23.044  10.608
92295W        W51391  36.566  38.880   0.349
92296W        W51392  18.787  27.684   4.187
92297W        W51393  13.212  26.160   4.290
92298W        W51394   8.197  15.579  10.932
92299W        W51395  43.014  39.040   1.245
92300W        W51396   6.339  14.286   5.250
92301W        W51397   2.855  16.719  14.492
92302W        W51398  34.516   5.281  13.797
92303W        W51399  34.476  30.441  14.449
92304W        W51400  22.112  26.495   3.707
92305W        W51401  23.079  27.463   1.431
92306W        W51402  23.091  41.311   4.162
92307W        W51403  15.274  43.274   0.474
92308W        W51404  32.993  26.997   0.742
92309W        W51405  33.896  41.822  14.011
92310W        W51406  11.339   2.890  13.870
92311W        W51407   4.916   0.961  13.890
92312W        W51408  39.848  42.837  14.822
92313W        W51409  44.396  37.578   3.838
92314W        W51410  12.622  17.213  10.094
92315W        W51411  38.835  37.400  12.938
92316W        W51412  24.097  16.276  13.454
92317W        W51413  39.348  14.622  10.907
92318W        W51414  34.401   9.703  13.955
92319W        W51415  38.000  11.651   1.784
92320W        W51416   1.900  11.341  13.502
92321W        W51417  29.025  43.994  11.501
92322W        W51418  13.326   2.870  12.039
92323W        W51419  31.451  35.480   2.863
92324W        W51420   8.790  17.724   0.268
92325W        W51421  30.119   2.952  14.481
92326W        W51422   4.272   5.348   3.816
92327W        W51423  31.596  35.510   3.249
92328W        W51424  24.678  13.278  13.836
92329W        W51425  17.290   4.436   3.179
92330W        W51426  19.169   8.270   9.943
92331W        W51427  24.006  23.126  13.377
92332W        W51428  11.848  28.141  12.509
92333W        W51429   1.951  37.956   2.358
92334W        W51430  26.078  12.676   0.903
92335W        W51431   4.863  39.439   0.328
92336W        W51432  24.108  24.618   4.802
92337W        W51433   2.290  22.129  11.015
92338W        W51434  10.823  38.918  14.443
92339W        W51435  18.061  32.894   3.739
92340W        W51436  16.245  34.485   1.844
92341W        W51437  34.610   3.880  14.976
92342W        W51438   9.187  35.569   1.402
92343W        W51439   0.437  37.086   1.277
92344W        W51440  23.986  34.462   1.911
92345W        W51441   6.400  30.640  13.947
92346W        W51442  42.364  21.172  12.933
92347W        W51443   1.336  19.604   0.295
92348W        W51444  17.217  26.168  10.531
92349W        W51445  20.643  22.108  11.413
92350W        W51446   8.766  15.323  11.593
92351W        W51447  12.666   1.350   1.777
92352W        W51448   7.820  20.052   0.885
92353W        W51449   7.305  17.258  14.910
92354W        W51450  25.510  17.566  13.872
92355W        W51451  17.085  30.115  12.082
92356W        W51452  18.561  12.717   5.275
92357W        W51453  30.597  14.291   4.772
92358W        W51454  38.008  22.221   2.689
92359W        W51455  27.087  26.096  13.423
92360W        W51456  43.768   2.292   3.383
92361W        W51457  21.701  18.750   1.352
92362W        W51458   5.775  19.258   4.767
92363W        W51459  26.655   6.314   2.373
92364W        W51460  24.570  33.933   3.633
92365W        W51461   2.779  25.688  14.287
92366W        W51462   4.898  35.432  11.894
92367W        W51463  31.428  18.740  14.812
92368W        W51464  22.085   9.231   1.900
92369W        W51465  18.152  19.161   0.947
92370W        W51466  38.371  10.194   2.713
92371W        W51467  11.624  25.467   0.781
92372W        W51468  17.560  39.914   3.216
92373W        W51469  15.661  31.508   2.674
92374W        W51470  29.428  31.576  11.904
92375W        W51471  38.860   4.344  10.025
92376W        W51472  18.651  15.088  12.035
92377W        W51473   9.713   6.182   2.189
92378W        W51474  25.539  24.042  12.390
92379W        W51475  37.083  11.151  10.022
92380W        W51476   7.332  11.749   4.236
92381W        W51477   6.919  40.545  13.520
92382W        W51478  30.934  26.544  11.559
92383W        W51479  24.532  34.546   0.895
92384W        W51480  14.336  16.811   5.265
92385W        W51481  44.285   1.946  12.421
92386W        W51482  33.561  24.524   0.454
92387W        W51483  24.092   5.922   3.346
92388W        W51484  28.639  15.287   4.312
92389W        W51485  28.028  30.651  12.019
92390W        W51486  42.390  39.937   4.655
92391W        W51487  38.068  13.161   2.268
92392W        W51488  26.978   1.304   2.689
92393W        W51489  24.976  14.700   2.727
92394W        W51490  18.746   6.269  11.528
92395W        W51491  29.642   0.360   1.339
92396W        W51492  15.766  11.284  12.054
92397W        W51493  11.282  31.611  10.953
92398W        W51494  33.566   4.330  14.427
92399W        W51495   9.176   7.782   2.810
92400W        W51496  14.633  37.908  10.890
92401W        W51497  37.543  18.212   2.348
92402W        W51498   9.843  23.063   4.296
92403W        W51499  44.451  13.237  12.013
92404W        W51500  23.093  26.542   3.200
92405W        W51501  13.676  12.117  14.452
92406W        W51502  20.697  44.796   0.758
92407W        W51503  29.566  26.049  11.093
92408W        W51504  20.659  31.596  11.037
92409W        W51505  21.569  14.614   0.754
92410W        W51506  31.420   1.431   0.828
92411W        W51507  25.593  15.289  14.828
92412W        W51508   9.336  39.554   0.313
92413W        W51509  30.616  22.192  10.498
92414W        W51510  23.677  17.071   1.846
92415W        W51511   9.681  17.191   1.807
92416W        W51512  27.010  39.043   0.416
92417W        W51513  16.732  41.841  10.410
92418W        W51514  13.613  34.511  11.517
92419W        W51515   6.872  29.135   3.644
92420W        W51516   9.770  18.119   5.664
92421W        W51517   5.753  25.985  12.016
92422W        W51518  28.039  42.465   3.190
92423W        W51519  23.084  25.089  14.331
92424W        W51520  18.692  14.700  10.635
92425W        W51521  20.541  40.022   2.246
92426W        W51522  22.550  22.172  14.990
92427W        W51523  10.149   0.362  12.070
92428W        W51524  35.923  31.537  10.968
92429W        W51525  44.874  42.025   3.210
92430W        W51526  23.538   0.297   3.697
92431W        W51527   3.788   7.193   0.354
92432W        W51528   9.886  28.938  12.524
92433W        W51529  40.318   1.884  10.079
92434W        W51530   9.388  38.944   2.848
92435W        W51531  38.003  40.950   0.257
92436W        W51532  26.997  24.136  12.958
92437W        W51533  25.646  16.606  11.554
92438W        W51534  12.687  31.925   4.616
92439W        W51535  21.665  30.521  14.279
92440W        W51536   1.955  31.513  14.841
92441W        W51537  44.794  12.307   2.674
92442W        W51538  14.596  13.641   4.627
92443W        W51539  28.484  17.296  12.361
92444W        W51540   1.918   8.313   4.738
92445W        W51541   2.304  36.416   0.424
92446W        W51542  18.751  27.605  10.463
92447W        W51543   8.706  32.939  13.016
92448W        W51544  12.718  10.143  13.041
92449W        W51545   4.265  41.037   2.770
92450W        W51546  14.338  15.176  11.416
92451W        W51547  17.562  18.208   4.170
92452W        W51548  40.888  15.316   1.837
92453W        W51549  25.569   3.900   2.188
92454W        W51550  23.491  25.635  12.513
92455W        W51551  32.933  27.496  13.037
92456W        W51552  14.692  13.610   1.783
92457W        W51553  30.105  16.246   1.267
92458W        W51554  44.843  22.732  13.389
92459W        W51555  11.806   4.788   1.705
92460W        W51556  16.300   0.903   3.714
92461W        W51557  16.617  13.800  12.391
92462W        W51558  17.583  24.704   3.727
92463W        W51559   5.739  30.653  14.501
92464W        W51560  24.231  32.602   0.253
92465W        W51561  24.106  39.049  14.903
92466W        W51562  38.464  43.382  12.433
92467W        W51563  27.038  11.135  10.584
92468W        W51564  40.808  30.545   2.293
92469W        W51565  16.589  10.652  10.588
92470W        W51566   7.780   5.901   0.392
92471W        W51567  35.460  13.724   2.236
92472W        W51568  31.498  30.973  10.523
92473W        W51569  20.611  22.534   2.393
92474W        W51570  16.599  17.151   2.714
92475W        W51571  36.093   2.258   0.459
92476W        W51572  32.608  25.112   3.363
92477W        W51573  30.616  13.118   0.466
92478W        W51574  41.858   0.348  12.565
92479W        W51575  44.370   4.853  14.816
92480W        W51576   2.270  39.424   4.789
92481W        W51577  15.091  42.315   4.272
92482W        W51578  27.505  33.913  10.989
92483W        W51579  33.879  32.396   2.350
92484W        W51580   4.901  16.163   0.320
92485W        W51581  35.987  12.258   4.207
92486W        W51582  36.516  38.347  11.577
92487W        W51583  23.666  23.064  14.891
92488W        W51584  12.849   9.724  14.468
92489W        W51585  17.792  16.725   1.417
92490W        W51586   7.862   4.891  14.495
92491W        W51587  26.954  23.680   1.865
92492W        W51588  20.109  44.936  13.909
92493W        W51589   8.165  23.188   1.264
92494W        W51590   1.308  37.010  13.042
92495W        W51591  20.224  44.345  10.003
92496W        W51592  40.018  23.149   0.808
92497W        W51593  35.026  19.117   1.324
92498W        W51594  20.211  17.669   4.154
92499W        W51595  39.855  29.627  13.500
92500W        W51596  20.061  40.515   1.725
92501W        W51597  29.989  43.978  12.372
92502W        W51598  32.631   4.216   0.742
92503W        W51599  21.697   8.747   0.950
92504W        W51600  13.341  19.118  13.498
92505W        W51601  30.128  12.341  10.532
92506W        W51602  42.827   9.360  11.500
92507W        W51603  25.696  19.062  14.333
92508W        W51604  42.857  39.363  12.080
92509W        W51605  21.606   1.395   1.234
92510W        W51606  41.409  21.069   0.827
92511W        W51607  11.852  40.367  13.447
92512W        W51608  40.845  25.071  12.969
92513W        W51609   9.727   2.397  11.493
92514W        W51610   8.813  11.827   5.290
92515W        W51611   9.704  33.455   3.797
92516W        W51612  40.906  14.803  11.575
92517W        W51613  27.006  23.240  14.788
92518W        W51614  29.946   9.183  13.383
92519W        W51615  25.705  19.226  10.997
92520W        W51616  30.979  34.893   2.325
92521W        W51617   2.438  17.068  12.939
92522W        W51618   5.868  10.210   3.773
92523W        W51619  11.780  20.753  12.952
92524W        W51620  41.831   3.887  14.469
92525W        W51621  11.715  12.243  14.385
92526W        W51622  34.568  20.554  13.516
92527W        W51623   9.191   4.321   2.783
92528W        W51624  18.779  29.638  11.898
92529W        W51625   0.483   7.814   4.300
92530W        W51626  41.827  43.008   2.737
92531W        W51627  13.213   2.288  12.030
92532W        W51628  12.174  23.216  13.439
92533W        W51629   3.432  14.783   0.279
92534W        W51630  44.817  16.304  13.997
92535W        W51631  33.933  36.966   0.337
92536W        W51632   1.870  35.094  13.361
92537W        W51633   3.305  29.995  11.384
92538W        W51634   9.810  10.673   2.877
92539W        W51635  17.138  26.630   0.839
92540W        W51636  32.937  42.960  10.417
92541W        W51637   0.742  28.950   1.348
92542W        W51638  28.093   7.234  14.865
92543W        W51639  34.405  28.605   0.249
92544W        W51640  23.239  30.537   0.322
92545W        W51641  40.536   6.291  11.437
92546W        W51642  40.018  17.215   4.288
92547W        W51643  39.509  33.584  12.095
92548W        W51644  43.970  11.704   2.725
92549W        W51645  14.727  25.979   3.304
92550W        W51646  41.317  13.613  12.501
92551W        W51647  40.531  42.997  12.502
92552W        W51648  32.886   8.388   0.429
92553W        W51649   3.438  14.802  14.822
92554W        W51650  15.152   7.333  11.920
92555W        W51651  21.604  13.629   1.422
92556W        W51652  39.518   3.272  13.367
92557W        W51653  13.751  26.085   1.709
92558W        W51654  13.115  31.540   2.686
92559W        W51655  23.564   1.270  11.585
92560W        W51656  21.082  25.141   2.728
92561W        W51657  24.087  15.286  14.344
92562W        W51658  24.104   7.388   5.313
92563W        W51659  15.743  37.520  10.459
92564W        W51660  19.087   1.469   2.813
92565W        W51661  18.624   0.452  14.799
92566W        W51662  25.566  25.615  11.069
92567W        W51663  32.099  21.073   4.152
92568W        W51664  38.516  33.541  10.570
92569W        W51665  21.030  28.548   3.361
92570W        W51666  10.696   4.875   1.765
92571W        W51667  30.014   7.244   2.899
92572W        W51668  37.909  14.294   1.416
92573W        W51669  27.619  28.065   4.355
92574W        W51670  30.574   5.213   3.222
92575W        W51671  21.154  15.675  10.055
92576W        W51672  26.526  13.320  11.048
92577W        W51673  38.074  16.101  13.828
92578W        W51674  44.375  31.439   2.282
92579W        W51675  12.352   1.379  12.563
92580W        W51676  31.907  30.589   4.244
92581W        W51677   7.868  17.264   4.141
92582W        W51678  40.900  23.550  10.459
92583W        W51679   4.406  34.502   2.783
92584W        W51680   8.718  12.733   3.219
92585W        W51681  19.713  42.472  12.959
92586W        W51682  33.614  22.707   0.457
92587W        W51683  35.411  26.661   4.141
92588W        W51684  21.044  21.560  12.510
92589W        W51685  16.229  24.018  10.427
92590W        W51686  22.211  34.008  11.583
92591W        W51687   6.918  36.449   1.401
92592W        W51688  10.808  44.771   3.735
92593W        W51689   5.241  18.066   0.343
92594W        W51690  28.536   4.293  12.967
92595W        W51691  17.201   6.426   0.787
92596W        W51692   2.467  24.037   5.208
92597W        W51693  44.927  11.849  11.425
92598W        W51694   6.341  23.154   3.761
92599W        W51695  30.467   5.903  11.612
92600W        W51696  23.181  34.034   2.711
92601W        W51697   4.205  22.692  11.467
92602W        W51698  40.958  13.794   1.731
92603W        W51699  31.480  21.169  11.375
92604W        W51700  40.001  29.107   4.322
92605W        W51701  43.983  33.985  10.598
92606W        W51702  23.053  29.062  11.446
92607W        W51703   3.434  15.182   3.656
92608W        W51704  20.059  37.043   3.266
92609W        W51705  33.047   1.943   2.323
92610W        W51706  40.466  41.788   1.291
92611W        W51707  24.702   1.335   1.907
92612W        W51708  23.569  20.620  13.980
92613W        W51709  28.617  40.375  12.550
92614W        W51710  36.395  21.524  14.855
92615W        W51711  33.485  34.936   0.761
92616W        W51712   7.751   7.778   0.910
92617W        W51713  29.148  16.661   3.677
92618W        W51714  24.057  42.002  12.973
92619W        W51715  10.844   1.349   3.313
92620W        W51716   5.748   9.257   1.715
92621W        W51717  18.629   3.358  14.849
92622W        W51718  14.247  14.161   2.210
92623W        W51719  33.906  32.046   1.821
92624W        W51720   7.665  35.937  13.975
92625W        W51721  44.853  36.505  12.843
92626W        W51722  25.538  22.646  10.619
92627W        W51723  43.879  40.541   0.318
92628W        W51724  20.624  15.321  11.918
92629W        W51725   4.877  41.525  10.508
92630W        W51726   6.769   5.813  12.450
92631W        W51727  28.652   3.428   3.650
92632W        W51728  28.649  27.604   1.259
92633W        W51729  43.431  21.707   0.243
92634W        W51730   0.888  32.080  10.955
92635W        W51731  39.925   5.241  10.967
92636W        W51732  30.601   8.272  14.500
92637W        W51733  41.377  41.419  10.988
92638W        W51734  12.253  12.156   3.860
92639W        W51735  21.619   7.874  14.317
92640W        W51736   7.889  12.117  10.993
92641W        W51737  25.501  32.089  13.424
92642W        W51738  27.683  43.929   0.257
92643W        W51739  16.085   2.779   3.864
92644W        W51740  31.966   0.876   3.679
92645W        W51741  12.357  38.340  12.467
92646W        W51742   1.821  21.067  14.505
92647W        W51743  15.598  28.637   2.285
92648W        W51744  38.404  29.945   2.375
92649W        W51745   1.968   5.924  14.288
92650W        W51746  28.435  20.679  10.491
92651W        W51747   9.836  10.712   1.786
92652W        W51748  36.841   4.229  11.575
92653W        W51749  12.715  37.979  13.968
92654W        W51750  23.630  38.547   2.339
92655W        W51751  40.843  30.511  12.950
92656W        W51752  31.025  39.329  11.986
92657W        W51753  37.482  23.589   0.885
92658W        W51754  13.346  41.472  11.434
92659W        W51755  19.188  18.214  14.461
92660W        W51756  25.707   3.403  12.501
92661W        W51757   1.331  21.592   2.826
92662W        W51758  11.313   4.387  11.391
92663W        W51759  29.606  40.450   1.925
92664W        W51760  17.601  19.265   2.345
92665W        W51761  28.009  15.213   1.348
92666W        W51762  25.641  13.108  13.534
92667W        W51763   6.878  10.334   0.347
92668W        W51764  30.911  35.561  12.046
92669W        W51765  20.123   4.405  12.431
92670W        W51766  43.908  31.131   0.760
92671W        W51767  11.708   3.773   1.861
92672W        W51768   3.900  27.637   4.292
92673W        W51769   5.801   2.415  11.946
92674W        W51770   7.378  14.626   3.311
92675W        W51771   5.291  44.982  12.558
92676W        W51772  11.340  22.519   2.704
92677W        W51773   5.388  43.396  10.544
92678W        W51774  30.995  20.103   1.364
92679W        W51775   3.740  12.135   4.637
92680W        W51776  21.140  33.128  10.927
92681W        W51777  39.996  31.080  11.574
92682W        W51778   8.218  35.425   1.818
92683W        W51779   8.854   3.306   1.337
92684W        W51780  37.546  28.679   1.868
92685W        W51781  34.956  15.266  12.499
92686W        W51782   8.374  32.975   1.316
92687W        W51783   6.428  27.107   5.203
92688W        W51784  15.597   8.300   4.288
92689W        W51785  15.745  42.468   4.116
92690W        W51786  34.398   2.889   1.858
92691W        W51787  33.996  21.256   1.363
92692W        W51788  35.411  23.495  12.967
92693W        W51789  42.825   5.280  11.918
92694W        W51790  39.914  12.835   3.848
92695W        W51791  11.144  26.085  13.460
92696W        W51792  31.445  36.520  13.894
92697W        W51793  28.594  23.053   3.650
92698W        W51794  38.464  19.628  14.413
92699W        W51795   5.232  19.096   2.187
92700W        W51796   1.256   5.247   1.861
92701W        W51797  29.105  11.628   1.795
92702W        W51798   5.301  42.000  13.976
92703W        W51799   7.301  27.453   1.233
92704W        W51800  36.979  21.705   1.283
92705W        W51801  16.634  15.781   2.419
92706W        W51802   4.207   8.312   1.362
92707W        W51803  14.720  21.232   5.202
92708W        W51804  33.429  19.172  12.352
92709W        W51805  18.273   7.798   2.803
92710W        W51806  25.704   7.747   2.759
92711W        W51807  11.327  14.300   4.719
92712W        W51808  28.649  30.918  12.865
92713W        W51809  20.199  36.947  11.857
92714W        W51810  31.969   5.317   2.380
92715W        W51811   9.664  32.587  14.799
92716W        W51812   1.932  42.981  13.912
92717W        W51813  28.476  20.602  13.400
92718W        W51814  18.288  38.484   4.336
92719W        W51815   6.324  10.790   1.765
92720W        W51816   1.964  42.959   3.280
92721W        W51817   3.292  35.997  14.816
92722W        W51818  19.135   0.369   1.340
92723W        W51819  39.049   3.855  14.464
92724W        W51820  13.113  18.130   1.330
92725W        W51821  36.964   6.212   2.674
92726W        W51822  23.687  25.538  13.049
92727W        W51823   7.216  44.762   4.275
92728W        W51824   5.245  36.442  10.944
92729W        W51825   1.774  32.940   2.266
92730W        W51826   0.389  13.120  14.907
92731W        W51827  30.618  12.361  13.843
92732W        W51828  42.896  13.233  13.936
92733W        W51829  16.697  37.918   0.410
92734W        W51830  32.572  19.670  14.282
92735W        W51831  27.459   5.210   1.378
92736W        W51832  40.536  28.490   2.729
92737W        W51833   9.195   5.422  10.519
92738W        W51834   8.765   9.302   1.933
92739W        W51835  26.639  15.787   4.196
92740W        W51836  37.955  24.207  11.086
92741W        W51837  32.073  32.485  12.041
92742W        W51838  18.110   0.374  12.517
92743W        W51839  33.050  11.276  13.906
92744W        W51840  30.033  13.683  10.570
92745W        W51841  23.521  34.000   1.325
92746W        W51842  43.368  28.544  12.975
92747W        W51843  24.663  33.961  13.047
92748W        W51844   6.315  17.227   0.854
92749W        W51845  23.165  40.445  11.998
92750W        W51846  28.624   9.247   4.835
92751W        W51847   3.947   4.419  13.985
92752W        W51848  35.461  38.549  11.429
92753W        W51849  37.050   6.767  10.905
92754W        W51850   2.789  21.088   3.350
92755W        W51851  40.435  26.052  13.967
92756W        W51852  29.653   2.839  10.572
92757W        W51853  44.981   8.800  13.893
92758W        W51854  23.613  22.621  12.409
92759W        W51855   1.960  30.512   4.279
92760W        W51856  37.338   0.273  12.886
92761W        W51857   8.837  32.607  11.110
92762W        W51858  10.364  28.966   3.151
92763W        W51859  10.359   2.801   3.718
92764W        W51860  19.269  37.366   5.734
92765W        W51861  36.954  32.055  11.025
92766W        W51862  17.195   0.428   4.828
92767W        W51863  38.423  35.072  11.607
92768W        W51864   5.194  40.920   0.442
92769W        W51865   3.238  20.133  12.973
92770W        W51866  28.171  41.938  14.028
92771W        W51867  34.029  26.637  14.283
92772W        W51868  35.882  25.566   3.232
92773W        W51869  23.526  44.391   1.832
92774W        W51870  32.483   9.345   4.281
92775W        W51871  43.513  23.652   0.382
92776W        W51872  33.461   9.650   0.935
92777W        W51873  22.175  19.612  10.113
92778W        W51874  18.782  18.685  10.629
92779W        W51875  13.717  37.914   1.358
92780W        W51876  23.071  40.881   2.410
92781W        W51877  31.586  32.486  12.577
92782W        W51878  23.661  11.372   4.147
92783W        W51879  28.464  12.157  11.559
92784W        W51880  43.397  43.899  14.852
92785W        W51881  12.657  21.645   1.745
92786W        W51882  13.331  38.450   2.227
92787W        W51883   1.474  27.017  10.520
92788W        W51884  25.045  24.516   3.784
92789W        W51885  39.936  33.963  14.999
92790W        W51886  37.937  19.109  14.922
92791W        W51887  27.183  28.014  12.369
92792W        W51888  12.695   7.694  10.510
92793W        W51889   8.240   2.720  14.874
92794W        W51890  26.953  42.371  12.892
92795W        W51891  42.931  19.659  12.902
92796W        W51892  27.664  43.461   2.859
92797W        W51893  16.147  19.660  13.330
92798W        W51894  36.349  21.042  14.948
92799W        W51895  30.138  20.623  11.530
92800W        W51896  34.936   6.400  13.429
92801W        W51897  11.828  39.033  10.403
92802W        W51898   4.940  41.454   1.258
92803W        W51899  25.686  15.740   9.943
92804W        W51900  24.564  16.302  12.065
92805W        W51901  11.729  20.547  10.504
92806W        W51902  12.752  37.834   4.677
92807W        W51903   5.758  38.414  14.379
92808W        W51904  19.540  11.732   2.305
92809W        W51905   3.257  21.674  13.048
92810W        W51906  22.115  11.732  11.430
92811W        W51907  12.674  27.608   3.314
92812W        W51908  14.672  27.638  11.459
92813W        W51909  31.950  40.435  12.939
92814W        W51910  13.662  27.990   0.735
92815W        W51911  22.645  37.973  12.401
92816W        W51912  18.273   1.430  10.892
92817W        W51913  31.453  29.614  10.487
92818W        W51914  15.691   1.766   5.284
92819W        W51915  16.751  11.688  14.850
92820W        W51916  10.861  37.372  11.375
92821W        W51917  27.119   1.285  11.394
92822W        W51918   0.853  20.555   1.244
92823W        W51919  21.104  36.551   4.137
92824W        W51920   7.171  17.561  14.932
92825W        W51921  31.946   2.359  12.532
92826W        W51922  32.898  28.679  14.326
92827W        W51923  33.484  38.875  13.373
92828W        W51924  38.370  32.030   3.260
92829W        W51925   9.763  44.950  10.445
92830W        W51926  30.987  37.049   4.286
92831W        W51927   3.837  13.727  13.349
92832W        W51928  36.351   0.261   3.361
92833W        W51929   7.333  36.527   3.376
92834W        W51930  21.672  20.092   4.711
92835W        W51931   6.837  11.789  11.592
92836W        W51932  24.607  39.347   3.712
92837W        W51933   3.741  36.494  14.935
92838W        W51934  42.301  31.567   2.773
92839W        W51935   6.741  33.380  10.477
92840W        W51936   5.199  42.871   0.962
92841W        W51937  30.155  25.980   3.818
92842W        W51938  44.847  42.396   2.858
92843W        W51939  15.618  18.275   2.694
92844W        W51940  26.537  43.422  12.073
92845W        W51941   4.264  16.112  12.405
92846W        W51942  30.504  25.050  13.008
92847W        W51943   5.425  13.188  12.380
92848W        W51944  37.027  43.445   4.292
92849W        W51945  24.215   6.880  13.927
92850W        W51946  22.685  31.643   2.845
92851W        W51947  26.617   8.194  11.986
92852W        W51948  41.855  27.008   3.680
92853W        W51949  31.439  22.597   2.337
92854W        W51950  25.681  32.996   1.323
92855W        W51951  30.564  37.452  13.375
92856W        W51952  15.171   3.940  12.895
92857W        W51953   6.864  21.717   9.993
92858W        W51954  29.521  44.900   4.233
92859W        W51955  17.629   0.977   0.775
92860W        W51956  36.960  10.723   2.324
92861W        W51957  15.185  21.740   1.793
92862W        W51958   0.277  19.040  14.393
92863W        W51959  27.022  32.048  13.801
92864W        W51960   9.304  20.666   3.179
92865W        W51961   2.287  23.670  10.619
92866W        W51962  27.047  33.936   2.247
92867W        W51963   4.862   9.239   0.780
92868W        W51964   6.735  21.637  14.465
92869W        W51965  22.161  25.060  11.951
92870W        W51966  14.235   8.757  10.011
92871W        W51967  44.309   6.865  13.494
92872W        W51968  24.595   9.855   2.843
92873W        W51969  21.260  19.100   2.767
92874W        W51970  26.594  19.110   1.451
92875W        W51971   3.216   1.934  10.604
92876W        W51972   1.409   0.358  10.972
92877W        W51973  19.066   1.276  10.542
92878W        W51974  44.959  23.986  10.118
92879W        W51975  21.543  16.138   1.736
92880W        W51976  19.143  36.524   0.321
92881W        W51977  31.041  39.538  13.330
92882W        W51978  15.147  10.779  14.977
92883W        W51979   8.865  21.680   1.315
92884W        W51980  25.484  22.211   3.223
92885W        W51981  35.902  38.995  11.418
92886W        W51982  25.210  26.202  11.875
92887W        W51983  29.617  38.391  12.486
92888W        W51984  31.629  16.729   3.644
92889W        W51985  35.057   1.806  14.506
92890W        W51986  17.224  31.436  13.482
92891W        W51987  25.573  18.184   5.689
92892W        W51988  14.288  20.226   3.208
92893W        W51989   2.455  26.073  13.488
92894W        W51990  26.126  36.402  10.491
92895W        W51991   5.763  27.953   1.907
92896W        W51992  40.360  25.035  14.311
92897W        W51993  42.482  28.601  12.945
92898W        W51994  27.116  24.557  12.063
92899W        W51995  12.225  13.192  10.465
92900W        W51996  20.083   4.246   4.205
92901W        W51997  19.093  28.958  11.964
92902W        W51998  39.421  17.270   3.364
92903W        W51999   1.818  42.422  10.930
92904W        W52000   4.446  40.411   4.751
92905W        W52001  39.550   3.394   0.315
92906W        W52002  30.124  18.209  12.891
92907W        W52003  27.550   6.307  14.354
92908W        W52004  35.523  22.195  10.460
92909W        W52005   8.900   3.354   5.298
92910W        W52006  25.992  24.691   1.802
92911W        W52007  10.713  28.993  12.019
92912W        W52008  30.657   4.345  13.408
92913W        W52009  43.771  12.339   1.928
92914W        W52010  10.306   8.737   2.323
92915W        W52011  30.084   8.322   4.675
92916W        W52012  15.618  17.642   3.631
92917W        W52013  30.550  33.982  11.532
92918W        W52014  39.554  19.550  12.565
92919W        W52015  13.312  20.114   1.793
92920W        W52016  35.871   5.240  13.446
92921W        W52017  24.528  36.944   2.232
92922W        W52018  42.957  29.618   1.868
92923W        W52019   8.732  17.253   2.256
92924W        W52020  35.913  35.943   0.961
92925W        W52021  30.048  20.077  10.977
92926W        W52022  38.948  39.349   2.900
92927W        W52023   4.887  13.258   0.435
92928W        W52024  44.873  36.371   1.871
92929W        W52025  20.233  25.510  10.902
92930W        W52026  44.944  25.036   4.766
92931W        W52027  26.592  38.006   4.635
92932W        W52028  25.109  16.791   3.804
92933W        W52029   9.189  41.478  12.498
92934W        W52030   2.786  18.599  11.022
92935W        W52031   6.871  44.840   0.294
92936W        W52032  19.627  44.816  12.041
92937W        W52033  29.653   6.901   2.340
92938W        W52034   9.865  26.177   3.182
92939W        W52035  22.228  41.878   3.774
92940W        W52036  38.077  40.505  12.417
92941W        W52037  37.491  25.032  14.944
92942W        W52038  41.958   9.703   3.831
92943W        W52039  33.522   5.723   2.712
92944W        W52040  41.488   5.352   3.670
92945W        W52041  31.047   3.215  10.939
92946W        W52042  39.813  10.674  11.864
92947W        W52043  31.632  36.079   0.905
92948W        W52044  39.822  35.101  13.874
92949W        W52045  36.941  24.655   3.656
92950W        W52046  44.805  19.144   1.354
92951W        W52047  42.820  15.126  13.972
92952W        W52048   8.399  41.889   0.943
92953W        W52049  22.143  19.091   2.805
92954W        W52050  21.662   4.226  13.949
92955W        W52051   4.292  18.637  11.538
92956W        W52052  28.571   6.687   4.703
92957W        W52053  42.927  25.020  14.356
92958W        W52054  39.814  26.202   3.738
92959W        W52055  28.951  10.202  14.851
92960W        W52056  10.841  30.622  13.429
92961W        W52057  34.018   9.878   0.366
92962W        W52058  31.974  19.272  14.952
92963W        W52059  31.485  32.527  13.335
92964W        W52060  43.785  20.684  12.374
92965W        W52061  28.478  38.402   3.343
92966W        W52062  20.154  25.199   2.351
92967W        W52063  24.095  43.331   2.881
92968W        W52064  19.199  14.818   2.879
92969W        W52065  20.198   6.305   2.390
92970W        W52066  28.593   8.279  13.024
92971W        W52067  41.012  34.082   3.240
92972W        W52068  32.928  31.544   3.693
92973W        W52069  43.422  11.151   1.713
92974W        W52070   8.398  21.082   3.729
92975W        W52071   8.303  27.966  13.449
92976W        W52072   1.768  12.742  12.390
92977W        W52073  22.068  41.847  13.059
92978W        W52074  20.744  40.439  12.091
92979W        W52075  13.818  28.123  13.313
92980W        W52076  18.189  11.814   0.929
92981W        W52077  19.748   5.921   1.386
92982W        W52078   7.303  39.815   3.764
92983W        W52079  23.990  42.784   4.784
92984W        W52080  16.137   7.785  13.393
92985W        W52081  22.681  24.585   2.674
92986W        W52082  19.608  12.691  11.013
92987W        W52083  37.357  11.641   1.373
92988W        W52084   5.197  23.130   4.123
92989W        W52085   1.266   2.956  11.912
92990W        W52086  35.596  18.161   3.205
92991W        W52087  35.093  41.802   0.479
92992W        W52088  25.492  38.330  12.409
92993W        W52089  20.538  31.026   2.753
92994W        W52090  10.834  13.244  10.633
92995W        W52091  25.676  19.557  13.520
92996W        W52092  31.038  20.734   2.862
92997W        W52093  43.853  29.066  13.862
92998W        W52094  19.537  19.733  13.873
92999W        W52095  30.032  10.222   0.843
93000W        W52096  44.824  34.089   4.614
93001W        W52097  40.930  34.379   2.723
93002W        W52098  27.008  39.335   3.650
93003W        W52099   7.789  42.847  13.960
93004W        W52100   6.407  28.442  12.362
93005W        W52101  32.902  34.966  13.396
93006W        W52102  36.426  41.949   3.221
93007W        W52103  20.619  25.968   0.929
93008W        W52104  14.209  39.014  12.950
93009W        W52105  41.423  31.910  11.388
93010W        W52106  12.136  20.556   2.321
93011W        W52107  21.141  33.540  14.851
93012W        W52108  11.846  21.221   0.346
93013W        W52109  26.539  11.662  10.957
93014W        W52110  39.402   9.376  14.971
93015W        W52111  35.467   0.965   4.638
93016W        W52112   4.931  40.439  12.075
93017W        W52113  39.038  36.454   0.479
93018W        W52114  29.611  18.691   3.637
93019W        W52115  41.309  35.387  11.570
93020W        W52116  21.558  12.212  13.025
93021W        W52117  17.163   7.417  14.370
93022W        W52118  41.042   5.772  13.442
93023W        W52119  19.614  39.467  12.470
93024W        W52120   7.833  29.457   3.865
93025W        W52121   9.852   8.302  10.911
93026W        W52122  35.970  37.567  13.826
93027W        W52123  24.544   0.828   2.680
93028W        W52124  26.677  13.123   4.166
93029W        W52125  36.381  43.387   0.331
93030W        W52126  36.993  10.307   2.719
93031W        W52127  26.497   0.328   2.396
93032W        W52128  20.528   0.423  14.309
93033W        W52129  35.544  18.740  11.593
93034W        W52130  40.934  36.484   1.823
93035W        W52131  26.083  23.085   3.870
93036W        W52132   8.406  15.796   0.401
93037W        W52133  41.529  24.209  14.287
93038W        W52134   8.320  30.993   3.780
93039W        W52135   4.371   9.392  10.976
93040W        W52136  35.083  14.175   0.840
93041W        W52137  22.137  29.544   1.312
93042W        W52138   7.268  20.678  13.442
93043W        W52139  37.835  15.139  11.528
93044W        W52140   9.863  16.659  12.475
93045W        W52141  44.279  33.452  12.987
93046W        W52142  13.291  19.707   3.253
93047W        W52143  34.051  31.088  10.479
93048W        W52144  34.052  12.343  10.407
93049W        W52145  22.691  25.665   1.695
93050W        W52146   4.915  35.429   2.799
93051W        W52147  23.237  33.430   4.666
93052W        W52148   0.485   9.673  11.591
93053W        W52149   1.781  41.477  13.812
93054W        W52150  25.546   1.889  10.498
93055W        W52151  25.674  24.604   4.184
93056W        W52152   2.750   1.247   1.290
93057W        W52153  38.996   7.219   2.887
93058W        W52154  43.889  36.948   2.866
93059W        W52155  27.535  44.000  14.359
93060W        W52156  24.617  14.336  13.913
93061W        W52157  39.826  28.015  13.452
93062W        W52158  28.985   0.494   4.761
93063W        W52159   6.252  12.769  10.072
93064W        W52160  30.991  11.344  13.974
93065W        W52161   9.797   9.372  14.807
93066W        W52162  29.670  27.984  11.559
93067W        W52163   9.729  42.341  11.927
93068W        W52164  29.958  43.432  13.335
93069W        W52165  26.685   0.782   0.939
93070W        W52166  20.632  38.540  14.485
93071W        W52167  26.576  38.908   1.314
93072W        W52168  23.033  40.457   3.332
93073W        W52169  12.168  26.072   9.965
93074W        W52170  17.571   4.290  10.481
93075W        W52171   4.419   0.258   2.711
93076W        W52172  15.820  41.812   5.105
93077W        W52173  20.206  41.382   3.849
93078W        W52174   6.873  44.798  11.580
93079W        W52175  35.456  11.141   4.807
93080W        W52176  14.808  36.885   2.770
93081W        W52177   5.365   9.699   2.400
93082W        W52178  10.314  26.464   0.273
93083W        W52179  14.673   6.276   1.781
93084W        W52180  33.496  27.023  10.452
93085W        W52181  23.087  44.317  12.342
93086W        W52182   5.237  34.061   3.203
93087W        W52183  28.449  29.155  11.601
93088W        W52184  17.227  27.000   2.804
93089W        W52185  37.872  39.338  10.931
93090W        W52186   6.715  29.997  12.967
93091W        W52187  15.228  41.473  11.570
93092W        W52188   4.417  39.386   1.748
93093W        W52189  33.923   2.931  10.406
93094W        W52190  26.180  22.660  12.931
93095W        W52191   0.805  18.749  12.388
93096W        W52192  28.176  16.694  12.846
93097W        W52193  28.992  18.768   3.345
93098W        W52194  32.932  40.000   1.286
93099W        W52195  29.541  29.473  12.428
93100W        W52196  23.166  33.033   0.899
93101W        W52197  43.470  21.217  14.771
93102W        W52198  17.565  42.362  11.599
93103W        W52199  20.640  37.352   3.254
93104W        W52200   1.335  20.713  14.428
93105W        W52201  17.137  14.193   0.940
93106W        W52202  34.948   7.743  14.347
93107W        W52203  10.758  31.558  12.436
93108W        W52204  33.012  41.381   1.426
93109W        W52205  32.895  14.308   0.385
93110W        W52206   9.273  28.148   0.939
93111W        W52207  18.247   9.359   2.772
93112W        W52208  17.281  24.530   0.942
93113W        W52209  13.258  17.085   1.349
93114W        W52210  39.491  43.455   0.365
93115W        W52211  18.143   8.404   0.307
93116W        W52212  26.203  12.823   3.174
93117W        W52213   3.235  17.303  14.879
93118W        W52214  40.370  43.774  14.808
93119W        W52215  39.827  34.965  11.110
93120W        W52216   4.396  34.910  10.503
93121W        W52217  27.081  32.965   3.333
93122W        W52218  34.603   2.903  13.934
93123W        W52219  38.997  14.822  11.945
93124W        W52220   9.327  30.459   3.828
93125W        W52221  12.626  30.031   3.707
93126W        W52222  43.877  28.103   0.367
93127W        W52223  17.680   9.700   4.326
93128W        W52224  17.083  24.552   1.847
93129W        W52225  19.154  32.423  10.634
93130W        W52226  26.631  27.512  13.488
93131W        W52227   0.409  27.175  14.432
93132W        W52228  42.447  40.499   3.838
93133W        W52229  43.362  36.915  10.505
93134W        W52230  26.091  15.129   4.247
93135W        W52231  29.128  23.152   2.372
93136W        W52232   7.799  39.453   2.326
93137W        W52233   7.177  17.765   4.225
93138W        W52234  26.605  22.687  12.434
93139W        W52235  36.963  31.560   2.197
93140W        W52236  20.636  40.811   3.771
93141W        W52237  43.862  36.018  13.531
93142W        W52238  31.096  33.012   4.627
93143W        W52239  33.063  25.676   4.623
93144W        W52240   9.668  24.580  10.569
93145W        W52241  25.063  22.165  11.590
93146W        W52242  26.573  43.809   4.700
93147W        W52243  34.550  13.658  10.406
93148W        W52244  39.965  39.480  11.559
93149W        W52245   7.795  30.582  10.559
93150W        W52246  31.075  34.979  14.983
93151W        W52247   5.299  40.349   0.738
93152W        W52248  25.594  17.802   1.762
93153W        W52249   8.675   5.267  10.480
93154W        W52250  26.550  42.976   2.818
93155W        W52251  39.513  36.034  13.319
93156W        W52252   1.967  44.861   4.157
93157W        W52253  39.000  33.392  14.876
93158W        W52254   6.912  21.073  11.555
93159W        W52255  28.444  23.705  14.915
93160W        W52256  33.962  10.364  14.989
93161W        W52257  12.218  37.876   4.170
93162W        W52258  31.592   2.293   0.926
93163W        W52259  12.736  18.098   4.762
93164W        W52260  37.359  42.856  10.446
93165W        W52261   4.419  16.176  14.305
93166W        W52262  39.384   2.314  11.421
93167W        W52263  12.813  14.196   0.825
93168W        W52264  10.695   6.805  13.515
93169W        W52265  40.541  12.331  12.937
93170W        W52266  17.070  14.177  10.548
93171W        W52267  25.005  37.026   1.782
93172W        W52268   9.163  12.176   3.214
93173W        W52269   0.313  25.086  12.567
93174W        W52270  31.416  22.739  11.558
93175W        W52271   3.864  34.888   1.360
93176W        W52272  29.158  38.381  13.018
93177W        W52273  32.076  32.106  14.847
93178W        W52274  16.742   8.729   3.258
93179W        W52275  35.006  31.087   4.750
93180W        W52276  25.995  44.399  11.410
93181W        W52277   3.809  42.004  11.471
93182W        W52278  10.373   5.866   2.831
93183W        W52279   0.285  34.608  13.972
93184W        W52280  23.145   6.697  11.608
93185W        W52281  26.640  11.861  14.310
93186W        W52282  41.911  21.612   4.243
93187W        W52283   4.305  35.376  10.552
93188W        W52284  10.314  13.318  14.006
93189W        W52285  41.300  21.153  13.873
93190W        W52286  36.017   5.284  13.948
93191W        W52287   1.299  33.004  12.413
93192W        W52288   3.952   6.259   3.630
93193W        W52289   4.319  25.524  11.971
93194W        W52290  25.979   3.315  10.609
93195W        W52291  19.111  32.113   1.772
93196W        W52292  14.146  23.602  10.622
93197W        W52293  25.035  38.436  14.353
93198W        W52294  15.721   6.686   0.475
93199W        W52295  30.587  24.180  14.017
93200W        W52296  15.742  25.206  14.342
93201W        W52297  30.098  18.239   2.241
93202W        W52298  25.634   3.386  13.947
93203W        W52299  39.542  29.120  13.403
93204W        W52300  31.633  22.652  13.048
93205W        W52301  14.213   9.248   2.384
93206W        W52302  15.587  32.023   4.745
93207W        W52303  32.631  23.128   3.717
93208W        W52304  24.142  26.151  14.944
93209W        W52305  29.063  40.896   4.160
93210W        W52306   0.316  23.704   1.370
93211W        W52307  36.575  12.736  13.862
93212W        W52308   5.702   4.244   1.785
93213W        W52309  44.440  21.574   0.806
93214W        W52310  28.480  32.986   1.703
93215W        W52311  41.348  18.158   3.379
93216W        W52312   0.917  25.044  12.973
93217W        W52313  38.863   8.826   1.395
93218W        W52314  19.286  40.504  14.827
93219W        W52315   3.710  36.084  13.424
93220W        W52316  10.676  25.993  13.995
93221W        W52317  14.596  40.806   4.148
93222W        W52318  28.124  29.484   1.395
93223W        W52319  13.742  24.012   4.669
93224W        W52320  31.041  12.193  12.903
93225W        W52321  20.720  29.558  12.957
93226W        W52322  27.472  27.649   3.821
93227W        W52323  15.627  23.120  13.986
93228W        W52324  34.073   3.778   2.256
93229W        W52325  37.522   2.778  13.918
93230W        W52326  26.676  34.385  14.809
93231W        W52327  27.496   5.779   3.689
93232W        W52328  35.594   9.235  12.473
93233W        W52329   9.706  41.465   3.292
93234W        W52330  21.704  35.904  10.607
93235W        W52331   7.858   5.347   1.386
93236W        W52332  28.116  17.064   0.440
93237W        W52333  43.860   5.932   1.290
93238W        W52334  13.166  18.628   2.214
93239W        W52335   6.732  42.477  12.837
93240W        W52336  17.648  14.142  13.373
93241W        W52337   9.662  24.506   2.190
93242W        W52338  24.132  15.763  12.882
93243W        W52339  31.413  40.466   3.639
93244W        W52340   0.249  12.810  11.933
93245W        W52341  26.108  21.094   4.659
93246W        W52342  18.087   2.314  12.514
93247W        W52343  44.871  35.961  11.555
93248W        W52344   6.368  36.426  13.534
93249W        W52345  33.028  34.863  11.495
93250W        W52346  29.495   1.441   0.369
93251W        W52347   5.311  31.458  12.401
93252W        W52348  23.151  26.633  14.770
93253W        W52349  13.618   2.315  14.281
93254W        W52350  17.771  22.169  13.319
93255W        W52351   5.363   4.419   1.762
93256W        W52352  21.722  15.652  14.834
93257W        W52353  16.155  18.079   0.369
93258W        W52354   4.834  34.589   4.192
93259W        W52355  20.706  12.738  12.012
93260W        W52356  40.417  34.557   4.279
93261W        W52357   3.436   3.273   1.220
93262W        W52358  30.536  21.163  11.537
93263W        W52359  13.599  15.664  12.094
93264W        W52360  35.049  43.482   2.876
93265W        W52361  11.695  17.578  13.946
93266W        W52362  12.188  24.009  11.926
93267W        W52363  21.606  28.642  14.356
93268W        W52364  42.380  20.120  14.499
93269W        W52365  29.448  22.643  11.431
93270W        W52366  43.392  38.467   0.434
93271W        W52367  30.506  38.363   4.783
93272W        W52368   6.798  14.316  11.473
93273W        W52369  33.411  23.718  11.993
93274W        W52370  34.985   8.850   2.297
93275W        W52371  14.107  38.547  10.519
93276W        W52372  43.331  10.210   4.248
93277W        W52373  13.651  43.875   1.322
93278W        W52374   7.405  34.953   2.370
93279W        W52375   0.333  36.892  14.007
93280W        W52376   8.882  15.301   3.195
93281W        W52377  27.663   1.428  13.804
93282W        W52378  16.254  12.129  12.058
93283W        W52379  19.100  16.579   2.854
93284W        W52380  22.147  12.640  12.917
93285W        W52381  30.922   0.797   3.344
93286W        W52382  27.019  28.628  13.474
93287W        W52383  24.993  11.151  13.989
93288W        W52384  44.842  27.158  14.939
93289W        W52385  37.944  32.435  11.101
93290W        W52386  25.646  44.463   0.412
93291W        W52387  19.651  24.190   0.758
93292W        W52388   4.355  29.523   3.634
93293W        W52389   2.737   2.402   4.715
93294W        W52390  32.400  19.692   0.427
93295W        W52391  16.121  19.580  14.306
93296W        W52392  34.585   7.769   0.766
93297W        W52393  39.936   3.230   2.295
93298W        W52394  32.010   2.360   2.268
93299W        W52395  38.058  33.082  10.940
93300W        W52396  12.308  43.836   4.797
93301W        W52397  14.169  43.316  12.432
93302W        W52398   5.303   8.839  13.395
93303W        W52399  23.580   4.368  14.844
93304W        W52400   7.285   8.192   2.221
93305W        W52401   5.246   4.713   0.406
93306W        W52402  17.639  31.427  14.883
93307W        W52403   8.378  42.021  13.800
93308W        W52404  16.187   4.893   4.791
93309W        W52405   6.341  14.830  13.834
93310W        W52406  39.835  31.131  10.946
93311W        W52407  14.340  14.155   4.761
93312W        W52408   1.790  30.129  13.064
93313W        W52409  26.584   3.853   3.304
93314W        W52410  44.932  21.748  11.857
93315W        W52411   1.280   8.198  12.940
93316W        W52412  41.913   0.460  10.903
93317W        W52413  14.598  17.615   0.358
93318W        W52414  44.862  25.563   4.192
93319W        W52415  35.064  30.065   4.816
93320W        W52416  19.056  42.463   0.442
93321W        W52417  12.770  43.807   0.434
93322W        W52418  26.080  31.492  12.511
93323W        W52419  25.576   1.247  10.421
93324W        W52420  36.873  16.245   1.273
93325W        W52421   3.886  11.299   4.777
93326W        W52422  28.011  38.348   2.872
93327W        W52423  18.761  31.573   4.149
93328W        W52424  17.154  19.536   3.261
93329W        W52425  29.131  44.764  13.517
93330W        W52426   6.386  32.109   1.446
93331W        W52427  30.972   8.351  13.342
93332W        W52428  26.510  40.383   4.636
93333W        W52429  41.410  44.775   3.381
93334W        W52430  14.603  33.126   3.826
93335W        W52431  29.585  19.145   2.254
93336W        W52432   6.697  40.978  11.431
93337W        W52433   1.944  22.156   1.786
93338W        W52434   3.815   1.452  12.027
93339W        W52435   0.988  41.908  10.592
93340W        W52436  18.682  25.159  14.434
93341W        W52437  24.634  34.893   0.751
93342W        W52438  27.636  18.589  14.953
93343W        W52439  35.913  34.418  11.092
93344W        W52440  44.864  23.614  12.041
93345W        W52441  38.844   2.730   4.826
93346W        W52442   7.685  41.395   5.216
93347W        W52443  18.788  19.727  13.023
93348W        W52444  40.842  14.679  13.452
93349W        W52445  14.601  25.168  12.426
93350W        W52446  10.201  17.235  10.152
93351W        W52447  23.716  25.062  10.435
93352W        W52448   1.419  28.595   2.843
93353W        W52449  29.925   7.705  10.998
93354W        W52450  11.339  18.064  10.148
93355W        W52451  17.072  40.971  10.606
93356W        W52452   3.234  36.937   4.157
93357W        W52453  22.053   8.169   3.867
93358W        W52454  24.999   4.430  11.429
93359W        W52455  27.663  21.694   4.625
93360W        W52456  42.361  30.151   2.216
93361W        W52457  20.558   9.795   0.884
93362W        W52458   4.330   1.341   0.881
93363W        W52459  21.541  14.315  11.895
93364W        W52460   5.718  13.270  14.849
93365W        W52461  42.459  34.375   2.357
93366W        W52462  42.922  40.983   2.770
93367W        W52463  42.020  15.634  14.404
93368W        W52464   3.435  20.267  12.010
93369W        W52465  27.088  19.253  12.995
93370W        W52466   0.839  43.484  14.411
93371W        W52467  44.475  21.514  12.566
93372W        W52468   8.173  42.450  12.885
93373W        W52469  13.185  44.336  13.530
93374W        W52470  18.149  27.999  10.925
93375W        W52471   0.895  17.597  12.079
93376W        W52472   5.849  31.496  12.544
93377W        W52473  25.114  15.642   1.911
93378W        W52474  30.486  28.468  12.080
93379W        W52475  18.246  26.671  12.343
93380W        W52476  44.767  20.028   2.241
93381W        W52477  18.183   8.215  12.368
93382W        W52478  16.601  25.020   2.407
93383W        W52479   9.866  13.330  13.919
93384W        W52480   0.785  35.869  12.005
93385W        W52481  40.871  37.853   4.775
93386W        W52482   5.434  26.181  13.973
93387W        W52483  44.481  33.023   2.354
93388W        W52484  28.500   4.721   2.801
93389W        W52485  31.645  20.663   1.829
93390W        W52486  43.847  20.261  14.875
93391W        W52487  16.636  41.468  13.341
93392W        W52488   2.807  12.354  10.438
93393W        W52489  12.770  32.926   0.872
93394W        W52490  20.565  33.615   0.893
93395W        W52491  19.218  42.509  14.879
93396W        W52492  15.653   3.855  10.109
93397W        W52493  15.767  16.628  12.994
93398W        W52494  39.530  32.580  11.963
93399W        W52495  44.799   6.893  11.071
93400W        W52496  19.250   6.274   1.836
93401W        W52497  41.518  20.222   0.420
93402W        W52498   4.777  14.716   1.249
93403W        W52499  32.069  22.065   1.260
93404W        W52500  26.636  11.333   3.349
93405W        W52501  14.195  21.161   0.899
93406W        W52502   7.382  17.747  11.580
93407W        W52503  11.719  42.456   3.356
93408W        W52504  12.275  31.938  11.899
93409W        W52505  21.552   1.749   3.679
93410W        W52506   6.367  43.343  13.466
93411W        W52507  10.363   4.394  12.978
93412W        W52508  32.953  27.086   3.283
93413W        W52509  43.842   1.359   2.229
93414W        W52510   4.390  43.516   0.301
93415W        W52511  18.152  29.537  11.859
93416W        W52512  28.995  29.609   1.926
93417W        W52513   8.742  37.918   4.212
93418W        W52514  41.957   1.432  10.469
93419W        W52515  10.822  30.040   1.849
93420W        W52516  23.174  22.627   2.841
93421W        W52517   0.807  38.945  11.089
93422W        W52518  29.039   2.445   0.944
93423W        W52519  38.423   3.448  10.902
93424W        W52520  22.738  21.519  12.094
93425W        W52521  39.884  40.874  11.017
93426W        W52522   0.783  21.023   2.802
93427W        W52523   0.761  37.567  12.571
93428W        W52524  16.703   5.276  14.940
93429W        W52525   7.228  24.535   2.317
93430W        W52526  25.048  13.701   4.355
93431W        W52527  31.916  21.548  10.932
93432W        W52528  20.144   5.719  14.806
93433W        W52529  40.904   9.358  10.407
93434W        W52530  26.995   9.174   1.813
93435W        W52531  42.516  29.630  11.538
93436W        W52532   5.767  32.423  10.971
93437W        W52533  34.029  17.281  10.926
93438W        W52534   7.310  30.008  10.948
93439W        W52535  19.065  35.443   2.308
93440W        W52536  36.884   8.780  14.509
93441W        W52537  17.135   2.298   3.249
93442W        W52538  16.121  38.347   4.650
93443W        W52539  20.635  29.036   1.854
93444W        W52540  13.275  21.124  14.777
93445W        W52541  37.446  11.812   5.238
93446W        W52542  16.113  27.153  12.484
93447W        W52543  12.211  41.956   1.890
93448W        W52544  10.755  12.761   1.733
93449W        W52545  29.048  10.872  10.484
93450W        W52546  10.235  30.032   0.902
93451W        W52547  21.244  32.460  12.945
93452W        W52548  22.627  10.209   0.257
93453W        W52549  25.709  40.349   4.713
93454W        W52550   7.227   2.438  13.058
93455W        W52551  32.511  23.522   4.194
93456W        W52552  10.769  37.906   3.179
93457W        W52553   0.811  41.006   2.823
93458W        W52554   8.894  23.590   1.269
93459W        W52555  35.572  23.525   4.754
93460W        W52556  32.532  35.002  14.487
93461W        W52557  24.154   0.793  12.890
93462W        W52558  11.196  34.595   0.351
93463W        W52559  21.614  21.753   0.955
93464W        W52560  11.735  17.635   5.104
93465W        W52561  28.141  30.585   3.694
93466W        W52562  12.140   0.783   4.152
93467W        W52563  41.936   5.724   4.787
93468W        W52564  17.212   5.372  13.354
93469W        W52565  23.993  39.540  14.921
93470W        W52566  14.257   1.401   1.408
93471W        W52567  43.316   0.259   3.194
93472W        W52568  10.140   3.723   3.770
93473W        W52569  25.182  39.000  13.435
93474W        W52570  10.221  30.428   4.643
93475W        W52571  19.151   4.896  12.948
93476W        W52572  42.523  17.774  11.468
93477W        W52573  28.016  22.201   2.851
93478W        W52574   0.941  40.909   1.384
93479W        W52575  10.701  22.648   4.624
93480W        W52576  43.982  41.463   0.955
93481W        W52577  21.747  15.706   0.889
93482W        W52578  20.646  17.164   2.750
93483W        W52579  38.376  38.916   1.212
93484W        W52580  10.154  11.197  12.089
93485W        W52581  41.448  40.450   4.651
93486W        W52582   7.892   6.423   4.792
93487W        W52583  38.405  16.667  12.580
93488W        W52584  32.601   2.232   0.429
93489W        W52585   8.401   6.916   2.364
93490W        W52586   6.427  36.908   3.362
93491W        W52587  38.451  39.484   0.260
93492W        W52588  30.420  44.421   3.789
93493W        W52589  23.213  13.282  14.955
93494W        W52590  27.585  16.684  12.472
93495W        W52591  12.159  41.987  10.999
93496W        W52592   7.677  32.929  14.775
93497W        W52593  22.675  40.879   1.332
93498W        W52594  33.886  38.328   2.719
93499W        W52595   2.848  41.422   1.836
93500W        W52596  23.007   2.913   3.828
93501W        W52597  17.657  40.047  11.581
93502W        W52598  15.772  18.286   3.366
93503W        W52599   8.657  44.340   4.323
93504W        W52600  44.495  27.008  14.768
93505W        W52601  12.186  17.712   0.478
93506W        W52602  22.630  43.294   0.880
93507W        W52603  28.661  13.320  12.515
93508W        W52604   9.199  20.106  12.977
93509W        W52605  19.682   1.762   2.314
93510W        W52606   2.726  40.525   3.662
93511W        W52607  27.128   4.438   1.795
93512W        W52608   3.784  28.673  13.502
93513W        W52609  19.542  27.060  12.451
93514W        W52610  12.344  35.001   0.915
93515W        W52611  13.208  20.209  11.472
93516W        W52612  11.745  16.711   3.208
93517W        W52613   3.738  27.058  11.576
93518W        W52614   1.933  43.422   2.417
93519W        W52615  44.498  42.462  12.095
93520W        W52616   7.253  24.113   9.661
93521W        W52617  15.249   9.320   0.873
93522W        W52618  33.088  42.813  13.513
93523W        W52619  29.945   8.804   3.251
93524W        W52620  37.549   9.831  13.397
93525W        W52621  18.231  28.584  11.437
93526W        W52622  27.011   7.361  12.470
93527W        W52623  39.356  19.130   4.834
93528W        W52624  13.125  40.818   4.610
93529W        W52625  21.227  31.100   1.756
93530W        W52626  42.819  27.151   3.812
93531W        W52627   8.688   4.384   4.833
93532W        W52628   2.456  12.767   0.887
93533W        W52629  39.859   1.370   1.334
93534W        W52630  16.226   9.691  11.416
93535W        W52631   2.738  32.968   1.216
93536W        W52632  26.202   2.960   0.942
93537W        W52633  43.946   3.817   0.745
93538W        W52634  24.049  38.904  11.076
93539W        W52635   7.232  32.059  12.017
93540W        W52636  38.524  39.884   0.263
93541W        W52637  39.332   6.706   1.276
93542W        W52638  43.435  32.000   2.276
93543W        W52639  12.148  18.670   4.599
93544W        W52640   0.384  25.984   0.883
93545W        W52641  32.617  25.471   0.911
93546W        W52642  12.809   9.826   4.688
93547W        W52643   0.299  36.453   1.240
93548W        W52644  32.939   9.715  10.999
93549W        W52645  43.281  39.553   0.892
93550W        W52646  27.074  34.868  11.095
93551W        W52647  17.293   6.271  12.992
93552W        W52648  31.405  15.183   4.113
93553W        W52649  28.101  36.363   1.873
93554W        W52650   1.295   9.255   0.768
93555W        W52651   5.429  30.549  14.424
93556W        W52652  34.407  44.888   4.811
93557W        W52653  18.633  24.063   4.638
93558W        W52654  34.465  23.006   4.187
93559W        W52655  39.364  26.063  12.498
93560W        W52656  43.465  21.243   1.358
93561W        W52657  24.593  31.434  12.399
93562W        W52658  25.052  42.821   0.276
93563W        W52659  34.013  34.066  10.565
93564W        W52660  34.530   6.829  14.379
93565W        W52661  40.941  21.590   3.342
93566W        W52662  33.889  29.591   0.853
93567W        W52663  39.543  25.188  14.858
93568W        W52664  24.170  41.534   4.242
93569W        W52665   1.274  11.230  12.879
93570W        W52666  22.214  33.059  10.907
93571W        W52667  10.332  24.136  14.434
93572W        W52668  22.674  20.195   0.734
93573W        W52669  17.736  43.298   0.933
93574W        W52670  10.350  38.332  14.872
93575W        W52671  10.347  33.463   0.480
93576W        W52672  19.114  27.091   0.412
93577W        W52673   7.331  44.002   4.668
93578W        W52674  21.057  26.543   4.332
93579W        W52675   2.848  21.619  14.435
93580W        W52676  23.503  25.963   1.870
93581W        W52677  39.920   8.880   2.772
93582W        W52678  40.907  23.521   3.386
93583W        W52679   9.733  14.793   2.324
93584W        W52680  38.070  42.946   1.756
93585W        W52681  36.401  16.692  13.917
93586W        W52682  42.829  26.467  10.562
93587W        W52683  20.197  16.153  14.374
93588W        W52684   9.185  10.246   4.209
93589W        W52685  15.220  24.183   1.924
93590W        W52686  10.190  39.063  11.014
93591W        W52687  19.664  35.895   1.408
93592W        W52688  43.797  39.837  11.116
93593W        W52689  22.151  32.397  12.031
93594W        W52690  15.255   2.922   3.294
93595W        W52691  43.495  32.557  14.877
93596W        W52692   9.317   8.281   4.640
93597W        W52693   0.795  42.284   2.751
93598W        W52694  29.452  19.741  13.948
93599W        W52695  30.951  13.198   2.834
93600W        W52696  10.797  22.200   1.405
93601W        W52697  26.177   3.460   4.148
93602W        W52698  39.549   4.407  14.308
93603W        W52699   7.338  15.233   2.738
93604W        W52700  27.079  24.194   2.311
93605W        W52701  23.547   8.350   2.254
93606W        W52702  31.596   6.709   3.665
93607W        W52703  33.972  42.437   4.685
93608W        W52704  35.484  27.955  11.105
93609W        W52705   5.867  30.437   0.387
93610W        W52706  15.165  17.149  14.792
93611W        W52707  42.448  36.058  12.554
93612W        W52708   0.904  27.645   2.746
93613W        W52709  14.778  18.655   0.961
93614W        W52710   6.405  15.686   3.146
93615W        W52711   5.327  17.700   2.404
93616W        W52712  41.906  19.775  12.345
93617W        W52713  35.086  22.233  13.816
93618W        W52714  40.373  26.976   4.837
93619W        W52715  29.965  23.684   5.153
93620W        W52716  34.414  38.843  13.049
93621W        W52717  14.724  33.113   0.907
93622W        W52718  25.030  32.468  14.441
93623W        W52719  28.954  44.469  13.531
93624W        W52720   7.235  39.476   3.816
93625W        W52721  32.419   0.778   0.475
93626W        W52722   7.885  28.147   1.404
93627W        W52723   6.818  38.337   1.933
93628W        W52724   6.883  30.127   0.339
93629W        W52725  13.700   6.306   3.363
93630W        W52726   5.732  10.170   0.310
93631W        W52727  11.160  17.707  14.854
93632W        W52728  39.840   5.872  10.530
93633W        W52729  15.766  26.974   5.315
93634W        W52730  36.365  28.038   1.744
93635W        W52731  31.072   0.899  10.914
93636W        W52732  24.159   9.674   5.146
93637W        W52733  38.414  25.124   2.745
93638W        W52734   2.738  29.666   3.767
93639W        W52735  18.713  13.759   4.206
93640W        W52736  20.716  26.051   1.242
93641W        W52737  11.357  24.131   1.361
93642W        W52738  36.902   3.728  11.875
93643W        W52739  10.155  20.064  11.462
93644W        W52740  10.659   8.737  14.833
93645W        W52741  39.462   7.796   2.241
93646W        W52742  35.041  22.524   1.272
93647W        W52743  17.662  36.880   0.437
93648W        W52744  39.478  38.519   1.916
93649W        W52745  30.953  31.478  12.954
93650W        W52746   2.797  12.849  13.332
93651W        W52747   6.845  18.166  11.047
93652W        W52748  28.566  25.010  11.583
93653W        W52749  14.334  25.012   4.337
93654W        W52750  26.972  29.076  12.513
93655W        W52751  30.478  38.487   4.160
93656W        W52752  19.652  17.176  13.425
93657W        W52753   8.770  41.034  11.451
93658W        W52754  28.442  40.410  13.882
93659W        W52755  26.559   1.447   3.150
93660W        W52756  12.677   6.916   2.259
93661W        W52757   8.398  39.431   0.785
93662W        W52758  27.507  34.508   1.376
93663W        W52759  43.412  15.800  10.503
93664W        W52760  35.890  25.074   2.698
93665W        W52761  36.451  37.074   0.402
93666W        W52762   3.388  34.883   3.638
93667W        W52763  12.208  42.489   1.424
93668W        W52764  27.446   2.237   3.664
93669W        W52765  43.453   3.871  12.472
93670W        W52766   1.268  22.027   2.328
93671W        W52767  43.494  24.714  11.901
93672W        W52768  32.069  20.567  11.593
93673W        W52769   8.203  43.406  12.902
93674W        W52770   7.813  33.383  14.467
93675W        W52771  26.480  33.007  12.449
93676W        W52772  13.634  27.626   0.370
93677W        W52773  10.761  22.155   4.158
93678W        W52774  23.492  35.854  13.413
93679W        W52775  15.788   0.868  11.117
93680W        W52776   2.383  22.082   1.740
93681W        W52777  30.656  29.610   2.832
93682W        W52778   3.422   5.775  12.358
93683W        W52779  24.656  25.671  14.401
93684W        W52780  33.010  43.934  12.947
93685W        W52781   2.902  36.979  12.554
93686W        W52782  11.304  41.803  11.560
93687W        W52783  27.572   1.967   4.757
93688W        W52784   1.940  29.007   1.277
93689W        W52785  29.475   2.867  12.897
93690W        W52786  24.003  16.237   1.727
93691W        W52787  18.788  36.961  13.441
93692W        W52788  21.056  17.239  10.630
93693W        W52789   2.452  38.965   2.400
93694W        W52790  25.984  30.956   4.789
93695W        W52791  44.465  32.131   1.774
93696W        W52792  16.138  28.966  14.855
93697W        W52793  13.614  32.522  13.379
93698W        W52794  29.514  12.308   3.350
93699W        W52795   8.331  40.023   0.333
93700W        W52796   6.680  23.501   1.746
93701W        W52797  38.016  36.593   0.367
93702W        W52798  26.017  33.560   1.866
93703W        W52799  44.909  30.111  10.621
93704W        W52800  24.080  12.735   1.289
93705W        W52801  29.627  36.063  11.883
93706W        W52802  28.549   3.435  14.385
93707W        W52803  35.380  35.092   3.723
93708W        W52804   0.749  24.701   1.699
93709W        W52805  23.118  27.025   4.268
93710W        W52806  21.104   1.244   2.878
93711W        W52807  16.704  33.427   1.768
93712W        W52808  40.952  11.779   5.230
93713W        W52809  41.867  13.277   3.658
93714W        W52810   8.318  34.067  12.092
93715W        W52811  16.283  17.279   3.200
93716W        W52812  40.394  16.277   0.443
93717W        W52813  39.485  35.590   4.787
93718W        W52814   3.377  17.266  14.011
93719W        W52815  38.481  22.060   0.769
93720W        W52816  19.178  40.805  12.955
93721W        W52817  29.613  11.327   4.632
93722W        W52818  38.362   3.362   2.213
93723W        W52819  28.591   5.769  12.390
93724W        W52820   2.940  17.149   0.360
93725W        W52821  23.637  13.119  13.995
93726W        W52822  42.368  41.405   2.294
93727W        W52823  37.435  17.610  11.081
93728W        W52824  38.919  14.229  12.458
93729W        W52825  11.318   2.289  10.455
93730W        W52826  40.937  18.667   1.246
93731W        W52827  42.387  26.119  13.506
93732W        W52828  25.536  20.183   0.874
93733W        W52829  44.756  40.514  10.420
93734W        W52830  29.083   8.711   2.267
93735W        W52831   7.769  24.155   4.823
93736W        W52832   6.334  34.888   0.860
93737W        W52833  41.332  24.693  11.857
93738W        W52834   9.661  43.998  11.543
93739W        W52835   1.442  41.999  10.459
93740W        W52836   9.323  26.084  13.307
93741W        W52837  31.565  37.415  12.439
93742W        W52838  32.508   0.358  13.340
93743W        W52839  17.795   1.273   3.811
93744W        W52840  13.107  26.537  11.010
93745W        W52841  13.237  19.632  11.993
93746W        W52842  24.522  18.092  14.928
93747W        W52843  43.966  15.639   1.319
93748W        W52844  25.712   9.347  14.966
93749W        W52845  15.592  38.539  12.409
93750W        W52846   6.303   7.682  12.411
93751W        W52847   0.400  28.595  13.034
93752W        W52848  14.100   9.379  12.371
93753W        W52849  30.512   4.890   0.427
93754W        W52850  34.011  27.630  11.980
93755W        W52851  28.093  26.514  13.391
93756W        W52852   9.805  30.539   4.771
93757W        W52853  16.595  40.052   2.341
93758W        W52854  40.478  33.552  10.018
93759W        W52855  35.533   6.847   0.258
93760W        W52856  11.267  20.268  10.581
93761W        W52857  25.070   8.229  12.082
93762W        W52858  13.846  38.439  14.884
93763W        W52859  13.136  30.546   2.347
93764W        W52860  43.299   1.371   3.750
93765W        W52861  38.558   1.940   0.939
93766W        W52862  18.723  28.068  11.599
93767W        W52863  32.016   5.193  14.024
93768W        W52864  41.015  23.608  13.971
93769W        W52865   8.800   0.825  10.600
93770W        W52866  28.118  38.890  14.502
93771W        W52867  37.540  32.991  10.511
93772W        W52868  39.050  43.799  11.473
93773W        W52869  22.054  18.271   1.379
93774W        W52870  41.865  21.596   2.287
93775W        W52871  26.142   3.359   4.721
93776W        W52872  33.909  22.149  11.528
93777W        W52873  28.653  19.113  12.931
93778W        W52874  19.219  30.083  14.772
93779W        W52875  10.684  27.642  14.001
93780W        W52876  11.252  14.719   4.296
93781W        W52877  31.063  35.399  11.406
93782W        W52878  37.071   5.388  14.320
93783W        W52879   3.751  27.162  11.017
93784W        W52880  23.146  18.106  11.979
93785W        W52881  19.079  20.616   2.232
93786W        W52882   1.930   4.787   4.726
93787W        W52883  41.033  18.599  11.418
93788W        W52884  34.974   1.853  13.406
93789W        W52885  36.052  41.390  12.446
93790W        W52886  27.620   1.968  12.044
93791W        W52887  21.065   3.885   0.460
93792W        W52888  36.062  42.488  13.826
93793W        W52889  44.344  16.173  12.512
93794W        W52890  26.091  30.005  10.600
93795W        W52891   3.873  10.171  10.996
93796W        W52892   5.222  39.407   1.335
93797W        W52893  34.370  35.570   0.336
93798W        W52894  13.691   9.265  11.480
93799W        W52895  35.977  28.964   1.736
93800W        W52896  29.548  27.447   0.439
93801W        W52897  29.018  38.528  14.797
93802W        W52898  34.931  26.126  14.008
93803W        W52899  13.781  11.189  14.967
93804W        W52900   3.415  40.842   1.826
93805W        W52901  29.978  25.172  11.953
93806W        W52902   2.280  33.007   4.267
93807W        W52903  28.020  38.874   2.807
93808W        W52904  22.249  19.552   0.273
93809W        W52905  24.712  29.559   2.400
93810W        W52906  16.714   0.398   0.367
93811W        W52907   1.828  15.788   2.683
93812W        W52908  24.183  35.564   1.804
93813W        W52909   9.300  27.027  10.421
93814W        W52910   0.406  15.809  14.430
93815W        W52911  18.699  25.192   2.732
93816W        W52912  11.626   4.362  14.990
93817W        W52913   3.335   0.491   2.683
93818W        W52914  31.517  19.283   4.623
93819W        W52915   6.367  13.608  14.293
93820W        W52916   3.312  23.232   1.400
93821W        W52917  19.130  15.114   4.232
93822W        W52918  37.024  19.760  11.897
93823W        W52919  32.944  22.250  14.013
93824W        W52920   3.931  28.180  10.415
93825W        W52921  12.345  44.844  14.281
93826W        W52922  36.068  26.457  10.592
93827W        W52923   3.390  10.812  11.875
93828W        W52924   1.958  35.988  10.625
93829W        W52925  34.499   5.765  11.537
93830W        W52926   4.812   6.907   3.664
93831W        W52927   0.488  38.003   1.750
93832W        W52928   7.375  27.620   4.601
93833W        W52929   0.789  30.590   0.922
93834W        W52930  35.552   2.943   1.368
93835W        W52931   0.482   2.397   3.687
93836W        W52932  17.134  34.051   1.356
93837W        W52933  44.774  12.179  14.453
93838W        W52934  34.590  35.957   3.794
93839W        W52935  41.493   9.252   1.899
93840W        W52936   8.175  16.690   0.958
93841W        W52937  10.771  37.050  11.580
93842W        W52938  25.617   5.731   3.736
93843W        W52939   3.920  37.473  14.275
93844W        W52940  38.911  25.524  10.582
93845W        W52941  29.115   4.703  10.991
93846W        W52942  32.081  22.053   5.766
93847W        W52943  25.144  17.738   3.238
93848W        W52944   8.215  24.979   1.782
93849W        W52945   1.907  30.498   2.888
93850W        W52946  11.716  42.850  12.374
93851W        W52947   9.302  42.354  12.013
93852W        W52948  12.616  24.104   0.812
93853W        W52949  31.435  37.057   2.361
93854W        W52950  15.307  35.531  13.527
93855W        W52951  31.637  33.073  11.557
93856W        W52952  10.343   1.870   2.806
93857W        W52953  20.138  19.191  10.891
93858W        W52954  38.970  28.061   5.122
93859W        W52955  44.432  14.714   2.277
93860W        W52956  13.133  28.554  10.051
93861W        W52957  35.961  34.497  13.969
93862W        W52958   7.870  19.161  13.868
93863W        W52959   0.256  15.775  12.370
93864W        W52960   9.854   5.888  10.939
93865W        W52961  26.138  43.958  14.980
93866W        W52962  39.927  22.220  14.359
93867W        W52963  35.903   9.188   2.271
93868W        W52964  27.128   8.855   4.638
93869W        W52965  20.581  42.847   4.724
93870W        W52966   9.361  23.984  12.490
93871W        W52967   1.804  40.396   1.699
93872W        W52968  23.527   3.457   0.910
93873W        W52969   2.344  34.390   5.299
93874W        W52970  38.446   4.207   2.820
93875W        W52971  15.146  38.055  13.939
93876W        W52972  14.204   3.389  10.595
93877W        W52973  22.519  12.143  13.479
93878W        W52974  27.517  14.287   0.317
93879W        W52975  32.551  33.049   3.300
93880W        W52976  21.556  36.430  14.484
93881W        W52977  24.639  36.389  10.903
93882W        W52978  17.099  26.106   3.717
93883W        W52979  31.005  44.927  10.556
93884W        W52980  34.438  11.752   2.704
93885W        W52981   9.161  10.872  14.805
93886W        W52982  21.028  11.718   3.288
93887W        W52983  40.859  10.680   4.177
93888W        W52984  25.714  44.001  11.373
93889W        W52985  20.099  43.769   0.254
93890W        W52986   9.330  44.867   3.169
93891W        W52987  13.655  31.611   1.419
93892W        W52988   9.804  12.315   0.917
93893W        W52989  29.648  43.476   1.704
93894W        W52990  32.890  28.119   3.364
93895W        W52991   5.299  42.988   2.319
93896W        W52992  36.065   7.335   2.839
93897W        W52993  26.095   8.383  14.488
93898W        W52994   1.865  33.890  11.411
93899W        W52995  24.497  14.624   2.887
93900W        W52996   0.353  42.948   0.275
93901W        W52997  41.347  43.352  13.864
93902W        W52998  43.789   2.746   4.119
93903W        W52999   6.847  19.262  12.573
93904W        W53000  13.681  10.307  11.425
93905W        W53001   5.349  23.000  14.514
93906W        W53002  33.425  22.120  11.462
93907W        W53003  25.616  23.174  14.915
93908W        W53004  20.208  26.063  12.912
93909W        W53005  22.197  22.623  14.306
93910W        W53006  44.753   3.293  12.486
93911W        W53007  38.423  30.154   2.789
93912W        W53008  27.137  44.880   2.276
93913W        W53009   6.793   7.766   4.773
93914W        W53010  26.994   0.818   0.945
93915W        W53011   9.297  17.612   1.922
93916W        W53012   4.715  13.169   4.162
93917W        W53013  11.707  10.837   3.766
93918W        W53014  12.786  35.082   4.598
93919W        W53015  12.660   5.824   0.734
93920W        W53016  29.031   6.873  13.960
93921W        W53017  38.920  37.068   3.323
93922W        W53018  25.580  31.982  11.543
93923W        W53019  37.017  39.487   0.320
93924W        W53020  16.304   8.698   3.200
93925W        W53021   9.651  32.592   3.191
93926W        W53022  35.580  34.912   1.754
93927W        W53023  27.614  11.710   0.476
93928W        W53024   6.219  11.331  12.953
93929W        W53025  36.550  11.834   0.330
93930W        W53026  44.923   4.773   2.189
93931W        W53027  30.142  21.077  13.962
93932W        W53028  19.711   7.290  11.028
93933W        W53029   2.296  33.962  11.071
93934W        W53030   0.814  33.987  12.987
93935W        W53031  43.002  24.557  11.431
93936W        W53032   1.449   2.866  12.504
93937W        W53033  22.630   8.674  12.023
93938W        W53034  23.120   4.313   3.358
93939W        W53035   1.285  15.154   4.722
93940W        W53036  41.526  19.740   1.258
93941W        W53037  39.453   9.299   1.795
93942W        W53038   4.387  15.628  12.965
93943W        W53039  32.943  42.427   3.859
93944W        W53040  40.326  26.496   0.939
93945W        W53041   9.858  26.585  11.539
93946W        W53042  26.005   0.888   3.809
93947W        W53043  25.660  17.650   3.831
93948W        W53044  16.698  12.678   0.468
93949W        W53045  16.612  20.091   4.255
93950W        W53046   1.823  24.515   9.983
93951W        W53047  29.952  24.175   5.197
93952W        W53048   2.411  19.206   2.767
93953W        W53049  36.357   9.741   0.767
93954W        W53050  23.162  35.853   0.839
93955W        W53051  33.524  42.522   1.755
93956W        W53052  44.797  34.071  12.064
93957W        W53053  43.501  19.054  10.452
93958W        W53054   9.363   1.457   3.723
93959W        W53055  43.923  23.143   3.147
93960W        W53056  41.039  21.167   1.746
93961W        W53057   1.357   4.839  12.938
93962W        W53058  25.650  43.329  10.526
93963W        W53059   3.757  24.568  14.462
93964W        W53060  33.557  42.419  14.281
93965W        W53061   3.867   2.744   4.277
93966W        W53062  10.231  24.081   3.639
93967W        W53063  18.646  43.445   4.628
93968W        W53064   9.725   5.360   2.758
93969W        W53065   6.729  38.517   0.874
93970W        W53066  13.320  22.243   1.305
93971W        W53067  24.532  36.489   0.955
93972W        W53068  20.614  10.774  13.537
93973W        W53069  28.023  12.680   0.381
93974W        W53070  21.023  28.042  10.434
93975W        W53071   3.794  16.124  13.359
93976W        W53072   2.328  24.194   0.939
93977W        W53073   4.934   1.816  13.344
93978W        W53074  12.653  31.597   4.729
93979W        W53075  21.626  41.452  13.525
93980W        W53076  33.101  35.389  11.408
93981W        W53077  11.287  20.057   2.834
93982W        W53078  19.539   9.259   0.468
93983W        W53079  27.637  32.569   5.112
93984W        W53080   6.731   3.918  14.459
93985W        W53081  19.762  19.238  12.575
93986W        W53082  27.650  24.206   0.824
93987W        W53083  18.061  37.373   2.355
93988W        W53084  19.560  37.524  12.548
93989W        W53085  19.622  20.181  14.907
93990W        W53086  38.932   6.784  13.382
93991W        W53087  37.950  29.599  14.967
93992W        W53088  32.555  11.666  13.011
93993W        W53089  26.621  26.540   5.113
93994W        W53090  16.603  43.398   3.181
93995W        W53091  42.015  23.987   2.193
93996W        W53092  20.764  22.128  12.044
93997W        W53093  35.578  15.169   2.295
93998W        W53094  39.927  10.668   2.841
93999W        W53095  26.126  10.780  11.610
94000W        W53096  21.169  25.485   0.343
94001W        W53097  20.162  31.105  10.904
94002W        W53098  17.705  17.697   3.159
94003W        W53099  44.774  23.734  11.053
94004W        W53100  19.629  25.698  11.549
94005W        W53101  44.008   3.747  10.558
94006W        W53102  13.327  13.228  13.537
94007W        W53103   6.190  14.117  14.412
94008W        W53104  25.520   4.282   0.384
94009W        W53105  38.068  43.282   0.879
94010W        W53106  43.935  27.134  14.851
94011W        W53107  32.062  26.170  13.458
94012W        W53108  37.529  17.250   3.647
94013W        W53109   4.898  22.634   1.839
94014W        W53110  29.023  37.409  14.415
94015W        W53111  43.940   3.735  14.500
94016W        W53112  41.493  27.477   4.629
94017W        W53113  39.863  21.514   4.291
94018W        W53114  41.855  11.139  14.513
94019W        W53115   6.342  24.035   0.270
94020W        W53116   9.739  20.629  12.972
94021W        W53117  34.534   2.295   2.680
94022W        W53118  40.042  38.039  10.495
94023W        W53119   3.370  40.915  14.340
94024W        W53120  34.012  30.438   4.629
94025W        W53121  33.613  42.945   0.468
94026W        W53122  43.286   4.296   2.188
94027W        W53123  11.804  43.832  14.462
94028W        W53124  10.332   0.296  11.081
94029W        W53125  32.890  29.930  13.500
94030W        W53126  13.176  11.742  14.327
94031W        W53127   4.757  32.947   1.320
94032W        W53128  42.854  23.076  11.991
94033W        W53129  38.006  40.938  11.460
94034W        W53130  29.479  23.081  10.052
94035W        W53131  36.478   4.310  13.459
94036W        W53132  34.043   9.726   0.775
94037W        W53133  11.649   0.875  10.505
94038W        W53134  42.020  43.476   0.381
94039W        W53135  19.273  20.251  11.478
94040W        W53136  15.171  23.723   4.686
94041W        W53137   4.356  31.102   1.262
94042W        W53138  32.941  38.840  12.952
94043W        W53139  43.874   3.845  14.848
94044W        W53140   8.811  13.160   0.912
94045W        W53141   9.320  29.066  11.434
94046W        W53142  16.632  24.622   4.783
94047W        W53143  22.022   8.704  14.451
94048W        W53144  17.766  37.842  12.867
94049W        W53145  30.142  24.544  14.452
94050W        W53146  12.643  22.199   2.353
94051W        W53147   7.186  24.135  14.316
94052W        W53148  25.012   0.464   2.224
94053W        W53149  41.871  29.066  13.441
94054W        W53150   3.893   0.340  10.585
94055W        W53151  24.090   9.180   0.411
94056W        W53152  34.430   4.314  14.976
94057W        W53153  19.640  34.079  10.547
94058W        W53154  36.564   9.162  12.423
94059W        W53155  11.215  21.087  14.915
94060W        W53156   5.434  43.951  12.088
94061W        W53157  44.807  30.032   4.185
94062W        W53158  38.544  14.223   0.835
94063W        W53159   7.774  38.496  10.976
94064W        W53160  28.542  32.978  13.350
94065W        W53161  17.279  32.080  10.007
94066W        W53162  23.494   9.701   1.214
94067W        W53163  44.353  19.150  13.000
94068W        W53164   7.871  32.926   1.704
94069W        W53165   1.413  11.338   2.346
94070W        W53166  20.534  34.607  11.959
94071W        W53167   6.679  42.394   4.737
94072W        W53168   5.278   1.445  10.910
94073W        W53169   9.353  36.361   1.760
94074W        W53170  12.690  27.464  12.368
94075W        W53171  10.823  13.123  12.523
94076W        W53172  31.588  12.774   3.788
94077W        W53173  18.121  32.006   4.777
94078W        W53174  19.171   7.837  11.423
94079W        W53175   8.810  31.558   1.719
94080W        W53176  28.997  30.521   2.410
94081W        W53177  21.231   2.414   3.383
94082W        W53178  26.681  34.010   4.649
94083W        W53179  25.497  28.994  11.116
94084W        W53180   6.689  27.044  11.587
94085W        W53181  15.593  34.967  11.536
94086W        W53182  42.401  18.700  10.431
94087W        W53183  16.281  38.345   3.837
94088W        W53184  44.387  26.605  11.383
94089W        W53185  28.607  23.655   2.680
94090W        W53186  17.222  22.080   1.376
94091W        W53187   6.803  14.243   4.330
94092W        W53188  10.270   3.859   2.272
94093W        W53189   9.333  27.604  12.362
94094W        W53190  37.371  11.129  13.501
94095W        W53191   8.199  28.985   4.647
94096W        W53192  18.673  20.173   4.643
94097W        W53193  44.795   2.830  13.943
94098W        W53194  35.518  42.895  12.083
94099W        W53195  12.635   2.906   3.379
94100W        W53196  40.480  26.104  10.936
94101W        W53197  15.202  27.615   2.734
94102W        W53198  10.773  13.108   5.109
94103W        W53199   1.303  27.167   2.259
94104W        W53200  35.092  10.871  12.390
94105W        W53201   0.875  40.519   2.823
94106W        W53202  12.341  24.689  12.057
94107W        W53203  35.522  38.459  12.885
94108W        W53204  22.710  24.015  13.031
94109W        W53205  39.840  10.311   5.705
94110W        W53206  15.141  18.279  11.484
94111W        W53207  35.095  41.410  11.017
94112W        W53208  44.876  27.606  13.417
94113W        W53209   6.200  44.263   5.319
94114W        W53210  41.984  32.933   2.724
94115W        W53211  39.490  35.110  10.463
94116W        W53212  26.157  40.544   0.278
94117W        W53213  18.270  16.676   2.418
94118W        W53214  11.194  24.027  12.538
94119W        W53215   9.787  39.362   0.896
94120W        W53216  41.855   8.365   1.934
94121W        W53217   6.241  25.155  11.501
94122W        W53218  42.905  24.600  10.984
94123W        W53219  35.557  34.074  10.448
94124W        W53220  14.778  18.078   5.777
94125W        W53221  12.169  16.310   1.758
94126W        W53222  18.214  26.046  11.082
94127W        W53223  34.865  18.148   4.200
94128W        W53224   9.283  38.423  14.818
94129W        W53225   5.804  39.498  13.912
94130W        W53226  29.147   1.822  14.305
94131W        W53227  34.410  13.601  12.571
94132W        W53228  36.874  13.730   3.808
94133W        W53229   3.240  27.073  13.803
94134W        W53230  11.791  22.682  13.446
94135W        W53231   5.325  26.511   4.703
94136W        W53232   5.370   1.972  13.489
94137W        W53233  19.742   0.314   2.743
94138W        W53234  20.039  37.077  13.333
94139W        W53235   9.356   6.887  13.880
94140W        W53236  33.902  37.443   2.849
94141W        W53237   8.672  42.814  10.898
94142W        W53238  43.886  19.657   3.631
94143W        W53239  22.684  43.809  13.935
94144W        W53240  22.172  19.203   1.863
94145W        W53241  35.001  37.850  12.916
94146W        W53242  44.778  12.349   2.401
94147W        W53243  12.674  15.792  13.439
94148W        W53244  19.606  34.096  14.025
94149W        W53245   9.192  28.082   3.382
94150W        W53246  11.241  43.812   4.725
94151W        W53247  28.060  42.949  10.136
94152W        W53248  30.567   2.789   2.345
94153W        W53249  18.718  18.676  11.584
94154W        W53250   6.287  26.992  13.040
94155W        W53251   4.795   3.268  12.930
94156W        W53252  38.997  29.991   4.348
94157W        W53253   3.715  34.408   3.357
94158W        W53254  25.965   9.840  14.398
94159W        W53255  44.447  11.269   1.814
94160W        W53256  27.501  20.670  12.384
94161W        W53257  27.993  18.751  10.513
94162W        W53258  43.862  17.239  14.997
94163W        W53259  29.622  13.674   1.695
94164W        W53260   1.734   6.412  11.498
94165W        W53261  29.474  33.536  12.424
94166W        W53262  35.488  33.910   0.431
94167W        W53263  16.080  27.020  10.942
94168W        W53264  43.410  36.504   1.439
94169W        W53265  37.455  18.639  13.499
94170W        W53266   5.282  20.264   3.691
94171W        W53267  37.405  13.117   2.878
94172W        W53268  13.193   7.837  14.317
94173W        W53269   7.818   7.693   0.472
94174W        W53270  24.019   0.795   3.698
94175W        W53271  30.624   1.870   4.675
94176W        W53272  17.702  22.067   4.689
94177W        W53273  32.471  14.134  13.531
94178W        W53274  40.447   6.211  14.389
94179W        W53275  33.540   4.408  13.314
94180W        W53276   4.433  37.565  13.006
94181W        W53277  16.119  32.090  11.518
94182W        W53278  10.701   3.270  13.362
94183W        W53279   7.332   3.318   4.729
94184W        W53280  43.953  19.044   3.243
94185W        W53281  11.772  20.268   3.869
94186W        W53282  42.853  15.679   3.798
94187W        W53283  34.946   4.847   1.218
94188W        W53284  28.648  40.054   4.286
94189W        W53285  20.571   4.918   4.335
94190W        W53286  29.572   5.193   2.270
94191W        W53287   9.392   0.917   0.796
94192W        W53288   0.303  22.686   0.422
94193W        W53289  15.626  12.612  10.050
94194W        W53290  42.509  31.408   4.167
94195W        W53291  22.719  31.013  11.919
94196W        W53292  36.371  24.150  12.374
94197W        W53293  28.978  29.985  14.012
94198W        W53294  16.740  26.997  11.931
94199W        W53295  13.192  21.654  14.491
94200W        W53296  43.865  10.678   1.766
94201W        W53297  20.115  29.126   1.429
94202W        W53298   0.825  29.034   0.737
94203W        W53299   8.841  35.939  14.482
94204W        W53300  15.315  18.616  12.434
94205W        W53301  44.400  26.515   0.848
94206W        W53302  25.186  21.189  11.016
94207W        W53303  25.979  42.926   1.899
94208W        W53304   5.917  31.520  14.358
94209W        W53305  27.612  13.326   1.331
94210W        W53306   2.750   6.913   1.356
94211W        W53307  44.470  10.245  13.397
94212W        W53308  29.444  23.099  11.042
94213W        W53309  36.509   7.216  12.483
94214W        W53310  21.170  15.663  13.426
94215W        W53311  23.059  18.736   0.750
94216W        W53312  33.573  13.800   0.733
94217W        W53313  15.090  27.166   4.262
94218W        W53314  12.337  33.051   4.261
94219W        W53315  28.111   6.197   1.698
94220W        W53316  10.186   9.184  12.039
94221W        W53317  43.360   1.809   1.743
94222W        W53318   1.968  11.198  14.377
94223W        W53319  34.995   2.307  14.865
94224W        W53320  36.353  40.973  14.501
94225W        W53321   6.334  19.276  10.628
94226W        W53322  29.611  27.945   3.164
94227W        W53323  26.567  31.570   1.772
94228W        W53324  26.593  25.620   1.391
94229W        W53325  10.833   2.743  11.387
94230W        W53326  16.594  43.992   1.214
94231W        W53327  41.307   8.825  13.976
94232W        W53328  44.960   0.808   0.356
94233W        W53329  27.641  14.749  13.425
94234W        W53330  36.571  36.995   4.201
94235W        W53331  11.666  33.563   3.832
94236W        W53332  10.347  40.516  12.074
94237W        W53333  18.730  34.442   1.868
94238W        W53334  37.537  12.337  14.918
94239W        W53335  22.556  37.372   4.646
94240W        W53336  25.209  27.032   2.742
94241W        W53337  22.166   0.971  12.889
94242W        W53338  43.277  15.135   0.784
94243W        W53339  32.103  23.535  11.934
94244W        W53340  14.617  34.577   2.824
94245W        W53341  20.218  40.383   2.405
94246W        W53342   3.253  19.055  10.515
94247W        W53343  10.196  17.784  14.472
94248W        W53344  40.343  37.958  10.486
94249W        W53345  15.748  26.012   9.938
94250W        W53346  11.690   7.216  12.094
94251W        W53347  35.419  43.330  12.834
94252W        W53348   8.742  22.672   0.757
94253W        W53349  13.298  33.401   3.175
94254W        W53350  35.571   8.793  12.038
94255W        W53351  13.174   6.416   1.725
94256W        W53352  30.433  11.641   3.729
94257W        W53353   2.302  41.522  14.847
94258W        W53354  14.188  11.346  12.926
94259W        W53355  25.545  22.512  13.910
94260W        W53356   8.347  36.357  12.362
94261W        W53357  13.727  37.573   1.719
94262W        W53358  24.191  23.053  14.480
94263W        W53359  20.664  36.019  13.420
94264W        W53360  25.527   4.242   4.714
94265W        W53361  26.673  20.607  14.910
94266W        W53362  10.860  39.452   1.792
94267W        W53363  14.611  18.669   2.355
94268W        W53364  13.766  27.972  14.375
94269W        W53365  22.065  42.465  13.442
94270W        W53366  29.514  39.325   4.698
94271W        W53367  38.543  41.825  13.487
94272W        W53368   4.294  41.447  14.952
94273W        W53369  12.806  41.370  13.926
94274W        W53370  15.760  32.044  12.542
94275W        W53371  28.580  19.093   3.743
94276W        W53372  40.428   7.181  14.000
94277W        W53373  29.662  12.777  13.860
94278W        W53374   0.777  14.257   4.336
94279W        W53375  35.010  10.270  13.463
94280W        W53376   1.342  36.369  11.997
94281W        W53377  12.829  34.470  14.465
94282W        W53378  11.675  11.704  14.419
94283W        W53379  23.058   2.780  14.806
94284W        W53380  16.792  17.802   3.256
94285W        W53381   4.714  39.038  14.464
94286W        W53382   7.290  23.231  14.320
94287W        W53383  44.804  13.296  12.893
94288W        W53384  26.685   5.398   1.274
94289W        W53385  30.550  19.126   1.899
94290W        W53386  17.140  41.355   2.877
94291W        W53387  41.816  34.547  13.489
94292W        W53388  27.568   8.358  13.926
94293W        W53389  33.618   3.435  11.449
94294W        W53390  41.314   4.277   4.817
94295W        W53391  21.656   1.247  13.492
94296W        W53392  23.639  37.018   5.301
94297W        W53393  37.543  18.545   1.211
94298W        W53394  42.861  23.611  10.982
94299W        W53395   2.442   7.757   2.725
94300W        W53396  25.599   8.163  14.444
94301W        W53397  14.625  43.975  10.485
94302W        W53398  24.167  21.597  12.539
94303W        W53399  19.735  13.689  11.871
94304W        W53400  12.273  21.240  11.971
94305W        W53401  30.629  35.002   3.669
94306W        W53402  32.988  21.527   0.403
94307W        W53403   7.770  19.671  14.910
94308W        W53404  15.214  44.393  11.868
94309W        W53405  32.478  15.812   1.273
94310W        W53406  14.805   7.348  10.547
94311W        W53407  38.932  37.462   0.369
94312W        W53408  23.539   4.430   3.379
94313W        W53409  44.813  28.586   3.858
94314W        W53410   7.289  31.010  12.434
94315W        W53411  34.080   0.796  14.861
94316W        W53412  14.780   5.701  12.412
94317W        W53413  43.506  27.647  10.618
94318W        W53414  17.779  27.633   2.330
94319W        W53415   7.322   2.885   4.819
94320W        W53416  23.147   8.711  14.828
94321W        W53417  41.893  10.145   2.756
94322W        W53418  31.935  17.104   5.198
94323W        W53419   1.310  35.021   3.867
94324W        W53420  28.476   5.693  13.899
94325W        W53421  38.067  25.500  12.356
94326W        W53422   0.371  36.388   1.874
94327W        W53423  34.018  44.861   2.358
94328W        W53424  43.018   5.887   0.901
94329W        W53425  34.959  40.839  14.515
94330W        W53426   1.301  44.937  11.988
94331W        W53427   2.439  38.941  12.984
94332W        W53428   1.944   6.880   1.354
94333W        W53429  39.994   0.896   0.900
94334W        W53430  17.198  31.627   3.735
94335W        W53431   8.657  18.115   0.960
94336W        W53432   8.277   6.889  13.882
94337W        W53433  32.437   3.903  10.485
94338W        W53434  44.901  43.390  14.924
94339W        W53435  36.553  33.953  10.951
94340W        W53436  23.152  41.794  12.983
94341W        W53437  23.064  16.131  14.440
94342W        W53438  27.992  25.699  14.765
94343W        W53439  11.277   4.227   0.846
94344W        W53440  37.892  22.243  11.427
94345W        W53441  40.907  37.412   4.656
94346W        W53442   4.351  42.843   0.860
94347W        W53443  25.152   0.374  14.802
94348W        W53444  40.522  34.120   2.367
94349W        W53445  11.330  15.193   0.775
94350W        W53446  44.462  41.957   4.694
94351W        W53447  21.573   4.820  14.923
94352W        W53448   5.846  17.744   4.120
94353W        W53449   0.311  19.592  14.999
94354W        W53450  32.059  21.729   4.661
94355W        W53451   5.906  33.918  10.982
94356W        W53452  24.702   6.913   4.725
94357W        W53453  22.226  29.508  12.541
94358W        W53454   4.350  42.360   0.316
94359W        W53455  20.753  38.874   0.311
94360W        W53456  17.795  44.911   2.415
94361W        W53457  20.273  37.941   2.694
94362W        W53458  13.811  35.949  10.040
94363W        W53459   7.398  40.492   2.814
94364W        W53460  24.516  18.076  11.433
94365W        W53461  14.315   4.434  11.548
94366W        W53462  19.130  10.240  13.465
94367W        W53463  40.866   0.398  12.499
94368W        W53464  44.806  30.102  12.892
94369W        W53465  30.123  40.954  11.053
94370W        W53466  13.658   2.410  11.497
94371W        W53467  22.590  41.389   3.268
94372W        W53468  41.319  30.103  12.437
94373W        W53469  39.818  29.040   3.735
94374W        W53470   6.754   5.396  10.640
94375W        W53471   8.214  21.732   3.270
94376W        W53472  31.575  14.690  10.520
94377W        W53473  27.601  38.900  12.551
94378W        W53474  38.010  28.650  13.355
94379W        W53475  29.492  40.444  11.528
94380W        W53476  20.074  38.901   4.787
94381W        W53477  12.670   2.765   1.743
94382W        W53478  31.504  36.560  11.420
94383W        W53479  25.547  43.810  10.423
94384W        W53480  38.428   3.316   4.204
94385W        W53481  11.750  21.706   4.743
94386W        W53482  10.757  38.453   2.877
94387W        W53483  24.199  40.532   2.702
94388W        W53484  32.138  41.847   4.655
94389W        W53485  25.148  43.303  10.583
94390W        W53486  24.521  18.591   2.843
94391W        W53487  30.602  11.370  11.010
94392W        W53488  12.723   0.252   2.307
94393W        W53489  28.046  20.663  10.955
94394W        W53490  21.247  42.834   0.845
94395W        W53491  17.763   4.749   2.205
94396W        W53492   8.304  37.930  11.519
94397W        W53493  18.122  14.626  14.322
94398W        W53494  27.468   2.467  10.624
94399W        W53495  37.500  33.132   4.161
94400W        W53496  36.900  15.634  10.425
94401W        W53497  33.886  33.925  14.956
94402W        W53498   1.830  43.004   4.120
94403W        W53499  13.629  11.673  12.956
94404W        W53500  33.110  25.689  14.323
94405W        W53501  25.605  23.614   0.282
94406W        W53502  33.396   9.872   4.740
94407W        W53503  16.769  39.941   4.321
94408W        W53504  16.707  40.003   4.812
94409W        W53505  28.986  12.287  14.871
94410W        W53506  42.292  17.689  12.401
94411W        W53507  43.929   0.312   0.366
94412W        W53508  13.762  23.041   1.248
94413W        W53509  10.258  30.018   5.762
94414W        W53510   2.812  19.536   2.893
94415W        W53511  22.218  35.920  14.393
94416W        W53512   9.865  33.109  11.109
94417W        W53513  10.869   2.938   4.176
94418W        W53514  42.371   3.744  14.310
94419W        W53515  30.485  33.608  13.972
94420W        W53516  16.599  24.722  14.911
94421W        W53517  12.195  18.066  10.467
94422W        W53518  42.993   3.329   4.640
94423W        W53519  42.343  13.734  11.938
94424W        W53520   0.470  36.378   0.249
94425W        W53521  32.582  21.539  12.859
94426W        W53522  29.973  28.172   0.783
94427W        W53523   5.394  21.675  10.558
94428W        W53524  43.017  25.632  14.495
94429W        W53525  17.271   3.732  13.055
94430W        W53526   1.920  42.893  11.046
94431W        W53527  25.576  43.843   4.200
94432W        W53528  25.020  28.608   4.243
94433W        W53529  34.968  38.507  13.891
94434W        W53530  39.966   1.459  12.934
94435W        W53531   1.415   9.827   3.670
94436W        W53532  16.317  40.859   2.385
94437W        W53533  31.551  10.863   0.281
94438W        W53534  22.741   5.211  11.880
94439W        W53535   3.743  35.503  12.857
94440W        W53536  24.021  42.958   3.266
94441W        W53537   6.827  43.270  13.833
94442W        W53538  11.263  20.674   1.345
94443W        W53539  30.470  13.689   2.181
94444W        W53540  26.506  24.977   2.301
94445W        W53541  22.545   4.245  14.513
94446W        W53542  17.235  21.624  11.901
94447W        W53543  15.247  38.334  13.899
94448W        W53544  36.561  11.710  14.999
94449W        W53545  23.513   4.390   1.781
94450W        W53546  19.107   1.937   3.350
94451W        W53547   6.215  18.630  11.895
94452W        W53548   2.851   1.879  13.865
94453W        W53549  37.502  39.489   0.280
94454W        W53550   8.212  32.121   4.832
94455W        W53551   9.771  29.633  10.581
94456W        W53552  24.012  39.004  12.421
94457W        W53553   5.291  34.872  11.590
94458W        W53554  40.038   3.719   1.363
94459W        W53555  12.716  37.447   2.337
94460W        W53556  36.065  42.928   0.476
94461W        W53557  22.014   1.866   3.189
94462W        W53558  19.586   1.389   0.362
94463W        W53559  13.184  24.099  12.960
94464W        W53560  10.671  23.666  14.994
94465W        W53561   0.884  28.134  13.980
94466W        W53562   7.172  38.568  10.486
94467W        W53563  13.344  36.363   2.739
94468W        W53564   3.223  25.531   1.884
94469W        W53565   0.348   5.693  14.768
94470W        W53566  12.800  18.061  14.860
94471W        W53567  44.878  42.834   4.611
94472W        W53568  13.254  22.730   5.156
94473W        W53569  28.446  40.352   4.303
94474W        W53570  17.739  43.802  11.117
94475W        W53571   9.173  32.976   3.870
94476W        W53572  37.937   6.281   4.614
94477W        W53573  24.674  42.504   0.930
94478W        W53574   0.885  30.637   2.727
94479W        W53575  43.421  41.500   4.707
94480W        W53576  29.957  43.294  10.423
94481W        W53577  21.159  11.689  14.442
94482W        W53578  16.301   9.664  10.561
94483W        W53579  10.772  15.252  11.996
94484W        W53580  23.986   9.782   2.678
94485W        W53581  19.118  34.607   0.947
94486W        W53582  33.874  36.475   4.192
94487W        W53583   8.790   6.363   1.403
94488W        W53584  44.974  31.537  11.993
94489W        W53585  37.994  15.151  10.479
94490W        W53586  22.621  43.446   4.230
94491W        W53587   4.394  16.303  13.988
94492W        W53588  23.694  16.585  13.521
94493W        W53589  20.253  31.931  13.051
94494W        W53590   6.315  44.474  10.121
94495W        W53591  40.891   4.824  11.524
94496W        W53592   8.184  14.143   2.265
94497W        W53593  43.419  44.415   2.891
94498W        W53594   7.222   3.848   2.894
94499W        W53595  25.153   9.179  11.438
94500W        W53596  28.084   6.340   2.723
94501W        W53597   3.447  13.797  11.437
94502W        W53598  10.674  37.509   2.899
94503W        W53599  23.530  22.558  12.050
94504W        W53600  22.632  26.542  13.541
94505W        W53601  43.412  29.654  14.909
94506W        W53602  44.331  24.633  11.529
94507W        W53603  13.156  43.509   2.242
94508W        W53604  14.270  23.530  13.326
94509W        W53605   5.817  24.170  14.957
94510W        W53606   1.929  31.516  14.414
94511W        W53607  37.009   8.190   0.876
94512W        W53608   1.814  42.298  14.482
94513W        W53609  12.720   6.747  11.056
94514W        W53610  32.889   7.375   3.683
94515W        W53611  13.693  42.317   1.328
94516W        W53612  38.419  21.607  10.619
94517W        W53613  13.229   7.719  14.909
94518W        W53614   9.300  13.226  10.479
94519W        W53615  25.584  32.551  14.808
94520W        W53616  28.633  23.163  11.019
94521W        W53617  37.477  25.217  13.869
94522W        W53618  32.625  40.325  13.371
94523W        W53619  13.730  11.821  10.505
94524W        W53620  38.329  38.451   4.673
94525W        W53621   3.428  31.969   3.210
94526W        W53622  15.609  26.612  14.453
94527W        W53623  12.784   6.770  11.591
94528W        W53624  21.184  34.583  12.006
94529W        W53625   7.908  16.689   1.788
94530W        W53626  35.090  39.938  14.854
94531W        W53627   3.796  30.002   0.301
94532W        W53628   7.338  17.188   0.869
94533W        W53629  19.611  17.718   2.231
94534W        W53630  37.831  21.698  11.990
94535W        W53631   8.754   7.315  11.127
94536W        W53632  13.319   8.801  13.510
94537W        W53633  22.191   2.727  12.498
94538W        W53634   4.374  26.480   2.270
94539W        W53635  24.990  30.628  14.402
94540W        W53636  13.702  24.488  10.897
94541W        W53637  26.048  10.223  13.479
94542W        W53638  18.764  22.172  12.876
94543W        W53639  26.955  24.179   1.726
94544W        W53640  17.069   2.356  14.425
94545W        W53641  39.334   1.749   1.374
94546W        W53642   7.262  27.175  14.866
94547W        W53643   4.351   5.437  14.411
94548W        W53644  14.114  12.613   1.909
94549W        W53645  24.120  12.153   2.747
94550W        W53646  11.739  26.132   2.243
94551W        W53647  42.410  22.147   3.189
94552W        W53648  39.896   2.393  13.800
94553W        W53649   9.358  18.113  11.959
94554W        W53650  19.637  41.369   0.342
94555W        W53651  31.939  20.609  14.792
94556W        W53652   3.291  29.435  12.518
94557W        W53653  25.598  13.646  12.081
94558W        W53654  30.068  14.108  12.862
94559W        W53655  43.325  33.598  12.436
94560W        W53656   0.486  14.160   2.898
94561W        W53657  35.899  29.949  11.577
94562W        W53658  13.780  24.110  12.016
94563W        W53659  22.738   6.232   1.306
94564W        W53660  18.746  42.505   3.228
94565W        W53661   2.774   4.276  11.606
94566W        W53662  18.727  18.608  14.281
94567W        W53663  31.923  28.013  11.492
94568W        W53664   9.288  23.565   0.261
94569W        W53665   0.463  33.126  13.311
94570W        W53666  40.985  17.070   0.249
94571W        W53667  44.354  40.990   2.738
94572W        W53668   9.710  44.331   4.670
94573W        W53669  29.945  12.794   2.250
94574W        W53670  21.033  23.500  11.482
94575W        W53671  28.055   1.892   3.695
94576W        W53672  16.240   6.813  14.415
94577W        W53673   9.654   5.909   0.376
94578W        W53674   1.886  31.612  10.597
94579W        W53675  18.180  33.108  12.394
94580W        W53676   7.799   2.794  13.937
94581W        W53677   0.748   9.344  13.012
94582W        W53678   2.847  12.738   4.160
94583W        W53679  33.888  11.625  12.955
94584W        W53680  15.321  14.133  14.914
94585W        W53681   2.306  11.793  14.489
94586W        W53682  21.614  31.581   4.241
94587W        W53683  41.455   9.250  11.947
94588W        W53684  15.584  24.205   4.320
94589W        W53685  24.607  10.213  12.955
94590W        W53686  13.154   0.305   3.223
94591W        W53687  18.773   3.282  11.582
94592W        W53688  27.613  16.081  12.485
94593W        W53689  39.913  24.164   4.793
94594W        W53690   3.834  18.639   0.421
94595W        W53691   8.316  44.502  13.358
94596W        W53692  10.792  33.979   4.143
94597W        W53693  35.590  41.314  11.982
94598W        W53694  43.297  24.974  13.972
94599W        W53695   5.371  39.061   1.233
94600W        W53696   5.403  24.069   1.368
94601W        W53697  29.068  15.714  12.916
94602W        W53698  19.177   3.371   4.716
94603W        W53699  43.884  33.931   0.308
94604W        W53700  28.075  17.141  10.935
94605W        W53701  28.185   3.305  12.469
94606W        W53702  21.100  22.037   4.120
94607W        W53703   8.309  42.324  11.424
94608W        W53704  15.666  43.398   4.254
94609W        W53705   2.875  32.921  14.392
94610W        W53706  34.025  41.993   2.364
94611W        W53707  30.072  27.631   3.651
94612W        W53708  43.409  19.650  10.480
94613W        W53709  15.618   7.413  12.417
94614W        W53710  27.668  33.392   0.288
94615W        W53711   7.394   7.753   4.113
94616W        W53712  38.472   7.249   4.717
94617W        W53713   0.273   5.370   1.747
94618W        W53714  31.587  23.613   2.307
94619W        W53715  33.881  35.367  10.476
94620W        W53716   5.413  40.354   1.292
94621W        W53717  35.469  37.466   4.182
94622W        W53718   2.834   7.280   1.774
94623W        W53719  18.057   6.231  10.551
94624W        W53720  13.291  41.308  11.013
94625W        W53721   6.353  10.674  12.394
94626W        W53722  42.848  32.594  14.954
94627W        W53723   0.330  36.064   3.252
94628W        W53724  10.247  31.940  13.885
94629W        W53725   8.200  14.798   1.432
94630W        W53726  25.172  13.639  14.463
94631W        W53727   7.792   6.795  14.761
94632W        W53728   2.805  10.302   9.925
94633W        W53729   0.489  43.499   0.959
94634W        W53730  13.342  28.947  13.448
94635W        W53731   2.961  23.019   2.774
94636W        W53732  37.339  11.759  14.334
94637W        W53733   9.307   0.871  13.019
94638W        W53734  40.501  13.165  12.007
94639W        W53735   6.695   1.917   0.314
94640W        W53736  39.378  29.572   1.386
94641W        W53737   2.404  16.786  13.048
94642W        W53738   7.403  33.458  12.578
94643W        W53739  43.368  12.318   1.447
94644W        W53740   2.787  35.460   1.734
94645W        W53741   5.222  22.228  12.391
94646W        W53742  20.759   2.763   1.730
94647W        W53743   9.230  32.088  13.045
94648W        W53744  39.050   1.846   4.174
94649W        W53745  40.517  40.302  14.763
94650W        W53746  11.357  29.532   2.384
94651W        W53747  24.598  22.119  13.954
94652W        W53748  42.451   8.822   2.817
94653W        W53749  11.232  40.459   3.168
94654W        W53750  33.053  35.479  11.992
94655W        W53751  17.724   2.252   2.827
94656W        W53752  22.671  29.142   3.380
94657W        W53753  21.701   6.337   9.998
94658W        W53754   3.893  23.107  13.412
94659W        W53755   7.284  42.379   2.411
94660W        W53756   4.204  14.148   0.336
94661W        W53757  11.814   9.283  13.532
94662W        W53758  21.607  31.640   0.772
94663W        W53759  42.831  12.179  12.379
94664W        W53760  19.269  26.077   4.351
94665W        W53761  13.620  22.608  11.971
94666W        W53762   5.784  27.185   3.284
94667W        W53763   1.902  38.384   4.298
94668W        W53764   0.876  30.558  14.363
94669W        W53765   0.461   2.759   4.300
94670W        W53766   4.420  29.120   3.691
94671W        W53767   7.744  33.954  12.414
94672W        W53768  16.612  19.659  12.924
94673W        W53769  18.286   0.763  10.525
94674W        W53770  15.680  34.090  13.876
94675W        W53771  32.502  18.243  13.863
94676W        W53772  26.549  34.872  13.348
94677W        W53773   2.916  26.160   2.784
94678W        W53774  26.567  26.697  14.814
94679W        W53775  44.971  44.353  10.441
94680W        W53776  14.695   5.890  11.075
94681W        W53777  20.526  34.542   9.532
94682W        W53778  43.375   0.855  10.580
94683W        W53779  35.930   8.174   3.740
94684W        W53780  20.611   9.378  14.504
94685W        W53781  31.900  22.222  11.868
94686W        W53782  16.784  30.574  11.419
94687W        W53783  43.010   2.383   0.822
94688W        W53784  33.516   2.422  10.084
94689W        W53785  27.667  42.864   1.359
94690W        W53786  36.921  12.272  13.361
94691W        W53787   3.953  36.431   3.770
94692W        W53788   9.850  23.647   1.279
94693W        W53789   3.793  16.149   2.208
94694W        W53790  24.720   6.214   1.774
94695W        W53791   7.257  37.865   4.188
94696W        W53792  15.157  14.153   4.160
94697W        W53793  12.167  42.951   1.365
94698W        W53794  26.682   1.969  11.080
94699W        W53795  11.629  23.196  12.485
94700W        W53796  38.040  35.468   1.921
94701W        W53797   2.731  39.929  13.839
94702W        W53798  33.951  14.144   9.934
94703W        W53799  36.005  35.430  12.437
94704W        W53800  26.578  13.245   2.206
94705W        W53801  21.696   8.781   3.191
94706W        W53802  15.610  37.055  12.534
94707W        W53803  36.392  39.904  14.393
94708W        W53804   4.419  30.427   1.896
94709W        W53805  33.405  37.503  11.517
94710W        W53806  44.821   6.873   2.247
94711W        W53807   8.887  14.223   2.376
94712W        W53808  25.156   9.374   0.926
94713W        W53809   8.660   1.324   2.671
94714W        W53810   3.266  42.799  12.541
94715W        W53811  33.582  21.712  13.035
94716W        W53812  36.006  12.190  13.058
94717W        W53813  10.375   3.384   4.597
94718W        W53814  33.875   8.709  12.042
94719W        W53815  30.505  26.504   3.274
94720W        W53816   1.899  35.056   5.309
94721W        W53817  30.628   0.310  13.971
94722W        W53818  31.477  21.098  13.825
94723W        W53819   5.769   3.797  11.413
94724W        W53820   7.847  43.020   4.240
94725W        W53821  35.998  27.958  10.895
94726W        W53822  17.596  26.686   3.345
94727W        W53823  33.900  33.517  14.368
94728W        W53824  24.999   6.874  11.117
94729W        W53825  28.489  31.470  14.329
94730W        W53826  30.050  23.517   3.335
94731W        W53827   8.168  17.785  13.415
94732W        W53828  39.060  15.644   5.180
94733W        W53829  24.014   1.956  11.476
94734W        W53830  18.140   0.253   3.279
94735W        W53831  38.938   9.658   1.297
94736W        W53832  38.434  34.493  13.404
94737W        W53833  24.119  43.995  14.000
94738W        W53834  17.673   9.732   1.261
94739W        W53835  13.638  24.700   2.839
94740W        W53836  33.011  33.055  14.491
94741W        W53837   2.938  12.810  12.090
94742W        W53838   1.441   4.408   4.752
94743W        W53839   4.905  15.148   2.766
94744W        W53840   9.263  37.359  13.538
94745W        W53841  13.723  36.987  14.854
94746W        W53842  32.015   6.213   5.241
94747W        W53843  31.080   1.347   1.399
94748W        W53844  34.373  12.790  10.423
94749W        W53845   0.479  20.530   2.384
94750W        W53846  19.117  30.619   1.341
94751W        W53847   3.755  35.034  14.305
94752W        W53848  30.555  28.167   2.723
94753W        W53849  23.220  29.495  10.928
94754W        W53850  16.283  20.199  13.501
94755W        W53851   2.310  28.174   0.289
94756W        W53852  40.005  34.390   2.322
94757W        W53853  32.957  37.358   3.684
94758W        W53854  21.177  14.192  13.413
94759W        W53855   7.368  32.517   3.344
94760W        W53856  39.942  30.482  12.912
94761W        W53857  16.640  31.055  13.887
94762W        W53858  39.449  14.253  14.321
94763W        W53859  31.970   1.790  11.427
94764W        W53860   7.722  18.548  14.366
94765W        W53861  15.202  33.567   4.823
94766W        W53862  28.992  43.320  10.911
94767W        W53863  13.754  31.492  13.350
94768W        W53864  13.318  41.897  10.410
94769W        W53865   8.684  17.619  14.279
94770W        W53866   6.207  11.192  13.872
94771W        W53867  25.592  17.155   1.807
94772W        W53868  14.123  21.583  12.949
94773W        W53869  13.635  22.164   3.702
94774W        W53870  32.110  38.387   3.834
94775W        W53871  33.553  23.689   0.758
94776W        W53872   7.181   7.186  12.469
94777W        W53873   8.225  19.769  14.023
94778W        W53874  35.413  32.992   0.435
94779W        W53875  32.462  10.671  10.443
94780W        W53876  29.012  36.007  13.367
94781W        W53877  39.880   5.761  12.514
94782W        W53878  29.625  38.563  10.998
94783W        W53879  35.852   1.453  12.082
94784W        W53880  17.241  32.483   4.791
94785W        W53881  40.040  33.986  13.988
94786W        W53882  17.265  17.142  12.944
94787W        W53883   8.252  30.565   0.281
94788W        W53884  23.029  12.616   2.396
94789W        W53885  11.244  34.406   4.729
94790W        W53886   3.404  41.459   1.345
94791W        W53887  39.431  18.100   3.654
94792W        W53888  37.564  31.919  13.310
94793W        W53889  43.011   2.240  11.413
94794W        W53890  13.349  15.778   9.616
94795W        W53891  15.126   2.783  14.475
94796W        W53892  37.030   4.862   2.843
94797W        W53893  21.068  32.626  11.408
94798W        W53894  44.996  26.184   1.908
94799W        W53895  16.281  43.924  10.418
94800W        W53896  44.998  21.650  12.521
94801W        W53897  12.760   3.277   2.738
94802W        W53898  22.163  36.388   0.407
94803W        W53899  37.406  11.334  14.996
94804W        W53900  17.215  28.081   2.884
94805W        W53901  16.732  21.046  14.009
94806W        W53902  23.008   8.260   3.323
94807W        W53903  31.609  23.106  13.802
94808W        W53904  33.486  32.571   4.689
94809W        W53905  28.990   0.271  12.451
94810W        W53906   2.444  27.539   3.805
94811W        W53907  27.993  24.150  11.508
94812W        W53908   4.252  24.710  12.829
94813W        W53909   0.744  41.976  11.996
94814W        W53910  31.084  16.239  12.828
94815W        W53911  17.581  14.140   1.896
94816W        W53912  44.436  11.722  11.111
94817W        W53913  20.064  12.745   3.377
94818W        W53914   1.805   0.788  12.435
94819W        W53915   5.193  40.404  14.393
94820W        W53916   7.254   6.718   0.427
94821W        W53917   8.218   1.366   3.812
94822W        W53918  14.673   2.781  11.485
94823W        W53919  22.565  40.402   2.739
94824W        W53920  13.710  40.944   3.267
94825W        W53921  37.507  13.216   4.333
94826W        W53922  35.085  17.572   4.653
94827W        W53923  22.184  28.031  11.971
94828W        W53924  18.623   7.780   3.742
94829W        W53925  12.705  27.045  10.606
94830W        W53926   4.381  11.289   2.767
94831W        W53927   7.690   6.898   0.245
94832W        W53928  44.419  36.576   0.440
94833W        W53929   0.386  14.826   3.305
94834W        W53930  28.147  29.460  12.831
94835W        W53931  14.759  41.420   4.730
94836W        W53932  20.556  15.767  14.851
94837W        W53933  34.587   7.392   0.869
94838W        W53934  20.131  24.046  14.366
94839W        W53935   2.804  22.722  13.857
94840W        W53936   4.762  28.067   4.299
94841W        W53937  21.605  33.926   3.375
94842W        W53938   7.353  16.088  14.327
94843W        W53939  28.047  25.039  11.471
94844W        W53940  16.669  11.363   3.703
94845W        W53941  28.996  35.865  10.016
94846W        W53942  23.616  19.696  13.852
94847W        W53943  42.876  31.119   0.896
94848W        W53944  11.201  11.725   0.382
94849W        W53945  13.617  37.978   4.776
94850W        W53946  41.310  34.101  11.054
94851W        W53947  21.541   6.725   1.787
94852W        W53948  32.540  20.116   0.386
94853W        W53949  41.326   2.466  12.049
94854W        W53950  16.576   2.954  12.907
94855W        W53951  18.759  31.017   4.708
94856W        W53952   2.752  30.608  14.408
94857W        W53953  13.216   5.215  14.463
94858W        W53954  11.627  17.682   1.735
94859W        W53955  26.977  36.508  10.575
94860W        W53956  10.230  19.223  11.957
94861W        W53957   1.752  43.879  12.486
94862W        W53958  34.408  19.284   0.822
94863W        W53959   8.235  23.637  14.793
94864W        W53960  13.275  38.860  10.116
94865W        W53961   9.276  41.800  13.364
94866W        W53962  25.696  10.759  14.957
94867W        W53963  41.499  27.677  12.888
94868W        W53964  25.134   0.317   2.707
94869W        W53965  21.524  28.113   1.273
94870W        W53966   4.819   2.245   0.301
94871W        W53967   1.404  10.795   2.202
94872W        W53968  33.399  33.012  13.819
94873W        W53969   6.428  38.540  12.462
94874W        W53970  29.621  11.796  13.317
94875W        W53971  20.069   7.306   5.218
94876W        W53972   7.822  43.941  10.595
94877W        W53973  30.907   5.322  14.428
94878W        W53974  31.027  37.517  11.376
94879W        W53975  21.641  26.153   0.792
94880W        W53976  15.700  40.022   3.781
94881W        W53977   9.385   9.660  12.854
94882W        W53978  40.870  31.571   2.350
94883W        W53979  42.868  17.782  12.564
94884W        W53980  35.603   0.866   3.756
94885W        W53981  15.810  30.915   2.704
94886W        W53982  25.060  37.043   3.710
94887W        W53983  43.799  14.225  11.470
94888W        W53984   5.346  22.249   1.733
94889W        W53985  24.071   8.197  14.825
94890W        W53986  20.111  35.407   2.190
94891W        W53987  18.290  39.441   3.245
94892W        W53988  12.839  41.894  11.863
94893W        W53989  20.723  12.844  14.901
94894W        W53990  14.760  20.119  11.126
94895W        W53991  33.391  12.648   4.611
94896W        W53992   7.688  18.063   3.379
94897W        W53993  25.210  15.728  13.799
94898W        W53994   8.293  27.664   4.345
94899W        W53995  36.591   7.670  10.513
94900W        W53996   1.772  10.281  11.072
94901W        W53997  16.617  21.137   4.709
94902W        W53998  38.844  27.483  13.017
94903W        W53999  44.003  20.694   0.762
94904W        W54000  39.867   6.896  14.822
94905W        W54001  25.980  30.987  14.009
94906W        W54002  30.964   7.728  12.898
94907W        W54003  23.026  28.088   4.601
94908W        W54004  21.697  26.466   2.196
94909W        W54005  15.625  21.524  10.478
94910W        W54006  43.466  10.855  13.345
94911W        W54007  34.529   7.878  13.967
94912W        W54008  43.872  38.503  13.999
94913W        W54009  33.449  43.378  12.445
94914W        W54010  35.872  38.449   1.837
94915W        W54011  25.542   4.362   3.663
94916W        W54012   0.388   8.317   1.766
94917W        W54013  34.072  44.353  14.469
94918W        W54014   6.339  39.914   3.263
94919W        W54015  14.632   5.874  11.387
94920W        W54016  19.606  36.429  13.414
94921W        W54017  28.105  34.880  14.829
94922W        W54018  38.036   2.959   3.213
94923W        W54019  37.484  22.240  12.095
94924W        W54020  39.458  38.495  13.945
94925W        W54021  23.635  33.019  12.880
94926W        W54022  36.359  12.749  12.061
94927W        W54023  42.461   7.256  12.386
94928W        W54024   5.309  12.196  13.871
94929W        W54025  42.514   9.653   1.394
94930W        W54026  31.555  32.493  10.597
94931W        W54027  29.666   7.224  10.447
94932W        W54028  32.465   8.230  13.451
94933W        W54029  30.525  24.530   5.200
94934W        W54030  30.021  28.133   4.773
94935W        W54031   1.967  18.578  13.324
94936W        W54032  12.161   7.285  13.957
94937W        W54033  33.502   5.902  13.017
94938W        W54034  31.626   0.378   3.674
94939W        W54035  34.994  25.523  10.977
94940W        W54036  42.497  33.524  10.079
94941W        W54037   1.253  34.381   4.132
94942W        W54038  37.012  37.411  13.944
94943W        W54039  18.169  33.020   4.814
94944W        W54040  15.321  29.663   2.266
94945W        W54041  33.496  24.579   3.864
94946W        W54042  14.221  31.635  12.838
94947W        W54043  22.589  12.227   0.306
94948W        W54044   8.164  36.960  11.597
94949W        W54045  42.825  24.133   0.299
94950W        W54046  15.674  26.694  14.860
94951W        W54047  21.216  21.593   1.243
94952W        W54048  20.626  35.569   1.360
94953W        W54049  33.442  14.724  12.385
94954W        W54050   6.191   5.406   1.773
94955W        W54051  19.108  21.740   4.208
94956W        W54052  29.616  24.986  12.453
94957W        W54053  18.711  30.480  10.055
94958W        W54054   7.376  41.330   1.792
94959W        W54055   0.940  24.080   0.892
94960W        W54056  40.933  43.351  11.104
94961W        W54057  21.037  35.385   1.264
94962W        W54058  31.133  11.822  12.424
94963W        W54059  18.187  42.776   0.346
94964W        W54060  14.328  23.143  13.541
94965W        W54061   7.761  42.817  11.857
94966W        W54062  31.539   1.790  14.840
94967W        W54063  17.082  26.158  14.354
94968W        W54064  23.546  26.999  10.450
94969W        W54065  33.385  12.266   4.315
94970W        W54066  35.964   3.787  11.931
94971W        W54067  34.524  23.085   2.184
94972W        W54068  40.427  42.032   4.672
94973W        W54069  40.965  39.837   2.290
94974W        W54070   9.671  24.669  12.838
94975W        W54071  34.521   1.477   2.805
94976W        W54072  33.449  26.603  10.607
94977W        W54073   0.451  16.193   0.372
94978W        W54074  29.117  39.476  11.939
94979W        W54075  36.370  40.051   3.361
94980W        W54076   5.287  15.269  11.063
94981W        W54077   0.347  11.321  13.491
94982W        W54078  26.033  43.408  11.899
94983W        W54079  38.341  29.120   1.434
94984W        W54080  29.580  34.863   0.398
94985W        W54081  23.545  33.551  13.357
94986W        W54082  18.088  39.548   3.679
94987W        W54083  40.005  25.631  11.509
94988W        W54084  30.907  43.786   2.789
94989W        W54085   1.293  31.631   2.358
94990W        W54086   2.327  23.495   0.808
94991W        W54087   9.355  24.511   2.724
94992W        W54088   1.447  29.935   4.635
94993W        W54089  18.148  29.032  12.049
94994W        W54090  14.599   0.485  10.948
94995W        W54091   5.766  10.179   3.339
94996W        W54092  22.123  10.635  12.358
94997W        W54093   5.728   0.776  12.918
94998W        W54094  43.310  25.072   2.350
94999W        W54095  25.618  16.269  11.422
95000W        W54096   4.744  15.087   4.622
95001W        W54097   3.952  21.642  14.907
95002W        W54098   2.860  26.090  13.410
95003W        W54099  40.454   3.373   5.221
95004W        W54100   2.385   8.661   2.685
95005W        W54101  33.085   2.258   3.262
95006W        W54102  42.451   4.757  12.539
95007W        W54103  24.697  41.814  14.897
95008W        W54104   7.404  15.195   1.756
95009W        W54105  13.310   6.859  14.027
95010W        W54106  17.707   1.296   1.914
95011W        W54107  15.713  24.682  13.042
95012W        W54108  15.175  22.712  12.362
95013W        W54109  23.636  35.856  14.475
95014W        W54110  13.648  30.648  13.902
95015W        W54111  19.156  20.605  12.489
95016W        W54112   1.293   7.392   0.349
95017W        W54113   0.809  18.636  11.011
95018W        W54114   2.871  18.287  12.563
95019W        W54115  28.569  34.421  12.957
95020W        W54116  14.231  37.997  13.500
95021W        W54117   4.909  15.800   3.744
95022W        W54118   6.284   8.163   2.695
95023W        W54119  29.989  32.468  10.548
95024W        W54120   1.883  35.017   0.437
95025W        W54121  13.330  19.139   4.250
95026W        W54122  34.037  16.718  10.625
95027W        W54123  38.456  31.146  13.056
95028W        W54124  22.673  42.800   3.643
95029W        W54125  21.147   7.313  14.983
95030W        W54126  33.118   7.228  12.933
95031W        W54127  37.889  15.236  14.331
95032W        W54128  10.297   8.347   2.385
95033W        W54129   6.369   8.365   0.790
95034W        W54130  17.781  36.482   4.244
95035W        W54131  33.435  42.956  14.311
95036W        W54132  35.384  35.595  11.972
95037W        W54133  10.282   3.425   2.337
95038W        W54134   3.776   4.437   4.659
95039W        W54135  11.714  11.687   5.128
95040W        W54136  24.483  26.624   5.282
95041W        W54137   9.666  39.493   1.411
95042W        W54138   5.880  20.588   1.807
95043W        W54139   7.718  31.535  11.872
95044W        W54140   3.239  36.914   0.751
95045W        W54141   7.218  17.706  12.024
95046W        W54142  27.043  42.880  10.557
95047W        W54143  26.675  38.339  14.949
95048W        W54144   2.754  41.334  11.543
95049W        W54145  23.696  13.756   1.424
95050W        W54146  38.943  26.087  11.085
95051W        W54147  22.177  24.565  10.467
95052W        W54148  19.614  25.656   0.961
95053W        W54149  12.199  11.324   0.926
95054W        W54150  12.267  27.066   2.719
95055W        W54151   2.330  40.423   3.664
95056W        W54152  32.005   9.238  14.306
95057W        W54153   0.910  31.975  10.089
95058W        W54154  24.178  16.701   1.715
95059W        W54155  33.460  25.657  13.974
95060W        W54156  37.928  36.351  12.955
95061W        W54157   9.313  14.195   3.201
95062W        W54158  11.324   0.386   0.787
95063W        W54159   4.905   5.737   4.805
95064W        W54160  17.112  23.176   0.450
95065W        W54161  24.981  13.740  12.380
95066W        W54162  34.495   4.700   9.992
95067W        W54163  44.935   5.710  11.944
95068W        W54164   1.940   4.700  13.977
95069W        W54165   4.381  32.506  10.911
95070W        W54166   6.839  18.774  14.361
95071W        W54167  18.200   8.691  12.055
95072W        W54168   1.852  35.486   0.908
95073W        W54169   2.933  37.038  14.898
95074W        W54170   2.254  24.982  13.824
95075W        W54171  18.729  28.010   1.413
95076W        W54172  23.238  17.159  14.436
95077W        W54173  25.078   4.309   3.774
95078W        W54174  15.099  22.501   3.653
95079W        W54175  44.004  42.299  10.979
95080W        W54176  33.516   6.374   1.237
95081W        W54177  40.906   8.894   0.243
95082W        W54178  13.345  25.039   4.259
95083W        W54179  38.480  44.487   2.209
95084W        W54180  28.024  29.981   2.695
95085W        W54181  13.754   1.271   1.902
95086W        W54182  16.226  43.436  11.982
95087W        W54183  34.445   3.218   1.306
95088W        W54184  24.137  12.178  10.937
95089W        W54185  10.220   8.179  14.930
95090W        W54186  43.799  25.974  13.363
95091W        W54187  18.772  44.360   0.938
95092W        W54188  41.894  23.498   0.289
95093W        W54189   2.444  24.216  11.022
95094W        W54190  34.374  33.567   0.312
95095W        W54191  27.024  23.070   1.836
95096W        W54192   6.803  15.643   3.261
95097W        W54193  34.372  27.663   1.298
95098W        W54194  43.342  37.072   1.766
95099W        W54195  10.246  43.439   0.337
95100W        W54196  31.969  12.721  10.418
95101W        W54197  18.193  25.194  14.032
95102W        W54198   1.242  27.621  14.296
95103W        W54199  43.326  40.536   2.336
95104W        W54200  20.532  29.561   3.831
95105W        W54201  19.186  38.354  12.003
95106W        W54202  40.517   7.858  10.935
95107W        W54203  10.866  32.021  11.444
95108W        W54204  36.027  12.358  11.455
95109W        W54205  36.863  37.878  12.936
95110W        W54206  16.604  23.719   3.672
95111W        W54207  42.322  36.883   1.820
95112W        W54208  42.294  44.323  13.428
95113W        W54209  35.493  38.960   1.793
95114W        W54210   2.433  39.009  13.962
95115W        W54211  41.316  28.649  10.615
95116W        W54212  25.171  15.721   3.294
95117W        W54213  26.677  28.471  13.986
95118W        W54214  13.697  43.811  10.437
95119W        W54215   4.727   8.183  13.987
95120W        W54216  20.587  38.837  14.006
95121W        W54217  14.123  29.971   0.459
95122W        W54218  33.990  25.005  14.900
95123W        W54219  33.039  31.456   0.815
95124W        W54220   5.424  40.487   4.621
95125W        W54221  29.500  31.001  13.505
95126W        W54222   1.933   1.356  14.412
95127W        W54223  16.635  15.205  13.874
95128W        W54224  28.603  21.065  10.988
95129W        W54225  30.618   8.737   5.289
95130W        W54226  42.360   9.346  13.502
95131W        W54227  43.463   6.207   0.431
95132W        W54228  23.678  11.690   3.215
95133W        W54229  17.265  40.960  14.425
95134W        W54230  39.944  19.041  10.565
95135W        W54231  32.945  38.558   1.829
95136W        W54232   2.938  38.378  10.485
95137W        W54233  10.248  13.162   0.323
95138W        W54234  16.609  27.990   0.834
95139W        W54235   3.740  19.088   0.834
95140W        W54236  31.625  18.688  11.459
95141W        W54237  33.887  29.588   3.855
95142W        W54238  40.462  43.822   0.905
95143W        W54239  29.992  26.058  14.374
95144W        W54240  29.455  44.433  12.986
95145W        W54241  41.412  16.242  12.933
95146W        W54242  36.552   1.435   0.792
95147W        W54243  25.504  28.529   1.343
95148W        W54244  32.581  16.273  12.432
95149W        W54245   4.258   2.848  12.976
95150W        W54246  19.049  30.495  12.359
95151W        W54247  35.422  40.486  13.813
95152W        W54248  14.179  36.420  11.973
95153W        W54249  31.118   8.826  13.907
95154W        W54250  19.627   0.854   5.214
95155W        W54251  35.907  13.347  13.534
95156W        W54252  27.145  20.036   9.512
95157W        W54253  43.818  24.513   0.769
95158W        W54254  25.061   3.799  12.447
95159W        W54255  26.087   8.842   1.340
95160W        W54256  28.435  20.755   1.916
95161W        W54257  24.602  38.833  12.433
95162W        W54258   9.784  21.640   2.238
95163W        W54259   9.717  14.685   1.735
95164W        W54260  28.543  11.775   2.836
95165W        W54261  16.644  11.330  14.794
95166W        W54262   8.301  19.743  12.862
95167W        W54263  26.019  30.124  13.473
95168W        W54264  35.601  20.685  13.519
95169W        W54265   3.247   7.328   4.827
95170W        W54266   0.264   8.706  13.534
95171W        W54267  19.176  44.273  11.490
95172W        W54268   9.318  32.032  11.527
95173W        W54269  13.650  34.945  12.581
95174W        W54270  36.491  19.164  11.452
95175W        W54271  25.658  13.742   3.180
95176W        W54272  18.688  40.867   3.866
95177W        W54273  15.694  21.062   0.839
95178W        W54274  40.958  11.233  14.358
95179W        W54275  16.607  20.544  14.984
95180W        W54276  39.406  26.616   0.866
95181W        W54277  16.200   1.795  13.544
95182W        W54278  38.829   0.807  13.940
95183W        W54279  35.036  37.386   4.173
95184W        W54280  37.541   5.846   0.336
95185W        W54281  35.431  38.964  13.941
95186W        W54282  33.925   8.178  11.378
95187W        W54283   8.176  27.054   1.726
95188W        W54284  15.653   4.737  11.478
95189W        W54285  41.844  17.756  12.066
95190W        W54286  21.080  11.785  13.464
95191W        W54287   3.850   2.436  14.471
95192W        W54288  24.994  43.771   0.769
95193W        W54289  35.395  20.228  14.012
95194W        W54290   6.235   2.888  11.516
95195W        W54291  12.678  43.909  13.835
95196W        W54292  15.787  24.108  13.821
95197W        W54293  40.352  22.053   3.231
95198W        W54294  13.660  23.691  12.962
95199W        W54295  19.738  11.372   3.691
95200W        W54296  10.377   1.948  10.466
95201W        W54297  44.764  17.750   1.844
95202W        W54298  35.902   8.172  14.841
95203W        W54299   0.483  37.008   3.153
95204W        W54300  38.046  23.064  11.453
95205W        W54301   6.227  34.374  10.451
95206W        W54302   0.314  30.511  11.108
95207W        W54303  37.456  34.925   4.219
95208W        W54304  23.700   2.914   3.844
95209W        W54305  31.455  17.240  13.041
95210W        W54306  21.180  25.498   3.257
95211W        W54307  24.706   3.452  14.825
95212W        W54308  43.999   8.862   2.324
95213W        W54309  10.799   5.405  12.357
95214W        W54310   4.877  24.192   0.324
95215W        W54311   3.321  17.269   4.807
95216W        W54312   8.796  20.104   5.292
95217W        W54313  37.988  17.276  10.588
95218W        W54314   1.890  40.355  10.465
95219W        W54315  24.507  22.054   5.652
95220W        W54316  17.739  39.987  14.945
95221W        W54317  35.010  29.613  11.923
95222W        W54318  33.077  15.179  10.042
95223W        W54319  35.539  38.830  12.958
95224W        W54320  38.331  28.450   2.399
95225W        W54321  19.693  31.403  11.961
95226W        W54322  10.152  12.275   4.312
95227W        W54323   4.217  12.672  10.426
95228W        W54324  23.716  40.456  14.860
95229W        W54325  37.467  38.820  14.920
95230W        W54326  42.824   6.821   4.703
95231W        W54327  14.131  33.044  11.583
95232W        W54328  12.767  16.615  12.902
95233W        W54329  21.522   3.801  11.128
95234W        W54330  13.194  20.701   1.884
95235W        W54331   7.251  14.162  10.643
95236W        W54332   8.681  22.224   2.719
95237W        W54333  12.195   9.728  13.864
95238W        W54334  37.065  10.304   0.407
95239W        W54335  34.398  22.204   3.313
95240W        W54336  43.441  38.044  14.366
95241W        W54337  41.375   5.829  11.391
95242W        W54338  12.258   2.349  11.884
95243W        W54339  22.632  22.529  14.963
95244W        W54340  12.358  44.939  14.975
95245W        W54341  43.319  20.749  13.909
95246W        W54342   3.742  20.091   2.192
95247W        W54343  16.766   7.401   0.325
95248W        W54344  21.588  21.748  14.860
95249W        W54345  42.936  26.013  11.107
95250W        W54346   8.245  18.243   4.748
95251W        W54347   8.373  44.942  14.828
95252W        W54348   9.375  43.447   3.262
95253W        W54349  17.786  23.573  12.576
95254W        W54350   9.270  36.940  12.087
95255W        W54351  13.319  18.108   4.307
95256W        W54352  44.441  11.235  11.992
95257W        W54353   9.177  26.078   1.732
95258W        W54354  33.522  25.032  11.127
95259W        W54355  29.444   0.494  14.965
95260W        W54356  28.497   4.830   1.749
95261W        W54357  28.150  19.690   3.208
95262W        W54358  42.288  38.497   4.729
95263W        W54359  34.964  19.660   3.366
95264W        W54360  31.930   4.923   2.747
95265W        W54361  41.421  13.130   3.768
95266W        W54362   3.456  31.502  10.426
95267W        W54363  37.019  23.593  14.831
95268W        W54364  37.984  40.549  14.510
95269W        W54365  41.896  33.085   4.726
95270W        W54366  33.001  16.703  13.477
95271W        W54367  31.076  20.758  11.967
95272W        W54368  14.315  27.028  14.952
95273W        W54369   8.864   0.347  13.311
95274W        W54370  41.449   4.439   0.482
95275W        W54371  36.560  16.751   3.662
95276W        W54372  31.496  24.571   2.357
95277W        W54373  39.527  14.169   2.877
95278W        W54374   6.761  26.012   1.342
95279W        W54375   8.706  10.345   2.776
95280W        W54376   8.767  41.465   1.362
95281W        W54377   0.266   8.824  11.556
95282W        W54378   1.418   9.382   3.320
95283W        W54379  11.638  35.090  14.984
95284W        W54380  36.407  12.688  12.916
95285W        W54381   7.211   1.334  10.440
95286W        W54382   1.357   4.285  10.543
95287W        W54383   6.418  21.043   1.917
95288W        W54384  25.057   0.309  13.969
95289W        W54385  37.568  42.323   1.871
95290W        W54386  11.218  22.143  10.428
95291W        W54387  28.483  36.930   3.207
95292W        W54388  36.859  35.871   4.755
95293W        W54389  17.191   7.739   1.409
95294W        W54390  35.009   7.398   9.947
95295W        W54391   6.885  34.974   0.817
95296W        W54392  40.926  32.106   4.685
95297W        W54393  26.526  15.234  13.964
95298W        W54394   4.819  20.131  14.839
95299W        W54395  16.300   1.884   0.937
95300W        W54396  11.656   5.363   3.818
95301W        W54397  30.079  13.209   3.218
95302W        W54398  23.107  25.019  12.082
95303W        W54399  40.903  26.651   4.142
95304W        W54400  40.417  37.934   3.359
95305W        W54401  18.290  14.617   2.849
95306W        W54402  28.531  38.448  13.821
95307W        W54403  39.989  39.514   4.729
95308W        W54404  11.763  13.318  13.402
95309W        W54405  34.530  42.907   1.729
95310W        W54406  20.670  16.264   2.195
95311W        W54407  39.487  22.116   3.669
95312W        W54408   8.844  19.053  11.082
95313W        W54409  10.225  42.776  10.045
95314W        W54410  17.075  19.234  11.522
95315W        W54411  13.747  24.649  10.513
95316W        W54412  14.278  28.521  12.947
95317W        W54413   3.780   9.772  14.868
95318W        W54414   6.342  38.962  13.844
95319W        W54415  32.102  11.756  11.079
95320W        W54416  36.379  34.863  11.919
95321W        W54417   6.209  36.458   3.289
95322W        W54418  40.366   7.359   2.748
95323W        W54419   3.824  18.626  13.400
95324W        W54420   2.461  26.085  14.922
95325W        W54421   8.235   5.731   0.802
95326W        W54422  33.567  30.594   1.396
95327W        W54423  17.607  40.421   0.474
95328W        W54424  19.104  18.689   2.282
95329W        W54425  41.037  20.654  13.505
95330W        W54426  38.551  22.561   1.800
95331W        W54427  19.693  38.526   2.719
95332W        W54428   6.206   7.264  12.025
95333W        W54429   6.764   2.821   1.918
95334W        W54430   8.884   6.768   4.684
95335W        W54431  14.776  37.955   4.627
95336W        W54432  19.073  12.823   3.366
95337W        W54433  35.414  10.798  14.019
95338W        W54434  23.055   7.344  13.344
95339W        W54435  36.520   0.464   1.341
95340W        W54436   4.929  28.544  13.863
95341W        W54437  33.574   6.392  11.955
95342W        W54438  20.119  18.618   2.316
95343W        W54439  13.726  25.522  11.609
95344W        W54440  24.999  16.175   0.377
95345W        W54441  13.781  26.582  14.507
95346W        W54442   5.833  17.105  11.423
95347W        W54443  33.614  26.548  11.117
95348W        W54444   8.875  33.064  10.053
95349W        W54445   0.419  35.432  11.907
95350W        W54446  15.231  10.198  11.950
95351W        W54447  32.065  31.464   0.299
95352W        W54448  44.924  38.519  14.498
95353W        W54449   2.748  17.167   4.141
95354W        W54450  39.937   8.167   3.856
95355W        W54451  17.801  41.789  13.539
95356W        W54452   1.851  18.054   4.246
95357W        W54453   0.798  43.015  14.851
95358W        W54454   0.863  13.675   1.768
95359W        W54455  23.085  39.437   4.740
95360W        W54456  33.041  38.400   2.753
95361W        W54457   2.919  29.620  11.530
95362W        W54458  30.469  31.481  10.531
95363W        W54459  31.961  33.048  10.896
95364W        W54460   3.854  18.685   1.878
95365W        W54461  16.650  28.934   1.332
95366W        W54462  14.732   9.271   3.245
95367W        W54463  29.581  26.091   0.748
95368W        W54464  23.078   3.920  13.892
95369W        W54465  22.152  11.337  14.441
95370W        W54466  15.291  41.325  12.075
95371W        W54467  43.954  21.754   0.963
95372W        W54468  43.475  15.120   4.744
95373W        W54469  34.991  36.592   4.767
95374W        W54470   0.840  34.908   1.255
95375W        W54471  31.019  40.826   1.449
95376W        W54472   7.296  43.291   2.895
95377W        W54473   0.415  23.723  10.424
95378W        W54474  35.386  43.407   4.316
95379W        W54475  28.991   8.280   0.423
95380W        W54476  38.822  18.705  10.999
95381W        W54477   4.231   0.336  10.568
95382W        W54478  22.589   5.299  10.973
95383W        W54479   6.282  11.696  13.346
95384W        W54480  44.795   4.413   0.806
95385W        W54481   8.867  30.098   1.866
95386W        W54482   2.841  40.932  14.984
95387W        W54483  19.089   0.488   4.205
95388W        W54484  15.705   8.219   0.383
95389W        W54485  26.640  39.894  13.000
95390W        W54486  25.666   9.378  13.969
95391W        W54487   2.425  41.470   3.681
95392W        W54488   4.934  27.600  12.430
95393W        W54489  26.643  36.582   2.288
95394W        W54490  35.572   4.748  13.041
95395W        W54491  25.082  15.271   0.445
95396W        W54492  14.112  17.174  12.079
95397W        W54493   8.407  28.019  12.505
95398W        W54494  40.988  22.215  13.909
95399W        W54495   7.745  12.235  14.862
95400W        W54496  42.792   5.726  14.897
95401W        W54497  16.774  21.176  10.565
95402W        W54498  19.069  24.621   1.364
95403W        W54499  18.659   7.197   4.129
95404W        W54500  41.807  26.478  14.500
95405W        W54501  10.710  28.599  14.912
95406W        W54502  11.362   7.802   3.749
95407W        W54503  28.641  31.918   1.696
95408W        W54504   3.352   5.369   2.354
95409W        W54505  37.833  26.535  12.572
95410W        W54506  36.956  33.440   1.275
95411W        W54507  17.731  16.297  13.342
95412W        W54508  23.571  37.481   1.835
95413W        W54509  32.946  41.528   4.754
95414W        W54510  33.992  29.056   2.249
95415W        W54511   5.378   7.410   0.760
95416W        W54512   1.869  18.281  11.540
95417W        W54513  21.734  24.104  14.402
95418W        W54514  13.249  23.630  11.384
95419W        W54515  11.723  32.127  14.776
95420W        W54516  42.824   4.214  14.359
95421W        W54517  18.235  25.062  14.931
95422W        W54518   0.792  29.610  14.940
95423W        W54519  29.442  16.270  11.582
95424W        W54520  39.401  42.334  14.492
95425W        W54521  18.747  34.442  13.358
95426W        W54522  20.174   6.388   5.219
95427W        W54523   5.877  38.345   2.396
95428W        W54524  39.442   5.367   2.243
95429W        W54525   8.684  18.057  14.946
95430W        W54526  26.564  14.301  13.987
95431W        W54527  44.980  41.895   4.279
95432W        W54528   1.967  29.119  11.090
95433W        W54529  44.328  20.718   0.462
95434W        W54530   7.783   9.780  11.099
95435W        W54531   6.696   7.356   0.471
95436W        W54532  16.203  39.435  13.009
95437W        W54533  40.331  36.922  14.964
95438W        W54534  14.640  16.789   4.769
95439W        W54535  13.671   4.213  14.421
95440W        W54536  26.126  38.534   1.372
95441W        W54537   2.776   3.833   3.267
95442W        W54538   4.715   5.381   0.891
95443W        W54539   3.411  19.243  13.791
95444W        W54540  26.086  42.476   1.281
95445W        W54541   8.167  10.192   2.778
95446W        W54542  33.887   0.822  14.290
95447W        W54543  34.556  25.127   4.762
95448W        W54544  15.093  36.434   1.329
95449W        W54545   1.241   6.187  14.441
95450W        W54546  26.028   3.250   3.671
95451W        W54547  26.021  32.983   3.232
95452W        W54548   2.763  11.782  10.924
95453W        W54549   6.371  35.856  10.921
95454W        W54550  43.878   7.911   3.318
95455W        W54551  35.541  32.501  12.090
95456W        W54552  33.054   1.321   1.448
95457W        W54553  17.197  19.658   3.727
95458W        W54554  36.527  31.481  14.410
95459W        W54555   6.862  15.785  10.634
95460W        W54556   4.238  17.291  10.957
95461W        W54557  18.111  18.142  14.403
95462W        W54558  44.299  26.636   4.177
95463W        W54559  25.684   2.361   4.710
95464W        W54560  16.123   5.794   4.339
95465W        W54561   2.393  20.262  14.507
95466W        W54562  12.755   1.376  10.931
95467W        W54563  14.283  29.515  12.439
95468W        W54564  42.308   2.279   1.762
95469W        W54565  35.432  25.023  11.406
95470W        W54566   1.244  25.549   4.149
95471W        W54567  36.857  16.152   3.652
95472W        W54568  25.009  33.468  12.910
95473W        W54569  33.444  33.935  12.853
95474W        W54570  12.648  14.785   1.715
95475W        W54571  42.321  34.383   0.915
95476W        W54572  11.667  10.675  12.521
95477W        W54573  36.877  36.919  13.382
95478W        W54574  18.678  37.421  14.316
95479W        W54575  28.104  27.529   4.207
95480W        W54576  24.101  14.615  14.499
95481W        W54577  44.352  18.050  11.539
95482W        W54578  35.513   8.883   3.360
95483W        W54579  36.843  30.611   1.257
95484W        W54580  42.408  21.713  14.956
95485W        W54581  11.816  26.631   2.229
95486W        W54582  17.280  33.060   5.215
95487W        W54583   0.425  36.355   3.317
95488W        W54584  38.540  35.015  13.373
95489W        W54585  42.878  35.989   2.352
95490W        W54586   5.875  12.228   3.259
95491W        W54587  13.675  24.621  13.943
95492W        W54588  21.158   6.363  13.476
95493W        W54589  12.793  32.045  12.446
95494W        W54590  43.770  26.082   1.784
95495W        W54591  44.276  32.106  14.768
95496W        W54592  43.944  10.319   3.667
95497W        W54593  32.613  14.645  14.318
95498W        W54594  36.478  13.614   2.831
95499W        W54595  30.534   8.863   0.788
95500W        W54596  11.226   7.845   4.202
95501W        W54597   9.254  33.492  13.532
95502W        W54598  34.037  29.929  10.484
95503W        W54599  40.390  38.941   4.288
95504W        W54600  38.993  21.572  12.478
95505W        W54601  43.943  27.688   4.144
95506W        W54602  33.961   7.846  12.940
95507W        W54603   4.277   2.839   2.353
95508W        W54604  15.128   1.464   1.420
95509W        W54605  15.746   8.345  11.385
95510W        W54606  12.230  10.179   1.394
95511W        W54607  23.538  38.972   3.731
95512W        W54608  21.058   0.292  10.035
95513W        W54609  34.581  40.350   2.397
95514W        W54610  28.664  26.993  13.389
95515W        W54611  36.063  19.108  13.328
95516W        W54612  24.686  25.214  10.889
95517W        W54613  29.670  14.824  14.878
95518W        W54614  40.906  16.713   2.356
95519W        W54615  13.240  29.662   4.223
95520W        W54616  33.973  22.193   4.249
95521W        W54617   2.876  30.415   2.887
95522W        W54618   2.440  33.918  10.493
95523W        W54619  24.573  36.349  10.527
95524W        W54620  10.777  35.596   0.282
95525W        W54621  39.338  16.075  14.786
95526W        W54622  36.505  37.042  10.469
95527W        W54623  43.869  20.175  11.986
95528W        W54624  16.283   3.903  12.455
95529W        W54625   8.784  31.007   1.351
95530W        W54626  27.638   7.670  12.000
95531W        W54627   6.779  25.581  10.921
95532W        W54628  18.084  24.031  11.478
95533W        W54629  27.472  19.576   2.747
95534W        W54630  40.425  28.988   2.886
95535W        W54631  10.350  35.947   2.817
95536W        W54632  17.251  34.120  11.040
95537W        W54633  25.060  18.642   4.245
95538W        W54634  20.579  17.200  14.888
95539W        W54635   1.314  18.155  11.410
95540W        W54636  26.509  12.137  14.866
95541W        W54637  41.927  29.008  14.454
95542W        W54638  21.030  25.117  12.389
95543W        W54639  41.386   6.363  12.541
95544W        W54640  29.579   0.480   3.647
95545W        W54641  33.494  16.704  14.973
95546W        W54642   8.704  33.984   0.965
95547W        W54643  23.660   9.292   2.736
95548W        W54644   8.866  41.804  14.490
95549W        W54645  18.259  40.426  13.324
95550W        W54646   8.735  12.821  13.478
95551W        W54647   9.745   1.813  12.038
95552W        W54648  28.665   7.318  10.514
95553W        W54649  13.179  26.968  11.074
95554W        W54650  42.892  42.826   0.302
95555W        W54651  15.808  10.170   9.982
95556W        W54652  15.681  33.896   0.802
95557W        W54653  10.174   5.324   4.619
95558W        W54654   9.269  22.150   4.226
95559W        W54655  10.678  43.502  14.925
95560W        W54656  18.617  14.338   0.442
95561W        W54657  40.009   0.355  13.417
95562W        W54658  18.549   7.365   3.271
95563W        W54659   6.705  10.366  12.032
95564W        W54660  34.108   8.804   1.425
95565W        W54661  42.394   9.175  10.935
95566W        W54662  23.703  31.140  14.487
95567W        W54663  33.605  38.409   1.425
95568W        W54664  29.639  14.102   1.312
95569W        W54665  42.929  12.169  10.483
95570W        W54666  39.860  12.639  11.962
95571W        W54667  14.187  22.672   2.414
95572W        W54668  16.261  16.205   2.180
95573W        W54669  27.570   0.342  11.499
95574W        W54670  37.357  23.142  11.992
95575W        W54671   7.697  34.570  10.146
95576W        W54672   3.365  43.841  10.989
95577W        W54673  26.044  18.753   3.317
95578W        W54674   2.947   4.823  10.628
95579W        W54675  34.963  39.408   0.280
95580W        W54676   4.334  17.731  13.924
95581W        W54677  29.605  24.682  14.006
95582W        W54678   0.884  19.731   3.217
95583W        W54679  35.857  35.922  11.390
95584W        W54680   7.819   4.810   3.311
95585W        W54681  31.644  44.498   0.731
95586W        W54682   2.826  44.394   1.855
95587W        W54683  27.130  12.169  11.595
95588W        W54684  31.100  36.564  11.443
95589W        W54685  37.432  22.025   0.805
95590W        W54686  35.922  11.264   1.740
95591W        W54687  26.199  34.399  14.354
95592W        W54688  36.911  20.556   3.352
95593W        W54689  25.550  24.161   0.471
95594W        W54690   8.892  11.304  14.339
95595W        W54691  22.552  18.595  12.883
95596W        W54692  18.773  18.251   1.404
95597W        W54693   1.364  28.103   0.318
95598W        W54694   0.470   3.351  12.461
95599W        W54695  14.632  21.254  13.009
95600W        W54696  40.437   7.814   4.656
95601W        W54697  42.382  18.720   0.917
95602W        W54698   8.253  26.611   1.304
95603W        W54699  27.609  35.427  12.898
95604W        W54700  31.415  21.612  12.055
95605W        W54701   8.192   1.847   3.817
95606W        W54702  16.122  13.658   4.131
95607W        W54703  13.118  18.699   0.943
95608W        W54704   0.491  35.506   4.301
95609W        W54705  38.065  16.130   3.644
95610W        W54706   4.758  11.737  13.034
95611W        W54707   4.449  12.193  11.480
95612W        W54708  12.151  41.451  11.538
95613W        W54709  39.373  20.035   1.320
95614W        W54710   6.396  23.512   5.177
95615W        W54711  41.527   4.387  14.847
95616W        W54712  34.539   4.287   0.311
95617W        W54713  34.920  30.567   4.643
95618W        W54714  35.082  17.249   1.901
95619W        W54715  18.630  28.091   0.272
95620W        W54716  32.043   1.765  14.827
95621W        W54717  28.559  27.573   1.777
95622W        W54718   6.307   2.305  13.411
95623W        W54719  28.040  25.169   9.990
95624W        W54720   0.759  34.005  10.555
95625W        W54721  31.963  33.998   1.844
95626W        W54722  13.329   9.173  14.875
95627W        W54723  15.098  14.764   4.743
95628W        W54724  18.610  15.265  11.444
95629W        W54725   2.387  20.739   0.333
95630W        W54726   2.806  39.910  11.490
95631W        W54727  30.163  29.170   4.348
95632W        W54728   1.296  38.877  12.890
95633W        W54729  18.674  15.694   1.787
95634W        W54730   3.415   8.818  10.970
95635W        W54731   2.451  32.999   1.393
95636W        W54732   1.859  40.049  11.418
95637W        W54733   7.220  39.353   2.361
95638W        W54734  35.073  31.429  13.517
95639W        W54735  44.378  21.222  13.336
95640W        W54736  26.622   1.923   2.777
95641W        W54737  20.036  24.553  10.609
95642W        W54738   9.679  17.302  11.435
95643W        W54739   2.906  24.158   9.510
95644W        W54740  41.812  35.006   0.839
95645W        W54741  11.291  28.075   4.298
95646W        W54742  14.711  18.724   1.424
95647W        W54743   2.284  14.638  12.909
95648W        W54744  22.225  27.466  12.845
95649W        W54745  40.017   4.884   4.342
95650W        W54746  33.527  10.254   5.270
95651W        W54747  39.997  33.479  10.496
95652W        W54748   6.355  39.955   2.895
95653W        W54749  34.562   2.373  12.841
95654W        W54750  22.742  27.602   0.245
95655W        W54751  34.993  12.634   0.825
95656W        W54752  41.452  41.426  12.070
95657W        W54753  39.810  33.409  14.305
95658W        W54754  17.660  13.609  11.100
95659W        W54755  25.182  24.620   0.788
95660W        W54756  24.193   1.296   0.896
95661W        W54757  24.652  13.104  14.405
95662W        W54758  34.426  25.082  12.079
95663W        W54759  17.779  42.282   2.734
95664W        W54760  16.730  31.486  11.445
95665W        W54761  34.475   0.822   0.308
95666W        W54762  11.137  39.346  12.548
95667W        W54763  11.852  27.114  14.933
95668W        W54764  40.846  12.148  13.817
95669W        W54765  22.663  35.003   3.231
95670W        W54766  12.301   6.723  13.441
95671W        W54767  37.536  30.592   0.931
95672W        W54768  36.977   4.927   3.222
95673W        W54769   9.694  35.110  13.421
95674W        W54770  26.978  24.537  14.408
95675W        W54771  42.342  11.152   1.720
95676W        W54772   7.214  13.693  13.328
95677W        W54773  33.084  34.048   4.678
95678W        W54774   5.836  34.542   0.894
95679W        W54775   3.800  21.045  10.958
95680W        W54776   0.743  23.167   1.287
95681W        W54777  39.935   2.731  11.548
95682W        W54778  36.493  24.037  11.454
95683W        W54779  22.206  42.903  10.970
95684W        W54780   2.283  41.806   0.425
95685W        W54781  28.066  15.767   3.327
95686W        W54782  28.038  11.260  10.559
95687W        W54783  39.556  26.201   1.401
95688W        W54784  38.966   7.731   1.361
95689W        W54785  43.303  23.720   4.222
95690W        W54786  44.430   2.941  14.980
95691W        W54787  39.352  15.683  14.828
95692W        W54788   3.385  12.154   3.210
95693W        W54789   0.803   7.249  14.841
95694W        W54790  33.427   0.494   4.154
95695W        W54791  34.881   2.860   0.416
95696W        W54792  44.504  21.589   4.318
95697W        W54793  13.326  36.905   1.855
95698W        W54794  23.158  30.622  11.010
95699W        W54795   1.828  42.831  10.617
95700W        W54796  26.015  43.489   4.796
95701W        W54797  12.825  10.635   2.767
95702W        W54798  39.511  18.203  13.434
95703W        W54799  43.392  21.130  10.627
95704W        W54800  14.251   4.797   5.270
95705W        W54801  23.239  10.865   1.310
95706W        W54802   1.350  11.753  13.460
95707W        W54803  12.826  20.184  12.048
95708W        W54804  14.183   5.319   1.221
95709W        W54805  37.873   6.295  12.446
95710W        W54806   2.414  31.455   0.251
95711W        W54807  12.252  43.397  13.491
95712W        W54808  10.361  16.235  13.051
95713W        W54809  20.671   7.247   2.842
95714W        W54810  21.675  28.969  12.040
95715W        W54811  40.007   0.391  13.934
95716W        W54812  14.198  22.070  12.482
95717W        W54813  24.106  44.913   1.834
95718W        W54814  40.864   1.474  11.046
95719W        W54815  13.349   7.234   0.937
95720W        W54816   5.410   7.709  11.891
95721W        W54817   2.459  17.612  12.834
95722W        W54818  17.211  38.034   2.808
95723W        W54819  31.582   4.777   0.477
95724W        W54820  38.037  41.809   0.327
95725W        W54821   4.207  34.378   4.624
95726W        W54822  27.663   3.948  11.056
95727W        W54823  35.513  14.815  12.406
95728W        W54824   7.264  41.459  11.867
95729W        W54825  18.175  35.452  12.572
95730W        W54826   5.408   6.774   4.817
95731W        W54827  44.306  12.185  12.519
95732W        W54828   5.804  38.393   1.805
95733W        W54829  27.130  23.661  11.102
95734W        W54830   6.388   4.846  14.507
95735W        W54831  41.335  15.111  14.944
95736W        W54832  38.838  21.023   4.291
95737W        W54833  11.300  28.014   0.813
95738W        W54834  25.078  15.293   2.826
95739W        W54835   9.322   4.743   3.653
95740W        W54836  32.888  41.466   3.380
95741W        W54837  16.289  31.557   2.746
95742W        W54838   7.316  37.441  14.939
95743W        W54839  31.465  44.878  10.948
95744W        W54840  34.946   1.818   1.860
95745W        W54841  10.182  42.515  14.920
95746W        W54842  22.634  41.996   4.665
95747W        W54843   9.744   0.435   1.725
95748W        W54844   7.720  29.543   0.932
95749W        W54845  17.716  30.460   2.197
95750W        W54846   8.357   6.361  14.317
95751W        W54847  20.222   8.211   4.637
95752W        W54848   5.772  30.027   0.771
95753W        W54849  11.185  25.650  13.476
95754W        W54850  14.210   9.218   1.358
95755W        W54851  15.221   6.843  12.093
95756W        W54852  34.437   9.875  12.521
95757W        W54853  21.103  28.511  13.032
95758W        W54854  26.039  27.969  12.519
95759W        W54855  21.197  31.604   4.270
95760W        W54856  28.549  26.147   1.706
95761W        W54857   9.824  38.557  11.954
95762W        W54858   1.969  40.409   5.233
95763W        W54859  12.618  20.524  13.382
95764W        W54860  40.505  17.786  11.011
95765W        W54861   1.883   9.393   3.312
95766W        W54862  11.633  14.735  13.954
95767W        W54863  41.464   7.700   4.302
95768W        W54864  11.738   7.908  11.109
95769W        W54865  26.472   2.333   4.666
95770W        W54866  16.689   8.269  13.054
95771W        W54867  32.553  14.743   1.932
95772W        W54868  31.909  37.000  10.594
95773W        W54869  20.613  12.294  12.406
95774W        W54870   5.871  38.909   2.260
95775W        W54871  23.681  37.944   2.188
95776W        W54872  20.109  11.365  13.892
95777W        W54873  21.731  27.066   4.668
95778W        W54874  32.139  18.105  12.973
95779W        W54875  18.564  39.933   4.669
95780W        W54876  14.784  31.576   4.139
95781W        W54877  34.907  17.773  13.812
95782W        W54878  22.672   9.175  14.869
95783W        W54879   5.813   9.787   2.690
95784W        W54880  11.352  30.477   4.300
95785W        W54881  34.402  34.078  10.972
95786W        W54882  22.530   4.909   4.117
95787W        W54883  35.087   3.437   4.278
95788W        W54884  33.043  40.322  12.996
95789W        W54885  15.139  34.552   5.239
95790W        W54886  15.740  13.299   3.804
95791W        W54887  15.087  11.250  10.500
95792W        W54888  22.026  34.037   1.405
95793W        W54889  17.580   7.266  13.047
95794W        W54890  33.585  28.577  12.046
95795W        W54891  38.843  22.672   0.410
95796W        W54892   8.225   2.779   3.743
95797W        W54893   9.808   4.272   3.821
95798W        W54894  29.570  18.750  10.549
95799W        W54895  36.874  28.140   3.285
95800W        W54896  10.146   7.196  11.885
95801W        W54897  44.838  25.186   1.355
95802W        W54898  17.299  18.550   0.788
95803W        W54899  21.665  22.501  10.529
95804W        W54900   6.301  43.856  13.967
95805W        W54901  22.229  26.630  14.472
95806W        W54902  44.940  32.547  14.431
95807W        W54903  10.155  44.347  14.294
95808W        W54904  24.217  28.042   2.381
95809W        W54905   8.366  39.537  11.445
95810W        W54906   2.789  44.889  10.512
95811W        W54907  36.588  18.616  14.318
95812W        W54908  32.044  14.323  11.964
95813W        W54909  25.639  30.427   5.297
95814W        W54910  23.502  41.924   0.391
95815W        W54911  36.544  10.842   4.813
95816W        W54912   3.256   5.736   3.329
95817W        W54913   1.443  25.997  11.088
95818W        W54914  37.919   5.240  12.045
95819W        W54915   7.237   1.824  13.433
95820W        W54916   4.717  36.496   1.892
95821W        W54917  10.361  13.822   5.141
95822W        W54918  24.187  12.845  10.106
95823W        W54919   9.721  36.361  14.356
95824W        W54920  31.414  12.220   3.721
95825W        W54921  36.086  30.634   4.629
95826W        W54922  33.450  41.537   4.278
95827W        W54923   1.841  41.839   2.855
95828W        W54924  42.447   5.198  12.493
95829W        W54925  21.645   6.216  11.987
95830W        W54926  44.295  28.452  12.392
95831W        W54927  17.736  17.705   0.948
95832W        W54928  30.041  19.713  14.466
95833W        W54929  27.089  41.537  11.585
95834W        W54930  18.275   9.651  12.881
95835W        W54931  23.696  33.615   0.917
95836W        W54932  38.467   6.837  13.995
95837W        W54933  34.048  25.690  12.570
95838W        W54934   8.813  32.093   0.310
95839W        W54935   7.226   6.892  11.980
95840W        W54936  42.514  19.175  11.055
95841W        W54937  30.138  24.660   9.930
95842W        W54938  20.747   2.280  11.913
95843W        W54939  15.175  11.760  14.391
95844W        W54940  12.227  13.347   5.237
95845W        W54941  28.022  32.439  12.433
95846W        W54942  34.878   4.850  10.515
95847W        W54943   7.412  17.094   3.333
95848W        W54944  41.918  18.138  13.340
95849W        W54945  11.700  40.388   1.860
95850W        W54946  24.038   1.800   5.194
95851W        W54947   4.394   5.375   1.725
95852W        W54948  44.879  44.446  12.976
95853W        W54949   3.927   5.269  12.416
95854W        W54950  15.805  36.574   1.451
95855W        W54951  28.118  39.889  10.444
95856W        W54952  33.586  32.073  12.376
95857W        W54953   1.912  41.984   2.399
95858W        W54954   5.782  32.038   0.753
95859W        W54955   6.769   6.220   0.276
95860W        W54956  17.647  19.666  11.123
95861W        W54957  31.512   3.744  12.421
95862W        W54958  30.534  41.475   1.891
95863W        W54959   1.904  29.550  13.396
95864W        W54960   1.975  34.569  11.477
95865W        W54961  31.125  17.255   4.142
95866W        W54962  16.090   5.899   1.358
95867W        W54963  26.141  28.929  11.535
95868W        W54964  13.111  12.137  11.458
95869W        W54965  43.324  32.111  11.413
95870W        W54966  31.097   9.788   1.233
95871W        W54967   8.873  14.722  13.853
95872W        W54968  17.653  35.000  11.438
95873W        W54969  28.041  22.099   0.802
95874W        W54970  33.523  32.142  12.854
95875W        W54971   4.759  12.729  10.042
95876W        W54972   1.441  25.105  13.345
95877W        W54973  15.220   4.742   3.336
95878W        W54974  10.850  34.109  13.806
95879W        W54975  41.989  15.652  11.865
95880W        W54976   9.821  19.670   1.386
95881W        W54977   5.736  42.486   1.312
95882W        W54978  35.535  23.716  13.832
95883W        W54979  29.448  29.077  13.030
95884W        W54980  29.437  36.509  10.596
95885W        W54981  44.429  38.471   1.875
95886W        W54982  35.559  38.523   3.646
95887W        W54983   7.741   1.481  11.485
95888W        W54984   6.228  40.522  11.972
95889W        W54985  12.731  38.828   1.857
95890W        W54986  11.171  29.947   3.327
95891W        W54987   5.413  19.234   1.836
95892W        W54988  35.039  15.706   3.269
95893W        W54989  13.800  22.075   2.885
95894W        W54990  27.156  27.977  12.964
95895W        W54991  39.500  36.469  12.036
95896W        W54992  25.008  17.671   4.319
95897W        W54993   9.339  10.244   1.344
95898W        W54994  23.096  27.946  14.012
95899W        W54995  39.006  29.670  14.301
95900W        W54996   9.178  24.079  14.309
95901W        W54997  33.525   1.774   4.261
95902W        W54998  38.914  21.698   4.282
95903W        W54999  42.379  20.183   0.413
95904W        W55000  27.176  33.582   1.347
95905W        W55001   9.744   8.175   0.750
95906W        W55002  33.950  23.653   2.773
95907W        W55003  31.152  16.619  14.475
95908W        W55004  17.601   2.317  10.956
95909W        W55005  31.523  31.902  11.585
95910W        W55006  38.345  18.651  11.084
95911W        W55007  24.640   2.964  13.962
95912W        W55008  20.238   1.340   3.825
95913W        W55009   1.283  25.575  11.883
95914W        W55010  14.224  38.075   4.786
95915W        W55011  30.109  34.077   1.403
95916W        W55012  33.124  23.164   5.218
95917W        W55013  15.163  17.137   3.723
95918W        W55014   2.251  28.009  10.058
95919W        W55015  14.291  37.069   3.257
95920W        W55016  16.189  34.549   2.245
95921W        W55017  11.140  13.844   2.419
95922W        W55018  34.438  30.512  12.956
95923W        W55019  10.758  37.865  14.919
95924W        W55020  28.068   1.831   4.828
95925W        W55021  22.590  38.028  11.522
95926W        W55022  18.254  11.139  11.998
95927W        W55023  16.103  35.371  10.489
95928W        W55024  37.854  21.515   1.711
95929W        W55025  35.902   0.325   4.799
95930W        W55026  38.457  32.612   0.365
95931W        W55027  29.641  41.293   0.862
95932W        W55028   6.200  14.654  10.535
95933W        W55029   4.792  13.780  14.402
95934W        W55030  14.258  24.181  14.002
95935W        W55031   9.699  21.144  14.303
95936W        W55032  15.126  40.459   2.320
95937W        W55033  23.142  25.049  12.384
95938W        W55034  36.496  13.819  12.376
95939W        W55035  18.711  37.014   2.271
95940W        W55036  15.190   1.949   0.439
95941W        W55037  20.712  15.171   4.147
95942W        W55038  20.557  18.767   0.417
95943W        W55039  25.535  23.578  13.875
95944W        W55040  40.961   3.239  12.865
95945W        W55041  30.616  19.066   1.217
95946W        W55042  14.174  27.477  11.422
95947W        W55043  15.680  44.934   2.365
95948W        W55044  10.368  10.266   4.233
95949W        W55045  21.182   4.938   1.369
95950W        W55046  15.275  19.168   0.965
95951W        W55047  12.244  33.029  12.535
95952W        W55048   4.324  40.884  14.326
95953W        W55049  38.477  12.194  14.391
95954W        W55050  14.690  38.868   3.751
95955W        W55051   6.418  17.129  11.931
95956W        W55052  13.753  33.922   1.347
95957W        W55053  10.642  37.486  10.930
95958W        W55054   2.264   4.843  13.912
95959W        W55055  26.067   1.827  13.883
95960W        W55056  43.009  42.959   2.755
95961W        W55057  28.529  34.921  12.359
95962W        W55058  37.521  13.603  14.955
95963W        W55059  37.053   4.788   0.850
95964W        W55060  40.306  15.814   0.316
95965W        W55061  26.472   7.898   2.717
95966W        W55062  19.218  40.378   4.810
95967W        W55063  24.989  32.126  13.027
95968W        W55064  32.433  35.555   1.721
95969W        W55065  23.603  14.267  12.982
95970W        W55066  11.267   4.221   0.479
95971W        W55067   9.653  13.269   4.119
95972W        W55068  19.711  23.161   4.236
95973W        W55069   3.712  24.617  10.156
95974W        W55070   1.241  44.827   1.805
95975W        W55071  22.560  42.370   2.889
95976W        W55072  37.014  18.727   3.697
95977W        W55073  11.287  10.743   4.134
95978W        W55074  22.153  34.499   1.827
95979W        W55075  23.037  20.560  11.598
95980W        W55076   0.981  26.068  14.481
95981W        W55077   4.829   2.414  13.937
95982W        W55078  21.244  14.672   2.695
95983W        W55079  42.471  30.457  12.466
95984W        W55080   9.248  19.184   0.834
95985W        W55081  40.990   4.825  10.923
95986W        W55082   2.317   4.840   1.421
95987W        W55083  17.146  12.792  13.829
95988W        W55084  17.266  36.936   2.822
95989W        W55085   5.368  10.148   1.253
95990W        W55086  19.749  20.612   3.738
95991W        W55087  22.678   0.367  14.291
95992W        W55088  14.244   8.175   2.186
95993W        W55089  38.868  23.569   1.406
95994W        W55090  22.581   4.427  10.935
95995W        W55091  35.475  26.509  11.942
95996W        W55092  18.085  27.097  13.849
95997W        W55093  44.491  26.578  11.950
95998W        W55094  25.600  18.592  14.343
95999W        W55095   9.681  33.533   2.249
96000W        W55096   9.377  17.147   0.886
96001W        W55097   4.229  39.425   3.269
96002W        W55098   9.809   3.949   0.328
96003W        W55099  20.042  19.065   4.642
96004W        W55100  27.632   5.707   1.814
96005W        W55101  14.163   7.694   4.616
96006W        W55102  12.759  36.418  10.430
96007W        W55103  28.498  24.225  10.578
96008W        W55104  39.857  19.738  14.856
96009W        W55105  40.502  31.517   2.246
96010W        W55106  12.333   4.404   1.760
96011W        W55107   1.447  28.981  14.817
96012W        W55108  31.402   0.843   1.913
96013W        W55109  25.588  40.318  11.886
96014W        W55110  23.240  21.636  12.492
96015W        W55111   8.743  17.287  12.346
96016W        W55112  29.615  31.978  14.815
96017W        W55113   4.871  10.320   0.864
96018W        W55114  13.207  22.699   1.407
96019W        W55115  25.098  23.080   2.683
96020W        W55116  28.064  40.427   2.820
96021W        W55117   4.764  39.053   2.287
96022W        W55118   0.922  28.019  13.365
96023W        W55119  32.978  30.130   4.170
96024W        W55120  19.640  28.115   0.425
96025W        W55121  31.512  19.761   1.698
96026W        W55122  40.053  28.171   3.826
96027W        W55123   3.870  25.181  14.862
96028W        W55124  34.015   7.330   1.837
96029W        W55125   9.840   6.256   0.797
96030W        W55126   9.767  13.322  10.515
96031W        W55127  23.611  22.545  14.502
96032W        W55128  19.120  44.466  12.079
96033W        W55129  38.070  42.395   4.728
96034W        W55130  18.204   6.832  14.336
96035W        W55131  40.484  23.022   0.249
96036W        W55132  11.800  23.013  10.438
96037W        W55133  27.017  33.607   1.889
96038W        W55134  19.578  15.600   4.678
96039W        W55135  13.226  11.641   0.912
96040W        W55136  25.159  24.704   2.819
96041W        W55137  15.174  24.976  14.020
96042W        W55138  11.684   0.766  12.983
96043W        W55139  20.533  25.677   0.478
96044W        W55140   3.455  33.428   4.705
96045W        W55141  10.762   9.773  11.009
96046W        W55142  29.980   3.358   3.307
96047W        W55143  37.469  41.954   1.254
96048W        W55144  19.567  21.727   4.280
96049W        W55145  44.895  16.268  14.356
96050W        W55146  25.616  29.995   3.305
96051W        W55147  17.798  31.151  14.296
96052W        W55148   1.421   3.887  12.064
96053W        W55149  39.823  44.953  12.479
96054W        W55150   6.849  44.381  12.368
96055W        W55151  23.004  25.520   1.438
96056W        W55152  36.530  24.708  11.575
96057W        W55153   7.750  22.592  11.398
96058W        W55154   1.877  26.094   2.800
96059W        W55155  24.541  26.135  11.412
96060W        W55156   1.951  40.965  10.471
96061W        W55157   9.166   9.659  14.383
96062W        W55158   9.345  26.174   2.765
96063W        W55159  16.657  22.061  14.023
96064W        W55160  38.825  18.697  14.341
96065W        W55161  20.200   7.670   9.662
96066W        W55162   6.851   6.303   4.242
96067W        W55163  13.800  23.129  13.801
96068W        W55164  16.652  29.020   5.767
96069W        W55165  13.237   4.909   4.253
96070W        W55166  36.884  35.468  14.351
96071W        W55167  15.269  21.137  11.922
96072W        W55168   8.169  31.594   2.775
96073W        W55169  40.491  33.018   4.831
96074W        W55170   0.360  39.999  11.078
96075W        W55171  30.515  27.136  13.848
96076W        W55172  24.187  40.846  14.342
96077W        W55173   1.417  41.309  13.795
96078W        W55174   2.905  12.290   2.326
96079W        W55175  33.950   0.813   2.675
96080W        W55176   6.318  34.460   1.292
96081W        W55177   7.268  13.327  10.496
96082W        W55178  36.401   5.347  13.922
96083W        W55179  42.358  20.689  13.335
96084W        W55180  37.538  29.014   2.667
96085W        W55181   3.948  10.741  14.887
96086W        W55182  11.305  12.145  11.984
96087W        W55183  43.779   3.399   3.652
96088W        W55184   4.813  31.146  13.405
96089W        W55185  37.522  20.150   4.178
96090W        W55186  29.021  37.368   2.285
96091W        W55187   8.850  13.660  11.004
96092W        W55188  23.146  27.501   3.262
96093W        W55189  26.207  25.589  14.981
96094W        W55190  27.544  29.110  12.845
96095W        W55191  15.812  29.988   2.310
96096W        W55192   5.777  18.602  10.914
96097W        W55193   4.881   5.826  13.343
96098W        W55194   5.730  17.801  13.894
96099W        W55195   1.850  32.888  13.436
96100W        W55196  32.131  17.594  14.308
96101W        W55197   5.309  41.340  10.426
96102W        W55198   8.664  15.632  12.979
96103W        W55199  29.476  43.812  13.466
96104W        W55200  43.426  32.989  13.447
96105W        W55201  41.433  16.209  13.907
96106W        W55202   6.289  36.020   0.399
96107W        W55203   7.837  12.737   0.310
96108W        W55204  27.631  44.891   3.752
96109W        W55205  20.142   0.380  12.975
96110W        W55206  34.954  42.376  14.448
96111W        W55207   6.785  33.053   1.871
96112W        W55208  40.922   3.234   4.303
96113W        W55209  24.695  18.753   1.274
96114W        W55210   4.223  41.516   2.251
96115W        W55211  16.316  27.033  12.916
96116W        W55212  14.101  41.442  13.481
96117W        W55213  30.079  44.886  14.446
96118W        W55214  20.677  22.104   2.863
96119W        W55215  39.008  42.887   3.794
96120W        W55216  20.079  12.717  12.013
96121W        W55217  13.281  15.112  12.429
96122W        W55218  19.713  40.997  14.329
96123W        W55219   2.908  25.214   4.732
96124W        W55220  41.429  33.966   1.417
96125W        W55221  26.590  10.716  12.485
96126W        W55222  19.253  12.724   1.712
96127W        W55223   9.835  21.233  12.078
96128W        W55224  33.493  28.176  14.857
96129W        W55225  15.621  20.534   3.780
96130W        W55226   3.875  15.140   3.239
96131W        W55227  21.177  19.560   1.872
96132W        W55228  38.368  22.548  12.447
96133W        W55229  37.051  33.455  13.871
96134W        W55230  17.100  26.502   0.346
96135W        W55231  28.648  37.068   1.283
96136W        W55232  38.383  40.396   4.249
96137W        W55233  18.264  34.419  14.011
96138W        W55234   5.382   7.679   3.795
96139W        W55235  39.866  31.905   1.444
96140W        W55236   1.757  24.048   2.417
96141W        W55237  42.005  12.675  11.979
96142W        W55238  14.824   0.838   4.240
96143W        W55239  36.031  14.330  12.951
96144W        W55240  23.108  41.005   3.147
96145W        W55241  20.603  39.882   1.933
96146W        W55242   8.795  15.284  12.049
96147W        W55243  24.723  15.681  14.363
96148W        W55244  10.308  16.790  14.920
96149W        W55245   2.789   5.906  13.346
96150W        W55246   1.476  41.307   0.337
96151W        W55247  23.617  26.601  10.118
96152W        W55248  30.452   2.421   3.756
96153W        W55249  27.517  34.920   1.253
96154W        W55250  39.951  22.525   1.910
96155W        W55251   7.397  11.774   2.798
96156W        W55252  31.999   2.752  10.541
96157W        W55253  26.520   3.914  11.596
96158W        W55254  31.612  27.606   3.229
96159W        W55255  25.610  43.331  13.518
96160W        W55256  29.028  12.693  14.515
96161W        W55257  42.913  41.446   4.293
96162W        W55258  22.722  43.886   0.780
96163W        W55259   6.389  27.087   1.858
96164W        W55260  23.087  38.926   1.386
96165W        W55261   0.950  29.458   3.153
96166W        W55262  17.071  17.208   3.191
96167W        W55263  36.439  15.812   4.149
96168W        W55264   3.769  17.070   2.683
96169W        W55265  44.381  12.842  12.436
96170W        W55266  30.435  41.457  12.038
96171W        W55267  30.009  10.356  10.615
96172W        W55268  32.504  30.528   2.263
96173W        W55269  10.839  23.627  14.515
96174W        W55270   0.963  27.171   0.926
96175W        W55271  33.003  25.677   1.267
96176W        W55272  44.289   1.776   4.136
96177W        W55273  22.179  44.289   0.800
96178W        W55274  34.368  26.120   3.273
96179W        W55275  43.297  30.144  14.912
96180W        W55276   3.345  28.091  13.501
96181W        W55277  28.672  33.504   0.950
96182W        W55278  18.743   7.268   0.726
96183W        W55279  17.617  11.661  11.455
96184W        W55280  15.728  12.809   4.793
96185W        W55281  12.645  38.988  13.996
96186W        W55282  26.086  16.649   0.950
96187W        W55283  27.473  11.169   2.226
96188W        W55284  15.163  23.680  13.934
96189W        W55285  28.955  16.145   2.665
96190W        W55286  18.606  23.730  14.385
96191W        W55287  41.909  28.572   0.349
96192W        W55288  10.846  25.151   0.801
96193W        W55289  28.471   4.296  11.543
96194W        W55290  15.625  19.632  12.576
96195W        W55291  43.294   6.745  14.986
96196W        W55292  16.690  36.999  12.894
96197W        W55293  37.934  27.000  10.521
96198W        W55294   3.872  34.929   3.686
96199W        W55295  20.112  22.549   3.292
96200W        W55296  16.093  21.089  10.414
96201W        W55297   0.800  42.917   0.788
96202W        W55298   9.355   3.917   1.736
96203W        W55299   1.841  36.560  11.912
96204W        W55300   4.247  21.031   0.730
96205W        W55301  41.341  29.592   3.788
96206W        W55302  15.603  35.551  12.568
96207W        W55303  32.581  27.197  13.999
96208W        W55304  17.754  44.420   3.295
96209W        W55305  34.064  44.801   4.313
96210W        W55306  14.686   5.852   0.740
96211W        W55307  16.676   4.380   2.260
96212W        W55308  11.241  30.505   1.800
96213W        W55309  33.131  28.021  13.326
96214W        W55310  29.548  22.650   1.329
96215W        W55311  28.573  29.585  10.465
96216W        W55312  17.190  18.063  10.129
96217W        W55313  30.072  26.654   0.780
96218W        W55314  24.991   9.880  11.575
96219W        W55315  31.600  27.530  11.866
96220W        W55316  10.763   0.833  14.479
96221W        W55317  17.116  18.235   3.222
96222W        W55318  41.892  23.187  13.953
96223W        W55319  21.753   1.447   0.417
96224W        W55320  23.550  38.903   0.772
96225W        W55321  11.164   7.295   0.248
96226W        W55322  12.277  10.767  12.568
96227W        W55323  11.324  32.917  12.404
96228W        W55324  29.520  38.469   3.730
96229W        W55325  44.943  38.380   3.662
96230W        W55326  24.149  19.099  14.373
96231W        W55327   6.271  43.860   4.288
96232W        W55328  39.334  36.910  12.043
96233W        W55329  29.625  40.337   3.153
96234W        W55330  39.869   8.699  13.021
96235W        W55331  14.762  32.030   0.828
96236W        W55332  30.605  43.809   2.854
96237W        W55333  24.517  32.111   0.742
96238W        W55334  27.013  40.534   4.774
96239W        W55335  19.615   8.689   0.965
96240W        W55336  17.193   9.342   4.705
96241W        W55337  42.812   6.764  11.491
96242W        W55338   9.710  28.647  11.455
96243W        W55339  42.488  15.179   3.636
96244W        W55340  34.403  33.940  12.439
96245W        W55341  13.260   3.336   1.769
96246W        W55342  38.005  24.182  14.847
96247W        W55343  39.966  29.556   3.295
96248W        W55344  38.847  23.039  13.490
96249W        W55345  26.110  30.613  12.405
96250W        W55346  17.306   5.859  11.576
96251W        W55347   4.342  28.101   3.273
96252W        W55348  36.429  12.630   1.272
96253W        W55349  41.836  24.547  13.792
96254W        W55350  20.117  44.003  11.518
96255W        W55351   8.662   1.292  11.394
96256W        W55352  15.237  27.474  11.381
96257W        W55353  15.754  35.952  11.560
96258W        W55354  38.052   7.781  10.024
96259W        W55355  39.421   2.954  12.094
96260W        W55356  24.143  21.028   1.753
96261W        W55357  13.654   2.411  12.465
96262W        W55358  15.614  41.353   2.883
96263W        W55359  20.223  20.709  14.460
96264W        W55360   6.755  15.234   1.921
96265W        W55361  18.215  34.461  13.525
96266W        W55362  28.989  28.183   2.797
96267W        W55363  22.605  17.097   2.313
96268W        W55364   9.192  34.450  14.310
96269W        W55365  33.004  39.814   2.843
96270W        W55366   4.382  37.891   0.400
96271W        W55367   7.665   6.701   1.893
96272W        W55368   7.317   5.874   3.658
96273W        W55369  38.508   9.158   0.279
96274W        W55370  41.821  31.922   9.949
96275W        W55371  39.990  13.814   4.623
96276W        W55372  34.390   5.808   1.695
96277W        W55373  19.719   1.261   0.764
96278W        W55374   1.399  23.637  11.399
96279W        W55375  17.286   2.373   0.843
96280W        W55376  28.171   5.769   4.802
96281W        W55377   1.355   2.795  11.122
96282W        W55378  33.462   4.300  10.990
96283W        W55379  35.999   5.802   3.785
96284W        W55380  23.188  25.075   2.734
96285W        W55381  17.593   0.389  10.925
96286W        W55382  31.408  33.622   4.255
96287W        W55383   6.184  15.088  14.419
96288W        W55384  13.761  15.170  12.043
96289W        W55385  12.745  28.671  12.355
96290W        W55386  30.117   3.814   4.615
96291W        W55387  29.430   9.763   2.806
96292W        W55388  26.079   0.943   1.450
96293W        W55389  24.516   6.292  12.078
96294W        W55390  12.314  20.053   0.922
96295W        W55391   4.899   5.753  10.945
96296W        W55392  24.497  12.655   0.904
96297W        W55393   5.419  44.004   4.688
96298W        W55394   0.805  33.948   3.314
96299W        W55395  10.817   2.397   0.743
96300W        W55396  41.976  39.021  13.964
96301W        W55397  26.548  17.702  13.845
96302W        W55398  18.760  22.503   2.730
96303W        W55399  44.870  34.462  13.876
96304W        W55400  24.143  37.454  11.984
96305W        W55401   1.978  15.708  13.876
96306W        W55402  37.521  42.876  11.125
96307W        W55403   9.716  33.029   0.851
96308W        W55404  24.988  36.375  12.945
96309W        W55405  28.027  44.478  11.426
96310W        W55406  13.179   2.767   1.776
96311W        W55407  44.943  21.644  13.547
96312W        W55408  16.667  21.101   1.243
96313W        W55409  21.214  16.696   2.267
96314W        W55410  34.947  19.641   2.267
96315W        W55411  33.405  27.960   0.888
96316W        W55412  12.165  25.526   3.810
96317W        W55413  30.506  27.562  11.447
96318W        W55414  34.497  23.648   2.774
96319W        W55415   3.306   4.402   2.896
96320W        W55416  40.847   7.277   1.886
96321W        W55417   7.262  31.960  13.373
96322W        W55418  31.092   9.251   2.748
96323W        W55419   4.242  10.187   4.116
96324W        W55420  21.688   4.724   9.946
96325W        W55421  18.223  44.319  13.996
96326W        W55422  32.042  26.056  11.996
96327W        W55423  42.403  31.436  11.935
96328W        W55424  27.504  12.302   0.386
96329W        W55425  44.500  30.629  11.052
96330W        W55426  28.671   7.723   1.697
96331W        W55427  17.196  32.068  13.873
96332W        W55428   0.379   4.797   0.822
96333W        W55429  25.589  15.637  12.904
96334W        W55430  31.937  40.998  11.942
96335W        W55431  12.226  35.453  11.448
96336W        W55432   4.418  32.395   4.736
96337W        W55433  15.649   2.790   2.865
96338W        W55434  32.390  20.545   4.214
96339W        W55435  36.467   8.361   4.125
96340W        W55436   6.265  32.560  12.080
96341W        W55437  18.563  11.365   0.784
96342W        W55438  13.673  23.996   0.242
96343W        W55439  44.901  21.024   2.836
96344W        W55440  27.105  23.140  11.550
96345W        W55441  25.037  23.023  11.562
96346W        W55442   1.802  21.712  11.910
96347W        W55443  24.503  11.691  12.826
96348W        W55444  39.363  18.080   4.800
96349W        W55445  30.577  13.698   4.711
96350W        W55446  33.087  42.827   0.318
96351W        W55447   9.303   3.750   2.214
96352W        W55448   0.344  37.889   1.325
96353W        W55449  21.257  39.475   4.827
96354W        W55450  12.196  16.748  13.519
96355W        W55451  38.983   1.863   3.212
96356W        W55452  36.439  11.147  13.064
96357W        W55453  31.908  29.141  13.929
96358W        W55454  40.027   2.396  13.011
96359W        W55455  18.594  25.152  12.506
96360W        W55456  31.522   6.193   4.800
96361W        W55457  16.757  32.119  11.880
96362W        W55458  35.391  23.233   3.703
96363W        W55459  28.960  42.959   0.768
96364W        W55460  33.385  37.848  13.397
96365W        W55461  29.989  20.074  12.017
96366W        W55462   4.842  43.373  11.078
96367W        W55463  38.945  34.078  10.543
96368W        W55464  30.040  30.011   3.845
96369W        W55465  37.559  11.363  14.032
96370W        W55466  27.182  43.437   2.727
96371W        W55467   2.324  25.654   2.273
96372W        W55468  40.533  42.329   1.223
96373W        W55469   8.758  40.312  13.341
96374W        W55470  13.308  40.469   0.950
96375W        W55471  34.111  43.471   4.165
96376W        W55472  28.445   2.920  13.943
96377W        W55473  16.300  27.458   3.856
96378W        W55474  12.255  38.926   0.893
96379W        W55475   5.351   2.239   3.252
96380W        W55476  26.460  26.657   0.422
96381W        W55477  17.780  39.399   0.320
96382W        W55478  43.805  15.758   0.341
96383W        W55479  23.095  23.707   1.409
96384W        W55480  12.252   7.901  11.100
96385W        W55481  39.831  27.003  10.546
96386W        W55482   3.909  11.286   3.836
96387W        W55483  16.163  42.822  10.947
96388W        W55484  12.736  30.592   1.765
96389W        W55485  15.211  10.740   1.911
96390W        W55486   5.934  21.169   0.420
96391W        W55487  38.972  14.246   2.333
96392W        W55488  37.899  29.926  13.806
96393W        W55489  28.490  30.490  12.049
96394W        W55490  27.143  10.218   0.824
96395W        W55491   4.799  36.575  13.881
96396W        W55492  22.195  35.939  11.049
96397W        W55493  32.503  38.036  11.995
96398W        W55494  13.330  40.851  12.492
96399W        W55495  36.374  13.184   0.830
96400W        W55496  38.468  19.609   1.929
96401W        W55497   4.826   7.318  10.117
96402W        W55498  40.947  23.053   2.256
96403W        W55499  36.954  24.687   1.783
96404W        W55500  28.612  30.649  14.476
96405W        W55501   8.217  11.787  13.334
96406W        W55502  22.653  20.723   1.318
96407W        W55503  36.959  29.435  12.551
96408W        W55504  27.007  10.732   2.348
96409W        W55505  42.344  44.423   0.290
96410W        W55506   3.903  33.952  14.446
96411W        W55507  16.751   8.870  13.339
96412W        W55508  21.167  26.011  14.307
96413W        W55509  27.004   9.376  11.585
96414W        W55510  44.915  38.556  12.958
96415W        W55511  18.640  11.828   2.697
96416W        W55512  33.085  44.413   3.710
96417W        W55513  37.875  12.183  14.450
96418W        W55514  12.275  26.005   9.593
96419W        W55515  39.445   0.380  10.416
96420W        W55516  14.776  26.687   3.182
96421W        W55517  36.982   5.194   0.419
96422W        W55518  17.584  34.372   0.286
96423W        W55519  20.552  27.509   0.307
96424W        W55520  12.851   1.758  14.513
96425W        W55521  40.409  44.279  12.465
96426W        W55522  11.271   0.892  13.837
96427W        W55523  24.618  28.590  11.948
96428W        W55524  20.069  23.640  12.913
96429W        W55525   9.151  28.603   4.807
96430W        W55526  14.237  21.731  10.478
96431W        W55527  44.460  27.076  10.515
96432W        W55528  16.590  41.351  12.059
96433W        W55529  37.016  15.193   3.359
96434W        W55530   1.345  31.556   1.729
96435W        W55531   7.893  39.994   2.687
96436W        W55532  23.682  27.671  13.969
96437W        W55533  31.984  35.472   1.880
96438W        W55534   8.171  12.270  10.450
96439W        W55535  10.685  21.241   0.952
96440W        W55536   5.898  38.848   3.211
96441W        W55537  30.563  12.695  13.959
96442W        W55538   4.401   9.810   1.907
96443W        W55539  35.401  36.394   4.128
96444W        W55540  22.696  30.572  13.989
96445W        W55541   5.746   2.965   0.814
96446W        W55542  18.090  18.640  12.465
96447W        W55543   0.262  16.200  12.538
96448W        W55544  24.082  29.534  14.473
96449W        W55545  22.126  14.264  11.980
96450W        W55546   0.938  27.987   0.822
96451W        W55547   3.439  35.501   2.855
96452W        W55548  40.372  12.703  10.969
96453W        W55549  20.269  31.492  10.598
96454W        W55550  13.330  19.671   1.214
96455W        W55551  36.075  27.983   1.931
96456W        W55552  31.413  32.122  13.424
96457W        W55553   3.855  39.870  12.882
96458W        W55554   9.854  38.396   2.284
96459W        W55555  33.566   9.753   5.088
96460W        W55556  19.777  31.448   0.437
96461W        W55557  10.285  40.046  10.629
96462W        W55558  35.991  29.057  12.955
96463W        W55559  11.149  12.783   2.259
96464W        W55560  43.917   5.755   1.705
96465W        W55561  36.484  31.898  12.481
96466W        W55562   7.180  14.141  10.926
96467W        W55563  18.253  18.184  10.916
96468W        W55564   8.323  10.338  12.976
96469W        W55565  22.676  15.259   4.704
96470W        W55566  40.042  38.486   2.721
96471W        W55567  14.615  28.609  11.915
96472W        W55568  44.300  22.148   0.750
96473W        W55569  17.607   6.817   1.816
96474W        W55570   1.369  29.494  10.435
96475W        W55571   3.302  16.588  11.406
96476W        W55572  34.040  36.062  10.621
96477W        W55573  29.086  26.066   4.239
96478W        W55574  33.896  37.062  12.986
96479W        W55575   7.320  39.040  12.547
96480W        W55576  21.138  17.667  13.819
96481W        W55577  39.526  16.245  13.499
96482W        W55578  15.133  12.729  11.486
96483W        W55579  23.702   0.785   2.817
96484W        W55580  20.601  32.484   2.669
96485W        W55581  18.214  32.064   0.479
96486W        W55582  44.372   0.458  10.639
96487W        W55583  21.144  25.575  11.054
96488W        W55584  19.217  41.970  12.877
96489W        W55585  32.436  44.472  11.516
96490W        W55586  14.225   3.877   0.371
96491W        W55587  41.032  21.084  13.452
96492W        W55588  13.134   7.825   0.930
96493W        W55589  15.679  37.434   5.238
96494W        W55590   3.323  11.296  12.079
96495W        W55591   2.757  12.321   3.803
96496W        W55592  18.728   5.294  12.481
96497W        W55593  31.528  41.842   0.292
96498W        W55594  26.520  24.140  10.579
96499W        W55595  29.941   6.755   4.284
96500W        W55596  11.278  11.689   4.601
96501W        W55597  25.080  36.522  13.877
96502W        W55598   9.645   1.745  13.958
96503W        W55599   6.890   6.356  11.564
96504W        W55600  44.898  44.773   1.314
96505W        W55601  34.024  19.734   0.461
96506W        W55602  25.489   6.367  13.334
96507W        W55603  32.024   6.888  14.385
96508W        W55604  35.368  13.260  13.930
96509W        W55605  27.024  41.522   3.239
96510W        W55606  43.006   0.486  14.396
96511W        W55607  41.999  12.208  14.924
96512W        W55608  16.108  23.533   5.155
96513W        W55609  21.083  21.612  14.797
96514W        W55610   2.310  20.048   4.602
96515W        W55611  14.163  44.410   4.612
96516W        W55612  39.411   7.411   2.775
96517W        W55613  33.448  30.977   0.297
96518W        W55614  10.172  41.923   2.294
96519W        W55615  12.722  34.928   1.310
96520W        W55616  44.433  12.694  13.546
96521W        W55617   9.241   6.263   3.756
96522W        W55618   4.284  23.683   0.307
96523W        W55619  21.191  35.071   5.105
96524W        W55620  27.949  42.967  11.584
96525W        W55621  16.573  29.130  13.837
96526W        W55622  40.452  15.222  12.045
96527W        W55623  16.579  34.937   3.234
96528W        W55624  35.904  11.767   4.175
96529W        W55625  22.231  15.177   3.152
96530W        W55626  33.394   4.894  13.375
96531W        W55627   8.715  32.574  14.919
96532W        W55628  24.677  27.625  12.371
96533W        W55629  17.302  19.682  14.507
96534W        W55630   6.209  14.595   0.356
96535W        W55631  36.989  26.118   1.846
96536W        W55632  36.853  41.896   2.383
96537W        W55633  23.596  44.316  13.862
96538W        W55634  30.469  26.040  10.607
96539W        W55635   6.828  39.540  11.049
96540W        W55636  16.242   3.261   0.357
96541W        W55637  35.106  33.520   2.264
96542W        W55638  43.003  21.186   0.765
96543W        W55639  38.911  20.573  12.344
96544W        W55640  27.053  32.072   2.304
96545W        W55641  11.213  30.110  12.848
96546W        W55642  13.779   0.353   3.375
96547W        W55643  30.954  35.565   2.179
96548W        W55644   5.928  21.093   1.420
96549W        W55645  29.075  37.920  10.984
96550W        W55646  42.384   1.450   4.162
96551W        W55647  18.654   8.864   2.365
96552W        W55648  25.560  28.455   0.782
96553W        W55649  11.819   8.766   3.150
96554W        W55650  28.614  34.520  13.385
96555W        W55651   1.457   0.311   0.387
96556W        W55652   4.816  16.184  14.028
96557W        W55653  41.361  22.147  12.340
96558W        W55654  22.544  34.980  12.828
96559W        W55655  22.602   3.358  11.056
96560W        W55656  30.447  10.382   2.303
96561W        W55657  28.112  35.995   3.271
96562W        W55658  43.437   2.385  12.051
96563W        W55659   2.297  10.752  14.881
96564W        W55660  17.642  13.803  10.607
96565W        W55661  25.479   1.830   1.347
96566W        W55662  40.312  26.548   5.152
96567W        W55663  34.393  41.481  12.058
96568W        W55664  16.645  41.510  14.363
96569W        W55665  18.238  36.947   2.867
96570W        W55666  31.469   6.732  11.466
96571W        W55667  29.598  28.079  12.030
96572W        W55668  24.999  24.689  12.095
96573W        W55669  39.812  34.002  11.454
96574W        W55670  36.998   5.856  13.386
96575W        W55671  23.123  44.470  11.901
96576W        W55672  31.903  20.540  13.474
96577W        W55673  30.576   0.413  14.348
96578W        W55674  13.299  26.571  10.560
96579W        W55675   5.756  14.776   4.290
96580W        W55676  15.665  15.190  12.865
96581W        W55677   8.250   1.947   4.818
96582W        W55678  29.134  30.554   1.759
96583W        W55679   2.363   9.777  12.904
96584W        W55680   1.384  38.566   3.232
96585W        W55681  15.283  37.472   2.890
96586W        W55682   4.924  19.697  13.462
96587W        W55683  20.601   1.922  13.933
96588W        W55684  16.220  31.466   1.336
96589W        W55685  32.945  14.624   0.845
96590W        W55686  31.089  21.570   3.337
96591W        W55687   1.454  15.177   2.690
96592W        W55688  19.726  26.692  12.415
96593W        W55689  25.079  32.131  10.955
96594W        W55690  27.171  24.681   4.699
96595W        W55691   8.376   4.389  14.800
96596W        W55692  38.381  38.865  11.916
96597W        W55693  10.205  12.252   2.863
96598W        W55694  19.597  33.609  11.886
96599W        W55695  26.975  44.757  11.881
96600W        W55696  16.678  24.615  13.955
96601W        W55697  42.426  27.676  14.773
96602W        W55698   6.832  30.926  10.607
96603W        W55699  44.389  39.343  12.441
96604W        W55700   0.760   1.893   5.276
96605W        W55701  44.446  41.021   0.327
96606W        W55702   9.259  37.918  13.930
96607W        W55703  10.743  27.093   4.793
96608W        W55704  20.073   3.939  10.507
96609W        W55705  38.444   3.829  11.941
96610W        W55706  42.366  40.970   2.362
96611W        W55707  41.007  10.343  11.016
96612W        W55708  10.175  15.324   2.782
96613W        W55709  10.213  14.724  10.991
96614W        W55710  16.311  16.674   3.806
96615W        W55711  12.295  20.258   2.309
96616W        W55712   3.413   7.210  10.109
96617W        W55713  32.455   2.405   3.646
96618W        W55714  38.058  18.168   3.860
96619W        W55715  41.798  29.485   2.812
96620W        W55716  15.330  21.533  12.493
96621W        W55717   9.732  31.943  12.534
96622W        W55718   5.195   0.805   1.724
96623W        W55719  10.272  23.000   3.304
96624W        W55720   9.179  36.058   2.753
96625W        W55721  34.891  26.609  13.383
96626W        W55722  34.388  41.492   0.368
96627W        W55723  19.101  26.543   2.684
96628W        W55724  21.604  30.486  13.920
96629W        W55725  29.548  13.784   0.276
96630W        W55726   1.793  41.331  11.099
96631W        W55727  28.023   7.802  11.975
96632W        W55728  27.112  34.484  10.467
96633W        W55729  12.118  15.284  12.879
96634W        W55730  27.458  30.150   4.762
96635W        W55731  41.839  18.689   4.816
96636W        W55732   4.737  13.802   3.190
96637W        W55733   9.193  20.583   2.348
96638W        W55734  36.962  26.135   0.837
96639W        W55735  19.644  27.491  13.538
96640W        W55736  24.497  17.697   5.695
96641W        W55737   9.748  15.583   3.647
96642W        W55738  22.103  30.471   4.132
96643W        W55739   5.374  14.112  12.912
96644W        W55740   1.405  34.574   3.294
96645W        W55741  31.062  37.514   9.641
96646W        W55742   8.258   7.734  11.039
96647W        W55743   7.307  41.967   2.354
96648W        W55744  22.034  13.708   2.690
96649W        W55745  16.306  38.821  11.872
96650W        W55746   1.483   2.745  14.792
96651W        W55747   7.854  43.933  14.376
96652W        W55748  11.822  29.985  12.846
96653W        W55749  37.516  22.136  11.570
96654W        W55750  11.701  30.482   2.253
96655W        W55751  32.899  21.661   4.622
96656W        W55752  17.796   5.290   1.223
96657W        W55753   8.269   8.864  10.636
96658W        W55754  15.661  43.296  14.415
96659W        W55755   4.427  12.228  11.914
96660W        W55756  24.649   5.891  11.113
96661W        W55757  17.140  28.554  14.848
96662W        W55758  36.494  34.927   3.146
96663W        W55759  31.927   1.371  12.003
96664W        W55760  35.981  22.626   3.641
96665W        W55761  32.942   3.430  10.428
96666W        W55762  31.058   4.862   9.968
96667W        W55763  35.886   2.806  11.012
96668W        W55764   8.258   4.734   0.881
96669W        W55765  34.589  13.119   4.835
96670W        W55766   8.255  29.118  11.884
96671W        W55767  17.643  13.801  13.504
96672W        W55768  14.624   4.764   2.781
96673W        W55769  44.814  30.132  11.494
96674W        W55770  15.320  21.049  13.439
96675W        W55771   0.253   4.417   4.315
96676W        W55772   0.396   0.860  11.038
96677W        W55773  16.629  21.740  11.982
96678W        W55774  13.839  38.358   0.940
96679W        W55775  42.999   6.692  12.466
96680W        W55776  19.637  16.105  10.438
96681W        W55777  13.607  12.232   1.373
96682W        W55778   0.846   3.332   4.802
96683W        W55779   1.904  16.108  11.037
96684W        W55780  43.782  12.133  13.373
96685W        W55781   1.915  24.144  13.498
96686W        W55782   3.951  36.432   1.266
96687W        W55783   2.784  34.398  14.467
96688W        W55784   6.345   8.379  12.073
96689W        W55785  13.201  41.384  13.978
96690W        W55786  29.928  10.672   3.195
96691W        W55787  12.189  39.535   1.823
96692W        W55788  25.136   3.433   5.100
96693W        W55789  18.576  23.639   0.755
96694W        W55790  19.568   0.323  11.381
96695W        W55791  22.213  28.972  12.355
96696W        W55792  38.426  16.211   2.290
96697W        W55793  29.652   0.776   3.253
96698W        W55794  35.379   8.797  13.836
96699W        W55795  44.918  10.824  10.979
96700W        W55796  22.516  16.230  10.055
96701W        W55797  25.002   1.281   2.374
96702W        W55798  13.777   1.900   0.331
96703W        W55799   8.331  43.937   0.871
96704W        W55800  26.487   1.976   2.268
96705W        W55801  44.452  29.596  11.525
96706W        W55802  18.790   6.296   2.664
96707W        W55803  39.463   8.838  13.366
96708W        W55804  41.892  24.121  12.869
96709W        W55805  36.093   8.889   1.442
96710W        W55806  33.977  42.405   4.117
96711W        W55807  15.666   1.779   3.164
96712W        W55808  34.957  42.915  11.489
96713W        W55809   1.474   8.818   1.293
96714W        W55810  26.684  24.150  14.386
96715W        W55811  43.462  32.390   1.372
96716W        W55812   4.339  10.261  14.028
96717W        W55813  22.535  22.687   3.775
96718W        W55814  22.190   8.166  10.979
96719W        W55815  13.147  35.497   0.800
96720W        W55816  22.141  31.042  14.365
96721W        W55817  11.288  37.383  10.139
96722W        W55818  13.618  40.054   0.406
96723W        W55819  31.093  19.209  14.359
96724W        W55820  10.315  11.293   4.350
96725W        W55821  12.243  10.770  14.445
96726W        W55822  40.849  42.918   1.861
96727W        W55823   2.927  31.493   3.859
96728W        W55824   6.277  29.438   0.738
96729W        W55825  12.772  22.538  12.413
96730W        W55826  38.477  28.526   1.330
96731W        W55827  40.020  41.986   1.311
96732W        W55828  41.847   5.753  11.014
96733W        W55829  20.750  29.601   1.285
96734W        W55830  43.294   6.865   4.720
96735W        W55831  42.948  19.703  12.390
96736W        W55832   7.891  13.111  12.501
96737W        W55833   0.804  30.656  12.060
96738W        W55834  41.451  26.486  12.055
96739W        W55835  20.714  12.341  11.972
96740W        W55836  17.781  29.458  14.308
96741W        W55837  25.621  44.445  12.503
96742W        W55838  41.031  33.423  13.929
96743W        W55839  31.568  21.079  12.369
96744W        W55840  34.032  42.912  12.363
96745W        W55841  26.016  26.978   2.233
96746W        W55842  36.543  20.525  14.911
96747W        W55843  20.190   6.791  13.010
96748W        W55844  20.181   7.238   3.313
96749W        W55845  40.337  30.922   3.174
96750W        W55846  12.690  36.555  13.017
96751W        W55847  20.533  12.217   1.894
96752W        W55848  29.574  43.800   1.234
96753W        W55849  27.667  24.563  12.096
96754W        W55850  25.604  33.035  12.827
96755W        W55851  25.118  27.619  11.952
96756W        W55852  29.451   2.282  12.061
96757W        W55853  24.985   1.887  13.468
96758W        W55854  28.056  15.134   3.812
96759W        W55855  18.591  13.731  14.401
96760W        W55856  22.633  41.009   3.366
96761W        W55857  34.373  44.486  14.391
96762W        W55858  23.111  39.823  13.826
96763W        W55859  21.731  27.180  14.765
96764W        W55860  16.691  19.649   4.694
96765W        W55861  30.094  14.622   2.842
96766W        W55862  17.080  32.061  11.867
96767W        W55863  10.879   8.244   0.246
96768W        W55864  31.565   4.732   1.293
96769W        W55865   6.382  23.225  11.059
96770W        W55866  37.931  14.661  13.419
96771W        W55867  12.361  14.184  13.923
96772W        W55868  29.531  23.693   5.251
96773W        W55869  31.073  20.192  14.834
96774W        W55870  31.642  27.618  10.604
96775W        W55871  19.065  43.269   4.121
96776W        W55872  12.270  28.641   0.908
96777W        W55873  37.007  23.511  10.039
96778W        W55874  35.543   6.707   4.213
96779W        W55875  21.605   1.458  10.945
96780W        W55876  42.986  11.835  12.478
96781W        W55877  37.458  33.034  12.081
96782W        W55878   7.905  20.206  12.999
96783W        W55879  19.224  24.586  12.966
96784W        W55880  28.628  28.081   3.332
96785W        W55881  39.316  19.077   4.298
96786W        W55882  44.972  15.275  14.806
96787W        W55883  28.618  32.923  11.578
96788W        W55884  41.433  22.653   3.646
96789W        W55885  38.554  13.343   2.810
96790W        W55886  26.590   9.743   1.385
96791W        W55887  23.627  25.173   4.769
96792W        W55888  27.656  29.135   3.225
96793W        W55889  31.532  42.950   3.252
96794W        W55890  40.859  33.030  12.894
96795W        W55891  17.791  10.657  13.882
96796W        W55892  24.687  15.249   3.330
96797W        W55893  27.019  37.549   9.934
96798W        W55894  11.848  28.572   1.373
96799W        W55895  24.032  15.243  12.069
96800W        W55896  32.632  13.195  13.513
96801W        W55897  43.896  44.286  10.457
96802W        W55898   6.310  26.572  14.334
96803W        W55899   8.735  40.524  13.918
96804W        W55900  10.320  20.659   1.444
96805W        W55901  23.059  35.478  13.841
96806W        W55902  30.093  15.587   1.238
96807W        W55903  11.662   5.424  12.979
96808W        W55904  12.353  14.726   1.704
96809W        W55905   1.937  40.319  12.977
96810W        W55906  14.661  38.480   2.376
96811W        W55907   3.909  41.862   1.241
96812W        W55908  27.051   2.751   1.924
96813W        W55909  39.324  44.273  11.421
96814W        W55910  10.379  13.763  11.492
96815W        W55911   2.965  12.823  10.888
96816W        W55912  25.206  14.211  14.490
96817W        W55913  36.958  22.036  14.402
96818W        W55914  23.509   7.802   4.147
96819W        W55915  29.009   8.854   3.716
96820W        W55916  43.299  23.193  13.910
96821W        W55917  29.518  40.010   1.343
96822W        W55918  26.534   4.295  13.336
96823W        W55919   8.334  19.234   2.254
96824W        W55920  18.146  23.054  13.001
96825W        W55921   3.936  21.241  11.968
96826W        W55922  40.540  18.063  10.066
96827W        W55923  32.510  34.057  12.874
96828W        W55924  25.087   9.863  13.479
96829W        W55925  13.685  15.815  14.759
96830W        W55926  37.970  18.284   0.786
96831W        W55927   1.877  26.020  13.035
96832W        W55928  23.202  30.640   5.142
96833W        W55929  21.212   5.218  10.990
96834W        W55930  31.422   9.281  11.470
96835W        W55931  18.157   5.928   1.810
96836W        W55932  12.666  40.342  14.906
96837W        W55933  38.476  20.730  13.064
96838W        W55934  18.209  12.209   2.198
96839W        W55935  32.398  39.911   0.856
96840W        W55936  28.951  41.978   1.767
96841W        W55937  41.329  37.986   2.387
96842W        W55938  44.359  29.956  14.369
96843W        W55939  32.907  27.535   0.825
96844W        W55940  31.511  28.548  13.337
96845W        W55941  31.039  25.154   3.861
96846W        W55942  39.553  25.203   0.796
96847W        W55943   5.346  42.365  10.526
96848W        W55944  27.506  15.179  14.866
96849W        W55945  18.123  43.278  11.580
96850W        W55946   2.318  14.812  10.564
96851W        W55947  44.882  22.226  10.950
96852W        W55948  13.116  34.968   2.815
96853W        W55949  31.094  15.689  11.031
96854W        W55950  41.863  43.779  11.576
96855W        W55951   9.355  22.655   0.288
96856W        W55952   0.943   0.299   2.272
96857W        W55953  43.435  17.674   0.803
96858W        W55954  39.948  33.112   3.735
96859W        W55955  13.745   7.772   1.387
96860W        W55956   6.234  12.821   3.357
96861W        W55957  19.597  35.953   2.677
96862W        W55958  25.551  27.650  13.830
96863W        W55959  11.223  29.472  14.410
96864W        W55960  25.063  34.982   3.779
96865W        W55961  33.942  21.574  11.065
96866W        W55962  13.151   4.269  11.479
96867W        W55963  23.713  29.047  10.954
96868W        W55964  23.988  24.065  13.326
96869W        W55965  14.745   6.683  10.504
96870W        W55966  15.240  25.176  12.432
96871W        W55967  43.880  42.406  10.495
96872W        W55968  13.242   0.284  12.863
96873W        W55969  31.978  28.633   2.301
96874W        W55970   4.293  26.684   1.262
96875W        W55971  27.612   9.156  13.876
96876W        W55972  36.862  44.330  13.805
96877W        W55973  30.591   2.269  11.085
96878W        W55974  19.237   3.893   3.321
96879W        W55975  17.790  41.349  13.050
96880W        W55976  18.166  40.032  14.281
96881W        W55977  23.519  11.231  12.498
96882W        W55978  22.621  37.499  12.946
96883W        W55979  29.554   3.271   1.892
96884W        W55980   9.319  43.871   1.709
96885W        W55981   6.824   9.205  12.459
96886W        W55982  26.015  15.611   3.226
96887W        W55983   7.838   5.820   2.752
96888W        W55984   8.854  31.415   2.242
96889W        W55985  21.245  27.179  11.107
96890W        W55986  13.233  23.495   3.199
96891W        W55987  14.651  20.239   4.227
96892W        W55988  18.114  19.087  14.417
96893W        W55989   4.206   9.646   4.209
96894W        W55990  42.422   6.192  14.786
96895W        W55991  19.774  17.603  13.792
96896W        W55992   2.381  17.158   3.658
96897W        W55993  13.681  17.570  12.462
96898W        W55994  44.978  40.522   4.116
96899W        W55995  12.854  22.659  14.442
96900W        W55996   3.729  43.486  14.435
96901W        W55997  20.719  15.637   0.927
96902W        W55998  41.937  41.389   9.946
96903W        W55999  28.070  21.545   2.241
96904W        W56000  25.636  35.028   3.242
96905W        W56001   6.828  10.640   3.718
96906W        W56002  31.551  15.807   1.704
96907W        W56003   8.247  22.599  14.894
96908W        W56004  11.264   8.762  11.462
96909W        W56005  23.572  15.788  12.487
96910W        W56006  22.515  44.416  13.520
96911W        W56007  26.576  21.717  11.507
96912W        W56008  16.076  29.028  13.907
96913W        W56009  21.021  26.610   5.142
96914W        W56010  21.203  42.295   0.772
96915W        W56011  44.866  28.534   4.608
96916W        W56012  23.495   5.855   2.308
96917W        W56013  13.610  17.291  13.849
96918W        W56014  16.652   8.400   1.250
96919W        W56015  16.703   6.347  13.862
96920W        W56016  20.557  33.540   0.319
96921W        W56017  13.749  25.979   4.832
96922W        W56018   2.261  41.021   1.703
96923W        W56019   0.900  28.112  12.033
96924W        W56020  34.937  26.180  14.857
96925W        W56021  42.481  14.246  10.639
96926W        W56022  42.883  25.574   0.942
96927W        W56023  43.476   7.199  10.489
96928W        W56024   2.762  29.997   4.829
96929W        W56025   5.835  29.966  11.912
96930W        W56026  13.333   8.281   2.731
96931W        W56027   3.460  35.937   0.772
96932W        W56028  25.664  11.648  12.462
96933W        W56029  17.801  35.897  10.899
96934W        W56030  35.451  21.073  14.491
96935W        W56031  27.190  33.584   0.423
96936W        W56032  42.846  41.464  10.482
96937W        W56033  21.557  44.380   2.221
96938W        W56034  24.716  34.097   3.210
96939W        W56035  11.204  37.489   0.302
96940W        W56036  25.118   5.300   0.281
96941W        W56037  38.060  28.436   2.837
96942W        W56038   1.775  35.492  10.469
96943W        W56039  38.431  33.888   2.700
96944W        W56040   5.726  13.693  11.595
96945W        W56041   0.437  22.161   3.245
96946W        W56042   1.438  29.481   1.443
96947W        W56043  11.364   7.795   1.929
96948W        W56044  10.292  12.337  12.009
96949W        W56045   7.869  20.762   2.873
96950W        W56046  29.439  31.460   4.776
96951W        W56047  10.307  27.668   0.944
96952W        W56048   9.748  32.553   4.234
96953W        W56049  27.550  29.478   4.748
96954W        W56050  15.757  28.984  11.486
96955W        W56051   2.347   8.883   4.261
96956W        W56052   5.840  24.637   3.823
96957W        W56053  17.226  26.095   1.726
96958W        W56054   4.241   0.772   0.737
96959W        W56055  25.207  36.919   4.777
96960W        W56056  21.198  23.728   0.830
96961W        W56057  23.517  17.776   0.269
96962W        W56058  30.126   1.345  13.320
96963W        W56059  15.723  28.547   1.435
96964W        W56060  21.631   5.809   4.240
96965W        W56061  16.687  29.040  13.033
96966W        W56062   0.960  40.805   0.377
96967W        W56063  21.172  38.893  14.509
96968W        W56064   4.245   2.236  12.458
96969W        W56065   4.275  30.585   1.412
96970W        W56066  29.550  15.686  11.505
96971W        W56067   8.399  38.351  12.847
96972W        W56068  26.555  11.210  12.874
96973W        W56069  40.862  25.138   2.270
96974W        W56070  33.041  14.775   1.727
96975W        W56071  16.608  33.123   9.539
96976W        W56072  19.563  34.593   1.265
96977W        W56073  37.023  10.716   1.358
96978W        W56074   1.762  25.214  14.354
96979W        W56075   7.842  33.938   2.398
96980W        W56076  18.723  14.677  13.308
96981W        W56077   7.790   8.394   4.827
96982W        W56078  20.765  42.358   2.888
96983W        W56079  10.648  41.347   2.875
96984W        W56080  23.994  10.152   4.780
96985W        W56081   8.869   5.851   1.437
96986W        W56082  29.551  13.714   2.792
96987W        W56083  17.734  21.580  12.483
96988W        W56084  25.578  16.263   0.425
96989W        W56085  10.174  24.158  12.924
96990W        W56086   5.863   3.215  10.059
96991W        W56087  21.094  26.129   0.379
96992W        W56088  15.817   7.295   4.161
96993W        W56089  29.505   5.284   4.646
96994W        W56090  37.892  13.827  14.335
96995W        W56091  35.360  15.310   4.611
96996W        W56092  21.068  40.461  12.414
96997W        W56093   3.952   2.284  12.957
96998W        W56094  26.669  38.395   3.655
96999W        W56095  33.027  41.026  12.953
97000W        W56096  16.219  29.463  14.488
97001W        W56097  36.044  36.503   4.324
97002W        W56098  36.478  11.756  13.386
97003W        W56099  27.049   6.923   0.881
97004W        W56100  34.583   4.929  10.507
97005W        W56101   1.301   0.870   1.229
97006W        W56102  23.159  41.902   2.378
97007W        W56103  19.546  24.531   4.837
97008W        W56104  31.021  25.175   3.306
97009W        W56105  41.949   7.746  14.990
97010W        W56106  37.016  33.923   4.130
97011W        W56107  41.397  41.299   1.790
97012W        W56108   9.720  27.630   4.259
97013W        W56109   1.366  43.514  12.913
97014W        W56110  26.571  30.462  14.897
97015W        W56111  42.801  43.941   0.266
97016W        W56112   4.891  14.787   0.768
97017W        W56113  34.052  23.111  14.810
97018W        W56114  22.627   0.837  12.094
97019W        W56115   5.311  37.365  14.803
97020W        W56116  25.168   5.420   3.326
97021W        W56117   7.824  42.349   3.839
97022W        W56118  15.766  21.165  10.445
97023W        W56119  43.350   3.760  12.826
97024W        W56120  36.482  11.319   1.839
97025W        W56121  20.031  33.056   1.733
97026W        W56122  26.065  17.693  11.957
97027W        W56123  14.127   7.227   3.362
97028W        W56124  13.668  31.440   4.269
97029W        W56125  37.863  33.079  13.491
97030W        W56126  34.019  43.511   0.348
97031W        W56127  37.014   4.387   4.307
97032W        W56128  27.676  25.200  10.979
97033W        W56129  22.641  19.740  11.087
97034W        W56130   6.863  26.691  12.859
97035W        W56131  12.693  13.294   4.691
97036W        W56132  33.899  22.008   2.380
97037W        W56133  38.067  26.181   2.336
97038W        W56134  16.282  40.434   0.748
97039W        W56135  33.409  12.694   0.340
97040W        W56136  21.144   1.740  14.455
97041W        W56137  25.570  20.684   1.344
97042W        W56138  39.054   8.395  12.473
97043W        W56139  38.343   5.925   2.867
97044W        W56140   5.910  14.309   0.345
97045W        W56141  19.635  32.899   2.255
97046W        W56142  25.548   9.806   3.661
97047W        W56143  19.686  25.043  12.823
97048W        W56144  29.518  20.158  13.404
97049W        W56145  15.164  28.552  11.935
97050W        W56146  23.084  34.396   1.814
97051W        W56147  11.203  34.105  10.956
97052W        W56148   2.962  16.263   1.881
97053W        W56149   1.805   3.892  13.511
97054W        W56150  12.281  18.061  11.380
97055W        W56151  39.944  34.479  12.089
97056W        W56152   8.858  41.421   3.710
97057W        W56153  11.633   8.293   2.774
97058W        W56154  15.194  25.087   0.370
97059W        W56155   2.811  37.499   3.171
97060W        W56156   2.964  34.434   1.274
97061W        W56157  25.016  34.528  10.924
97062W        W56158  14.277   8.662  10.439
97063W        W56159  24.059  41.483   3.182
97064W        W56160  13.187  29.670   0.960
97065W        W56161  16.795   3.232  12.071
97066W        W56162   9.371   6.735   2.401
97067W        W56163  43.346   7.203   2.290
97068W        W56164  35.041  16.298  12.475
97069W        W56165   8.775   0.281   2.276
97070W        W56166  16.649  26.004   1.882
97071W        W56167   3.343  18.727  11.486
97072W        W56168  19.096  16.147   1.396
97073W        W56169  28.992   1.816  13.448
97074W        W56170  20.178   3.943  11.873
97075W        W56171  42.909  41.965   3.384
97076W        W56172  34.989  42.966  11.113
97077W        W56173  20.622  40.539  11.394
97078W        W56174  22.066   9.701  14.421
97079W        W56175  29.435  26.969  12.377
97080W        W56176  38.990  22.212  14.398
97081W        W56177   1.918  43.913  10.595
97082W        W56178  28.956  20.754   4.696
97083W        W56179  25.208  13.235  11.485
97084W        W56180  17.666  36.061   4.613
97085W        W56181  15.087  35.357   0.832
97086W        W56182  29.509  29.648  14.879
97087W        W56183  30.147   2.379   1.359
97088W        W56184   6.277  25.044   5.260
97089W        W56185  31.973  10.359  13.431
97090W        W56186  11.623  40.441   0.904
97091W        W56187  12.267  24.720   3.768
97092W        W56188   8.230  31.552  12.911
97093W        W56189  36.028   3.941   3.160
97094W        W56190  32.102  10.195  14.416
97095W        W56191  26.594   9.847   2.850
97096W        W56192  27.514  13.185  11.029
97097W        W56193  25.500  18.142   0.753
97098W        W56194  23.153  25.068  10.944
97099W        W56195  39.897  40.034   1.282
97100W        W56196  37.027  38.889   3.248
97101W        W56197  25.616   1.323   1.837
97102W        W56198  31.987   5.811  12.513
97103W        W56199  20.129  41.457   0.361
97104W        W56200  37.999  35.947   0.954
97105W        W56201  23.724  20.754   3.195
97106W        W56202   7.256  11.626   3.752
97107W        W56203  19.066  11.177  11.122
97108W        W56204  13.285  10.336  12.869
97109W        W56205  11.280  28.483   2.837
97110W        W56206  26.072  16.677   4.648
97111W        W56207  43.928  33.057  13.815
97112W        W56208   5.208  44.284   4.768
97113W        W56209  31.534  34.454   3.702
97114W        W56210  10.665  28.101  14.385
97115W        W56211  40.340   1.236  11.102
97116W        W56212  26.467  44.267  13.512
97117W        W56213  14.185  26.542   4.805
97118W        W56214   6.852  23.734  14.507
97119W        W56215  17.161  29.013   0.736
97120W        W56216  30.540   7.223  10.940
97121W        W56217  17.672  17.267   4.623
97122W        W56218  11.249   4.863  12.888
97123W        W56219  43.942   6.413   2.708
97124W        W56220  19.275  30.452   4.618
97125W        W56221  27.172  31.440  13.359
97126W        W56222  15.159  26.108  14.823
97127W        W56223  34.452  23.161  11.991
97128W        W56224  23.049   5.306   1.813
97129W        W56225   1.259  16.636   3.336
97130W        W56226  33.568  22.165  13.442
97131W        W56227  28.075  37.851  11.505
97132W        W56228  12.810  13.290  14.826
97133W        W56229  34.934  12.836  14.486
97134W        W56230   0.469   1.335   0.313
97135W        W56231  18.273  10.360  12.366
97136W        W56232  28.611  20.069  11.482
97137W        W56233  33.592  41.293   3.229
97138W        W56234  27.118   7.874  14.828
97139W        W56235  38.891  32.093  11.071
97140W        W56236   5.776  22.010  12.564
97141W        W56237  23.070  21.700   3.702
97142W        W56238  12.280  21.743  11.013
97143W        W56239  28.519  42.283  13.912
97144W        W56240  25.176  14.094   2.389
97145W        W56241  23.659  20.753  14.471
97146W        W56242  14.680  17.250   0.447
97147W        W56243  28.051   9.271   4.136
97148W        W56244  14.150  22.560   1.718
97149W        W56245  18.737  23.998   2.755
97150W        W56246  38.995  34.974  11.019
97151W        W56247  26.078  16.614  14.311
97152W        W56248  26.018   6.866  13.349
97153W        W56249  15.717  13.256   1.865
97154W        W56250   2.855  27.535  14.397
97155W        W56251  40.040  36.463  12.006
97156W        W56252  33.497   5.407  10.564
97157W        W56253   7.198   9.662  14.502
97158W        W56254   0.252  17.651   2.192
97159W        W56255   9.651  10.283   0.442
97160W        W56256  39.000  39.930   3.162
97161W        W56257   5.310  42.943  10.445
97162W        W56258  14.705  23.194  14.794
97163W        W56259   8.332   7.344  13.535
97164W        W56260   1.267  11.740  10.426
97165W        W56261  33.512  39.556   4.322
97166W        W56262  18.607  13.157  13.028
97167W        W56263   4.315  26.537   4.165
97168W        W56264  10.855  10.234   1.765
97169W        W56265  10.171  10.299  14.007
97170W        W56266  28.132  39.039  11.886
97171W        W56267  30.081  11.763  13.983
97172W        W56268  42.501  18.262   0.291
97173W        W56269  28.995   4.331  12.364
97174W        W56270  14.739  28.629   3.308
97175W        W56271  31.446  25.169  13.503
97176W        W56272  28.078  33.584  11.979
97177W        W56273  28.990  11.213  11.932
97178W        W56274  44.442  21.171  10.075
97179W        W56275  40.353  39.955   0.947
97180W        W56276   2.912   5.221  14.814
97181W        W56277  31.597   5.768  10.566
97182W        W56278   1.762  23.002  14.849
97183W        W56279  38.910   7.289   1.717
97184W        W56280  37.513  11.834  14.830
97185W        W56281  43.885   6.793  13.367
97186W        W56282   0.401  44.849   4.798
97187W        W56283  40.434  17.717  14.833
97188W        W56284  30.582   6.336   2.705
97189W        W56285  43.330  22.670  13.971
97190W        W56286  38.515   5.356  12.461
97191W        W56287  35.428  15.118  12.474
97192W        W56288   9.360  38.882   3.781
97193W        W56289  42.286  42.335   2.333
97194W        W56290  25.512  18.238  11.074
97195W        W56291   9.716  25.207  12.490
97196W        W56292   4.229   5.913  13.005
97197W        W56293  23.233  31.045   2.408
97198W        W56294  31.096   7.376  12.363
97199W        W56295  24.092   4.413   1.761
97200W        W56296  31.038  30.600   3.149
97201W        W56297  35.106   3.743   3.308
97202W        W56298   1.774   1.932   2.196
97203W        W56299  14.291   6.841   1.777
97204W        W56300  24.009   8.316   1.369
97205W        W56301  39.989   3.253   0.246
97206W        W56302  41.455   6.310   2.273
97207W        W56303  41.042  14.137  13.988
97208W        W56304  38.041  28.082   0.811
97209W        W56305  31.531  42.924   2.899
97210W        W56306  16.612  27.483  13.858
97211W        W56307  16.227   4.232   0.311
97212W        W56308   8.327  13.716  11.384
97213W        W56309   0.981  21.685  14.403
97214W        W56310  31.940   3.367  10.442
97215W        W56311  12.324  36.959  12.899
97216W        W56312  36.347  39.972   4.807
97217W        W56313  44.850   3.255   2.364
97218W        W56314  40.355  16.168  14.335
97219W        W56315  26.035  27.612  14.350
97220W        W56316  23.987  23.085  14.017
97221W        W56317  41.035  34.378  11.465
97222W        W56318   7.898  15.142  12.877
97223W        W56319  22.672  19.541   3.174
97224W        W56320  29.059  36.426  14.915
97225W        W56321  11.647  33.887  12.366
97226W        W56322  15.763   0.924   2.195
97227W        W56323  37.976  27.503  13.424
97228W        W56324  34.936   8.709   4.624
97229W        W56325  27.108  35.395   4.330
97230W        W56326  19.078  29.434   4.728
97231W        W56327  12.192  39.874  14.338
97232W        W56328  32.017  11.784  10.624
97233W        W56329  27.613  11.283   1.844
97234W        W56330   9.646   6.336   2.855
97235W        W56331  12.806   4.216  14.963
97236W        W56332  22.074  34.552   4.616
97237W        W56333  42.919  15.152  14.914
97238W        W56334  29.468  16.218   3.273
97239W        W56335  11.772  18.758  13.463
97240W        W56336  14.728  16.724   0.311
97241W        W56337  10.325   1.241   1.335
97242W        W56338  36.875   0.385   3.247
97243W        W56339  37.901   4.813  10.430
97244W        W56340  39.944   6.292   0.247
97245W        W56341   3.402   3.816   0.905
97246W        W56342  30.613  17.623  12.851
97247W        W56343  34.880  15.305   5.250
97248W        W56344  22.691  17.127  13.308
97249W        W56345   9.232  18.620  11.056
97250W        W56346  35.565  18.129   0.775
97251W        W56347  16.310  26.998  14.969
97252W        W56348  33.481  14.780  14.953
97253W        W56349  23.567  25.696   3.301
97254W        W56350  22.639  31.051   4.687
97255W        W56351  13.838   4.293  13.389
97256W        W56352   3.415  13.131  13.389
97257W        W56353   5.779  26.559  12.019
97258W        W56354  14.794   5.238  14.514
97259W        W56355  14.795  24.201  14.986
97260W        W56356  26.136  12.633  11.604
97261W        W56357  44.805  21.018  10.490
97262W        W56358  30.962  13.149  11.400
97263W        W56359  18.774  23.523   2.288
97264W        W56360  23.197  40.311   0.360
97265W        W56361  44.393   8.824   3.369
97266W        W56362   2.856  22.164  11.978
97267W        W56363  41.921  29.668   3.155
97268W        W56364  13.806  11.237  13.314
97269W        W56365   4.706   8.287   0.478
97270W        W56366   8.193  17.685   5.164
97271W        W56367  22.151  43.967  14.452
97272W        W56368  41.466   3.302  13.976
97273W        W56369  17.588   1.245  13.396
97274W        W56370  39.939  23.513   1.341
97275W        W56371  36.911  14.748   2.667
97276W        W56372   1.445  36.479  12.554
97277W        W56373  40.893  37.843  14.421
97278W        W56374  30.939   6.784  14.430
97279W        W56375  43.359  17.633   1.722
97280W        W56376  15.643  18.610  14.503
97281W        W56377  30.566  32.629  11.857
97282W        W56378  36.587   9.786  13.970
97283W        W56379  20.244  29.515  12.510
97284W        W56380  22.746  44.435   4.597
97285W        W56381   8.668  42.934   0.886
97286W        W56382  20.643  31.946  14.443
97287W        W56383   1.788   3.282   1.305
97288W        W56384   4.867  12.354   4.158
97289W        W56385  12.250  31.108   1.725
97290W        W56386  21.048  43.017   2.739
97291W        W56387  27.973  44.265   0.263
97292W        W56388   8.794  26.457  10.620
97293W        W56389  33.914  37.868   1.792
97294W        W56390  23.046  19.125   1.308
97295W        W56391  16.169  44.966  14.832
97296W        W56392   2.871  28.183   3.152
97297W        W56393  44.943   7.278   4.280
97298W        W56394  43.979  12.304  10.499
97299W        W56395  25.071  37.555   2.814
97300W        W56396  31.633  17.193  14.396
97301W        W56397  34.521  26.145  14.410
97302W        W56398  40.942  31.593  10.603
97303W        W56399  28.623  17.561  14.407
97304W        W56400   8.232   5.289  13.507
97305W        W56401  15.103  21.240   0.331
97306W        W56402   7.197  29.068  12.839
97307W        W56403  12.775  22.567  14.907
97308W        W56404  35.389  38.955   2.674
97309W        W56405  35.982  33.896  12.544
97310W        W56406   5.784  24.166   4.177
97311W        W56407   8.722  17.200   2.864
97312W        W56408  42.972   1.967  11.884
97313W        W56409  15.126  38.076  10.592
97314W        W56410  13.824   4.815   3.328
97315W        W56411   9.792  11.136   0.369
97316W        W56412  20.097   4.801  13.500
97317W        W56413  13.150  43.316   0.952
97318W        W56414   9.699  37.566   1.893
97319W        W56415   9.363  44.334   4.833
97320W        W56416   0.272  20.548  14.011
97321W        W56417  20.587  27.016  10.538
97322W        W56418  15.092   8.242  14.849
97323W        W56419   9.192  36.427  12.825
97324W        W56420   2.429  40.838   0.332
97325W        W56421  28.061  34.118   4.225
97326W        W56422  35.852  38.460  12.390
97327W        W56423  22.640  27.494   4.643
97328W        W56424  31.086  30.451   1.394
97329W        W56425  14.751  15.089  12.538
97330W        W56426  20.585  28.180   4.124
97331W        W56427  12.172   2.282  11.035
97332W        W56428  34.111  42.818  11.532
97333W        W56429  20.678  29.461   2.296
97334W        W56430  38.477  33.471   1.898
97335W        W56431  25.168  32.501  11.602
97336W        W56432  19.683   1.427   2.810
97337W        W56433  34.592  43.919   3.806
97338W        W56434   0.316  19.063  13.840
97339W        W56435  39.984  13.776  13.497
97340W        W56436   8.787  24.081  11.986
97341W        W56437  30.163  13.697  11.532
97342W        W56438   8.219  28.449  11.577
97343W        W56439  25.047  28.002   4.175
97344W        W56440  26.052  34.489  13.037
97345W        W56441  38.851  17.061   3.285
97346W        W56442  21.713  19.756   0.412
97347W        W56443   3.928   5.746   4.617
97348W        W56444  38.051  29.063   0.803
97349W        W56445   9.204   7.891   1.365
97350W        W56446   0.472  31.597  13.942
97351W        W56447  32.096  44.892   4.645
97352W        W56448  15.277   6.919   3.382
97353W        W56449  37.050  24.539   4.820
97354W        W56450  20.675  32.456  13.044
97355W        W56451   9.203  44.931  12.418
97356W        W56452  39.433  19.074   3.357
97357W        W56453  34.389   0.488  12.343
97358W        W56454  27.460  42.827   2.328
97359W        W56455  20.167  33.576   1.731
97360W        W56456  22.160  27.167   2.359
97361W        W56457  27.108  40.360  12.956
97362W        W56458  43.880  18.162   4.137
97363W        W56459  30.513  34.049  13.993
97364W        W56460   8.328  41.978  10.637
97365W        W56461  41.397   4.735   4.316
97366W        W56462  35.554  10.808  11.448
97367W        W56463   8.674  25.548   4.627
97368W        W56464   5.284  40.015   1.898
97369W        W56465  10.372  43.328   4.300
97370W        W56466  22.168  25.155   0.443
97371W        W56467  23.556  44.778  13.490
97372W        W56468  39.065  14.263   3.204
97373W        W56469  34.414  29.132  11.422
97374W        W56470  15.587  28.125   4.235
97375W        W56471   3.452  24.485  10.577
97376W        W56472  11.624   5.331  14.976
97377W        W56473   4.815  24.564   1.284
97378W        W56474   4.402  15.663   1.840
97379W        W56475   7.262  19.150  14.853
97380W        W56476  13.659   6.365   2.280
97381W        W56477  41.400  29.127   2.864
97382W        W56478  13.811  24.665   3.850
97383W        W56479  23.227  20.693  11.079
97384W        W56480   7.862   5.223  10.565
97385W        W56481  19.636   2.903   2.890
97386W        W56482   6.183  14.312   3.371
97387W        W56483   8.805   2.901  13.357
97388W        W56484  11.679  30.420   9.999
97389W        W56485  26.525  27.596   0.943
97390W        W56486  17.621  41.812  12.079
97391W        W56487  44.856  34.428   0.314
97392W        W56488  19.102  22.096  11.470
97393W        W56489  12.183  19.692  10.080
97394W        W56490  19.639   1.868   3.354
97395W        W56491  22.195  17.285  12.848
97396W        W56492  36.578  22.070  12.406
97397W        W56493   8.783  14.804   4.320
97398W        W56494  43.956  28.997  12.080
97399W        W56495  36.078  18.790   2.282
97400W        W56496  38.981  24.642   2.748
97401W        W56497  24.055  30.535  13.048
97402W        W56498   7.843   0.929   4.194
97403W        W56499  30.092  33.078  10.412
97404W        W56500  44.785  41.316   0.755
97405W        W56501  33.974  29.981   3.809
97406W        W56502  38.385   1.841  14.858
97407W        W56503  16.133  13.799   1.705
97408W        W56504  40.053  39.939   4.135
97409W        W56505  34.547   0.459   1.786
97410W        W56506  18.589  33.606   4.165
97411W        W56507  42.942  43.324  13.498
97412W        W56508  13.843  11.660   3.276
97413W        W56509   9.852  34.396   1.305
97414W        W56510  40.401  31.433   0.898
97415W        W56511  32.115  33.601  14.374
97416W        W56512  34.470   3.378  14.284
97417W        W56513  30.091  41.532   4.755
97418W        W56514   3.901  41.902  14.450
97419W        W56515  38.839   9.210  10.017
97420W        W56516  38.867  12.810  12.401
97421W        W56517   5.315  44.502   1.696
97422W        W56518  34.118  38.028  13.951
97423W        W56519  34.945  23.639   5.209
97424W        W56520   4.837  25.171  11.101
97425W        W56521   8.765  12.343  12.514
97426W        W56522  43.821  28.011  11.052
97427W        W56523  41.407  42.394  13.955
97428W        W56524  10.176  24.973   4.137
97429W        W56525  34.375  17.590   2.267
97430W        W56526  22.167  42.829  14.426
97431W        W56527  38.423  43.767  13.401
97432W        W56528  27.165  19.569  12.909
97433W        W56529  31.471  25.703   2.361
97434W        W56530  29.135  17.265   0.814
97435W        W56531  36.350  18.763   1.368
97436W        W56532  25.106  31.491  13.044
97437W        W56533  27.968  39.480   2.900
97438W        W56534  15.692  33.575   4.172
97439W        W56535  37.988  27.599   2.184
97440W        W56536  10.203   3.371  13.030
97441W        W56537   8.709   9.239   1.256
97442W        W56538  24.069   2.357  12.433
97443W        W56539  42.419  36.844   2.789
97444W        W56540  11.366  37.517  11.440
97445W        W56541  13.137  29.056  12.902
97446W        W56542  21.634  22.133   1.251
97447W        W56543  17.716  15.127   2.222
97448W        W56544  32.616  32.138  11.003
97449W        W56545  27.165  34.372  14.778
97450W        W56546  17.742  33.381  14.275
97451W        W56547  42.421   3.323   0.411
97452W        W56548  23.168  33.528   2.730
97453W        W56549  32.502  15.100  11.882
97454W        W56550  22.213   6.182  12.357
97455W        W56551  18.595  21.717   2.848
97456W        W56552  34.929  30.645  12.390
97457W        W56553  43.947  21.613   4.198
97458W        W56554   1.449  32.030  14.843
97459W        W56555  27.449  30.538   3.284
97460W        W56556   0.919  30.422  14.828
97461W        W56557  36.529  14.678  14.936
97462W        W56558  14.204  23.519  14.508
97463W        W56559  19.711  40.316   5.185
97464W        W56560  23.564  10.802   1.330
97465W        W56561  21.053  20.071  11.093
97466W        W56562  16.266  22.728  10.424
97467W        W56563  41.491   4.427  11.509
97468W        W56564  32.937  37.459   2.387
97469W        W56565   1.394  17.604  11.912
97470W        W56566   0.864   5.874   2.730
97471W        W56567  39.837  26.019  13.338
97472W        W56568  29.493   8.883   0.390
97473W        W56569  11.141  15.308  13.020
97474W        W56570  25.612   8.816   2.267
97475W        W56571  41.028  13.774  12.016
97476W        W56572  29.990  24.537   4.722
97477W        W56573  16.197  13.178   3.807
97478W        W56574   3.291  10.698  12.933
97479W        W56575   4.838  43.951  13.041
97480W        W56576  40.007  38.501   2.369
97481W        W56577  23.171   5.265  11.393
97482W        W56578  10.798  27.488   0.278
97483W        W56579   7.699  21.609  11.474
97484W        W56580  34.590  40.426  11.536
97485W        W56581   5.251  23.571  13.966
97486W        W56582  37.434  32.563   2.818
97487W        W56583   5.334  31.092  14.984
97488W        W56584   6.719  43.508   2.387
97489W        W56585   1.802  20.272  13.502
97490W        W56586  23.601  22.093   1.254
97491W        W56587  39.915   2.808   2.202
97492W        W56588   8.862  23.496   2.861
97493W        W56589  34.466   3.712   2.365
97494W        W56590  16.568  18.624  12.500
97495W        W56591  39.552  33.036  13.802
97496W        W56592  27.640  24.230   2.671
97497W        W56593  30.535  24.165  12.520
97498W        W56594  44.391  29.107  13.973
97499W        W56595   4.723  42.455   3.832
97500W        W56596   6.769   7.804  14.785
97501W        W56597  13.190  32.400  10.945
97502W        W56598  38.954  44.983  11.874
97503W        W56599   8.362  17.681   4.664
97504W        W56600   2.745  16.787   4.225
97505W        W56601  28.532  41.876  12.520
97506W        W56602   5.207  16.567  14.481
97507W        W56603  44.454  39.406   3.194
97508W        W56604  23.490  11.696   0.895
97509W        W56605  22.040  13.709  12.948
97510W        W56606  41.532  11.629  10.542
97511W        W56607   3.394  39.919   4.752
97512W        W56608  14.652  42.912  13.893
97513W        W56609  23.007  37.379  10.889
97514W        W56610  19.622  40.988  13.941
97515W        W56611  32.955   7.293   4.651
97516W        W56612   3.858  44.298  10.527
97517W        W56613  36.482  33.018   1.227
97518W        W56614  43.911  16.315   0.734
97519W        W56615  22.582  13.642   4.752
97520W        W56616  33.591  15.732   4.346
97521W        W56617   9.268  28.441  11.981
97522W        W56618  32.906  28.567   2.723
97523W        W56619   0.932  14.224   1.363
97524W        W56620  14.781   8.707   4.783
97525W        W56621  19.240  20.147  12.455
97526W        W56622  34.117  20.532   1.300
97527W        W56623  21.070  24.632   3.727
97528W        W56624  21.244  34.966  10.501
97529W        W56625  11.687   4.380   3.358
97530W        W56626  33.002  31.494  11.549
97531W        W56627  42.289  11.328  12.476
97532W        W56628  36.511  27.117   4.813
97533W        W56629  30.530  37.061   2.246
97534W        W56630  26.545   4.814   0.792
97535W        W56631   4.852  31.045   3.219
97536W        W56632  24.032  39.033   3.727
97537W        W56633  18.677   1.742   3.663
97538W        W56634  44.311  23.663   3.292
97539W        W56635  12.173  16.676   9.925
97540W        W56636   0.825  14.732   4.753
97541W        W56637  12.157  10.231   2.748
97542W        W56638  14.099  20.554   2.246
97543W        W56639  27.501  41.304  14.510
97544W        W56640  37.443  12.237   4.119
97545W        W56641   9.355  33.908  14.977
97546W        W56642   8.784  16.156  11.463
97547W        W56643  26.974  14.306   4.325
97548W        W56644  32.452  37.553   4.638
97549W        W56645   1.469  34.901  12.879
97550W        W56646  28.023  11.188  14.284
97551W        W56647   2.788  15.689   0.386
97552W        W56648  27.476  20.677  13.523
97553W        W56649  23.185  12.301  12.013
97554W        W56650  21.713  42.507  10.942
97555W        W56651  42.455  15.817   4.765
97556W        W56652  11.276  27.577   0.837
97557W        W56653  44.502  34.479   1.747
97558W        W56654  11.151  39.914   1.211
97559W        W56655  15.213  29.621  12.447
97560W        W56656  33.984  22.212  13.504
97561W        W56657  23.163  16.171  12.428
97562W        W56658  21.750  10.676   4.636
97563W        W56659  28.529  12.658   3.334
97564W        W56660  19.177  11.852  13.343
97565W        W56661  39.505  10.821   9.623
97566W        W56662  15.270  41.893  10.939
97567W        W56663  43.347  37.353  10.489
97568W        W56664   7.278   9.699  13.912
97569W        W56665  22.580  25.474   0.449
97570W        W56666   3.771  42.931   4.153
97571W        W56667   3.268  34.450  10.103
97572W        W56668  28.465  44.895  13.994
97573W        W56669  31.135  33.999  10.951
97574W        W56670  30.573   4.817  14.509
97575W        W56671  32.462  32.930  13.930
97576W        W56672   5.207   6.858  12.092
97577W        W56673   2.416  27.454  12.915
97578W        W56674  36.519  25.713  11.512
97579W        W56675  19.676  37.034   0.479
97580W        W56676  16.136  37.956   3.180
97581W        W56677   9.328  18.706  12.011
97582W        W56678  11.291   2.436  13.837
97583W        W56679   1.849  15.219  10.572
97584W        W56680  20.628   3.796  12.901
97585W        W56681   6.874   0.264   0.906
97586W        W56682  27.486  40.484  11.901
97587W        W56683  14.192  17.156  12.389
97588W        W56684  39.956   8.302  14.485
97589W        W56685  16.764  39.376   3.195
97590W        W56686   5.771  42.797  12.437
97591W        W56687  42.332  23.122  11.534
97592W        W56688  26.566  44.961  10.631
97593W        W56689   9.860  35.461  12.091
97594W        W56690   4.718  29.997   2.291
97595W        W56691  43.896  15.656  11.058
97596W        W56692   1.795   7.721  11.401
97597W        W56693  23.233  24.553   4.212
97598W        W56694   8.277   4.232   1.879
97599W        W56695  39.972  36.432  12.985
97600W        W56696  19.134  18.752  10.632
97601W        W56697  10.291   9.254   1.716
97602W        W56698  39.480   6.338  13.055
97603W        W56699  27.644  40.425   0.757
97604W        W56700   2.307  32.562  14.347
97605W        W56701  38.557  26.626   2.398
97606W        W56702  38.368  33.555   0.762
97607W        W56703  31.910   8.306   3.347
97608W        W56704  15.786  30.081  10.586
97609W        W56705  38.067  26.664   9.962
97610W        W56706  38.998  20.048  14.464
97611W        W56707  44.950  44.504  11.387
97612W        W56708   5.824  16.200  14.903
97613W        W56709  33.916  15.579   0.791
97614W        W56710  41.959  38.432   4.273
97615W        W56711  14.314   8.283  13.534
97616W        W56712  25.213  35.374  13.916
97617W        W56713  16.100   9.259  10.915
97618W        W56714  38.970  44.860   0.383
97619W        W56715  31.091   6.187   1.443
97620W        W56716  32.111  30.931   0.384
97621W        W56717  20.539  44.366   1.219
97622W        W56718  42.373   5.381   3.825
97623W        W56719  15.235  19.200   0.399
97624W        W56720  24.547   4.317   3.851
97625W        W56721  29.525  43.471   2.866
97626W        W56722  35.949  25.143  13.420
97627W        W56723  14.210   1.834   2.671
97628W        W56724  24.497  28.502  13.410
97629W        W56725   8.206  26.962   1.265
97630W        W56726  38.453   1.252   0.881
97631W        W56727  40.404  33.129   1.749
97632W        W56728   5.871  24.188   4.646
97633W        W56729  36.416  21.743   3.869
97634W        W56730   4.349  41.972  10.459
97635W        W56731  23.217  43.336  13.454
97636W        W56732  25.565  40.837   1.440
97637W        W56733  42.448  12.286   0.855
97638W        W56734  18.635  31.458  11.005
97639W        W56735  19.186  30.442   1.921
97640W        W56736  15.668  27.944  12.967
97641W        W56737  39.905   4.879   2.264
97642W        W56738  41.324  30.978  14.881
97643W        W56739  44.446  30.657  10.558
97644W        W56740  18.070  16.802  13.935
97645W        W56741  27.117  22.191   3.206
97646W        W56742  20.671  40.346  12.346
97647W        W56743  21.606  11.353  14.316
97648W        W56744  18.129  19.190  10.973
97649W        W56745   0.823   5.834  14.940
97650W        W56746  29.169   6.763  11.489
97651W        W56747   7.811  11.246   2.826
97652W        W56748   3.392  40.995  14.028
97653W        W56749  26.582  39.416  14.402
97654W        W56750  13.759   6.843  12.077
97655W        W56751  25.015  42.487   4.755
97656W        W56752  31.044  23.494   1.696
97657W        W56753  22.059  29.575   4.267
97658W        W56754  38.994   9.672   1.889
97659W        W56755  41.329  40.954  13.012
97660W        W56756   8.208   0.406   2.810
97661W        W56757  11.188  37.500   1.912
97662W        W56758   9.783  15.592  10.998
97663W        W56759  35.415  31.483  13.537
97664W        W56760   8.322  18.063   0.367
97665W        W56761  22.697  32.978  11.450
97666W        W56762   7.371  17.617  10.047
97667W        W56763   6.778  32.076   2.875
97668W        W56764  13.336  22.593  13.983
97669W        W56765  43.496  14.735   1.440
97670W        W56766  44.842   2.377  11.077
97671W        W56767   8.353   5.293   1.412
97672W        W56768   8.743  19.242  13.834
97673W        W56769  28.162  25.493   0.465
97674W        W56770  30.631  38.465   1.313
97675W        W56771  23.727   1.737  13.412
97676W        W56772  42.824  30.530   3.227
97677W        W56773   8.819  21.108   3.185
97678W        W56774  13.624   7.713  12.054
97679W        W56775  25.627  40.819   3.805
97680W        W56776   4.832  10.302   3.344
97681W        W56777   0.941  28.972  14.823
97682W        W56778  18.699  14.287  10.062
97683W        W56779   2.901   6.247  13.370
97684W        W56780  39.342  31.958   0.346
97685W        W56781  26.701  31.451   2.235
97686W        W56782  32.901  13.145   1.737
97687W        W56783  33.050  38.983   4.159
97688W        W56784  32.042  41.440   1.770
97689W        W56785  30.021   0.820  11.908
97690W        W56786   4.922  20.151   4.754
97691W        W56787  21.233  16.277   1.763
97692W        W56788  13.827  39.321  11.556
97693W        W56789  43.393  15.779   0.835
97694W        W56790  19.233  37.508  12.503
97695W        W56791  19.166  41.497  13.837
97696W        W56792  43.347  14.141   9.947
97697W        W56793  30.499  43.813  10.470
97698W        W56794  14.642  36.490  12.979
97699W        W56795  21.677   5.196  13.893
97700W        W56796  31.979  31.087  12.433
97701W        W56797  14.655  44.923   1.749
97702W        W56798  33.388  21.214   1.821
97703W        W56799  11.712  43.856   2.400
97704W        W56800  14.242  10.680   3.777
97705W        W56801  21.191  34.378  14.400
97706W        W56802  12.719  17.743  14.965
97707W        W56803  16.584  30.489   4.736
97708W        W56804  25.055  38.932   5.130
97709W        W56805  18.774  27.513  14.760
97710W        W56806   0.746   3.771  11.055
97711W        W56807   9.761  31.483   5.098
97712W        W56808  19.050  36.535   3.159
97713W        W56809  13.763   7.849  12.909
97714W        W56810   4.711   8.334   2.898
97715W        W56811  36.990  43.349   3.363
97716W        W56812  19.665   2.732   4.181
97717W        W56813  37.372  33.420   1.929
97718W        W56814  41.498  15.299  10.573
97719W        W56815  25.086  16.243   3.725
97720W        W56816  33.388  25.631   1.869
97721W        W56817  35.942   9.330   4.689
97722W        W56818   0.327   8.808   0.932
97723W        W56819  13.127  18.143  13.990
97724W        W56820   3.736  39.985  12.502
97725W        W56821  34.583  43.287   3.286
97726W        W56822  30.159  40.051   0.768
97727W        W56823   2.926  27.072   0.273
97728W        W56824  43.819   1.315   4.137
97729W        W56825  35.591  20.584  14.447
97730W        W56826   0.380  32.408  11.897
97731W        W56827  37.979  41.999   1.284
97732W        W56828  33.559  33.573   3.823
97733W        W56829  20.752  26.538   3.846
97734W        W56830  32.045  14.812  11.093
97735W        W56831   9.246  19.573  13.432
97736W        W56832  14.211  42.780   3.253
97737W        W56833  13.781  38.969   2.362
97738W        W56834  33.471  21.584   2.339
97739W        W56835  12.179  38.899  12.482
97740W        W56836  41.895  42.456  12.498
97741W        W56837  30.587  30.501   3.811
97742W        W56838  33.964  21.207  10.955
97743W        W56839  11.284  30.421   2.815
97744W        W56840  12.757   9.793   3.237
97745W        W56841  44.968  34.526  11.108
97746W        W56842  32.540  21.203  14.497
97747W        W56843  22.224  32.630  12.461
97748W        W56844   7.395   8.235   0.797
97749W        W56845  31.473  42.806  10.617
97750W        W56846  42.342  37.559  10.568
97751W        W56847  21.611  17.677   4.791
97752W        W56848  10.801  43.286   3.675
97753W        W56849  20.044  11.634  13.544
97754W        W56850   0.883  26.687   2.361
97755W        W56851  17.104  10.222   3.821
97756W        W56852  27.450   2.812  10.955
97757W        W56853  38.369  26.477  14.448
97758W        W56854  16.230   6.734  12.942
97759W        W56855  28.009   2.353   1.298
97760W        W56856  17.558  36.537   0.450
97761W        W56857   6.742   3.358   2.757
97762W        W56858  14.809  42.777   3.673
97763W        W56859  19.603  23.047   3.705
97764W        W56860  36.452  37.847  10.630
97765W        W56861  13.122   6.783   0.756
97766W        W56862  39.398   3.258   1.271
97767W        W56863  20.202  36.412   2.723
97768W        W56864  22.243   4.833  13.945
97769W        W56865  31.513  17.588  14.405
97770W        W56866  16.095  23.054   1.267
97771W        W56867  12.159  37.984  13.863
97772W        W56868   6.801  25.211   1.290
97773W        W56869  38.896  12.713   1.246
97774W        W56870  15.184  43.483   2.343
97775W        W56871  34.372  42.390   2.383
97776W        W56872   9.358  29.134   4.270
97777W        W56873  40.817  14.160  13.035
97778W        W56874  15.088  33.562  13.524
97779W        W56875   5.759  25.600   0.841
97780W        W56876  24.623  15.730  12.969
97781W        W56877   8.358   0.343   1.914
97782W        W56878  22.111   6.230   4.257
97783W        W56879  26.539  40.870   0.292
97784W        W56880  21.064  15.141  13.993
97785W        W56881  40.483  20.637   0.409
97786W        W56882  18.569  37.522  10.493
97787W        W56883  36.890  44.970  13.888
97788W        W56884  15.819  15.288   1.727
97789W        W56885   7.395   7.888  12.391
97790W        W56886   0.827  21.710  13.794
97791W        W56887   8.235  37.004  10.494
97792W        W56888  36.359  43.357  12.423
97793W        W56889  27.044  35.392  10.926
97794W        W56890  22.134  33.514  13.061
97795W        W56891  16.686   7.846   4.764
97796W        W56892  40.451  40.895  11.570
97797W        W56893  42.789  26.490   2.760
97798W        W56894  24.671  24.071   4.139
97799W        W56895   9.656   9.265   0.749
97800W        W56896  11.234  31.495   1.428
97801W        W56897  30.480  19.590  13.447
97802W        W56898  32.526   6.807  12.376
97803W        W56899  19.195  16.697   3.685
97804W        W56900  22.713   9.155   0.261
97805W        W56901   8.330  28.667   0.854
97806W        W56902  17.706  41.443   4.348
97807W        W56903  40.517   1.904   1.210
97808W        W56904   7.368  37.396   3.283
97809W        W56905  25.122  27.692  14.839
97810W        W56906   4.300  13.172  12.989
97811W        W56907  32.548  34.951  11.490
97812W        W56908  10.371  27.057   4.664
97813W        W56909  43.334  44.472   4.702
97814W        W56910   5.695  19.269   2.340
97815W        W56911  13.669  44.447   2.719
97816W        W56912  41.892  33.106   1.346
97817W        W56913  35.995   4.802   0.828
97818W        W56914  25.203  28.176   3.240
97819W        W56915  16.173  37.345  13.995
97820W        W56916   3.273  17.742   3.798
97821W        W56917  37.497  37.582  14.796
97822W        W56918  14.266  22.157  13.843
97823W        W56919  18.745  12.164  12.358
97824W        W56920  44.946   7.253  10.471
97825W        W56921  15.176  34.436  11.912
97826W        W56922  11.733  34.481   4.801
97827W        W56923  24.568   8.763  12.464
97828W        W56924   9.364   1.969   0.452
97829W        W56925  12.683  36.487  14.803
97830W        W56926  36.565   3.839   4.660
97831W        W56927  17.621  14.094  14.466
97832W        W56928   0.403  25.970  13.842
97833W        W56929  29.612  40.906  12.845
97834W        W56930  43.358  20.749   2.858
97835W        W56931  44.321  36.946  13.885
97836W        W56932  25.529   8.773  12.062
97837W        W56933  34.500  32.059  12.394
97838W        W56934  11.727   1.296  11.391
97839W        W56935  21.166   5.931   1.365
97840W        W56936  39.008  34.562  13.970
97841W        W56937  23.014  21.567  14.775
97842W        W56938  27.651  12.626   4.683
97843W        W56939  29.960   0.413   2.900
97844W        W56940  28.013  11.359  14.028
97845W        W56941   0.252  11.247   2.835
97846W        W56942  11.165  12.821  10.564
97847W        W56943  42.389  17.670  10.619
97848W        W56944  10.787  40.469   0.966
97849W        W56945   6.300  35.923  11.568
97850W        W56946  32.593   7.301   2.240
97851W        W56947  37.458  17.268   2.679
97852W        W56948  14.824   1.258   0.831
97853W        W56949   4.385  33.038  12.495
97854W        W56950  21.118  14.160  14.493
97855W        W56951  40.460  27.037   3.164
97856W        W56952  17.782  13.292  11.537
97857W        W56953  13.199  36.869   4.130
97858W        W56954  41.378  23.670  11.889
97859W        W56955  32.598  34.525  13.421
97860W        W56956  25.071  25.005   4.183
97861W        W56957  10.683  11.260  13.027
97862W        W56958  37.003   0.942   1.707
97863W        W56959   1.424  10.145  13.858
97864W        W56960  30.445  14.643   0.354
97865W        W56961  13.195  42.317  12.030
97866W        W56962  15.587  26.102   2.283
97867W        W56963  40.812  12.668   9.646
97868W        W56964  44.276  17.276   5.294
97869W        W56965  21.089  41.850  12.000
97870W        W56966  41.481  35.403   4.611
97871W        W56967  23.601  39.410   2.732
97872W        W56968  22.680   2.961  12.430
97873W        W56969  10.214  26.661  11.383
97874W        W56970  10.294  41.955  11.971
97875W        W56971  18.063  39.026   1.703
97876W        W56972  35.385   0.452   3.281
97877W        W56973   7.316  17.139   4.258
97878W        W56974   9.712   9.653   2.418
97879W        W56975   2.877  38.553   3.859
97880W        W56976  17.102   4.348   2.309
97881W        W56977  35.586   6.710  10.476
97882W        W56978  28.664  15.662   1.724
97883W        W56979  18.628  25.662   2.244
97884W        W56980  37.028  25.077  12.361
97885W        W56981  15.759  25.015  10.958
97886W        W56982  20.666  32.578   1.798
97887W        W56983  39.515  36.926  11.611
97888W        W56984  43.375  12.169  10.436
97889W        W56985   7.294  32.046  12.554
97890W        W56986  11.350  43.800   1.918
97891W        W56987  35.938   9.192  10.521
97892W        W56988  15.129  13.684   0.368
97893W        W56989   3.846  29.972  12.462
97894W        W56990   3.850   4.718   1.756
97895W        W56991  23.715   2.736  14.385
97896W        W56992  42.032  32.114  12.017
97897W        W56993   5.834  30.958   1.345
97898W        W56994  30.965  35.083   3.153
97899W        W56995   1.961   5.724   1.422
97900W        W56996  24.586  19.108   1.435
97901W        W56997  20.067  26.074  11.870
97902W        W56998  41.337  23.691   2.721
97903W        W56999  33.084  14.120   4.327
97904W        W57000  26.104  32.098  13.425
97905W        W57001   4.833  41.524   4.319
97906W        W57002   0.742   5.889   1.887
97907W        W57003  32.554  33.988  13.860
97908W        W57004  24.150  37.482  13.486
97909W        W57005  29.445  18.062   4.825
97910W        W57006   5.914  13.346   0.318
97911W        W57007  28.036  34.886   0.758
97912W        W57008   1.788   4.923   1.771
97913W        W57009  26.045  20.543  12.558
97914W        W57010   4.880  13.271   3.856
97915W        W57011  36.391  15.642   3.723
97916W        W57012  29.030  42.288  14.810
97917W        W57013  44.496   9.232   3.348
97918W        W57014   5.272  35.566   2.701
97919W        W57015  10.353   0.288  10.077
97920W        W57016  21.568  12.713   5.735
97921W        W57017  41.455  25.084  14.282
97922W        W57018  16.785  32.573   4.145
97923W        W57019  22.038  35.088  11.551
97924W        W57020  35.510   9.183   3.297
97925W        W57021  11.779   6.348   5.133
97926W        W57022  23.090   7.370  10.918
97927W        W57023  12.316  40.340   4.332
97928W        W57024  24.997  44.443   5.192
97929W        W57025  16.647  24.998  12.375
97930W        W57026  36.407  39.535  11.446
97931W        W57027  25.671  26.551  14.288
97932W        W57028   6.894  42.910  11.982
97933W        W57029  37.015   7.364  10.584
97934W        W57030   6.814  30.503  12.445
97935W        W57031  29.654  25.042   2.348
97936W        W57032  37.983  11.245   5.587
97937W        W57033   7.696  37.458   5.285
97938W        W57034  20.110   5.828   3.831
97939W        W57035  12.181  11.682   1.439
97940W        W57036  33.080  37.929   0.948
97941W        W57037   6.697  19.571   2.364
97942W        W57038  11.166  38.456   2.753
97943W        W57039   3.741  33.035   0.962
97944W        W57040  43.490  19.539  14.770
97945W        W57041  20.694  33.599  11.372
97946W        W57042  17.683   2.783  11.523
97947W        W57043  11.166  14.734  11.577
97948W        W57044  42.919  23.181  10.504
97949W        W57045  42.409  15.796   0.814
97950W        W57046  26.979  19.257   0.352
97951W        W57047  25.987  38.519  14.469
97952W        W57048   5.793  20.593  14.915
97953W        W57049  25.602  40.450  11.064
97954W        W57050  37.359   8.237   0.736
97955W        W57051  13.836   1.744  11.988
97956W        W57052  14.202  36.992   0.309
97957W        W57053   5.883   4.942  13.955
97958W        W57054  23.126  35.430  14.368
97959W        W57055   2.384   5.884   1.240
97960W        W57056  36.080   4.360  13.908
97961W        W57057  30.145  44.844  13.900
97962W        W57058  20.180  38.933  12.365
97963W        W57059  33.002  25.676   2.861
97964W        W57060  35.950  26.207  13.428
97965W        W57061  18.075  41.465  10.587
97966W        W57062  22.539   1.885  14.913
97967W        W57063  15.810  25.693   0.406
97968W        W57064  39.811  10.841  12.920
97969W        W57065  14.209  29.004   5.667
97970W        W57066  28.061  22.024  13.493
97971W        W57067  42.886   9.763   0.937
97972W        W57068  25.203  39.545  11.488
97973W        W57069  37.017  22.191  13.830
97974W        W57070   2.874   6.896  12.471
97975W        W57071  24.075   9.270   0.894
97976W        W57072  20.122  41.021   4.738
97977W        W57073  31.555   5.216  12.900
97978W        W57074  40.378   4.789   5.103
97979W        W57075  25.106  31.445   0.312
97980W        W57076  26.463  26.574  12.367
97981W        W57077  29.564   1.422  12.480
97982W        W57078  38.493  23.136  14.427
97983W        W57079  10.284  41.314  14.339
97984W        W57080  41.039  40.471   4.720
97985W        W57081  16.304  17.729   3.347
97986W        W57082  30.143  34.393   3.774
97987W        W57083  27.517  18.097  10.898
97988W        W57084  14.227  19.286  14.930
97989W        W57085   0.274   1.923   4.731
97990W        W57086  44.361  21.240   5.181
97991W        W57087  21.580  21.634   0.462
97992W        W57088  28.030  25.086   2.198
97993W        W57089  16.157  17.277   2.665
97994W        W57090   7.758  27.685  12.975
97995W        W57091  35.866  19.638  14.436
97996W        W57092  13.733   7.867   4.152
97997W        W57093   7.309  38.861  14.820
97998W        W57094  38.385  28.448  14.446
97999W        W57095   7.342  22.141  11.027
98000W        W57096  27.582   7.856  10.908
98001W        W57097  14.326  24.080  14.334
98002W        W57098  33.451  34.426   9.974
98003W        W57099  27.008  26.575  11.875
98004W        W57100   9.791  21.093   3.813
98005W        W57101  37.978  33.097   4.229
98006W        W57102  17.631  15.215  10.637
98007W        W57103   2.733   3.453   2.400
98008W        W57104  26.638  20.763   0.367
98009W        W57105  29.989  16.108   3.686
98010W        W57106  21.209   8.161   0.475
98011W        W57107   0.413  16.109  13.409
98012W        W57108   9.877  32.593  14.337
98013W        W57109  27.039  43.486   0.890
98014W        W57110  24.716  23.665  13.528
98015W        W57111  27.598  36.457  14.794
98016W        W57112   1.441  41.921  11.992
98017W        W57113  38.956   4.273   1.256
98018W        W57114   3.718  30.475  13.037
98019W        W57115  38.966  30.473   4.295
98020W        W57116  40.418  34.565  13.922
98021W        W57117  20.037   3.327   0.924
98022W        W57118  21.645  43.994  12.921
98023W        W57119  40.434  16.182   1.772
98024W        W57120   2.777  11.132  13.029
98025W        W57121  18.050  31.131  12.529
98026W        W57122  18.787  25.706  14.793
98027W        W57123  32.448  26.657   2.755
98028W        W57124   9.889  33.423   1.900
98029W        W57125  23.062  25.506  11.572
98030W        W57126  13.190  44.944   1.357
98031W        W57127  29.054  11.358  13.467
98032W        W57128  28.030  12.846   1.275
98033W        W57129  35.918  38.043   1.220
98034W        W57130  40.829   9.717  12.345
98035W        W57131  38.971  38.042  12.375
98036W        W57132  19.175  37.872   2.784
98037W        W57133  43.827  17.774  10.485
98038W        W57134  14.121  34.495   1.288
98039W        W57135  43.404  44.387  10.520
98040W        W57136  21.729  36.963   3.820
98041W        W57137  40.951  41.473   2.834
98042W        W57138  24.673  18.198   3.207
98043W        W57139  44.354   7.742   9.994
98044W        W57140  36.590  14.818   0.441
98045W        W57141  34.097  14.786  10.588
98046W        W57142  38.913  32.560   2.321
98047W        W57143  18.189  17.586   1.763
98048W        W57144  14.178  41.947  12.958
98049W        W57145  15.717  11.792  12.070
98050W        W57146  23.134  12.154   3.863
98051W        W57147  30.145  29.443   0.309
98052W        W57148  25.042  29.118  10.589
98053W        W57149   5.730  12.296  11.857
98054W        W57150  19.759  33.125  11.082
98055W        W57151  44.830  13.286   0.797
98056W        W57152  10.362  10.707   2.213
98057W        W57153  27.680  14.669  10.584
98058W        W57154  20.140  44.856   4.810
98059W        W57155   4.277   3.747  13.813
98060W        W57156  31.595  10.332   3.663
98061W        W57157  39.536  43.906   1.238
98062W        W57158  12.261  12.637  14.847
98063W        W57159  17.587  44.907  11.905
98064W        W57160  23.131  20.185   1.862
98065W        W57161  40.446   1.843  14.977
98066W        W57162  36.983  27.604  11.576
98067W        W57163  16.201  33.123   1.450
98068W        W57164  16.155  38.002   2.825
98069W        W57165  13.748  25.529  14.286
98070W        W57166  35.939  12.728  13.362
98071W        W57167   6.682  20.244   3.305
98072W        W57168  24.529  38.358   5.316
98073W        W57169   4.349  24.686  12.449
98074W        W57170  34.530  16.243   0.405
98075W        W57171  29.633  32.527  10.417
98076W        W57172   3.451   1.891  12.461
98077W        W57173  37.078  29.984   1.291
98078W        W57174  18.280  38.564   3.225
98079W        W57175  24.482  15.612   3.176
98080W        W57176  10.703   7.315  11.606
98081W        W57177   9.279  22.214   4.646
98082W        W57178  40.419   4.379   1.794
98083W        W57179  21.578   6.803  11.421
98084W        W57180  22.249  15.211   0.756
98085W        W57181  34.926   3.409  12.553
98086W        W57182  20.663   0.379  11.049
98087W        W57183  34.017  10.274  12.915
98088W        W57184  32.611   5.262   4.721
98089W        W57185  15.166  41.423   1.389
98090W        W57186  40.505  41.373   3.356
98091W        W57187  12.178  41.977  12.954
98092W        W57188  19.637  10.862   2.234
98093W        W57189  41.832  26.520  12.878
98094W        W57190  12.727  34.380   4.737
98095W        W57191  21.086  33.457  11.081
98096W        W57192   4.846  13.624  13.821
98097W        W57193  15.216  37.366   3.306
98098W        W57194  22.747  21.066   2.378
98099W        W57195  25.475  11.752   1.430
98100W        W57196   0.424  36.575   2.290
98101W        W57197  27.186  10.183  10.427
98102W        W57198  27.974   4.274  10.494
98103W        W57199   4.812  20.592  13.484
98104W        W57200  30.021  35.055   9.983
98105W        W57201  37.063   6.685   3.178
98106W        W57202  18.596  14.196  13.892
98107W        W57203  32.992  36.956  11.123
98108W        W57204   2.808  32.534  14.768
98109W        W57205  25.178  41.866  10.607
98110W        W57206  24.161  24.011  12.516
98111W        W57207  10.790   5.873  13.541
98112W        W57208  26.668   8.671   0.822
98113W        W57209  28.054  29.956  10.592
98114W        W57210  23.142  16.651  14.966
98115W        W57211  41.450  14.635   2.355
98116W        W57212  24.713  36.917   2.771
98117W        W57213   0.372  29.577   2.393
98118W        W57214  17.691  11.279  12.495
98119W        W57215  41.399  36.504   3.178
98120W        W57216  43.295   6.211  12.425
98121W        W57217   7.725  13.158  11.964
98122W        W57218  33.875   6.192   1.373
98123W        W57219  30.940  39.343  12.489
98124W        W57220  34.992  28.506   2.849
98125W        W57221   6.280   5.785  14.341
98126W        W57222  39.821  22.682   2.236
98127W        W57223  33.486  39.320   0.366
98128W        W57224  29.964   4.242   3.731
98129W        W57225  43.998  32.083   2.664
98130W        W57226  24.177   1.275   3.725
98131W        W57227  19.043  26.989  13.986
98132W        W57228   5.394  38.457   2.348
98133W        W57229  32.977  18.736  11.888
98134W        W57230  25.702   2.351  14.401
98135W        W57231   8.382   4.934   3.765
98136W        W57232  32.910   8.858  11.075
98137W        W57233   4.322  44.269   0.457
98138W        W57234  27.535   1.776  12.972
98139W        W57235   3.357  25.473  11.387
98140W        W57236  15.219   1.781  14.499
98141W        W57237  37.423  13.725  14.429
98142W        W57238  29.481  26.637   3.808
98143W        W57239  11.706  39.341  13.899
98144W        W57240   5.794  13.190   3.788
98145W        W57241  11.687  11.323  14.905
98146W        W57242  37.550  43.447  10.478
98147W        W57243   0.354  13.744   4.236
98148W        W57244  17.797   7.330  14.913
98149W        W57245  34.588  35.947   4.627
98150W        W57246  26.599  42.282   1.844
98151W        W57247   8.752  21.116   3.859
98152W        W57248  14.802  37.516  12.861
98153W        W57249  14.172  24.579  11.488
98154W        W57250   8.803   5.778   9.949
98155W        W57251  20.551   3.867   4.760
98156W        W57252  42.349  43.873   1.447
98157W        W57253  28.935  24.517   0.941
98158W        W57254   5.390   1.933  12.877
98159W        W57255  19.702   1.351   2.396
98160W        W57256  13.296  36.389   0.855
98161W        W57257  18.184   8.783   2.275
98162W        W57258   4.874   5.260   0.468
98163W        W57259  29.583  30.930   3.758
98164W        W57260   0.966   7.371  11.928
98165W        W57261  15.629  41.470  13.375
98166W        W57262  25.058  29.585   3.380
98167W        W57263  33.602  18.264  14.846
98168W        W57264   8.270  22.711   0.353
98169W        W57265   4.845  43.471  10.609
98170W        W57266  28.023  10.343   0.824
98171W        W57267  36.510  30.639  10.479
98172W        W57268  43.884  41.979   2.730
98173W        W57269  38.410  30.431  11.859
98174W        W57270  17.800  36.900  13.805
98175W        W57271   0.970  11.642   5.146
98176W        W57272   4.706  25.176  14.970
98177W        W57273   8.821  35.058   3.192
98178W        W57274  34.602  23.221   1.700
98179W        W57275  24.169  31.061   0.351
98180W        W57276  18.699  12.156   3.314
98181W        W57277  24.621  15.617   2.866
98182W        W57278  39.457   4.338   3.708
98183W        W57279   0.445  40.457  10.424
98184W        W57280   9.208  41.343  14.764
98185W        W57281  21.035  19.153   0.886
98186W        W57282  34.890  40.365  10.902
98187W        W57283  44.845   0.487   1.267
98188W        W57284  35.589  41.386   4.324
98189W        W57285   5.700  26.009  12.561
98190W        W57286   3.221   7.726   1.250
98191W        W57287  16.154  42.323  14.906
98192W        W57288   4.354  38.016   4.794
98193W        W57289  26.608   8.664   4.123
98194W        W57290  20.749  30.463  12.438
98195W        W57291  15.084  26.951  12.415
98196W        W57292  40.535  25.578   0.432
98197W        W57293  38.535   6.679  11.963
98198W        W57294  35.431  24.515  11.985
98199W        W57295  18.601  19.552  10.986
98200W        W57296  18.700   0.283  13.323
98201W        W57297  11.715  20.225   3.149
98202W        W57298  25.966   8.777   1.856
98203W        W57299   2.795  30.025   1.772
98204W        W57300  24.531  24.202   3.644
98205W        W57301  24.690   6.412   3.251
98206W        W57302  15.704  42.504  12.523
98207W        W57303   5.343  41.855   0.444
98208W        W57304  30.570  27.466   2.703
98209W        W57305  10.659  43.286   1.227
98210W        W57306  28.568  31.092   3.352
98211W        W57307  10.161  11.698  14.388
98212W        W57308   0.775  20.739  14.387
98213W        W57309  41.366  30.422  10.915
98214W        W57310  33.916  44.837   3.777
98215W        W57311  18.166  10.877   4.614
98216W        W57312  11.710  37.436  10.045
98217W        W57313  15.579  10.342   2.817
98218W        W57314  16.770  10.349  14.904
98219W        W57315  27.015  30.487   4.607
98220W        W57316   6.396  43.420   1.730
98221W        W57317  20.683  39.386   1.817
98222W        W57318  23.498  20.253  12.064
98223W        W57319  26.644   6.831   2.800
98224W        W57320  37.086   2.920   3.221
98225W        W57321  33.585  31.512  14.301
98226W        W57322  30.049  15.237  14.918
98227W        W57323  13.196  38.549   1.750
98228W        W57324   8.329   4.700   2.791
98229W        W57325  25.142   0.912  11.575
98230W        W57326  32.600  29.533   1.695
98231W        W57327   0.862  13.828  12.524
98232W        W57328  10.658  37.061   2.180
98233W        W57329  10.261  36.058   4.348
98234W        W57330  24.713  42.468  13.019
98235W        W57331  44.927   5.785   1.842
98236W        W57332  20.249  16.227  11.478
98237W        W57333   4.761  26.621  10.428
98238W        W57334  18.175  38.828  13.991
98239W        W57335  35.483  44.754  13.531
98240W        W57336  37.973  40.456   1.412
98241W        W57337  34.998   3.838   3.770
98242W        W57338  16.102  36.089  11.067
98243W        W57339  12.134   4.231  13.828
98244W        W57340  24.513  24.129  12.502
98245W        W57341  42.336  31.945  10.903
98246W        W57342  13.282  29.947   4.154
98247W        W57343  20.182  25.974   4.223
98248W        W57344  36.899   2.959   2.724
98249W        W57345  17.161   3.790  14.488
98250W        W57346  11.689  35.533  14.860
98251W        W57347  12.765  10.639  11.503
98252W        W57348  19.557  39.449  11.103
98253W        W57349  44.304  10.651  10.533
98254W        W57350  32.994  25.981   3.733
98255W        W57351  17.639   0.269   2.196
98256W        W57352  42.512   4.253   4.302
98257W        W57353  19.151   9.159   0.844
98258W        W57354  15.625  24.580   2.275
98259W        W57355  23.117   1.382   0.824
98260W        W57356   1.417  41.806  11.038
98261W        W57357  12.179  33.549  14.976
98262W        W57358   0.860  41.947  14.379
98263W        W57359  27.962  22.128   2.182
98264W        W57360   0.832   0.473  11.592
98265W        W57361   7.844  16.773   3.803
98266W        W57362  13.261   2.417   1.351
98267W        W57363  18.650  25.073   0.872
98268W        W57364  16.290  25.082  10.891
98269W        W57365  42.288  14.642   1.734
98270W        W57366   0.369  24.711   1.738
98271W        W57367   5.314  21.057   3.302
98272W        W57368   9.324  35.882   2.414
98273W        W57369  36.575  40.308  14.924
98274W        W57370   7.675  21.099  11.457
98275W        W57371   5.837  12.818  11.585
98276W        W57372  39.941   7.868  10.621
98277W        W57373  14.812  41.492   5.082
98278W        W57374  15.611  38.947  12.380
98279W        W57375  28.152  28.647   0.415
98280W        W57376  40.970  42.803  12.346
98281W        W57377  13.208  42.926  10.463
98282W        W57378   9.750  32.134  11.431
98283W        W57379  43.310  32.444  10.993
98284W        W57380   0.271  27.976  11.987
98285W        W57381  13.674   9.822   4.322
98286W        W57382  12.225  21.596   2.349
98287W        W57383  42.798  33.428   2.238
98288W        W57384  30.478  35.965   2.244
98289W        W57385  27.535  29.508  14.003
98290W        W57386  26.584   6.754   1.797
98291W        W57387  38.356  15.780  11.012
98292W        W57388   0.820   1.735   0.260
98293W        W57389   8.705   7.729  11.959
98294W        W57390  12.721   9.317   0.904
98295W        W57391  32.547  28.530   3.186
98296W        W57392  40.974   7.368  10.488
98297W        W57393  40.834  12.332   2.416
98298W        W57394  39.394  19.218  11.041
98299W        W57395   0.805  44.340   1.257
98300W        W57396  22.087  34.077  14.505
98301W        W57397  17.591  10.720   1.293
98302W        W57398  32.027  36.067  13.932
98303W        W57399  27.002  40.032   1.354
98304W        W57400  15.159  33.621  10.483
98305W        W57401   6.281  34.077  11.426
98306W        W57402  10.298  42.787   0.265
98307W        W57403  15.626  37.034  13.003
98308W        W57404   7.313  12.172   2.201
98309W        W57405  34.981  38.538   4.598
98310W        W57406  36.967  35.870   2.764
98311W        W57407  11.682  25.020  12.519
98312W        W57408   2.259  33.935   2.234
98313W        W57409  38.439  15.180   1.379
98314W        W57410  19.621  40.806   1.766
98315W        W57411  15.306  33.444  12.519
98316W        W57412  38.976  33.527   2.850
98317W        W57413  17.143  35.450  12.012
98318W        W57414  31.642  38.481  11.923
98319W        W57415  42.361  25.979   0.329
98320W        W57416  33.458  21.204  12.569
98321W        W57417   2.869  28.612   0.317
98322W        W57418  27.191  37.368  13.321
98323W        W57419  19.059  27.636  11.567
98324W        W57420   0.772  37.843  12.950
98325W        W57421  30.009  29.588   3.690
98326W        W57422   1.385  41.436  11.923
98327W        W57423  15.110   9.847   3.322
98328W        W57424  24.098   2.962   3.686
98329W        W57425  26.620   6.725  12.571
98330W        W57426  23.508  28.616  13.492
98331W        W57427   6.277   9.344   3.345
98332W        W57428   5.838  17.258  10.594
98333W        W57429   7.269   6.327  14.422
98334W        W57430  36.979  27.625  11.990
98335W        W57431  15.312  22.545   4.272
98336W        W57432  29.003  35.511  12.532
98337W        W57433   2.323   7.316   3.760
98338W        W57434   0.375  21.202  12.942
98339W        W57435  44.378   0.893   0.380
98340W        W57436  38.970  27.574   0.754
98341W        W57437  28.446  25.646  13.377
98342W        W57438   9.695   3.315  11.008
98343W        W57439  31.144  32.517  14.773
98344W        W57440   6.286  11.255   4.302
98345W        W57441  42.523  12.224   1.361
98346W        W57442  24.192  12.708  12.441
98347W        W57443  33.961  13.776   3.731
98348W        W57444  16.230  28.673  12.961
98349W        W57445  20.166  25.523  10.421
98350W        W57446   4.800  20.752   2.692
98351W        W57447  41.826  44.937  10.488
98352W        W57448  30.550  16.134   1.294
98353W        W57449   5.732  18.769   4.136
98354W        W57450   2.931  19.087  10.642
98355W        W57451  33.528   8.737  10.422
98356W        W57452  31.935  30.464   9.938
98357W        W57453  33.598  35.071  13.048
98358W        W57454   1.320   2.426   3.369
98359W        W57455  19.541  28.955  11.442
98360W        W57456  18.599  41.448  12.573
98361W        W57457  30.467  44.466  12.022
98362W        W57458   6.373  17.633   4.324
98363W        W57459  38.500   3.398  12.824
98364W        W57460  41.878  14.743  12.982
98365W        W57461   5.703  35.068  13.360
98366W        W57462  37.580  28.576   4.193
98367W        W57463  37.388  12.659   3.163
98368W        W57464  37.940   8.892  13.861
98369W        W57465  28.174  31.138  11.487
98370W        W57466  44.957  14.269  12.511
98371W        W57467  28.965  20.623  12.415
98372W        W57468   2.942  44.828   2.670
98373W        W57469  44.415  12.162  12.847
98374W        W57470  42.907  38.346  13.051
98375W        W57471  30.950  11.699   4.310
98376W        W57472  14.593  13.171   1.695
98377W        W57473   2.919  28.121   9.985
98378W        W57474   5.250  11.247   2.716
98379W        W57475  31.471   9.386  11.887
98380W        W57476   5.916  26.022   2.192
98381W        W57477  42.789   2.263   4.206
98382W        W57478  24.157  41.825   3.164
98383W        W57479  37.076   8.173   5.757
98384W        W57480  28.107  17.591  11.857
98385W        W57481  36.438  32.484  11.524
98386W        W57482  27.981  42.961   0.445
98387W        W57483  10.748  24.541  12.021
98388W        W57484  39.923  35.435   0.363
98389W        W57485  38.886  20.649  14.315
98390W        W57486  35.454  23.641   1.709
98391W        W57487  42.301  17.199   2.348
98392W        W57488  17.684   9.338  13.959
98393W        W57489  23.030  39.380   0.948
98394W        W57490  30.538  20.677   2.284
98395W        W57491   4.801  28.992  10.942
98396W        W57492  26.070  12.140   3.244
98397W        W57493  39.030  26.136   0.931
98398W        W57494  33.463  44.320   0.743
98399W        W57495  17.280  20.632   4.257
98400W        W57496   6.425   4.714  10.971
98401W        W57497  33.447  18.658   0.878
98402W        W57498  20.063  13.119   3.238
98403W        W57499  27.472   7.182  13.371
98404W        W57500  44.753  39.449   1.357
98405W        W57501  27.586  10.659   3.279
98406W        W57502  16.245  22.528  12.403
98407W        W57503  37.035   7.336   4.152
98408W        W57504  16.695  28.487   1.271
98409W        W57505   1.253  15.119   4.279
98410W        W57506  39.332  15.316   1.926
98411W        W57507  20.230  43.304   4.610
98412W        W57508  43.423  31.536  12.080
98413W        W57509  15.268  40.853   3.173
98414W        W57510  43.779  19.585   1.352
98415W        W57511  17.135  15.783  14.759
98416W        W57512  15.236  13.793  13.396
98417W        W57513   5.847  22.037   3.313
98418W        W57514   6.395  26.577  13.482
98419W        W57515  17.109   8.323  11.432
98420W        W57516   8.292  17.759   2.222
98421W        W57517  14.729   4.229  11.873
98422W        W57518  20.569  38.441  11.126
98423W        W57519  36.090  38.842  11.105
98424W        W57520  30.966   9.732  12.847
98425W        W57521  26.627  10.366  14.852
98426W        W57522  40.380  27.629   2.884
98427W        W57523  43.799  13.837   1.364
98428W        W57524  27.587  42.020   3.195
98429W        W57525  24.588  32.975   3.209
98430W        W57526  10.791  40.836  10.510
98431W        W57527  11.796   3.352   2.722
98432W        W57528  39.991  23.036   4.795
98433W        W57529   6.864  12.288   4.689
98434W        W57530   4.246   5.798  10.595
98435W        W57531  11.335  44.307   4.331
98436W        W57532  34.424  39.935   3.280
98437W        W57533   0.938  12.774   1.303
98438W        W57534  37.932  44.476   0.391
98439W        W57535  33.534  35.473   3.796
98440W        W57536   1.793  34.872   1.764
98441W        W57537  14.189  27.095  12.032
98442W        W57538  38.979  32.055   0.815
98443W        W57539  11.217   4.808  10.596
98444W        W57540   4.817   6.281  14.934
98445W        W57541  25.554  19.670   4.309
98446W        W57542  11.861  29.534  11.992
98447W        W57543  31.601  44.815   1.931
98448W        W57544  35.985   6.723   1.734
98449W        W57545  22.503  25.964  12.956
98450W        W57546  33.605  32.055  13.914
98451W        W57547  40.479  13.351   5.260
98452W        W57548  26.560  34.390   0.961
98453W        W57549  21.659   9.788  13.944
98454W        W57550  37.391   6.792  14.864
98455W        W57551  40.310  10.662  12.030
98456W        W57552  24.059  44.771  10.480
98457W        W57553   8.218  15.798  10.562
98458W        W57554   9.311  31.406  11.915
98459W        W57555   6.901  41.329  10.940
98460W        W57556  27.689  36.509  12.495
98461W        W57557  34.893  34.992  12.937
98462W        W57558   3.722  21.208   2.359
98463W        W57559  34.103  31.447  13.347
98464W        W57560  41.839  10.678   0.960
98465W        W57561  32.042  13.155  12.863
98466W        W57562  28.435  14.127   1.353
98467W        W57563   7.806   8.760  13.823
98468W        W57564  42.794  37.517  14.972
98469W        W57565  37.580  24.034   0.843
98470W        W57566  38.930  22.171   4.754
98471W        W57567  32.004   3.846  10.593
98472W        W57568  36.462  24.596   4.177
98473W        W57569  37.453   1.929   0.909
98474W        W57570  24.202  44.453  14.509
98475W        W57571   9.373   1.370  12.503
98476W        W57572  16.630  29.503  14.451
98477W        W57573  44.807  13.207   3.705
98478W        W57574   6.427  27.008  13.461
98479W        W57575  36.409  40.337  14.472
98480W        W57576  22.709  28.105   4.293
98481W        W57577  21.097  33.403   3.732
98482W        W57578  11.294  40.961  10.559
98483W        W57579  12.158  35.378   4.750
98484W        W57580   1.770  24.160   4.691
98485W        W57581  44.866  15.103   3.819
98486W        W57582  40.523  18.198  10.896
98487W        W57583   0.358  28.113  12.567
98488W        W57584  23.621   1.811  14.832
98489W        W57585  39.816  18.105  10.473
98490W        W57586  20.642   1.277  14.333
98491W        W57587  38.520  19.135   1.255
98492W        W57588   1.394  17.741   3.654
98493W        W57589   5.926  24.560   0.752
98494W        W57590  14.638  30.512  13.369
98495W        W57591   8.700  40.882   0.417
98496W        W57592  25.514   4.205  13.926
98497W        W57593  30.641  31.431  13.448
98498W        W57594  20.574  11.788   3.366
98499W        W57595  10.343   6.370  12.865
98500W        W57596  16.776  15.638  13.352
98501W        W57597  41.936   1.978   4.320
98502W        W57598  16.099  33.407  12.078
98503W        W57599  34.023   1.927   3.200
98504W        W57600  21.619  29.021   5.130
98505W        W57601  41.972  34.531   1.269
98506W        W57602  31.464  35.940   3.187
98507W        W57603  20.036  35.543  13.544
98508W        W57604  13.636  14.219  10.498
98509W        W57605  21.062  10.150  12.402
98510W        W57606  27.971  42.021  14.417
98511W        W57607  35.445   4.854  13.379
98512W        W57608  10.204  40.482   5.164
98513W        W57609  24.147  17.718   3.339
98514W        W57610  34.962   3.887   4.155
98515W        W57611  41.532  17.692   4.335
98516W        W57612  17.721   0.354   2.687
98517W        W57613  33.025  41.372   3.710
98518W        W57614  24.066   4.421   3.349
98519W        W57615  17.587  27.595   0.914
98520W        W57616  20.608  40.549  14.823
98521W        W57617  30.923   5.839  14.366
98522W        W57618  11.703   9.311  12.024
98523W        W57619   9.708   7.208  14.383
98524W        W57620  23.640   7.766   2.188
98525W        W57621  42.972  15.160   1.394
98526W        W57622  39.436   6.353  12.478
98527W        W57623  11.711  10.342  13.446
98528W        W57624  41.516   9.702   4.183
98529W        W57625  21.036  12.651   1.375
98530W        W57626  23.130  15.327  11.095
98531W        W57627  16.745  20.540   4.633
98532W        W57628  22.149  38.432   0.915
98533W        W57629  38.876  16.681   3.649
98534W        W57630  37.949  10.342   4.212
98535W        W57631  25.614  31.152   3.735
98536W        W57632  29.963  36.967   3.323
98537W        W57633  20.079  43.310   0.274
98538W        W57634  19.561  31.611  10.568
98539W        W57635  14.192  39.352   3.377
98540W        W57636  30.951  10.852  11.544
98541W        W57637   3.804  28.015  14.869
98542W        W57638  26.484  38.048   0.910
98543W        W57639  15.810   4.407  14.328
98544W        W57640  43.016  19.153   4.219
98545W        W57641  30.953  44.859   1.836
98546W        W57642  43.768  14.301  12.499
98547W        W57643  37.905  30.591   1.241
98548W        W57644  23.608  10.250   2.725
98549W        W57645   0.285  27.160   0.310
98550W        W57646  14.741  29.119  11.499
98551W        W57647   4.396  37.948  14.474
98552W        W57648  36.403  21.077   4.616
98553W        W57649   9.375  18.737   0.290
98554W        W57650  43.371  18.149   4.741
98555W        W57651  37.885  41.954   2.800
98556W        W57652   5.759  18.232  12.980
98557W        W57653  42.994  39.917   1.741
98558W        W57654  39.501  19.772  13.509
98559W        W57655  12.321  25.008  10.478
98560W        W57656   9.788  14.169   2.862
98561W        W57657  19.070   2.725   3.217
98562W        W57658   6.262   4.772   3.702
98563W        W57659  41.364   5.841   3.185
98564W        W57660   9.204   9.300  10.438
98565W        W57661  40.443  28.045   2.806
98566W        W57662   9.187  36.860  13.968
98567W        W57663  15.696  26.522  12.002
98568W        W57664  38.949  11.739  14.794
98569W        W57665   7.765  39.366   3.658
98570W        W57666  18.203  34.494   1.906
98571W        W57667   9.286  19.646  14.307
98572W        W57668  41.949  27.037   4.233
98573W        W57669  37.009  13.299  12.379
98574W        W57670  15.789   0.950  13.377
98575W        W57671   5.823  33.525  14.969
98576W        W57672   6.766   2.755   1.337
98577W        W57673  20.625   2.766  10.532
98578W        W57674  11.790  14.638  12.833
98579W        W57675  34.519  31.930   9.973
98580W        W57676  14.289   4.401  13.393
98581W        W57677  38.043  21.623   0.328
98582W        W57678   7.183   3.924  12.563
98583W        W57679  24.003   0.929  11.612
98584W        W57680  10.328  21.685  12.527
98585W        W57681  25.056  44.445  10.544
98586W        W57682  27.139   7.687  12.018
98587W        W57683  39.884  11.730   0.327
98588W        W57684   3.369   6.215   2.832
98589W        W57685  27.574   5.877   2.412
98590W        W57686  42.870  35.039  11.078
98591W        W57687  21.721  11.665  13.812
98592W        W57688  16.780  13.267  13.467
98593W        W57689  15.629  28.591   1.935
98594W        W57690  43.902   1.263   0.248
98595W        W57691  17.302  13.653   1.227
98596W        W57692  41.521  43.766   1.331
98597W        W57693  32.967  24.128   2.243
98598W        W57694   5.715  38.924   2.692
98599W        W57695  27.129  36.989   5.300
98600W        W57696  42.026  39.944  10.453
98601W        W57697  40.052  34.388   0.275
98602W        W57698  32.494   2.455   3.297
98603W        W57699  24.035  40.908   4.181
98604W        W57700   2.754  28.024  12.908
98605W        W57701  21.635  19.179   4.668
98606W        W57702  34.454  31.539   4.351
98607W        W57703  13.719  11.752   2.418
98608W        W57704  18.666  40.861   3.246
98609W        W57705  44.939  23.037  11.398
98610W        W57706  14.787  29.018   0.298
98611W        W57707   6.781   9.156   0.893
98612W        W57708   2.833  17.182   4.682
98613W        W57709  11.351  27.624  11.546
98614W        W57710   7.869  13.224  14.903
98615W        W57711  43.837  18.071  11.566
98616W        W57712  44.314  28.114  10.567
98617W        W57713   0.362  23.167   1.414
98618W        W57714  28.506  42.331  12.461
98619W        W57715  37.922  37.843  12.004
98620W        W57716  18.576  22.634  14.461
98621W        W57717  35.898  11.645  12.472
98622W        W57718   4.365   1.788   0.364
98623W        W57719  39.441  35.876   1.256
98624W        W57720   0.975   0.825  10.039
98625W        W57721  44.394  16.072  14.978
98626W        W57722   7.297   6.782  12.498
98627W        W57723  13.639  14.613   1.929
98628W        W57724  38.507  16.260   0.460
98629W        W57725  13.146  35.890   4.680
98630W        W57726   5.301  42.854  13.031
98631W        W57727  16.305  29.018  13.023
98632W        W57728  23.199  31.081  13.313
98633W        W57729  41.943   2.868   4.822
98634W        W57730  40.496  28.019  13.334
98635W        W57731   3.927  20.745  13.473
98636W        W57732  17.158  21.237   5.250
98637W        W57733  12.774   9.182   4.166
98638W        W57734  31.984  26.084  11.098
98639W        W57735  24.209  10.372   9.618
98640W        W57736  44.465  12.804  14.277
98641W        W57737  21.072   4.736   3.797
98642W        W57738   8.839  34.495   3.679
98643W        W57739  25.142  22.027   0.402
98644W        W57740  44.923  29.550  10.964
98645W        W57741  39.509  34.874   3.270
98646W        W57742  15.137  35.407   0.460
98647W        W57743  18.698  14.640  11.103
98648W        W57744  39.906  15.211   2.396
98649W        W57745  42.443  18.569  12.092
98650W        W57746  44.394  19.265   3.246
98651W        W57747  23.118   1.766  10.457
98652W        W57748   4.407  19.108  12.074
98653W        W57749  25.078  29.098   0.375
98654W        W57750  19.255  33.904  14.435
98655W        W57751  23.165  17.114  11.420
98656W        W57752  14.774   2.865  10.634
98657W        W57753  35.587  27.674   2.797
98658W        W57754  17.687  23.710  13.994
98659W        W57755  27.669  24.204   2.333
98660W        W57756  27.634   3.757  12.070
98661W        W57757  39.056   9.845   2.303
98662W        W57758   5.302  12.718  14.887
98663W        W57759   8.299  26.035  14.478
98664W        W57760   1.286   5.416  13.892
98665W        W57761  44.829   2.317  10.618
98666W        W57762  21.656   8.262  13.835
98667W        W57763  42.905  25.993   1.385
98668W        W57764  21.617   5.336  12.936
98669W        W57765  26.682   4.786   2.843
98670W        W57766   8.664   6.375   0.346
98671W        W57767  33.119  25.477   0.834
98672W        W57768  18.155  31.123   0.967
98673W        W57769  38.506  35.104   4.351
98674W        W57770  15.735   8.710  11.489
98675W        W57771   2.784  28.949   3.871
98676W        W57772   9.720  28.981  14.760
98677W        W57773  21.257   8.749  12.956
98678W        W57774  43.271   1.466   3.337
98679W        W57775   8.851  22.191   1.239
98680W        W57776  19.092   1.959  14.375
98681W        W57777  26.619  38.380  10.124
98682W        W57778  11.275  32.063   1.340
98683W        W57779  16.616  28.134   0.367
98684W        W57780  16.264  24.525   0.726
98685W        W57781  34.982  29.037  13.815
98686W        W57782  12.196  28.112   1.380
98687W        W57783  22.714  19.216  14.845
98688W        W57784  23.073  15.094   3.680
98689W        W57785   7.296  30.600   0.428
98690W        W57786  31.498  37.444   1.412
98691W        W57787   7.196  43.343   2.268
98692W        W57788  31.992  26.048  12.906
98693W        W57789  33.476  35.478  10.448
98694W        W57790  32.427  12.312  12.547
98695W        W57791   7.813   7.374   3.659
98696W        W57792  32.078  43.343  11.383
98697W        W57793  16.246  14.817   3.371
98698W        W57794  33.040  15.248   3.794
98699W        W57795  18.064  17.755   3.704
98700W        W57796  33.526   6.348  11.031
98701W        W57797  13.801   9.709  13.374
98702W        W57798  36.537  43.941   0.800
98703W        W57799   0.252  41.376  11.475
98704W        W57800   7.795  44.977  12.578
98705W        W57801  19.714   1.292   3.254
98706W        W57802  41.857  42.790  13.856
98707W        W57803   3.887  42.932   3.810
98708W        W57804  22.187  27.027  13.937
98709W        W57805  16.720   5.384   2.393
98710W        W57806  16.813  39.934  14.955
98711W        W57807  31.043   1.269  13.909
98712W        W57808  19.559   5.415  13.499
98713W        W57809  42.926  28.447  11.508
98714W        W57810  13.824  19.744   3.785
98715W        W57811  41.002  20.766   1.862
98716W        W57812  26.468   5.420  11.059
98717W        W57813  10.283  11.827  12.081
98718W        W57814  23.599  12.163  13.940
98719W        W57815  21.196  35.471  14.959
98720W        W57816  14.797  19.284   0.911
98721W        W57817  34.430  36.985   3.746
98722W        W57818  37.418  12.624  10.980
98723W        W57819  22.106  34.109   0.930
98724W        W57820  38.481   8.790  11.973
98725W        W57821  10.242   3.737  14.480
98726W        W57822   4.352  22.533   2.316
98727W        W57823  12.354   3.828  10.424
98728W        W57824  26.620  26.164  10.472
98729W        W57825   6.201   5.209  12.433
98730W        W57826  11.858  38.538   3.235
98731W        W57827  23.672  33.032  14.890
98732W        W57828  44.005  41.829  13.905
98733W        W57829  30.130  42.316   2.234
98734W        W57830   1.442  13.139   0.373
98735W        W57831  38.991   0.833  11.592
98736W        W57832  17.127   1.483   1.907
98737W        W57833  17.275   2.358  14.858
98738W        W57834  38.415  13.625  12.489
98739W        W57835   1.888   4.405  10.917
98740W        W57836  10.787  32.994   2.696
98741W        W57837   0.919  37.026   2.844
98742W        W57838   0.938  34.571  10.526
98743W        W57839  18.229  13.351   4.624
98744W        W57840  27.065  12.766  12.359
98745W        W57841  32.076  38.527   3.221
98746W        W57842  13.742  32.564  12.374
98747W        W57843  31.618  13.678  11.072
98748W        W57844  27.988  29.508  13.406
98749W        W57845  37.345  38.921   4.623
98750W        W57846  41.519  11.652   3.202
98751W        W57847  25.022   3.934   0.375
98752W        W57848  12.341  34.950  10.959
98753W        W57849  18.232  30.542  12.453
98754W        W57850  23.013   0.847  14.861
98755W        W57851  42.928  24.587   0.820
98756W        W57852  30.555  38.517  11.468
98757W        W57853  11.138  19.182  13.798
98758W        W57854  20.130  18.744   1.834
98759W        W57855  24.520  31.009   0.474
98760W        W57856  30.429   9.178   1.358
98761W        W57857   4.330  13.285   3.853
98762W        W57858  33.485  22.621   1.334
98763W        W57859   3.870  40.958   3.166
98764W        W57860  14.656   7.712   1.720
98765W        W57861  25.472  17.078   0.744
98766W        W57862   4.379   0.417   2.329
98767W        W57863   6.264  42.518  13.046
98768W        W57864  16.221  35.958   4.288
98769W        W57865  12.346  24.524   1.867
98770W        W57866   6.318   4.718   2.291
98771W        W57867   9.214  16.158   5.313
98772W        W57868  18.067  44.870  10.558
98773W        W57869  28.011  19.544  14.808
98774W        W57870  10.645   9.305   0.403
98775W        W57871  39.497  21.629   4.353
98776W        W57872  35.583  14.313  13.348
98777W        W57873  30.500  15.160  14.395
98778W        W57874  30.433  18.777   1.824
98779W        W57875  15.658   0.894   3.774
98780W        W57876  16.187  14.741   1.855
98781W        W57877  33.017  17.705  10.424
98782W        W57878   8.301   4.270   2.243
98783W        W57879  32.900   2.343  12.379
98784W        W57880   7.236   5.761   4.252
98785W        W57881  40.019  15.190  11.448
98786W        W57882  16.105  36.033  13.320
98787W        W57883  17.298  22.579   2.773
98788W        W57884  16.185  31.562   0.733
98789W        W57885   2.383  21.545   1.426
98790W        W57886  25.532   0.944  13.325
98791W        W57887  26.544  21.526  13.399
98792W        W57888  40.834  25.134  10.487
98793W        W57889  32.406  31.553  10.498
98794W        W57890  14.185  41.494   3.780
98795W        W57891  27.536  30.652  11.374
98796W        W57892   3.389  16.803  10.627
98797W        W57893  37.948  11.630  13.395
98798W        W57894  14.274  40.449   2.284
98799W        W57895  16.568  33.875   5.687
98800W        W57896  24.065   7.875   4.278
98801W        W57897   4.811  36.351   2.747
98802W        W57898   1.893   2.449  13.384
98803W        W57899  14.228  16.746   2.313
98804W        W57900  29.604  35.453  13.898
98805W        W57901  11.868  26.191  12.459
98806W        W57902  28.639  42.426  11.437
98807W        W57903   0.866  40.897  13.939
98808W        W57904  42.838  30.557  12.012
98809W        W57905  31.047  14.339  13.354
98810W        W57906  43.324   8.752  14.362
98811W        W57907  15.155  22.104  11.455
98812W        W57908  22.641  11.808  14.481
98813W        W57909  32.050  39.436  12.398
98814W        W57910  17.140  35.859  14.495
98815W        W57911  37.486  23.126   1.871
98816W        W57912  21.571   7.699   4.805
98817W        W57913   9.340  24.577  10.581
98818W        W57914  10.725  28.520   2.239
98819W        W57915  37.877  36.945   2.247
98820W        W57916  44.350   3.748  12.999
98821W        W57917  40.392  43.893  13.362
98822W        W57918  29.110  36.559   4.277
98823W        W57919  24.111  22.627  11.607
98824W        W57920   3.871  10.295  12.855
98825W        W57921   8.276  24.197   3.699
98826W        W57922  35.453  36.856  13.434
98827W        W57923   1.778  23.162   0.265
98828W        W57924   8.690   8.776   0.249
98829W        W57925  31.478   2.342  13.903
98830W        W57926  43.511   0.378  14.777
98831W        W57927   2.240  36.532   2.184
98832W        W57928  40.457  35.885   2.407
98833W        W57929  22.724   2.782   1.222
98834W        W57930  32.065  35.011   3.350
98835W        W57931  39.405  33.432   1.439
98836W        W57932  22.529  17.253   1.726
98837W        W57933  24.572  17.721   9.528
98838W        W57934  19.667  33.498  13.982
98839W        W57935  41.979   2.958  12.553
98840W        W57936  35.597  27.956   5.227
98841W        W57937  28.937  10.683  14.452
98842W        W57938  25.511  15.146  13.390
98843W        W57939  14.715   4.310  14.864
98844W        W57940  33.521  15.286  13.412
98845W        W57941  31.057  27.039  12.536
98846W        W57942  18.224  45.000  13.320
98847W        W57943  39.410  44.377   3.825
98848W        W57944  24.080  19.241   0.476
98849W        W57945   1.895  34.098   2.716
98850W        W57946  32.611  21.693  10.454
98851W        W57947  22.692  16.300  10.933
98852W        W57948  32.070  36.589   0.913
98853W        W57949  13.708  12.657  14.374
98854W        W57950   3.318  18.209   4.645
98855W        W57951  40.019  17.128  13.449
98856W        W57952  19.735  16.262   1.773
98857W        W57953  20.145  12.721   2.378
98858W        W57954  44.356  17.558  11.122
98859W        W57955  40.817  36.580  13.935
98860W        W57956  32.011   5.758  10.089
98861W        W57957  32.033  37.355   3.837
98862W        W57958  12.849  30.608   0.835
98863W        W57959  14.334  13.633   2.833
98864W        W57960  38.432  11.736   2.340
98865W        W57961  41.899  26.556   5.321
98866W        W57962  16.642   6.784  14.988
98867W        W57963  14.797   8.338   3.257
98868W        W57964  42.452  15.799  14.997
98869W        W57965   0.882  41.809   0.455
98870W        W57966  28.095  24.230   1.418
98871W        W57967  41.968  14.123   9.975
98872W        W57968  31.948  32.960  12.483
98873W        W57969  42.949  24.667   2.419
98874W        W57970  28.499  22.511  12.371
98875W        W57971  12.762  42.017  10.954
98876W        W57972   4.917  18.053  10.602
98877W        W57973   8.170  38.981   0.754
98878W        W57974  29.171  34.903  13.417
98879W        W57975  38.015  21.677  10.547
98880W        W57976  31.145  35.931  10.101
98881W        W57977  13.300  17.557  14.875
98882W        W57978  35.414   5.921   3.642
98883W        W57979  21.693  39.007  10.146
98884W        W57980  14.719   2.958  14.381
98885W        W57981   8.169   3.854   4.152
98886W        W57982  12.626  11.827   4.215
98887W        W57983  24.159  31.898  11.504
98888W        W57984  18.276   0.420  13.355
98889W        W57985   6.232  22.741   4.162
98890W        W57986  44.346  11.637  12.944
98891W        W57987  42.019   5.256   2.718
98892W        W57988  18.180  42.416  10.948
98893W        W57989  41.299   0.354   0.958
98894W        W57990  31.580  12.828  14.027
98895W        W57991  30.993  13.208   0.918
98896W        W57992  35.560  12.169  11.062
98897W        W57993  29.612  15.110   4.764
98898W        W57994   0.476   5.864  12.962
98899W        W57995  23.508  25.202  11.932
98900W        W57996  21.656  13.844  13.033
98901W        W57997  35.368  21.224  10.029
98902W        W57998  42.442   9.852  14.007
98903W        W57999  38.827  14.168   3.746
98904W        W58000  11.692  17.292  12.549
98905W        W58001   2.789   4.449  13.890
98906W        W58002  16.672  38.932   4.341
98907W        W58003  41.840  31.025   2.810
98908W        W58004  40.380  10.872   1.846
98909W        W58005  25.134  42.480   0.961
98910W        W58006  23.201  36.481   2.890
98911W        W58007  26.458   7.280  12.011
98912W        W58008   1.463  20.746   4.616
98913W        W58009  20.594  36.410  10.421
98914W        W58010  40.886   1.901  12.024
98915W        W58011  20.072  29.143   0.914
98916W        W58012   2.431  30.015   4.192
98917W        W58013   5.329  20.687   1.750
98918W        W58014  31.054  23.675  12.865
98919W        W58015  27.152   8.767   3.164
98920W        W58016  20.068  28.577  13.498
98921W        W58017  16.621  38.519   0.323
98922W        W58018  23.071  27.616  10.445
98923W        W58019  33.461  25.506   2.297
98924W        W58020   8.246  43.945  11.913
98925W        W58021  22.161  33.587   3.630
98926W        W58022  32.084  23.091  11.875
98927W        W58023  17.742   6.758   2.886
98928W        W58024   6.194  34.574  12.574
98929W        W58025   3.944  31.599   4.199
98930W        W58026  38.846  29.163   0.962
98931W        W58027  27.155  39.875  12.418
98932W        W58028  33.418  27.501   4.142
98933W        W58029  36.458   1.793   2.877
98934W        W58030  20.148  12.677  13.957
98935W        W58031   4.774  26.094  13.453
98936W        W58032  32.082  32.422   0.417
98937W        W58033  31.029   6.842  14.901
98938W        W58034  43.953  42.964   3.185
98939W        W58035  37.471   9.858   0.465
98940W        W58036   2.347   7.259   0.959
98941W        W58037  35.521  11.679   0.375
98942W        W58038  26.013  38.425   0.965
98943W        W58039  28.615   4.440   4.692
98944W        W58040  36.905  43.275   0.892
98945W        W58041   8.375  24.587  11.020
98946W        W58042  37.352  23.039  14.841
98947W        W58043   6.722  28.476   0.914
98948W        W58044   9.668  10.694   0.736
98949W        W58045  12.637  21.026   3.279
98950W        W58046  31.441  10.851  11.513
98951W        W58047   0.364  29.625   3.172
98952W        W58048  20.700  11.208  14.760
98953W        W58049   7.731  24.127   5.303
98954W        W58050  23.492   0.366  10.419
98955W        W58051  19.655  25.582  11.988
98956W        W58052  15.252  33.914   4.757
98957W        W58053  42.940  25.514  13.505
98958W        W58054  44.288  12.144   0.303
98959W        W58055  29.554  16.293   1.915
98960W        W58056  19.621   7.269   4.126
98961W        W58057  24.518  18.679   4.132
98962W        W58058   8.311  24.173  12.388
98963W        W58059  19.598  39.937   0.366
98964W        W58060  12.327  12.248   2.301
98965W        W58061  38.998   2.235  10.471
98966W        W58062   0.477  25.678   0.457
98967W        W58063   3.271  35.510   3.240
98968W        W58064   3.230  16.227  13.855
98969W        W58065  41.379  29.165  14.864
98970W        W58066  36.409  15.246   2.845
98971W        W58067   9.846  40.934   0.788
98972W        W58068  39.359  17.746   1.886
98973W        W58069  19.165  24.219  11.586
98974W        W58070  23.701  25.068   2.885
98975W        W58071  30.068  23.241   2.252
98976W        W58072  11.200   0.338  12.532
98977W        W58073  15.180   8.214   1.726
98978W        W58074   2.401   1.361  10.584
98979W        W58075  22.127  42.395  14.290
98980W        W58076  38.562  15.694  12.932
98981W        W58077   4.835   8.220  12.978
98982W        W58078  27.628  28.485  14.369
98983W        W58079  25.621   8.807  14.907
98984W        W58080   8.297   6.678  14.880
98985W        W58081   1.743   6.687  14.935
98986W        W58082  22.692  12.856  13.400
98987W        W58083  19.556   3.818   0.941
98988W        W58084   5.253   9.775  13.510
98989W        W58085  38.936  14.259   2.818
98990W        W58086  37.516  43.818   2.290
98991W        W58087  24.053  18.781  13.849
98992W        W58088  25.217   8.726  13.907
98993W        W58089   6.228  11.302  11.957
98994W        W58090  26.034   9.225   0.766
98995W        W58091  30.941  34.923  11.915
98996W        W58092  42.975  39.052  10.594
98997W        W58093  41.810   5.426   1.332
98998W        W58094   6.391   8.355  10.519
98999W        W58095   3.809  40.837   2.787
99000W        W58096  10.837  29.435  13.317
99001W        W58097  22.184  43.488   0.904
99002W        W58098  25.093  11.264   0.276
99003W        W58099  15.291  21.086  11.554
99004W        W58100   4.829  38.422   3.311
99005W        W58101  31.127  28.602  13.043
99006W        W58102  13.821  20.192   1.880
99007W        W58103  43.456  44.467   2.333
99008W        W58104  13.632  44.757  11.942
99009W        W58105  33.613  38.985   0.457
99010W        W58106  30.105  30.537   3.792
99011W        W58107  33.508  37.990   1.830
99012W        W58108  44.496  25.697  13.950
99013W        W58109   5.357  42.881  11.409
99014W        W58110  15.686   4.421  13.835
99015W        W58111  21.045  20.104   4.745
99016W        W58112  23.691  11.655  10.447
99017W        W58113  39.823  36.430   0.442
99018W        W58114  43.355  16.297  12.061
99019W        W58115  10.778  25.065   3.832
99020W        W58116  24.103   8.850   1.724
99021W        W58117  39.975  38.871   1.889
99022W        W58118  11.184  15.256  12.068
99023W        W58119  36.861  16.107  12.960
99024W        W58120  34.603   5.203  10.463
99025W        W58121  15.710  34.572  13.905
99026W        W58122  39.502  30.607   2.879
99027W        W58123  42.398  39.425  12.420
99028W        W58124  19.093  15.151  13.852
99029W        W58125  20.724   9.785  10.419
99030W        W58126  41.962  14.596   1.867
99031W        W58127  26.474  13.113   3.315
99032W        W58128   7.754  29.149  14.376
99033W        W58129  22.657   4.215   4.690
99034W        W58130   7.669  42.957   0.818
99035W        W58131   4.782   5.384  13.061
99036W        W58132  40.024  40.379   3.313
99037W        W58133  20.692   8.675   4.822
99038W        W58134   4.822  16.679   2.807
99039W        W58135  42.011  31.005  14.382
99040W        W58136  13.120  39.848   3.699
99041W        W58137   0.899   6.698   2.375
99042W        W58138  11.731  34.073  14.972
99043W        W58139  10.816  41.391   3.736
99044W        W58140  18.697   4.709  10.053
99045W        W58141  15.150  26.663  11.026
99046W        W58142   9.830   0.434  12.346
99047W        W58143  43.936  12.227  14.315
99048W        W58144  23.544  24.596  12.952
99049W        W58145  19.536  40.983  11.453
99050W        W58146  18.134  19.108  10.427
99051W        W58147   7.859   6.828  13.322
99052W        W58148  13.702   1.368  13.432
99053W        W58149  17.227   8.736  13.892
99054W        W58150  28.179  24.069   2.851
99055W        W58151  16.197  18.643   3.650
99056W        W58152  35.436  44.774  11.535
99057W        W58153   6.896   4.236  12.881
99058W        W58154  32.393  39.447   0.397
99059W        W58155  23.111  25.988  14.020
99060W        W58156  36.427  36.408  14.304
99061W        W58157  38.541  10.873   2.714
99062W        W58158  39.055  24.139   0.461
99063W        W58159  16.299  25.979  12.872
99064W        W58160  30.977   0.916   2.288
99065W        W58161   7.905  22.593   0.955
99066W        W58162  33.965  17.749  12.092
99067W        W58163  16.277   8.900   1.414
99068W        W58164  13.163  17.719  12.477
99069W        W58165  26.695  40.871  10.527
99070W        W58166  15.089  24.525   1.791
99071W        W58167  43.407  30.987   2.227
99072W        W58168   1.785   0.850   0.322
99073W        W58169  37.456  12.341   2.321
99074W        W58170   1.320  41.376   0.743
99075W        W58171  41.493   8.701  13.512
99076W        W58172  44.275  42.483   3.667
99077W        W58173  15.811  24.983   3.650
99078W        W58174  23.037  43.274   2.351
99079W        W58175   3.421   7.730   0.477
99080W        W58176   7.271  38.349  14.380
99081W        W58177  17.644  11.160  14.480
99082W        W58178  37.084   8.701  11.998
99083W        W58179  33.128  31.058  14.308
99084W        W58180  37.912  21.234  13.050
99085W        W58181  17.095  17.605  11.425
99086W        W58182  40.490  22.027  10.479
99087W        W58183  22.558  14.164   1.811
99088W        W58184  20.536   1.942  13.481
99089W        W58185  43.916  36.903   0.325
99090W        W58186  43.909  32.957  10.969
99091W        W58187  24.671  22.624   0.310
99092W        W58188  27.152  43.281  12.862
99093W        W58189   0.885  13.262   3.300
99094W        W58190   7.696  33.884   4.207
99095W        W58191  15.751  43.814  12.914
99096W        W58192   0.958   2.342   4.837
99097W        W58193  11.307   8.773  13.480
99098W        W58194  30.974   9.371  10.933
99099W        W58195  23.096  11.824  11.967
99100W        W58196   9.250  14.745  13.489
99101W        W58197   5.390  26.985  12.551
99102W        W58198  32.524   8.725  12.957
99103W        W58199  37.000   3.244   1.403
99104W        W58200  16.087   2.425   0.340
99105W        W58201  26.702  16.795   2.688
99106W        W58202  38.972  38.537   4.793
99107W        W58203  17.222  42.896   4.701
99108W        W58204  43.361   8.689   2.826
99109W        W58205  21.582  18.127  12.891
99110W        W58206  11.834  38.979  13.876
99111W        W58207  43.992  39.466  13.043
99112W        W58208  31.568  22.122  13.017
99113W        W58209  20.049   2.315   3.728
99114W        W58210  24.117  39.033   4.597
99115W        W58211  12.786  17.569   1.264
99116W        W58212  39.878  27.566   2.277
99117W        W58213  27.127  20.758  10.495
99118W        W58214  25.973  35.109   0.397
99119W        W58215   5.396  19.234   3.311
99120W        W58216  18.177  43.978  12.354
99121W        W58217  43.398  32.449   3.809
99122W        W58218  12.677  37.880  12.536
99123W        W58219  40.436  31.463  14.514
99124W        W58220   1.362   7.771   2.781
99125W        W58221  16.665   9.183  14.894
99126W        W58222  41.503   3.944   1.882
99127W        W58223  13.326  43.884  13.346
99128W        W58224   4.796  29.999   4.208
99129W        W58225   3.440   9.676  10.443
99130W        W58226  42.330  30.951  13.904
99131W        W58227   1.339  25.631   2.742
99132W        W58228  40.051  31.974  13.885
99133W        W58229  25.680  25.644   0.859
99134W        W58230  33.600  42.334  10.948
99135W        W58231  28.183   5.370  11.042
99136W        W58232  15.689  16.137   4.280
99137W        W58233  27.591  22.649   2.180
99138W        W58234  36.586   5.831  14.018
99139W        W58235  28.668  21.180   0.431
99140W        W58236  34.868   8.376   2.832
99141W        W58237  36.957  12.349  10.938
99142W        W58238  36.434  14.277  10.123
99143W        W58239  27.575   6.911   2.309
99144W        W58240  21.118  42.495  12.952
99145W        W58241  44.367  44.797   3.276
99146W        W58242  15.262  32.092   1.337
99147W        W58243  22.606  25.540  14.859
99148W        W58244  33.422   7.172  14.888
99149W        W58245  16.638  20.593  10.624
99150W        W58246  15.111  29.455   5.112
99151W        W58247   2.450  15.663   1.865
99152W        W58248  27.461  38.923  11.078
99153W        W58249  44.839   5.259  10.914
99154W        W58250  21.253  14.697  11.004
99155W        W58251   1.247  21.540  12.395
99156W        W58252   3.786  16.703   3.663
99157W        W58253  25.473  44.928  12.045
99158W        W58254  24.099  36.029   5.306
99159W        W58255  30.075   5.719  13.029
99160W        W58256   6.257  40.426  12.499
99161W        W58257  28.438  44.503  13.481
99162W        W58258  21.152  30.488  13.044
99163W        W58259  37.973   5.909   3.243
99164W        W58260   7.198  15.653   4.344
99165W        W58261  37.395   9.167  10.640
99166W        W58262  17.064  16.807  13.015
99167W        W58263  36.893  39.985  11.588
99168W        W58264  30.932  27.674   1.892
99169W        W58265  18.283  30.503   0.758
99170W        W58266  36.011  35.862  14.462
99171W        W58267  37.980  14.170  13.340
99172W        W58268  37.059  13.247  11.379
99173W        W58269  23.107  43.827   3.159
99174W        W58270  22.620   0.376  12.469
99175W        W58271   6.351   8.820   4.816
99176W        W58272  18.239  40.943   0.469
99177W        W58273   5.350  27.595   3.782
99178W        W58274  29.042  30.008   1.925
99179W        W58275  17.668  40.488   0.734
99180W        W58276   3.268  31.047  14.293
99181W        W58277  31.587   2.249   1.829
99182W        W58278  41.900   4.723   1.371
99183W        W58279  38.449  11.309  13.347
99184W        W58280  29.669  25.499   4.147
99185W        W58281  18.189  38.937   5.129
99186W        W58282   1.279  26.068  13.007
99187W        W58283  21.111   9.728  14.435
99188W        W58284  12.196   6.334  10.405
99189W        W58285  41.456  33.610   1.740
99190W        W58286  43.822  42.931   2.234
99191W        W58287   9.176  24.697   0.784
99192W        W58288  33.115  26.486  12.371
99193W        W58289  32.577   2.307  10.965
99194W        W58290  34.374  28.448  10.552
99195W        W58291  25.991   5.245  12.972
99196W        W58292   9.790  25.671   2.341
99197W        W58293  38.893  41.294   2.716
99198W        W58294  17.196  27.493  14.998
99199W        W58295  40.843  32.953   0.922
99200W        W58296   0.932  37.488   3.865
99201W        W58297  17.130  12.845   4.223
99202W        W58298  41.846  26.517  13.545
99203W        W58299  34.956  16.566   1.823
99204W        W58300  14.662  12.631  11.986
99205W        W58301  14.751  12.140  14.770
99206W        W58302  44.488   7.811  14.493
99207W        W58303  40.923  21.568  10.953
99208W        W58304  32.412  13.216   4.601
99209W        W58305  14.304   3.273   3.724
99210W        W58306  44.923  20.567   2.891
99211W        W58307  39.814   2.464   2.818
99212W        W58308  34.104   5.293  14.773
99213W        W58309  38.972  33.048  14.457
99214W        W58310  43.854  24.126   3.164
99215W        W58311  37.567   7.745  14.847
99216W        W58312  44.453  24.539   4.197
99217W        W58313  29.109  21.744  12.002
99218W        W58314  44.339  13.280  11.069
99219W        W58315  34.611  18.167   1.283
99220W        W58316  42.358  25.574   2.875
99221W        W58317   4.250  12.757   2.344
99222W        W58318  29.428   9.645   3.264
99223W        W58319   3.239  38.066  10.971
99224W        W58320  22.241  44.000   3.372
99225W        W58321   3.403  19.678   1.392
99226W        W58322  10.200  27.621  14.023
99227W        W58323  41.328  22.545   2.389
99228W        W58324   9.275  35.380  14.023
99229W        W58325  27.156   5.807  10.544
99230W        W58326  39.510  25.566  10.574
99231W        W58327  41.500  40.905  10.503
99232W        W58328  31.054   6.302   4.343
99233W        W58329  35.986  26.665  10.923
99234W        W58330  16.151   9.780   4.744
99235W        W58331  35.085  25.014  11.408
99236W        W58332  19.196  12.189  14.475
99237W        W58333  28.003  43.454  12.999
99238W        W58334   0.299  30.077   2.739
99239W        W58335  15.278  36.524  10.628
99240W        W58336  40.453  24.650   1.835
99241W        W58337  21.542  32.961   3.293
99242W        W58338  42.882   5.761   4.315
99243W        W58339  19.660  32.960   0.306
99244W        W58340   9.386  15.231   3.758
99245W        W58341  32.584  35.438  12.371
99246W        W58342  18.757  27.191   3.781
99247W        W58343   9.654  29.154   0.859
99248W        W58344  26.651  40.534  14.003
99249W        W58345  38.985   5.264  11.475
99250W        W58346   0.450  30.627   4.691
99251W        W58347  12.665  20.579   0.332
99252W        W58348   2.319  26.491  12.498
99253W        W58349   2.826  14.322  10.921
99254W        W58350  39.383   5.235   3.188
99255W        W58351  27.108  33.114   4.664
99256W        W58352  38.943  26.089  11.469
99257W        W58353  39.380   0.403  12.838
99258W        W58354   9.844  35.853   0.295
99259W        W58355  11.771  40.041   4.601
99260W        W58356  12.707  32.599   2.271
99261W        W58357  16.670  31.923  14.816
99262W        W58358   2.271   4.775   0.964
99263W        W58359  27.075  19.275   1.249
99264W        W58360  16.656  39.337  11.968
99265W        W58361  14.296  10.383  12.921
99266W        W58362  30.643  18.289  13.523
99267W        W58363  17.712  26.545   1.317
99268W        W58364   4.864  18.190   3.197
99269W        W58365   5.345  39.522   2.314
99270W        W58366  44.799   4.379   4.223
99271W        W58367  20.134   2.921  14.964
99272W        W58368  16.603  44.366  12.938
99273W        W58369  11.739  41.808  11.067
99274W        W58370  38.509  10.329   2.190
99275W        W58371  33.012  28.637  13.022
99276W        W58372   6.207  17.560  10.405
99277W        W58373   9.852  43.981   1.834
99278W        W58374  32.073  27.029   4.312
99279W        W58375  40.337  43.282   3.292
99280W        W58376  37.013   6.826  12.433
99281W        W58377   2.465  32.975   3.298
99282W        W58378  22.161  32.602  10.425
99283W        W58379   5.888   6.286  12.363
99284W        W58380   7.192  38.567  12.841
99285W        W58381  37.957  17.275   3.184
99286W        W58382  27.596  18.150  12.510
99287W        W58383  34.922  22.095  11.061
99288W        W58384   6.322  25.468  12.984
99289W        W58385  39.456   0.908   0.291
99290W        W58386   5.755  20.654   2.241
99291W        W58387   9.396  32.576   2.695
99292W        W58388  16.143  31.949   3.676
99293W        W58389  38.505  29.580  12.534
99294W        W58390  36.524  13.840  14.377
99295W        W58391   1.966  17.127  12.018
99296W        W58392   4.278  22.110  10.976
99297W        W58393   0.406  33.476  11.488
99298W        W58394  36.584   2.351  12.883
99299W        W58395  38.018  33.598  14.432
99300W        W58396   4.710   5.722   1.739
99301W        W58397   3.449  27.615  13.931
99302W        W58398  19.140   5.420   0.294
99303W        W58399   8.260   0.386  12.974
99304W        W58400  26.665  22.592   2.798
99305W        W58401   2.867  34.512  14.931
99306W        W58402  37.352  34.454  12.092
99307W        W58403  34.525  14.153   3.149
99308W        W58404  23.727   9.803   2.693
99309W        W58405  29.067  21.708   3.230
99310W        W58406  42.788  40.865  11.028
99311W        W58407  10.354  20.537  12.421
99312W        W58408  40.445  22.561   0.805
99313W        W58409   5.802  16.179  10.543
99314W        W58410  13.784  19.622  10.509
99315W        W58411  28.637  22.163   4.114
99316W        W58412   3.901  38.038   4.208
99317W        W58413  18.587  11.779   0.261
99318W        W58414  21.079  28.509  13.958
99319W        W58415  35.421  38.820  14.886
99320W        W58416  30.002   5.719  10.629
99321W        W58417  15.151  36.590  11.439
99322W        W58418  16.653  29.998  12.898
99323W        W58419  17.106   0.869  13.528
99324W        W58420  10.777   6.923   4.244
99325W        W58421   8.363  41.944  13.537
99326W        W58422  42.844  25.210  11.079
99327W        W58423  26.031  16.586  13.931
99328W        W58424  33.591  14.223  14.366
99329W        W58425   4.205  33.087  13.314
99330W        W58426  10.688  38.946   1.731
99331W        W58427  37.561  14.216  12.052
99332W        W58428  34.403  22.184   2.384
99333W        W58429  29.007  15.175   4.219
99334W        W58430  32.506  38.382  12.364
99335W        W58431   5.807  32.118  12.421
99336W        W58432  10.204  13.613   4.654
99337W        W58433   3.238  25.562  12.517
99338W        W58434  43.406   4.801   2.671
99339W        W58435  32.125  15.632   4.722
99340W        W58436  16.252  37.393   0.844
99341W        W58437  24.713  14.591   0.774
99342W        W58438   0.904  24.716  12.484
99343W        W58439  28.496  38.960  11.396
99344W        W58440   4.447  43.309  12.575
99345W        W58441   5.801  37.561  11.998
99346W        W58442  27.532  22.605  11.985
99347W        W58443  42.838  24.136  10.445
99348W        W58444   7.182  43.515  14.798
99349W        W58445  25.182  23.721  11.448
99350W        W58446   7.845  30.065   2.810
99351W        W58447  18.241  40.530   4.230
99352W        W58448  12.803  18.187  13.991
99353W        W58449  43.311  15.687  10.017
99354W        W58450  13.141  44.833   4.279
99355W        W58451  41.871   6.748   0.934
99356W        W58452  29.968  21.659  13.421
99357W        W58453  41.481  37.984  13.441
99358W        W58454  36.010  10.766   9.661
99359W        W58455  32.103  17.731   3.368
99360W        W58456  27.650  31.054   4.743
99361W        W58457  29.154  41.445  12.441
99362W        W58458  11.184   2.747   2.377
99363W        W58459  26.489  27.652   4.612
99364W        W58460  11.648  14.123   2.410
99365W        W58461   8.885   4.211  10.942
99366W        W58462  32.469  12.234   0.879
99367W        W58463   9.336  25.641   2.717
99368W        W58464  35.072  34.061   0.790
99369W        W58465  44.862  26.125   3.860
99370W        W58466  44.274  20.037  12.867
99371W        W58467   0.767  24.517  10.431
99372W        W58468  19.693  26.988  12.923
99373W        W58469  37.431   8.693   2.359
99374W        W58470  35.565  17.670   2.832
99375W        W58471  33.994   5.715  12.423
99376W        W58472  30.018  21.093   3.791
99377W        W58473  18.176  39.849  10.417
99378W        W58474   2.459  28.127  10.618
99379W        W58475  43.474   1.737  11.468
99380W        W58476  27.672  28.950   3.833
99381W        W58477  11.355  39.000  10.431
99382W        W58478  21.110  30.150  14.876
99383W        W58479  32.096  25.714  14.946
99384W        W58480   9.363   8.269   1.863
99385W        W58481  19.162  31.062   2.415
99386W        W58482  21.680  30.119  12.838
99387W        W58483  40.001   5.806  11.872
99388W        W58484  21.067  36.548   2.746
99389W        W58485  42.819  30.430  13.343
99390W        W58486  17.677  41.453   2.692
99391W        W58487  21.745  28.640   4.251
99392W        W58488  23.721  36.879   2.773
99393W        W58489  32.544  41.852   3.771
99394W        W58490  10.864  24.001  10.421
99395W        W58491  36.026   7.882  12.542
99396W        W58492  15.090  29.516  13.015
99397W        W58493   6.373  40.876  12.922
99398W        W58494  33.964   0.794  12.901
99399W        W58495  14.672  23.732   5.166
99400W        W58496  20.052  41.401   5.196
99401W        W58497  18.592   6.861   0.363
99402W        W58498  32.993   9.370   4.695
99403W        W58499   2.379  15.684   3.849
99404W        W58500   8.210   8.300   3.705
99405W        W58501  12.769  13.621   2.817
99406W        W58502  33.422   0.451  13.036
99407W        W58503  23.493  23.134   1.817
99408W        W58504  41.293  30.514  14.507
99409W        W58505   0.451  38.435   1.831
99410W        W58506  25.155   9.170  10.503
99411W        W58507   9.279  39.064  11.455
99412W        W58508  25.149  40.433  11.531
99413W        W58509   6.206  22.553   0.353
99414W        W58510  22.082  16.588  13.490
99415W        W58511  41.457  20.110  14.016
99416W        W58512  21.578   0.812   0.792
99417W        W58513  37.482   3.461  11.586
99418W        W58514  34.582  27.997  13.412
99419W        W58515  16.314   2.806  14.021
99420W        W58516  17.127  32.008   0.275
99421W        W58517  41.951  27.155   3.219
99422W        W58518  27.577  20.738  14.435
99423W        W58519  29.145  31.039   2.681
99424W        W58520  16.804  16.222   0.944
99425W        W58521  19.280  26.964   0.873
99426W        W58522  21.625  25.962   3.379
99427W        W58523   3.376   3.908   0.312
99428W        W58524  20.592  21.682  11.124
99429W        W58525  32.027   0.888   2.187
99430W        W58526  16.253  32.112  13.867
99431W        W58527  25.481   7.341   0.476
99432W        W58528  22.123  10.675  14.821
99433W        W58529  30.471  31.536   1.878
99434W        W58530  27.647  14.603  12.086
99435W        W58531  39.527  22.167   1.794
99436W        W58532  41.998  36.590   0.466
99437W        W58533  17.624  29.018  13.036
99438W        W58534   8.739  29.986   4.131
99439W        W58535   7.766  19.709  11.426
99440W        W58536  14.251  42.869  10.016
99441W        W58537  12.615  42.288  11.402
99442W        W58538   2.230  26.149   4.750
99443W        W58539  44.468  38.907  12.450
99444W        W58540  33.508  13.171   2.182
99445W        W58541  14.258  24.112   2.309
99446W        W58542  11.168   2.250   3.316
99447W        W58543  27.024   3.216   4.334
99448W        W58544  23.017  37.453  11.533
99449W        W58545  31.016  40.916  12.421
99450W        W58546   8.680   6.385   5.180
99451W        W58547  15.153  10.656   2.836
99452W        W58548  43.473  16.655  12.979
99453W        W58549  31.135  29.553   0.445
99454W        W58550  25.203  13.185  13.898
99455W        W58551   8.692  23.643   2.248
99456W        W58552  42.842   5.804  10.927
99457W        W58553  33.485  23.571  12.864
99458W        W58554  41.496  12.276   0.900
99459W        W58555  27.075  27.657  11.103
99460W        W58556   2.458  15.208  14.795
99461W        W58557  35.430   7.828   1.239
99462W        W58558  16.697  10.641   9.577
99463W        W58559  13.160   8.834  14.325
99464W        W58560  28.098  28.006  11.079
99465W        W58561  41.397  21.254   1.407
99466W        W58562  39.949  43.298   0.399
99467W        W58563   4.233  27.538  12.558
99468W        W58564  23.671  36.015  12.858
99469W        W58565   3.304   1.748  14.016
99470W        W58566  30.484   7.896   1.715
99471W        W58567  19.251  30.597   4.123
99472W        W58568   4.902  29.642   3.309
99473W        W58569  13.173  15.712  12.059
99474W        W58570  29.107  14.720   2.201
99475W        W58571   8.663  39.867   0.960
99476W        W58572   9.730  10.857  14.409
99477W        W58573  39.336   4.211   2.203
99478W        W58574  41.901   2.289   2.792
99479W        W58575  39.040  34.608  11.577
99480W        W58576   2.251  12.663  11.512
99481W        W58577  35.478   0.275  10.918
99482W        W58578  23.120  43.930   0.806
99483W        W58579  13.622   8.370  14.030
99484W        W58580  10.647  43.778   1.210
99485W        W58581  15.733  11.732   1.230
99486W        W58582  11.252  31.013   1.320
99487W        W58583  26.097   3.744  13.359
99488W        W58584  19.614   0.940  14.975
99489W        W58585  36.016  26.135  14.920
99490W        W58586  13.332   3.799  10.522
99491W        W58587  12.251  25.190   2.273
99492W        W58588  19.222  21.119  14.322
99493W        W58589  18.253  41.891  13.909
99494W        W58590  28.168  16.233  13.542
99495W        W58591   8.314   7.793   0.759
99496W        W58592  18.248  15.598  11.432
99497W        W58593  32.593  35.905   4.838
99498W        W58594  11.310  39.445   1.288
99499W        W58595  34.614  14.211   2.828
99500W        W58596  17.616  38.342   0.367
99501W        W58597  40.906  19.610   3.802
99502W        W58598  20.649  41.318  13.428
99503W        W58599  11.271  29.649   1.268
99504W        W58600   0.759  31.538   1.260
99505W        W58601   2.854  35.045  12.972
99506W        W58602  15.657   4.335  11.038
99507W        W58603   0.987  42.498  12.555
99508W        W58604  13.781  10.179   0.379
99509W        W58605  13.257   5.816   1.236
99510W        W58606  35.588  28.513   0.944
99511W        W58607   2.402  37.470   3.211
99512W        W58608   5.372  14.622  11.537
99513W        W58609  34.547  26.535   3.853
99514W        W58610  32.957   5.365  14.971
99515W        W58611  36.456  42.931  10.897
99516W        W58612  36.981   0.759   2.364
99517W        W58613  24.167  11.301   4.689
99518W        W58614  13.599   9.803  13.050
99519W        W58615  39.426   5.230   0.313
99520W        W58616  26.959  14.834   4.280
99521W        W58617  41.014   0.912  12.893
99522W        W58618  43.879  38.460  10.551
99523W        W58619  27.137  32.582  14.512
99524W        W58620  19.103  36.457  12.975
99525W        W58621  31.643  21.634   3.298
99526W        W58622   9.866   2.275   1.335
99527W        W58623  31.586   0.971  13.791
99528W        W58624  28.589  29.524  11.917
99529W        W58625  11.134  23.651   4.692
99530W        W58626  39.524  29.024   3.366
99531W        W58627  20.116  41.443  12.006
99532W        W58628  14.113  38.508  12.959
99533W        W58629   5.767  26.972   0.420
99534W        W58630  23.229   8.796   2.233
99535W        W58631  25.095  23.594   4.275
99536W        W58632   2.911  29.076   0.293
99537W        W58633  12.350  27.655   9.654
99538W        W58634  10.691  25.984  12.397
99539W        W58635  33.905  40.032  14.930
99540W        W58636  41.479  35.065   0.452
99541W        W58637   7.834  14.804  10.622
99542W        W58638  26.686  26.507  10.073
99543W        W58639  37.861  29.121  13.936
99544W        W58640  44.820  32.451  12.406
99545W        W58641  24.482  41.851   1.418
99546W        W58642  15.114  24.129  10.480
99547W        W58643  25.022  17.297  13.804
99548W        W58644  39.824  27.677  11.065
99549W        W58645  25.544   4.421   0.729
99550W        W58646   5.290  29.643  11.457
99551W        W58647  41.902  28.572  13.828
99552W        W58648  42.818   9.340   1.375
99553W        W58649  28.518  35.923   0.414
99554W        W58650  44.374  24.049  12.014
99555W        W58651  37.923  23.039   0.782
99556W        W58652  39.369  15.183   1.294
99557W        W58653  11.637  30.022  13.466
99558W        W58654  39.355   7.376   3.737
99559W        W58655  30.071  43.916   1.855
99560W        W58656  11.174  41.334   1.912
99561W        W58657  19.536  27.138   2.306
99562W        W58658   4.942  10.167   5.254
99563W        W58659  20.675  23.645   2.393
99564W        W58660   1.752  14.827   2.782
99565W        W58661  39.822  24.167  12.364
99566W        W58662   5.892  41.417  12.353
99567W        W58663  37.999  38.453   3.748
99568W        W58664  11.331  32.923  10.481
99569W        W58665  24.618  36.397   3.794
99570W        W58666  16.301   8.197  11.586
99571W        W58667  11.156  14.640   3.177
99572W        W58668  43.509  10.334   1.225
99573W        W58669  18.192  29.021  12.373
99574W        W58670   7.401  29.065   3.782
99575W        W58671  24.558   4.276  13.827
99576W        W58672   7.749  26.000  12.420
99577W        W58673  20.528  32.401   3.146
99578W        W58674  42.321   4.777  11.535
99579W        W58675  15.243  17.151  11.078
99580W        W58676  42.893  10.368   4.661
99581W        W58677   6.230  38.403   2.415
99582W        W58678  20.228  14.672   3.772
99583W        W58679  18.774   5.363  11.102
99584W        W58680  32.437  13.261   4.179
99585W        W58681  12.734   1.452   3.345
99586W        W58682  21.112  41.378   1.801
99587W        W58683  39.404  13.343  13.439
99588W        W58684  11.780  32.514  12.917
99589W        W58685  36.912  15.123   2.810
99590W        W58686  14.286   4.734   3.306
99591W        W58687  41.459  12.849  14.009
99592W        W58688   1.889  33.086   1.392
99593W        W58689  29.931  38.499  12.552
99594W        W58690  42.984  40.467   4.293
99595W        W58691  10.760  28.645   0.454
99596W        W58692  39.055  24.150   3.701
99597W        W58693  24.035   7.719  12.841
99598W        W58694  41.841  43.422  11.469
99599W        W58695  11.141  27.974   1.265
99600W        W58696  32.136  11.734  13.889
99601W        W58697  34.068  28.183  12.478
99602W        W58698   8.272  33.477  11.003
99603W        W58699  40.412  43.378   4.274
99604W        W58700  12.745   3.371  13.028
99605W        W58701  24.705   1.343  11.071
99606W        W58702   6.387   4.840  12.922
99607W        W58703   7.303   4.881  12.980
99608W        W58704   0.910   3.311  10.444
99609W        W58705  26.050   6.407   1.709
99610W        W58706  42.023   9.173   0.961
99611W        W58707  24.496  11.675   2.199
99612W        W58708  25.469  16.152  14.509
99613W        W58709  37.513  37.898  13.856
99614W        W58710   5.384  33.123  12.568
99615W        W58711  11.856  12.183   4.184
99616W        W58712  18.192  38.021   1.368
99617W        W58713  21.111   4.369   4.804
99618W        W58714  23.205  21.677  11.473
99619W        W58715  17.171  14.143  11.440
99620W        W58716  14.760  12.645   2.379
99621W        W58717  40.498  40.440   3.360
99622W        W58718  15.294   5.854   3.305
99623W        W58719  15.295  18.665   3.244
99624W        W58720  25.586  28.140  14.450
99625W        W58721  39.048  39.942   0.927
99626W        W58722  15.814  31.495   1.353
99627W        W58723  14.705  14.227   1.771
99628W        W58724   9.701  39.005   2.828
99629W        W58725   6.337   3.315  14.800
99630W        W58726   7.230   7.847  13.866
99631W        W58727  36.030  15.135   3.147
99632W        W58728  44.431  33.880  13.966
99633W        W58729  14.141  35.573   1.806
99634W        W58730   3.219   1.288   4.304
99635W        W58731  34.965  22.689  12.892
99636W        W58732  17.094  18.738  13.861
99637W        W58733  15.308   8.733  12.943
99638W        W58734  25.162  21.167   1.725
99639W        W58735  22.020  20.525  12.899
99640W        W58736  11.131  33.931   2.378
99641W        W58737  10.874   1.289  12.093
99642W        W58738  36.903  36.974   3.367
99643W        W58739   2.330  40.509  14.358
99644W        W58740  18.718  35.933   1.827
99645W        W58741  38.981  30.959  12.032
99646W        W58742  11.200  32.008  11.867
99647W        W58743   6.819  21.708   5.792
99648W        W58744  18.284  27.076   0.937
99649W        W58745  31.936  17.247   0.416
99650W        W58746  44.315   3.387   4.172
99651W        W58747  22.548  19.589   4.830
99652W        W58748  30.537  34.952   1.865
99653W        W58749  43.282  24.101   2.310
99654W        W58750  16.259  12.329   2.231
99655W        W58751  44.985   6.229   0.960
99656W        W58752  24.482  35.453  12.361
99657W        W58753  40.465  12.811   1.768
99658W        W58754   6.848  16.812  11.456
99659W        W58755  33.903  28.472   2.184
99660W        W58756  11.252  16.180  12.913
99661W        W58757  31.604   9.868  13.914
99662W        W58758   9.847  32.617   0.923
99663W        W58759  41.993  16.721  10.635
99664W        W58760  22.167  11.748  11.056
99665W        W58761  14.308   9.176   0.844
99666W        W58762  17.689  13.750   1.793
99667W        W58763  10.176  42.881  12.973
99668W        W58764  40.873  12.199   1.434
99669W        W58765   6.365  11.799  12.885
99670W        W58766  36.984  39.466   3.267
99671W        W58767  21.612  44.763   2.714
99672W        W58768  23.102   5.896  10.991
99673W        W58769  34.941  42.523   4.691
99674W        W58770   1.366  30.140   4.122
99675W        W58771  28.942  41.937  10.915
99676W        W58772  44.475   9.244   0.454
99677W        W58773   5.213  39.922  13.354
99678W        W58774  29.115   8.889   1.890
99679W        W58775  26.047  36.986  11.895
99680W        W58776  32.421  19.184   0.318
99681W        W58777  19.584  20.566  14.456
99682W        W58778   8.895  27.583  14.472
99683W        W58779  38.045  40.022  14.344
99684W        W58780  10.298  29.152  11.538
99685W        W58781  27.596  39.006   1.283
99686W        W58782  33.529  33.102   0.478
99687W        W58783  42.506  21.618   2.414
99688W        W58784  17.704   7.845   2.814
99689W        W58785  25.098   6.335   0.415
99690W        W58786  35.939  16.179   2.753
99691W        W58787  35.867  15.286  13.008
99692W        W58788  19.102  42.887   4.695
99693W        W58789   5.335  22.202   1.386
99694W        W58790  13.639  20.034  14.505
99695W        W58791  20.069   2.865  14.488
99696W        W58792  25.579  11.366   1.843
99697W        W58793  43.402  19.094  10.960
99698W        W58794  13.331  37.056  11.060
99699W        W58795   9.791  29.548  14.976
99700W        W58796  28.147  12.854   2.901
99701W        W58797  33.380  18.594  13.394
99702W        W58798  38.537  37.973   3.756
99703W        W58799  44.461   0.958  12.954
99704W        W58800  42.330  24.212  13.381
99705W        W58801  39.530  18.744   0.454
99706W        W58802  37.911   5.879   2.722
99707W        W58803  15.708  12.214   1.803
99708W        W58804   1.775  27.672  11.018
99709W        W58805  30.523   0.391   3.209
99710W        W58806  13.783  13.600   2.368
99711W        W58807  40.867   7.412  11.549
99712W        W58808  35.079  26.120  12.833
99713W        W58809  10.376  26.694   1.418
99714W        W58810   5.927  38.958  13.824
99715W        W58811  11.851  17.620   3.332
99716W        W58812  12.279  16.704  14.481
99717W        W58813  10.794  32.481   4.229
99718W        W58814   0.410  35.985  10.524
99719W        W58815  26.189  41.913  14.509
99720W        W58816  25.576  34.031  11.929
99721W        W58817   6.877  34.983  13.419
99722W        W58818  41.815   2.235  14.358
99723W        W58819  16.179   4.827   4.115
99724W        W58820  14.133   7.300  14.021
99725W        W58821  41.914  20.043  10.611
99726W        W58822  11.774  41.520  10.052
99727W        W58823  44.929  33.055   1.227
99728W        W58824  36.358  20.640   1.703
99729W        W58825  10.829  19.661  10.542
99730W        W58826  12.298  39.985  14.819
99731W        W58827   0.452   8.261   4.669
99732W        W58828  18.292  37.836  14.997
99733W        W58829   7.307   5.302  11.434
99734W        W58830  30.486  42.853   4.706
99735W        W58831  19.251   0.904   2.749
99736W        W58832   9.745   1.241   3.385
99737W        W58833  22.165  42.453  14.964
99738W        W58834  40.853  13.822   3.355
99739W        W58835  41.803  14.326   5.255
99740W        W58836   9.796  17.069   3.651
99741W        W58837   0.479  32.629   4.345
99742W        W58838  10.178  18.740  11.577
99743W        W58839  11.342  15.106  11.530
99744W        W58840  44.896  17.690  13.018
99745W        W58841  43.936   5.379   0.353
99746W        W58842  24.170   9.244   3.838
99747W        W58843   0.333  25.005   1.304
99748W        W58844  16.244  43.939   4.723
99749W        W58845  14.231  35.510  12.387
99750W        W58846  28.944  26.482  12.025
99751W        W58847  17.155  15.134  12.477
99752W        W58848  24.052  14.705   2.707
99753W        W58849  16.774  20.031   1.738
99754W        W58850  43.904  15.249  12.882
99755W        W58851   7.330  15.200   4.811
99756W        W58852   9.200  20.728  13.395
99757W        W58853  10.661  39.926   4.770
99758W        W58854  21.564  37.435   3.241
99759W        W58855  40.309  16.114   3.358
99760W        W58856   0.319   4.362   1.447
99761W        W58857   2.784  31.987  13.026
99762W        W58858   8.376  18.609   2.277
99763W        W58859  25.503   4.308   4.117
99764W        W58860  20.580  11.151   5.147
99765W        W58861  32.475  16.249   1.763
99766W        W58862  41.391  11.687  11.454
99767W        W58863  39.534  36.974  14.302
99768W        W58864  27.484   8.254   3.185
99769W        W58865   7.345  39.829   0.280
99770W        W58866  32.546  43.851  11.441
99771W        W58867   3.843  38.326  12.883
99772W        W58868  18.567  32.026   2.381
99773W        W58869  19.106  35.448   3.666
99774W        W58870  43.339  43.498   1.740
99775W        W58871   9.878  12.343   4.793
99776W        W58872   1.441  23.058   3.166
99777W        W58873   6.250  19.632   4.269
99778W        W58874  38.909  20.207  11.605
99779W        W58875  36.561  40.980   1.416
99780W        W58876  32.634  43.924  13.540
99781W        W58877  33.917  29.539  14.430
99782W        W58878  39.888  14.821   1.450
99783W        W58879  18.253  27.958  11.877
99784W        W58880  37.485  15.158   0.811
99785W        W58881  28.089   6.880  12.431
99786W        W58882  14.755  30.578   3.175
99787W        W58883   7.897  13.645   1.440
99788W        W58884  17.144  22.203  14.994
99789W        W58885  39.939   8.303  12.018
99790W        W58886  44.875   8.364   4.643
99791W        W58887  15.329  16.594   0.369
99792W        W58888  35.452  24.137   5.699
99793W        W58889   7.289  38.076   3.760
99794W        W58890  25.487  29.562   2.203
99795W        W58891  33.474  39.406   1.724
99796W        W58892  32.107  20.557   4.636
99797W        W58893  34.914   0.491  12.880
99798W        W58894  23.073  41.861   4.127
99799W        W58895  17.606  33.414   0.938
99800W        W58896  21.102  29.482  12.493
99801W        W58897   3.274  21.202  12.417
99802W        W58898   2.273   0.884   2.719
99803W        W58899  33.532  22.637  12.563
99804W        W58900  13.290  44.277  10.486
99805W        W58901   4.767  44.964  14.986
99806W        W58902  33.430  10.154   3.344
99807W        W58903  42.919  19.581   0.815
99808W        W58904   3.762  23.700   0.475
99809W        W58905  40.549  15.724  10.571
99810W        W58906  15.271  39.555  14.372
99811W        W58907  21.717  34.018   1.847
99812W        W58908  37.486  29.605   4.115
99813W        W58909  12.161  40.918  14.471
99814W        W58910  15.109  12.850   2.396
99815W        W58911  43.786   8.212   3.641
99816W        W58912  17.767  43.795  14.428
99817W        W58913  20.663  33.990  14.812
99818W        W58914  15.253   7.202  14.959
99819W        W58915  37.940  28.962   2.330
99820W        W58916  19.596  22.663  14.346
99821W        W58917  31.068  19.079  12.367
99822W        W58918   0.984  12.169   0.760
99823W        W58919  13.793   2.942  10.903
99824W        W58920  18.786   9.390   1.817
99825W        W58921  21.165  35.879  11.010
99826W        W58922  39.438   6.753  11.126
99827W        W58923  32.054  13.182   1.697
99828W        W58924  11.839  19.102   4.270
99829W        W58925  27.580  27.012  13.523
99830W        W58926  23.038  26.057  10.641
99831W        W58927  24.494  35.519  10.011
99832W        W58928  26.095  25.673  12.863
99833W        W58929   1.374  18.292   2.331
99834W        W58930  14.778  25.196  11.929
99835W        W58931  15.158   1.750  11.403
99836W        W58932  44.891  38.947   2.323
99837W        W58933  36.434  19.678   2.870
99838W        W58934   8.198  35.009   4.706
99839W        W58935  24.568  35.997   0.852
99840W        W58936  40.905  22.536  14.423
99841W        W58937   2.245   7.835  13.895
99842W        W58938  27.036  21.628   1.301
99843W        W58939  13.339  30.633   0.808
99844W        W58940  23.674  10.822  13.844
99845W        W58941  37.887   1.416   1.835
99846W        W58942   4.442   9.660  12.932
99847W        W58943  40.034  11.655  12.881
99848W        W58944  41.408  41.004   3.844
99849W        W58945   6.727  25.218  13.026
99850W        W58946  41.522   7.283   2.692
99851W        W58947  31.089   2.331   3.164
99852W        W58948  31.455  44.357  10.551
99853W        W58949  38.016  23.075  14.454
99854W        W58950  10.664  36.098   1.702
99855W        W58951  19.105  23.171  10.894
99856W        W58952   2.457   5.245   2.880
99857W        W58953   9.205  38.359  10.999
99858W        W58954  32.078   6.749   4.801
99859W        W58955  30.982  27.610  13.329
99860W        W58956  22.554  20.086   0.456
99861W        W58957  11.325  21.721   3.734
99862W        W58958  42.282  30.068  10.936
99863W        W58959   8.812   4.786  11.980
99864W        W58960  19.268   8.286   0.882
99865W        W58961  23.638   8.759   1.398
99866W        W58962  15.818  11.681   0.374
99867W        W58963  35.938   4.863  10.079
99868W        W58964   4.700  24.502   2.702
99869W        W58965  24.494  41.888   0.953
99870W        W58966  11.323   3.915  12.918
99871W        W58967  40.326   6.342  11.964
99872W        W58968   6.717  27.449  12.018
99873W        W58969   3.406  31.585   2.830
99874W        W58970   0.919  24.053   4.737
99875W        W58971  42.005  17.712  14.828
99876W        W58972  36.929  40.543   2.387
99877W        W58973  44.374   4.297  14.972
99878W        W58974  11.636  12.349   2.698
99879W        W58975  16.719  24.500   0.930
99880W        W58976  28.018  28.594  12.016
99881W        W58977  18.591  14.816  11.535
99882W        W58978  15.793  19.773   2.397
99883W        W58979  33.948  36.445  14.975
99884W        W58980   2.749   8.811  13.960
99885W        W58981  32.621  42.819  11.957
99886W        W58982  16.764  30.060   2.393
99887W        W58983   4.808  10.654  12.939
99888W        W58984  27.184  14.329  10.966
99889W        W58985  10.225  18.702  13.836
99890W        W58986  29.509  13.785   4.767
99891W        W58987   5.823  41.388  14.959
99892W        W58988  19.232  20.239   1.837
99893W        W58989  13.793  10.669  11.099
99894W        W58990  44.849  40.486  11.993
99895W        W58991   7.286  26.635  12.945
99896W        W58992  26.975  32.450  11.007
99897W        W58993  28.459  16.685  13.420
99898W        W58994   2.341  17.261  14.947
99899W        W58995  43.845  41.858   4.688
99900W        W58996  30.975  10.205  12.579
99901W        W58997  20.627  10.873   0.962
99902W        W58998  19.637   8.275   3.277
99903W        W58999  29.031  19.118  13.984
99904W        W59000  27.547  11.368   0.316
99905W        W59001  42.850  33.993   1.314
99906W        W59002  33.933  16.261   2.679
99907W        W59003   4.898  27.620  12.879
99908W        W59004  17.300  34.879   4.689
99909W        W59005   4.881  12.773   4.620
99910W        W59006  17.641   0.439  14.884
99911W        W59007  12.614   1.283   2.411
99912W        W59008  32.457   5.290  13.792
99913W        W59009   8.886  37.539  11.915
99914W        W59010  25.637  35.913   2.385
99915W        W59011  11.208  38.878  14.490
99916W        W59012  25.985  30.987  11.121
99917W        W59013   1.481  22.224  13.869
99918W        W59014  43.940  40.036  10.509
99919W        W59015  17.104  44.477   1.308
99920W        W59016  20.182  43.004  13.868
99921W        W59017  44.411   8.406   1.731
99922W        W59018  28.056  30.491   0.286
99923W        W59019  21.755  11.760  13.394
99924W        W59020  34.008  25.140   0.921
99925W        W59021   3.430  19.577  14.364
99926W        W59022  26.069  10.218  13.875
99927W        W59023  12.611  29.625   2.351
99928W        W59024  43.272  34.875   0.249
99929W        W59025  27.193  23.642   0.273
99930W        W59026  22.114   3.723   3.691
99931W        W59027   9.816   0.475   3.730
99932W        W59028   8.855   0.947  14.871
99933W        W59029  18.585  22.725   4.720
99934W        W59030  16.165  28.599  11.437
99935W        W59031  31.902  27.032   0.809
99936W        W59032  39.912  16.751  14.986
99937W        W59033  13.636  22.015  11.527
99938W        W59034  34.077   6.309  11.534
99939W        W59035  23.054  38.374   1.820
99940W        W59036  26.572  27.543  14.032
99941W        W59037  42.297  20.657  14.799
99942W        W59038  39.849  19.695  13.017
99943W        W59039  44.498  13.300   5.234
99944W        W59040  38.862  13.245  13.373
99945W        W59041  21.666  21.246  12.364
99946W        W59042  41.027   6.268   0.874
99947W        W59043  22.658  42.903  10.033
99948W        W59044  41.455  14.730   0.276
99949W        W59045   9.202   6.703  11.981
99950W        W59046   7.706  30.031   2.418
99951W        W59047  19.184  31.946  14.326
99952W        W59048   0.424   9.643   1.248
99953W        W59049  32.425  43.493  10.979
99954W        W59050  23.126  13.788   1.921
99955W        W59051   0.484  28.442   0.383
99956W        W59052  14.307   4.240  13.845
99957W        W59053  22.663   4.712  12.360
99958W        W59054  10.138  43.789  11.474
99959W        W59055  16.186   2.305  14.814
99960W        W59056  43.939   2.228  11.865
99961W        W59057  14.762  27.583  14.926
99962W        W59058  13.836  32.128   3.755
99963W        W59059  24.648  18.205  12.506
99964W        W59060  34.503  13.731   2.360
99965W        W59061  23.081  23.086  10.992
99966W        W59062   2.311  23.590  14.415
99967W        W59063  43.435   8.785   4.647
99968W        W59064  41.515  19.757  14.975
99969W        W59065  12.764  26.690   0.370
99970W        W59066  11.295  19.565  13.988
99971W        W59067  36.447  33.881   4.203
99972W        W59068  18.716  41.429  13.397
99973W        W59069  13.620  35.986   5.292
99974W        W59070  43.912  12.750   4.666
99975W        W59071  28.460  31.641   1.393
99976W        W59072  33.954  39.967   3.203
99977W        W59073  30.076  28.943  12.456
99978W        W59074   0.338  37.564   2.296
99979W        W59075   3.412  44.773   3.235
99980W        W59076  34.370  14.340   4.706
99981W        W59077  39.403  10.189   3.156
99982W        W59078  21.148  31.557   0.364
99983W        W59079   8.211  38.350   4.347
99984W        W59080  39.884   8.398  10.404
99985W        W59081  20.144  31.478   2.752
99986W        W59082   0.933  15.227  11.902
99987W        W59083  42.996  25.146   4.825
99988W        W59084   1.812   2.432  14.441
99989W        W59085  15.819  43.498  11.049
99990W        W59086  26.131  19.747  12.887
99991W        W59087  36.096  27.528  10.446
99992W        W59088  22.113  14.601   0.404
99993W        W59089  43.780  30.952  12.383
99994W        W59090  14.639  39.468   4.689
99995W        W59091  28.970  30.438   4.771
99996W        W59092  13.660  39.942   2.799
99997W        W59093  43.329  14.325   4.323
99998W        W59094  13.599  36.005   3.860
99999W        W59095  27.146  15.210   2.345
    0W        W59096  25.971  26.102  11.075
    1W        W59097  36.441  32.936   2.746
    2W        W59098  30.651  12.674  14.330
    3W        W59099  43.423   7.323   3.704
    4W        W59100   7.258  16.306   2.779
    5W        W59101  33.454  39.919   1.879
    6W        W59102  20.760   3.827  10.444
    7W        W59103  34.368  31.924   2.758
    8W        W59104  12.126  25.639  10.483
    9W        W59105   8.321  28.522  10.427
   10W        W59106  25.965   7.853  11.970
   11W        W59107  18.269  39.333   0.312
   12W        W59108  28.499  13.746   1.869
   13W        W59109  11.630   6.309   1.246
   14W        W59110  15.249   9.762   0.812
   15W        W59111  18.545  31.621   0.763
   16W        W59112  35.889  41.038   2.259
   17W        W59113  13.225  31.090  12.080
   18W        W59114  32.520  38.941  13.536
   19W        W59115  29.464  39.870  12.467
   20W        W59116  21.540  33.555  14.441
   21W        W59117  10.767  41.028  13.462
   22W        W59118  20.053  35.090  13.515
   23W        W59119  40.026   1.774   4.742
   24W        W59120  44.906  23.536   3.379
   25W        W59121  17.732  34.612  12.976
   26W        W59122   0.307  20.739   3.752
   27W        W59123  25.175  25.066   0.381
   28W        W59124  41.495   9.318   3.823
   29W        W59125  25.692   5.200  14.925
   30W        W59126   6.845  41.950   4.328
   31W        W59127  24.052  41.519  13.063
   32W        W59128  12.622  38.542  12.556
   33W        W59129   0.301  39.364   2.718
   34W        W59130  10.217  18.057  12.562
   35W        W59131  21.044   2.398  11.000
   36W        W59132   1.737  25.613   5.091
   37W        W59133  36.585  22.159  12.909
   38W        W59134  31.525   1.470  14.017
   39W        W59135  24.521  22.505  12.978
   40W        W59136  24.711  15.210  12.398
   41W        W59137  16.301  39.020  13.339
   42W        W59138  23.545  38.411   1.695
   43W        W59139  36.390  13.810   5.188
   44W        W59140  19.758   7.864  10.005
   45W        W59141  39.482  43.016   4.702
   46W        W59142  10.666  38.564   1.248
   47W        W59143  20.747  21.041   0.860
   48W        W59144   4.212  35.917  13.386
   49W        W59145  33.399  11.622  10.545
   50W        W59146  39.428  23.675  14.384
   51W        W59147   1.335  33.085   1.709
   52W        W59148  44.956  41.510  14.785
   53W        W59149  37.063  15.147   1.751
   54W        W59150  32.569  40.964  14.847
   55W        W59151  21.565  30.952  11.047
   56W        W59152  21.038  18.728   4.350
   57W        W59153  25.050  18.581   0.432
   58W        W59154  10.705  40.848   0.895
   59W        W59155  34.604  28.084   4.644
   60W        W59156  12.666  23.989  12.053
   61W        W59157  39.450  38.496   2.756
   62W        W59158  12.748  23.097  14.325
   63W        W59159  16.301  10.705  11.445
   64W        W59160  29.065  38.544  10.412
   65W        W59161  22.167  18.210   2.419
   66W        W59162  13.294  13.346  11.087
   67W        W59163  40.932  20.037   4.256
   68W        W59164  33.963   9.192   4.167
   69W        W59165  13.240  41.519  11.902
   70W        W59166  34.063  14.828   9.460
   71W        W59167   2.337  44.846   2.892
   72W        W59168  27.648  38.825  12.974
   73W        W59169  30.547  42.962   3.718
   74W        W59170  32.096  33.576  10.131
   75W        W59171   3.725  33.420  13.436
   76W        W59172  34.555   8.322  11.007
   77W        W59173   4.290  34.089  10.443
   78W        W59174  20.662  39.874  12.489
   79W        W59175   0.807   6.904  14.908
   80W        W59176  31.952  31.527  13.964
   81W        W59177  36.413  14.327   5.191
   82W        W59178   0.885  21.558  10.612
   83W        W59179   6.195   2.750  14.354
   84W        W59180  19.123  28.641   0.925
   85W        W59181  18.707   2.462   0.391
   86W        W59182   8.361   7.911  13.387
   87W        W59183  42.877  36.360   1.403
   88W        W59184  33.083   6.839  11.404
   89W        W59185  44.882   9.205  11.925
   90W        W59186  16.203  21.081   3.150
   91W        W59187  41.965   9.819   2.898
   92W        W59188  42.836   3.374  10.413
   93W        W59189  12.287  40.422  14.859
   94W        W59190  23.998  41.999   1.907
   95W        W59191  31.907  13.779   0.767
   96W        W59192  37.435  13.337   1.816
   97W        W59193   4.350  12.692   3.867
   98W        W59194   0.872  32.064  12.878
   99W        W59195  32.497  23.081   1.723
  100W        W59196  10.226  24.182   9.999
  101W        W59197  44.302  29.068   4.691
  102W        W59198  18.752  11.261  13.866
  103W        W59199  35.407  34.064   2.699
  104W        W59200  11.216  24.622  14.427
  105W        W59201  31.485  21.613  11.417
  106W        W59202  15.609  24.019   1.360
  107W        W59203  33.467  16.125  13.470
  108W        W59204  10.145  32.897   3.655
  109W        W59205   9.165  23.023   0.295
  110W        W59206  39.834  21.038  12.409
  111W        W59207  32.615  29.625   3.262
  112W        W59208  10.345  16.744  14.386
  113W        W59209  18.755  43.017   3.848
  114W        W59210  20.605  33.940  13.453
  115W        W59211   8.762  41.414  13.944
  116W        W59212  40.398  18.273   3.297
  117W        W59213  31.434  20.523   3.761
  118W        W59214  31.618  18.611  12.022
  119W        W59215  17.755  37.836   3.368
  120W        W59216  14.683  31.100   4.324
  121W        W59217   2.802  40.323  14.932
  122W        W59218  20.136  24.543  13.446
  123W        W59219  26.205   6.215   0.865
  124W        W59220  24.722  40.936  11.590
  125W        W59221  15.205  33.075   4.824
  126W        W59222   1.268  38.560  11.598
  127W        W59223   9.299  17.188   1.381
  128W        W59224  31.566   4.377   4.810
  129W        W59225  28.995  21.217   5.190
  130W        W59226  26.554  39.064   3.742
  131W        W59227  27.020   8.687   4.158
  132W        W59228  15.253  33.552  11.068
  133W        W59229  43.359  35.885  12.036
  134W        W59230  15.157  34.417   1.255
  135W        W59231  39.898  16.591  11.871
  136W        W59232  41.467   8.849  12.903
  137W        W59233  38.917  15.313  11.567
  138W        W59234  30.631  29.628  11.429
  139W        W59235  23.071  11.191  12.470
  140W        W59236   8.168  11.166  14.377
  141W        W59237   6.881   2.305   3.356
  142W        W59238  11.765  17.224   2.342
  143W        W59239  24.080  20.135  11.976
  144W        W59240  37.053   3.905  12.910
  145W        W59241  20.055  22.695   4.748
  146W        W59242  23.999   7.356   2.235
  147W        W59243  13.604   0.792  12.471
  148W        W59244  37.443  10.354   2.719
  149W        W59245  11.661   9.312  14.933
  150W        W59246  28.570   5.694   4.670
  151W        W59247  27.026  19.662  13.928
  152W        W59248  23.589  42.002  10.465
  153W        W59249  18.089  34.999   3.190
  154W        W59250   0.315  12.837   1.804
  155W        W59251   8.869  29.074  12.930
  156W        W59252  22.210   3.922  11.540
  157W        W59253   7.402  31.640  13.030
  158W        W59254  41.997  12.264   1.328
  159W        W59255  44.002  17.134   2.859
  160W        W59256   1.388   5.908  13.983
  161W        W59257  27.018  13.772   0.839
  162W        W59258   9.726  15.821   2.360
  163W        W59259  26.548   0.940   1.247
  164W        W59260  13.787  38.859  12.537
  165W        W59261  14.122  43.988  11.422
  166W        W59262  17.586  34.532   1.756
  167W        W59263   5.899  18.141  11.105
  168W        W59264  14.651  24.008  11.960
  169W        W59265  37.445  44.848  13.932
  170W        W59266   9.324  39.816  13.967
  171W        W59267  43.464   3.872   1.211
  172W        W59268   4.879  36.865   0.770
  173W        W59269   1.376  27.610  13.013
  174W        W59270  14.636  12.823  12.506
  175W        W59271  10.828  30.559  14.303
  176W        W59272  15.755  11.147   1.793
  177W        W59273  33.030  27.646  14.910
  178W        W59274   5.399  44.273   3.157
  179W        W59275  26.463  27.018  13.015
  180W        W59276  33.622  14.678   5.713
  181W        W59277  39.903   1.885   2.662
  182W        W59278  36.003  31.415   3.353
  183W        W59279  11.355   4.760  11.490
  184W        W59280  40.053  24.012   1.328
  185W        W59281   7.231   3.407   0.266
  186W        W59282  24.020  32.890  10.966
  187W        W59283  43.785  18.074   4.629
  188W        W59284  24.497  37.359   2.859
  189W        W59285   9.713  42.937  14.976
  190W        W59286  37.042  37.462  13.507
  191W        W59287   3.427  40.472  13.027
  192W        W59288  13.818  19.697  11.109
  193W        W59289   2.339  34.948   3.665
  194W        W59290  16.108  35.064  14.358
  195W        W59291  32.616  16.683  14.868
  196W        W59292   9.840  14.217  14.005
  197W        W59293   5.912  16.624   1.413
  198W        W59294  19.101  39.874   9.589
  199W        W59295   1.864  14.614  11.542
  200W        W59296  29.106  12.352  11.593
  201W        W59297  25.627  16.241  11.901
  202W        W59298  18.078   7.878  12.936
  203W        W59299   2.761   2.252   4.267
  204W        W59300  41.898  42.495   1.381
  205W        W59301   6.878  37.021   0.328
  206W        W59302   1.481  20.273  12.391
  207W        W59303  25.220  34.610   4.145
  208W        W59304   3.364  12.656   0.475
  209W        W59305  12.615  37.432  10.980
  210W        W59306   9.317   2.750  13.336
  211W        W59307   0.277  21.546   0.471
  212W        W59308  26.663  43.776  13.311
  213W        W59309   2.315  39.929   4.243
  214W        W59310  34.563  12.819   4.150
  215W        W59311  12.748  43.282  12.435
  216W        W59312  37.365  35.985   4.775
  217W        W59313  30.482  11.322   1.863
  218W        W59314  26.966  14.276   4.745
  219W        W59315  25.695  25.158  12.522
  220W        W59316  30.593  31.568  14.394
  221W        W59317   8.838  44.289  14.288
  222W        W59318  26.691  17.154   1.712
  223W        W59319  43.378   3.914  10.618
  224W        W59320  25.518  24.716  11.958
  225W        W59321  28.973  28.489  13.881
  226W        W59322  33.977  20.752   4.275
  227W        W59323  28.574  23.107   1.819
  228W        W59324   2.932   0.463  11.472
  229W        W59325  28.010  27.043  12.517
  230W        W59326  24.576  35.438   3.768
  231W        W59327  29.167  42.519   0.735
  232W        W59328  44.825  32.550   0.824
  233W        W59329  36.989  30.098   4.675
  234W        W59330  43.442  36.950   0.773
  235W        W59331   4.749  27.040   2.390
  236W        W59332  37.433  10.744   3.813
  237W        W59333   3.738  40.354  11.121
  238W        W59334   9.837  44.954   1.798
  239W        W59335   0.878  21.652   3.271
  240W        W59336  13.303  23.650   3.687
  241W        W59337  15.641  13.111  13.396
  242W        W59338  36.879  29.145   4.617
  243W        W59339   9.658  22.726   1.758
  244W        W59340   9.308  31.913   0.925
  245W        W59341   2.741  10.667   3.381
  246W        W59342  14.214   2.907  13.525
  247W        W59343  23.050  35.506   3.850
  248W        W59344  40.331  14.801   3.852
  249W        W59345  31.006  23.675  14.355
  250W        W59346  25.190  25.490   2.844
  251W        W59347  23.188  11.368   4.683
  252W        W59348  32.123  23.069  13.429
  253W        W59349   2.816  44.277  13.456
  254W        W59350  23.065   8.836   0.778
  255W        W59351   9.184  30.152  12.445
  256W        W59352   0.818  20.067  14.398
  257W        W59353  42.980  37.079   1.299
  258W        W59354   8.690  35.892  11.403
  259W        W59355  17.226  10.295   1.332
  260W        W59356  44.769  27.066  14.363
  261W        W59357  11.314  43.012  12.505
  262W        W59358  34.484  19.122   1.724
  263W        W59359  37.945   4.772   2.718
  264W        W59360  33.459   8.771   3.369
  265W        W59361   0.780  13.288  10.438
  266W        W59362   2.312  39.058   2.782
  267W        W59363  14.720  20.767   3.734
  268W        W59364  22.541   8.240   2.315
  269W        W59365   2.735  42.968   1.287
  270W        W59366  27.004   4.217  13.876
  271W        W59367  12.632  15.218  10.582
  272W        W59368  31.541   7.328   4.762
  273W        W59369  19.050  37.042   0.464
  274W        W59370  23.718  14.720  12.413
  275W        W59371   0.773  34.502  14.487
  276W        W59372  26.010  30.091  11.597
  277W        W59373  12.680  33.459  10.921
  278W        W59374  44.504  33.952  11.093
  279W        W59375  29.585   3.946   4.333
  280W        W59376   2.732  34.050  11.976
  281W        W59377  19.189  28.560  12.948
  282W        W59378  25.065  14.299   3.271
  283W        W59379   8.682   3.939   0.326
  284W        W59380  43.273  10.712   2.285
  285W        W59381  38.394   4.325  10.892
  286W        W59382  38.051  23.722  14.806
  287W        W59383  10.284  21.621   3.691
  288W        W59384  10.214  11.681   1.220
  289W        W59385   1.780  18.143   4.788
  290W        W59386  28.020   5.256   2.715
  291W        W59387  30.934  32.585   1.213
  292W        W59388  14.259  42.930  11.934
  293W        W59389  34.927  31.586   4.213
  294W        W59390  19.276  29.503  11.512
  295W        W59391  17.620  27.592   3.769
  296W        W59392   2.282  16.717  13.315
  297W        W59393  16.308  23.141   0.835
  298W        W59394  31.612   7.859  10.975
  299W        W59395  43.270  21.201   2.893
  300W        W59396  42.928  32.392  14.453
  301W        W59397   7.890  36.578  11.429
  302W        W59398  27.492   4.756  14.011
  303W        W59399  34.002   7.382   0.339
  304W        W59400   8.815  40.431   2.202
  305W        W59401  43.862   7.813   1.703
  306W        W59402  10.252  37.970   1.451
  307W        W59403  14.323  41.944  11.984
  308W        W59404   7.307   6.373  13.801
  309W        W59405  24.694   3.868   2.339
  310W        W59406  17.634  21.630   1.393
  311W        W59407  15.227   1.952  12.880
  312W        W59408  18.061  13.203  11.611
  313W        W59409   9.786   8.241   2.833
  314W        W59410  12.759  34.492  11.400
  315W        W59411   5.287  17.792   4.158
  316W        W59412  21.630  20.651  10.916
  317W        W59413  22.693  10.293  10.553
  318W        W59414  17.697  37.928  11.379
  319W        W59415  16.755  36.053  14.395
  320W        W59416  37.023  31.980   3.211
  321W        W59417   5.905  29.136  10.537
  322W        W59418  12.712  17.780  12.900
  323W        W59419   1.355  17.132  14.027
  324W        W59420  14.630  42.859  11.861
  325W        W59421   9.176  25.660  14.453
  326W        W59422  40.989   6.344  13.042
  327W        W59423  22.522  26.173  11.518
  328W        W59424   3.300  33.075  12.002
  329W        W59425  41.528  20.524   4.159
  330W        W59426   3.888   4.371   3.381
  331W        W59427   3.809  30.913  13.058
  332W        W59428  37.572  10.838   1.419
  333W        W59429  43.977   3.892   3.710
  334W        W59430  29.949  19.695   3.764
  335W        W59431   1.407  39.837  12.472
  336W        W59432  14.298  34.113  13.369
  337W        W59433  22.247   5.808  11.863
  338W        W59434   5.302  36.955  14.331
  339W        W59435   3.391  24.712  14.950
  340W        W59436  21.130  31.937   2.398
  341W        W59437  11.214  21.246  13.058
  342W        W59438  27.635  42.525   0.794
  343W        W59439  24.168  25.120   4.810
  344W        W59440   0.922  18.673   2.707
  345W        W59441   8.695  18.549   0.355
  346W        W59442   4.926   4.905   4.244
  347W        W59443  25.098  40.821  14.282
  348W        W59444   9.372  21.026  11.064
  349W        W59445  24.614   6.205   4.198
  350W        W59446  28.968   5.439  14.883
  351W        W59447   3.723  11.682   3.744
  352W        W59448  28.035   8.682   0.397
  353W        W59449  30.126  18.611   1.265
  354W        W59450  31.463   8.763  12.549
  355W        W59451  23.661  24.592  13.846
  356W        W59452  25.178  43.461   3.287
  357W        W59453  37.942  25.004   5.186
  358W        W59454  44.498   7.246   2.287
  359W        W59455  13.776  37.386   0.886
  360W        W59456  13.186  20.740   0.281
  361W        W59457  41.941  21.750   3.317
  362W        W59458  16.651  27.595  13.330
  363W        W59459  26.985   0.418   0.462
  364W        W59460  28.173  35.896   1.896
  365W        W59461  36.573  39.555   2.273
  366W        W59462   1.470  37.478  11.068
  367W        W59463   7.761  44.765  14.385
  368W        W59464   5.822  40.405  13.517
  369W        W59465  18.661  13.841  13.984
  370W        W59466  16.119  28.613  11.940
  371W        W59467  27.515  25.976  12.905
  372W        W59468   9.273  27.075  14.375
  373W        W59469  32.009  31.600   0.923
  374W        W59470  28.572   2.340  11.606
  375W        W59471  27.481  32.015  12.867
  376W        W59472  44.905   3.246   1.770
  377W        W59473  28.124  23.631   0.366
  378W        W59474  18.061  30.111   1.223
  379W        W59475  10.141  29.006   2.746
  380W        W59476  29.118   8.228  13.400
  381W        W59477  19.672  42.886   4.311
  382W        W59478  20.690  44.008  14.433
  383W        W59479  27.040   4.425  12.415
  384W        W59480   5.388  42.925   3.376
  385W        W59481  25.601  41.797  11.447
  386W        W59482   1.312  13.766   2.302
  387W        W59483  24.141  44.821  13.517
  388W        W59484   8.165  29.493   3.656
  389W        W59485  28.589  32.026  11.527
  390W        W59486  26.976  31.104  10.590
  391W        W59487   1.938  27.476  14.006
  392W        W59488  33.111   9.823  12.887
  393W        W59489  17.594  29.950   0.390
  394W        W59490  15.088  30.108   5.240
  395W        W59491  34.443  33.609  13.521
  396W        W59492  22.075   4.447  11.111
  397W        W59493  43.484  40.547   1.341
  398W        W59494  39.382  35.962  14.967
  399W        W59495   7.364  13.605   3.671
  400W        W59496  25.600  30.488  14.310
  401W        W59497  12.649  13.666  12.944
  402W        W59498  23.603  42.887  12.869
  403W        W59499  34.048   2.322  13.347
  404W        W59500  18.130   8.783  12.907
  405W        W59501  21.751  36.472  13.507
  406W        W59502  18.102  36.002  14.440
  407W        W59503   6.342  12.728   1.380
  408W        W59504  33.898   5.261   1.211
  409W        W59505  28.559   0.811   1.240
  410W        W59506  12.806  18.600  11.560
  411W        W59507  41.819  39.428  11.425
  412W        W59508  19.594  26.559  14.920
  413W        W59509   4.734   4.218  12.980
  414W        W59510  35.896  40.393  10.974
  415W        W59511  22.163  24.222  11.068
  416W        W59512  14.302  42.499  11.396
  417W        W59513  35.968  35.106  11.582
  418W        W59514   5.912  25.187   2.836
  419W        W59515   6.410  29.978   0.463
  420W        W59516   9.810  39.539  12.572
  421W        W59517   4.868  10.328   1.445
  422W        W59518  42.396   4.235   2.741
  423W        W59519  33.491   3.380  12.996
  424W        W59520   1.891   7.350  11.383
  425W        W59521  36.486   2.802   1.875
  426W        W59522  13.612  26.143   5.203
  427W        W59523   8.880   6.259  14.800
  428W        W59524  36.351  39.348   0.257
  429W        W59525  41.981  33.569  14.408
  430W        W59526  26.073  20.238  11.493
  431W        W59527  32.406  11.318  12.083
  432W        W59528  38.515   0.304  14.498
  433W        W59529   6.679  43.021   0.902
  434W        W59530  29.026  20.170  13.035
  435W        W59531  18.593  23.084   2.330
  436W        W59532   9.830  41.451   0.848
  437W        W59533   2.939  39.375   1.218
  438W        W59534  41.527   7.315   3.337
  439W        W59535  10.380  41.356  14.003
  440W        W59536  37.066  42.830   2.821
  441W        W59537  13.684   1.337  10.614
  442W        W59538   1.389  10.317  14.284
  443W        W59539  23.714  14.164  10.625
  444W        W59540  10.260  39.399   0.451
  445W        W59541  25.600  33.000  13.370
  446W        W59542  18.784  39.038  11.080
  447W        W59543   2.954  21.723  10.513
  448W        W59544   2.835  35.097   3.849
  449W        W59545  10.778  12.615  11.047
  450W        W59546  11.152  22.595  10.936
  451W        W59547  22.684  35.579  11.962
  452W        W59548   2.427  31.437  13.925
  453W        W59549  27.162  22.098   1.790
  454W        W59550  28.620   3.450   0.746
  455W        W59551   9.276  22.195   2.344
  456W        W59552  24.004  44.447   1.757
  457W        W59553  23.657  20.718   0.399
  458W        W59554  16.290   1.969   1.385
  459W        W59555  42.464  15.216  14.828
  460W        W59556  30.652  23.093   3.839
  461W        W59557  19.227  32.068   9.991
  462W        W59558  33.503   5.388   2.722
  463W        W59559  15.800  20.651   1.891
  464W        W59560  20.768  37.984   2.757
  465W        W59561  30.060   8.393  14.951
  466W        W59562   9.370  23.134   9.994
  467W        W59563   7.356  16.685   2.889
  468W        W59564  30.598  18.228   1.809
  469W        W59565  23.129  16.093   4.671
  470W        W59566  17.112  33.886  10.511
  471W        W59567   8.820  17.150   4.211
  472W        W59568  38.862  14.742   2.821
  473W        W59569  28.531   5.781  11.966
  474W        W59570  42.004   1.480   0.807
  475W        W59571   4.870  12.142  10.550
  476W        W59572   8.300  39.990   2.779
  477W        W59573  24.036  32.987   1.760
  478W        W59574   3.362   1.458  10.994
  479W        W59575  10.668  39.363  13.509
  480W        W59576  27.005  27.640  11.534
  481W        W59577  12.325  40.426   4.708
  482W        W59578  24.536  10.356   1.845
  483W        W59579  26.995  42.320  12.562
  484W        W59580  33.451   6.283  14.377
  485W        W59581  38.067  11.209   4.134
  486W        W59582  36.567  11.705   4.779
  487W        W59583  36.517   5.858  14.347
  488W        W59584  43.492   7.195  13.389
  489W        W59585   4.230  43.871   1.210
  490W        W59586  14.761  16.732   3.358
  491W        W59587   8.280  37.934  14.450
  492W        W59588   5.195  10.163   2.773
  493W        W59589  37.461  31.563   3.296
  494W        W59590  25.085  26.552  11.070
  495W        W59591  28.070   7.718   0.459
  496W        W59592  36.957   7.803  11.001
  497W        W59593   5.732  37.043   1.735
  498W        W59594   3.278   7.239   3.707
  499W        W59595  43.014   2.359  12.386
  500W        W59596  26.610  42.385   1.400
  501W        W59597   7.330   6.759  11.440
  502W        W59598  34.879   0.914  13.956
  503W        W59599  18.121  18.740   2.821
  504W        W59600   7.239  43.280   0.392
  505W        W59601   2.911  39.322  12.422
  506W        W59602   8.655  33.884  14.852
  507W        W59603  23.602  10.659   4.258
  508W        W59604  21.711  17.641   3.709
  509W        W59605  18.214  18.748  14.321
  510W        W59606  15.694   2.873  11.475
  511W        W59607  43.949   9.198  12.454
  512W        W59608   7.797  11.148  12.366
  513W        W59609  41.023  40.491   2.674
  514W        W59610  28.451  29.476   1.368
  515W        W59611   8.387  27.010   5.572
  516W        W59612  15.211  41.331  14.291
  517W        W59613  31.446  32.526   2.840
  518W        W59614  38.860  25.497  11.077
  519W        W59615  36.959   8.723   5.619
  520W        W59616  18.643  18.563   1.862
  521W        W59617   5.320  39.552  10.419
  522W        W59618  22.558  32.477   2.315
  523W        W59619  16.183   1.355  12.999
  524W        W59620  17.214  31.461  14.309
  525W        W59621  27.663  31.985   3.734
  526W        W59622  35.495  36.862   0.447
  527W        W59623  29.605  37.418  13.821
  528W        W59624  23.063  41.408   2.780
  529W        W59625  34.604  27.191  13.910
  530W        W59626   4.249   1.847   1.231
  531W        W59627  22.173  14.612  11.385
  532W        W59628  33.611  41.398   0.880
  533W        W59629  19.714  37.466   1.791
  534W        W59630  38.061   8.343  11.879
  535W        W59631  19.241  39.059  13.464
  536W        W59632  37.012   5.904   2.743
  537W        W59633  23.005  19.538  11.562
  538W        W59634  24.975  44.342  11.429
  539W        W59635   0.276   5.390  11.864
  540W        W59636  43.892  10.859   2.250
  541W        W59637  25.009  25.131  14.887
  542W        W59638  44.335  16.681  12.955
  543W        W59639  33.422   1.260   0.910
  544W        W59640  23.624   2.354   1.728
  545W        W59641  31.015   8.747   1.849
  546W        W59642  44.308  16.704   1.886
  547W        W59643   5.858  44.495  13.325
  548W        W59644  27.604  32.636   3.788
  549W        W59645  25.593  13.146   2.815
  550W        W59646  17.604  15.675  12.077
  551W        W59647  45.000  18.159  13.884
  552W        W59648   5.760  39.957  10.600
  553W        W59649  35.539  39.880  13.307
  554W        W59650  39.971  40.451   2.773
  555W        W59651  44.942  12.640   2.679
  556W        W59652  30.419  30.474  12.441
  557W        W59653  26.471   5.786   0.815
  558W        W59654  21.258  19.082   1.341
  559W        W59655   9.274  17.178  11.556
  560W        W59656  13.615  26.578   5.313
  561W        W59657   6.787   4.254   3.237
  562W        W59658  28.609   4.844   4.341
  563W        W59659  17.218  15.145   1.864
  564W        W59660   7.198  31.938   5.116
  565W        W59661  32.610  30.436   4.610
  566W        W59662  38.034  39.498  12.366
  567W        W59663  44.849  36.844   3.781
  568W        W59664  20.717  29.952   2.820
  569W        W59665  18.275  34.024   2.820
  570W        W59666   0.472  25.025   1.754
  571W        W59667  22.040  25.654   3.383
  572W        W59668  18.171  18.226   1.808
  573W        W59669  29.131  25.994   2.398
  574W        W59670  35.961  28.974  12.053
  575W        W59671   2.782   3.926   3.806
  576W        W59672   3.283  36.530  12.434
  577W        W59673   9.786  18.257  14.392
  578W        W59674  23.662  16.703   0.439
  579W        W59675  41.375  19.223   4.307
  580W        W59676  19.748  15.189  10.890
  581W        W59677  18.692  21.512  10.463
  582W        W59678   1.781   8.803   1.439
  583W        W59679  26.516   9.219   5.244
  584W        W59680  17.766  39.034   5.667
  585W        W59681  26.605  29.089   1.895
  586W        W59682  31.535   0.318  14.445
  587W        W59683  37.026  23.098  14.359
  588W        W59684  44.870  43.283   0.760
  589W        W59685  23.630  18.278   0.379
  590W        W59686  30.985  33.103  10.422
  591W        W59687  13.317  44.394   3.192
  592W        W59688  40.512  40.799   3.797
  593W        W59689  15.693  43.277   3.256
  594W        W59690   1.821   0.378   3.710
  595W        W59691  42.458  25.188   1.857
  596W        W59692   2.937  38.947  10.963
  597W        W59693  26.573   9.714   3.255
  598W        W59694   2.339  21.043   1.904
  599W        W59695  21.511  32.065   0.951
  600W        W59696  40.433  33.477   3.206
  601W        W59697  34.472  18.619  13.427
  602W        W59698  35.404  15.796   3.736
  603W        W59699  32.988   6.187   4.695
  604W        W59700  20.042  16.692   3.853
  605W        W59701  35.472  27.042   3.313
  606W        W59702  15.136  22.080  11.992
  607W        W59703  22.608  14.648   4.620
  608W        W59704  37.999  27.040  11.581
  609W        W59705   0.490   9.302  14.435
  610W        W59706  19.650  18.190   2.679
  611W        W59707   9.861  14.803   4.323
  612W        W59708  15.605  41.995   1.307
  613W        W59709  24.677  13.115   2.292
  614W        W59710   1.304  25.120  12.576
  615W        W59711  18.574  27.103  13.460
  616W        W59712  42.381   1.946   4.681
  617W        W59713  35.092  41.416  11.581
  618W        W59714  38.357   0.937  10.956
  619W        W59715  26.562  28.674   4.615
  620W        W59716  39.830  13.788  12.401
  621W        W59717   4.218  32.613  12.929
  622W        W59718  12.250  16.199   3.274
  623W        W59719  17.614  24.207   3.243
  624W        W59720  36.429  12.712   0.377
  625W        W59721  32.133   3.944   4.152
  626W        W59722  18.277  33.011  10.950
  627W        W59723  27.968  14.711   1.887
  628W        W59724  17.752  36.408   1.833
  629W        W59725   9.795  14.635  14.430
  630W        W59726   7.875   2.750  13.035
  631W        W59727  28.997  16.187   0.380
  632W        W59728  35.068  22.073  13.323
  633W        W59729   3.394  31.408  14.032
  634W        W59730  22.090  40.918   4.317
  635W        W59731  38.512  15.622  14.321
  636W        W59732  26.095   4.257  11.958
  637W        W59733  10.197  43.908  12.959
  638W        W59734  11.129  43.017  14.826
  639W        W59735   6.895  13.157  10.914
  640W        W59736  13.764  31.427  13.930
  641W        W59737  24.721   8.842  13.503
  642W        W59738  18.775  31.447  14.956
  643W        W59739  26.663   3.313   3.762
  644W        W59740  44.296   0.389  11.509
  645W        W59741  26.627  31.570   4.713
  646W        W59742  40.982  17.279  12.072
  647W        W59743  43.810  28.616  11.592
  648W        W59744   2.802  15.107   1.901
  649W        W59745   5.325  15.088   1.292
  650W        W59746   4.795  35.037  12.843
  651W        W59747  15.112   8.784  13.798
  652W        W59748  16.612  14.775   3.369
  653W        W59749   7.673  34.941  12.064
  654W        W59750  14.153   8.172  13.920
  655W        W59751  33.018  35.942  10.414
  656W        W59752  32.630   4.861  13.510
  657W        W59753   1.477  36.353   4.663
  658W        W59754   2.353  29.091  12.060
  659W        W59755  36.443  36.399  10.418
  660W        W59756  36.489  10.820   3.361
  661W        W59757  43.418  13.189   0.738
  662W        W59758   6.872  12.767  14.021
  663W        W59759  19.654   5.220   3.738
  664W        W59760  21.532  39.366  11.980
  665W        W59761  22.524  23.654  12.515
  666W        W59762  13.350   7.340   1.750
  667W        W59763  30.073  29.000   2.272
  668W        W59764  36.431  37.057  12.073
  669W        W59765  42.837  27.535   3.228
  670W        W59766  30.580   8.318  12.924
  671W        W59767  16.778  27.030  13.014
  672W        W59768  32.584  12.849   2.750
  673W        W59769   2.748   7.826   4.707
  674W        W59770  34.520  11.223   3.209
  675W        W59771  18.732  41.974   4.208
  676W        W59772  34.581   0.415   2.337
  677W        W59773  43.847  44.383   4.839
  678W        W59774  22.219  32.085  14.438
  679W        W59775  37.410  18.626   3.792
  680W        W59776  18.662   7.843  14.792
  681W        W59777  11.828   6.233  13.465
  682W        W59778  41.316  17.112   4.623
  683W        W59779   2.919  23.148   4.700
  684W        W59780  15.262   4.869  11.946
  685W        W59781  19.224  25.669  11.481
  686W        W59782  13.168  38.004   0.255
  687W        W59783  31.465  17.793   2.717
  688W        W59784  28.150  41.516   4.241
  689W        W59785   4.391  13.289   0.779
  690W        W59786   7.776  12.281  13.480
  691W        W59787  30.020  34.579   3.324
  692W        W59788  42.386  32.576   2.830
  693W        W59789  41.918  25.676  14.401
  694W        W59790  17.183  28.519  14.430
  695W        W59791  30.153   0.764   0.452
  696W        W59792  21.169  25.083  11.923
  697W        W59793  10.779   0.401   2.256
  698W        W59794  41.432  28.147  13.508
  699W        W59795  28.478   4.321  12.396
  700W        W59796  42.490  41.296   1.832
  701W        W59797  26.177  44.883  14.019
  702W        W59798  23.087   4.884  11.047
  703W        W59799  18.741  12.237   2.801
  704W        W59800   3.260  10.688   1.345
  705W        W59801  39.487  37.530   5.215
  706W        W59802  38.429  10.837  10.053
  707W        W59803  23.736  12.826   3.168
  708W        W59804  36.549  32.894   4.265
  709W        W59805  18.613   5.306   2.719
  710W        W59806  25.106  27.677   0.883
  711W        W59807  34.882  11.153   9.448
  712W        W59808  18.225  42.837  10.492
  713W        W59809   1.460  28.633   4.724
  714W        W59810   5.707  22.016   2.868
  715W        W59811  32.010   4.756  11.967
  716W        W59812   8.861  32.594  12.374
  717W        W59813  21.126  20.654   1.375
  718W        W59814  14.651  27.629  12.878
  719W        W59815   8.271  29.491   2.878
  720W        W59816  23.735  11.719   2.407
  721W        W59817  30.061  11.305   4.326
  722W        W59818  35.996  43.921   1.725
  723W        W59819  39.955  26.684   3.764
  724W        W59820  12.310   3.406   3.777
  725W        W59821  22.014  25.492  12.992
  726W        W59822  22.618  37.574   3.683
  727W        W59823  12.626  23.059   4.759
  728W        W59824   5.701   8.311  11.545
  729W        W59825   7.362   1.258   2.290
  730W        W59826  23.094  25.652  10.508
  731W        W59827  13.682  35.018   2.332
  732W        W59828  37.358  18.055  13.534
  733W        W59829  31.496  30.078   0.385
  734W        W59830   3.777   3.340   9.950
  735W        W59831   7.872  22.611   0.345
  736W        W59832  15.727  34.609   3.722
  737W        W59833   3.457  12.695  14.867
  738W        W59834  13.211  27.046   4.638
  739W        W59835  32.968  39.833  13.891
  740W        W59836   4.279   3.872   4.309
  741W        W59837   7.403   3.384  14.398
  742W        W59838  40.984  13.310  10.070
  743W        W59839  33.503   5.786  10.532
  744W        W59840  16.705  23.086  10.952
  745W        W59841  15.759  33.885   4.303
  746W        W59842  44.331  20.132   1.856
  747W        W59843  25.121  42.518   1.802
  748W        W59844   3.314   6.727  12.003
  749W        W59845   3.881  40.958  12.542
  750W        W59846  12.646  10.225   4.316
  751W        W59847  26.697   5.339  13.345
  752W        W59848  19.175  32.088   4.653
  753W        W59849  29.593  34.396  13.427
  754W        W59850  13.647  19.733  13.546
  755W        W59851  14.695   3.398  10.457
  756W        W59852  21.112  35.565   2.276
  757W        W59853  16.753  37.522   2.397
  758W        W59854  43.878  40.397   4.626
  759W        W59855  37.857  25.535   4.771
  760W        W59856   6.262  11.759   2.350
  761W        W59857  33.379  26.184  14.867
  762W        W59858  29.639  12.737   0.835
  763W        W59859  44.261  42.791  10.570
  764W        W59860  35.894  38.834   2.757
  765W        W59861  30.539  17.252  14.975
  766W        W59862  24.153  32.034   2.725
  767W        W59863  30.151  36.473   3.357
  768W        W59864  41.511  20.211  12.014
  769W        W59865  23.667  22.015  14.931
  770W        W59866   6.697   7.242   1.765
  771W        W59867  25.024  12.767  10.920
  772W        W59868  33.907  15.234   5.165
  773W        W59869  28.154  41.333   0.823
  774W        W59870  31.508  39.998   0.428
  775W        W59871  12.711   0.852  12.043
  776W        W59872   1.251  19.098  14.011
  777W        W59873  35.889  14.656   0.773
  778W        W59874  38.040  22.570   3.382
  779W        W59875   2.954  28.627   2.347
  780W        W59876  20.696  31.585  13.987
  781W        W59877   8.319  41.537  13.045
  782W        W59878  40.927   6.313  13.791
  783W        W59879   9.812   0.982  11.873
  784W        W59880  20.233  18.176   3.282
  785W        W59881  34.509  34.949  11.504
  786W        W59882  43.975  26.478  12.498
  787W        W59883  38.410   6.832  14.844
  788W        W59884  17.112  16.740  13.456
  789W        W59885  41.489  12.663  14.839
  790W        W59886  15.610  29.424   1.810
  791W        W59887  31.537   0.866   2.820
  792W        W59888  42.865   5.382  13.411
  793W        W59889   1.472  29.542  11.584
  794W        W59890   0.978  16.093   0.370
  795W        W59891  16.699   6.325  11.478
  796W        W59892  17.651  39.983  11.055
  797W        W59893  38.835   1.253   1.326
  798W        W59894  34.547  31.017   2.744
  799W        W59895  26.644  32.520   0.470
  800W        W59896   1.403  37.548  14.275
  801W        W59897  19.044  29.134   4.615
  802W        W59898  44.807  31.439   1.398
  803W        W59899   8.298  16.691  11.382
  804W        W59900   9.859  29.091  11.989
  805W        W59901  12.657  14.715   1.378
  806W        W59902  27.451  15.301   2.816
  807W        W59903  30.547  32.990   2.748
  808W        W59904  41.849   2.342  13.965
  809W        W59905  38.880   1.468   1.826
  810W        W59906   5.876  38.523   4.342
  811W        W59907  11.666  16.309  14.815
  812W        W59908  41.452  19.212  12.003
  813W        W59909  30.584  25.690  12.908
  814W        W59910   2.868  26.187   3.205
  815W        W59911  41.843  27.070   2.385
  816W        W59912   4.253  40.974  12.341
  817W        W59913  37.038  39.394  13.822
  818W        W59914  30.642  24.501   9.960
  819W        W59915  29.480   7.363   2.374
  820W        W59916   4.293  23.660   1.853
  821W        W59917  42.870   3.295  14.792
  822W        W59918   5.439  35.360  11.414
  823W        W59919  31.629   8.377  12.976
  824W        W59920  38.036  43.459  10.599
  825W        W59921  29.063  41.536  14.856
  826W        W59922  33.037  22.152  12.962
  827W        W59923  18.149   9.871  14.920
  828W        W59924  29.025  35.367   2.799
  829W        W59925  43.277  34.494  10.504
  830W        W59926  22.523  24.027  10.554
  831W        W59927  29.172  33.545   0.421
  832W        W59928  18.105  32.422   0.413
  833W        W59929  27.949  21.141  12.548
  834W        W59930  42.003  24.532   4.766
  835W        W59931   3.852   0.889   4.636
  836W        W59932  22.619  19.695   1.391
  837W        W59933   4.722  41.403  12.950
  838W        W59934  44.490  40.332  14.819
  839W        W59935  32.463   7.235   0.370
  840W        W59936  31.954   1.253   1.449
  841W        W59937  39.024  27.123   2.399
  842W        W59938   6.283  25.983   2.735
  843W        W59939  26.962  42.847   4.641
  844W        W59940  42.817   8.786   1.828
  845W        W59941  19.718  29.449   5.173
  846W        W59942  36.440   8.746   2.689
  847W        W59943  42.976  42.876  12.515
  848W        W59944   8.755  38.823   1.295
  849W        W59945  28.593  27.114  12.925
  850W        W59946   4.796  42.790   0.277
  851W        W59947  30.613  39.498  14.933
  852W        W59948   7.727  40.491   2.416
  853W        W59949  43.935  18.108  14.824
  854W        W59950  12.764  25.099   5.167
  855W        W59951  29.097  19.283   3.245
  856W        W59952  39.393  33.999   1.885
  857W        W59953   1.324  32.076   2.198
  858W        W59954   9.327   1.864   3.254
  859W        W59955  18.708  33.894  14.453
  860W        W59956  19.063  44.885   0.823
  861W        W59957  30.510  39.943  14.029
  862W        W59958  16.238  37.361   3.791
  863W        W59959   5.783  23.555   2.825
  864W        W59960   7.226  14.330   1.911
  865W        W59961  33.054  25.984   4.712
  866W        W59962  38.936   5.271   1.904
  867W        W59963  13.784  31.949  12.860
  868W        W59964  32.392   8.217  12.956
  869W        W59965  12.632  20.656   1.427
  870W        W59966  14.688  21.564   4.707
  871W        W59967   6.800  27.016   3.671
  872W        W59968  28.525   3.368   4.114
  873W        W59969   6.424  13.153  13.954
  874W        W59970  32.988  12.167   4.269
  875W        W59971  10.643  30.025   3.192
  876W        W59972  11.315  21.541  13.853
  877W        W59973  39.453  12.292  13.929
  878W        W59974  40.306  36.488  12.928
  879W        W59975  39.897   7.307   4.335
  880W        W59976  18.690  14.765   0.303
  881W        W59977   2.376  31.436   4.219
  882W        W59978  26.612  18.749  14.858
  883W        W59979   3.880  31.931   4.260
  884W        W59980  39.448  23.668  14.915
  885W        W59981  37.470  16.784   0.454
  886W        W59982  15.106  40.332   0.355
  887W        W59983  30.140   8.269  13.432
  888W        W59984   2.259  19.113  12.464
  889W        W59985  17.695  14.678   0.779
  890W        W59986  39.019  43.817  11.957
  891W        W59987  36.583  25.111   1.414
  892W        W59988   9.236  18.729   4.813
  893W        W59989  13.156  28.151  13.405
  894W        W59990   3.328   2.366   2.859
  895W        W59991  14.627   9.731  12.084
  896W        W59992  33.114  27.044   0.330
  897W        W59993  27.608   9.161   2.698
  898W        W59994  38.345  39.383  14.365
  899W        W59995  35.059  11.675  13.878
  900W        W59996  34.115  42.020  12.073
  901W        W59997   4.449  23.095   1.328
  902W        W59998   2.761  13.823  13.395
  903W        W59999  24.526  29.589   2.754
  904W        W60000  22.181  21.545   3.227
  905W        W60001  41.299  20.266   1.410
  906W        W60002  22.109  16.191   2.689
  907W        W60003  11.669  41.453  12.984
  908W        W60004  39.000  10.640   3.229
  909W        W60005   0.820  31.054  10.537
  910W        W60006  17.256  28.028  12.917
  911W        W60007  23.618  14.305   3.261
  912W        W60008  11.284   7.282   4.617
  913W        W60009  11.285  13.134  12.485
  914W        W60010  36.057   5.237  14.464
  915W        W60011  27.016  43.875   0.264
  916W        W60012  41.501   6.261  12.007
  917W        W60013  37.539  35.022   3.183
  918W        W60014  34.998  29.070  12.406
  919W        W60015  18.569  32.001  12.867
  920W        W60016  15.771   1.383  14.497
  921W        W60017  13.259  26.526   4.159
  922W        W60018  33.611  42.450   4.307
  923W        W60019  38.031  44.822  10.467
  924W        W60020  13.715   5.791  10.445
  925W        W60021  11.199  11.684  12.925
  926W        W60022  10.846  43.463   3.176
  927W        W60023  32.569  32.935  12.929
  928W        W60024  36.973  33.560  14.328
  929W        W60025   0.898  30.433   3.759
  930W        W60026  31.627  31.423   1.396
  931W        W60027  31.641  12.126   2.882
  932W        W60028   7.357   0.328  14.825
  933W        W60029  29.608  39.369  12.090
  934W        W60030  19.555  14.186   3.669
  935W        W60031  39.443  22.537  14.933
  936W        W60032   4.886  38.999  11.885
  937W        W60033  42.781  25.187   3.820
  938W        W60034  38.365  33.409   2.712
  939W        W60035  22.145  12.792  14.301
  940W        W60036  29.960   7.686  13.954
  941W        W60037  17.787  31.062   1.342
  942W        W60038  17.746  42.015  14.431
  943W        W60039  11.850  12.756   5.085
  944W        W60040  36.550  42.292   3.291
  945W        W60041   9.293   9.243   4.133
  946W        W60042  21.601  32.964  13.844
  947W        W60043   7.386  32.021  12.923
  948W        W60044  34.109   4.874   3.249
  949W        W60045  39.455  40.537  13.964
  950W        W60046  23.134  44.844   3.787
  951W        W60047  10.780  28.648  13.491
  952W        W60048  26.633  26.577   3.153
  953W        W60049  22.143  43.898  12.838
  954W        W60050  16.671  13.813  14.941
  955W        W60051  16.779   3.383  13.028
  956W        W60052  40.032  28.137   1.709
  957W        W60053   7.819  22.546  14.787
  958W        W60054  20.118  13.153  13.834
  959W        W60055   6.884  41.024  12.387
  960W        W60056  23.523  17.195   0.304
  961W        W60057  33.401  37.049   4.184
  962W        W60058  18.181  41.454   1.722
  963W        W60059  22.251  30.590  12.927
  964W        W60060  29.060  20.262   4.686
  965W        W60061  29.948  38.959  10.554
  966W        W60062  34.587   7.667   1.934
  967W        W60063  14.212  32.578  14.507
  968W        W60064   8.675  42.999   2.224
  969W        W60065  27.949  36.486  12.405
  970W        W60066  20.630  30.490  11.472
  971W        W60067  39.962  27.636   0.463
  972W        W60068  32.927  23.230  13.958
  973W        W60069  34.394  11.726   0.289
  974W        W60070   1.376  39.959   0.955
  975W        W60071  19.276  34.980  10.968
  976W        W60072   4.747  40.536  14.850
  977W        W60073  21.063   7.324  13.530
  978W        W60074  10.876  14.257  11.456
  979W        W60075  44.996  12.676  11.975
  980W        W60076  44.863  38.978   1.778
  981W        W60077   6.866  31.534   0.420
  982W        W60078  38.328  24.011  14.483
  983W        W60079  40.379  32.467  14.764
  984W        W60080  42.804  40.860  14.795
  985W        W60081  14.811  42.856  14.814
  986W        W60082  29.160   2.907  11.943
  987W        W60083  10.715  33.084  12.048
  988W        W60084  18.610  15.822   3.264
  989W        W60085  43.878  23.676  13.457
  990W        W60086  30.958   3.402   1.745
  991W        W60087  33.533  17.737  14.318
  992W        W60088  13.342   9.363  12.044
  993W        W60089  42.918  34.558  13.352
  994W        W60090  35.952  25.599  12.562
  995W        W60091  30.036  12.125  14.888
  996W        W60092   1.337   7.343  12.912
  997W        W60093  34.472   9.334  10.438
  998W        W60094   4.708  44.915  11.550
  999W        W60095  35.379  20.177   0.815
 1000W        W60096  36.865  31.586   4.213
 1001W        W60097  35.977  14.750   4.114
 1002W        W60098  32.420  27.986   3.864
 1003W        W60099  37.936  13.185  14.438
 1004W        W60100  37.455  17.713  13.805
 1005W        W60101   3.896   5.911  11.941
 1006W        W60102  18.278  43.398   4.686
 1007W        W60103   8.784  22.040  11.598
 1008W        W60104  11.786  39.841  10.948
 1009W        W60105  39.019  15.320  13.445
 1010W        W60106  30.026   5.422   3.721
 1011W        W60107  34.478  33.555   1.847
 1012W        W60108  32.434  44.932  12.505
 1013W        W60109  15.600   4.281   0.286
 1014W        W60110   6.421  22.573   4.765
 1015W        W60111  16.147   5.696  11.014
 1016W        W60112  42.326  35.515  12.838
 1017W        W60113   9.291  21.019  14.279
 1018W        W60114  26.615   4.297  11.983
 1019W        W60115  19.055  40.430   3.779
 1020W        W60116  21.147   9.265   1.263
 1021W        W60117  22.698   0.395  13.941
 1022W        W60118  30.091  17.202   3.654
 1023W        W60119   1.963   3.436   3.641
 1024W        W60120  23.643  18.089  14.847
 1025W        W60121  43.877  43.511  13.430
 1026W        W60122   2.902  38.465  11.499
 1027W        W60123  32.409  35.469   0.740
 1028W        W60124  33.441   2.753  11.522
 1029W        W60125  13.794  37.417  10.452
 1030W        W60126  22.181  20.198   4.262
 1031W        W60127  13.724  18.212  11.601
 1032W        W60128   6.680  27.478  10.105
 1033W        W60129  16.221   7.801  13.059
 1034W        W60130   6.292  38.946   3.785
 1035W        W60131  16.095  40.839   3.380
 1036W        W60132  28.985  24.723  14.341
 1037W        W60133  11.851   7.187   2.262
 1038W        W60134  11.756  34.023  13.441
 1039W        W60135  24.055  26.095   1.933
 1040W        W60136  27.627  21.178   2.200
 1041W        W60137  16.158  17.770   4.325
 1042W        W60138   2.824  33.011  10.898
 1043W        W60139  40.868   7.283   0.846
 1044W        W60140   3.338  13.262   1.354
 1045W        W60141   5.744  34.564  12.891
 1046W        W60142  18.077  16.692  13.425
 1047W        W60143  12.658  40.951  14.309
 1048W        W60144  17.756  37.022   3.345
 1049W        W60145   8.818   5.720  10.442
 1050W        W60146   3.421  23.065   4.208
 1051W        W60147  20.582  19.284  11.876
 1052W        W60148  26.603  32.448  14.343
 1053W        W60149  31.004  27.685  10.644
 1054W        W60150  23.639  31.531  12.858
 1055W        W60151  42.023  31.130   1.765
 1056W        W60152  17.621   5.728  14.951
 1057W        W60153  18.112  19.657  13.361
 1058W        W60154   0.272   7.188  10.643
 1059W        W60155  22.582   9.877  13.481
 1060W        W60156   6.367  31.584   4.346
 1061W        W60157  29.114  15.815   0.880
 1062W        W60158  31.999  41.503  14.331
 1063W        W60159  36.005   8.799  11.983
 1064W        W60160   8.266   6.851  12.504
 1065W        W60161  32.098  37.440  12.002
 1066W        W60162   0.475  30.476   0.951
 1067W        W60163  29.493  12.264   2.312
 1068W        W60164   5.804   4.899  13.024
 1069W        W60165  15.583  42.488  11.026
 1070W        W60166  38.829  23.520   3.664
 1071W        W60167  34.374  40.409  10.537
 1072W        W60168  16.701   6.370  12.836
 1073W        W60169  22.041  33.557   4.747
 1074W        W60170  38.398  16.657   3.735
 1075W        W60171  16.078  26.522   0.879
 1076W        W60172  16.725  42.361  14.402
 1077W        W60173   7.323  17.564   0.736
 1078W        W60174  36.033  34.592  10.417
 1079W        W60175   9.686  39.334   2.198
 1080W        W60176  28.950  22.007   3.854
 1081W        W60177  14.206  12.350   3.193
 1082W        W60178  32.409  18.167   4.294
 1083W        W60179  36.494   4.772   9.940
 1084W        W60180  28.170   5.211  11.550
 1085W        W60181   2.295  31.625  11.021
 1086W        W60182   0.761  36.927   0.778
 1087W        W60183  23.554  28.977   1.770
 1088W        W60184  30.433   5.259  12.491
 1089W        W60185   8.831  29.498  12.552
 1090W        W60186  35.536   4.772  11.977
 1091W        W60187   2.866  18.789   1.301
 1092W        W60188  31.113   5.722  14.914
 1093W        W60189  37.878  35.502   2.250
 1094W        W60190  29.102  13.136   0.800
 1095W        W60191  42.942  41.825  13.371
 1096W        W60192  10.729  17.083   0.327
 1097W        W60193  18.187   8.257  10.436
 1098W        W60194  11.265  14.625  11.963
 1099W        W60195  31.944  36.002  14.368
 1100W        W60196  34.571  17.161  10.470
 1101W        W60197  43.465  41.306   0.250
 1102W        W60198   5.295  36.436   0.762
 1103W        W60199   5.271  37.029   2.301
 1104W        W60200  26.963  21.214  10.439
 1105W        W60201  39.537  42.993   1.319
 1106W        W60202  11.824  42.884   5.211
 1107W        W60203  10.221  32.583   2.293
 1108W        W60204  32.937   3.374  13.994
 1109W        W60205  37.004  43.938  13.406
 1110W        W60206  39.808  19.057   2.751
 1111W        W60207  37.457  40.397  10.969
 1112W        W60208   3.240  14.120  13.820
 1113W        W60209  24.033  24.668   4.120
 1114W        W60210  40.437  14.094  11.411
 1115W        W60211  40.944  11.230  10.022
 1116W        W60212  40.490  25.974   3.732
 1117W        W60213  22.585   6.723  14.483
 1118W        W60214  17.684  14.675   3.172
 1119W        W60215  35.977  29.089   4.625
 1120W        W60216  16.666   3.349   4.705
 1121W        W60217  31.079  34.481   5.247
 1122W        W60218  11.149  16.699  13.816
 1123W        W60219  19.181   4.903   2.277
 1124W        W60220  39.002  30.504   5.099
 1125W        W60221  23.173  39.538  11.451
 1126W        W60222  28.096  41.307  12.384
 1127W        W60223   8.727  37.912  11.386
 1128W        W60224  11.155  38.943  13.976
 1129W        W60225  11.311  37.083   1.322
 1130W        W60226   7.685  27.093   4.302
 1131W        W60227  36.588  41.333  11.076
 1132W        W60228  26.076  10.162   2.214
 1133W        W60229  32.965  36.531   2.848
 1134W        W60230   0.291  41.504   1.431
 1135W        W60231  32.525  18.214   2.899
 1136W        W60232  44.933  36.382  14.006
 1137W        W60233  20.754  10.860  12.472
 1138W        W60234  25.513  16.743  10.482
 1139W        W60235   2.310  44.937  12.008
 1140W        W60236  32.027   6.711   3.316
 1141W        W60237  28.028  27.002   3.262
 1142W        W60238  19.533  19.043   2.756
 1143W        W60239   0.407  44.932   2.867
 1144W        W60240   3.894  37.915   4.723
 1145W        W60241  12.306  25.616  14.407
 1146W        W60242  33.398  25.589   3.321
 1147W        W60243   1.735   9.838   3.680
 1148W        W60244   8.814  26.028  12.042
 1149W        W60245  14.107  28.622  14.853
 1150W        W60246  13.192  31.069   0.243
 1151W        W60247   4.309  21.245  12.895
 1152W        W60248  44.794  30.584  13.044
 1153W        W60249  17.103  24.709  14.329
 1154W        W60250  44.499  38.453   3.316
 1155W        W60251  12.769  14.791   3.342
 1156W        W60252  25.677  17.730   9.998
 1157W        W60253  16.174  37.895  11.955
 1158W        W60254  41.392  39.359   2.248
 1159W        W60255  43.893   1.477  11.862
 1160W        W60256  15.796  16.128   0.851
 1161W        W60257  19.776  32.932  13.061
 1162W        W60258  14.697  13.603  12.905
 1163W        W60259  39.491  22.572  10.923
 1164W        W60260  31.044  37.961  12.486
 1165W        W60261  36.480   5.846  11.901
 1166W        W60262  34.586   1.435   3.717
 1167W        W60263   3.862  14.618  14.314
 1168W        W60264   6.698   6.684  13.922
 1169W        W60265  44.929  12.142  13.000
 1170W        W60266   8.173  37.423  14.339
 1171W        W60267  41.357  17.569   0.792
 1172W        W60268   3.404   0.433  10.587
 1173W        W60269  15.229  13.707   0.931
 1174W        W60270  24.026   5.805   1.408
 1175W        W60271  34.919  12.832  10.603
 1176W        W60272  36.852  10.286   3.224
 1177W        W60273  12.741  39.011  11.061
 1178W        W60274  15.742  37.877  12.892
 1179W        W60275  32.404  40.367  12.932
 1180W        W60276  26.108  41.843  12.411
 1181W        W60277  42.457  40.979   0.796
 1182W        W60278  22.607  35.926   0.939
 1183W        W60279  34.599  44.795  13.308
 1184W        W60280  30.982  23.991  12.413
 1185W        W60281  28.960  10.857  13.032
 1186W        W60282  16.685  39.546   2.729
 1187W        W60283  12.194   0.391  14.836
 1188W        W60284  27.959  12.824   4.624
 1189W        W60285  37.362  11.858   3.226
 1190W        W60286  40.004  35.438  10.571
 1191W        W60287  23.003  37.521   4.248
 1192W        W60288  23.117  25.084   0.821
 1193W        W60289  35.040  11.667  12.480
 1194W        W60290  35.998   1.804   0.262
 1195W        W60291  23.628  16.761   1.297
 1196W        W60292  43.463   4.735   4.237
 1197W        W60293   4.882   5.715  14.433
 1198W        W60294  13.800   7.348  13.062
 1199W        W60295  34.966  39.521  12.415
 1200W        W60296  36.465   6.247  10.923
 1201W        W60297  42.810  14.784  12.005
 1202W        W60298  39.333   8.326   1.802
 1203W        W60299  28.525  25.586   4.808
 1204W        W60300  37.489  24.040   1.234
 1205W        W60301  16.621  26.647  10.977
 1206W        W60302  15.795   9.210   5.318
 1207W        W60303  44.935  21.254  11.091
 1208W        W60304  43.294   7.684   3.858
 1209W        W60305  40.400  32.492  13.398
 1210W        W60306  44.875   2.817   1.370
 1211W        W60307  13.230  38.054   3.840
 1212W        W60308   7.853  23.991   4.233
 1213W        W60309  13.297  26.471  12.868
 1214W        W60310  25.195  10.855   0.822
 1215W        W60311   7.830  16.244   4.724
 1216W        W60312   7.765   7.346   0.448
 1217W        W60313  19.594  33.962   2.829
 1218W        W60314  39.977   2.887   4.613
 1219W        W60315  36.064  24.678   1.844
 1220W        W60316  14.105  21.595   1.706
 1221W        W60317   7.363  13.620   2.401
 1222W        W60318  21.250  15.156  10.928
 1223W        W60319   3.400  35.039  11.526
 1224W        W60320  12.730   3.778   2.727
 1225W        W60321  17.588  25.542  12.008
 1226W        W60322   2.908  43.011  12.846
 1227W        W60323  29.137   2.299  14.811
 1228W        W60324  33.928  36.542  11.379
 1229W        W60325   0.268  16.703  13.940
 1230W        W60326  40.839  23.145   0.880
 1231W        W60327  36.887  26.547   3.790
 1232W        W60328   5.194  26.961   0.855
 1233W        W60329  30.041  41.302   1.259
 1234W        W60330  31.001   7.209  10.020
 1235W        W60331  35.453  12.276   2.407
 1236W        W60332   9.678   7.819  11.503
 1237W        W60333  21.620  22.033   0.422
 1238W        W60334  20.049  34.593  12.994
 1239W        W60335  36.425   5.249  11.875
 1240W        W60336  23.088  38.930   0.256
 1241W        W60337  31.901  39.961   0.945
 1242W        W60338  35.003  31.527   1.812
 1243W        W60339  31.144  32.965  13.322
 1244W        W60340  31.591  43.815   0.912
 1245W        W60341  17.218  36.501  14.397
 1246W        W60342  28.475  25.092  13.943
 1247W        W60343  33.591  12.687   0.950
 1248W        W60344  36.867  25.532   4.162
 1249W        W60345  44.826   8.700   2.775
 1250W        W60346  15.173  26.462   2.300
 1251W        W60347  24.025   0.874  12.021
 1252W        W60348   1.371  38.485  12.543
 1253W        W60349  29.664  14.308  14.332
 1254W        W60350   9.327  43.985  11.859
 1255W        W60351  41.880  30.052   4.176
 1256W        W60352   7.757  27.560   9.535
 1257W        W60353   7.855  27.458   0.838
 1258W        W60354  14.776   2.294   3.224
 1259W        W60355  30.090  10.247  10.996
 1260W        W60356  21.127   1.801   3.722
 1261W        W60357  19.234  16.139  10.902
 1262W        W60358  10.298  41.980  12.852
 1263W        W60359  34.978   6.317  13.893
 1264W        W60360  36.991   1.431  14.364
 1265W        W60361  25.058  15.724   2.875
 1266W        W60362  32.453  35.537   1.385
 1267W        W60363  20.119  21.138  13.434
 1268W        W60364  12.757  37.082  14.418
 1269W        W60365   2.278  42.337   2.710
 1270W        W60366  37.010  24.153  13.797
 1271W        W60367   0.829  41.506  11.974
 1272W        W60368   2.247  42.454  11.571
 1273W        W60369  32.048  13.618   1.244
 1274W        W60370  34.082  24.025   1.250
 1275W        W60371   2.470  16.245  12.412
 1276W        W60372  11.340  34.959  11.400
 1277W        W60373   6.307   8.372   0.243
 1278W        W60374  26.192  22.075   4.218
 1279W        W60375  20.700  38.029  14.910
 1280W        W60376  13.643  40.961  11.507
 1281W        W60377   2.743  25.658   1.389
 1282W        W60378   4.739  18.251   4.348
 1283W        W60379  37.572  42.988  11.459
 1284W        W60380   5.290   4.730  14.963
 1285W        W60381  36.357   1.914  10.985
 1286W        W60382   2.951  39.015   4.316
 1287W        W60383  30.926   1.950  11.070
 1288W        W60384  14.654   6.350  10.540
 1289W        W60385   4.930   1.483  10.589
 1290W        W60386  19.737   2.839  13.458
 1291W        W60387  15.732  10.239   0.911
 1292W        W60388  32.985   2.842   3.259
 1293W        W60389  20.251  35.364   2.789
 1294W        W60390  15.592  30.426   3.256
 1295W        W60391  13.629  36.062  12.463
 1296W        W60392  15.757  14.264  13.867
 1297W        W60393  42.451   0.851   0.413
 1298W        W60394  20.050  16.294  13.341
 1299W        W60395   9.267   4.241   4.717
 1300W        W60396  26.965   2.942  12.072
 1301W        W60397   9.389   1.870  10.898
 1302W        W60398   8.214  19.228  10.489
 1303W        W60399   5.234  29.972  12.554
 1304W        W60400   5.814  42.527   3.643
 1305W        W60401  34.557  41.316  14.399
 1306W        W60402  10.653  24.994   5.248
 1307W        W60403  33.103   1.429   2.374
 1308W        W60404  43.486  21.196  13.049
 1309W        W60405  31.497  15.638   4.787
 1310W        W60406  36.924  13.722  10.592
 1311W        W60407  26.605  38.955  10.979
 1312W        W60408  27.600  38.033  14.811
 1313W        W60409  30.519   3.357  13.538
 1314W        W60410  16.630  16.670   2.380
 1315W        W60411  30.071   3.846  14.767
 1316W        W60412  19.136  24.591  11.462
 1317W        W60413  17.204   3.402   1.422
 1318W        W60414  42.462  44.319   3.756
 1319W        W60415  35.039  22.511   3.287
 1320W        W60416  24.553  44.822  14.906
 1321W        W60417  30.943  15.281   2.244
 1322W        W60418   1.319  37.055  12.526
 1323W        W60419   1.829  42.372  13.981
 1324W        W60420  11.771  16.090  14.312
 1325W        W60421  11.268   2.355   0.729
 1326W        W60422  32.606   1.908   4.740
 1327W        W60423   4.780   9.178  14.851
 1328W        W60424   2.953  14.328   0.854
 1329W        W60425   2.815  24.686  11.883
 1330W        W60426  34.590  27.538  14.911
 1331W        W60427  29.474  41.358   1.336
 1332W        W60428  34.929  32.563  11.922
 1333W        W60429  38.505  29.502   4.170
 1334W        W60430  39.350   8.798  14.898
 1335W        W60431  29.464  26.982  13.024
 1336W        W60432  28.109  29.599   1.728
 1337W        W60433  12.344  22.715   2.350
 1338W        W60434  21.581  42.000   0.859
 1339W        W60435  39.465   1.304  13.410
 1340W        W60436  42.857  37.062   0.746
 1341W        W60437  26.590  15.103  12.069
 1342W        W60438  42.370   2.926  14.305
 1343W        W60439  20.602   6.339   3.788
 1344W        W60440   1.772  36.921   2.696
 1345W        W60441  14.284  20.614  11.039
 1346W        W60442  21.196  36.842   1.710
 1347W        W60443  20.645  37.970   0.860
 1348W        W60444  30.519  38.909   0.318
 1349W        W60445  39.423  25.497   0.291
 1350W        W60446   7.376  31.440   4.676
 1351W        W60447   1.449  43.286  11.999
 1352W        W60448  19.102  10.254  14.844
 1353W        W60449  42.443   3.912  10.448
 1354W        W60450  33.893  12.758   2.263
 1355W        W60451  30.603  10.180   0.781
 1356W        W60452  29.550  18.549   0.899
 1357W        W60453  13.149  26.482   3.294
 1358W        W60454  43.504   2.237  14.329
 1359W        W60455   0.821  32.110   4.136
 1360W        W60456  19.076   7.904   3.206
 1361W        W60457  21.655  36.499   0.263
 1362W        W60458  40.922  24.509   4.804
 1363W        W60459  30.513  19.630   0.392
 1364W        W60460  26.162  44.373   1.753
 1365W        W60461  16.784   6.265   4.601
 1366W        W60462  29.647  44.891  12.885
 1367W        W60463   8.270   2.904   3.235
 1368W        W60464  12.743   6.283   2.196
 1369W        W60465  17.106  17.613   3.656
 1370W        W60466  13.254  24.146  14.417
 1371W        W60467  13.222   0.849  12.877
 1372W        W60468   9.292  23.596  12.977
 1373W        W60469   9.852  23.099   2.378
 1374W        W60470   6.231   3.886   1.212
 1375W        W60471  29.940  43.447   2.331
 1376W        W60472  23.997  14.685  13.951
 1377W        W60473  29.431  30.600  14.026
 1378W        W60474  44.347  37.077  12.445
 1379W        W60475   0.983  14.311  12.069
 1380W        W60476  34.601  39.346   2.379
 1381W        W60477  38.539  38.538   3.147
 1382W        W60478  10.343  19.568   1.263
 1383W        W60479   3.895  10.155  13.365
 1384W        W60480   7.707   5.407  11.942
 1385W        W60481  18.563   7.272  13.049
 1386W        W60482   5.302  27.543   0.876
 1387W        W60483  22.544  17.741   3.220
 1388W        W60484  33.595  18.145   4.623
 1389W        W60485  16.311   5.269   3.217
 1390W        W60486  40.472  38.025   1.388
 1391W        W60487  41.834  22.173  14.026
 1392W        W60488  34.484  29.551  12.845
 1393W        W60489  31.529  33.949   4.635
 1394W        W60490  28.652   1.442   1.769
 1395W        W60491   7.232  39.977  12.951
 1396W        W60492  35.371  35.372  10.435
 1397W        W60493  31.993   4.794   0.735
 1398W        W60494  41.477   5.850  14.513
 1399W        W60495  40.322   4.399  12.385
 1400W        W60496  10.673  20.639   1.734
 1401W        W60497  36.864  37.499  11.579
 1402W        W60498  43.965   6.812  11.877
 1403W        W60499  38.048  34.587  11.401
 1404W        W60500  10.370  16.667  12.456
 1405W        W60501  38.826  37.361   5.222
 1406W        W60502  16.139  39.512   1.342
 1407W        W60503  17.303   5.224  11.053
 1408W        W60504  15.731   0.914  14.896
 1409W        W60505  32.928   2.373  11.892
 1410W        W60506  32.992  31.130   0.917
 1411W        W60507  18.707  43.276   3.642
 1412W        W60508   6.916  34.926  11.947
 1413W        W60509  17.675  33.961   2.685
 1414W        W60510  19.135  38.957   0.772
 1415W        W60511  21.108  22.030   2.218
 1416W        W60512   5.221  35.517   1.222
 1417W        W60513  35.905  30.950  12.023
 1418W        W60514  19.204  17.084  14.379
 1419W        W60515  13.778   3.348   1.822
 1420W        W60516  42.368  13.680  11.090
 1421W        W60517  16.213  14.775   0.478
 1422W        W60518  36.453   8.715   3.733
 1423W        W60519  16.731  33.882   3.295
 1424W        W60520  40.830   1.285  13.399
 1425W        W60521   9.375  27.033   1.228
 1426W        W60522  27.154   2.457  14.971
 1427W        W60523  22.131  12.662   2.259
 1428W        W60524   6.415  38.399   4.261
 1429W        W60525   3.928  25.655  11.927
 1430W        W60526  34.054  18.161  11.939
 1431W        W60527  16.738  39.009   0.778
 1432W        W60528  10.219  33.997   2.346
 1433W        W60529  38.569   2.749  11.979
 1434W        W60530  13.212  31.914  10.128
 1435W        W60531  10.852  24.039   1.273
 1436W        W60532   1.826  11.233  14.856
 1437W        W60533  43.869  43.327  12.003
 1438W        W60534  25.120   2.457  10.513
 1439W        W60535   7.202  43.329   4.650
 1440W        W60536  44.353   9.180  12.565
 1441W        W60537  11.710  36.068   5.263
 1442W        W60538  15.129  38.465  14.928
 1443W        W60539  39.869  12.707   2.201
 1444W        W60540  21.646  35.877   0.768
 1445W        W60541  24.696  24.723  11.548
 1446W        W60542  38.374  40.995   4.750
 1447W        W60543   7.342   6.192   0.929
 1448W        W60544  18.136  21.534   3.687
 1449W        W60545  29.636  21.148   0.314
 1450W        W60546   0.914  18.660   4.666
 1451W        W60547  15.099  43.403   4.130
 1452W        W60548  15.140  24.580  14.024
 1453W        W60549  21.558  44.877   0.907
 1454W        W60550  22.555  30.913  12.540
 1455W        W60551   4.871   2.880   0.406
 1456W        W60552  33.519  13.267  12.446
 1457W        W60553  23.628  15.594   4.688
 1458W        W60554  35.058  15.238   0.734
 1459W        W60555  35.889   2.445  13.017
 1460W        W60556  15.166   5.919  13.009
 1461W        W60557  24.132  29.481   4.717
 1462W        W60558  22.730  15.599   0.817
 1463W        W60559  42.468  41.013  11.544
 1464W        W60560   8.889  14.185  13.807
 1465W        W60561  10.159  36.527  14.344
 1466W        W60562  29.091  30.965  14.012
 1467W        W60563  36.413  39.360   2.755
 1468W        W60564  41.478  13.199   2.726
 1469W        W60565   8.220   6.277  13.849
 1470W        W60566  26.096  17.561  11.040
 1471W        W60567  34.497  22.592   0.731
 1472W        W60568  19.695  28.992  12.994
 1473W        W60569  28.076  11.707   2.386
 1474W        W60570  36.050   9.282   3.172
 1475W        W60571  23.176  36.499  11.075
 1476W        W60572  13.652  38.026  13.346
 1477W        W60573  19.257  30.968  12.067
 1478W        W60574  15.257  20.202   4.756
 1479W        W60575   4.303  34.090  11.578
 1480W        W60576  42.301  25.668  14.789
 1481W        W60577  12.351   4.770   2.270
 1482W        W60578  34.536  42.377   4.622
 1483W        W60579  38.360  26.123   1.745
 1484W        W60580  16.774  39.824  11.980
 1485W        W60581  31.544  20.263  14.760
 1486W        W60582  42.986  43.798  12.369
 1487W        W60583   6.372  27.526  10.159
 1488W        W60584  33.431   2.322  14.964
 1489W        W60585   5.230   8.207   0.798
 1490W        W60586  11.240  29.107  10.479
 1491W        W60587   0.409  10.353  12.841
 1492W        W60588  24.607  16.264   2.405
 1493W        W60589   7.788  11.235   3.714
 1494W        W60590  37.406   9.752  13.934
 1495W        W60591  26.123   1.445   2.715
 1496W        W60592  38.057  38.325  11.918
 1497W        W60593  11.372  36.092  13.855
 1498W        W60594  12.163   5.346   4.149
 1499W        W60595  16.768  21.033  11.905
 1500W        W60596  31.952  36.584   5.320
 1501W        W60597  42.813  41.956   1.257
 1502W        W60598  11.152  12.178   3.712
 1503W        W60599  29.556  37.068  12.866
 1504W        W60600  34.016  35.519  11.075
 1505W        W60601  39.017  31.571  11.883
 1506W        W60602  44.962  30.154   3.695
 1507W        W60603  40.966  39.006  14.019
 1508W        W60604  41.937  14.728   4.721
 1509W        W60605   6.274  39.978  12.541
 1510W        W60606   6.406   2.848  13.957
 1511W        W60607   8.370  43.333  11.017
 1512W        W60608   6.236  36.521   0.349
 1513W        W60609  37.349  35.590   1.369
 1514W        W60610  31.561  42.389  12.536
 1515W        W60611   5.380   4.303  13.477
 1516W        W60612  35.902  16.653  12.379
 1517W        W60613  33.395  37.347  10.117
 1518W        W60614   1.765   3.351   5.298
 1519W        W60615   8.267   1.318  13.938
 1520W        W60616  33.573   8.172   2.768
 1521W        W60617  28.594  26.095   4.203
 1522W        W60618  28.024  11.765   2.839
 1523W        W60619  27.661  18.776  11.982
 1524W        W60620  40.853  35.868  14.930
 1525W        W60621   9.705   9.699  13.393
 1526W        W60622   9.652   8.274   3.699
 1527W        W60623  21.029  19.534  11.457
 1528W        W60624  35.372  13.307  10.484
 1529W        W60625  40.512  14.807  11.104
 1530W        W60626   3.818  30.443   2.736
 1531W        W60627  23.225  10.235   1.301
 1532W        W60628  35.857  41.794  11.486
 1533W        W60629  31.996   0.461  11.020
 1534W        W60630  42.438  27.060  10.517
 1535W        W60631  44.433   3.451  13.855
 1536W        W60632  15.100  41.315   2.795
 1537W        W60633  19.237   4.742   3.834
 1538W        W60634  34.562  34.613  11.582
 1539W        W60635   1.977  21.647   3.687
 1540W        W60636   7.666   2.881   4.229
 1541W        W60637  43.004  15.262  12.395
 1542W        W60638  24.606  21.513   4.222
 1543W        W60639  32.948   6.917   4.701
 1544W        W60640  12.322   8.826  11.570
 1545W        W60641   1.440  42.507   2.686
 1546W        W60642  24.499  11.241   2.890
 1547W        W60643  11.688   8.706  10.935
 1548W        W60644  43.274   3.940   3.292
 1549W        W60645  26.542   2.813   4.811
 1550W        W60646  26.057  26.006  11.553
 1551W        W60647  29.099   0.334   2.876
 1552W        W60648  14.323   2.765   4.652
 1553W        W60649   8.686  16.655  11.595
 1554W        W60650  40.539  17.092  14.394
 1555W        W60651  29.560   8.677  14.385
 1556W        W60652  24.679  15.609   1.886
 1557W        W60653   3.714  13.120   3.275
 1558W        W60654   9.395  10.819  11.036
 1559W        W60655   0.826  30.047  13.442
 1560W        W60656   4.349  44.473  13.841
 1561W        W60657  19.738  31.114   4.137
 1562W        W60658  26.561  23.155   0.414
 1563W        W60659  32.562   7.225   1.445
 1564W        W60660  22.187  30.086  10.533
 1565W        W60661  43.301  26.195  11.422
 1566W        W60662  27.615  14.119  11.917
 1567W        W60663  33.042  14.726   3.696
 1568W        W60664  30.429  17.124   1.828
 1569W        W60665   9.880  37.853  11.606
 1570W        W60666   6.899  34.439  13.033
 1571W        W60667  29.928  36.035  13.471
 1572W        W60668  21.262   7.691  11.110
 1573W        W60669   4.927  22.673  14.388
 1574W        W60670  36.855  31.586   3.211
 1575W        W60671  21.252  17.119  14.926
 1576W        W60672  36.983  42.406  11.509
 1577W        W60673  43.792  24.526  13.981
 1578W        W60674   3.740  31.632   2.198
 1579W        W60675  40.918  38.342   0.922
 1580W        W60676   2.459  11.338  14.882
 1581W        W60677   8.389  14.191   3.807
 1582W        W60678  19.239  34.974   0.962
 1583W        W60679   1.885  12.288  14.331
 1584W        W60680  26.650  35.440  14.940
 1585W        W60681  41.459  40.980   2.783
 1586W        W60682   3.374  43.959  11.565
 1587W        W60683  26.489  10.740  11.473
 1588W        W60684  32.530  26.666   2.253
 1589W        W60685   1.433  25.170   4.724
 1590W        W60686   4.239  12.180   3.359
 1591W        W60687   1.765   2.282   3.228
 1592W        W60688   8.706  26.032   1.272
 1593W        W60689   5.389  23.556   1.737
 1594W        W60690  31.933  25.477  10.600
 1595W        W60691  18.290   3.954  14.861
 1596W        W60692  32.622  39.888  13.976
 1597W        W60693  14.282   1.886  12.877
 1598W        W60694  21.560  28.494   0.378
 1599W        W60695   4.780   1.899   1.913
 1600W        W60696   3.738  34.948   4.234
 1601W        W60697   9.679  43.856   0.924
 1602W        W60698  42.845   5.230  14.389
 1603W        W60699  18.208  16.761  11.880
 1604W        W60700  23.675  19.755   0.256
 1605W        W60701  40.403  38.499   2.756
 1606W        W60702   3.383   7.794   3.676
 1607W        W60703  26.464  26.991   2.376
 1608W        W60704   1.811   7.841  13.360
 1609W        W60705  40.392  18.090  12.890
 1610W        W60706  26.046  33.540  13.858
 1611W        W60707  15.666  23.610  10.099
 1612W        W60708  27.953   6.817  14.796
 1613W        W60709  30.587  14.295  11.492
 1614W        W60710  42.289  11.189   0.808
 1615W        W60711  29.530  19.621   4.171
 1616W        W60712  26.614  18.239   0.253
 1617W        W60713  24.702   4.763   1.850
 1618W        W60714  43.820   3.434  14.405
 1619W        W60715  38.957   0.461  12.005
 1620W        W60716  33.980  12.138   3.665
 1621W        W60717  42.978  13.182  12.013
 1622W        W60718   7.225  23.120  11.099
 1623W        W60719  14.243  16.222   3.715
 1624W        W60720  25.995  30.592   3.382
 1625W        W60721  24.512  36.925  10.511
 1626W        W60722  43.992  27.952  10.458
 1627W        W60723  23.046  42.864   4.353
 1628W        W60724  11.754   1.803   2.265
 1629W        W60725   5.703  34.936  14.466
 1630W        W60726  32.896  22.541   5.661
 1631W        W60727  16.790   0.315  11.404
 1632W        W60728   7.767  32.915   3.668
 1633W        W60729  10.670  23.678  12.963
 1634W        W60730  24.044  27.069   4.225
 1635W        W60731  15.804  31.121  11.030
 1636W        W60732  27.054  17.260  14.979
 1637W        W60733  22.142  43.302  14.365
 1638W        W60734  36.981  38.456  11.023
 1639W        W60735  34.874  44.438   5.167
 1640W        W60736  24.166   3.460   2.284
 1641W        W60737  41.484  41.935   1.406
 1642W        W60738   0.778   9.257   3.250
 1643W        W60739  15.126  17.186   4.329
 1644W        W60740   0.907  13.220   0.740
 1645W        W60741   0.297  16.682  14.998
 1646W        W60742  41.434  40.001   3.202
 1647W        W60743  11.790  31.521   4.177
 1648W        W60744  34.611   3.440   2.229
 1649W        W60745   7.784   1.834  13.967
 1650W        W60746  41.404  42.865   5.252
 1651W        W60747  41.298  16.094   2.234
 1652W        W60748   9.854  20.129  10.430
 1653W        W60749  11.787   6.902   3.148
 1654W        W60750  40.014  38.487   0.460
 1655W        W60751   8.288  29.559  13.062
 1656W        W60752  13.117  20.202   4.716
 1657W        W60753  36.034  33.886   2.337
 1658W        W60754  41.017  30.920   0.909
 1659W        W60755  28.114  14.132  14.008
 1660W        W60756  22.180  35.920  13.474
 1661W        W60757  34.994  32.082  11.048
 1662W        W60758  36.486   9.195   4.274
 1663W        W60759  20.542  18.117  14.496
 1664W        W60760  33.496  18.228   1.765
 1665W        W60761  43.864  43.283  14.450
 1666W        W60762  41.906  24.032   1.750
 1667W        W60763  15.778   7.274   2.775
 1668W        W60764   4.334  42.814   2.359
 1669W        W60765  15.613  10.273   0.255
 1670W        W60766  39.040   1.249   4.246
 1671W        W60767   0.378  26.165  14.876
 1672W        W60768  18.221  17.096  11.899
 1673W        W60769  10.327  38.488   3.273
 1674W        W60770  22.046   1.335   4.716
 1675W        W60771  23.022   7.398   1.291
 1676W        W60772  10.369  25.019  14.478
 1677W        W60773   2.776  31.505   4.631
 1678W        W60774  30.569   7.824  10.979
 1679W        W60775  36.863  32.909  12.897
 1680W        W60776  40.404  15.622   2.882
 1681W        W60777  41.815   8.233  14.804
 1682W        W60778  14.306   0.821  11.386
 1683W        W60779  24.188  20.247   2.742
 1684W        W60780   6.892  36.983   2.364
 1685W        W60781  29.943  17.625  12.510
 1686W        W60782  21.529   6.888  10.444
 1687W        W60783  11.171   2.721   4.286
 1688W        W60784  25.563  12.203  14.505
 1689W        W60785  39.823  37.996   1.298
 1690W        W60786  34.959  13.121  13.444
 1691W        W60787  44.325  19.266  11.968
 1692W        W60788  28.672  27.585  11.945
 1693W        W60789   7.841  31.490   3.205
 1694W        W60790  15.251  11.828   1.881
 1695W        W60791  22.045   1.938  14.293
 1696W        W60792  42.447   5.731  11.873
 1697W        W60793  26.658  30.922   3.842
 1698W        W60794  22.509  41.034  13.310
 1699W        W60795  30.436  19.262   3.360
 1700W        W60796   7.348   5.325   3.181
 1701W        W60797  19.183   6.416   1.423
 1702W        W60798  28.094  34.072   2.418
 1703W        W60799  33.597  27.124   0.472
 1704W        W60800   8.374  42.930  12.989
 1705W        W60801  36.853   7.197   5.693
 1706W        W60802  39.864  16.171  14.936
 1707W        W60803  13.217  13.621   1.423
 1708W        W60804  39.533  38.354  11.406
 1709W        W60805  19.604  32.407  12.957
 1710W        W60806   2.786   4.875   0.773
 1711W        W60807  37.401  26.134  12.432
 1712W        W60808   4.370   4.373   2.773
 1713W        W60809  37.938   8.343  14.357
 1714W        W60810  37.942   6.696  14.972
 1715W        W60811   6.704  22.703  11.393
 1716W        W60812  36.889  21.030  12.532
 1717W        W60813  27.032  22.609  11.896
 1718W        W60814   0.299  20.537   0.902
 1719W        W60815   5.244   5.237  12.372
 1720W        W60816  19.076  44.355   4.216
 1721W        W60817  28.616  18.083   2.303
 1722W        W60818  22.024   3.857   0.456
 1723W        W60819  44.464   5.300  14.346
 1724W        W60820  37.993  39.534  13.063
 1725W        W60821  15.162  25.082   0.932
 1726W        W60822  16.078   7.291   2.365
 1727W        W60823  33.392  26.024  14.290
 1728W        W60824  15.204  30.971   0.894
 1729W        W60825  16.593  43.499  12.943
 1730W        W60826  11.177  25.117   3.288
 1731W        W60827   6.799  17.656   2.353
 1732W        W60828  36.913  19.042   0.855
 1733W        W60829  38.973   5.261   4.713
 1734W        W60830  29.023   9.372   2.887
 1735W        W60831  42.794   7.274   9.979
 1736W        W60832  42.424  38.052  13.982
 1737W        W60833  25.595  14.715  11.047
 1738W        W60834  35.478  21.707   3.674
 1739W        W60835   1.362   6.751   0.406
 1740W        W60836   4.322   8.797  14.980
 1741W        W60837  14.167  29.942   2.227
 1742W        W60838  41.900  13.622   2.752
 1743W        W60839  29.643  41.810  13.315
 1744W        W60840  37.394  22.690  11.601
 1745W        W60841   7.218  34.104  12.970
 1746W        W60842  37.535  18.124   1.709
 1747W        W60843   5.743   4.428   1.263
 1748W        W60844  38.938  28.071   2.711
 1749W        W60845  14.099  41.518   1.344
 1750W        W60846  18.223  17.662  13.522
 1751W        W60847  28.986  30.922   0.257
 1752W        W60848  18.549  32.120   0.378
 1753W        W60849  23.545  29.947  13.522
 1754W        W60850  21.756   3.946   3.168
 1755W        W60851   1.761  25.504  12.451
 1756W        W60852   7.782  35.991   2.690
 1757W        W60853  23.551  14.296  13.547
 1758W        W60854  22.995  30.940  12.396
 1759W        W60855   2.794  29.475  11.943
 1760W        W60856  17.628  11.693  12.051
 1761W        W60857  11.705  10.264  13.901
 1762W        W60858  19.105   6.230  13.960
 1763W        W60859  42.463   1.944   3.776
 1764W        W60860   8.399  20.247  13.427
 1765W        W60861  20.274  34.431   3.856
 1766W        W60862  21.628   5.753   5.643
 1767W        W60863   6.878  28.514   3.773
 1768W        W60864   4.894  44.893  11.027
 1769W        W60865  42.998  37.428  10.622
 1770W        W60866  30.472   4.798   3.702
 1771W        W60867  14.603  31.494   2.691
 1772W        W60868  18.258   9.364   2.258
 1773W        W60869   7.783   8.691  11.486
 1774W        W60870   8.255  22.112  12.453
 1775W        W60871   8.824   3.275   0.323
 1776W        W60872  41.889  37.934   4.643
 1777W        W60873  13.758  12.733   4.352
 1778W        W60874   6.850  33.127  12.830
 1779W        W60875  30.978  12.630   4.637
 1780W        W60876  41.406   4.810   3.681
 1781W        W60877  35.072  23.111   4.271
 1782W        W60878  22.712  13.346   1.853
 1783W        W60879  10.367  28.084   1.914
 1784W        W60880  23.052   5.285   2.348
 1785W        W60881   4.796  33.542   2.253
 1786W        W60882  27.626  42.889  12.349
 1787W        W60883  40.003  42.490  12.419
 1788W        W60884  37.506  39.884   4.128
 1789W        W60885  41.982  39.059   4.154
 1790W        W60886  31.069   0.403  13.438
 1791W        W60887  26.618  35.438   4.166
 1792W        W60888  16.242   7.240  14.366
 1793W        W60889  23.586  26.637  13.950
 1794W        W60890  32.094   1.422   2.803
 1795W        W60891  16.670  17.635  10.643
 1796W        W60892  11.366   9.824  14.346
 1797W        W60893  37.472   1.364  10.914
 1798W        W60894  22.634  34.423   4.659
 1799W        W60895  12.130  10.249  10.496
 1800W        W60896  43.358  12.747   2.784
 1801W        W60897  15.665   3.446  13.886
 1802W        W60898   0.889  28.083   3.809
 1803W        W60899   1.424  25.679   1.910
 1804W        W60900   8.782  26.988  12.884
 1805W        W60901  22.189  40.974   4.834
 1806W        W60902   4.827  10.691   0.891
 1807W        W60903   9.675  32.488  13.499
 1808W        W60904   7.370  15.207  11.052
 1809W        W60905  37.550   6.243   0.249
 1810W        W60906  11.314  29.651  11.910
 1811W        W60907  20.082  20.182  10.908
 1812W        W60908  29.584  37.991  11.374
 1813W        W60909  25.166   2.929   0.785
 1814W        W60910  44.943  10.719  10.424
 1815W        W60911   0.401   5.821   3.842
 1816W        W60912  34.479  39.412   1.419
 1817W        W60913  38.026  40.355  11.859
 1818W        W60914  12.809   3.876  13.891
 1819W        W60915  40.308  11.753   4.716
 1820W        W60916  22.066   5.207   0.442
 1821W        W60917  17.777  42.929   1.764
 1822W        W60918  12.686  43.949   0.767
 1823W        W60919  37.066  40.546   2.727
 1824W        W60920  20.065  41.294  10.412
 1825W        W60921  38.023  29.020   3.292
 1826W        W60922  14.787   2.818  11.861
 1827W        W60923  28.990  29.988  12.880
 1828W        W60924   1.746  33.619   4.213
 1829W        W60925  10.179  33.503   3.713
 1830W        W60926  31.557  15.658   1.406
 1831W        W60927  41.952  14.096   3.170
 1832W        W60928   3.297   4.797  11.860
 1833W        W60929  32.913  32.932  11.108
 1834W        W60930   6.854  42.961   0.336
 1835W        W60931   5.719  27.034   1.401
 1836W        W60932  33.380  10.685   1.779
 1837W        W60933   4.445  34.458   1.837
 1838W        W60934  25.599  14.112   0.848
 1839W        W60935  19.638  43.440  13.968
 1840W        W60936   2.309  39.840  14.350
 1841W        W60937  23.084  14.298   0.868
 1842W        W60938  23.011   1.809   0.759
 1843W        W60939  31.122  18.762  11.958
 1844W        W60940   6.405  24.609   4.690
 1845W        W60941   4.912  20.238   1.897
 1846W        W60942   6.747  34.555  14.430
 1847W        W60943  36.385  36.005   4.720
 1848W        W60944   3.861  29.095  11.530
 1849W        W60945   0.330  10.718   2.665
 1850W        W60946   6.803  42.477   2.782
 1851W        W60947  27.651  21.233  10.514
 1852W        W60948  44.475  35.937   3.667
 1853W        W60949   9.769  44.905   2.262
 1854W        W60950   5.854  12.848   0.383
 1855W        W60951  22.009   4.772  14.506
 1856W        W60952   8.724   5.378   2.677
 1857W        W60953   7.188  40.336  13.449
 1858W        W60954  22.559  28.531  12.457
 1859W        W60955  44.984  15.133  11.959
 1860W        W60956  44.333  12.831   3.781
 1861W        W60957  31.581   7.289  14.025
 1862W        W60958  22.652  16.291   1.422
 1863W        W60959   1.442  36.558   2.828
 1864W        W60960  30.565  43.775  11.948
 1865W        W60961  30.145  42.475  11.101
 1866W        W60962  33.879  42.379  14.978
 1867W        W60963  19.542   3.221  14.787
 1868W        W60964  16.081  24.712  13.047
 1869W        W60965   2.409   8.175   0.805
 1870W        W60966  16.081   5.305  13.874
 1871W        W60967  13.739  35.074  13.450
 1872W        W60968  22.214   1.879  14.765
 1873W        W60969  33.598  43.963   0.313
 1874W        W60970   0.879  10.228  14.330
 1875W        W60971  23.135  19.591  12.404
 1876W        W60972  29.085  12.205   4.787
 1877W        W60973  10.868  19.132   4.219
 1878W        W60974  32.457   6.293  13.393
 1879W        W60975   0.361  19.650  13.023
 1880W        W60976  39.058  30.630  12.922
 1881W        W60977  24.986  37.954  13.499
 1882W        W60978   4.291  13.236   1.746
 1883W        W60979  33.413  13.831  11.417
 1884W        W60980  13.297  33.896  14.827
 1885W        W60981  41.977  16.267  14.964
 1886W        W60982  16.575  10.235   2.261
 1887W        W60983  43.389  18.078  10.606
 1888W        W60984   9.666  27.185   3.756
 1889W        W60985   9.884  22.135  14.829
 1890W        W60986   1.314  31.916  12.483
 1891W        W60987   8.283  32.490   0.930
 1892W        W60988  23.590  10.186  14.362
 1893W        W60989  28.491  30.414  11.073
 1894W        W60990  43.803  20.082   0.417
 1895W        W60991  15.125  35.866  14.778
 1896W        W60992  43.969  33.888   2.224
 1897W        W60993   8.290  41.444   1.923
 1898W        W60994  35.102   6.294   4.282
 1899W        W60995  15.265  43.994   3.674
 1900W        W60996  31.025  19.131   0.306
 1901W        W60997  40.387  37.052   0.932
 1902W        W60998  22.740   4.434   1.339
 1903W        W60999   5.267  11.281  10.540
 1904W        W61000  23.707  12.355  14.907
 1905W        W61001  38.408  27.947  10.935
 1906W        W61002  38.065  24.589   0.855
 1907W        W61003   4.356  37.087  11.019
 1908W        W61004  25.191   2.314   2.793
 1909W        W61005   9.821  20.728   2.344
 1910W        W61006   1.868  40.016   1.876
 1911W        W61007  29.656  37.932  10.090
 1912W        W61008  22.150   1.758   4.351
 1913W        W61009  41.836  34.933   3.381
 1914W        W61010  33.530  42.484  11.984
 1915W        W61011  16.218  25.026   5.166
 1916W        W61012  18.561   3.744   2.666
 1917W        W61013  23.207  38.890  13.884
 1918W        W61014   6.391  40.803   2.761
 1919W        W61015  33.100  43.432   3.227
 1920W        W61016  32.503  38.826   0.941
 1921W        W61017  24.992  30.019  10.927
 1922W        W61018  43.864   8.751   3.260
 1923W        W61019   2.784   2.285  13.888
 1924W        W61020  11.130  21.548   2.261
 1925W        W61021   8.216   4.357   2.809
 1926W        W61022  25.119  38.428  13.946
 1927W        W61023   6.388  18.071  10.423
 1928W        W61024  35.076  19.686   1.238
 1929W        W61025  36.460  34.614  13.933
 1930W        W61026  14.186  17.604   3.233
 1931W        W61027  13.776  20.031   0.387
 1932W        W61028  31.472   9.718  14.423
 1933W        W61029  34.493  40.378  10.906
 1934W        W61030  20.706  29.929   2.315
 1935W        W61031  23.016  25.500  10.975
 1936W        W61032  35.058  31.136   2.662
 1937W        W61033   6.390  39.315  14.778
 1938W        W61034  12.681  19.255   0.375
 1939W        W61035  38.898   4.752  11.969
 1940W        W61036  36.382   9.650   0.406
 1941W        W61037   2.729   6.706  14.961
 1942W        W61038  18.294  23.994   3.850
 1943W        W61039   8.219  19.169  14.454
 1944W        W61040  26.184  35.975   2.671
 1945W        W61041  37.018  14.269  10.941
 1946W        W61042  12.813  40.957  13.360
 1947W        W61043  11.676  15.251   0.339
 1948W        W61044  42.983  11.203  12.362
 1949W        W61045  30.928   9.155  12.422
 1950W        W61046  10.746   3.263   3.718
 1951W        W61047   4.701  10.382  14.396
 1952W        W61048  12.272  28.484  12.530
 1953W        W61049  41.417  37.894  11.893
 1954W        W61050  17.752  15.653   0.246
 1955W        W61051  14.135   4.851  12.536
 1956W        W61052  40.532  44.386  14.360
 1957W        W61053  38.844  38.838   3.639
 1958W        W61054  19.060  43.391   4.726
 1959W        W61055   4.840  15.753  13.932
 1960W        W61056  26.689  10.191   3.656
 1961W        W61057  19.613   2.959   0.834
 1962W        W61058  16.573  23.190   3.302
 1963W        W61059  37.896  43.925  12.938
 1964W        W61060  30.494   5.413   4.641
 1965W        W61061  10.240  30.658  13.044
 1966W        W61062   5.312   3.941  14.759
 1967W        W61063  29.160  18.185  10.584
 1968W        W61064  16.108  23.553   2.276
 1969W        W61065  24.998   7.237  11.532
 1970W        W61066  37.559  12.329  12.864
 1971W        W61067  32.918  23.116   2.273
 1972W        W61068  33.078  25.503  12.359
 1973W        W61069   1.390  23.640  12.386
 1974W        W61070  41.804  11.858  10.623
 1975W        W61071  14.742  34.865  13.377
 1976W        W61072  44.973   2.820  10.538
 1977W        W61073  41.927   7.301   4.703
 1978W        W61074  19.075  42.922   0.464
 1979W        W61075  30.559  34.530   2.244
 1980W        W61076  21.160  41.328   4.142
 1981W        W61077  21.182  37.984  11.515
 1982W        W61078  41.396  14.816   4.316
 1983W        W61079  29.043   5.804  13.037
 1984W        W61080  37.870  41.899   0.787
 1985W        W61081  11.152   9.266   2.699
 1986W        W61082   5.924  10.162  11.894
 1987W        W61083  44.851  30.159   0.263
 1988W        W61084  38.978  31.982   0.405
 1989W        W61085  34.100  31.530   0.934
 1990W        W61086  36.055  20.116  12.925
 1991W        W61087  33.428   0.904  11.857
 1992W        W61088   5.896  35.001   2.676
 1993W        W61089   1.242  10.177  12.408
 1994W        W61090  16.271  20.039  13.920
 1995W        W61091  42.323  36.067   0.846
 1996W        W61092   8.884   7.237  12.917
 1997W        W61093   2.922  17.167   0.861
 1998W        W61094  24.212   9.349   2.837
 1999W        W61095  12.246  19.625   0.407
 2000W        W61096  39.377  16.188   1.401
 2001W        W61097  26.013  35.014  14.805
 2002W        W61098  31.475   9.823   4.116
 2003W        W61099  30.484   1.941   0.345
 2004W        W61100   0.901  13.198  11.916
 2005W        W61101  41.983  16.592  11.876
 2006W        W61102   7.891  34.949   0.458
 2007W        W61103  40.392   4.805   2.327
 2008W        W61104  27.151  21.722   4.346
 2009W        W61105  37.469  17.136   2.212
 2010W        W61106  27.963  43.374   3.151
 2011W        W61107  38.833   1.342  12.959
 2012W        W61108   9.811  42.446   1.822
 2013W        W61109  29.123   1.373   2.408
 2014W        W61110   0.318  42.360  10.926
 2015W        W61111  41.342  31.446   0.869
 2016W        W61112  38.549  29.565  11.104
 2017W        W61113  38.825   5.349  14.513
 2018W        W61114  34.470  29.624  14.913
 2019W        W61115   8.325  14.140   0.255
 2020W        W61116  32.088   2.876  12.015
 2021W        W61117   1.340  23.208   4.818
 2022W        W61118  13.719  42.286   0.467
 2023W        W61119  18.670  41.968  11.457
 2024W        W61120   4.709  25.090  12.919
 2025W        W61121  15.090  20.144  10.991
 2026W        W61122  28.459   5.431   2.677
 2027W        W61123  11.266  10.739   3.775
 2028W        W61124   1.972  44.292  12.932
 2029W        W61125  31.960  38.489   4.828
 2030W        W61126   7.312   4.784  14.300
 2031W        W61127  35.942   2.923   0.396
 2032W        W61128  22.694  33.128  12.569
 2033W        W61129  33.088  12.827   0.318
 2034W        W61130  33.566   1.971  12.918
 2035W        W61131  42.338  42.392  10.569
 2036W        W61132  41.923   4.765   0.309
 2037W        W61133   8.321  30.023   1.881
 2038W        W61134  20.716  36.028   3.200
 2039W        W61135  27.591  21.651  14.436
 2040W        W61136  22.158  17.566   2.179
 2041W        W61137  14.784  28.967  13.046
 2042W        W61138  26.187  28.680   0.374
 2043W        W61139  31.545   6.243  13.856
 2044W        W61140  27.616  18.716  11.513
 2045W        W61141   3.375  15.816   0.410
 2046W        W61142  32.625   7.782   3.637
 2047W        W61143   7.245   5.816  11.610
 2048W        W61144  16.137  42.372  12.834
 2049W        W61145   3.273  40.857   0.310
 2050W        W61146  41.888  16.605  13.982
 2051W        W61147  42.839  34.043   0.377
 2052W        W61148  42.286   6.232   2.691
 2053W        W61149  10.745   7.331   0.730
 2054W        W61150  14.169  11.739   4.212
 2055W        W61151   9.799  11.355   3.776
 2056W        W61152   3.895  17.764   4.131
 2057W        W61153  29.471   6.407   3.742
 2058W        W61154   4.380  30.121  14.977
 2059W        W61155  10.658  18.094  11.875
 2060W        W61156  11.713  33.060  14.965
 2061W        W61157  40.471   2.949  10.912
 2062W        W61158  15.151  26.194   3.746
 2063W        W61159  32.636  35.048  12.824
 2064W        W61160  40.459  29.658   1.403
 2065W        W61161  18.639  41.476  14.805
 2066W        W61162  29.117  18.781  13.904
 2067W        W61163  42.505  19.071   2.261
 2068W        W61164   9.762  32.480  12.094
 2069W        W61165   5.353  10.823  13.987
 2070W        W61166  23.617  12.801  13.862
 2071W        W61167   5.276  37.468  12.535
 2072W        W61168  18.074  14.231   4.765
 2073W        W61169  22.127  12.285   3.794
 2074W        W61170  24.103   6.244  14.317
 2075W        W61171  12.738  36.871   3.708
 2076W        W61172  13.133   6.819   0.416
 2077W        W61173  22.576  44.435  10.629
 2078W        W61174  14.713   1.791   4.303
 2079W        W61175  43.493   9.854   2.873
 2080W        W61176  40.810  24.001   0.936
 2081W        W61177   3.952  40.485  13.452
 2082W        W61178   8.762  25.510  13.909
 2083W        W61179  23.510  13.638  11.919
 2084W        W61180  10.334  34.571   4.834
 2085W        W61181  29.523   4.414  13.371
 2086W        W61182  11.777   4.713   4.258
 2087W        W61183  29.151  37.482  14.030
 2088W        W61184  19.052  29.036   3.699
 2089W        W61185   5.925  23.677   5.671
 2090W        W61186  38.390   7.707  13.952
 2091W        W61187   9.690   6.294  10.540
 2092W        W61188   9.700  17.220  12.522
 2093W        W61189  41.500  19.165  11.566
 2094W        W61190  13.759   9.677   4.823
 2095W        W61191   6.291  14.636  11.051
 2096W        W61192  40.018  29.932   4.283
 2097W        W61193   5.423   3.318   0.253
 2098W        W61194   9.245   0.349   0.408
 2099W        W61195  40.324  27.635   0.477
 2100W        W61196  28.675   3.772  12.834
 2101W        W61197  28.002  17.091  12.876
 2102W        W61198  32.126  33.022  11.959
 2103W        W61199  19.668   3.249  11.058
 2104W        W61200  36.996  39.956  14.792
 2105W        W61201   4.729   0.273   0.246
 2106W        W61202  39.322  18.696  13.862
 2107W        W61203  43.321  35.902   4.745
 2108W        W61204   1.371  21.659  13.849
 2109W        W61205  17.676  20.144   2.414
 2110W        W61206  10.668  17.606   0.949
 2111W        W61207  43.399  12.223  14.800
 2112W        W61208  42.805  38.911   0.898
 2113W        W61209  21.713  17.070  13.959
 2114W        W61210  33.081  41.532  10.978
 2115W        W61211   4.935  43.289  12.088
 2116W        W61212  24.619   2.720   1.244
 2117W        W61213   6.777  22.686   3.824
 2118W        W61214  33.063  38.845   0.258
 2119W        W61215  33.016  34.095  13.875
 2120W        W61216  36.401  42.484  11.932
 2121W        W61217  36.437  28.138   3.281
 2122W        W61218  43.828  41.984  14.275
 2123W        W61219  29.114   4.804  11.511
 2124W        W61220  39.549  25.523  14.024
 2125W        W61221  39.895   2.461  14.848
 2126W        W61222  32.896  31.527   3.319
 2127W        W61223  24.624  20.618  12.402
 2128W        W61224  42.835  30.093   3.692
 2129W        W61225  16.765  40.901  11.900
 2130W        W61226  35.896  26.663   2.785
 2131W        W61227  12.712  18.776   1.272
 2132W        W61228  39.032  12.773   3.711
 2133W        W61229  24.038  32.077  10.564
 2134W        W61230  27.146  10.201  13.376
 2135W        W61231  22.135  44.377  10.414
 2136W        W61232   5.335   4.839  10.435
 2137W        W61233  10.206   4.778  10.473
 2138W        W61234  29.156  15.639  10.604
 2139W        W61235   4.226  34.886  12.090
 2140W        W61236  27.543   3.355   1.791
 2141W        W61237  35.590  30.528   2.338
 2142W        W61238  13.643  12.293  11.068
 2143W        W61239  40.316  31.943   0.791
 2144W        W61240  17.275  43.293   1.910
 2145W        W61241  10.327  25.581   1.719
 2146W        W61242  39.433  23.584   3.166
 2147W        W61243  27.951  38.936  10.904
 2148W        W61244  31.084  37.418  11.952
 2149W        W61245  35.994  26.692   3.170
 2150W        W61246  11.143  33.119   1.832
 2151W        W61247  23.080  44.329  14.838
 2152W        W61248   4.332   1.815  11.101
 2153W        W61249  38.941  19.065   3.307
 2154W        W61250   9.694  19.281   1.916
 2155W        W61251  33.552  37.052   2.737
 2156W        W61252  31.932  21.705  11.572
 2157W        W61253  10.839  41.298   0.474
 2158W        W61254  18.686   2.411   2.312
 2159W        W61255  41.954  30.094  14.375
 2160W        W61256  35.594  39.466   4.836
 2161W        W61257  26.634  25.651   3.204
 2162W        W61258  22.734  31.508  12.557
 2163W        W61259  38.822  44.356   2.758
 2164W        W61260  14.225  35.949   2.348
 2165W        W61261   1.327  28.983  10.476
 2166W        W61262  35.365   0.962  11.552
 2167W        W61263   3.217   5.322  13.914
 2168W        W61264  10.811  25.703   3.311
 2169W        W61265  39.425  37.972  14.998
 2170W        W61266  28.457  10.654  10.446
 2171W        W61267   2.808  28.948   2.831
 2172W        W61268  44.756  10.255   3.660
 2173W        W61269  26.173  41.032  12.899
 2174W        W61270  36.353  22.054  11.601
 2175W        W61271  25.647  19.179  12.035
 2176W        W61272  26.686  19.128  14.279
 2177W        W61273  37.983  14.316  10.437
 2178W        W61274   8.790  38.412   4.818
 2179W        W61275  21.711  16.114   0.297
 2180W        W61276  44.476  38.427   2.758
 2181W        W61277  15.738  41.366  14.297
 2182W        W61278  11.662  44.988   1.756
 2183W        W61279  36.044  12.269  11.902
 2184W        W61280   8.796  17.650   0.961
 2185W        W61281  26.569  22.560   5.092
 2186W        W61282   9.365  29.587  12.399
 2187W        W61283  21.532  23.223   0.848
 2188W        W61284  44.482  13.668  12.025
 2189W        W61285  16.221  38.018  12.982
 2190W        W61286  35.498  22.538  13.891
 2191W        W61287  23.666  43.366   3.676
 2192W        W61288  10.367  15.254  11.923
 2193W        W61289  38.348  20.191  11.473
 2194W        W61290   2.834  19.576   0.728
 2195W        W61291  39.830  28.580   3.717
 2196W        W61292  34.916  37.384   0.475
 2197W        W61293   9.314  31.538   9.532
 2198W        W61294   5.774   5.728   3.380
 2199W        W61295   2.901  33.974   0.412
 2200W        W61296  23.992   6.696   1.885
 2201W        W61297  30.050  30.430  12.435
 2202W        W61298   5.325   7.216   3.353
 2203W        W61299  41.321   1.806   0.323
 2204W        W61300  43.920  23.692   0.869
 2205W        W61301  21.576  41.478   1.427
 2206W        W61302  21.605  43.467   3.742
 2207W        W61303  29.047   7.283   2.321
 2208W        W61304   1.815   5.400  13.871
 2209W        W61305   2.797  35.015  13.860
 2210W        W61306  27.644  42.887  12.989
 2211W        W61307  36.024  23.683   4.764
 2212W        W61308  33.999   5.289   0.779
 2213W        W61309  21.181  20.708   3.260
 2214W        W61310  23.087  18.089  14.321
 2215W        W61311  29.945   4.754   4.793
 2216W        W61312  37.548  15.772   1.283
 2217W        W61313  38.452  35.963  14.879
 2218W        W61314  28.582  41.043   0.415
 2219W        W61315  16.744   9.152   3.757
 2220W        W61316  43.779  22.081   4.333
 2221W        W61317  29.934  44.792   4.672
 2222W        W61318   9.858   2.461  14.781
 2223W        W61319  24.136  27.454   1.422
 2224W        W61320  34.863  25.170   0.245
 2225W        W61321  40.455  28.136   4.599
 2226W        W61322  30.030  24.669  14.908
 2227W        W61323  43.433  27.122   2.284
 2228W        W61324   4.450  43.309  11.580
 2229W        W61325  26.572   2.359  10.944
 2230W        W61326  21.582  34.570  11.537
 2231W        W61327   6.328  30.541  12.918
 2232W        W61328  39.332  42.373   3.749
 2233W        W61329   1.480  12.784   1.893
 2234W        W61330  20.159   2.366  14.426
 2235W        W61331  31.150   1.905   0.257
 2236W        W61332  25.195  44.987  14.893
 2237W        W61333   6.694  44.409  14.830
 2238W        W61334   6.271  31.564  10.545
 2239W        W61335  20.536   8.881  14.926
 2240W        W61336  13.826   3.329  11.438
 2241W        W61337  32.625  31.975  10.644
 2242W        W61338  24.604   7.891   1.890
 2243W        W61339  29.535  38.873  11.885
 2244W        W61340  22.184  28.588   1.756
 2245W        W61341  31.561  15.140  12.042
 2246W        W61342  25.627   1.970  12.032
 2247W        W61343  10.189   7.204   1.898
 2248W        W61344  29.530   6.757  10.478
 2249W        W61345  36.948  24.689  10.901
 2250W        W61346  28.027  28.961  14.024
 2251W        W61347  18.222  34.023   3.323
 2252W        W61348   8.271  36.848  14.936
 2253W        W61349  21.183   3.921  12.410
 2254W        W61350  33.412  19.590   0.430
 2255W        W61351  23.122  32.511  12.475
 2256W        W61352  19.078  41.300   3.230
 2257W        W61353  15.163  37.432   1.829
 2258W        W61354   7.364  31.088  11.903
 2259W        W61355  16.276   9.389  12.020
 2260W        W61356  16.794  15.611   0.757
 2261W        W61357  39.369  40.813  10.975
 2262W        W61358   6.204   1.851  12.382
 2263W        W61359  41.452  29.652   2.775
 2264W        W61360  15.680  28.646   4.281
 2265W        W61361  26.019  35.060   1.310
 2266W        W61362  19.759   1.733  11.420
 2267W        W61363   1.853  39.439  10.484
 2268W        W61364   9.306  11.640  10.048
 2269W        W61365   9.700   1.894  13.531
 2270W        W61366   5.420  10.812   4.647
 2271W        W61367  21.721  36.390   2.888
 2272W        W61368  16.221  34.926   2.363
 2273W        W61369   7.327   7.675  11.923
 2274W        W61370  31.067   5.771   2.295
 2275W        W61371  13.771  38.969  10.891
 2276W        W61372  13.279  20.214  13.892
 2277W        W61373  35.384  12.813   4.182
 2278W        W61374  13.728  32.467   5.198
 2279W        W61375  27.983  40.985   1.398
 2280W        W61376   7.229  41.436   0.462
 2281W        W61377  32.937  16.790   2.753
 2282W        W61378  24.626  27.536   1.876
 2283W        W61379  27.483   3.450  10.628
 2284W        W61380  36.933   2.341  12.922
 2285W        W61381  39.830  16.650  10.888
 2286W        W61382   5.726   3.896  10.545
 2287W        W61383  36.459  34.016   4.777
 2288W        W61384  23.093  35.387  14.995
 2289W        W61385  24.152   0.424   0.755
 2290W        W61386  42.020  40.815   0.292
 2291W        W61387  29.474   7.342  10.021
 2292W        W61388  24.618   8.757   1.395
 2293W        W61389   4.825   2.374  10.452
 2294W        W61390  11.134  42.854  10.593
 2295W        W61391  13.786  32.089   0.378
 2296W        W61392  15.180  34.092  11.406
 2297W        W61393  29.643  21.114  11.122
 2298W        W61394  19.129  42.306  12.374
 2299W        W61395   0.938  23.043   2.886
 2300W        W61396  20.084  35.858  11.609
 2301W        W61397   6.351  17.799   2.336
 2302W        W61398   6.703  12.762   1.299
 2303W        W61399  37.997   9.338  13.845
 2304W        W61400  25.588  24.218   3.770
 2305W        W61401   6.820   0.924  12.845
 2306W        W61402  29.035  16.790   1.743
 2307W        W61403  39.838  23.581  14.982
 2308W        W61404  33.507  22.579  14.909
 2309W        W61405  38.870  41.794   3.702
 2310W        W61406  13.764  15.593   3.182
 2311W        W61407  11.648   8.377  11.053
 2312W        W61408   1.963  26.122  14.395
 2313W        W61409  39.360   3.825   2.839
 2314W        W61410  33.021  25.080   0.910
 2315W        W61411  38.948  42.830  12.457
 2316W        W61412  36.436  40.019  14.898
 2317W        W61413  41.329   8.169   3.187
 2318W        W61414  26.611  12.182   0.871
 2319W        W61415  40.481   9.300  13.450
 2320W        W61416  13.199  21.606   0.882
 2321W        W61417  34.092   4.266  11.382
 2322W        W61418  34.011  15.208  10.578
 2323W        W61419   7.791  22.228  10.980
 2324W        W61420  11.306  16.761   4.206
 2325W        W61421  34.975  35.412  11.077
 2326W        W61422   8.335  22.181   2.700
 2327W        W61423  21.607  34.081   4.829
 2328W        W61424   1.352  33.602   0.382
 2329W        W61425  18.658   8.277  13.928
 2330W        W61426  16.718   6.720  12.000
 2331W        W61427  44.428  22.595   4.117
 2332W        W61428   2.730  27.512   4.666
 2333W        W61429   4.902  21.554   3.706
 2334W        W61430  10.769  14.276  10.567
 2335W        W61431  39.055  11.819   4.770
 2336W        W61432  39.012  11.633  12.565
 2337W        W61433   5.716  11.679   2.691
 2338W        W61434  18.668  37.565  12.840
 2339W        W61435  18.608  43.920  10.991
 2340W        W61436   6.284  35.916   3.713
 2341W        W61437  20.178  33.402  13.317
 2342W        W61438  36.022   4.226  11.899
 2343W        W61439  21.099  40.348  10.638
 2344W        W61440   7.338  44.757   1.431
 2345W        W61441   0.340   5.776  11.567
 2346W        W61442  24.587  22.628   4.125
 2347W        W61443  14.297   6.849  11.880
 2348W        W61444   2.285  43.001   1.352
 2349W        W61445  40.488  10.712   3.181
 2350W        W61446  19.213  37.043  14.835
 2351W        W61447   6.720  23.214   0.331
 2352W        W61448  40.440   6.805  14.337
 2353W        W61449   6.251   6.239  11.857
 2354W        W61450  42.988  31.598   3.675
 2355W        W61451  11.212  36.870   0.889
 2356W        W61452   3.750  10.167   2.695
 2357W        W61453  34.583  23.699   1.231
 2358W        W61454  19.685  42.887  13.338
 2359W        W61455   2.234   9.216   2.232
 2360W        W61456  40.355  21.144   3.870
 2361W        W61457   1.357  20.680  13.351
 2362W        W61458   4.840  17.695   0.790
 2363W        W61459  15.206  27.565   1.899
 2364W        W61460  14.289  36.016   1.861
 2365W        W61461  44.478  40.318   0.391
 2366W        W61462  41.347  22.583   1.348
 2367W        W61463  39.323  36.477  10.484
 2368W        W61464  26.202  43.827  12.484
 2369W        W61465   4.214  17.759   3.250
 2370W        W61466  36.039   6.803   3.289
 2371W        W61467  18.573  42.302   3.820
 2372W        W61468  32.886  30.499  14.902
 2373W        W61469  25.118  29.473  13.488
 2374W        W61470  29.139  42.977   2.380
 2375W        W61471  34.503  44.329  12.053
 2376W        W61472  25.648  23.711   3.800
 2377W        W61473  35.478  43.428   3.251
 2378W        W61474  23.643  28.520  13.980
 2379W        W61475   6.699  20.685   2.832
 2380W        W61476  28.574  35.410  14.890
 2381W        W61477   1.961  35.561   2.277
 2382W        W61478   2.246  40.903   3.202
 2383W        W61479  41.412  24.014   3.284
 2384W        W61480   6.840   3.306  14.899
 2385W        W61481   3.906  14.610  13.008
 2386W        W61482  25.687  22.132  13.413
 2387W        W61483  26.974  26.587  11.507
 2388W        W61484  33.600  43.510   1.406
 2389W        W61485   4.380   7.774   1.916
 2390W        W61486  10.666   1.898  13.889
 2391W        W61487   9.845  19.130  11.958
 2392W        W61488  30.544  13.208   3.833
 2393W        W61489  44.897   0.466  14.960
 2394W        W61490   4.275   7.752   2.401
 2395W        W61491  36.033   1.315  12.534
 2396W        W61492  30.090   6.395  10.405
 2397W        W61493  38.342   0.460   2.811
 2398W        W61494  24.132  29.561   5.156
 2399W        W61495   6.252  12.345  10.893
 2400W        W61496  44.912   0.441  13.488
 2401W        W61497  18.772  24.165  12.007
 2402W        W61498   7.797  41.860  10.610
 2403W        W61499  39.536  33.011   0.931
 2404W        W61500  24.700  22.586  13.317
 2405W        W61501  24.045  23.996   2.770
 2406W        W61502   6.414   8.672  12.544
 2407W        W61503   8.307  42.985  11.554
 2408W        W61504  13.841  41.329  12.992
 2409W        W61505  40.420   5.327  11.561
 2410W        W61506  31.071  21.707   2.349
 2411W        W61507  20.212  13.240   2.901
 2412W        W61508  18.096  30.658  12.975
 2413W        W61509  40.461  29.646   4.651
 2414W        W61510  36.851  27.044   4.666
 2415W        W61511  34.955  29.133   2.685
 2416W        W61512  21.112   4.416   0.808
 2417W        W61513  18.586  38.535   1.833
 2418W        W61514  20.681  18.584   3.751
 2419W        W61515   2.948  10.252  11.403
 2420W        W61516   4.877  28.079   3.322
 2421W        W61517  19.192  44.441   2.813
 2422W        W61518  13.281  22.655  12.539
 2423W        W61519  14.728  41.366   9.924
 2424W        W61520   5.708  37.013   0.445
 2425W        W61521  29.435  31.483   0.339
 2426W        W61522  21.177  15.245   3.687
 2427W        W61523   3.832  24.061   2.895
 2428W        W61524   3.432   8.890   4.663
 2429W        W61525  11.724  19.765   3.772
 2430W        W61526   6.778  38.068   3.808
 2431W        W61527  17.223  25.138   2.824
 2432W        W61528   4.431  42.907  14.418
 2433W        W61529  15.597  24.210   2.200
 2434W        W61530   4.830  14.205  10.889
 2435W        W61531  12.327  11.739   1.756
 2436W        W61532   7.254  31.018   0.376
 2437W        W61533   1.455   7.725   1.920
 2438W        W61534  40.459  32.426  14.337
 2439W        W61535  11.732  36.578   3.827
 2440W        W61536  34.027  36.949  11.094
 2441W        W61537  24.654   5.902  11.558
 2442W        W61538  44.422  37.516   3.359
 2443W        W61539  28.648  20.261  12.919
 2444W        W61540   4.444  32.441  10.610
 2445W        W61541  25.562  38.557  14.850
 2446W        W61542  20.641  10.199   2.254
 2447W        W61543   5.432  13.613   4.739
 2448W        W61544  21.686  25.972  11.109
 2449W        W61545   0.797  37.378   0.767
 2450W        W61546  21.081  33.561  14.431
 2451W        W61547  22.546  43.883  12.075
 2452W        W61548  40.510  26.667   1.245
 2453W        W61549  15.742  21.255  12.408
 2454W        W61550   5.325  16.168   4.652
 2455W        W61551  20.621   4.386   3.251
 2456W        W61552  40.480  39.822  13.344
 2457W        W61553  10.371   1.952   1.328
 2458W        W61554   4.391  32.894  10.417
 2459W        W61555   1.878  13.311   4.129
 2460W        W61556   1.383  25.208  14.844
 2461W        W61557  31.917   0.789   1.275
 2462W        W61558  42.879   4.814   5.094
 2463W        W61559  17.154  25.211   1.767
 2464W        W61560  26.027  20.081  14.796
 2465W        W61561  19.699  25.559   5.206
 2466W        W61562  40.925  43.908   3.328
 2467W        W61563  30.499  31.628   3.250
 2468W        W61564   8.283  15.662  13.325
 2469W        W61565  19.560  24.635  14.294
 2470W        W61566  32.906  42.793  13.895
 2471W        W61567  35.497  26.157  13.010
 2472W        W61568  24.580  44.960   3.733
 2473W        W61569   9.221  20.684   3.787
 2474W        W61570   1.758  39.507   2.784
 2475W        W61571  28.008   1.433   2.375
 2476W        W61572   9.320  44.921  12.006
 2477W        W61573   4.836  19.107   4.621
 2478W        W61574  25.105  40.927   0.909
 2479W        W61575  14.602  13.127  12.439
 2480W        W61576   9.157  42.299  13.430
 2481W        W61577  15.787  43.431   3.829
 2482W        W61578   9.783   0.317   3.222
 2483W        W61579   1.281  23.208  13.799
 2484W        W61580   7.835  34.427   4.836
 2485W        W61581  31.632  13.776  12.024
 2486W        W61582  31.563  29.522   3.352
 2487W        W61583  23.645   6.724  11.388
 2488W        W61584  12.228   0.331   1.705
 2489W        W61585   3.241  17.112   4.336
 2490W        W61586  18.641  34.079  10.108
 2491W        W61587  16.702  10.251  13.321
 2492W        W61588   6.241  13.708   2.883
 2493W        W61589  35.000  43.773  14.310
 2494W        W61590  19.594  20.176   5.267
 2495W        W61591   5.365  17.168  10.405
 2496W        W61592  30.122  10.696  12.574
 2497W        W61593  29.662  13.299  14.429
 2498W        W61594  31.413  24.041   2.671
 2499W        W61595  20.567   4.818  14.832
 2500W        W61596  33.469  29.115   4.208
 2501W        W61597  21.637   1.376   0.786
 2502W        W61598  44.475  21.666  11.453
 2503W        W61599  23.111  21.535  14.394
 2504W        W61600  27.042   1.387   0.804
 2505W        W61601   4.922  43.439   1.787
 2506W        W61602  27.134  19.163   1.737
 2507W        W61603  14.336  10.356  11.593
 2508W        W61604  35.431  40.483   0.732
 2509W        W61605   9.682  31.440   4.684
 2510W        W61606  33.003  22.700   5.109
 2511W        W61607  21.678  16.649  14.911
 2512W        W61608  28.952  14.306   0.864
 2513W        W61609  15.766   3.823   2.756
 2514W        W61610  33.434  29.076  11.376
 2515W        W61611  30.637  40.975  13.838
 2516W        W61612   3.363  41.517  11.416
 2517W        W61613  15.664  18.132   4.127
 2518W        W61614  33.436  21.543   1.702
 2519W        W61615   2.807   6.203  12.506
 2520W        W61616  23.059  24.551   0.948
 2521W        W61617  22.523  12.758   5.177
 2522W        W61618  14.755   7.174   1.246
 2523W        W61619  43.819   5.914  14.305
 2524W        W61620  21.201  40.483  11.579
 2525W        W61621  42.850  36.907   4.269
 2526W        W61622  44.881  29.997  11.093
 2527W        W61623  10.763  30.159   5.310
 2528W        W61624  39.315  16.239   3.250
 2529W        W61625  43.365   7.340   4.704
 2530W        W61626  14.235   6.219   1.715
 2531W        W61627  38.013  23.672   1.436
 2532W        W61628  10.217  23.657  11.577
 2533W        W61629  17.571  10.830  14.921
 2534W        W61630  37.422  16.584  13.408
 2535W        W61631   4.257  15.257  10.563
 2536W        W61632  36.500  44.340  14.427
 2537W        W61633  28.643  43.820  10.981
 2538W        W61634  30.614  42.008   4.130
 2539W        W61635   4.945  23.992   5.777
 2540W        W61636  18.074  29.080  10.572
 2541W        W61637  42.022  17.774   1.821
 2542W        W61638  19.216   1.812  12.961
 2543W        W61639  21.206   4.717  13.355
 2544W        W61640   0.481   5.307  13.408
 2545W        W61641  30.413  19.708   3.251
 2546W        W61642  15.615  13.788   3.322
 2547W        W61643  21.246   7.324   0.383
 2548W        W61644  17.129   4.825   1.364
 2549W        W61645  42.309  16.269  10.455
 2550W        W61646  15.649  16.288   2.214
 2551W        W61647  39.956  32.500   4.167
 2552W        W61648  20.736  11.833   4.316
 2553W        W61649  44.277   7.707   1.236
 2554W        W61650  26.501  16.644  12.006
 2555W        W61651  24.077  40.420  13.034
 2556W        W61652  38.446   1.407   4.233
 2557W        W61653  28.665  39.476  14.400
 2558W        W61654  25.494   4.220  13.548
 2559W        W61655  36.591  25.652  13.399
 2560W        W61656  22.176  11.657   0.892
 2561W        W61657   6.320   1.885  13.510
 2562W        W61658   5.770  12.718   2.872
 2563W        W61659  44.416  17.097  13.854
 2564W        W61660  11.847   7.250   0.288
 2565W        W61661  12.239  13.674   4.826
 2566W        W61662   2.432  38.326  11.573
 2567W        W61663  28.465  26.206   0.749
 2568W        W61664  16.594  42.862   9.928
 2569W        W61665  21.086  22.188   1.263
 2570W        W61666  14.174   3.873  11.571
 2571W        W61667  11.864   4.407  14.443
 2572W        W61668   9.270   3.920  13.838
 2573W        W61669   8.813  14.795  11.974
 2574W        W61670  29.929  17.135   0.878
 2575W        W61671  37.014  10.185  14.401
 2576W        W61672   0.836  19.085   2.380
 2577W        W61673  22.185  26.675  14.965
 2578W        W61674  15.128   5.335  10.546
 2579W        W61675  37.485  41.980  12.009
 2580W        W61676  33.028  27.645   2.328
 2581W        W61677   2.358  36.912   0.320
 2582W        W61678  32.572  15.163   0.385
 2583W        W61679  42.328  37.034  14.291
 2584W        W61680   8.789  42.318  12.378
 2585W        W61681  21.634  19.226   3.749
 2586W        W61682  12.810  31.921  11.108
 2587W        W61683   3.410  33.100   3.315
 2588W        W61684  41.964  30.634  14.338
 2589W        W61685  24.990   3.952   3.838
 2590W        W61686   1.399  21.685   0.953
 2591W        W61687  38.024  41.867   4.312
 2592W        W61688  16.805  23.649  10.910
 2593W        W61689  24.686  11.128  11.029
 2594W        W61690  43.471  37.487   5.296
 2595W        W61691  25.195   4.777   4.165
 2596W        W61692   2.771  24.167   4.353
 2597W        W61693  13.180  36.423  13.819
 2598W        W61694  23.086  36.476   1.225
 2599W        W61695   8.754  17.230  12.854
 2600W        W61696  35.906  40.442   2.697
 2601W        W61697  33.124   2.268  12.921
 2602W        W61698   6.814   1.481   4.687
 2603W        W61699  37.378  19.664  13.378
 2604W        W61700  38.981  26.687   0.409
 2605W        W61701  42.882  17.702   4.837
 2606W        W61702  43.925  16.169  14.288
 2607W        W61703  23.559  26.537   1.441
 2608W        W61704  30.413   1.752  13.474
 2609W        W61705  31.064  31.525  14.979
 2610W        W61706  25.157  18.602  10.455
 2611W        W61707  42.382  17.303   1.387
 2612W        W61708  11.669  17.289   1.834
 2613W        W61709  20.117  41.363   4.770
 2614W        W61710  25.137  17.112  10.630
 2615W        W61711  10.853  23.712   2.294
 2616W        W61712   2.892  20.571   0.331
 2617W        W61713   5.340  32.551  11.517
 2618W        W61714  28.639   3.287  13.044
 2619W        W61715   0.826  25.663  11.413
 2620W        W61716  37.561  24.711  13.062
 2621W        W61717  36.466  21.635   4.651
 2622W        W61718  10.859  34.033  12.097
 2623W        W61719  43.984  41.361   2.859
 2624W        W61720  11.698   5.907   1.279
 2625W        W61721  19.233  21.246   0.843
 2626W        W61722  32.061  36.964  14.954
 2627W        W61723  18.244   5.356   0.378
 2628W        W61724  44.920  20.085  10.570
 2629W        W61725   9.175  11.733  14.800
 2630W        W61726   4.288  39.998  14.894
 2631W        W61727  41.401   3.817   0.828
 2632W        W61728  40.853  25.041  14.370
 2633W        W61729  42.954   2.965   1.282
 2634W        W61730  14.664  20.176   2.792
 2635W        W61731   8.197  11.636  10.920
 2636W        W61732   1.857  16.587   0.320
 2637W        W61733  34.394  24.008  13.310
 2638W        W61734  19.591  25.203  11.095
 2639W        W61735  16.181  19.579  13.033
 2640W        W61736  10.227  12.197  11.024
 2641W        W61737  30.484  16.077  10.637
 2642W        W61738  23.062  10.260   2.419
 2643W        W61739  13.296  41.537   0.942
 2644W        W61740  20.543  10.770   5.278
 2645W        W61741   5.376   8.779  12.362
 2646W        W61742  41.500  12.116  11.530
 2647W        W61743  33.527   7.839  13.841
 2648W        W61744  17.699  25.189  13.461
 2649W        W61745  26.685  15.283   3.318
 2650W        W61746  41.490  26.610   3.147
 2651W        W61747  44.897  33.604   4.636
 2652W        W61748  35.053  31.020  10.928
 2653W        W61749  42.962   1.810   0.453
 2654W        W61750  19.558  28.088   3.765
 2655W        W61751   7.749  36.482   1.787
 2656W        W61752  12.165   0.438  11.102
 2657W        W61753  18.674  30.130   4.189
 2658W        W61754  31.119  31.541   3.820
 2659W        W61755  30.038  34.549  13.504
 2660W        W61756  31.535  28.116  10.968
 2661W        W61757  22.996  27.989   3.155
 2662W        W61758  12.615  23.602  12.528
 2663W        W61759   8.388   5.738   4.741
 2664W        W61760  43.958  20.762  14.968
 2665W        W61761   4.233   4.228   0.924
 2666W        W61762  37.921  12.242   0.467
 2667W        W61763   7.363   5.761  12.987
 2668W        W61764   1.773  39.416  12.056
 2669W        W61765  25.969  22.516   0.811
 2670W        W61766   3.357  12.689  14.287
 2671W        W61767  43.472  36.055   1.838
 2672W        W61768  18.561  22.550   4.121
 2673W        W61769   8.207  20.601   4.715
 2674W        W61770  29.049  14.674   1.755
 2675W        W61771  10.698  41.475   3.249
 2676W        W61772  44.933  18.679  14.941
 2677W        W61773   4.397   8.720  14.411
 2678W        W61774  18.575  15.611  10.130
 2679W        W61775   2.348   9.245   4.227
 2680W        W61776   3.391   4.841  10.084
 2681W        W61777  40.547   5.338  10.621
 2682W        W61778  42.910   7.200  14.427
 2683W        W61779  17.582  42.971   1.435
 2684W        W61780  30.947  44.408   0.327
 2685W        W61781  40.950   6.383  11.984
 2686W        W61782  14.256  41.895  13.333
 2687W        W61783  22.570  38.420  13.936
 2688W        W61784   3.905   6.813   3.728
 2689W        W61785  14.706  11.213   2.236
 2690W        W61786  21.666  35.880  12.454
 2691W        W61787   3.900   5.778   0.345
 2692W        W61788  17.116  25.111  12.390
 2693W        W61789  26.078  14.792   0.341
 2694W        W61790  31.443  29.999   2.353
 2695W        W61791  38.064  23.506  11.994
 2696W        W61792  34.389  32.060  13.814
 2697W        W61793  29.118  18.222  14.019
 2698W        W61794  10.705  13.800   1.728
 2699W        W61795  17.176  10.234   3.192
 2700W        W61796  11.642   3.878  10.434
 2701W        W61797   7.850  41.872  14.913
 2702W        W61798  35.405  42.297  12.053
 2703W        W61799  12.203  14.173   0.407
 2704W        W61800  24.649   3.826  10.523
 2705W        W61801  25.021  15.240  14.842
 2706W        W61802  41.431   1.912   2.288
 2707W        W61803  27.182  10.808   4.318
 2708W        W61804  11.145  32.617  14.426
 2709W        W61805  22.249  23.176   4.792
 2710W        W61806  17.233   2.928  13.546
 2711W        W61807  14.604  30.493   2.731
 2712W        W61808  41.997  31.948  13.516
 2713W        W61809   8.215  22.245   3.782
 2714W        W61810  38.549   6.878   5.215
 2715W        W61811  12.361  39.318  12.971
 2716W        W61812  26.522  24.034  11.049
 2717W        W61813   7.836  30.580  12.344
 2718W        W61814  30.558   0.341   0.862
 2719W        W61815  28.186   5.262  13.371
 2720W        W61816  33.451  40.956   3.685
 2721W        W61817  43.850  36.555  11.914
 2722W        W61818   7.910   0.790   3.241
 2723W        W61819  37.451  30.513   4.815
 2724W        W61820  29.088  24.101  10.099
 2725W        W61821  15.810   4.433   3.337
 2726W        W61822  10.294  32.051   2.328
 2727W        W61823  44.832  36.380   3.842
 2728W        W61824  26.472  22.029  11.019
 2729W        W61825  27.122  26.663  11.026
 2730W        W61826   4.794   4.922  12.976
 2731W        W61827  32.956  44.285  12.057
 2732W        W61828  30.966  11.171  10.630
 2733W        W61829   3.358  36.077  10.522
 2734W        W61830  15.715  33.075  13.986
 2735W        W61831  20.063  26.164  12.408
 2736W        W61832   3.252  23.582  12.569
 2737W        W61833  29.092  42.884   2.889
 2738W        W61834  24.518  27.061  11.896
 2739W        W61835  31.975  11.158  12.504
 2740W        W61836  37.419   9.356   4.813
 2741W        W61837  11.261   0.742   3.279
 2742W        W61838  35.086  35.894  10.442
 2743W        W61839  23.687   0.855   2.280
 2744W        W61840  13.240   0.480   0.942
 2745W        W61841   5.719  11.205   3.221
 2746W        W61842  19.625  39.983   4.249
 2747W        W61843  21.565  37.059   3.175
 2748W        W61844   5.401   4.362  12.907
 2749W        W61845   5.316  34.094  11.053
 2750W        W61846  37.469  16.107  13.465
 2751W        W61847  34.007  31.594   2.201
 2752W        W61848   8.762  16.249  13.968
 2753W        W61849  10.170  13.754  12.095
 2754W        W61850  15.815  33.106   1.841
 2755W        W61851  21.748  26.649  14.891
 2756W        W61852  30.015   5.366   1.900
 2757W        W61853  22.236  32.959  11.918
 2758W        W61854   8.168  12.817  13.546
 2759W        W61855   5.399  16.569  12.979
 2760W        W61856  34.116  18.250   5.187
 2761W        W61857   3.927  22.224  14.318
 2762W        W61858  23.732  30.478   0.788
 2763W        W61859  42.391   5.832  11.013
 2764W        W61860  20.106  40.954   4.210
 2765W        W61861  36.888  13.613   1.757
 2766W        W61862  18.084   2.373   3.834
 2767W        W61863  23.104  13.148   1.894
 2768W        W61864  40.009  22.651   1.329
 2769W        W61865  34.102  29.119  10.421
 2770W        W61866  28.604  39.877   1.802
 2771W        W61867  37.460  36.456  14.028
 2772W        W61868  29.625   3.338   1.434
 2773W        W61869  16.726   9.166  10.008
 2774W        W61870   1.239  43.514   4.130
 2775W        W61871   0.847   3.417   2.203
 2776W        W61872   5.220  22.113   5.203
 2777W        W61873  15.634   4.837   2.272
 2778W        W61874  32.092  16.585   2.775
 2779W        W61875  12.310  33.942  14.388
 2780W        W61876   9.370  35.412  14.361
 2781W        W61877  21.238  44.455   2.790
 2782W        W61878   9.383  40.055   0.868
 2783W        W61879  38.959  38.892  12.077
 2784W        W61880   6.684  25.710  14.509
 2785W        W61881  43.843  40.319   1.417
 2786W        W61882  30.449  34.528   0.755
 2787W        W61883  35.883   2.397  11.028
 2788W        W61884  21.653  41.861   1.904
 2789W        W61885   4.733  36.920   3.321
 2790W        W61886   2.403  28.929   4.829
 2791W        W61887  12.626  41.312  11.108
 2792W        W61888   2.345   4.412   4.617
 2793W        W61889  43.428  25.171  11.064
 2794W        W61890   5.232  34.942  13.051
 2795W        W61891   0.846   9.361  14.819
 2796W        W61892  39.466  43.429  13.525
 2797W        W61893  11.207  39.811  14.444
 2798W        W61894   8.348  23.040   1.851
 2799W        W61895  18.631  10.859   4.826
 2800W        W61896  41.892  26.505  12.072
 2801W        W61897  32.984   9.656   0.359
 2802W        W61898  33.096  25.017   1.336
 2803W        W61899   1.352  27.134   2.678
 2804W        W61900  24.119  12.304  12.912
 2805W        W61901  38.866   0.271  10.894
 2806W        W61902  30.908  27.194  14.287
 2807W        W61903  35.101  16.267  13.858
 2808W        W61904  30.149   1.772   3.337
 2809W        W61905  39.916  10.743   9.513
 2810W        W61906   7.273  31.936  14.844
 2811W        W61907  35.095   3.337  10.044
 2812W        W61908  28.113  35.901  13.830
 2813W        W61909  11.639  33.934   0.361
 2814W        W61910  14.809   8.860   4.209
 2815W        W61911  43.961   8.221  11.425
 2816W        W61912   7.290  37.336   3.831
 2817W        W61913  24.151  34.893  13.440
 2818W        W61914   7.799  35.956  11.528
 2819W        W61915  43.400  21.643   1.387
 2820W        W61916  20.551  15.321  11.050
 2821W        W61917   4.281  35.079   3.736
 2822W        W61918  12.241  11.772   3.274
 2823W        W61919   3.866   8.762  13.355
 2824W        W61920  15.155  18.067  10.899
 2825W        W61921  38.560  35.577   2.318
 2826W        W61922  39.875  37.981  13.446
 2827W        W61923  13.142   3.790  11.576
 2828W        W61924  17.261  39.392  11.461
 2829W        W61925  40.949  24.072  13.054
 2830W        W61926  35.854  35.451  11.979
 2831W        W61927   3.782  24.223  12.874
 2832W        W61928  16.775   8.841   3.796
 2833W        W61929  27.141  38.356  11.587
 2834W        W61930   3.270  19.778  14.839
 2835W        W61931  38.540  13.286   1.372
 2836W        W61932  35.595  24.680  12.515
 2837W        W61933  18.165  23.577   4.143
 2838W        W61934   0.759  28.024  14.291
 2839W        W61935  32.578  42.940   2.903
 2840W        W61936   1.796  12.644  11.054
 2841W        W61937   2.946  29.963  12.456
 2842W        W61938  17.298   3.901  12.485
 2843W        W61939   6.923  26.186  13.817
 2844W        W61940  31.139  23.198  12.487
 2845W        W61941   4.398  28.669   0.733
 2846W        W61942  33.568   1.860  13.895
 2847W        W61943  16.644  22.508  12.528
 2848W        W61944  41.852  25.675  11.610
 2849W        W61945  38.043  27.468  12.917
 2850W        W61946   0.814  22.730   1.803
 2851W        W61947   3.806  20.275  10.477
 2852W        W61948  37.462   6.752   4.819
 2853W        W61949  39.387   6.753   4.681
 2854W        W61950  42.847  34.524  12.035
 2855W        W61951  22.655   6.794   1.733
 2856W        W61952   6.407  33.006  10.431
 2857W        W61953   9.161  44.499   1.876
 2858W        W61954  43.764  38.494   2.283
 2859W        W61955  30.101   4.845   0.819
 2860W        W61956  36.066   0.299  10.897
 2861W        W61957   1.976  44.887   2.721
 2862W        W61958  19.055  12.244  13.816
 2863W        W61959  18.247   3.942  13.535
 2864W        W61960  19.229  13.270  10.515
 2865W        W61961  11.144  41.537   3.770
 2866W        W61962   9.832  27.061   0.409
 2867W        W61963  44.950  19.242  14.884
 2868W        W61964   8.789   4.807  12.912
 2869W        W61965  11.224   2.829   0.865
 2870W        W61966  42.803   5.819  14.420
 2871W        W61967   7.861  17.287   3.328
 2872W        W61968  40.366  35.041  12.846
 2873W        W61969  22.101  42.877  12.897
 2874W        W61970   5.759  40.906   1.248
 2875W        W61971   5.856   0.407  13.060
 2876W        W61972  37.992  29.664  13.992
 2877W        W61973  31.072  29.025  10.574
 2878W        W61974   7.707   0.811  14.828
 2879W        W61975  40.969  27.607  14.287
 2880W        W61976  29.934  31.639   2.401
 2881W        W61977   2.311  11.129   2.814
 2882W        W61978  32.970   1.270  14.291
 2883W        W61979  22.610  37.007   1.307
 2884W        W61980  21.624  40.546   4.694
 2885W        W61981  29.982  35.050   5.083
 2886W        W61982   9.750   4.267  11.862
 2887W        W61983  35.410   3.268  13.877
 2888W        W61984  20.099  24.530   3.646
 2889W        W61985  19.126  44.948   1.408
 2890W        W61986  19.208  14.743   0.792
 2891W        W61987  23.985   1.466   1.439
 2892W        W61988  44.802  28.139  11.019
 2893W        W61989   4.232  21.621   3.724
 2894W        W61990  16.163  42.380  14.330
 2895W        W61991  26.619  21.589  12.460
 2896W        W61992  38.010   4.382   4.641
 2897W        W61993  31.987  12.669   0.311
 2898W        W61994  17.690   3.361   3.654
 2899W        W61995   5.818  37.383  14.324
 2900W        W61996  30.521  30.989  14.006
 2901W        W61997  27.045  21.599  14.497
 2902W        W61998  38.012   0.845   1.279
 2903W        W61999  35.366  31.992  10.595
 2904W        W62000   2.798  24.593   5.287
 2905W        W62001  39.427   9.796   3.159
 2906W        W62002   0.756  10.742  11.388
 2907W        W62003  21.737  12.157   5.239
 2908W        W62004  40.360  18.232  13.532
 2909W        W62005   4.823  11.813   2.211
 2910W        W62006  41.301   1.866   4.634
 2911W        W62007  30.452  30.153   0.899
 2912W        W62008  43.803  43.362  10.956
 2913W        W62009  27.099  37.871   3.807
 2914W        W62010   9.244  18.569   2.214
 2915W        W62011  40.824   0.320   0.300
 2916W        W62012  31.018  15.731  11.437
 2917W        W62013  15.247  43.997  14.360
 2918W        W62014   7.256   7.683  10.592
 2919W        W62015   6.214  42.470  12.542
 2920W        W62016  13.663  33.945  12.346
 2921W        W62017  30.040  44.359   3.371
 2922W        W62018  14.682   1.344  12.340
 2923W        W62019  24.036  41.808  14.781
 2924W        W62020  42.327   5.429   0.459
 2925W        W62021  20.706   7.188  14.959
 2926W        W62022   0.301  29.065   4.152
 2927W        W62023  12.843   8.816   3.302
 2928W        W62024  23.135   8.254   0.861
 2929W        W62025  28.516  42.481  14.326
 2930W        W62026  11.281  17.588  11.373
 2931W        W62027  39.868  10.350   0.864
 2932W        W62028  17.624  18.592   1.228
 2933W        W62029   5.895  21.168   2.220
 2934W        W62030  10.637  40.954   4.287
 2935W        W62031  14.249   5.282   4.329
 2936W        W62032   8.739  37.457  13.933
 2937W        W62033  13.828  20.210  13.922
 2938W        W62034  13.287   5.386   0.792
 2939W        W62035  28.058  19.560  11.511
 2940W        W62036  17.185  16.642   0.441
 2941W        W62037  36.513  40.858   3.371
 2942W        W62038  12.142  29.655  14.507
 2943W        W62039  31.556  14.626   2.309
 2944W        W62040   3.950   5.427  12.086
 2945W        W62041  29.525   0.979   1.695
 2946W        W62042  22.509   3.725   2.761
 2947W        W62043  21.732  38.923   0.798
 2948W        W62044  13.257  19.607   4.187
 2949W        W62045   8.669  15.750  10.644
 2950W        W62046  16.156  15.176  12.497
 2951W        W62047   6.813   5.209  14.389
 2952W        W62048  18.175  12.615  11.428
 2953W        W62049   3.419  37.924  14.874
 2954W        W62050  33.486  35.443  13.883
 2955W        W62051  10.299   0.933   4.284
 2956W        W62052   7.387  22.008   4.710
 2957W        W62053  34.116  16.120  11.104
 2958W        W62054  11.786  42.952  11.004
 2959W        W62055  25.981  40.401   4.821
 2960W        W62056   5.769  30.550  11.025
 2961W        W62057  33.067   1.401  13.968
 2962W        W62058  34.530  43.479  14.928
 2963W        W62059  31.150  28.483  12.552
 2964W        W62060   5.403  17.192   3.643
 2965W        W62061  17.742  10.667   5.685
 2966W        W62062  26.602  14.620  10.440
 2967W        W62063  36.869  18.290  12.961
 2968W        W62064  23.651   1.385   0.304
 2969W        W62065   2.953  16.803   4.778
 2970W        W62066  35.999   3.354  11.977
 2971W        W62067  16.174   5.373  13.508
 2972W        W62068  32.103  11.199   2.259
 2973W        W62069   6.855  32.102  12.463
 2974W        W62070  28.046  40.398   4.676
 2975W        W62071   4.788   2.755   0.920
 2976W        W62072   3.403   3.724  14.303
 2977W        W62073   0.939  40.464  12.461
 2978W        W62074  17.134  40.827   3.146
 2979W        W62075  33.956  21.161   2.900
 2980W        W62076  39.322  42.301  10.584
 2981W        W62077  14.258   5.271  14.501
 2982W        W62078  44.326   4.371   1.330
 2983W        W62079  40.957  21.699  12.514
 2984W        W62080  33.919  40.870  12.029
 2985W        W62081  10.219  38.405   0.280
 2986W        W62082  44.757  43.769   0.271
 2987W        W62083  32.565   6.388   2.361
 2988W        W62084   0.410   4.358  12.911
 2989W        W62085   5.877  29.132   4.307
 2990W        W62086  28.146   8.873   3.637
 2991W        W62087  14.711  41.433   1.429
 2992W        W62088  39.901  20.645   0.828
 2993W        W62089  36.497  41.494   4.205
 2994W        W62090  39.055  38.859   5.234
 2995W        W62091  32.105  30.555  13.007
 2996W        W62092  36.019  17.132  13.869
 2997W        W62093  34.044   6.870   1.765
 2998W        W62094  13.123  29.954   9.933
 2999W        W62095  26.669  12.337  11.596
 3000W        W62096  27.188  24.977   0.257
 3001W        W62097  24.034   0.958  13.327
 3002W        W62098  36.087  13.738  12.345
 3003W        W62099  37.087   0.421  12.857
 3004W        W62100   3.904  23.693   2.244
 3005W        W62101   1.973   7.761  10.969
 3006W        W62102  35.881  15.086   4.122
 3007W        W62103  14.594  20.629   0.942
 3008W        W62104  27.676  19.698   3.692
 3009W        W62105  30.908  25.504  12.380
 3010W        W62106  15.584  12.187  10.920
 3011W        W62107  43.282   9.795   4.117
 3012W        W62108  27.480  24.479   3.845
 3013W        W62109   2.291  23.566   3.281
 3014W        W62110   1.843  11.773   2.259
 3015W        W62111  11.367  32.448   2.870
 3016W        W62112  31.915  27.960   3.733
 3017W        W62113  38.861  24.508   4.201
 3018W        W62114  39.033  20.201  13.866
 3019W        W62115  44.006  36.032   1.810
 3020W        W62116  35.493  34.040  13.458
 3021W        W62117  27.692  33.029  14.772
 3022W        W62118  23.151  22.529  10.906
 3023W        W62119  36.351   6.827  10.461
 3024W        W62120  41.954  11.822  12.476
 3025W        W62121   0.945  38.841   1.378
 3026W        W62122  27.520   2.424  11.098
 3027W        W62123  43.393  21.538  12.385
 3028W        W62124  43.805  37.989  11.527
 3029W        W62125  24.675  32.614  14.803
 3030W        W62126  28.486  33.991   1.921
 3031W        W62127  20.599  33.539  12.409
 3032W        W62128  23.690  22.712   2.696
 3033W        W62129   0.382  40.814  14.326
 3034W        W62130  15.107  17.674   5.674
 3035W        W62131   7.381  36.387  10.484
 3036W        W62132  27.952  13.756   0.453
 3037W        W62133  40.953  27.598   4.753
 3038W        W62134  34.387  13.291   4.181
 3039W        W62135   5.390  42.791  12.349
 3040W        W62136  10.656  25.620   0.962
 3041W        W62137  24.492  41.860  10.973
 3042W        W62138  29.958   4.442  13.990
 3043W        W62139   0.816  15.276   2.756
 3044W        W62140   3.928   2.724  14.992
 3045W        W62141  14.830  40.302  14.957
 3046W        W62142   2.912  15.222   3.816
 3047W        W62143  31.569  17.222   2.784
 3048W        W62144  23.661   6.246   3.788
 3049W        W62145   6.318  40.316   3.200
 3050W        W62146   0.377  26.494  10.944
 3051W        W62147  35.381   2.722   4.352
 3052W        W62148  16.715  22.238   2.271
 3053W        W62149  41.412  30.164   0.301
 3054W        W62150  33.046  37.337  13.487
 3055W        W62151  29.048  35.404   3.372
 3056W        W62152   1.286  26.185  12.479
 3057W        W62153  37.057   5.193   2.682
 3058W        W62154   2.253  34.073   4.705
 3059W        W62155  44.308  20.192   2.327
 3060W        W62156  20.744  27.990  11.932
 3061W        W62157  27.507  21.687  12.532
 3062W        W62158   2.246   9.870   3.678
 3063W        W62159  26.520  23.117  11.591
 3064W        W62160  34.994  19.123   2.864
 3065W        W62161  21.261  44.815   4.774
 3066W        W62162   3.328   6.195  14.292
 3067W        W62163  35.944  27.085   9.579
 3068W        W62164  13.661  40.471   1.790
 3069W        W62165  30.573  12.333  12.355
 3070W        W62166   3.824  15.781   4.780
 3071W        W62167  40.435  21.556   0.457
 3072W        W62168  28.947  20.552  12.074
 3073W        W62169  33.088  37.993  14.843
 3074W        W62170  43.466  31.956  12.470
 3075W        W62171  43.842  18.105   1.289
 3076W        W62172  36.401  30.034  11.502
 3077W        W62173  11.691  16.115   4.635
 3078W        W62174  36.412  27.988  10.903
 3079W        W62175   2.259  25.112  13.344
 3080W        W62176  28.648  44.352  10.908
 3081W        W62177  29.440  25.664  11.080
 3082W        W62178  19.074   4.315   4.292
 3083W        W62179  38.907  36.036  12.037
 3084W        W62180   5.233  36.390   1.447
 3085W        W62181   7.703   6.318   1.322
 3086W        W62182   2.763   2.966   3.234
 3087W        W62183  33.876  31.535   4.208
 3088W        W62184  32.596   4.313   0.351
 3089W        W62185  22.697  17.073  13.812
 3090W        W62186  23.692  36.579   2.334
 3091W        W62187  26.963  30.574  12.071
 3092W        W62188   4.856   1.939  10.112
 3093W        W62189   9.386   4.858   1.790
 3094W        W62190  35.585  25.110  13.543
 3095W        W62191  31.062   4.351  14.774
 3096W        W62192  15.777  31.914  11.583
 3097W        W62193  21.525  11.755   0.772
 3098W        W62194   2.912  35.907  13.477
 3099W        W62195   2.802  16.128  14.327
 3100W        W62196  22.660  25.611   9.941
 3101W        W62197  33.506  10.749  11.073
 3102W        W62198  38.379  25.694  12.030
 3103W        W62199  15.302  35.095  13.027
 3104W        W62200  26.630  37.990   1.746
 3105W        W62201  40.055  36.081  10.987
 3106W        W62202   5.386   0.826  10.630
 3107W        W62203   8.235  13.135   4.752
 3108W        W62204   5.773   4.719  13.540
 3109W        W62205   1.842  24.557  12.348
 3110W        W62206  13.815  13.241  12.365
 3111W        W62207  18.148  41.814  13.337
 3112W        W62208  44.472  15.136  11.114
 3113W        W62209  27.483  17.632  11.532
 3114W        W62210   0.481  37.501  11.488
 3115W        W62211   4.390   0.971  12.899
 3116W        W62212  38.866  28.585  10.619
 3117W        W62213  15.791   4.322  11.539
 3118W        W62214  44.342  41.521  13.972
 3119W        W62215  21.113  40.445  13.459
 3120W        W62216  43.318  12.707   4.120
 3121W        W62217  39.983  43.283  12.057
 3122W        W62218  29.632   7.671   1.384
 3123W        W62219  10.141   2.798   4.260
 3124W        W62220  29.557   1.475  11.566
 3125W        W62221  43.473  13.110  12.015
 3126W        W62222  36.992   3.711  12.386
 3127W        W62223  25.567  40.412   0.966
 3128W        W62224  10.155  28.480   1.243
 3129W        W62225   6.723  41.920   3.361
 3130W        W62226  19.636  15.655  10.430
 3131W        W62227  24.204  32.908   3.775
 3132W        W62228  26.040  13.306  13.867
 3133W        W62229  11.765  41.020   4.207
 3134W        W62230   4.753  40.390   2.894
 3135W        W62231  39.944  30.963  10.443
 3136W        W62232  31.989   2.375   1.235
 3137W        W62233  29.970  17.608  14.019
 3138W        W62234  21.123  40.932  12.016
 3139W        W62235  13.336  26.971   0.814
 3140W        W62236  16.729  13.728   3.282
 3141W        W62237   7.334  11.191   3.806
 3142W        W62238  35.076  16.172   2.261
 3143W        W62239  21.566  24.652   2.717
 3144W        W62240  29.089  28.662  10.505
 3145W        W62241  41.848  39.887   1.280
 3146W        W62242  44.844  41.402  13.540
 3147W        W62243   3.454  15.135  12.978
 3148W        W62244  36.549  44.367   2.273
 3149W        W62245  24.565  44.342  10.631
 3150W        W62246  31.924  31.085  12.831
 3151W        W62247   9.807   8.857   5.146
 3152W        W62248  35.948  22.538   2.799
 3153W        W62249  26.643  34.407   1.845
 3154W        W62250  20.683  40.917   3.260
 3155W        W62251  30.146  18.584  13.800
 3156W        W62252  18.178  33.413  14.435
 3157W        W62253  17.164  35.439   5.617
 3158W        W62254   9.684   4.901  14.466
 3159W        W62255  30.607  35.996  13.917
 3160W        W62256  27.599   6.420  10.508
 3161W        W62257  35.485  10.161  11.864
 3162W        W62258  26.093  33.542  12.385
 3163W        W62259  27.156  25.609   2.381
 3164W        W62260  10.234  25.160  10.914
 3165W        W62261  15.792  42.956  12.416
 3166W        W62262  44.446   5.928  10.438
 3167W        W62263  16.269   6.743  13.927
 3168W        W62264  38.484  34.597  13.019
 3169W        W62265  38.478  23.700  12.913
 3170W        W62266  24.675  25.554   0.867
 3171W        W62267  12.160  22.743   2.680
 3172W        W62268  43.853  15.818   3.793
 3173W        W62269   9.371   9.720  11.938
 3174W        W62270  29.644  41.436  10.549
 3175W        W62271  10.271  11.828   0.878
 3176W        W62272   5.323  19.046  10.493
 3177W        W62273  43.940  29.545   4.193
 3178W        W62274  33.568  43.471  12.059
 3179W        W62275  20.234  40.456   0.320
 3180W        W62276   5.345  33.116   3.341
 3181W        W62277  43.924   0.370   2.267
 3182W        W62278  27.508  16.761   3.631
 3183W        W62279   7.773  26.068   1.291
 3184W        W62280  11.644  32.442  12.342
 3185W        W62281   2.468  15.590  12.832
 3186W        W62282  19.067  42.386   4.194
 3187W        W62283  28.623   9.238  12.851
 3188W        W62284  28.957  38.023   3.810
 3189W        W62285  19.757  44.389   3.666
 3190W        W62286  15.251  13.745   2.312
 3191W        W62287   5.239  42.964  10.916
 3192W        W62288   8.812  31.125   1.753
 3193W        W62289  12.820  43.415  12.949
 3194W        W62290  36.076  20.579  13.986
 3195W        W62291  25.162   2.364   2.204
 3196W        W62292   1.329  18.791   2.307
 3197W        W62293  14.153  42.353   3.361
 3198W        W62294  11.131  39.892  13.861
 3199W        W62295  36.528   6.905   4.691
 3200W        W62296  43.851  27.647   3.195
 3201W        W62297   0.807   0.927   4.307
 3202W        W62298  29.929  38.501  14.442
 3203W        W62299  10.836  25.195  14.444
 3204W        W62300  32.612  31.402   2.844
 3205W        W62301  25.051   3.322  10.498
 3206W        W62302  16.667  40.873  10.455
 3207W        W62303  35.011  20.102   4.146
 3208W        W62304   3.227   2.861   1.270
 3209W        W62305   8.760  30.451   2.694
 3210W        W62306  21.567   3.248  11.432
 3211W        W62307  42.479  43.323   3.326
 3212W        W62308  34.466  10.803  11.113
 3213W        W62309  25.145   8.755   4.618
 3214W        W62310  21.659  13.274  11.545
 3215W        W62311  14.333  35.939   4.223
 3216W        W62312  12.644  36.408  10.985
 3217W        W62313   9.848   9.701   4.192
 3218W        W62314  36.415  20.167   4.165
 3219W        W62315   9.688  34.399   4.656
 3220W        W62316  37.551  15.308  10.156
 3221W        W62317  13.206  26.560  11.883
 3222W        W62318   6.255  22.541  13.328
 3223W        W62319  43.823   3.277   1.813
 3224W        W62320   4.822  37.430   3.775
 3225W        W62321  44.937  40.856   1.821
 3226W        W62322  20.138  15.676  14.421
 3227W        W62323  14.607   0.788   0.876
 3228W        W62324  29.617   7.401   3.711
 3229W        W62325  18.073  11.851  13.930
 3230W        W62326  38.842  17.612   1.211
 3231W        W62327  23.722   5.360   3.742
 3232W        W62328  36.397  34.513  12.477
 3233W        W62329  17.590  11.212   3.181
 3234W        W62330  36.372  30.990   1.281
 3235W        W62331  31.033  35.549   0.784
 3236W        W62332   7.373  17.098  10.958
 3237W        W62333   3.300  15.578   3.146
 3238W        W62334  44.415  34.442  14.015
 3239W        W62335   6.258  25.564   3.631
 3240W        W62336   1.975  42.448  15.000
 3241W        W62337   9.842   9.769  13.975
 3242W        W62338  41.797  33.051  11.984
 3243W        W62339  34.920  30.040  13.952
 3244W        W62340  38.445  36.894  14.317
 3245W        W62341  23.023  43.936   2.755
 3246W        W62342  26.982  26.477  14.321
 3247W        W62343   2.263  38.970  10.537
 3248W        W62344  31.988   9.833   3.780
 3249W        W62345   9.852  37.349  13.458
 3250W        W62346  11.788  43.790  13.327
 3251W        W62347  10.141  12.790   5.289
 3252W        W62348  17.792  28.170  13.450
 3253W        W62349   9.210  20.747  14.972
 3254W        W62350  14.134  33.085   4.301
 3255W        W62351   3.756   7.383  13.478
 3256W        W62352  10.157  14.189  14.959
 3257W        W62353  18.699  16.221  14.443
 3258W        W62354  29.565  19.062   1.419
 3259W        W62355  17.560   5.822  11.891
 3260W        W62356  31.017  28.935   3.316
 3261W        W62357  11.253  23.690   1.223
 3262W        W62358  28.949  21.214  13.819
 3263W        W62359   3.345  17.602  14.992
 3264W        W62360  19.655  32.572  14.823
 3265W        W62361   7.294  12.730   1.290
 3266W        W62362   3.432  32.944   0.748
 3267W        W62363  28.092   5.846  12.034
 3268W        W62364  16.612  34.482  13.487
 3269W        W62365  23.123  16.736   4.733
 3270W        W62366   4.431  25.599  12.870
 3271W        W62367  16.766   3.763  11.594
 3272W        W62368  26.585  42.975   5.224
 3273W        W62369  22.553  42.845   3.226
 3274W        W62370  26.983  32.480  11.972
 3275W        W62371   9.768   8.752   3.666
 3276W        W62372  44.967  40.518   0.737
 3277W        W62373  40.410  36.039  11.008
 3278W        W62374  14.598  37.543   3.789
 3279W        W62375  18.175  36.027   3.179
 3280W        W62376  17.619  17.791   4.265
 3281W        W62377  28.623  28.565  13.519
 3282W        W62378  16.123  17.283  12.405
 3283W        W62379  29.965  20.034   2.285
 3284W        W62380  21.065  36.544   9.483
 3285W        W62381  12.710  39.352  10.539
 3286W        W62382  30.450  25.485   3.358
 3287W        W62383  29.464  24.094   0.860
 3288W        W62384  24.720  18.666   0.823
 3289W        W62385  40.001  38.933  12.562
 3290W        W62386  32.462  19.750  11.994
 3291W        W62387  27.079  42.872  14.383
 3292W        W62388   2.324   5.794   4.199
 3293W        W62389  14.201  34.898  11.866
 3294W        W62390  17.764  25.507   2.263
 3295W        W62391   3.792  29.527  14.367
 3296W        W62392  17.186   3.442  10.127
 3297W        W62393  14.098  43.491   4.168
 3298W        W62394  21.541  38.057   2.185
 3299W        W62395  29.972  35.908   0.769
 3300W        W62396   7.391  29.452  13.824
 3301W        W62397   3.902  34.888  13.391
 3302W        W62398  30.012  30.448   2.664
 3303W        W62399  21.744   1.926   3.360
 3304W        W62400  38.531  12.185   1.361
 3305W        W62401  33.547   1.883   1.765
 3306W        W62402  39.458   9.737  14.821
 3307W        W62403  38.451  10.642   1.448
 3308W        W62404  39.958  16.138  11.880
 3309W        W62405  34.863  25.675  14.423
 3310W        W62406  18.116   7.284   4.276
 3311W        W62407  17.616  33.971  10.938
 3312W        W62408  40.421  14.249   3.248
 3313W        W62409  31.636  27.970   1.745
 3314W        W62410   5.309  17.582  14.511
 3315W        W62411  21.059  16.727  10.104
 3316W        W62412  22.041   4.792   0.906
 3317W        W62413  42.808  29.583   3.279
 3318W        W62414  15.218  24.124   4.648
 3319W        W62415  20.032   2.267  12.072
 3320W        W62416  39.402  41.359  13.017
 3321W        W62417  22.059   8.844  12.417
 3322W        W62418  36.353  10.703  10.458
 3323W        W62419   8.369   2.267  12.919
 3324W        W62420  23.658  22.691   1.701
 3325W        W62421  12.307  33.101   3.179
 3326W        W62422   2.883  34.543  13.878
 3327W        W62423  28.647   1.392  12.873
 3328W        W62424   8.861  44.396   4.661
 3329W        W62425  33.531  41.425   1.921
 3330W        W62426  34.029  15.631  14.372
 3331W        W62427  16.273  35.931   9.515
 3332W        W62428  26.558   0.417  10.426
 3333W        W62429  31.607   8.872  13.964
 3334W        W62430  23.632  28.561   4.694
 3335W        W62431   3.349  37.581   0.412
 3336W        W62432   9.299  14.745  10.546
 3337W        W62433   1.863  44.373   4.224
 3338W        W62434  34.971  24.651   2.705
 3339W        W62435  44.834  39.391  13.388
 3340W        W62436  28.062  17.171  14.463
 3341W        W62437  37.575   6.741   0.831
 3342W        W62438   2.371   4.893   4.724
 3343W        W62439  17.713  37.470  12.497
 3344W        W62440  21.745  44.345   0.250
 3345W        W62441  25.144  44.008   1.923
 3346W        W62442  24.023  38.029   4.139
 3347W        W62443   3.262  30.988  14.809
 3348W        W62444   1.402  21.659   4.313
 3349W        W62445  36.052  20.538   1.903
 3350W        W62446  33.962  33.957   0.935
 3351W        W62447  13.210  15.721   5.679
 3352W        W62448  25.512  27.099   0.468
 3353W        W62449  42.027  43.962  13.530
 3354W        W62450  13.307  39.547  14.832
 3355W        W62451   9.704  34.093  11.439
 3356W        W62452  20.713  36.359   1.771
 3357W        W62453  39.960  36.568   3.720
 3358W        W62454  12.326  35.082   3.779
 3359W        W62455  21.056  32.480   2.315
 3360W        W62456  26.137  26.155  13.527
 3361W        W62457  32.025   6.770   0.385
 3362W        W62458  18.776   8.215  10.924
 3363W        W62459  40.904  36.377  12.059
 3364W        W62460  36.486  18.657  12.566
 3365W        W62461   6.386  12.726  10.926
 3366W        W62462  30.471  30.447   2.747
 3367W        W62463  36.532   4.318   2.720
 3368W        W62464  36.526  27.972   2.662
 3369W        W62465  15.278  40.043   0.252
 3370W        W62466  24.613  30.594   0.868
 3371W        W62467   0.985   8.709  14.932
 3372W        W62468   5.426  24.148  12.542
 3373W        W62469  32.515   6.336  10.963
 3374W        W62470   3.351  18.157   3.724
 3375W        W62471  36.372  14.634  14.296
 3376W        W62472   3.446   0.338  11.375
 3377W        W62473  28.600  15.635  14.965
 3378W        W62474  40.404  16.615   1.376
 3379W        W62475  32.118   4.926   3.834
 3380W        W62476   9.786   8.900  14.782
 3381W        W62477  41.933  28.988  10.160
 3382W        W62478  25.005  40.314  12.950
 3383W        W62479  24.146  36.057   9.952
 3384W        W62480  33.563  29.627  14.023
 3385W        W62481   2.460  37.379   0.375
 3386W        W62482  40.857  36.031  14.281
 3387W        W62483  14.802   6.874   3.182
 3388W        W62484  30.577  22.690   3.212
 3389W        W62485   9.223   5.256   0.423
 3390W        W62486  16.210  12.718  10.938
 3391W        W62487   9.274  38.932   2.408
 3392W        W62488  16.122   6.305   4.622
 3393W        W62489   9.219   5.257   4.643
 3394W        W62490  38.461  38.360  13.496
 3395W        W62491  30.054  42.317  13.841
 3396W        W62492  44.769  26.184   1.352
 3397W        W62493  12.740  13.291  13.335
 3398W        W62494  23.046   1.395   3.295
 3399W        W62495  44.344  24.182  12.547
 3400W        W62496  18.250   1.276   1.216
 3401W        W62497  38.973  41.899   0.861
 3402W        W62498  36.059  32.572   1.872
 3403W        W62499  43.826   3.460  13.811
 3404W        W62500   4.893  32.985   5.118
 3405W        W62501  15.800  21.051  11.946
 3406W        W62502   2.881  27.143   9.546
 3407W        W62503   4.823  39.411  11.463
 3408W        W62504  12.664  11.844   3.721
 3409W        W62505  38.513  25.041   4.223
 3410W        W62506  26.550   4.776   3.856
 3411W        W62507   5.203  43.999  14.014
 3412W        W62508  43.277  13.316   3.305
 3413W        W62509  20.701   0.938   2.791
 3414W        W62510   1.268  21.218  12.519
 3415W        W62511  10.326  10.286  13.411
 3416W        W62512  30.077  35.924   1.434
 3417W        W62513  13.776  33.600  10.564
 3418W        W62514  10.829  33.968  14.394
 3419W        W62515  14.142  32.439   1.723
 3420W        W62516   5.819   0.451  12.047
 3421W        W62517  26.127  26.481  14.894
 3422W        W62518  25.172  37.555   9.642
 3423W        W62519  13.608  27.090   0.780
 3424W        W62520  31.489  19.539  13.061
 3425W        W62521   1.334  16.177  10.622
 3426W        W62522  40.913  10.192   3.667
 3427W        W62523  12.829  21.626   4.152
 3428W        W62524  18.744  30.517   4.619
 3429W        W62525  36.439   2.859  12.948
 3430W        W62526  12.324  42.826  14.951
 3431W        W62527   8.233  28.958   2.390
 3432W        W62528  27.144  32.546  11.530
 3433W        W62529  27.649  32.594   1.226
 3434W        W62530  30.486  43.505  12.424
 3435W        W62531  35.522  43.967  14.361
 3436W        W62532   1.831   6.858   1.811
 3437W        W62533  29.575  13.214  10.904
 3438W        W62534  19.764  42.011  11.085
 3439W        W62535  44.774   4.800   0.322
 3440W        W62536  44.499  42.930   3.229
 3441W        W62537  33.549  21.541  14.024
 3442W        W62538  19.572  13.743   2.679
 3443W        W62539  11.126   7.207   1.900
 3444W        W62540  10.852  41.413   5.102
 3445W        W62541  39.942  13.711   2.297
 3446W        W62542   5.312  32.399  14.513
 3447W        W62543  13.751  24.544   0.929
 3448W        W62544   5.843  30.931  12.857
 3449W        W62545  31.479   4.426   4.142
 3450W        W62546  17.250  20.734   0.404
 3451W        W62547  43.506  31.455  13.516
 3452W        W62548  39.949  36.876  10.505
 3453W        W62549  34.494  13.676   2.748
 3454W        W62550  25.964  22.511  13.891
 3455W        W62551   1.925  27.459   0.911
 3456W        W62552  16.314  42.901   9.960
 3457W        W62553  34.529  15.695  12.039
 3458W        W62554  44.770  20.624   4.169
 3459W        W62555   2.790  15.310  10.548
 3460W        W62556  36.508  44.753  12.062
 3461W        W62557  30.928  16.685   1.912
 3462W        W62558   8.814  40.342  14.391
 3463W        W62559  32.469  21.534   2.362
 3464W        W62560  25.591   8.840   2.817
 3465W        W62561  31.541  27.950  13.937
 3466W        W62562  41.949  18.164   2.242
 3467W        W62563  16.590  19.723  10.531
 3468W        W62564  22.723   1.282  13.544
 3469W        W62565   6.716   9.700   1.698
 3470W        W62566  44.876  19.776   1.737
 3471W        W62567  35.991  34.962  14.380
 3472W        W62568  33.440   8.184  13.401
 3473W        W62569  37.531  15.604   3.237
 3474W        W62570  40.314  41.392  13.351
 3475W        W62571  18.223   2.771   0.937
 3476W        W62572  37.504  42.387  11.117
 3477W        W62573   5.301  38.425   4.756
 3478W        W62574  12.299  44.459  11.496
 3479W        W62575   6.193  42.474   3.833
 3480W        W62576   8.251   7.324   4.291
 3481W        W62577  33.536  44.001  13.489
 3482W        W62578   2.437   7.791  14.940
 3483W        W62579  17.174  28.182   1.233
 3484W        W62580   7.796  19.116   4.796
 3485W        W62581   5.341   7.263  10.927
 3486W        W62582   1.961  26.976  13.926
 3487W        W62583  40.510  32.521   1.900
 3488W        W62584  16.649  22.677   3.860
 3489W        W62585  38.938  25.126  14.292
 3490W        W62586  13.196  30.441  11.072
 3491W        W62587  42.347  44.978   1.310
 3492W        W62588  30.920  41.346   1.709
 3493W        W62589  12.658   5.799   2.760
 3494W        W62590  32.894  22.661  11.877
 3495W        W62591   7.279  33.059   1.384
 3496W        W62592   5.345   2.772  12.426
 3497W        W62593  17.148  25.984  11.115
 3498W        W62594  27.033  23.097   3.263
 3499W        W62595  24.188  37.832   1.839
 3500W        W62596   5.289  21.741   0.782
 3501W        W62597  29.541   1.458   1.776
 3502W        W62598  34.015   0.785   4.170
 3503W        W62599  28.020  43.470  11.112
 3504W        W62600   5.236   1.352  13.925
 3505W        W62601  23.532  22.709   3.232
 3506W        W62602  23.158  33.595  14.302
 3507W        W62603  36.983  14.722   1.299
 3508W        W62604  13.721   0.821   1.210
 3509W        W62605  14.807  42.943   5.234
 3510W        W62606   4.794  25.711   5.750
 3511W        W62607  24.609  12.815   4.712
 3512W        W62608   6.386  38.820   2.692
 3513W        W62609   3.237  13.111   0.833
 3514W        W62610  22.242  42.439  11.000
 3515W        W62611   7.713  10.271  13.053
 3516W        W62612  19.285  23.703  10.628
 3517W        W62613  38.376  36.034  10.477
 3518W        W62614   8.349  15.261   1.817
 3519W        W62615  37.562  26.669   3.277
 3520W        W62616  19.210  32.479   0.951
 3521W        W62617   0.980  18.177   1.792
 3522W        W62618  23.071  44.958  13.895
 3523W        W62619   7.727  20.635  12.533
 3524W        W62620  42.819  30.149   0.849
 3525W        W62621  15.812  18.732  13.975
 3526W        W62622  17.098   4.920   1.912
 3527W        W62623  19.744  33.521  14.991
 3528W        W62624   0.959   3.749  11.571
 3529W        W62625  37.575  43.353   0.435
 3530W        W62626  11.861  34.067   2.880
 3531W        W62627  26.642  43.417   4.760
 3532W        W62628  37.432  42.018  13.824
 3533W        W62629  35.388  13.624   1.865
 3534W        W62630   6.300   3.364  12.834
 3535W        W62631  21.706  24.138  13.459
 3536W        W62632  19.128  27.652  14.958
 3537W        W62633   9.330   3.948   0.339
 3538W        W62634  31.583  43.316   0.956
 3539W        W62635  31.434  26.203  12.063
 3540W        W62636  34.386  19.570   3.669
 3541W        W62637  14.146  41.885   0.418
 3542W        W62638  24.609  44.386  11.501
 3543W        W62639   4.252   3.260  14.962
 3544W        W62640  34.023   8.200   0.325
 3545W        W62641  29.152   2.856  12.824
 3546W        W62642   4.759  28.606  11.944
 3547W        W62643  24.595  26.574   3.211
 3548W        W62644   9.293  35.370  12.988
 3549W        W62645  37.835  42.421   3.650
 3550W        W62646   2.414   2.800   1.298
 3551W        W62647  43.849  29.623  13.902
 3552W        W62648   7.854  23.110   0.904
 3553W        W62649   1.959   6.890   0.730
 3554W        W62650  24.681  34.583   2.831
 3555W        W62651  38.944  27.475  12.559
 3556W        W62652  21.130  31.564  12.834
 3557W        W62653  14.232  28.594   5.286
 3558W        W62654  44.326  36.474  13.361
 3559W        W62655  15.151  26.574  10.099
 3560W        W62656   5.841  43.902   2.853
 3561W        W62657  27.494  43.505   4.789
 3562W        W62658  34.043  19.736  14.872
 3563W        W62659  36.420  23.032   4.115
 3564W        W62660  14.156  38.892  12.426
 3565W        W62661  11.766   6.908  13.904
 3566W        W62662   7.784   5.405   2.760
 3567W        W62663  40.030  44.326   3.192
 3568W        W62664  22.108   9.374  14.412
 3569W        W62665  22.017  27.666   4.264
 3570W        W62666  28.016  39.547  14.344
 3571W        W62667  31.039  30.114   4.228
 3572W        W62668  12.636  22.738  13.484
 3573W        W62669  11.797  31.565  14.763
 3574W        W62670  44.403  39.897   0.896
 3575W        W62671   2.809  15.115   4.227
 3576W        W62672  22.030   8.207  13.508
 3577W        W62673  25.112  33.039   1.785
 3578W        W62674  35.482  23.682  14.886
 3579W        W62675  27.152  43.291  14.358
 3580W        W62676  23.224   5.762  12.491
 3581W        W62677  32.406  27.116  11.126
 3582W        W62678  34.063  12.689   0.930
 3583W        W62679  13.835  27.469  12.949
 3584W        W62680   8.894  20.601   0.294
 3585W        W62681  27.954  21.150   0.355
 3586W        W62682  31.081  29.107   0.776
 3587W        W62683  31.081  26.196   4.770
 3588W        W62684   2.923  37.541   2.700
 3589W        W62685   5.876   6.819   3.843
 3590W        W62686  38.058   0.304  13.440
 3591W        W62687  32.902  23.180  12.074
 3592W        W62688  39.488   7.695   0.321
 3593W        W62689  26.203  17.757   0.443
 3594W        W62690   5.437   0.296  13.524
 3595W        W62691  10.647  42.394   2.221
 3596W        W62692  37.395  37.423   1.856
 3597W        W62693  17.200   4.219  12.393
 3598W        W62694  33.509   9.297  11.098
 3599W        W62695  14.699  42.298  10.977
 3600W        W62696   5.740  12.172  12.407
 3601W        W62697  36.400  28.595  13.389
 3602W        W62698  13.232   7.409  11.595
 3603W        W62699  28.090  35.374   2.896
 3604W        W62700  19.259  20.707   3.837
 3605W        W62701  21.602  31.417  14.883
 3606W        W62702  35.419  31.085   0.410
 3607W        W62703  34.926  18.552   5.767
 3608W        W62704  25.207  16.170   3.251
 3609W        W62705  21.616   0.854   0.454
 3610W        W62706  30.146   1.775  12.418
 3611W        W62707  35.381  41.946  12.002
 3612W        W62708  26.486  16.076   0.755
 3613W        W62709  35.388  39.359   1.752
 3614W        W62710   0.901  42.501  13.957
 3615W        W62711  19.773  22.190  11.934
 3616W        W62712  42.522  33.960   4.784
 3617W        W62713   3.750  39.368   1.754
 3618W        W62714  20.097  40.401  12.073
 3619W        W62715  14.676  25.521  14.459
 3620W        W62716  38.923  24.147  11.414
 3621W        W62717  25.143  15.221   1.761
 3622W        W62718  12.650  22.134  11.550
 3623W        W62719  42.513  22.208  13.983
 3624W        W62720  23.528  21.207   0.744
 3625W        W62721  12.643  17.601  13.307
 3626W        W62722  16.744   8.822  10.115
 3627W        W62723  11.143  20.199   3.738
 3628W        W62724  40.546  34.098   1.221
 3629W        W62725  25.705  21.129  13.500
 3630W        W62726   6.837  17.116  13.365
 3631W        W62727  25.545  38.064  14.457
 3632W        W62728  14.764  43.486  10.488
 3633W        W62729   4.224  43.421   1.839
 3634W        W62730  37.351  37.838  10.497
 3635W        W62731  36.085   8.393  13.362
 3636W        W62732  35.953   9.694  14.766
 3637W        W62733   6.237  25.489   2.767
 3638W        W62734  42.845  12.634  11.481
 3639W        W62735  33.086   8.860  12.404
 3640W        W62736  32.909  36.424   4.621
 3641W        W62737  34.418  30.070  13.493
 3642W        W62738  40.538  25.635  12.913
 3643W        W62739  41.825  12.744  14.020
 3644W        W62740   6.682   4.316  11.432
 3645W        W62741  20.648  17.559   4.139
 3646W        W62742  13.791  19.550   5.169
 3647W        W62743  12.250  12.776   4.326
 3648W        W62744  42.456  23.089  11.119
 3649W        W62745   5.432  34.571   4.156
 3650W        W62746  11.227  27.008  10.450
 3651W        W62747   2.419  17.727   2.230
 3652W        W62748   5.424  18.658   1.405
 3653W        W62749  30.614  35.548   3.648
 3654W        W62750  24.546  31.006   3.855
 3655W        W62751  10.272   0.392  14.381
 3656W        W62752  22.015  28.481   2.299
 3657W        W62753   7.824  38.072  14.990
 3658W        W62754  20.554  14.816   2.407
 3659W        W62755  28.072  34.371  14.988
 3660W        W62756  36.461  11.833   1.342
 3661W        W62757  25.626  14.601  14.833
 3662W        W62758  25.975   2.860   3.247
 3663W        W62759  33.979  10.851  14.341
 3664W        W62760  41.893  17.181   0.471
 3665W        W62761  27.043  14.703   0.853
 3666W        W62762  40.355  16.151   3.852
 3667W        W62763   2.289  30.473  11.543
 3668W        W62764  14.200   5.820   0.726
 3669W        W62765   8.265  42.331   0.734
 3670W        W62766   2.941  38.045  13.976
 3671W        W62767  28.603  14.199  11.430
 3672W        W62768   8.683   5.303   3.264
 3673W        W62769  31.424  23.062   1.443
 3674W        W62770  34.488  31.068  13.912
 3675W        W62771  33.973  27.940  10.107
 3676W        W62772  42.359  28.473   0.465
 3677W        W62773   9.191  43.338  10.419
 3678W        W62774   6.376  42.922  10.607
 3679W        W62775   5.392  22.588   3.339
 3680W        W62776   8.820  26.995  13.802
 3681W        W62777  15.659  43.870   4.295
 3682W        W62778  30.042  22.613  12.950
 3683W        W62779  33.108  16.752   1.285
 3684W        W62780  36.890   3.930   2.878
 3685W        W62781  24.544   7.222   0.450
 3686W        W62782  18.579  21.530   1.771
 3687W        W62783  38.059  34.572  14.888
 3688W        W62784   2.263   7.718  11.434
 3689W        W62785  31.017  15.166  11.565
 3690W        W62786  29.511  10.646   0.825
 3691W        W62787   6.236  31.455   4.774
 3692W        W62788  36.873  20.733   3.715
 3693W        W62789  21.114  10.676   2.764
 3694W        W62790  39.346  13.842  10.468
 3695W        W62791  11.771  41.829  10.466
 3696W        W62792  41.514  39.495  12.513
 3697W        W62793  16.100  12.832   5.273
 3698W        W62794   2.367   9.689   0.888
 3699W        W62795  15.208  43.809  12.043
 3700W        W62796  14.164  15.772   3.867
 3701W        W62797  10.811  41.993  10.477
 3702W        W62798   0.981   3.360  13.467
 3703W        W62799  15.688  22.575   0.469
 3704W        W62800   9.305  33.903   1.384
 3705W        W62801  10.305  21.628  14.334
 3706W        W62802  35.014  22.242   2.697
 3707W        W62803  35.384   7.311  14.829
 3708W        W62804  20.265  37.407  14.954
 3709W        W62805  11.686  10.231   0.377
 3710W        W62806  11.845  41.832   3.796
 3711W        W62807   1.478  34.907   4.227
 3712W        W62808  41.867  28.108   2.902
 3713W        W62809   3.777  17.760  10.930
 3714W        W62810  26.575  38.052   3.734
 3715W        W62811  16.743  39.553  11.012
 3716W        W62812  26.072  14.145   1.252
 3717W        W62813  43.508  29.522   3.839
 3718W        W62814  12.347   0.949   3.810
 3719W        W62815   5.762  16.169   2.303
 3720W        W62816  28.662   8.241   4.636
 3721W        W62817  10.145   6.679   0.262
 3722W        W62818  39.006  38.029  13.965
 3723W        W62819  11.275  23.111  12.979
 3724W        W62820  21.698  42.821  12.082
 3725W        W62821  22.595   2.793  14.458
 3726W        W62822   2.392  21.574   3.769
 3727W        W62823  20.711  14.217   4.266
 3728W        W62824  31.065  32.622   2.222
 3729W        W62825  25.557   1.260  12.552
 3730W        W62826  30.647  28.572  12.492
 3731W        W62827  36.542   8.784  11.932
 3732W        W62828  21.641  40.530  10.604
 3733W        W62829  38.025  18.759   1.331
 3734W        W62830  42.829  19.610  13.925
 3735W        W62831  29.653   6.702  12.825
 3736W        W62832  25.524  37.530  13.337
 3737W        W62833  38.049  33.046   2.734
 3738W        W62834  15.793  15.618  11.411
 3739W        W62835  21.105  13.110   0.325
 3740W        W62836  33.970  16.597  13.868
 3741W        W62837  29.424  28.004   4.785
 3742W        W62838  38.345   7.831  12.913
 3743W        W62839  23.008   7.361   9.963
 3744W        W62840  39.065   3.840  10.949
 3745W        W62841  36.027   1.416  11.602
 3746W        W62842  25.475  20.273   2.353
 3747W        W62843   1.867  29.932   2.715
 3748W        W62844  43.511   2.843  12.915
 3749W        W62845  29.107  25.202   3.708
 3750W        W62846  16.185  38.973   3.858
 3751W        W62847  40.802  44.965   4.641
 3752W        W62848  32.028  35.927   1.241
 3753W        W62849  17.162   0.357  12.919
 3754W        W62850  19.586   1.922  14.966
 3755W        W62851  36.474  17.063  14.401
 3756W        W62852  44.496  33.476  10.892
 3757W        W62853   4.418   7.368  12.447
 3758W        W62854   0.305   2.942  13.870
 3759W        W62855  14.670   3.365  13.905
 3760W        W62856  33.016  18.287   2.770
 3761W        W62857  36.498   6.378   0.438
 3762W        W62858  44.388  24.555   0.898
 3763W        W62859  16.654  19.063   2.819
 3764W        W62860   2.785  17.718  14.997
 3765W        W62861   3.344  19.053   4.267
 3766W        W62862  20.201  20.255  11.592
 3767W        W62863   4.439  17.163   1.697
 3768W        W62864   4.387  11.138   0.439
 3769W        W62865  24.184  40.549   1.700
 3770W        W62866  38.555  25.511  14.985
 3771W        W62867  10.868  35.541   1.396
 3772W        W62868   3.307   6.262   0.884
 3773W        W62869  30.592  18.169   0.963
 3774W        W62870   8.851  17.164  13.908
 3775W        W62871  27.990  42.931   4.669
 3776W        W62872  35.358  25.646   1.221
 3777W        W62873   5.363  16.139   2.798
 3778W        W62874  21.622  32.629  14.905
 3779W        W62875  16.273   2.826   4.762
 3780W        W62876   9.378  35.594  10.406
 3781W        W62877  28.544  25.002   1.706
 3782W        W62878   0.315  14.803   1.707
 3783W        W62879  21.077  10.827  13.835
 3784W        W62880   4.217  17.787  11.533
 3785W        W62881  14.189  35.013   2.698
 3786W        W62882  32.100   9.236  13.815
 3787W        W62883  30.104  19.586  11.897
 3788W        W62884   4.758  26.999  12.343
 3789W        W62885  29.574  27.085   2.382
 3790W        W62886  21.174  15.214  11.552
 3791W        W62887  32.127  40.959   0.777
 3792W        W62888  21.528   6.766   0.744
 3793W        W62889  43.797  34.392   0.256
 3794W        W62890  12.672  27.105  14.409
 3795W        W62891  13.287  35.366  14.000
 3796W        W62892  18.664  39.063  14.278
 3797W        W62893   2.870  15.656  14.996
 3798W        W62894  35.971  17.198  11.548
 3799W        W62895   1.435  24.480   0.366
 3800W        W62896   5.787  32.059   0.482
 3801W        W62897  30.494   8.217   3.374
 3802W        W62898  43.476  18.282  10.922
 3803W        W62899  33.981  10.737  11.526
 3804W        W62900  35.027  31.453  10.487
 3805W        W62901  19.040  25.667  12.886
 3806W        W62902  23.551  25.054   0.265
 3807W        W62903   8.663  26.478   3.385
 3808W        W62904  36.350  37.889   3.251
 3809W        W62905  40.944  12.656  13.421
 3810W        W62906  34.430  27.579  13.905
 3811W        W62907   1.333  32.056  10.930
 3812W        W62908  31.915  20.230   5.283
 3813W        W62909  28.463  24.519  12.420
 3814W        W62910   6.315  27.588  14.318
 3815W        W62911  38.336   5.380   3.762
 3816W        W62912  29.456  11.333   3.810
 3817W        W62913  19.545  16.602   2.885
 3818W        W62914  44.845  34.955   1.444
 3819W        W62915  25.217   7.807  11.471
 3820W        W62916  35.560  32.434   4.180
 3821W        W62917  21.681  16.774  10.905
 3822W        W62918  17.260   3.859   1.346
 3823W        W62919  18.171  44.902   0.285
 3824W        W62920  14.181   3.830  12.379
 3825W        W62921  40.547  24.996  12.026
 3826W        W62922  23.714   4.844  12.554
 3827W        W62923  38.831   2.431  12.962
 3828W        W62924  44.862  29.539  10.593
 3829W        W62925  25.088  13.670  10.913
 3830W        W62926  24.981  12.351   2.776
 3831W        W62927  27.496  28.566  11.950
 3832W        W62928   8.767  14.230   3.793
 3833W        W62929  42.432  18.056   0.851
 3834W        W62930  37.022  24.029   3.200
 3835W        W62931  38.532  44.427   3.225
 3836W        W62932  10.772  11.671   4.116
 3837W        W62933  14.209   1.869   4.193
 3838W        W62934   9.764   5.746  11.969
 3839W        W62935  32.573  36.490   2.381
 3840W        W62936  29.952  14.628  12.358
 3841W        W62937  39.418  18.188  12.360
 3842W        W62938  19.753   8.398   2.193
 3843W        W62939  36.404  22.166  13.936
 3844W        W62940  38.952  32.013  10.498
 3845W        W62941  10.173  34.896   0.463
 3846W        W62942  36.957  23.005  11.561
 3847W        W62943  18.755  25.698  12.935
 3848W        W62944  15.268   6.691  12.903
 3849W        W62945  23.058  32.017   3.321
 3850W        W62946  40.381  13.278   4.793
 3851W        W62947  34.506  34.864   4.756
 3852W        W62948   5.436  17.214  11.543
 3853W        W62949  12.678  30.031   1.755
 3854W        W62950   3.947   9.239  10.456
 3855W        W62951  30.585  33.457   0.333
 3856W        W62952  35.968  42.287   2.778
 3857W        W62953  29.572   4.238  12.378
 3858W        W62954  38.500  11.761   3.188
 3859W        W62955  29.536  13.132  11.490
 3860W        W62956  32.076  42.790  14.350
 3861W        W62957  22.685  30.147  12.517
 3862W        W62958  17.742  40.055   0.908
 3863W        W62959   3.835  18.050  13.430
 3864W        W62960  37.440   4.444  11.996
 3865W        W62961  32.127   8.222   2.888
 3866W        W62962  44.969  24.660   0.367
 3867W        W62963  22.633  26.545  13.000
 3868W        W62964  23.172  30.549  12.027
 3869W        W62965  30.959  16.754   2.265
 3870W        W62966  19.619  16.130   2.278
 3871W        W62967  33.085  35.020   3.205
 3872W        W62968  36.557  36.480  14.766
 3873W        W62969  27.653  17.159  12.970
 3874W        W62970   6.822  24.641   0.274
 3875W        W62971  12.293   6.247   3.689
 3876W        W62972   4.353   9.151  12.082
 3877W        W62973   0.754  16.635  12.390
 3878W        W62974  11.674   8.734   2.269
 3879W        W62975  27.672  10.363   4.320
 3880W        W62976  24.512  29.004   0.790
 3881W        W62977  14.264  38.458   2.748
 3882W        W62978  37.857   0.860  11.966
 3883W        W62979  35.859  22.019   9.942
 3884W        W62980  19.082   6.363   4.719
 3885W        W62981  44.318   3.812   1.772
 3886W        W62982  17.598   0.273   1.695
 3887W        W62983  23.494  39.435  14.474
 3888W        W62984  28.958  10.239  10.631
 3889W        W62985   1.965  37.985   3.870
 3890W        W62986  36.525  15.746   1.278
 3891W        W62987  44.476  15.803  12.449
 3892W        W62988   4.426  16.277   4.761
 3893W        W62989  10.735  43.293   1.852
 3894W        W62990  41.966   7.294   2.188
 3895W        W62991  15.279  12.225   2.786
 3896W        W62992  39.518  41.955   0.804
 3897W        W62993  36.566  23.568   1.697
 3898W        W62994  17.681  10.354   0.410
 3899W        W62995  13.600  23.722   0.874
 3900W        W62996  21.670  34.026   0.783
 3901W        W62997  16.723  26.012  11.071
 3902W        W62998  14.669   0.485  14.303
 3903W        W62999  21.043  42.327   3.710
 3904W        W63000  17.654  40.339   1.426
 3905W        W63001   9.391  26.064   2.295
 3906W        W63002  25.030  21.541   3.241
 3907W        W63003  39.337   4.869   3.382
 3908W        W63004  23.127  32.017   0.859
 3909W        W63005  19.239  29.476   1.231
 3910W        W63006  24.662  19.637   0.283
 3911W        W63007   7.263  30.066   0.364
 3912W        W63008  36.587   2.833   2.331
 3913W        W63009  38.017   2.279  11.411
 3914W        W63010  13.805   6.343  13.392
 3915W        W63011  31.559  37.855  11.980
 3916W        W63012   1.882  36.846   1.908
 3917W        W63013  16.767  23.179  13.462
 3918W        W63014  26.063  14.591  12.458
 3919W        W63015  25.982   5.710   0.777
 3920W        W63016  31.427  11.777  13.060
 3921W        W63017  14.623  44.429   2.886
 3922W        W63018  27.469  36.396   2.236
 3923W        W63019  22.012  42.315   3.686
 3924W        W63020   3.905  12.172  11.965
 3925W        W63021   6.368  27.504   0.338
 3926W        W63022  34.950  24.569   5.693
 3927W        W63023  17.127  43.505  13.924
 3928W        W63024  33.910  13.336   0.305
 3929W        W63025  27.643  42.817   0.857
 3930W        W63026  24.541  25.522   2.250
 3931W        W63027   0.355   0.265   3.186
 3932W        W63028  22.553   4.710   9.990
 3933W        W63029  17.673  40.823  13.986
 3934W        W63030   9.688  24.008   0.397
 3935W        W63031  33.472  44.418  11.425
 3936W        W63032   2.292  30.544   1.407
 3937W        W63033  12.201  17.567   2.704
 3938W        W63034  33.463   3.242  10.511
 3939W        W63035  15.582  40.993   0.322
 3940W        W63036  10.809   8.771  14.276
 3941W        W63037  21.701  24.488  13.395
 3942W        W63038  14.286  23.590   4.124
 3943W        W63039  17.132  34.397  11.911
 3944W        W63040  23.704  22.103  11.878
 3945W        W63041   2.261  19.582   4.270
 3946W        W63042  29.628  36.513   0.851
 3947W        W63043   0.329  25.557  14.803
 3948W        W63044  39.999  28.138   0.437
 3949W        W63045  19.577  40.425  11.886
 3950W        W63046  23.592   1.870   1.348
 3951W        W63047   1.765   1.372   3.324
 3952W        W63048   3.412  41.986  12.062
 3953W        W63049  44.272  23.715   3.724
 3954W        W63050  23.695  16.689   2.854
 3955W        W63051  42.801  32.629   1.791
 3956W        W63052  36.513  43.360   2.822
 3957W        W63053  38.402  18.235  11.986
 3958W        W63054  36.431  18.643  10.992
 3959W        W63055  12.345  21.693   4.722
 3960W        W63056  24.625  15.581  14.863
 3961W        W63057   5.708  19.561   4.810
 3962W        W63058  12.652  15.189   3.332
 3963W        W63059   0.341  27.072   2.261
 3964W        W63060  21.244   4.773  14.474
 3965W        W63061  30.949  40.031  14.828
 3966W        W63062  21.748  11.139  10.937
 3967W        W63063   8.299   2.280   2.182
 3968W        W63064  40.338   5.788   4.302
 3969W        W63065  25.009   4.259  12.386
 3970W        W63066   4.369   6.407   3.754
 3971W        W63067  24.594  11.668  14.467
 3972W        W63068   9.188  25.672   0.773
 3973W        W63069   0.914   2.908  11.941
 3974W        W63070  38.515  26.110  10.468
 3975W        W63071  33.408   1.424   3.194
 3976W        W63072  37.073  34.961  13.489
 3977W        W63073  38.488  18.718  13.330
 3978W        W63074  20.567  13.290  12.878
 3979W        W63075  29.962   7.805   0.878
 3980W        W63076  25.030  20.703   1.315
 3981W        W63077  32.393  26.572  14.920
 3982W        W63078  18.070  11.807  14.991
 3983W        W63079  10.250  27.088   0.397
 3984W        W63080  17.575  41.945   0.373
 3985W        W63081  10.859  14.630   9.541
 3986W        W63082  44.982  14.188  14.809
 3987W        W63083  17.584  43.365   3.298
 3988W        W63084  10.739  34.614   0.880
 3989W        W63085  16.581  10.374  14.445
 3990W        W63086  14.233   6.690  12.879
 3991W        W63087  14.597  27.012   1.758
 3992W        W63088  33.547  26.684  12.952
 3993W        W63089   2.924  18.560   4.641
 3994W        W63090   9.318  23.588   4.211
 3995W        W63091  38.998  43.919   0.795
 3996W        W63092   6.188  28.130  13.481
 3997W        W63093  23.506  16.159  13.338
 3998W        W63094   5.879  32.518  12.575
 3999W        W63095  10.757  32.576  14.454
 4000W        W63096  18.676  42.284  14.825
 4001W        W63097  38.830  44.934   0.895
 4002W        W63098  19.704   0.493  13.838
 4003W        W63099  12.824   8.346   4.670
 4004W        W63100  15.652  29.997   1.875
 4005W        W63101  23.230  20.756  14.318
 4006W        W63102  11.327  13.294   1.780
 4007W        W63103  14.814  28.171   3.383
 4008W        W63104   6.196  21.147  12.441
 4009W        W63105   6.216  10.317   0.427
 4010W        W63106  43.966   7.799  14.850
 4011W        W63107  16.088   3.346   0.830
 4012W        W63108  44.461  38.875  13.938
 4013W        W63109  18.218  10.277  12.064
 4014W        W63110  22.550  26.047  11.883
 4015W        W63111  10.218  43.993  13.793
 4016W        W63112  39.915   8.723  11.594
 4017W        W63113  27.959   9.797  12.056
 4018W        W63114  15.671  20.055  13.317
 4019W        W63115   5.775  21.179  10.542
 4020W        W63116  29.624   7.681   3.700
 4021W        W63117  28.503  21.586  13.360
 4022W        W63118   3.299  18.760   5.104
 4023W        W63119  25.651   1.263  14.471
 4024W        W63120  29.004  42.887  11.882
 4025W        W63121  29.509  11.291  13.846
 4026W        W63122  21.527   3.829  12.036
 4027W        W63123   1.314  13.317  14.276
 4028W        W63124   6.425  34.045   1.210
 4029W        W63125  22.550  33.596   4.666
 4030W        W63126  32.532   3.454   1.876
 4031W        W63127  28.535   1.770   1.327
 4032W        W63128  29.967   0.415   0.249
 4033W        W63129   3.792   4.282   0.251
 4034W        W63130  32.502   8.727  14.399
 4035W        W63131  10.807  35.563  11.592
 4036W        W63132   7.305  28.140  11.981
 4037W        W63133  14.329   0.747  14.768
 4038W        W63134  33.474  12.314  10.642
 4039W        W63135  37.086  12.771   3.705
 4040W        W63136  15.615  22.225   2.236
 4041W        W63137   7.353  40.930   4.620
 4042W        W63138  12.123  25.637  11.033
 4043W        W63139   0.910  35.865  12.842
 4044W        W63140  14.830   2.771  13.486
 4045W        W63141  31.419  12.202  14.025
 4046W        W63142  32.944  40.404  14.386
 4047W        W63143  23.574  14.783  11.390
 4048W        W63144  43.456  34.469  12.370
 4049W        W63145  22.722   7.675   4.665
 4050W        W63146  13.266  20.532   2.902
 4051W        W63147  28.966  39.386  14.977
 4052W        W63148  12.141  38.038   1.786
 4053W        W63149  38.892  34.894   0.253
 4054W        W63150   0.806  23.037   2.303
 4055W        W63151  23.710  36.030  10.614
 4056W        W63152  20.176   4.889   2.666
 4057W        W63153  31.913  31.545  14.406
 4058W        W63154  20.139  34.919  10.416
 4059W        W63155  29.631  36.057  13.347
 4060W        W63156  36.073  37.875   4.161
 4061W        W63157  39.530   0.789  12.362
 4062W        W63158  13.815  18.217   1.872
 4063W        W63159  34.434  15.652  13.329
 4064W        W63160  36.405  23.150   2.883
 4065W        W63161   7.237   8.744   3.671
 4066W        W63162  42.317  44.363   1.361
 4067W        W63163  16.810   4.297  14.030
 4068W        W63164  15.628  13.198  13.892
 4069W        W63165  17.687  29.007  12.033
 4070W        W63166   7.812  24.090  11.612
 4071W        W63167  28.487  30.490   1.932
 4072W        W63168  17.780  26.010   4.828
 4073W        W63169  38.819  43.310  13.018
 4074W        W63170  20.549   0.812   4.150
 4075W        W63171   3.904  30.139  10.551
 4076W        W63172  29.435  37.043   2.286
 4077W        W63173   8.298   9.827  13.938
 4078W        W63174   9.268   1.345  11.017
 4079W        W63175  17.135  10.645   0.478
 4080W        W63176  15.663  10.291  14.310
 4081W        W63177  32.552  33.450  13.907
 4082W        W63178   2.827   6.341  13.915
 4083W        W63179  44.990  34.373  13.043
 4084W        W63180  42.996  18.099  13.007
 4085W        W63181  34.070  42.950   1.932
 4086W        W63182  17.088  24.574  12.566
 4087W        W63183  16.724  33.577   2.339
 4088W        W63184  11.706   1.791  13.533
 4089W        W63185  19.617  36.952   2.877
 4090W        W63186   9.303  34.603   2.734
 4091W        W63187  17.799  13.297  14.903
 4092W        W63188  24.629  24.144   2.287
 4093W        W63189  33.453  39.951   0.266
 4094W        W63190  29.099  39.961  13.537
 4095W        W63191  34.380   3.272  13.019
 4096W        W63192  30.032  19.654   1.887
 4097W        W63193  38.877   2.460   1.391
 4098W        W63194  34.393  36.356  10.579
 4099W        W63195  18.293  36.407  13.527
 4100W        W63196   3.428  34.024   1.329
 4101W        W63197  10.668  15.275   3.693
 4102W        W63198  15.750  35.962   5.138
 4103W        W63199  31.467  26.549   0.377
 4104W        W63200  31.481  41.920  14.849
 4105W        W63201  38.880   6.305   3.323
 4106W        W63202   6.222  31.013  11.579
 4107W        W63203  30.965  37.967   0.440
 4108W        W63204  15.318   4.698  13.504
 4109W        W63205  15.317   5.761   0.908
 4110W        W63206   9.827  44.791  14.289
 4111W        W63207  33.878  27.664   9.647
 4112W        W63208  35.070   7.191   4.765
 4113W        W63209  41.347  33.894  11.943
 4114W        W63210  15.314  43.022   1.406
 4115W        W63211   5.818   5.200   0.455
 4116W        W63212   2.466  11.638   0.393
 4117W        W63213  30.057  30.538  11.081
 4118W        W63214  27.458  14.251  11.534
 4119W        W63215  19.087  22.010   3.214
 4120W        W63216  38.386  13.844  12.015
 4121W        W63217  36.531   7.741   1.719
 4122W        W63218   6.878  44.309  11.467
 4123W        W63219  34.433  10.735  14.390
 4124W        W63220  26.574  20.554   2.359
 4125W        W63221   8.796   8.254  11.986
 4126W        W63222  37.964  10.275  12.823
 4127W        W63223  19.111  40.880  13.870
 4128W        W63224   7.327  39.971   0.870
 4129W        W63225  31.903  26.969   2.715
 4130W        W63226  17.783   0.348  14.379
 4131W        W63227   9.799  17.675  10.892
 4132W        W63228  16.203  43.419   3.830
 4133W        W63229   2.811  25.696  10.410
 4134W        W63230  44.782  30.914   0.887
 4135W        W63231  33.096  19.098   2.344
 4136W        W63232  15.787  37.888  11.579
 4137W        W63233  28.475  26.634  13.924
 4138W        W63234  41.009  20.138   3.746
 4139W        W63235  17.716  33.998  13.986
 4140W        W63236  15.719  29.928   0.351
 4141W        W63237  28.987  37.991  13.402
 4142W        W63238  13.745  27.485  14.878
 4143W        W63239  21.151  15.326   2.836
 4144W        W63240  36.911  15.632   4.337
 4145W        W63241  25.490   7.787   0.780
 4146W        W63242  24.112  17.248  10.959
 4147W        W63243  42.432  41.926  12.366
 4148W        W63244   0.958  26.022   4.206
 4149W        W63245  21.100  32.484   4.147
 4150W        W63246  15.187  28.650  11.587
 4151W        W63247  30.013  35.394   3.695
 4152W        W63248  34.470   1.341   2.207
 4153W        W63249  15.744   9.210   2.386
 4154W        W63250  30.556   5.726  14.026
 4155W        W63251   5.366  41.530   2.262
 4156W        W63252  14.112  13.823   3.374
 4157W        W63253  23.019   2.261  14.402
 4158W        W63254  27.553  36.039  12.528
 4159W        W63255   0.929  34.007   0.419
 4160W        W63256  34.608  23.164   4.670
 4161W        W63257  29.949   7.252  12.442
 4162W        W63258   9.393  38.880  14.894
 4163W        W63259  11.633  24.993  14.855
 4164W        W63260  32.576  12.831   3.792
 4165W        W63261  22.603  17.750  10.560
 4166W        W63262  20.063   6.868  11.377
 4167W        W63263  36.027  28.678  11.405
 4168W        W63264  44.268   7.773   2.725
 4169W        W63265  21.713   4.227   0.360
 4170W        W63266  20.655  31.932  10.936
 4171W        W63267   0.431  39.939  12.521
 4172W        W63268  42.846  19.272   0.822
 4173W        W63269  34.895  19.743  10.602
 4174W        W63270   0.948  11.849   1.908
 4175W        W63271  18.575   7.857  12.515
 4176W        W63272  11.718  26.196  11.050
 4177W        W63273  14.759   9.338   4.641
 4178W        W63274  34.472  31.407   2.311
 4179W        W63275  30.520  12.708  10.890
 4180W        W63276   5.902  42.825   3.730
 4181W        W63277  19.191  44.946   3.304
 4182W        W63278  26.641  33.991   3.261
 4183W        W63279  30.090  15.731  12.089
 4184W        W63280   3.827   7.668  12.548
 4185W        W63281  18.287   7.724   3.345
 4186W        W63282  23.038  18.085   4.749
 4187W        W63283  31.627   0.328   2.275
 4188W        W63284  33.904  21.757   2.351
 4189W        W63285   0.464  16.683   3.304
 4190W        W63286  15.807  24.981   4.820
 4191W        W63287  13.669   8.872   4.223
 4192W        W63288  38.507  31.643   2.229
 4193W        W63289  15.727  24.109   2.698
 4194W        W63290   9.260  21.224   2.272
 4195W        W63291  16.164  33.594  10.937
 4196W        W63292  36.031  25.112   4.246
 4197W        W63293  35.858  33.507  11.551
 4198W        W63294  39.320  16.676   2.403
 4199W        W63295   6.788  18.622   0.942
 4200W        W63296   3.317  23.032  11.108
 4201W        W63297   6.345   9.780  11.566
 4202W        W63298  36.515  31.011  10.916
 4203W        W63299  40.314  14.188  13.499
 4204W        W63300  19.696  31.941  14.872
 4205W        W63301  43.779  40.040  14.500
 4206W        W63302  26.075  12.843   2.849
 4207W        W63303  41.531  37.568  13.509
 4208W        W63304  28.633  12.728  14.981
 4209W        W63305  22.202  27.612   3.345
 4210W        W63306   5.868  13.702  11.121
 4211W        W63307  28.042  32.913  13.872
 4212W        W63308  23.652  16.586   4.330
 4213W        W63309  33.459  37.019  11.014
 4214W        W63310  39.869  24.700   4.622
 4215W        W63311  18.062  30.938   1.371
 4216W        W63312  24.021  33.922   2.685
 4217W        W63313  30.653  37.946   4.162
 4218W        W63314  10.322  44.823  10.433
 4219W        W63315   2.845  13.203  11.893
 4220W        W63316  30.100  28.958  14.314
 4221W        W63317  23.637  41.860   2.841
 4222W        W63318  39.359  44.991  14.473
 4223W        W63319   8.741  31.407  12.849
 4224W        W63320  11.144  42.496  12.535
 4225W        W63321   8.827  38.394  13.463
 4226W        W63322  34.503  18.587  11.103
 4227W        W63323  29.527  26.548   1.932
 4228W        W63324  28.012  40.418  14.503
 4229W        W63325  17.245  27.648  13.337
 4230W        W63326   1.339  24.134   1.439
 4231W        W63327  38.055  16.211  13.447
 4232W        W63328   7.762  31.926   1.434
 4233W        W63329   5.411  19.747   1.254
 4234W        W63330   3.395   1.428  11.447
 4235W        W63331  39.545  16.162   3.852
 4236W        W63332  26.069  20.099  13.885
 4237W        W63333  43.413  36.476   4.798
 4238W        W63334  34.095   0.265   1.211
 4239W        W63335  33.916  12.683   3.764
 4240W        W63336  25.519   4.704  11.611
 4241W        W63337  25.631  18.672   1.360
 4242W        W63338  11.711  14.681   2.405
 4243W        W63339  15.179   0.426   1.741
 4244W        W63340  44.984  27.052  13.370
 4245W        W63341  14.199  21.715   4.227
 4246W        W63342  44.758   3.426   3.648
 4247W        W63343  27.943  23.202  11.489
 4248W        W63344  11.253  43.497  14.346
 4249W        W63345  44.399  32.439  12.405
 4250W        W63346  26.554  13.769  12.487
 4251W        W63347  28.149  28.149  14.859
 4252W        W63348  40.450  20.691  12.049
 4253W        W63349   0.326  31.644  12.093
 4254W        W63350  24.983  39.025   9.989
 4255W        W63351  42.942   8.216   4.684
 4256W        W63352  11.743  29.161   9.531
 4257W        W63353  42.484  12.352   4.230
 4258W        W63354  28.580   7.174  14.501
 4259W        W63355  43.793  33.454  13.473
 4260W        W63356   8.776  43.948  12.359
 4261W        W63357  11.264  19.630  12.431
 4262W        W63358   9.384  11.635   3.233
 4263W        W63359  43.495  30.456   4.308
 4264W        W63360  39.371  23.199  10.965
 4265W        W63361   5.273  13.300   1.374
 4266W        W63362  43.773  22.027  13.987
 4267W        W63363  44.299  10.264   1.925
 4268W        W63364  13.288  21.578  11.440
 4269W        W63365  37.530  31.013  12.987
 4270W        W63366  29.466   4.312   2.310
 4271W        W63367  35.457   0.319   2.348
 4272W        W63368  14.194  42.324   2.219
 4273W        W63369  17.653  14.650   2.830
 4274W        W63370  23.010  37.449   3.637
 4275W        W63371  27.104  23.659   2.857
 4276W        W63372  19.194  37.525  12.887
 4277W        W63373  40.923  30.951  12.939
 4278W        W63374  32.044  44.839   4.194
 4279W        W63375  33.442  32.934   2.406
 4280W        W63376  13.770  27.686   4.226
 4281W        W63377  43.286  23.985   2.894
 4282W        W63378  42.383   8.744   4.600
 4283W        W63379  34.077  22.599   4.832
 4284W        W63380   9.664   8.267  11.532
 4285W        W63381   9.802  18.103  12.870
 4286W        W63382  40.523  26.541  13.852
 4287W        W63383  33.405   7.850   2.206
 4288W        W63384  30.967  44.313  12.076
 4289W        W63385   9.163  18.587  14.494
 4290W        W63386  26.616  19.615  13.842
 4291W        W63387  34.978  35.509   1.328
 4292W        W63388  42.527  28.665  10.596
 4293W        W63389  21.671  30.422   3.782
 4294W        W63390  33.084   3.450   4.823
 4295W        W63391  25.632   6.803  12.900
 4296W        W63392   1.288  39.470  10.433
 4297W        W63393  22.728  36.902  13.400
 4298W        W63394  18.079   8.848   0.389
 4299W        W63395  36.396  27.637   4.692
 4300W        W63396  26.596  38.014  11.432
 4301W        W63397  27.603  40.917  12.003
 4302W        W63398  37.984  24.088  13.942
 4303W        W63399  43.399  32.458  10.534
 4304W        W63400  20.741  43.279   2.859
 4305W        W63401  15.605  10.291  12.520
 4306W        W63402  15.320  15.621   3.156
 4307W        W63403  13.654  35.854   4.318
 4308W        W63404  28.556  12.231   3.763
 4309W        W63405  41.502  33.503  12.941
 4310W        W63406   2.354  15.708  11.409
 4311W        W63407  43.928  25.581   0.482
 4312W        W63408  24.131   2.438   0.799
 4313W        W63409  32.502  34.431   1.825
 4314W        W63410  16.670  19.276  14.408
 4315W        W63411  10.863  12.665  14.921
 4316W        W63412  36.532  26.486  11.058
 4317W        W63413  21.612  34.612  14.016
 4318W        W63414  17.570  14.135  14.876
 4319W        W63415  21.703  17.171   2.716
 4320W        W63416   3.731   6.279   3.333
 4321W        W63417  40.816   3.904  13.497
 4322W        W63418  11.310   2.919  11.418
 4323W        W63419  25.153  39.445   2.747
 4324W        W63420  28.939  23.185   1.840
 4325W        W63421  30.959  24.672   9.554
 4326W        W63422  12.773  12.796   0.803
 4327W        W63423  10.159  31.407  14.437
 4328W        W63424  27.669  38.557   3.163
 4329W        W63425  25.111  41.344  13.986
 4330W        W63426  24.221  41.979   0.450
 4331W        W63427  12.328  33.901   4.743
 4332W        W63428   5.416  11.812   4.209
 4333W        W63429  33.924  40.045  11.936
 4334W        W63430  30.055  29.113  14.786
 4335W        W63431  18.283  38.954  10.542
 4336W        W63432   2.758  26.589   1.325
 4337W        W63433  20.196  13.771   0.804
 4338W        W63434  13.299   1.353   2.264
 4339W        W63435  12.716   1.791  10.462
 4340W        W63436  26.176  39.491  12.988
 4341W        W63437  19.094  15.692   0.314
 4342W        W63438  20.251  29.615  14.393
 4343W        W63439  22.633   5.904  11.416
 4344W        W63440  31.033   6.865   2.870
 4345W        W63441  33.404  21.115   1.362
 4346W        W63442   2.943  11.674   0.354
 4347W        W63443  42.909   4.797   4.115
 4348W        W63444  26.201   6.182  10.976
 4349W        W63445  19.277  26.641   1.428
 4350W        W63446  20.134  42.945  14.385
 4351W        W63447  38.879  34.382   0.410
 4352W        W63448  33.097   5.894   3.346
 4353W        W63449  30.416  16.727   2.704
 4354W        W63450  31.516  33.596  10.524
 4355W        W63451  26.486  27.032  10.494
 4356W        W63452  37.052   4.221  12.029
 4357W        W63453  38.494  27.090   1.348
 4358W        W63454  13.233   9.369   0.937
 4359W        W63455  44.381  40.457  11.911
 4360W        W63456  14.311  10.845  13.401
 4361W        W63457  18.092  43.345   3.644
 4362W        W63458  30.082  29.447   1.844
 4363W        W63459  20.683  34.900   4.172
 4364W        W63460  23.650  21.552   4.287
 4365W        W63461   1.373  10.780  11.455
 4366W        W63462  24.635  37.902  12.037
 4367W        W63463  20.622  10.737   0.317
 4368W        W63464  39.526  10.690   2.205
 4369W        W63465  36.068  21.553   1.313
 4370W        W63466  25.980  26.020  14.414
 4371W        W63467  26.487  14.729   3.822
 4372W        W63468  21.738   1.756   2.757
 4373W        W63469  27.039  10.768  13.049
 4374W        W63470  23.144  19.041  11.558
 4375W        W63471   5.709   8.714   2.679
 4376W        W63472  30.603  44.323  13.994
 4377W        W63473   7.872  40.442  13.861
 4378W        W63474  38.561  16.194   4.754
 4379W        W63475   4.413  24.124  11.457
 4380W        W63476  44.283   3.839   4.295
 4381W        W63477   0.266  44.928   0.941
 4382W        W63478  33.071  42.877  12.040
 4383W        W63479  25.636  17.773  14.501
 4384W        W63480  30.135  21.598  14.870
 4385W        W63481  25.663  23.553   1.354
 4386W        W63482  44.987  40.509  14.030
 4387W        W63483  13.745  18.771  12.342
 4388W        W63484  42.996  26.490   1.870
 4389W        W63485   3.878  16.233   2.702
 4390W        W63486  12.255  28.054  14.444
 4391W        W63487  36.006  23.118   4.300
 4392W        W63488  12.214   5.385  12.546
 4393W        W63489   7.802  10.852   2.849
 4394W        W63490  24.043  30.474  11.001
 4395W        W63491  32.106  16.173   9.648
 4396W        W63492  38.001   3.710  13.391
 4397W        W63493  13.329  39.963   4.817
 4398W        W63494  43.859  35.956   4.253
 4399W        W63495  34.581  25.152   0.469
 4400W        W63496  32.011  37.530   4.678
 4401W        W63497  20.083  26.699   5.107
 4402W        W63498   2.919  41.907   1.227
 4403W        W63499  20.539   7.748  14.360
 4404W        W63500  30.143  41.922  12.045
 4405W        W63501  43.962  41.991   3.151
 4406W        W63502  24.984  24.083   0.474
 4407W        W63503  29.003  11.190  14.320
 4408W        W63504   5.737  13.810  11.979
 4409W        W63505  25.567  23.051   0.358
 4410W        W63506  39.864  42.488   3.727
 4411W        W63507  38.005  12.763   1.919
 4412W        W63508  10.772  13.789  11.060
 4413W        W63509  31.006  32.040   3.307
 4414W        W63510  26.043  13.164  13.522
 4415W        W63511  27.966  14.688   3.630
 4416W        W63512  32.565  32.980   2.396
 4417W        W63513   5.292  35.969   1.447
 4418W        W63514  34.001  27.528  14.459
 4419W        W63515  17.745  33.959   1.304
 4420W        W63516  10.695  22.693   2.774
 4421W        W63517  35.478  11.233   1.236
 4422W        W63518  19.249  24.100   0.445
 4423W        W63519   9.307   9.658  11.594
 4424W        W63520   0.489  25.037  14.419
 4425W        W63521  44.860   0.787  13.383
 4426W        W63522  40.341  40.877   3.204
 4427W        W63523   0.801   9.235  11.881
 4428W        W63524  30.598  11.257  12.521
 4429W        W63525  10.824   8.757   1.760
 4430W        W63526   4.375   1.443   2.307
 4431W        W63527  32.481  22.531  14.812
 4432W        W63528  28.507  41.996  11.493
 4433W        W63529  17.182  36.552  12.032
 4434W        W63530  33.875  27.190   4.243
 4435W        W63531  32.435  42.505   1.381
 4436W        W63532  29.169  31.412  10.451
 4437W        W63533   4.416   8.670   2.294
 4438W        W63534  24.115  25.059   3.726
 4439W        W63535   3.954  42.996  11.416
 4440W        W63536   1.839  42.463  12.082
 4441W        W63537  34.938  11.350  13.477
 4442W        W63538  26.577  10.764   3.336
 4443W        W63539  20.554  10.736  13.979
 4444W        W63540  29.995  21.622  10.490
 4445W        W63541  41.915  38.555   2.247
 4446W        W63542  17.682   8.687   9.461
 4447W        W63543  18.084  31.000   0.473
 4448W        W63544  44.341  29.611  14.956
 4449W        W63545   4.895  14.683   4.315
 4450W        W63546  18.223  18.062  12.339
 4451W        W63547  36.843  40.950   1.696
 4452W        W63548  37.459   1.773   1.427
 4453W        W63549  28.605   7.701  13.003
 4454W        W63550  39.555   3.879  14.450
 4455W        W63551  15.284   4.900   2.376
 4456W        W63552  40.425   2.288   2.681
 4457W        W63553  37.500  26.107   0.925
 4458W        W63554  31.021  32.619  12.352
 4459W        W63555   3.241  40.848  14.978
 4460W        W63556   5.737  14.681  11.088
 4461W        W63557  42.477   7.789  14.955
 4462W        W63558  26.113  23.036  13.470
 4463W        W63559   8.234  12.278   1.222
 4464W        W63560   2.720  42.311   0.870
 4465W        W63561  22.555  18.251  14.390
 4466W        W63562   3.393  12.622  11.530
 4467W        W63563  42.997  16.695  11.461
 4468W        W63564  41.421  14.609  14.006
 4469W        W63565  10.331  40.805  12.047
 4470W        W63566  26.654  44.293  14.995
 4471W        W63567   7.395  24.679  14.014
 4472W        W63568  36.869  16.165   4.137
 4473W        W63569  42.810  42.866  10.954
 4474W        W63570  14.254   4.355   2.716
 4475W        W63571  10.292  42.300   0.339
 4476W        W63572  24.979  33.115  12.419
 4477W        W63573  27.947  33.555  14.424
 4478W        W63574  10.801  36.433   4.186
 4479W        W63575  26.158  11.742   2.192
 4480W        W63576  15.160  44.882   1.805
 4481W        W63577  37.018  23.048  13.515
 4482W        W63578   7.784  27.569  13.524
 4483W        W63579  16.598  36.564   0.380
 4484W        W63580  15.303  15.201  14.288
 4485W        W63581  35.907  37.038   1.935
 4486W        W63582  35.955  38.911  14.941
 4487W        W63583   7.190   2.966  12.982
 4488W        W63584  29.439  24.018  14.835
 4489W        W63585  41.408  19.749  12.407
 4490W        W63586  25.213  25.479  12.831
 4491W        W63587  33.532  32.478  13.307
 4492W        W63588  35.002  41.859   3.653
 4493W        W63589   1.841  32.076   2.404
 4494W        W63590  33.030   5.932  11.868
 4495W        W63591  33.600  35.912  10.161
 4496W        W63592   6.313  12.360   9.963
 4497W        W63593  27.666  23.188  12.472
 4498W        W63594  11.720   6.319  13.862
 4499W        W63595  23.070   9.839  13.821
 4500W        W63596  40.848   4.734   4.330
 4501W        W63597  27.458  42.337  10.407
 4502W        W63598  23.569  40.314  12.943
 4503W        W63599  14.259  38.558  11.459
 4504W        W63600  11.840  14.135   5.311
 4505W        W63601  20.760  38.538   1.338
 4506W        W63602  36.419  24.196  14.796
 4507W        W63603   4.286  26.121  11.030
 4508W        W63604  17.286  35.927   0.363
 4509W        W63605  39.934  11.829  14.828
 4510W        W63606  17.252   2.954   1.397
 4511W        W63607  20.713  36.462   2.679
 4512W        W63608  41.907  35.016   2.245
 4513W        W63609  38.897  32.956  13.401
 4514W        W63610   4.929  26.078  10.483
 4515W        W63611  29.552  25.571   3.284
 4516W        W63612   0.943  13.812   3.637
 4517W        W63613  26.974  37.072  13.851
 4518W        W63614  28.601  36.454   1.337
 4519W        W63615  25.066  42.409  14.299
 4520W        W63616   5.289  19.089  12.866
 4521W        W63617  22.672  26.967   2.819
 4522W        W63618  14.706   7.802   0.912
 4523W        W63619  34.587   4.427   2.709
 4524W        W63620  20.172  15.814   2.863
 4525W        W63621   8.884  22.534  13.843
 4526W        W63622  34.941   7.397  10.627
 4527W        W63623  29.608   8.844  11.073
 4528W        W63624  19.184  42.926  10.421
 4529W        W63625  27.605   7.381  11.002
 4530W        W63626   1.885  12.342  11.944
 4531W        W63627  17.300   3.813  11.973
 4532W        W63628  40.001   9.689   2.671
 4533W        W63629  19.084  30.133   3.658
 4534W        W63630  20.756  21.129  14.006
 4535W        W63631  21.123  40.548   4.761
 4536W        W63632  16.744   9.742  12.017
 4537W        W63633  12.647   5.198  13.547
 4538W        W63634   7.395   9.853   1.813
 4539W        W63635  21.195  16.710   3.644
 4540W        W63636  20.249  44.897  11.504
 4541W        W63637  27.051  41.945  10.520
 4542W        W63638  13.298   5.903  13.956
 4543W        W63639   8.355  16.311   2.842
 4544W        W63640   9.875  29.998  12.488
 4545W        W63641  28.178  36.864   3.321
 4546W        W63642  24.490   0.846  14.319
 4547W        W63643  17.567  21.718  13.035
 4548W        W63644   4.935  25.708   9.601
 4549W        W63645  23.139   2.917  14.280
 4550W        W63646  11.252  35.903  12.910
 4551W        W63647  28.469  14.612  13.006
 4552W        W63648  27.966  24.564   0.795
 4553W        W63649  25.966   3.823  14.335
 4554W        W63650  33.907  13.148   0.896
 4555W        W63651   3.310  18.767   2.312
 4556W        W63652  19.622  43.315   1.289
 4557W        W63653  42.438  13.270  11.399
 4558W        W63654   5.314   0.746   2.186
 4559W        W63655  44.795  17.303  14.882
 4560W        W63656  40.392  36.558  12.365
 4561W        W63657   2.963  43.976   3.167
 4562W        W63658  18.071  33.410   4.698
 4563W        W63659   3.415  39.502  12.911
 4564W        W63660  23.171  25.049   4.206
 4565W        W63661  12.640  18.630  11.024
 4566W        W63662  38.568  20.222   0.824
 4567W        W63663  43.421  32.095   4.619
 4568W        W63664  16.229   1.828  10.435
 4569W        W63665  43.781  39.929   1.895
 4570W        W63666  17.147  37.510   2.189
 4571W        W63667   7.404  11.671  12.476
 4572W        W63668  25.468   0.982   1.831
 4573W        W63669  23.996  31.008   0.791
 4574W        W63670  18.602  20.232  10.420
 4575W        W63671  44.479  10.168  11.548
 4576W        W63672  39.880   9.302  12.528
 4577W        W63673  15.236  28.436   1.428
 4578W        W63674  33.387  38.962   1.922
 4579W        W63675  19.094  10.636   3.196
 4580W        W63676  30.466   4.431  10.918
 4581W        W63677   3.336  10.369  12.851
 4582W        W63678  27.023  40.049  11.913
 4583W        W63679  19.661  31.140   4.800
 4584W        W63680   8.326  33.392   3.305
 4585W        W63681  40.321  26.559   1.713
 4586W        W63682   3.406  12.249   4.677
 4587W        W63683  27.026  13.606   4.649
 4588W        W63684  12.801  26.596   3.380
 4589W        W63685   8.379   7.675  12.403
 4590W        W63686  19.691  24.513   3.809
 4591W        W63687   2.722  21.708  14.770
 4592W        W63688  34.955  28.938   4.776
 4593W        W63689  16.211  33.934  12.477
 4594W        W63690  29.076  27.988  12.575
 4595W        W63691   7.749  37.067   0.805
 4596W        W63692  41.829  14.138  13.350
 4597W        W63693  37.997   4.728   1.894
 4598W        W63694  13.681  12.619  12.071
 4599W        W63695  38.923  43.467  10.961
 4600W        W63696  32.906  18.275   3.216
 4601W        W63697  38.400  44.917  13.317
 4602W        W63698  33.951  30.133  14.018
 4603W        W63699  11.712  24.099   2.221
 4604W        W63700  25.090  41.997   0.793
 4605W        W63701  42.986  14.252   3.678
 4606W        W63702  28.630   9.255  10.435
 4607W        W63703  15.109  26.142  14.327
 4608W        W63704   4.375  34.533   0.344
 4609W        W63705  14.615  35.973   3.360
 4610W        W63706  43.981  41.866   2.271
 4611W        W63707   3.897   9.888  12.518
 4612W        W63708  39.957  37.923   1.896
 4613W        W63709  34.954  35.544  13.816
 4614W        W63710   7.412  27.568  13.976
 4615W        W63711   7.388   1.413  12.569
 4616W        W63712  40.997  20.767   3.856
 4617W        W63713  23.625   9.257  11.596
 4618W        W63714  30.095  41.954   1.213
 4619W        W63715  31.898   0.411   3.352
 4620W        W63716  32.449  11.742  14.338
 4621W        W63717   0.862  16.710   2.862
 4622W        W63718  24.621  26.472  13.529
 4623W        W63719  39.501  22.634   3.816
 4624W        W63720  34.403  19.722  14.928
 4625W        W63721  13.811   5.872  14.392
 4626W        W63722  33.114  37.474   0.467
 4627W        W63723  30.048  33.590  11.094
 4628W        W63724  41.329  30.502  12.373
 4629W        W63725  29.624  33.127  10.416
 4630W        W63726  18.126  28.001   2.846
 4631W        W63727  43.824  35.434   1.808
 4632W        W63728  35.566   4.933  11.506
 4633W        W63729  37.055  44.491  10.640
 4634W        W63730  18.635  41.376  10.545
 4635W        W63731  16.758  38.866   0.290
 4636W        W63732  30.597  21.600  13.858
 4637W        W63733  23.551  43.320  13.381
 4638W        W63734  12.723  23.239   4.279
 4639W        W63735  13.150   5.855   1.807
 4640W        W63736  30.659  24.105  11.912
 4641W        W63737  37.831   8.796   4.246
 4642W        W63738  33.989  32.523  14.956
 4643W        W63739  27.661  16.776  11.399
 4644W        W63740  39.497  39.497  10.409
 4645W        W63741  31.504  23.224   3.361
 4646W        W63742  26.569   7.254   1.380
 4647W        W63743  17.604  35.932  10.451
 4648W        W63744  21.057  31.035  14.814
 4649W        W63745  22.687  16.629   1.908
 4650W        W63746  14.733  34.007   1.777
 4651W        W63747  37.359  41.349  13.467
 4652W        W63748  15.142  13.641   1.334
 4653W        W63749  22.098  16.681   1.735
 4654W        W63750   9.722  31.047  14.875
 4655W        W63751  41.451  27.509   2.203
 4656W        W63752  29.130  13.145   0.311
 4657W        W63753  15.264  42.455   2.871
 4658W        W63754  35.032  44.273   0.335
 4659W        W63755  30.990  21.184   2.285
 4660W        W63756   9.833  11.782   0.425
 4661W        W63757  17.688  18.094  13.438
 4662W        W63758  22.727  35.860  14.364
 4663W        W63759   9.300   1.963   4.353
 4664W        W63760  28.568   5.421  10.571
 4665W        W63761   6.253   1.448   3.333
 4666W        W63762   0.351  18.060  10.993
 4667W        W63763  30.446  39.335   1.889
 4668W        W63764  43.386  16.141   4.139
 4669W        W63765  39.425  40.304  11.513
 4670W        W63766  19.127  10.819   2.351
 4671W        W63767  14.210  23.687  13.019
 4672W        W63768   3.324   9.324  14.031
 4673W        W63769  27.584   2.319  13.856
 4674W        W63770  32.115  35.376   3.849
 4675W        W63771  33.456  27.957   3.385
 4676W        W63772  28.474  40.841   1.864
 4677W        W63773  22.236   4.300  13.342
 4678W        W63774  29.064  18.767  14.969
 4679W        W63775  21.716  17.157  11.062
 4680W        W63776  35.973  26.570   1.906
 4681W        W63777   4.417  15.611   4.280
 4682W        W63778  44.494   1.888  10.941
 4683W        W63779   7.411  30.524  10.538
 4684W        W63780   3.913   4.877  12.011
 4685W        W63781  19.280   1.773   1.919
 4686W        W63782  14.620  33.877   0.389
 4687W        W63783  44.359   1.929  12.080
 4688W        W63784   5.873  32.546   0.740
 4689W        W63785  20.118  36.987   1.277
 4690W        W63786   9.205  14.144   2.844
 4691W        W63787  32.949  38.381  11.015
 4692W        W63788  27.085  17.709  14.312
 4693W        W63789  19.622  26.140   1.427
 4694W        W63790  34.401   6.385   2.678
 4695W        W63791  10.748  36.051  14.793
 4696W        W63792   5.909  37.395  12.447
 4697W        W63793  27.066  37.937   2.214
 4698W        W63794  13.679  42.013   2.389
 4699W        W63795   8.348  31.535   2.381
 4700W        W63796   5.779  44.441  12.864
 4701W        W63797  21.652  31.053  14.350
 4702W        W63798  14.330  37.576  12.367
 4703W        W63799  31.423  15.231  14.458
 4704W        W63800   2.421   2.954  13.884
 4705W        W63801  17.722  23.057  13.889
 4706W        W63802   5.407  32.390  13.481
 4707W        W63803   8.189  33.044  12.439
 4708W        W63804  31.540  41.840  14.489
 4709W        W63805  17.283  22.620  10.993
 4710W        W63806   5.412   9.246   0.454
 4711W        W63807  38.010  10.315  14.382
 4712W        W63808  39.006  25.627   9.940
 4713W        W63809  34.527   4.221  13.052
 4714W        W63810  26.201  26.620   2.341
 4715W        W63811  21.754  42.315   2.178
 4716W        W63812  43.834  29.052   0.410
 4717W        W63813  41.003   6.845   2.823
 4718W        W63814  28.066   9.830  11.571
 4719W        W63815   4.391  39.423  10.564
 4720W        W63816  23.679  27.619  11.953
 4721W        W63817  18.786  40.862   2.317
 4722W        W63818   0.386  41.888   1.906
 4723W        W63819  19.159  38.819   3.215
 4724W        W63820   2.344  24.631  14.391
 4725W        W63821  25.122   7.286  10.590
 4726W        W63822  42.967  28.630  10.442
 4727W        W63823  24.499  28.478   1.353
 4728W        W63824  30.047  36.401   0.332
 4729W        W63825  34.397  18.744   0.835
 4730W        W63826  44.889  23.144  12.919
 4731W        W63827   2.432   9.273   3.789
 4732W        W63828  31.988   9.200   4.152
 4733W        W63829  32.016  14.253  11.389
 4734W        W63830  42.924  37.554  12.388
 4735W        W63831  15.704  15.814   3.375
 4736W        W63832  18.770   1.301  11.445
 4737W        W63833   2.880  39.334  13.431
 4738W        W63834  34.081  20.573  10.988
 4739W        W63835   5.282  13.234  11.911
 4740W        W63836  20.036  38.441  13.024
 4741W        W63837   6.798  41.309  11.541
 4742W        W63838   6.301  20.734   1.267
 4743W        W63839  42.389  13.648  13.509
 4744W        W63840   6.772  35.411  12.382
 4745W        W63841  12.645  39.948  10.958
 4746W        W63842  34.898  23.013  13.373
 4747W        W63843   8.377   8.852  14.387
 4748W        W63844  18.089  39.542  13.404
 4749W        W63845   3.321  13.156   3.325
 4750W        W63846   4.300   9.877  13.487
 4751W        W63847   5.797   1.755  12.412
 4752W        W63848  43.974   6.738   2.271
 4753W        W63849  29.063   7.283  13.462
 4754W        W63850   2.231  20.706  14.944
 4755W        W63851  32.397  43.313   1.751
 4756W        W63852  31.598  28.640   0.941
 4757W        W63853  29.452  38.358  10.480
 4758W        W63854  14.669  40.378   4.677
 4759W        W63855  32.518  38.371  13.996
 4760W        W63856  11.289  21.522   1.418
 4761W        W63857   1.938  42.451   2.326
 4762W        W63858   1.844  37.889  14.475
 4763W        W63859   5.720  10.736   2.384
 4764W        W63860  43.999  14.305   2.695
 4765W        W63861  18.714  21.685   0.406
 4766W        W63862  22.057  44.796  14.019
 4767W        W63863   5.208  28.611  12.878
 4768W        W63864   0.883  21.243   3.722
 4769W        W63865  19.183  36.577   2.216
 4770W        W63866   9.312  29.606  13.914
 4771W        W63867  34.931  33.971   4.748
 4772W        W63868  25.586  34.386   1.294
 4773W        W63869  17.240  42.393   1.250
 4774W        W63870  11.316  25.531   0.346
 4775W        W63871  11.813  25.557  13.528
 4776W        W63872  10.688  17.103  10.063
 4777W        W63873  41.532  36.926  12.416
 4778W        W63874  17.680   0.751  14.283
 4779W        W63875  26.675  25.198  10.534
 4780W        W63876  42.969  29.561  14.768
 4781W        W63877  42.987   6.718  13.486
 4782W        W63878  34.870   9.876   1.427
 4783W        W63879   7.337  12.689   2.861
 4784W        W63880  31.544   0.416   1.890
 4785W        W63881   8.404  19.726   3.216
 4786W        W63882  44.350  34.088   2.303
 4787W        W63883   1.418  37.545  11.918
 4788W        W63884   8.342  25.606  12.504
 4789W        W63885  12.768  23.503   4.765
 4790W        W63886   6.698  29.121  11.530
 4791W        W63887  27.158  14.744  11.565
 4792W        W63888   5.732  27.549   0.368
 4793W        W63889  30.421  11.171  13.904
 4794W        W63890  10.229  36.560   3.675
 4795W        W63891  26.591  34.424   3.265
 4796W        W63892   1.812  17.657  10.445
 4797W        W63893  10.267  12.634   4.823
 4798W        W63894   9.195   7.799   2.369
 4799W        W63895   8.656  42.813  12.893
 4800W        W63896   8.894  17.774   4.135
 4801W        W63897  25.528  20.272   3.195
 4802W        W63898  34.074  17.742   1.252
 4803W        W63899   2.899  35.501   0.739
 4804W        W63900  34.596  31.132  11.456
 4805W        W63901  29.134   2.766   2.281
 4806W        W63902  11.742  22.581   1.928
 4807W        W63903  42.416  31.129  12.896
 4808W        W63904  12.837   0.971   3.838
 4809W        W63905   8.858  20.636   3.379
 4810W        W63906  25.473  12.138  12.871
 4811W        W63907  10.782  44.436  11.862
 4812W        W63908  14.323  37.486   3.816
 4813W        W63909  20.611  13.765   3.684
 4814W        W63910  16.624  19.615   2.722
 4815W        W63911  24.584  13.173   3.375
 4816W        W63912  30.434  37.973   3.698
 4817W        W63913  43.971  30.070   1.914
 4818W        W63914  39.366  15.215  11.475
 4819W        W63915  30.579  17.264  12.977
 4820W        W63916  42.861   5.844   1.440
 4821W        W63917  28.038   8.172   0.349
 4822W        W63918   1.433  16.234   3.788
 4823W        W63919  31.418  23.233   0.331
 4824W        W63920  19.612  11.818   1.367
 4825W        W63921  32.894  16.094   1.419
 4826W        W63922  17.699  32.919  10.925
 4827W        W63923  20.656   9.219   2.281
 4828W        W63924  22.055  13.338  13.488
 4829W        W63925   1.855  22.102  13.532
 4830W        W63926  24.144  31.538   1.322
 4831W        W63927  44.884  29.052   2.285
 4832W        W63928  11.641   1.803  14.904
 4833W        W63929  40.800   1.384   1.876
 4834W        W63930  23.643   3.737   4.223
 4835W        W63931  43.928  33.067   3.716
 4836W        W63932  25.164  36.373  14.981
 4837W        W63933  44.885  15.665  13.992
 4838W        W63934  23.620  30.051   2.703
 4839W        W63935  16.735   3.856  13.401
 4840W        W63936  44.978   4.877   2.763
 4841W        W63937   8.803  19.634   3.709
 4842W        W63938  27.058   9.240  13.878
 4843W        W63939   2.729  41.846   2.799
 4844W        W63940  26.619   5.921  10.026
 4845W        W63941  22.700  32.944  13.985
 4846W        W63942  11.726   0.959  14.810
 4847W        W63943  31.481   2.270  10.988
 4848W        W63944   1.353  18.264   4.770
 4849W        W63945  22.093   6.870  14.430
 4850W        W63946   8.380  24.667  14.444
 4851W        W63947   0.808   7.286   3.299
 4852W        W63948  31.956  23.988   1.448
 4853W        W63949  12.674  20.029  14.834
 4854W        W63950  30.437   0.898   0.819
 4855W        W63951  26.952  24.071   0.741
 4856W        W63952  22.051  34.579  11.940
 4857W        W63953   5.808  21.172  14.438
 4858W        W63954   8.826  28.535  13.818
 4859W        W63955   4.816   4.287   1.782
 4860W        W63956  38.429  42.323   4.782
 4861W        W63957  28.011   6.276  11.576
 4862W        W63958   5.690  20.267  10.549
 4863W        W63959  41.011   8.729   9.649
 4864W        W63960  37.869  10.265  11.416
 4865W        W63961  44.259   0.285  13.032
 4866W        W63962  43.315  12.259  11.601
 4867W        W63963   0.865   2.329   1.412
 4868W        W63964  28.151  31.468   1.382
 4869W        W63965  13.654   4.863   3.743
 4870W        W63966  18.641  16.130   4.241
 4871W        W63967  22.577  11.334   1.393
 4872W        W63968  18.277  14.129  14.816
 4873W        W63969  22.149  10.743   1.753
 4874W        W63970  18.711  33.409  13.461
 4875W        W63971   0.769   3.385  12.371
 4876W        W63972  30.538  27.453  12.076
 4877W        W63973  35.497   9.714   1.438
 4878W        W63974  21.654   5.329   2.789
 4879W        W63975  35.970  17.292   1.246
 4880W        W63976   2.904   1.439   1.838
 4881W        W63977   8.396  17.166  12.936
 4882W        W63978  15.673  30.484  11.954
 4883W        W63979  21.193  29.650  13.041
 4884W        W63980   4.750   3.722  10.972
 4885W        W63981  18.174  41.317  13.875
 4886W        W63982  40.820  31.611  14.315
 4887W        W63983  39.553  34.977   1.344
 4888W        W63984  36.067   3.888   1.726
 4889W        W63985  24.999  12.246   0.299
 4890W        W63986  31.038  15.750  10.086
 4891W        W63987  14.588  13.153   0.475
 4892W        W63988  14.591  38.997  11.431
 4893W        W63989  21.198  12.830   2.386
 4894W        W63990  42.828  19.222   2.715
 4895W        W63991   1.858   2.806   3.698
 4896W        W63992   2.330   3.370   3.795
 4897W        W63993  25.137  35.602  12.566
 4898W        W63994  16.603  23.131   0.860
 4899W        W63995  12.771  22.703   4.691
 4900W        W63996  33.568  27.651   0.729
 4901W        W63997  13.798  29.669  11.868
 4902W        W63998  32.566  21.210   0.375
 4903W        W63999  12.623  32.608  11.007
 4904W        W64000  40.541  14.823   1.384
 4905W        W64001  10.790   8.675   2.389
 4906W        W64002  13.300  22.167   0.819
 4907W        W64003  11.234  39.524  13.432
 4908W        W64004   2.825  37.881   2.268
 4909W        W64005  24.144  11.200   1.228
 4910W        W64006  33.471   6.276  11.390
 4911W        W64007  17.687  29.174   0.331
 4912W        W64008  25.049  14.120  12.087
 4913W        W64009  37.385  22.599  10.408
 4914W        W64010  29.124  10.683  11.432
 4915W        W64011  26.565  33.964   4.326
 4916W        W64012   2.410  43.926   1.785
 4917W        W64013  43.999  43.502  11.550
 4918W        W64014  15.779  43.305  12.554
 4919W        W64015  38.465  35.524  13.004
 4920W        W64016  26.700  17.234  12.513
 4921W        W64017  12.710  22.521  13.992
 4922W        W64018  18.145   4.429  14.508
 4923W        W64019  33.883  20.209   4.654
 4924W        W64020  22.694  27.567  13.031
 4925W        W64021   7.214  14.641   1.778
 4926W        W64022  31.026  21.035  12.999
 4927W        W64023  30.103  21.178   0.436
 4928W        W64024  34.952  26.961   1.439
 4929W        W64025   3.837  12.124  12.386
 4930W        W64026  12.337  41.367  14.856
 4931W        W64027   6.409  45.000  11.396
 4932W        W64028   9.165  22.637  14.019
 4933W        W64029  22.742  16.593   2.777
 4934W        W64030  22.670   6.697  13.499
 4935W        W64031   2.455  38.377   0.864
 4936W        W64032  11.733   5.219   2.359
 4937W        W64033  14.697  40.988   1.816
 4938W        W64034  10.236  21.066  14.992
 4939W        W64035   9.781  44.996   3.226
 4940W        W64036  15.683  15.123   2.271
 4941W        W64037  35.444  44.314   0.447
 4942W        W64038  17.769  44.753  13.422
 4943W        W64039  17.224  33.876  12.442
 4944W        W64040  22.209  29.449  12.066
 4945W        W64041   4.432   4.344   1.402
 4946W        W64042  11.227  28.184   3.781
 4947W        W64043  15.213  18.694  14.327
 4948W        W64044   5.217   1.324   3.743
 4949W        W64045  27.051   2.391   3.220
 4950W        W64046   9.384   2.257   3.811
 4951W        W64047  38.334  26.035   3.183
 4952W        W64048  42.463  10.164  12.979
 4953W        W64049  14.752   5.390  14.934
 4954W        W64050  23.033   2.467  12.018
 4955W        W64051  41.470  41.038  13.382
 4956W        W64052   8.802  13.741  13.970
 4957W        W64053  12.808   8.709  12.918
 4958W        W64054   2.831   1.339  11.465
 4959W        W64055  29.448   8.764   0.728
 4960W        W64056  10.199   8.886   1.790
 4961W        W64057   5.886   3.413  12.412
 4962W        W64058   3.221  26.610  14.897
 4963W        W64059  34.611  32.042  12.055
 4964W        W64060  31.635   0.408   4.138
 4965W        W64061  17.289  29.008  11.989
 4966W        W64062  31.042  17.169  12.443
 4967W        W64063  10.858  19.630   0.429
 4968W        W64064   8.211  16.712   2.816
 4969W        W64065   7.232  28.014   3.633
 4970W        W64066  34.525   5.913   3.377
 4971W        W64067  12.349  25.206  11.882
 4972W        W64068  36.051  24.638  10.444
 4973W        W64069  20.115   3.939  13.029
 4974W        W64070  34.964   1.435  11.436
 4975W        W64071  18.598  35.882  13.881
 4976W        W64072   9.671  17.640  14.796
 4977W        W64073  44.804   3.711   0.340
 4978W        W64074  33.101   0.361   4.312
 4979W        W64075  30.629  18.731  11.975
 4980W        W64076  15.250   0.333   3.317
 4981W        W64077  10.183  28.021  11.385
 4982W        W64078  25.102  11.779  11.921
 4983W        W64079  38.049   6.834  13.439
 4984W        W64080  34.907  12.711  11.054
 4985W        W64081  15.677  18.148   3.690
 4986W        W64082   1.970   8.843   3.844
 4987W        W64083  39.966  15.809  13.806
 4988W        W64084  15.231  38.008   3.293
 4989W        W64085  14.304  43.287   3.304
 4990W        W64086  13.345  22.522   2.665
 4991W        W64087  13.349  11.233  14.317
 4992W        W64088  36.849  32.408   1.219
 4993W        W64089  37.860  35.508   3.638
 4994W        W64090  12.779  29.933  14.395
 4995W        W64091  14.272  26.578  12.063
 4996W        W64092  18.269   1.903   3.322
 4997W        W64093  44.838  27.048   2.230
 4998W        W64094   0.443   1.874   0.956
 4999W        W64095  39.005  13.801  12.996
 5000W        W64096  22.529  10.719  10.561
 5001W        W64097  42.409  17.195  14.903
 5002W        W64098  32.087  31.977   1.927
 5003W        W64099  40.023  19.048  12.402
 5004W        W64100  26.093   0.795  10.613
 5005W        W64101  21.249  32.060  11.549
 5006W        W64102  30.536  43.503  12.092
 5007W        W64103  40.389   3.872   2.734
 5008W        W64104  37.371  34.081  11.573
 5009W        W64105  26.482   3.436   0.860
 5010W        W64106  17.144  39.439  14.499
 5011W        W64107  26.957  16.177  13.014
 5012W        W64108  36.472  25.079  13.327
 5013W        W64109  10.799  29.125   1.753
 5014W        W64110   4.827   1.462   4.351
 5015W        W64111  11.193  19.067   3.838
 5016W        W64112   1.324  33.430   3.214
 5017W        W64113  10.682  44.812   2.785
 5018W        W64114  18.077  33.888  13.381
 5019W        W64115  22.697  30.459   1.433
 5020W        W64116  41.025   5.371   2.871
 5021W        W64117   0.404   5.898  10.494
 5022W        W64118  39.496  44.927   0.304
 5023W        W64119  18.215  14.718  13.419
 5024W        W64120  13.293  38.428   0.803
 5025W        W64121  15.156  24.544   3.192
 5026W        W64122   8.299  15.276   3.349
 5027W        W64123  13.162   1.807   1.377
 5028W        W64124   3.744   3.366  12.372
 5029W        W64125   6.247  13.616   0.412
 5030W        W64126  17.582   4.796   1.416
 5031W        W64127  33.127  27.665  14.423
 5032W        W64128  43.020   2.960  11.955
 5033W        W64129  23.029  34.470  11.541
 5034W        W64130  15.788  29.088   2.754
 5035W        W64131  31.579  28.176  12.072
 5036W        W64132   9.750   3.342  13.932
 5037W        W64133   4.274   7.348   1.448
 5038W        W64134  15.195  41.882   3.655
 5039W        W64135  14.632  32.003   1.697
 5040W        W64136  16.746  34.067  11.927
 5041W        W64137  35.388  37.847   2.241
 5042W        W64138  39.345  15.593  10.555
 5043W        W64139   4.715  19.283  12.559
 5044W        W64140  23.003  17.780   3.815
 5045W        W64141   2.735   5.859   3.195
 5046W        W64142  23.547  27.187   3.330
 5047W        W64143  40.427  33.995   2.695
 5048W        W64144  22.225  38.362  14.502
 5049W        W64145  23.636  36.850  10.913
 5050W        W64146  14.207  23.646  12.408
 5051W        W64147  40.027   0.880   4.288
 5052W        W64148   7.713  19.584  12.423
 5053W        W64149  37.546  11.367   0.459
 5054W        W64150   4.242   3.272  12.909
 5055W        W64151  42.380  32.626   1.382
 5056W        W64152  36.932  32.923   4.809
 5057W        W64153  34.601  20.164   2.665
 5058W        W64154  29.051  30.985   3.767
 5059W        W64155   8.690  39.975   4.210
 5060W        W64156  43.869  31.622   4.717
 5061W        W64157   0.310  25.069  13.957
 5062W        W64158  11.818  24.205  13.406
 5063W        W64159   3.786  27.077  14.276
 5064W        W64160  23.081  10.314  11.588
 5065W        W64161  14.711  12.158   3.847
 5066W        W64162  13.322  14.614  11.607
 5067W        W64163  31.606  37.925   0.365
 5068W        W64164  28.058   6.820  10.472
 5069W        W64165  33.526   6.817   4.203
 5070W        W64166  21.064   2.257   0.465
 5071W        W64167  23.063  15.725   4.811
 5072W        W64168  19.699  18.715  11.425
 5073W        W64169  24.515  42.877   4.351
 5074W        W64170  23.232   9.361  11.596
 5075W        W64171  23.103  30.064   0.806
 5076W        W64172   8.324  28.658  11.050
 5077W        W64173  27.579  17.687  13.808
 5078W        W64174  24.137  38.019   2.271
 5079W        W64175  40.331  31.447   0.247
 5080W        W64176  23.639  25.511  14.477
 5081W        W64177  16.110  26.086   2.227
 5082W        W64178   9.183  42.999  10.562
 5083W        W64179  14.181   5.219  10.916
 5084W        W64180  16.132  43.959   3.636
 5085W        W64181   0.276  18.673  12.522
 5086W        W64182   8.769  39.555  13.809
 5087W        W64183  20.584  42.458   1.845
 5088W        W64184  37.023   4.331   0.387
 5089W        W64185   5.304  10.857  12.547
 5090W        W64186  13.632  39.447  14.302
 5091W        W64187  34.397  14.113   1.695
 5092W        W64188  35.983  22.649  11.387
 5093W        W64189  41.364  24.662   2.232
 5094W        W64190   2.828  10.709  11.478
 5095W        W64191  38.408  23.733   2.690
 5096W        W64192  21.719   2.373   0.479
 5097W        W64193  13.276  41.427  10.149
 5098W        W64194  19.124  35.104   2.258
 5099W        W64195  44.953  18.578  13.518
 5100W        W64196   5.292   4.427  11.428
 5101W        W64197  38.525   5.918   3.231
 5102W        W64198  26.135  43.457  10.416
 5103W        W64199  14.809  10.276  14.436
 5104W        W64200  13.599  41.038  12.058
 5105W        W64201  29.584  10.215   0.362
 5106W        W64202  41.925  19.548   0.389
 5107W        W64203   4.325   0.771   4.805
 5108W        W64204  19.594  25.698   2.733
 5109W        W64205   0.468  37.016  11.092
 5110W        W64206   1.950   6.420  12.860
 5111W        W64207  38.038  17.778   3.789
 5112W        W64208  34.888  11.137   0.774
 5113W        W64209  26.030  34.045  12.930
 5114W        W64210  23.656  29.533   2.790
 5115W        W64211   9.237  28.547  14.451
 5116W        W64212  14.781  18.760   5.106
 5117W        W64213  42.892   8.256  12.978
 5118W        W64214  20.072  19.197  12.455
 5119W        W64215  13.632  13.763   0.897
 5120W        W64216  14.171  35.932   5.088
 5121W        W64217  16.570  26.164   4.710
 5122W        W64218  18.182   6.218   0.753
 5123W        W64219  44.764  36.586  11.126
 5124W        W64220  13.845  37.506   2.353
 5125W        W64221  18.639  17.770   3.690
 5126W        W64222   1.421  34.370   0.267
 5127W        W64223  35.463  14.129  14.338
 5128W        W64224  24.509  37.846   1.268
 5129W        W64225   9.791   3.814   4.822
 5130W        W64226   5.207   4.877  10.033
 5131W        W64227  34.938  36.062   4.799
 5132W        W64228  18.788  16.179  11.586
 5133W        W64229  30.575  27.449  14.513
 5134W        W64230  44.440  10.812   1.412
 5135W        W64231   7.783  14.107   3.189
 5136W        W64232  30.999  16.103   5.695
 5137W        W64233  12.839  23.508  14.967
 5138W        W64234  11.161  20.245  12.872
 5139W        W64235  15.630  41.493   2.350
 5140W        W64236  31.967  40.845   4.184
 5141W        W64237  44.815  24.076  12.538
 5142W        W64238  41.989  26.115   2.382
 5143W        W64239  35.947  34.409   4.696
 5144W        W64240  30.510  43.361  14.456
 5145W        W64241   6.808  10.311  11.082
 5146W        W64242   9.673  16.190   2.238
 5147W        W64243  28.094   8.201   3.257
 5148W        W64244  27.485   9.337   4.191
 5149W        W64245  15.660  12.671   2.319
 5150W        W64246  26.547  39.448  10.481
 5151W        W64247  23.529  25.567  10.985
 5152W        W64248  29.080  22.594   4.267
 5153W        W64249  23.005  12.719   0.858
 5154W        W64250  21.214  15.777  14.505
 5155W        W64251  21.735  23.193   3.341
 5156W        W64252  32.557   2.937  13.854
 5157W        W64253  24.210  40.968  11.086
 5158W        W64254   1.372  26.594  14.970
 5159W        W64255  43.500   3.378   2.321
 5160W        W64256  41.028  32.999   3.835
 5161W        W64257  21.525  28.679   0.817
 5162W        W64258  42.338  32.467  10.891
 5163W        W64259  30.975  30.644  11.042
 5164W        W64260  27.611  37.459   2.386
 5165W        W64261  36.885   1.806  11.554
 5166W        W64262  31.057   2.278  14.419
 5167W        W64263  18.157  24.663  14.315
 5168W        W64264  43.920  14.764   0.475
 5169W        W64265  22.524  38.074   4.728
 5170W        W64266  15.669  39.915  10.407
 5171W        W64267   2.842  41.815  14.817
 5172W        W64268  22.640  10.704   4.611
 5173W        W64269   3.261  36.429  13.508
 5174W        W64270  36.002  24.564   4.601
 5175W        W64271  41.500  30.415  10.440
 5176W        W64272  35.929   0.860  13.365
 5177W        W64273   5.205  20.527   2.845
 5178W        W64274  44.981  41.015   1.346
 5179W        W64275  27.536  40.800   2.410
 5180W        W64276  31.543   3.235  13.885
 5181W        W64277  26.004  29.071   2.784
 5182W        W64278  35.064   8.351  11.486
 5183W        W64279   0.977  40.547  14.448
 5184W        W64280  39.859  13.800  13.024
 5185W        W64281  22.106  20.137   0.900
 5186W        W64282  39.878  15.298   4.249
 5187W        W64283  10.767  29.607  14.952
 5188W        W64284  10.354  14.677   3.181
 5189W        W64285  13.134  36.415  10.414
 5190W        W64286  24.642  25.658   1.259
 5191W        W64287   3.299   3.337   1.935
 5192W        W64288   7.311   4.837  12.347
 5193W        W64289  34.975  10.378  10.573
 5194W        W64290  15.266  26.629   4.701
 5195W        W64291  14.188   6.213  11.893
 5196W        W64292  18.557  19.082  11.375
 5197W        W64293   1.930  13.609   3.640
 5198W        W64294  43.332  27.048   1.409
 5199W        W64295   6.390   6.357   2.298
 5200W        W64296  32.039  43.361  12.087
 5201W        W64297   3.453  33.476   1.360
 5202W        W64298  23.553  28.932   4.777
 5203W        W64299  12.808  20.274   0.398
 5204W        W64300   5.871  29.994   2.225
 5205W        W64301  20.065  35.033   0.294
 5206W        W64302  40.311  33.069  11.108
 5207W        W64303  10.220  42.417  13.819
 5208W        W64304  40.530  26.983   0.295
 5209W        W64305  22.640  43.899  12.836
 5210W        W64306  33.473  23.138   5.181
 5211W        W64307  22.232  27.983  14.027
 5212W        W64308  27.068  42.483  10.509
 5213W        W64309  23.012   6.904  13.978
 5214W        W64310  35.991  26.957  14.479
 5215W        W64311  35.589  42.284   1.265
 5216W        W64312  36.460  35.455   0.839
 5217W        W64313  37.926  12.159   0.898
 5218W        W64314   9.721   4.857   2.707
 5219W        W64315  12.777   2.366   2.191
 5220W        W64316  38.384  36.030   1.867
 5221W        W64317  29.970  28.015   2.683
 5222W        W64318  27.644  22.021   3.729
 5223W        W64319  15.773  44.315   9.937
 5224W        W64320  10.717  23.040  10.943
 5225W        W64321  43.833  44.477  13.934
 5226W        W64322  11.642  18.670   1.343
 5227W        W64323   7.876  24.608   1.886
 5228W        W64324  44.503  22.732  11.990
 5229W        W64325  39.910  17.588  12.342
 5230W        W64326  19.749  33.057  14.850
 5231W        W64327  11.633  32.996   1.731
 5232W        W64328   7.741   1.260  12.491
 5233W        W64329   2.801  37.526  11.591
 5234W        W64330   3.372   6.361  14.857
 5235W        W64331  11.712  16.279  12.982
 5236W        W64332  18.577   3.712  12.907
 5237W        W64333  10.184  26.038   3.695
 5238W        W64334  28.507   8.337   0.243
 5239W        W64335  43.310   6.880   3.358
 5240W        W64336  44.327  40.427   1.805
 5241W        W64337  30.611  29.996  13.003
 5242W        W64338  33.591   3.850  13.429
 5243W        W64339  25.205  25.681   4.727
 5244W        W64340  12.285  34.381   0.325
 5245W        W64341  35.893  33.550   3.201
 5246W        W64342  40.832   0.903   4.711
 5247W        W64343  21.164   1.825   1.797
 5248W        W64344  34.919  15.125   1.821
 5249W        W64345   1.440  19.593  10.483
 5250W        W64346   7.851   1.950  10.527
 5251W        W64347  30.449  35.091  12.555
 5252W        W64348   4.423  34.432  13.514
 5253W        W64349   8.375   6.763   3.247
 5254W        W64350  16.707  18.137  13.538
 5255W        W64351   9.705   2.341  14.419
 5256W        W64352  14.233  37.545  13.904
 5257W        W64353  10.851   4.392  13.866
 5258W        W64354  10.760  31.617  12.052
 5259W        W64355  30.414  15.795  13.021
 5260W        W64356  13.215  27.644  14.882
 5261W        W64357  38.013   5.327  12.431
 5262W        W64358  25.100   8.215  14.498
 5263W        W64359   1.926  14.190  13.444
 5264W        W64360   3.725  25.107  10.080
 5265W        W64361  27.567  25.648  11.426
 5266W        W64362   1.945   9.710   2.685
 5267W        W64363   6.796  40.033   0.783
 5268W        W64364  24.224  23.587  10.578
 5269W        W64365  30.008   9.341  13.799
 5270W        W64366  13.797   4.746   0.428
 5271W        W64367   4.827  19.741   3.680
 5272W        W64368  13.628  20.191   2.190
 5273W        W64369  29.603  11.659   2.267
 5274W        W64370  10.191   7.903   2.351
 5275W        W64371   6.385   4.722   4.163
 5276W        W64372  14.812  20.710  12.364
 5277W        W64373  35.388   2.856  11.569
 5278W        W64374  40.922   7.787   1.424
 5279W        W64375  34.064  15.271  13.914
 5280W        W64376   2.407   4.234   4.250
 5281W        W64377  12.842  29.958  10.994
 5282W        W64378  34.896  11.852   4.153
 5283W        W64379  42.919  34.007  14.828
 5284W        W64380  24.565  23.088  12.393
 5285W        W64381  34.956  34.035   1.851
 5286W        W64382  14.311   7.302  13.490
 5287W        W64383  22.507  10.234   1.445
 5288W        W64384  24.533  43.826   3.802
 5289W        W64385  13.747   6.402   4.271
 5290W        W64386   8.827  32.504  10.535
 5291W        W64387  17.772  39.029  11.925
 5292W        W64388  16.296  13.169  12.991
 5293W        W64389  21.708  31.505  14.389
 5294W        W64390  42.023   0.315   4.725
 5295W        W64391  18.290  16.088   4.248
 5296W        W64392  36.548  42.423  11.554
 5297W        W64393  10.145  36.384   0.812
 5298W        W64394  33.607  43.772  12.547
 5299W        W64395   9.798  23.108   3.273
 5300W        W64396  42.347   5.831   3.842
 5301W        W64397  16.147  24.169   4.157
 5302W        W64398   5.898  24.662  12.384
 5303W        W64399  18.660  32.127  11.600
 5304W        W64400  24.079  10.241  12.057
 5305W        W64401  24.698  32.121  15.000
 5306W        W64402  34.556  28.033   3.203
 5307W        W64403  19.770   6.378   0.419
 5308W        W64404  14.658  32.886  14.437
 5309W        W64405  33.910  28.935  13.835
 5310W        W64406  35.948  36.065  12.577
 5311W        W64407  43.271  32.480   4.710
 5312W        W64408  41.023   2.836  14.473
 5313W        W64409  16.709  43.920   4.153
 5314W        W64410  19.753   9.761   3.309
 5315W        W64411  20.662  42.917  10.466
 5316W        W64412  38.043  36.461  13.408
 5317W        W64413   5.929   4.206  12.886
 5318W        W64414  26.564   8.886  10.531
 5319W        W64415  18.727  31.143   1.308
 5320W        W64416  30.461  18.101  14.464
 5321W        W64417  29.428   9.371  11.505
 5322W        W64418  44.007  21.684  11.470
 5323W        W64419  34.111  15.747   2.386
 5324W        W64420   1.827  37.376   4.347
 5325W        W64421  28.602  18.675   9.520
 5326W        W64422  13.675  31.123  13.481
 5327W        W64423  42.479  43.285  11.090
 5328W        W64424  17.094  23.200   1.839
 5329W        W64425  27.483  44.766  11.415
 5330W        W64426  34.115  14.744   0.766
 5331W        W64427  41.903  35.895  14.290
 5332W        W64428  36.547   0.405   2.218
 5333W        W64429  33.590  23.031   2.734
 5334W        W64430  29.009   6.378  11.928
 5335W        W64431  27.172  12.327   3.151
 5336W        W64432  10.762  16.282   2.285
 5337W        W64433  41.425  10.771  14.966
 5338W        W64434   4.929  42.785   3.813
 5339W        W64435  40.341   1.943   5.097
 5340W        W64436  21.058  36.514  14.003
 5341W        W64437  39.428  20.562  11.967
 5342W        W64438  40.843   6.321  13.506
 5343W        W64439  15.309  35.077   3.730
 5344W        W64440  29.977   4.432   4.153
 5345W        W64441  39.867  29.040  11.999
 5346W        W64442  17.258  10.875   2.208
 5347W        W64443  12.758  28.155   1.836
 5348W        W64444  32.400  35.428   4.276
 5349W        W64445  32.560  40.504   4.163
 5350W        W64446   5.329   5.243  14.327
 5351W        W64447  20.247  17.211   3.355
 5352W        W64448   3.931  32.964  12.854
 5353W        W64449  41.414  28.616  12.406
 5354W        W64450  17.136  23.045  11.006
 5355W        W64451   1.770  26.589   0.360
 5356W        W64452  23.682  18.703  13.368
 5357W        W64453  30.146   2.251  11.468
 5358W        W64454  11.320  26.011  11.384
 5359W        W64455  44.402   9.736   1.448
 5360W        W64456  15.244  29.920   3.260
 5361W        W64457  10.333   0.421  13.869
 5362W        W64458   7.330  35.576  10.408
 5363W        W64459  16.571  42.432  12.096
 5364W        W64460   9.802   6.890   1.278
 5365W        W64461  20.670   7.738   0.264
 5366W        W64462  15.721  19.212   2.418
 5367W        W64463   8.168  19.092   1.842
 5368W        W64464  10.800  25.031  10.989
 5369W        W64465  29.061  12.206  12.411
 5370W        W64466  22.729  19.118  14.435
 5371W        W64467   2.732  37.883  13.493
 5372W        W64468  27.067  20.143   3.184
 5373W        W64469  40.329   5.208   3.797
 5374W        W64470  10.203  37.414  12.005
 5375W        W64471   5.304   3.764   1.430
 5376W        W64472  24.132  43.927   4.629
 5377W        W64473  32.979  12.142  12.987
 5378W        W64474  37.581  21.565  12.956
 5379W        W64475  38.564  16.088  13.313
 5380W        W64476  10.833   9.690   1.830
 5381W        W64477   3.414  17.139   0.726
 5382W        W64478  23.009  20.145  13.013
 5383W        W64479  24.207  39.945  12.919
 5384W        W64480  34.950  32.058   3.786
 5385W        W64481  36.526   2.403  14.499
 5386W        W64482  44.790  34.932  11.937
 5387W        W64483  12.822  20.036  12.388
 5388W        W64484  14.814  34.058   4.662
 5389W        W64485  11.628   3.272   1.325
 5390W        W64486  30.599   5.757   2.711
 5391W        W64487  32.054  12.211  14.405
 5392W        W64488  43.898  30.439  12.366
 5393W        W64489  29.452  23.180  13.920
 5394W        W64490  38.562  31.018  10.634
 5395W        W64491  18.729  23.084   1.445
 5396W        W64492  29.445  15.194  14.447
 5397W        W64493  30.418  18.595  14.883
 5398W        W64494  34.606  17.272  11.453
 5399W        W64495  34.050  15.277   5.608
 5400W        W64496   9.653  33.951  11.890
 5401W        W64497  43.364  33.472   4.218
 5402W        W64498  37.028  29.561   4.154
 5403W        W64499   6.357  38.036   0.452
 5404W        W64500  42.920  19.282   4.643
 5405W        W64501  12.318  37.051   0.345
 5406W        W64502  23.074  37.500  10.481
 5407W        W64503  33.945  22.085   3.283
 5408W        W64504   7.872   3.362   5.149
 5409W        W64505   2.400  33.598   4.276
 5410W        W64506  13.240  19.779  12.471
 5411W        W64507  31.549  17.254   3.647
 5412W        W64508  28.109   1.381  11.554
 5413W        W64509  23.634  28.000  13.006
 5414W        W64510  27.172   6.845  13.039
 5415W        W64511  36.589  12.702  12.407
 5416W        W64512  33.986  41.511   2.285
 5417W        W64513  28.608  44.769  12.362
 5418W        W64514  39.829  25.666   1.790
 5419W        W64515  15.810  19.098   4.189
 5420W        W64516  15.730  22.176  10.583
 5421W        W64517  35.436   4.404   4.295
 5422W        W64518   3.398  17.736   1.702
 5423W        W64519   9.717  22.023  14.282
 5424W        W64520   7.325  27.509  13.047
 5425W        W64521  13.264  28.595   1.298
 5426W        W64522  40.882  17.760   0.814
 5427W        W64523  21.215  16.283   0.895
 5428W        W64524  33.056  33.426  11.535
 5429W        W64525  16.303  16.241  11.537
 5430W        W64526  43.393  40.928  12.936
 5431W        W64527  38.358  39.528   3.356
 5432W        W64528   6.742  18.133   1.881
 5433W        W64529  24.722  17.767  12.407
 5434W        W64530  26.540   8.764  13.001
 5435W        W64531  17.782  14.829  11.933
 5436W        W64532   0.419  37.889  10.470
 5437W        W64533  18.768  33.501   3.365
 5438W        W64534  23.148  41.991   4.730
 5439W        W64535  36.397   6.831  12.509
 5440W        W64536  16.570  17.197  13.517
 5441W        W64537  37.000  44.474  14.438
 5442W        W64538  30.570  43.999  11.534
 5443W        W64539  14.816  12.318  13.827
 5444W        W64540  42.488  11.359   0.432
 5445W        W64541  26.093   8.359  10.471
 5446W        W64542   0.350  19.607   3.836
 5447W        W64543  34.104   9.234   2.748
 5448W        W64544  26.681  22.027  12.553
 5449W        W64545   0.470  44.385  12.867
 5450W        W64546  17.305  11.644  11.920
 5451W        W64547   0.779  26.612   4.831
 5452W        W64548  12.707  16.224   3.303
 5453W        W64549  25.657  26.046  13.324
 5454W        W64550  35.108  40.549   1.762
 5455W        W64551  22.030  24.014  12.419
 5456W        W64552   0.778  24.706  14.486
 5457W        W64553  30.584  11.690   4.819
 5458W        W64554  37.523   7.171  11.062
 5459W        W64555   2.765  13.605  10.589
 5460W        W64556  36.351  23.001   0.751
 5461W        W64557  27.688  30.610   1.921
 5462W        W64558  36.019  15.300  10.454
 5463W        W64559   5.897  43.408  12.946
 5464W        W64560  14.590  27.561  12.063
 5465W        W64561  18.289  24.603  10.642
 5466W        W64562   8.405  20.535  13.840
 5467W        W64563  36.415  25.194   3.870
 5468W        W64564  11.265   0.924   0.932
 5469W        W64565   4.797  34.882   1.922
 5470W        W64566  11.741  20.173  14.291
 5471W        W64567  29.146  23.526   2.303
 5472W        W64568  38.430   0.362  11.046
 5473W        W64569  42.794   0.872  10.574
 5474W        W64570  17.300  43.336  11.457
 5475W        W64571  44.835  38.030   3.805
 5476W        W64572  25.085  28.502  11.091
 5477W        W64573  18.227  10.705  14.983
 5478W        W64574   1.834  32.006   3.272
 5479W        W64575   3.260  33.418   2.398
 5480W        W64576  39.473   5.391   3.723
 5481W        W64577  30.658  34.875   5.095
 5482W        W64578  33.995  33.451   2.340
 5483W        W64579  30.134  39.519  10.560
 5484W        W64580  13.245  30.638  10.466
 5485W        W64581  18.732  21.651   4.769
 5486W        W64582  34.975   1.731   0.385
 5487W        W64583  29.017   9.674  14.462
 5488W        W64584  11.722  10.290  12.039
 5489W        W64585  34.040  35.910  11.043
 5490W        W64586  37.514  29.634  13.790
 5491W        W64587  25.015  36.476  14.445
 5492W        W64588  30.022  31.430  14.989
 5493W        W64589  32.502  21.077   3.251
 5494W        W64590  20.595  18.237  13.942
 5495W        W64591  16.115  29.966   2.182
 5496W        W64592  15.639  27.159   0.916
 5497W        W64593  35.568  24.637   1.729
 5498W        W64594   6.737  13.318   2.678
 5499W        W64595  13.660  17.626  10.619
 5500W        W64596  43.360  35.532  11.930
 5501W        W64597  21.175  26.161  13.383
 5502W        W64598   8.345  13.241   3.814
 5503W        W64599  20.062   7.732   4.349
 5504W        W64600  24.604  34.532  10.418
 5505W        W64601  29.976  31.426  10.442
 5506W        W64602  43.921  26.669   1.871
 5507W        W64603  37.051  41.398  13.416
 5508W        W64604   0.928   8.335  11.440
 5509W        W64605  27.018   0.965  11.484
 5510W        W64606  15.721  18.198  11.089
 5511W        W64607   5.710   4.851  14.974
 5512W        W64608   7.818  17.164   4.598
 5513W        W64609  26.635  24.200   0.433
 5514W        W64610   9.740  23.078   0.785
 5515W        W64611  16.137  40.465   3.166
 5516W        W64612  17.748  28.147  14.361
 5517W        W64613   3.771  28.157   1.905
 5518W        W64614  21.516   9.665  12.508
 5519W        W64615  13.318   2.239  11.421
 5520W        W64616  42.023   5.229  12.566
 5521W        W64617  27.653  19.551   3.196
 5522W        W64618  32.036  12.135   0.834
 5523W        W64619   3.429  41.788  12.837
 5524W        W64620   3.455  40.499   4.240
 5525W        W64621  10.155  11.321   1.249
 5526W        W64622   9.180  14.711  11.082
 5527W        W64623  31.913  23.637  14.962
 5528W        W64624  40.867  22.506  14.827
 5529W        W64625  18.775  24.587  14.463
 5530W        W64626  33.411  27.141  12.541
 5531W        W64627  34.458  18.723  11.941
 5532W        W64628  12.203  18.188   0.826
 5533W        W64629  10.376   6.290  12.082
 5534W        W64630  20.148  23.038   0.786
 5535W        W64631  11.188  39.943  12.481
 5536W        W64632  19.134  39.384   1.886
 5537W        W64633  12.783   0.257   3.691
 5538W        W64634  44.275  21.682   4.751
 5539W        W64635  42.462  43.509  11.468
 5540W        W64636  40.024  15.728  11.026
 5541W        W64637  30.573  44.928   1.815
 5542W        W64638   4.204  28.621   4.758
 5543W        W64639  18.637  13.127   3.681
 5544W        W64640  37.376  40.429  13.010
 5545W        W64641  37.505   8.392   3.728
 5546W        W64642  37.528  28.637  11.520
 5547W        W64643   7.301  18.575   3.182
 5548W        W64644  35.391  31.943  12.900
 5549W        W64645  38.044  13.617   4.278
 5550W        W64646  33.089  36.064   0.322
 5551W        W64647  31.963  28.002  11.081
 5552W        W64648   4.809  25.654   1.914
 5553W        W64649  11.746  17.590   5.567
 5554W        W64650  37.009  29.652   3.268
 5555W        W64651  35.481  33.571   1.900
 5556W        W64652  42.457  41.839  11.421
 5557W        W64653  39.892  31.500   2.877
 5558W        W64654  30.514   1.467   1.886
 5559W        W64655   7.386  35.025   5.088
 5560W        W64656  19.048  13.763   2.849
 5561W        W64657  40.976  24.622  14.878
 5562W        W64658  20.626  42.978   0.740
 5563W        W64659  31.021  25.055  12.010
 5564W        W64660  20.226  38.890   0.836
 5565W        W64661  23.033  35.377  13.402
 5566W        W64662  42.821  27.463  10.421
 5567W        W64663  22.164  12.267   0.379
 5568W        W64664   8.280  36.000   3.810
 5569W        W64665  32.433  13.216   0.742
 5570W        W64666  25.158  42.988  13.544
 5571W        W64667   9.205   6.912   2.777
 5572W        W64668  34.385  14.619   3.748
 5573W        W64669  37.914   1.841  11.549
 5574W        W64670   3.893   8.753   0.247
 5575W        W64671  26.109   6.361   1.219
 5576W        W64672   4.429  15.583  11.997
 5577W        W64673  11.187   0.305  10.945
 5578W        W64674  41.914  37.975  12.059
 5579W        W64675  27.458  32.086  14.485
 5580W        W64676  20.224  21.640  13.321
 5581W        W64677   7.326   8.201  14.301
 5582W        W64678  18.610  41.510   3.661
 5583W        W64679  32.494  34.874   3.295
 5584W        W64680  13.205  22.085  13.327
 5585W        W64681  41.471  42.485  12.006
 5586W        W64682  22.099  39.943   0.780
 5587W        W64683  27.598   2.305  12.081
 5588W        W64684  27.036  29.660  13.061
 5589W        W64685  25.489  24.981   0.800
 5590W        W64686  18.635   4.254  11.077
 5591W        W64687   5.286  13.329   1.802
 5592W        W64688  35.568   8.198   4.133
 5593W        W64689  19.705  24.138  11.113
 5594W        W64690  27.184  43.292   1.367
 5595W        W64691  31.975  11.135   1.312
 5596W        W64692  18.593  31.131   3.220
 5597W        W64693  15.190  41.377  14.900
 5598W        W64694   0.355  21.227  10.584
 5599W        W64695  12.616  37.895  14.827
 5600W        W64696   2.767  20.548   1.279
 5601W        W64697  36.977   9.818  12.863
 5602W        W64698  26.152  18.735   1.216
 5603W        W64699  25.649  38.992   0.478
 5604W        W64700  26.153  34.031  10.481
 5605W        W64701  39.421  28.459   0.924
 5606W        W64702  32.435  13.826   3.161
 5607W        W64703  16.677  39.817  10.964
 5608W        W64704  41.918   8.279  11.399
 5609W        W64705   9.795  26.134  13.809
 5610W        W64706  15.640  14.718  14.895
 5611W        W64707  17.136  26.103  12.957
 5612W        W64708  34.020   7.884  14.445
 5613W        W64709  42.357   6.692  11.485
 5614W        W64710  14.122  18.622   4.243
 5615W        W64711  21.529  37.062  14.428
 5616W        W64712  17.195  13.810  11.046
 5617W        W64713  18.612  12.627   0.257
 5618W        W64714  27.490   5.223  14.904
 5619W        W64715  23.998   3.904   3.729
 5620W        W64716  18.081  43.379  11.922
 5621W        W64717  12.349  33.467   3.864
 5622W        W64718  31.135  44.345   2.893
 5623W        W64719   4.814  23.593   2.268
 5624W        W64720  29.134   6.794   4.162
 5625W        W64721  38.035  28.459  11.580
 5626W        W64722  37.429   8.890   9.537
 5627W        W64723  35.991  33.450  11.056
 5628W        W64724   7.694  42.347   1.831
 5629W        W64725  26.152  37.336   2.210
 5630W        W64726  18.606   3.340  14.465
 5631W        W64727  30.040  25.069  11.555
 5632W        W64728  23.629   9.734  12.431
 5633W        W64729   1.417   6.772  11.462
 5634W        W64730  22.722  36.899  14.822
 5635W        W64731  39.898  17.303   0.258
 5636W        W64732  29.495  22.076   2.847
 5637W        W64733  44.921  30.452   1.731
 5638W        W64734   4.217  29.169  14.447
 5639W        W64735  22.165   3.385  14.851
 5640W        W64736   0.869  22.052  14.856
 5641W        W64737  23.012  39.822  11.923
 5642W        W64738  38.527  27.636   2.243
 5643W        W64739  30.558  20.146  13.310
 5644W        W64740  22.065   8.202  10.628
 5645W        W64741  22.602  11.736   4.185
 5646W        W64742  34.447   8.879   0.844
 5647W        W64743  24.086  33.448  14.784
 5648W        W64744  25.171   9.794   4.601
 5649W        W64745  14.640  29.612   1.322
 5650W        W64746   2.328  20.186   1.739
 5651W        W64747   1.382  42.776   0.828
 5652W        W64748  42.870   0.835   2.359
 5653W        W64749  12.174  28.621   1.849
 5654W        W64750  11.144  20.710   1.781
 5655W        W64751  18.605  12.746  12.509
 5656W        W64752  21.659  37.581  11.949
 5657W        W64753  25.996  18.603   4.638
 5658W        W64754  44.492  35.535   3.678
 5659W        W64755   3.900  28.571   3.719
 5660W        W64756  19.104  25.200  11.518
 5661W        W64757  17.678  26.180  10.433
 5662W        W64758  14.689  30.110  12.869
 5663W        W64759  39.323  21.641   1.394
 5664W        W64760  31.069  10.265  13.457
 5665W        W64761  29.075  22.643   1.344
 5666W        W64762   0.774   2.871   1.330
 5667W        W64763   1.300   9.873  12.386
 5668W        W64764   5.863  29.496   2.894
 5669W        W64765   4.343  37.548   1.882
 5670W        W64766  30.570  36.512   3.753
 5671W        W64767   8.257  43.384   2.685
 5672W        W64768  23.988  26.528  11.083
 5673W        W64769  27.154   4.897   0.868
 5674W        W64770   3.461  34.017   1.787
 5675W        W64771  34.614   9.844  12.089
 5676W        W64772  24.499   7.274  11.018
 5677W        W64773  36.917  25.566  13.460
 5678W        W64774  14.326  26.574   2.322
 5679W        W64775  40.044  38.930   4.116
 5680W        W64776  41.034  25.967  14.401
 5681W        W64777  21.576  25.542  10.474
 5682W        W64778  16.775  39.505  12.378
 5683W        W64779  42.930  14.724   4.779
 5684W        W64780  14.764  16.181   3.722
 5685W        W64781  23.663  17.210  11.454
 5686W        W64782  23.687   4.911  14.473
 5687W        W64783  43.409   8.708   3.638
 5688W        W64784  39.899   5.427  11.969
 5689W        W64785  10.179  40.484   0.283
 5690W        W64786  38.846  15.134   3.673
 5691W        W64787  39.878  44.457   4.318
 5692W        W64788  28.042  20.060  11.539
 5693W        W64789  37.964  11.280   4.784
 5694W        W64790  20.643  34.603   2.774
 5695W        W64791   4.742  16.253  10.433
 5696W        W64792  36.467  26.048   0.413
 5697W        W64793  16.081  14.100   2.888
 5698W        W64794  40.453  21.576  13.855
 5699W        W64795  33.117  22.680   4.643
 5700W        W64796  43.011   7.695   4.254
 5701W        W64797  10.159  44.915   2.364
 5702W        W64798   2.735  30.526   4.758
 5703W        W64799   0.904  27.987  10.137
 5704W        W64800  42.344  14.593   0.454
 5705W        W64801   2.789  10.875   1.442
 5706W        W64802  30.012   1.372  11.388
 5707W        W64803  22.569   1.732   1.216
 5708W        W64804   8.898  28.064   3.719
 5709W        W64805   3.764   0.331  14.420
 5710W        W64806   4.437  31.005  13.436
 5711W        W64807  19.559  40.041  13.810
 5712W        W64808  10.638   3.898  12.936
 5713W        W64809   0.918  12.176  14.356
 5714W        W64810  28.980  13.713   1.383
 5715W        W64811   9.234  34.000   0.318
 5716W        W64812  25.478  18.768  13.048
 5717W        W64813  24.536   3.319   2.326
 5718W        W64814  19.113   7.685  14.939
 5719W        W64815  29.114  37.965  11.948
 5720W        W64816   1.752  23.217  11.049
 5721W        W64817  42.031  12.734  14.350
 5722W        W64818  33.018  13.257  11.493
 5723W        W64819  17.627  34.484   0.809
 5724W        W64820  18.194  42.518   1.440
 5725W        W64821  36.562  13.307  13.926
 5726W        W64822  43.496   2.259   1.712
 5727W        W64823  22.131   6.911   4.250
 5728W        W64824  40.903  19.119  14.403
 5729W        W64825  22.021  43.934  11.420
 5730W        W64826   0.954  15.643   2.217
 5731W        W64827  34.902  30.469   5.279
 5732W        W64828  28.102  30.994  10.964
 5733W        W64829  19.052  14.683  14.785
 5734W        W64830   9.348  31.107  11.886
 5735W        W64831  23.668  15.278  10.948
 5736W        W64832  10.655  23.206   2.898
 5737W        W64833  28.439  19.766  14.031
 5738W        W64834   8.168  43.509  14.010
 5739W        W64835  27.631  32.004   4.818
 5740W        W64836  30.979   8.249   0.824
 5741W        W64837  34.461   9.663   5.208
 5742W        W64838  18.791  28.508  11.112
 5743W        W64839  42.438  25.577   4.340
 5744W        W64840   3.377  31.095  12.470
 5745W        W64841   4.414  35.881   2.416
 5746W        W64842   5.425  23.104  10.487
 5747W        W64843   8.824  25.680  12.504
 5748W        W64844   5.439  10.833   4.252
 5749W        W64845   6.224  16.582  14.983
 5750W        W64846   0.801  27.034  11.033
 5751W        W64847  30.916  26.475   3.674
 5752W        W64848  27.182  36.928  14.976
 5753W        W64849  32.935  41.528  12.085
 5754W        W64850  19.271  34.029  12.458
 5755W        W64851  27.680  28.033  12.991
 5756W        W64852  13.771  38.356   1.430
 5757W        W64853   4.908  26.071  12.068
 5758W        W64854  35.585  12.699  14.883
 5759W        W64855  26.639  31.939  10.423
 5760W        W64856  31.918  11.230  14.760
 5761W        W64857   1.922  17.165  14.314
 5762W        W64858  23.097  24.163   3.768
 5763W        W64859  29.457   5.370  11.117
 5764W        W64860  18.056  37.392  12.874
 5765W        W64861  30.525  43.501   4.619
 5766W        W64862  30.614   9.373   2.254
 5767W        W64863  38.332  31.917   0.867
 5768W        W64864   9.288  31.105   1.856
 5769W        W64865  11.133  19.130  11.377
 5770W        W64866  21.158  33.036   1.803
 5771W        W64867   4.704  38.077   1.780
 5772W        W64868  26.200  19.145   3.216
 5773W        W64869  26.053   8.185   3.194
 5774W        W64870  26.114   5.790   0.463
 5775W        W64871   1.961  37.425   2.743
 5776W        W64872  12.794   6.838   0.327
 5777W        W64873   6.305   5.426  13.025
 5778W        W64874  19.722   1.832   0.787
 5779W        W64875  26.493  29.509   4.329
 5780W        W64876   8.686  38.899  11.510
 5781W        W64877  42.886   4.942   1.238
 5782W        W64878   5.787  18.645   4.693
 5783W        W64879  37.922   4.447   0.964
 5784W        W64880  32.446   2.237   4.215
 5785W        W64881  10.713  32.105   3.826
 5786W        W64882  37.991  40.530  14.013
 5787W        W64883  26.474  24.173  14.820
 5788W        W64884  20.601  39.991   4.206
 5789W        W64885   2.370  24.683   2.796
 5790W        W64886  42.338  42.418   4.788
 5791W        W64887   2.337  34.408  10.027
 5792W        W64888  30.419  26.048  13.838
 5793W        W64889  32.438  18.666   0.744
 5794W        W64890  32.477   9.197   2.833
 5795W        W64891  12.685  37.508  13.978
 5796W        W64892  43.887  38.367   0.814
 5797W        W64893  29.957  33.087  11.531
 5798W        W64894  35.416   3.230  12.855
 5799W        W64895  22.512  11.766  12.451
 5800W        W64896  29.431  14.337  12.432
 5801W        W64897   3.866  16.586  10.465
 5802W        W64898  30.532  19.212  10.603
 5803W        W64899  36.852  37.833  12.096
 5804W        W64900   1.881   7.668  14.970
 5805W        W64901  38.952  16.736   2.224
 5806W        W64902  43.781  22.180   1.400
 5807W        W64903  43.323  13.791   4.178
 5808W        W64904  34.592  21.595  14.927
 5809W        W64905   2.809   5.309   1.235
 5810W        W64906   4.241   6.356  10.609
 5811W        W64907  36.931  36.933  13.957
 5812W        W64908   0.926   6.413  11.038
 5813W        W64909  32.396  15.660   5.200
 5814W        W64910  37.004   1.421  11.448
 5815W        W64911  17.795  31.528  12.892
 5816W        W64912  11.825  19.210  11.562
 5817W        W64913  42.345  36.865  14.950
 5818W        W64914  15.173  34.053   4.242
 5819W        W64915   7.399  22.160   3.871
 5820W        W64916  19.545  24.208   1.300
 5821W        W64917  23.071  29.087  14.433
 5822W        W64918  34.055   0.281  13.537
 5823W        W64919  29.009   5.719  13.363
 5824W        W64920  12.724  19.718  13.871
 5825W        W64921  35.915  34.965  12.538
 5826W        W64922   4.730  14.701  12.365
 5827W        W64923  26.070  20.182  10.051
 5828W        W64924  13.742  18.079  13.405
 5829W        W64925  15.725  36.421  13.856
 5830W        W64926  18.567  35.058  14.330
 5831W        W64927  44.433  37.509   2.290
 5832W        W64928  12.814  40.005   2.247
 5833W        W64929  27.070  11.242   4.831
 5834W        W64930  21.736  37.004  11.911
 5835W        W64931  15.664   0.372   1.215
 5836W        W64932  41.445  10.762   0.793
 5837W        W64933   1.884  34.049  14.329
 5838W        W64934  16.281  10.383   3.200
 5839W        W64935  24.995   5.713  12.419
 5840W        W64936  42.811   1.912   1.894
 5841W        W64937   5.915   1.341  12.855
 5842W        W64938  42.479  40.479   1.757
 5843W        W64939   0.860   8.795   5.202
 5844W        W64940   1.783   1.296   0.305
 5845W        W64941  21.632  39.321   9.458
 5846W        W64942   1.478  28.679  11.058
 5847W        W64943  19.717  34.532   0.287
 5848W        W64944  11.186   9.237  13.524
 5849W        W64945  20.202  33.578  13.054
 5850W        W64946  33.524  44.371   3.292
 5851W        W64947  30.123   2.943  10.537
 5852W        W64948   4.740  13.617   4.261
 5853W        W64949  25.116  10.837   0.414
 5854W        W64950  27.156  15.740  11.955
 5855W        W64951   4.230  23.710   2.880
 5856W        W64952  20.184   0.860   1.326
 5857W        W64953  20.180  15.087   4.720
 5858W        W64954  20.627  11.804  13.866
 5859W        W64955  14.775  39.003   0.863
 5860W        W64956  42.809  40.517   3.261
 5861W        W64957  25.015  14.199   1.345
 5862W        W64958  16.085  24.222  11.888
 5863W        W64959  19.059   7.306  11.413
 5864W        W64960   9.324  38.379   0.385
 5865W        W64961  36.916  13.828   1.449
 5866W        W64962  33.596  42.500  13.015
 5867W        W64963   0.423  40.454   3.181
 5868W        W64964  19.212  11.338   1.440
 5869W        W64965  15.803   3.415  12.430
 5870W        W64966  19.081  38.849  12.008
 5871W        W64967  19.754  41.865  12.580
 5872W        W64968  41.464   2.887  14.892
 5873W        W64969  38.490  15.083   0.452
 5874W        W64970  20.695  35.081   3.755
 5875W        W64971  34.503  25.023   3.310
 5876W        W64972  20.033   7.240   2.819
 5877W        W64973  43.786  27.025   0.830
 5878W        W64974  10.303   0.352   3.347
 5879W        W64975  16.703  24.034  14.799
 5880W        W64976  30.566   2.821  12.489
 5881W        W64977  27.453  41.515   0.280
 5882W        W64978  16.256  20.060  14.930
 5883W        W64979  26.093  44.862  11.859
 5884W        W64980  21.660  16.160   3.347
 5885W        W64981  37.460  15.646   2.359
 5886W        W64982  28.579  28.027   2.803
 5887W        W64983  33.583  39.317   4.828
 5888W        W64984  35.930  30.562  10.989
 5889W        W64985   3.776  16.085  13.872
 5890W        W64986  22.565  14.744   3.238
 5891W        W64987  18.684  24.988   2.271
 5892W        W64988  11.708  15.234  12.996
 5893W        W64989   1.803   9.667   4.240
 5894W        W64990  11.672  13.708   2.745
 5895W        W64991   3.283  25.682  13.834
 5896W        W64992  18.178  22.715   2.240
 5897W        W64993   9.658  32.135  10.432
 5898W        W64994  36.029  39.954   1.242
 5899W        W64995  33.397  26.624  11.882
 5900W        W64996   8.402  22.678   4.786
 5901W        W64997  17.126   0.989   3.698
 5902W        W64998   3.709   1.784   3.311
 5903W        W64999   6.414  20.682  13.054
 5904W        W65000  44.799  34.396   3.710
 5905W        W65001  22.029  38.911  11.904
 5906W        W65002  19.130  33.947  12.885
 5907W        W65003  15.654  13.121  13.020
 5908W        W65004  24.046  18.214  12.915
 5909W        W65005  35.584  33.579  14.438
 5910W        W65006  20.746  33.920   1.925
 5911W        W65007  42.945  41.451   1.761
 5912W        W65008   0.381   2.427  12.494
 5913W        W65009  29.979  18.161   1.758
 5914W        W65010  32.967   7.390   1.282
 5915W        W65011  20.729  38.454  14.969
 5916W        W65012   3.450  22.616  14.002
 5917W        W65013  43.867  21.258   0.461
 5918W        W65014  26.125  39.391   1.787
 5919W        W65015  10.328  15.137  12.961
 5920W        W65016  22.060  29.105  13.921
 5921W        W65017  37.573  21.579  11.564
 5922W        W65018  42.957  23.586   1.324
 5923W        W65019  29.640  34.871  14.855
 5924W        W65020  11.781  41.990   3.322
 5925W        W65021  21.156  26.069  12.938
 5926W        W65022  36.921   2.287   3.242
 5927W        W65023  41.994  20.556  12.828
 5928W        W65024  43.896  12.848   1.837
 5929W        W65025   2.966  30.069  13.027
 5930W        W65026  33.876   3.807   1.328
 5931W        W65027  16.630   1.754   3.820
 5932W        W65028  38.346  14.607   4.189
 5933W        W65029  37.866  28.977  10.640
 5934W        W65030   4.761  11.349  10.616
 5935W        W65031  42.828  43.350   1.706
 5936W        W65032  14.293  32.431   4.628
 5937W        W65033  36.485  30.035   4.304
 5938W        W65034   5.934  32.955  14.762
 5939W        W65035  10.754  21.169   1.254
 5940W        W65036  13.134  42.936   5.164
 5941W        W65037  28.181  17.724   0.805
 5942W        W65038  40.524  39.979   2.804
 5943W        W65039   4.914  30.537   1.232
 5944W        W65040  37.442  32.923   0.965
 5945W        W65041   8.399   8.377  14.459
 5946W        W65042   5.323   9.275   4.309
 5947W        W65043   6.417  25.974   3.146
 5948W        W65044  13.256  15.760   2.760
 5949W        W65045   7.249  35.044  14.292
 5950W        W65046  41.302  28.674   0.802
 5951W        W65047   5.808  25.600   3.311
 5952W        W65048  39.859  35.524   3.837
 5953W        W65049  18.258  24.483   0.793
 5954W        W65050  37.365   2.302   4.221
 5955W        W65051  11.750  24.202   3.687
 5956W        W65052   4.444  44.766  11.994
 5957W        W65053  13.692  21.734  11.470
 5958W        W65054   1.797  42.520   1.930
 5959W        W65055  23.601  35.860   4.805
 5960W        W65056  30.450  26.501   1.331
 5961W        W65057  19.624  27.139   4.648
 5962W        W65058  25.005  21.060   0.832
 5963W        W65059  15.261   1.266  11.911
 5964W        W65060  27.039  15.245  13.056
 5965W        W65061   3.767   0.265  11.115
 5966W        W65062  28.953  11.322   3.306
 5967W        W65063  13.721  19.765   3.202
 5968W        W65064  13.128  23.619   2.715
 5969W        W65065  14.720  38.029  14.948
 5970W        W65066   9.225  13.812   0.816
 5971W        W65067  34.496  36.387   0.369
 5972W        W65068  21.572  15.121  10.992
 5973W        W65069  25.509  38.040   2.397
 5974W        W65070   2.396  27.578  12.010
 5975W        W65071  42.016  29.652   4.730
 5976W        W65072  21.629  28.043  13.518
 5977W        W65073   4.941  37.905   3.289
 5978W        W65074  31.919  24.683  13.807
 5979W        W65075  11.632  12.142  13.538
 5980W        W65076  32.109  31.104  11.919
 5981W        W65077   6.201  14.707  10.059
 5982W        W65078  28.630  39.005   3.772
 5983W        W65079  40.477  14.678   2.830
 5984W        W65080  36.900  33.482  12.543
 5985W        W65081  11.840   3.710   1.255
 5986W        W65082   8.183   3.879  12.434
 5987W        W65083  43.847   9.647   4.823
 5988W        W65084  33.067  19.069   1.254
 5989W        W65085   1.311  29.659   4.817
 5990W        W65086  23.214   0.379   0.423
 5991W        W65087  38.332   2.299   4.263
 5992W        W65088  17.148   3.259  13.917
 5993W        W65089  17.785  44.488  11.998
 5994W        W65090  24.543   2.415   0.429
 5995W        W65091   2.905  19.235   3.151
 5996W        W65092  18.577  14.326   1.404
 5997W        W65093  30.107  30.060   2.865
 5998W        W65094  17.276  26.466  11.549
 5999W        W65095   0.803  35.563  10.449
 6000W        W65096  32.088  40.544  13.940
 6001W        W65097  20.725  23.570  11.884
 6002W        W65098   5.828  38.474  11.935
 6003W        W65099  33.515  36.405   2.193
 6004W        W65100  19.619   1.890   4.661
 6005W        W65101  31.041  27.958   3.308
 6006W        W65102  43.967  28.983   4.146
 6007W        W65103  29.164   3.751  11.071
 6008W        W65104   9.156  18.247   0.822
 6009W        W65105   1.854   2.434  11.908
 6010W        W65106  32.035   1.881  10.012
 6011W        W65107  40.864   8.215   2.881
 6012W        W65108  18.787  13.828   0.785
 6013W        W65109   6.297  42.815   3.184
 6014W        W65110  34.067  38.863  10.111
 6015W        W65111   6.238   5.389  11.545
 6016W        W65112   1.746  40.846   4.123
 6017W        W65113  13.176  24.501  11.555
 6018W        W65114  21.152  39.947  12.023
 6019W        W65115  33.125  21.558   5.280
 6020W        W65116  13.318  22.693  14.470
 6021W        W65117  34.549  38.329  13.402
 6022W        W65118  33.504  14.775  13.483
 6023W        W65119   8.882   6.814  10.418
 6024W        W65120  34.613  23.116   0.873
 6025W        W65121  44.843  12.235   1.400
 6026W        W65122  14.150  10.277  11.103
 6027W        W65123  30.093  15.772   2.835
 6028W        W65124  10.238   6.836  10.978
 6029W        W65125  23.084  32.434  11.976
 6030W        W65126  34.998   8.355  12.379
 6031W        W65127  26.673  16.634   1.360
 6032W        W65128   9.213   0.381  10.922
 6033W        W65129   2.810  39.899  10.457
 6034W        W65130   2.302  14.262  14.516
 6035W        W65131  27.676  31.629  12.892
 6036W        W65132  40.978  34.940  12.506
 6037W        W65133  10.242  21.729  11.952
 6038W        W65134  27.619   0.748   2.196
 6039W        W65135  25.651  16.132   1.300
 6040W        W65136  38.508   3.824  14.759
 6041W        W65137  13.291  18.070  14.924
 6042W        W65138  22.705  21.537  13.009
 6043W        W65139  35.457  14.325   0.918
 6044W        W65140  16.713  26.961  14.363
 6045W        W65141  28.472  28.945   3.311
 6046W        W65142  34.097  28.446  11.912
 6047W        W65143  32.535   7.772  13.411
 6048W        W65144  38.825  30.966   4.247
 6049W        W65145   4.793  27.952  14.966
 6050W        W65146  20.100  44.836  13.440
 6051W        W65147  18.158  14.781  11.870
 6052W        W65148   7.912  36.044   0.964
 6053W        W65149  26.085  42.318  12.003
 6054W        W65150  20.536  16.753  11.032
 6055W        W65151  21.254  29.980   1.838
 6056W        W65152  20.032  17.626  10.942
 6057W        W65153  24.647   1.858   1.880
 6058W        W65154  21.218  41.982   0.346
 6059W        W65155   4.699  18.765  12.489
 6060W        W65156  32.593  31.462  11.890
 6061W        W65157  25.059   8.192  13.415
 6062W        W65158  29.655  44.417  11.966
 6063W        W65159  34.087  25.065   2.229
 6064W        W65160   4.269  41.453  12.863
 6065W        W65161  43.426  10.656  14.489
 6066W        W65162   7.406  40.870  11.908
 6067W        W65163  22.213  33.942   2.851
 6068W        W65164  29.009   8.668   0.886
 6069W        W65165  14.630  29.143   1.424
 6070W        W65166  21.138  40.513  13.976
 6071W        W65167  17.650  24.085  14.433
 6072W        W65168  32.570  40.526  14.871
 6073W        W65169  12.222  34.581  12.981
 6074W        W65170  29.535  40.870  13.345
 6075W        W65171  26.669  40.843  14.821
 6076W        W65172  40.922  21.063   4.636
 6077W        W65173   2.961  17.626  10.924
 6078W        W65174  27.636  36.996   1.323
 6079W        W65175  35.891  40.983   1.323
 6080W        W65176  27.646  40.372   4.680
 6081W        W65177  15.124  22.243  13.526
 6082W        W65178  42.453  43.298  12.060
 6083W        W65179  38.465  29.423  14.293
 6084W        W65180  26.544  31.002   4.759
 6085W        W65181  30.646   4.298  11.874
 6086W        W65182  43.849  33.557  14.955
 6087W        W65183  42.485   8.824  14.336
 6088W        W65184  40.524  17.695  12.985
 6089W        W65185  30.638  19.176  11.554
 6090W        W65186  23.030  39.362  13.858
 6091W        W65187   9.880  36.898  10.528
 6092W        W65188   3.822  24.998   1.352
 6093W        W65189  23.128  17.632  13.918
 6094W        W65190   0.459  27.619   0.331
 6095W        W65191  38.455  37.457   1.394
 6096W        W65192  19.102  20.583   0.851
 6097W        W65193   9.656  35.599  13.823
 6098W        W65194  13.128   3.429  11.036
 6099W        W65195  41.999  40.890  14.471
 6100W        W65196  21.168  20.042  10.020
 6101W        W65197  24.494  39.493   2.295
 6102W        W65198  14.642  24.039   2.852
 6103W        W65199  12.738   9.776  11.073
 6104W        W65200  40.839  23.601  11.414
 6105W        W65201  17.592  19.101   0.803
 6106W        W65202  25.635  38.493  13.980
 6107W        W65203  44.784  44.900   3.703
 6108W        W65204  17.754  43.342   3.696
 6109W        W65205  12.165  32.889   3.868
 6110W        W65206  21.740  23.623   1.775
 6111W        W65207  19.733  30.019   1.909
 6112W        W65208  34.390  24.227  12.568
 6113W        W65209  23.565  18.181  11.418
 6114W        W65210   9.150  10.778   0.368
 6115W        W65211  43.904  13.222  10.893
 6116W        W65212   5.317  31.058   3.698
 6117W        W65213   1.823  25.013   0.318
 6118W        W65214  43.925  40.830  10.532
 6119W        W65215  42.776  29.045  13.908
 6120W        W65216  44.951  25.683   1.830
 6121W        W65217  16.623  22.618   1.694
 6122W        W65218  44.427  36.539  10.456
 6123W        W65219  33.889  20.678  14.294
 6124W        W65220  33.444  30.083   3.802
 6125W        W65221  26.676  29.658  14.454
 6126W        W65222  29.140  11.778   0.877
 6127W        W65223   1.470   1.752  13.432
 6128W        W65224  22.508   6.392   9.952
 6129W        W65225   0.942  26.498   4.165
 6130W        W65226   0.337  44.379  14.817
 6131W        W65227  35.950  33.066  13.049
 6132W        W65228  33.913  37.991  14.303
 6133W        W65229  19.159  30.591   2.383
 6134W        W65230   0.403  33.526  14.931
 6135W        W65231  42.892   5.838   2.687
 6136W        W65232   6.863  33.926   2.896
 6137W        W65233  30.110   2.964   0.815
 6138W        W65234  29.634  14.617  14.029
 6139W        W65235  37.862  13.240   4.218
 6140W        W65236  19.195  32.139   3.352
 6141W        W65237  40.455  25.212  13.791
 6142W        W65238  36.870  24.117   5.240
 6143W        W65239  34.597  18.637  14.810
 6144W        W65240  40.377  26.191  12.000
 6145W        W65241  34.973  15.318   3.249
 6146W        W65242  31.521   1.943  14.459
 6147W        W65243   0.758  38.922   4.283
 6148W        W65244   7.781  27.512  11.492
 6149W        W65245  31.550  41.365  13.423
 6150W        W65246  12.164   5.394   3.636
 6151W        W65247  14.169  44.348  11.550
 6152W        W65248   8.686  38.983   4.724
 6153W        W65249   8.199  31.902   0.755
 6154W        W65250   3.928  12.626  12.465
 6155W        W65251  30.089  31.580   2.835
 6156W        W65252  19.048  38.009   3.268
 6157W        W65253  21.185  17.566  11.372
 6158W        W65254  32.035  34.501   0.732
 6159W        W65255   1.820  31.493   3.660
 6160W        W65256  38.922   6.822   2.786
 6161W        W65257  27.081  31.514  12.437
 6162W        W65258  10.142  12.713  10.414
 6163W        W65259  17.681  28.529   1.451
 6164W        W65260   5.884   6.232  11.076
 6165W        W65261  42.380  19.702  10.936
 6166W        W65262   0.336  14.248  12.509
 6167W        W65263  22.052  35.436  11.865
 6168W        W65264  21.141  23.999   4.209
 6169W        W65265  39.452   8.732   3.730
 6170W        W65266   9.683  23.085   1.404
 6171W        W65267  44.905  30.907  13.469
 6172W        W65268  18.785  39.347  14.807
 6173W        W65269   0.959  28.667   4.610
 6174W        W65270   5.217  20.611  13.316
 6175W        W65271  28.608  30.636  13.436
 6176W        W65272   0.365  34.440   4.834
 6177W        W65273  39.809  18.197  13.951
 6178W        W65274  34.927  33.070   4.771
 6179W        W65275   6.232  39.054  12.982
 6180W        W65276  26.599   4.782  14.779
 6181W        W65277  42.851  21.633  13.893
 6182W        W65278  18.261  11.331  10.898
 6183W        W65279  34.038  35.518   0.747
 6184W        W65280  21.088  37.577   2.329
 6185W        W65281  15.590   9.308   1.780
 6186W        W65282   1.911   8.869   0.951
 6187W        W65283   2.235  14.809   2.283
 6188W        W65284  33.067  12.251  12.339
 6189W        W65285  17.766  11.776   0.281
 6190W        W65286  23.527  39.428   1.849
 6191W        W65287  15.725  42.886   2.344
 6192W        W65288   4.376  29.988  12.985
 6193W        W65289  40.530  38.538   1.300
 6194W        W65290   7.737  17.182   2.337
 6195W        W65291  21.530  41.341   2.748
 6196W        W65292  23.053  37.491  12.358
 6197W        W65293  27.052  16.802   4.744
 6198W        W65294  32.118  44.382  11.467
 6199W        W65295  35.014   7.243   1.796
 6200W        W65296  28.632  43.797  12.418
 6201W        W65297   1.821  11.172   3.229
 6202W        W65298  17.236  29.956   2.344
 6203W        W65299  43.447  38.452   2.837
 6204W        W65300  12.340  43.899  13.880
 6205W        W65301  30.146  23.604   4.600
 6206W        W65302   1.413  16.230  11.557
 6207W        W65303  43.500   9.221  10.977
 6208W        W65304  41.412  40.472   3.220
 6209W        W65305  40.472  21.654   1.811
 6210W        W65306  33.115  44.944  11.490
 6211W        W65307   6.918  39.316   1.238
 6212W        W65308  14.136  17.758  11.462
 6213W        W65309  14.600  34.613  12.884
 6214W        W65310  44.756  25.690  10.493
 6215W        W65311  30.625  12.652   4.154
 6216W        W65312  23.110  38.515   1.282
 6217W        W65313  23.021   8.885  12.435
 6218W        W65314  11.288   5.906   2.681
 6219W        W65315  25.486   7.330  10.473
 6220W        W65316  17.169  13.769   2.878
 6221W        W65317   9.312  41.034   3.317
 6222W        W65318  26.509  39.544   1.290
 6223W        W65319  17.188   6.327   4.834
 6224W        W65320  26.156   8.304  12.864
 6225W        W65321  24.992  21.029  10.573
 6226W        W65322   1.861  28.995   4.819
 6227W        W65323   9.223  33.496  14.432
 6228W        W65324  29.500  30.439  13.485
 6229W        W65325  18.592  18.102   4.293
 6230W        W65326  25.534  38.867   9.984
 6231W        W65327  25.104  17.132  11.475
 6232W        W65328   3.868  31.630   2.773
 6233W        W65329  16.294   8.194   4.638
 6234W        W65330   0.972  41.915  12.900
 6235W        W65331   7.315  18.589   4.834
 6236W        W65332  17.243  23.988   3.159
 6237W        W65333   6.192  37.978  13.939
 6238W        W65334  29.469   6.235  14.502
 6239W        W65335  24.995  28.626   1.385
 6240W        W65336   6.305  10.365   2.781
 6241W        W65337  18.212   8.696   2.796
 6242W        W65338  38.485  19.096  14.284
 6243W        W65339  20.088  42.439  13.903
 6244W        W65340   0.284  35.856   4.741
 6245W        W65341  11.712  17.586   4.260
 6246W        W65342  15.654  20.708   2.192
 6247W        W65343  26.110   1.833   4.822
 6248W        W65344  27.488  12.149   1.366
 6249W        W65345  20.583  21.610  12.466
 6250W        W65346   6.211  30.044  11.863
 6251W        W65347  24.188   0.462  14.936
 6252W        W65348  21.540   2.789   3.704
 6253W        W65349  24.048  26.687   3.265
 6254W        W65350   4.320   4.939   0.854
 6255W        W65351  22.678  33.883  10.454
 6256W        W65352  34.887  24.625   9.545
 6257W        W65353   8.779  14.819   0.334
 6258W        W65354  28.156   9.859  10.993
 6259W        W65355  44.490  39.421   2.887
 6260W        W65356  21.568   2.273  14.307
 6261W        W65357  39.041  39.327   2.411
 6262W        W65358  11.652   0.387  11.026
 6263W        W65359  17.289  32.900   0.753
 6264W        W65360  34.582  31.529   1.414
 6265W        W65361  42.969  10.268   4.222
 6266W        W65362  24.051  34.994   9.580
 6267W        W65363  35.902   7.786  13.483
 6268W        W65364   4.713  25.712   2.762
 6269W        W65365  25.211  23.100   0.910
 6270W        W65366  29.087  19.768   1.797
 6271W        W65367  27.964  29.641   5.173
 6272W        W65368  27.024  22.671   2.829
 6273W        W65369  27.069  25.564   1.314
 6274W        W65370  17.584  20.699   0.280
 6275W        W65371  39.537  42.799   0.413
 6276W        W65372  10.695  10.337   0.283
 6277W        W65373  27.005  27.003   3.161
 6278W        W65374  35.995  30.924   1.232
 6279W        W65375  20.070  15.147  12.003
 6280W        W65376  22.575  32.089   3.822
 6281W        W65377  30.071  31.507  13.054
 6282W        W65378  43.954  24.200   4.344
 6283W        W65379  12.641  32.467   4.114
 6284W        W65380  39.836  40.997  11.424
 6285W        W65381  26.561   3.421   9.941
 6286W        W65382  35.593  26.057   4.210
 6287W        W65383  26.487  24.988  12.925
 6288W        W65384  13.604  26.191  10.062
 6289W        W65385  43.361   7.888   4.180
 6290W        W65386  34.525  39.014   4.282
 6291W        W65387  35.979  23.733  10.895
 6292W        W65388  23.707  30.049   1.391
 6293W        W65389  35.930  21.165   0.821
 6294W        W65390   8.707  20.578  11.466
 6295W        W65391  30.448  37.338   0.305
 6296W        W65392   2.726   3.942  14.441
 6297W        W65393  15.094   1.278   4.780
 6298W        W65394  15.138  12.276  11.439
 6299W        W65395  33.578  22.054  12.349
 6300W        W65396  24.164  36.489  11.990
 6301W        W65397  36.860  15.790   3.637
 6302W        W65398  36.903  31.429   1.840
 6303W        W65399  31.984  29.116  11.493
 6304W        W65400  37.554  27.160  11.018
 6305W        W65401  38.441  23.180   1.697
 6306W        W65402  31.474  23.176  11.997
 6307W        W65403  43.345   6.795  11.391
 6308W        W65404  29.076   6.354  11.464
 6309W        W65405   5.397  38.402  11.860
 6310W        W65406  41.009   5.425   4.354
 6311W        W65407   0.480  35.058   3.818
 6312W        W65408  14.327  33.959  14.818
 6313W        W65409  39.903  28.159  12.538
 6314W        W65410  41.862  16.688   0.257
 6315W        W65411  40.002  21.525  10.901
 6316W        W65412  35.862   8.673   4.345
 6317W        W65413  34.419   0.405  10.622
 6318W        W65414  41.926   0.494   2.861
 6319W        W65415  29.158  13.710  13.489
 6320W        W65416  43.512  29.054  14.297
 6321W        W65417  44.849  14.648  10.980
 6322W        W65418  11.323  27.195   3.193
 6323W        W65419  21.676  10.305  12.974
 6324W        W65420  11.349  27.112   4.173
 6325W        W65421  44.773   0.868   2.863
 6326W        W65422  37.889  34.514   4.286
 6327W        W65423  30.135  17.257  11.429
 6328W        W65424  29.944   7.863   4.606
 6329W        W65425  34.059  15.154  14.887
 6330W        W65426  30.110  27.070  13.975
 6331W        W65427  35.425  44.301   3.272
 6332W        W65428  11.855  43.327   0.939
 6333W        W65429  10.158  34.483  13.312
 6334W        W65430   7.666  22.527  12.823
 6335W        W65431  36.916  20.682   2.383
 6336W        W65432   6.207  32.542   0.955
 6337W        W65433   5.707  39.479  11.549
 6338W        W65434  41.532  44.443  12.941
 6339W        W65435  37.474  21.258   3.234
 6340W        W65436  29.607  34.876  13.356
 6341W        W65437  16.692  14.305  10.957
 6342W        W65438  44.972  30.999  12.354
 6343W        W65439  38.383  26.007  12.489
 6344W        W65440  44.265  30.526  11.925
 6345W        W65441  37.547   6.831   3.746
 6346W        W65442  37.350  32.483   4.759
 6347W        W65443   8.276  29.935   1.389
 6348W        W65444   1.351   7.363  13.413
 6349W        W65445  34.954  16.127  14.907
 6350W        W65446   1.329   0.322  12.056
 6351W        W65447   3.221  15.677  11.508
 6352W        W65448  31.997  20.090  10.999
 6353W        W65449   1.427  23.990   0.741
 6354W        W65450  28.074  38.491   4.625
 6355W        W65451  41.986  29.542   0.787
 6356W        W65452  42.828  14.686   0.780
 6357W        W65453  21.614  18.052  14.470
 6358W        W65454  23.222  28.454  13.897
 6359W        W65455  39.333  43.912   4.188
 6360W        W65456  14.139  27.130   2.321
 6361W        W65457  10.746   2.314   4.661
 6362W        W65458   4.347  44.278   1.714
 6363W        W65459  28.618  14.818   0.897
 6364W        W65460  42.888  44.427  12.856
 6365W        W65461  25.613   1.927  13.890
 6366W        W65462   4.235   9.255   2.787
 6367W        W65463   2.405   8.819  13.424
 6368W        W65464   4.250  21.619   4.337
 6369W        W65465  35.900  13.802   2.751
 6370W        W65466  36.881  31.572  14.323
 6371W        W65467  41.516  19.075   2.406
 6372W        W65468  16.225   1.352   3.170
 6373W        W65469  26.107   8.751  14.958
 6374W        W65470   8.698  12.237   3.336
 6375W        W65471  27.008  38.919  13.365
 6376W        W65472   5.826   9.663   1.711
 6377W        W65473   4.446  21.058   3.811
 6378W        W65474  28.953  20.746   9.549
 6379W        W65475  28.624  21.582  10.535
 6380W        W65476  15.581  38.050   4.229
 6381W        W65477  30.120  25.560   2.213
 6382W        W65478  13.111  43.931  10.989
 6383W        W65479   0.420  37.381  12.045
 6384W        W65480  18.109  36.968  10.440
 6385W        W65481  32.590   2.951   4.712
 6386W        W65482  23.539  27.678   4.838
 6387W        W65483  25.114  28.522   3.236
 6388W        W65484  16.156  11.273  14.455
 6389W        W65485  44.340  39.546  13.421
 6390W        W65486  40.375   8.349   9.477
 6391W        W65487  39.360  20.063  13.337
 6392W        W65488  11.350  35.546  10.453
 6393W        W65489  15.674   8.784   2.668
 6394W        W65490   5.222  35.375  13.425
 6395W        W65491  12.131  23.153  11.900
 6396W        W65492  10.351  27.476  13.525
 6397W        W65493  30.020   5.364  12.075
 6398W        W65494  29.051  21.144  11.943
 6399W        W65495  21.719   7.375  14.835
 6400W        W65496   1.248   9.679  13.004
 6401W        W65497   0.774  36.023  10.066
 6402W        W65498  32.023  20.182   0.267
 6403W        W65499  18.546  41.492   4.226
 6404W        W65500  43.914   3.295  12.413
 6405W        W65501  44.355  39.418   1.776
 6406W        W65502  13.225  40.846  10.456
 6407W        W65503  33.060  38.065   4.321
 6408W        W65504  42.451  35.922  13.515
 6409W        W65505  39.383  12.718   3.725
 6410W        W65506  25.978  38.826   1.932
 6411W        W65507  33.471   4.233  11.470
 6412W        W65508   4.416   3.442  12.023
 6413W        W65509  43.450  31.924  14.289
 6414W        W65510  36.522  36.974   1.817
 6415W        W65511  14.175  25.707  11.891
 6416W        W65512  17.580   8.787   1.876
 6417W        W65513  38.965  24.028  14.017
 6418W        W65514  11.814  29.557   0.395
 6419W        W65515  30.501   9.765  12.573
 6420W        W65516  20.624  38.965  10.501
 6421W        W65517  30.965   5.869   1.288
 6422W        W65518  24.558  25.021   0.782
 6423W        W65519  33.582  10.141  11.904
 6424W        W65520  25.493  31.440  13.835
 6425W        W65521  42.479   3.893   3.776
 6426W        W65522  16.198  33.591  13.353
 6427W        W65523  44.308  28.523  14.809
 6428W        W65524  42.895  37.388   1.249
 6429W        W65525  21.751   5.855  14.299
 6430W        W65526  11.762   4.212  12.973
 6431W        W65527  24.040  38.052   4.691
 6432W        W65528  20.142  35.461   0.771
 6433W        W65529   4.343  13.840  14.018
 6434W        W65530  21.033  33.966   3.843
 6435W        W65531  32.549   1.854  14.329
 6436W        W65532  37.894  22.247   3.724
 6437W        W65533  17.584  33.069  13.966
 6438W        W65534  35.945  21.684  14.285
 6439W        W65535  21.175  11.300  13.880
 6440W        W65536   0.927  35.877  12.423
 6441W        W65537   3.336   0.470  11.906
 6442W        W65538  30.005  11.685  14.973
 6443W        W65539   3.431   4.370   4.241
 6444W        W65540  34.476  14.109   4.156
 6445W        W65541  26.457  10.348  12.054
 6446W        W65542   8.717  36.414   3.342
 6447W        W65543   9.375  18.078  14.012
 6448W        W65544  29.586  44.899   2.336
 6449W        W65545  44.835   1.814   3.342
 6450W        W65546   0.493  27.012   0.916
 6451W        W65547   2.431  26.173  14.379
 6452W        W65548  29.086   2.811   0.783
 6453W        W65549   7.808  19.077  12.058
 6454W        W65550  43.923   6.860   3.768
 6455W        W65551  17.794  42.922  13.404
 6456W        W65552  20.619  44.505   4.127
 6457W        W65553   1.242  19.257   4.276
 6458W        W65554  11.243   0.977  12.375
 6459W        W65555  16.698  31.060   1.289
 6460W        W65556  19.534  35.466   2.666
 6461W        W65557  23.186  36.076  10.935
 6462W        W65558   6.214  13.810  13.526
 6463W        W65559  33.429  27.525  14.319
 6464W        W65560  31.074  30.107  11.437
 6465W        W65561   6.906  16.642  10.489
 6466W        W65562   9.371  24.974   5.255
 6467W        W65563  37.010   8.769   1.214
 6468W        W65564  28.576  40.320   4.797
 6469W        W65565  31.087   8.881  14.832
 6470W        W65566  42.904   4.300   0.905
 6471W        W65567  10.698  12.658   1.424
 6472W        W65568  40.416  38.922  12.007
 6473W        W65569  11.200  12.743  13.063
 6474W        W65570   8.382  36.394   0.835
 6475W        W65571   0.808  14.299  11.026
 6476W        W65572  31.911  16.804  13.471
 6477W        W65573   4.278  20.628   3.296
 6478W        W65574  28.974   5.717   1.381
 6479W        W65575  31.002  23.699   2.800
 6480W        W65576  34.515  28.627  11.432
 6481W        W65577  34.010  42.526  11.986
 6482W        W65578  17.248  10.358   4.181
 6483W        W65579  32.105  20.142   1.751
 6484W        W65580   8.756  19.671  13.031
 6485W        W65581  31.076   3.895   4.743
 6486W        W65582  27.987  37.497  14.403
 6487W        W65583   0.336  15.146   4.316
 6488W        W65584  18.220  15.304   0.785
 6489W        W65585  21.550  15.755  12.556
 6490W        W65586  28.567  39.928   0.900
 6491W        W65587  38.423  25.197  12.537
 6492W        W65588   0.981  11.152   3.307
 6493W        W65589  32.493  30.056  14.946
 6494W        W65590  18.214  34.533   3.777
 6495W        W65591  23.228  13.127  11.879
 6496W        W65592  28.983  24.559   3.848
 6497W        W65593  10.212  12.323  13.319
 6498W        W65594  35.467  32.064   4.605
 6499W        W65595  34.520  39.822  13.336
 6500W        W65596   9.832  37.923  14.936
 6501W        W65597  43.808   2.851   1.353
 6502W        W65598   9.763  21.519   1.897
 6503W        W65599   1.754  36.907   4.326
 6504W        W65600  43.916  11.633   0.267
 6505W        W65601  22.714  34.537  10.530
 6506W        W65602  41.847   2.771   2.777
 6507W        W65603  13.189  33.055  14.776
 6508W        W65604  42.913   6.677  11.080
 6509W        W65605  38.981  34.540   4.702
 6510W        W65606  36.021  44.793   3.741
 6511W        W65607  15.733   0.326   4.737
 6512W        W65608  29.032  43.887   1.324
 6513W        W65609  15.753   3.232   0.482
 6514W        W65610  35.499  29.920   3.660
 6515W        W65611  31.424  28.554   2.342
 6516W        W65612  44.466  28.131   3.656
 6517W        W65613  40.995  12.828   3.650
 6518W        W65614  41.438  34.532   3.354
 6519W        W65615  43.999  17.651  11.982
 6520W        W65616  10.226  20.580   4.838
 6521W        W65617   7.199  38.563  11.875
 6522W        W65618  33.462  28.972   3.215
 6523W        W65619  32.491   2.274  14.024
 6524W        W65620  19.239  26.457  11.075
 6525W        W65621  27.663  33.069   0.288
 6526W        W65622  12.615  30.496  11.519
 6527W        W65623   3.267  19.780   3.227
 6528W        W65624  25.540  36.047   1.299
 6529W        W65625   8.858  19.744  10.938
 6530W        W65626  23.155  42.319   4.316
 6531W        W65627  24.086  26.042   0.299
 6532W        W65628   0.379  21.093   0.868
 6533W        W65629  17.133  34.460   5.094
 6534W        W65630  34.406  10.824  11.384
 6535W        W65631   0.795   9.733   1.443
 6536W        W65632  44.891  17.140   3.299
 6537W        W65633  38.908  36.898  13.911
 6538W        W65634  25.649  28.943   2.882
 6539W        W65635  23.026  41.477   0.750
 6540W        W65636  40.539  10.701   3.711
 6541W        W65637  24.599   5.734   1.797
 6542W        W65638  18.062  25.659  12.360
 6543W        W65639  42.797  15.328  14.335
 6544W        W65640  26.613   5.392   0.406
 6545W        W65641   3.919  44.949   2.728
 6546W        W65642   3.892  25.206  13.364
 6547W        W65643   6.225  21.260  10.926
 6548W        W65644   5.709  18.078   4.286
 6549W        W65645  34.585  20.666   5.778
 6550W        W65646  14.098   0.491   0.360
 6551W        W65647  30.002   5.349  13.927
 6552W        W65648  12.653  44.956  14.427
 6553W        W65649  34.880   6.406   1.235
 6554W        W65650  37.371  27.672   1.415
 6555W        W65651  22.198  10.349  10.619
 6556W        W65652   0.857  32.605  14.499
 6557W        W65653  40.345  21.596  10.918
 6558W        W65654  12.142  26.954  14.453
 6559W        W65655  21.628  13.345   4.284
 6560W        W65656  38.501   8.315  11.966
 6561W        W65657  28.179  30.490   4.779
 6562W        W65658  19.721  40.956  10.483
 6563W        W65659  40.967  32.494  14.294
 6564W        W65660  25.622  30.970   0.366
 6565W        W65661   3.435  30.990  13.916
 6566W        W65662  12.662  43.837  11.599
 6567W        W65663   5.688  10.264  10.995
 6568W        W65664  19.721  27.949  12.881
 6569W        W65665  39.469  36.003   4.325
 6570W        W65666  44.848   1.892   4.249
 6571W        W65667  24.656  30.594  13.913
 6572W        W65668  38.539  18.621   2.358
 6573W        W65669  16.156   8.767   0.308
 6574W        W65670   0.987   0.271  12.384
 6575W        W65671   8.686  42.309  12.986
 6576W        W65672  10.832  29.054  10.061
 6577W        W65673   0.310  35.493   0.480
 6578W        W65674  18.695  35.521  12.086
 6579W        W65675  39.440  14.157  11.583
 6580W        W65676  38.412  25.656   2.403
 6581W        W65677  10.234  29.926   4.140
 6582W        W65678  36.488  37.844  13.378
 6583W        W65679  11.736  44.911   2.799
 6584W        W65680   8.730  37.971  10.920
 6585W        W65681   2.899  21.133   2.768
 6586W        W65682  42.015  41.502  10.560
 6587W        W65683  37.352   7.281   4.212
 6588W        W65684  25.155  10.849   3.244
 6589W        W65685  13.313  34.943   4.737
 6590W        W65686  10.200  39.470   3.178
 6591W        W65687  36.930  40.009  11.938
 6592W        W65688  20.221  15.614   9.989
 6593W        W65689  24.550  14.637   4.279
 6594W        W65690   0.782  35.540   4.225
 6595W        W65691  12.116   8.732  14.938
 6596W        W65692  24.051  28.659   3.235
 6597W        W65693  30.110  36.351  10.150
 6598W        W65694   9.800  42.942  12.388
 6599W        W65695   1.436   8.181  10.979
 6600W        W65696  23.600  23.716  10.543
 6601W        W65697  39.466  28.568  12.923
 6602W        W65698  18.584  43.322   2.749
 6603W        W65699  28.009   0.425  13.359
 6604W        W65700  44.403  35.908   5.212
 6605W        W65701  32.517  11.168   1.257
 6606W        W65702  25.630  40.427   0.278
 6607W        W65703   6.834   1.854  13.892
 6608W        W65704   9.886  44.354  11.959
 6609W        W65705   2.268  26.701  10.516
 6610W        W65706  11.812  31.583  14.386
 6611W        W65707  13.806   7.908  13.941
 6612W        W65708  37.387  38.466   3.773
 6613W        W65709  35.531  33.401  13.062
 6614W        W65710  26.602  27.103   4.324
 6615W        W65711  23.596  41.407  11.075
 6616W        W65712  43.887   0.982  14.806
 6617W        W65713  24.557  41.043  13.823
 6618W        W65714  41.838  34.932  12.840
 6619W        W65715   8.195  35.011   1.325
 6620W        W65716  17.088  10.182   0.734
 6621W        W65717   0.425  19.239   0.357
 6622W        W65718   5.214  33.876   0.459
 6623W        W65719  18.051  40.529  13.856
 6624W        W65720  42.782  14.759  14.450
 6625W        W65721  43.989  11.168   0.776
 6626W        W65722  33.448   3.335   1.301
 6627W        W65723  36.433  18.190  14.845
 6628W        W65724   6.357   2.883  12.924
 6629W        W65725  37.513  22.659   0.846
 6630W        W65726   2.313  40.965  11.915
 6631W        W65727  37.013  35.039  10.946
 6632W        W65728   2.443  44.305  10.058
 6633W        W65729   2.306  24.593   5.793
 6634W        W65730  39.430  27.552  11.000
 6635W        W65731  18.145   9.811   2.689
 6636W        W65732  19.130  20.590  11.941
 6637W        W65733  34.468  29.945   4.214
 6638W        W65734  18.173  20.711   2.700
 6639W        W65735  15.657  34.498   4.151
 6640W        W65736  26.501  32.133  11.944
 6641W        W65737  28.953  18.208   1.267
 6642W        W65738  31.114  23.683   1.397
 6643W        W65739   5.277  23.523  10.906
 6644W        W65740  16.794  19.040  14.917
 6645W        W65741  29.548  31.544  13.038
 6646W        W65742  32.137   8.770  14.507
 6647W        W65743  13.302  12.808  13.467
 6648W        W65744   2.870   7.332  13.503
 6649W        W65745  17.699   0.763   3.821
 6650W        W65746  41.315  18.632  11.980
 6651W        W65747  42.923  33.385   3.809
 6652W        W65748  44.280  15.755  13.795
 6653W        W65749  36.570  18.194   0.383
 6654W        W65750  28.540  11.194  12.088
 6655W        W65751   0.409  22.701   1.869
 6656W        W65752  20.525  24.204   4.644
 6657W        W65753  10.873   9.195   2.287
 6658W        W65754   7.737   7.353   1.794
 6659W        W65755  28.116   8.386  13.894
 6660W        W65756   8.172  32.444   0.268
 6661W        W65757   2.438   8.746   1.339
 6662W        W65758  31.483  14.104  10.533
 6663W        W65759  44.008  36.535   2.393
 6664W        W65760  30.111  32.913  10.895
 6665W        W65761  33.060   1.361   0.821
 6666W        W65762  30.975  12.822   3.318
 6667W        W65763   7.869  37.997   0.330
 6668W        W65764  44.504  36.366   1.405
 6669W        W65765  36.044   0.328   1.706
 6670W        W65766   2.271   1.826  12.519
 6671W        W65767  43.764  11.690  13.015
 6672W        W65768   9.823  26.967  14.952
 6673W        W65769  44.449  20.595  13.797
 6674W        W65770  28.937  14.131   0.433
 6675W        W65771  13.155  28.942  12.397
 6676W        W65772   5.340   1.800   4.818
 6677W        W65773  12.758  27.116  10.907
 6678W        W65774   8.768   1.974   1.764
 6679W        W65775   3.443  35.088  10.425
 6680W        W65776  19.132  12.297   0.873
 6681W        W65777  26.693   9.777   1.884
 6682W        W65778  11.708   6.861   1.252
 6683W        W65779   4.226  21.092   3.337
 6684W        W65780  10.799   4.395   4.114
 6685W        W65781  13.305  10.764  14.298
 6686W        W65782  31.080  27.480   4.260
 6687W        W65783  30.023  42.926  13.393
 6688W        W65784  40.315   4.232   2.878
 6689W        W65785  10.382  23.531  14.899
 6690W        W65786   3.396  34.459   3.711
 6691W        W65787  36.872   9.873   2.701
 6692W        W65788  16.611  17.233   1.897
 6693W        W65789  43.404  40.916  11.053
 6694W        W65790   2.327  12.265   2.184
 6695W        W65791  20.553  21.567  14.822
 6696W        W65792  34.373  37.473  11.086
 6697W        W65793  35.362  21.552   4.215
 6698W        W65794  34.924  20.671  13.358
 6699W        W65795  35.025  20.703  14.824
 6700W        W65796  11.650   5.862   4.275
 6701W        W65797  14.727  25.165  11.085
 6702W        W65798  17.731  33.988   3.291
 6703W        W65799   9.889  33.414  13.518
 6704W        W65800  14.213  39.941   0.380
 6705W        W65801  20.116  31.504  11.918
 6706W        W65802  24.000  37.540   0.920
 6707W        W65803   3.373  27.947   2.388
 6708W        W65804   7.204  13.828   1.896
 6709W        W65805  27.535  30.109   4.348
 6710W        W65806  23.574  37.989   0.934
 6711W        W65807  19.678  26.529   2.855
 6712W        W65808  11.717  12.204  14.862
 6713W        W65809  38.444   6.747   4.119
 6714W        W65810  17.794  15.158  11.900
 6715W        W65811  11.185  35.544   4.778
 6716W        W65812  21.601  19.123   1.841
 6717W        W65813  37.914  10.309   1.842
 6718W        W65814   4.874  37.395   4.292
 6719W        W65815   1.872  18.579   0.876
 6720W        W65816  43.358  16.239  13.496
 6721W        W65817  32.934   6.350  14.770
 6722W        W65818   4.394   7.908  14.845
 6723W        W65819  41.933   7.330   3.368
 6724W        W65820  17.656  30.470   1.858
 6725W        W65821  26.640  37.497   0.879
 6726W        W65822  25.093  20.200   2.335
 6727W        W65823   9.300  22.502  11.976
 6728W        W65824  37.406  34.879   5.257
 6729W        W65825  40.469   4.275  14.425
 6730W        W65826  35.593  44.385  11.093
 6731W        W65827   7.771  14.784   3.704
 6732W        W65828  10.746  27.104  14.894
 6733W        W65829  28.459  40.831  11.541
 6734W        W65830  16.598  25.146   0.892
 6735W        W65831   7.203  35.580  14.809
 6736W        W65832   3.942  28.094   5.089
 6737W        W65833  23.013  30.113   2.868
 6738W        W65834  35.014  27.559   3.172
 6739W        W65835  38.430   4.366  11.881
 6740W        W65836  41.861  31.648  14.886
 6741W        W65837  16.230  24.557  14.495
 6742W        W65838  16.246  22.626   2.341
 6743W        W65839  27.557   1.771  14.764
 6744W        W65840  32.417  41.407   0.439
 6745W        W65841  23.688  18.726   0.313
 6746W        W65842  14.800  20.573   4.306
 6747W        W65843  39.481  29.936   0.907
 6748W        W65844   1.948  25.217  12.916
 6749W        W65845  31.629   5.412  10.639
 6750W        W65846  23.112   2.870  12.386
 6751W        W65847  44.393  13.241   1.215
 6752W        W65848   5.746  18.771  11.985
 6753W        W65849  13.178  13.323   1.881
 6754W        W65850   2.964  22.156  10.564
 6755W        W65851  33.465  17.067  13.425
 6756W        W65852  17.138   4.204  14.469
 6757W        W65853  37.046  20.587   1.838
 6758W        W65854  15.199  21.255   0.960
 6759W        W65855  19.690  44.351   1.832
 6760W        W65856  41.884  39.925  12.055
 6761W        W65857  29.656  14.241   0.922
 6762W        W65858  44.850  21.067   2.337
 6763W        W65859  44.957  15.281   2.376
 6764W        W65860  24.973  33.042  14.860
 6765W        W65861  19.707  22.093  12.867
 6766W        W65862  17.606   9.266  12.925
 6767W        W65863  35.564   9.174  13.343
 6768W        W65864  37.394  17.622   1.293
 6769W        W65865   4.381  39.931   1.441
 6770W        W65866   8.329   1.794  12.022
 6771W        W65867   2.247  34.380  14.959
 6772W        W65868  10.379  32.436   3.862
 6773W        W65869  34.510   2.259  14.501
 6774W        W65870   6.878  28.517   3.344
 6775W        W65871  10.353  32.548   3.385
 6776W        W65872  13.117   3.389   2.226
 6777W        W65873  36.500   7.912   2.338
 6778W        W65874  21.594  27.549   0.836
 6779W        W65875  34.894   1.887   2.678
 6780W        W65876  38.468  19.640  12.046
 6781W        W65877  22.048  11.350   0.818
 6782W        W65878  41.864  36.440  13.509
 6783W        W65879  16.243   4.293  14.468
 6784W        W65880  18.230   3.383  12.564
 6785W        W65881   6.789  33.955   0.885
 6786W        W65882  21.519  12.819   1.230
 6787W        W65883  23.235  22.690  14.882
 6788W        W65884  13.271  20.692  11.863
 6789W        W65885   5.738  44.453  12.354
 6790W        W65886   9.722   2.252  10.918
 6791W        W65887   5.436  33.101  13.870
 6792W        W65888  28.497  33.982  13.317
 6793W        W65889  15.604  17.172   0.248
 6794W        W65890  37.534   1.868  12.375
 6795W        W65891  11.812  40.328  14.914
 6796W        W65892  41.973   4.870  11.375
 6797W        W65893  32.572  32.455  13.375
 6798W        W65894  21.546  30.024   3.780
 6799W        W65895  34.385  39.423  13.365
 6800W        W65896  10.157  32.972   0.370
 6801W        W65897  20.135  14.664  12.910
 6802W        W65898  32.072  42.480   0.276
 6803W        W65899  31.918  25.191   1.909
 6804W        W65900   8.789  39.424  11.006
 6805W        W65901   6.836  28.629   2.667
 6806W        W65902  24.076  40.922   2.770
 6807W        W65903   0.409  28.592   2.703
 6808W        W65904  20.254  23.034  12.412
 6809W        W65905  26.148   5.232  12.394
 6810W        W65906  28.621  42.013  12.007
 6811W        W65907   0.466  17.672   1.806
 6812W        W65908  26.472  39.048  14.815
 6813W        W65909  24.136  28.069   1.787
 6814W        W65910  30.078  24.691  13.840
 6815W        W65911  26.198  18.634   0.967
 6816W        W65912  11.704   0.472   0.740
 6817W        W65913  43.915   2.872   2.199
 6818W        W65914   1.935  27.128  12.065
 6819W        W65915  41.853   9.706   2.323
 6820W        W65916   6.330  23.154   2.679
 6821W        W65917   9.341  39.003   0.361
 6822W        W65918  15.748  19.066  11.952
 6823W        W65919  32.610  33.448  14.335
 6824W        W65920  39.039  30.508  11.454
 6825W        W65921  37.493   2.366   4.728
 6826W        W65922  12.186  10.779   1.225
 6827W        W65923   3.810  38.448  11.504
 6828W        W65924  12.193   4.256   0.825
 6829W        W65925   3.289  12.816   3.236
 6830W        W65926  44.885  42.814   2.313
 6831W        W65927  27.974  19.208   1.307
 6832W        W65928  30.070  34.071   0.884
 6833W        W65929  16.140   2.726  13.339
 6834W        W65930  21.213  29.933  10.959
 6835W        W65931  44.392  21.043   0.937
 6836W        W65932   6.808   0.367  10.428
 6837W        W65933  43.282  27.116  12.347
 6838W        W65934  40.036  33.494  11.905
 6839W        W65935   9.800  14.322   3.816
 6840W        W65936  18.727  32.952   2.365
 6841W        W65937  32.947  20.082   1.766
 6842W        W65938   9.650   4.751  14.896
 6843W        W65939   1.439  34.467   1.241
 6844W        W65940  18.257   3.863   4.343
 6845W        W65941  38.456  32.482  14.997
 6846W        W65942   1.743  12.316  14.766
 6847W        W65943   6.721   9.201   3.254
 6848W        W65944  42.462  35.503  11.611
 6849W        W65945  32.575  36.956   1.828
 6850W        W65946  25.063  42.926  12.512
 6851W        W65947  28.485   3.947   0.460
 6852W        W65948  25.962  15.719  12.842
 6853W        W65949  13.108  27.101  11.874
 6854W        W65950  42.441  29.980  10.553
 6855W        W65951  39.548   7.283  11.915
 6856W        W65952  17.723  43.332   0.313
 6857W        W65953  24.980  11.309   2.734
 6858W        W65954   8.311  36.088  10.912
 6859W        W65955  42.888  20.217   0.462
 6860W        W65956  34.587  19.183  12.450
 6861W        W65957   8.264  34.083   2.861
 6862W        W65958  43.463  18.133   3.711
 6863W        W65959  21.592   4.733   2.831
 6864W        W65960  22.745  31.070  13.454
 6865W        W65961  39.826  18.775  13.969
 6866W        W65962  44.310  11.136   0.816
 6867W        W65963  24.604  36.474   2.789
 6868W        W65964  30.495  28.622   2.251
 6869W        W65965  24.483  21.103   0.891
 6870W        W65966  20.647   0.937   4.636
 6871W        W65967  13.217   6.249  14.954
 6872W        W65968  12.721  25.988   0.272
 6873W        W65969  21.572   0.320   4.645
 6874W        W65970  25.190   8.172  13.956
 6875W        W65971  15.704   1.844  10.599
 6876W        W65972  29.146  33.579  14.957
 6877W        W65973  30.462  14.619  14.029
 6878W        W65974   1.257  16.720  12.019
 6879W        W65975  12.734  27.998   2.666
 6880W        W65976  31.507  34.583   0.756
 6881W        W65977  12.720   6.369   1.428
 6882W        W65978  12.261   4.274   3.761
 6883W        W65979  15.643  38.534  14.909
 6884W        W65980  29.065   6.239   2.308
 6885W        W65981  13.734   5.925  11.945
 6886W        W65982  36.060   6.750   3.679
 6887W        W65983  32.565  28.601   2.278
 6888W        W65984  33.889  31.072  14.376
 6889W        W65985  14.748  23.184   2.307
 6890W        W65986  44.008  25.529  13.943
 6891W        W65987  32.419   3.332  12.575
 6892W        W65988  22.066  11.804   2.790
 6893W        W65989  30.021   5.893  14.406
 6894W        W65990  25.102  41.357  12.538
 6895W        W65991   8.741  36.368  14.341
 6896W        W65992  16.072  36.363  13.969
 6897W        W65993  42.847  27.165   2.679
 6898W        W65994  14.751  10.801  13.394
 6899W        W65995  41.305  26.207  13.981
 6900W        W65996  36.004   0.792   4.318
 6901W        W65997   9.386  16.754  13.475
 6902W        W65998   5.274  19.209  14.905
 6903W        W65999  28.043   0.896   5.273
 6904W        W66000  42.905   8.809  12.039
 6905W        W66001  22.046   8.300   2.894
 6906W        W66002  36.943  20.147   3.275
 6907W        W66003  20.628  25.062  12.874
 6908W        W66004   4.839  26.529   0.733
 6909W        W66005  27.596  21.729   2.887
 6910W        W66006  38.528   0.419   1.447
 6911W        W66007  25.623   6.919   3.767
 6912W        W66008  30.464  12.723  11.580
 6913W        W66009  18.090  30.451  11.596
 6914W        W66010   5.221  26.084  12.521
 6915W        W66011   8.173  36.009   2.365
 6916W        W66012  19.542   9.260  12.849
 6917W        W66013  30.103   7.409  13.023
 6918W        W66014  35.057  34.004   1.277
 6919W        W66015  13.346   9.331   4.282
 6920W        W66016  23.680  40.026   1.270
 6921W        W66017   3.270   9.686  14.885
 6922W        W66018  10.786  10.271  12.414
 6923W        W66019  13.137  13.173   3.829
 6924W        W66020   9.378   0.440   2.846
 6925W        W66021  20.749  17.750  10.586
 6926W        W66022  30.941  42.502   2.387
 6927W        W66023  18.050  17.694  11.499
 6928W        W66024  19.243  20.546   3.240
 6929W        W66025   9.790  25.160  12.895
 6930W        W66026  26.064  10.856  13.473
 6931W        W66027  13.345  20.762   3.651
 6932W        W66028  40.477  31.522   1.409
 6933W        W66029  10.650  18.267  12.864
 6934W        W66030   4.306  42.855   3.674
 6935W        W66031  36.443  33.990   1.721
 6936W        W66032   5.829  36.898  13.400
 6937W        W66033   8.291  10.376  14.297
 6938W        W66034  28.508  12.176  14.897
 6939W        W66035  11.811  27.952   4.318
 6940W        W66036  41.018  42.960   2.258
 6941W        W66037   7.777  13.601   4.255
 6942W        W66038   3.244   7.666  12.047
 6943W        W66039  43.992   5.710  12.082
 6944W        W66040  42.822  36.420  10.540
 6945W        W66041  13.309  27.585   9.967
 6946W        W66042  35.508  35.059  11.855
 6947W        W66043  10.771  39.852   3.305
 6948W        W66044  35.466  10.877   5.172
 6949W        W66045  27.999  19.271  14.956
 6950W        W66046  31.428  34.032  10.618
 6951W        W66047  19.635  17.107   4.763
 6952W        W66048   2.884  32.585   3.340
 6953W        W66049  35.014   7.404   3.283
 6954W        W66050  23.518  10.843   1.744
 6955W        W66051  40.996  33.621  11.523
 6956W        W66052  11.796  18.270  11.983
 6957W        W66053  12.645  35.435   1.809
 6958W        W66054  15.126  31.564  12.075
 6959W        W66055  42.402   7.299  10.430
 6960W        W66056  36.074  41.508  13.900
 6961W        W66057   3.379  10.854   1.801
 6962W        W66058  16.704  21.161   3.725
 6963W        W66059  35.436  25.581  12.499
 6964W        W66060  18.132  39.333   2.876
 6965W        W66061  41.315   9.792  12.957
 6966W        W66062  41.510  27.674  13.547
 6967W        W66063  22.184  13.826  14.884
 6968W        W66064  41.406  26.673  13.797
 6969W        W66065  23.645  18.210  13.310
 6970W        W66066   9.179  19.552   4.159
 6971W        W66067  10.183  25.617  13.815
 6972W        W66068  27.450  41.923   1.253
 6973W        W66069  24.492   6.911   0.938
 6974W        W66070  24.637   6.744   4.260
 6975W        W66071   0.963  44.437  11.595
 6976W        W66072  38.892   4.438   2.284
 6977W        W66073  17.284  17.732   2.249
 6978W        W66074  23.137  29.576   4.640
 6979W        W66075  36.887  24.516  12.363
 6980W        W66076   3.336  23.526   4.282
 6981W        W66077  16.221  27.176   3.859
 6982W        W66078  28.594  28.469   4.664
 6983W        W66079  28.603  26.012  13.850
 6984W        W66080  44.908   2.368   4.317
 6985W        W66081   5.793   2.419   2.345
 6986W        W66082  27.478  37.894   4.313
 6987W        W66083  27.174  41.481  12.909
 6988W        W66084  29.080   8.318  14.788
 6989W        W66085  18.709  13.313  13.353
 6990W        W66086  30.548   4.267   0.785
 6991W        W66087  32.891  28.463  12.343
 6992W        W66088  21.234   2.811  11.031
 6993W        W66089   8.323  33.576  14.439
 6994W        W66090  12.130  31.611  13.007
 6995W        W66091  12.694   1.758   0.879
 6996W        W66092  35.922  25.511  13.008
 6997W        W66093   8.750  37.573  12.838
 6998W        W66094  32.608  16.761   0.415
 6999W        W66095  32.042   6.237  13.965
 7000W        W66096  42.872  20.032  10.528
 7001W        W66097  30.489  32.932   1.786
 7002W        W66098  10.169  17.705   3.740
 7003W        W66099  41.041  29.644   4.189
 7004W        W66100  39.063  39.827   3.764
 7005W        W66101  31.494  12.263   2.387
 7006W        W66102  13.724   0.444   1.338
 7007W        W66103  15.745   7.839   1.808
 7008W        W66104  42.318  24.490  14.778
 7009W        W66105  28.066  18.783   1.237
 7010W        W66106  40.472  42.342   2.728
 7011W        W66107   5.406  25.041   1.902
 7012W        W66108  31.130  31.988  13.890
 7013W        W66109  21.608  33.413   4.348
 7014W        W66110  32.500  15.084  13.415
 7015W        W66111  40.420  25.103   5.120
 7016W        W66112  14.763  39.467   1.278
 7017W        W66113  19.715  31.558  13.031
 7018W        W66114  18.234  17.133   0.414
 7019W        W66115  35.878  35.427  13.390
 7020W        W66116   4.233  24.145   4.114
 7021W        W66117  24.620  35.566   9.640
 7022W        W66118  34.389  34.912   2.759
 7023W        W66119  28.187  22.536   4.715
 7024W        W66120  16.136  15.141   4.334
 7025W        W66121  42.348  12.343  13.850
 7026W        W66122  32.986  32.604   3.755
 7027W        W66123   2.848   0.452  14.438
 7028W        W66124  35.895  24.112   0.864
 7029W        W66125   7.775  37.917  10.611
 7030W        W66126   3.284  24.537   4.724
 7031W        W66127  25.180  40.973   1.356
 7032W        W66128  23.188  23.654  11.374
 7033W        W66129   8.658  25.986  12.482
 7034W        W66130  44.273  31.461  12.571
 7035W        W66131  21.194   9.180   0.431
 7036W        W66132  10.837  13.343   1.802
 7037W        W66133  31.949  10.288  12.012
 7038W        W66134   4.429  22.011   4.722
 7039W        W66135   3.818  36.558   1.920
 7040W        W66136  12.293   4.258  11.031
 7041W        W66137  24.994  28.067  14.392
 7042W        W66138  27.592  30.648   1.262
 7043W        W66139  35.433   5.868  14.281
 7044W        W66140  39.536  28.615  10.923
 7045W        W66141  39.932  14.596  13.358
 7046W        W66142  13.234  31.640   1.920
 7047W        W66143  24.105  35.394   2.379
 7048W        W66144   1.410  36.542  14.990
 7049W        W66145  11.271  18.146  13.795
 7050W        W66146   7.376  32.055  14.336
 7051W        W66147   8.821   3.329   4.725
 7052W        W66148   5.917  36.060   1.836
 7053W        W66149  20.533   8.362   5.312
 7054W        W66150  43.831  22.568   0.475
 7055W        W66151   4.450  27.046  12.427
 7056W        W66152  19.086   5.313  13.987
 7057W        W66153  35.884  19.065  11.050
 7058W        W66154  17.086  44.339   2.376
 7059W        W66155   9.702  33.043   2.666
 7060W        W66156   2.359  14.220   5.314
 7061W        W66157  43.868  39.495   4.306
 7062W        W66158  41.516  41.428  10.585
 7063W        W66159   1.362  12.274   4.158
 7064W        W66160   3.730  30.484   4.645
 7065W        W66161  42.351  22.581   3.304
 7066W        W66162  19.757  11.356   2.698
 7067W        W66163   4.903  35.052   2.215
 7068W        W66164  40.404  33.918   0.463
 7069W        W66165  16.741  37.067  12.528
 7070W        W66166  32.962  23.719  11.929
 7071W        W66167   2.877  22.718  14.838
 7072W        W66168  41.945  41.465   0.730
 7073W        W66169   6.902  24.022  14.506
 7074W        W66170  21.061   6.321  10.510
 7075W        W66171  39.834  15.141   2.694
 7076W        W66172  29.563  23.627   2.199
 7077W        W66173   1.908  11.166  12.562
 7078W        W66174  22.679  39.342   4.137
 7079W        W66175   7.269  27.941  13.892
 7080W        W66176   2.380  17.271   3.330
 7081W        W66177  27.970  11.207  13.401
 7082W        W66178  22.200  41.938   2.259
 7083W        W66179  28.466  41.493   2.340
 7084W        W66180  30.432  31.537  12.082
 7085W        W66181  43.989   4.399   4.263
 7086W        W66182  19.544  44.389   4.310
 7087W        W66183   7.226   0.345  10.909
 7088W        W66184  41.812  14.729   3.762
 7089W        W66185   2.778  27.542   2.901
 7090W        W66186   7.350  33.002   2.281
 7091W        W66187  41.794  38.909   2.190
 7092W        W66188  32.920  13.835   5.219
 7093W        W66189  12.776  32.545   9.566
 7094W        W66190   7.284   0.913   1.821
 7095W        W66191  41.460  33.581   3.657
 7096W        W66192  40.912  26.692   1.354
 7097W        W66193   4.936  32.471   1.364
 7098W        W66194   2.424  19.558   0.954
 7099W        W66195  13.671  19.113  10.102
 7100W        W66196  43.886  34.370   1.767
 7101W        W66197  28.026  38.938  10.490
 7102W        W66198   3.927  23.139  10.094
 7103W        W66199  39.815  39.846  14.926
 7104W        W66200   5.291  19.661   5.311
 7105W        W66201  30.941   7.697   0.339
 7106W        W66202  14.730  14.785   2.786
 7107W        W66203  43.408  32.033   1.870
 7108W        W66204  18.105  36.063  14.944
 7109W        W66205  24.070   8.816   1.254
 7110W        W66206   8.779  26.182   5.100
 7111W        W66207  17.255  37.941   2.342
 7112W        W66208   2.246  37.945   4.284
 7113W        W66209   5.300  30.543   0.289
 7114W        W66210  41.825  17.654   0.826
 7115W        W66211  33.607  24.011   0.758
 7116W        W66212  24.626   4.720   3.146
 7117W        W66213  25.609   0.875  10.938
 7118W        W66214   4.373  18.114   3.796
 7119W        W66215  25.984  29.999   1.830
 7120W        W66216  13.136  41.870   3.166
 7121W        W66217   3.409  20.126   0.363
 7122W        W66218  34.040  34.575  12.864
 7123W        W66219  11.641  17.582  14.280
 7124W        W66220  15.645  21.034   3.264
 7125W        W66221   2.759   8.404  12.353
 7126W        W66222  39.977  37.992   4.201
 7127W        W66223  32.924  27.016   4.763
 7128W        W66224  19.044  20.082   3.167
 7129W        W66225  21.133  30.659   3.274
 7130W        W66226  35.575  29.945   1.446
 7131W        W66227  14.235  35.054   3.237
 7132W        W66228  30.036  25.191  10.890
 7133W        W66229  21.135  13.639   1.794
 7134W        W66230   9.343  35.874  13.844
 7135W        W66231   4.890  16.170   4.768
 7136W        W66232   6.820   3.853   0.263
 7137W        W66233  22.597  29.096  14.897
 7138W        W66234  33.567  42.808  14.001
 7139W        W66235  43.359   3.447   5.192
 7140W        W66236  36.008  25.965   4.753
 7141W        W66237  20.197  15.142   1.441
 7142W        W66238  16.151   4.358  12.447
 7143W        W66239  23.526  28.010  11.904
 7144W        W66240  33.024  32.963  13.497
 7145W        W66241  40.539  12.783   2.751
 7146W        W66242  43.861  21.648  14.009
 7147W        W66243   2.469   9.818  13.956
 7148W        W66244   7.328  13.815   3.179
 7149W        W66245   0.895  23.580  14.836
 7150W        W66246  44.370   9.257   1.918
 7151W        W66247  33.560   7.326   1.744
 7152W        W66248   4.356  18.104   0.470
 7153W        W66249  35.065   1.346  14.878
 7154W        W66250  29.111  15.649   3.784
 7155W        W66251  20.085  16.240   4.136
 7156W        W66252  23.022   4.317   2.348
 7157W        W66253  41.537  42.008   1.754
 7158W        W66254  14.158  34.952  11.033
 7159W        W66255  44.798  31.551   4.284
 7160W        W66256  34.516   9.212   9.983
 7161W        W66257  34.926  44.449   3.189
 7162W        W66258  30.509  13.186  11.991
 7163W        W66259   4.384  27.113   3.303
 7164W        W66260  24.718  20.697   5.083
 7165W        W66261   9.167  20.137   1.782
 7166W        W66262  21.717  35.046  10.628
 7167W        W66263  31.544  38.068   3.808
 7168W        W66264  10.678  29.448  12.369
 7169W        W66265   3.920  14.716   0.966
 7170W        W66266   3.403   6.289  11.492
 7171W        W66267  44.814  44.911   3.377
 7172W        W66268  13.718   8.883   0.411
 7173W        W66269   4.297   5.438   1.263
 7174W        W66270  19.731  36.573   0.277
 7175W        W66271  22.053  10.845  13.052
 7176W        W66272  15.237  37.064   3.699
 7177W        W66273   6.383   4.810  13.829
 7178W        W66274  44.488  27.687   1.924
 7179W        W66275  28.535  28.124  11.025
 7180W        W66276   5.287  30.507  13.344
 7181W        W66277  13.105  23.089  14.850
 7182W        W66278  43.821  10.244  11.928
 7183W        W66279  22.012   2.909  13.314
 7184W        W66280  38.828  35.474   2.767
 7185W        W66281  18.113  26.086  13.353
 7186W        W66282  31.608  41.858   4.121
 7187W        W66283   8.244  26.133  14.872
 7188W        W66284  35.038  19.203   4.332
 7189W        W66285  22.227  34.504   1.422
 7190W        W66286   3.902  14.320   0.873
 7191W        W66287  26.667  13.224  11.957
 7192W        W66288   6.813  36.590   1.700
 7193W        W66289  34.994  28.439   4.811
 7194W        W66290  23.166   2.939  11.051
 7195W        W66291   8.372  41.858  12.002
 7196W        W66292  26.523   3.387  14.444
 7197W        W66293  30.950  12.801  13.898
 7198W        W66294  42.891  14.711  13.062
 7199W        W66295  38.945   7.836   0.960
 7200W        W66296  27.601   0.286  10.526
 7201W        W66297  13.147  15.129   1.325
 7202W        W66298  35.901  36.978  11.492
 7203W        W66299  24.546  23.118   0.765
 7204W        W66300  44.266   5.711   1.901
 7205W        W66301  43.887  12.343   0.766
 7206W        W66302  15.103   8.302  14.396
 7207W        W66303  18.137   1.895   2.830
 7208W        W66304   5.705  18.295  14.884
 7209W        W66305   7.865   0.415  11.397
 7210W        W66306  38.913  31.952   2.774
 7211W        W66307   1.907   4.302   4.805
 7212W        W66308   6.847  41.824   0.938
 7213W        W66309  19.070   0.296  13.480
 7214W        W66310  29.086   7.385  12.058
 7215W        W66311   6.335   4.345  11.016
 7216W        W66312  17.791  13.158  11.008
 7217W        W66313   7.703  43.462   4.755
 7218W        W66314   4.847  37.505  12.076
 7219W        W66315   4.897  34.112   3.682
 7220W        W66316   5.295  23.619  14.906
 7221W        W66317  27.491   4.206   0.481
 7222W        W66318  13.726  32.010   2.676
 7223W        W66319  16.095  27.057   3.168
 7224W        W66320  20.583  41.315   2.793
 7225W        W66321  30.457   3.949   2.351
 7226W        W66322  23.521  14.689  12.056
 7227W        W66323  38.862  27.603  11.397
 7228W        W66324  27.146   3.924  11.069
 7229W        W66325   1.252  11.250   4.322
 7230W        W66326  28.005  33.108   2.787
 7231W        W66327   2.338   2.722  14.339
 7232W        W66328   2.727  44.400  11.961
 7233W        W66329  28.681  32.517   3.306
 7234W        W66330   9.724  34.056   0.916
 7235W        W66331  11.841  29.582   1.323
 7236W        W66332   5.436  20.100  14.016
 7237W        W66333  23.675  43.987   2.407
 7238W        W66334  38.331  21.244   1.264
 7239W        W66335  33.440  40.424  11.870
 7240W        W66336  28.993  36.468   2.401
 7241W        W66337  15.622  42.832   1.307
 7242W        W66338  37.990  43.852   3.314
 7243W        W66339  32.405  28.451   0.369
 7244W        W66340  43.794  11.651  14.492
 7245W        W66341  40.353  43.401  14.992
 7246W        W66342  24.059  30.066   0.392
 7247W        W66343  14.707  30.976   1.279
 7248W        W66344   8.194  32.114   3.801
 7249W        W66345  42.021  12.765  10.503
 7250W        W66346  13.107  10.211  10.544
 7251W        W66347  31.414  38.062   2.679
 7252W        W66348  19.055  33.536   0.809
 7253W        W66349  32.504  30.951   1.869
 7254W        W66350  32.609  26.640  12.562
 7255W        W66351  29.039  23.518   2.684
 7256W        W66352  35.074  22.209  10.017
 7257W        W66353  35.079  39.963   2.884
 7258W        W66354  14.728  20.149   1.879
 7259W        W66355  13.623  33.546  13.987
 7260W        W66356   2.398  20.619   2.248
 7261W        W66357  36.905  13.251  14.980
 7262W        W66358   4.753  32.441   5.223
 7263W        W66359  26.975  19.588  12.503
 7264W        W66360  16.288  26.484   3.645
 7265W        W66361  18.755   2.847   1.714
 7266W        W66362  14.717  41.935  11.530
 7267W        W66363  41.868  38.842   5.164
 7268W        W66364  10.242   3.406  13.422
 7269W        W66365  14.189  32.083  10.564
 7270W        W66366  25.127   8.792   0.416
 7271W        W66367  16.247  20.170  10.586
 7272W        W66368   6.915  35.882  13.458
 7273W        W66369  28.576  13.203   3.868
 7274W        W66370  17.193  19.696   2.268
 7275W        W66371  14.159  24.583   0.460
 7276W        W66372  21.726  20.219  10.992
 7277W        W66373   2.258  15.748  14.014
 7278W        W66374  30.534  11.245   0.291
 7279W        W66375   8.216  32.605   1.325
 7280W        W66376  32.556  24.494   0.911
 7281W        W66377   7.855  23.079  11.585
 7282W        W66378  37.398   6.718  11.026
 7283W        W66379  37.392  40.426   2.817
 7284W        W66380   9.768  44.367  13.834
 7285W        W66381   0.743   5.829  13.973
 7286W        W66382  26.517   6.286   4.252
 7287W        W66383  25.046  41.461   2.741
 7288W        W66384  14.176  24.530  14.921
 7289W        W66385  21.253  29.948  13.837
 7290W        W66386   9.180  15.206  12.486
 7291W        W66387  28.026  33.098  11.533
 7292W        W66388  36.425  23.187   2.335
 7293W        W66389  14.133   3.274   2.723
 7294W        W66390  44.327  33.074   1.769
 7295W        W66391  40.458   5.901   4.615
 7296W        W66392  16.810  38.880   1.908
 7297W        W66393  31.463  33.443   1.928
 7298W        W66394  35.551  16.675   0.949
 7299W        W66395  10.816  11.751   2.802
 7300W        W66396   6.832  15.196  14.498
 7301W        W66397  44.442   3.451  11.414
 7302W        W66398  38.000   8.314   2.331
 7303W        W66399  20.261  42.792  11.451
 7304W        W66400  21.513   9.651   0.429
 7305W        W66401   3.834  35.587   4.616
 7306W        W66402  39.382  36.509  11.105
 7307W        W66403  40.866   9.315   1.252
 7308W        W66404  18.269  15.144   3.755
 7309W        W66405  20.050  23.559  11.949
 7310W        W66406  35.542   3.798   4.657
 7311W        W66407   7.782  41.848   3.702
 7312W        W66408  39.913  18.681   0.956
 7313W        W66409  21.207  13.226   1.291
 7314W        W66410  12.336   3.397   4.219
 7315W        W66411  15.215  16.730   0.758
 7316W        W66412   2.922   4.817   4.134
 7317W        W66413   7.903  20.271  13.353
 7318W        W66414   1.816  38.941   4.230
 7319W        W66415  30.463   7.407   3.249
 7320W        W66416  43.901  26.077   0.470
 7321W        W66417  17.767  32.475   4.226
 7322W        W66418  13.650  12.765   4.772
 7323W        W66419  20.704  14.650   2.826
 7324W        W66420  23.665  43.915   1.815
 7325W        W66421  39.812  24.627   3.158
 7326W        W66422  34.976   1.779   4.709
 7327W        W66423  39.531  33.585  14.014
 7328W        W66424   2.400   8.695  11.534
 7329W        W66425  32.590  23.217  14.470
 7330W        W66426  12.676  32.100  13.816
 7331W        W66427  30.538  24.700  12.001
 7332W        W66428  27.641  24.135  10.585
 7333W        W66429  22.736  31.578   4.723
 7334W        W66430  11.351  42.008   2.781
 7335W        W66431  11.632  28.573   1.875
 7336W        W66432  33.953  11.653   1.264
 7337W        W66433  15.118  29.626   3.703
 7338W        W66434  35.909  17.710   3.762
 7339W        W66435  13.843  39.978  14.473
 7340W        W66436   1.245  42.426   1.437
 7341W        W66437  11.326  15.749  12.042
 7342W        W66438  38.052  38.051   3.166
 7343W        W66439  13.290  41.447   5.237
 7344W        W66440  37.950  22.089   3.293
 7345W        W66441  22.138  24.665  14.498
 7346W        W66442   7.835  15.647  14.867
 7347W        W66443   3.290   8.683  11.388
 7348W        W66444  27.188   1.821   2.791
 7349W        W66445  24.521   9.849   1.210
 7350W        W66446   8.722  11.357  14.806
 7351W        W66447  33.997  31.549   1.398
 7352W        W66448   3.866  10.251   2.402
 7353W        W66449  37.515   0.939   4.738
 7354W        W66450  16.634  37.996   2.185
 7355W        W66451  24.657  11.136   0.286
 7356W        W66452  14.651   9.803  14.977
 7357W        W66453  15.793  44.762  10.002
 7358W        W66454  31.565  22.245  14.478
 7359W        W66455  19.095  20.067   2.705
 7360W        W66456  16.736  12.330   1.410
 7361W        W66457  39.006  23.669  13.360
 7362W        W66458  17.158  27.554  10.965
 7363W        W66459  27.942  33.070   3.170
 7364W        W66460  41.452  11.361   3.867
 7365W        W66461  11.712  44.810  13.507
 7366W        W66462  25.524  10.200   3.687
 7367W        W66463  35.099  32.543  14.023
 7368W        W66464  44.340  15.105  14.979
 7369W        W66465  36.914  23.206  11.930
 7370W        W66466  24.147  28.172   3.869
 7371W        W66467  38.421  20.184   3.253
 7372W        W66468  35.357  26.006  11.414
 7373W        W66469  22.605  23.611  10.152
 7374W        W66470  39.894  30.600   0.283
 7375W        W66471  38.842  12.654   3.343
 7376W        W66472  22.671  29.979  10.484
 7377W        W66473  10.668  37.363   4.633
 7378W        W66474   8.842  43.815  13.902
 7379W        W66475  31.403  29.941   4.696
 7380W        W66476  23.575   4.885   2.781
 7381W        W66477  21.131  34.546  12.827
 7382W        W66478   6.185   0.875   5.118
 7383W        W66479   9.284   4.293  12.842
 7384W        W66480  22.155  14.127   1.227
 7385W        W66481  29.923  39.867  12.364
 7386W        W66482   4.333  31.551   0.870
 7387W        W66483   8.329  37.512  12.395
 7388W        W66484  16.721   6.742  10.601
 7389W        W66485  26.115   4.920   3.333
 7390W        W66486   4.351  43.948  11.509
 7391W        W66487  16.187  20.090   0.307
 7392W        W66488  27.087   8.291   3.277
 7393W        W66489  17.675   9.395   1.236
 7394W        W66490  23.177  40.921   4.179
 7395W        W66491  30.122  31.948  14.940
 7396W        W66492  18.272  12.361   2.777
 7397W        W66493  20.040  30.502  13.398
 7398W        W66494  29.515  30.131  14.420
 7399W        W66495  29.960   5.752   2.801
 7400W        W66496   6.371  31.633  12.544
 7401W        W66497  44.262  39.327   0.902
 7402W        W66498  27.601  19.629   9.616
 7403W        W66499   4.381  13.637  10.610
 7404W        W66500  12.654   4.818   0.338
 7405W        W66501  22.559  41.998  10.508
 7406W        W66502  42.999  26.177  13.426
 7407W        W66503  39.374  43.500   3.648
 7408W        W66504  36.513  40.924   4.321
 7409W        W66505   6.342   6.805   1.924
 7410W        W66506  43.312  21.254   2.407
 7411W        W66507   7.357  37.877   0.478
 7412W        W66508  24.078   4.326   4.742
 7413W        W66509  38.492  21.181  10.113
 7414W        W66510  38.412  26.487   3.830
 7415W        W66511  20.040  29.122  14.791
 7416W        W66512  36.438  28.031  12.886
 7417W        W66513  21.751   4.408  12.419
 7418W        W66514   5.381  36.558   4.299
 7419W        W66515  16.772  21.653  10.949
 7420W        W66516  40.303   0.987   1.767
 7421W        W66517   4.895  15.734  14.492
 7422W        W66518  24.485  27.445   0.965
 7423W        W66519  38.904  29.107  12.507
 7424W        W66520  29.621  19.626  14.846
 7425W        W66521  22.171  39.873   3.339
 7426W        W66522   9.347   7.367  14.895
 7427W        W66523  22.728  14.664  10.579
 7428W        W66524   7.281  31.507   0.742
 7429W        W66525  44.488  13.723  14.338
 7430W        W66526  43.390  39.822   0.388
 7431W        W66527  27.515  13.283  12.027
 7432W        W66528  39.509  35.358   4.173
 7433W        W66529  41.455  11.712   2.394
 7434W        W66530  23.085  24.026  12.374
 7435W        W66531   8.341  40.907  10.626
 7436W        W66532  37.494  41.017  12.956
 7437W        W66533  38.914  39.430  13.431
 7438W        W66534  13.753  20.544   3.802
 7439W        W66535   7.896  16.288  11.980
 7440W        W66536   0.808   4.734   0.285
 7441W        W66537  38.411  20.149   1.317
 7442W        W66538   0.751  41.392   0.357
 7443W        W66539   7.237  44.943  13.462
 7444W        W66540  20.540   1.345   4.670
 7445W        W66541   6.224  13.740  11.538
 7446W        W66542  23.672   8.264   3.234
 7447W        W66543  35.367   6.425  10.564
 7448W        W66544  22.673   3.260  11.949
 7449W        W66545  37.503  42.929   3.235
 7450W        W66546  18.134   4.714  12.027
 7451W        W66547  34.958  13.344  10.102
 7452W        W66548  37.443  34.503  12.921
 7453W        W66549  31.541   0.959   0.734
 7454W        W66550   9.390   2.823   0.747
 7455W        W66551  40.847   0.259   2.845
 7456W        W66552  36.893  22.228  11.583
 7457W        W66553  37.407  37.928   2.289
 7458W        W66554   9.182  34.423   2.344
 7459W        W66555   2.885   8.191   2.179
 7460W        W66556   1.384  17.798  12.956
 7461W        W66557  14.754  10.256   3.190
 7462W        W66558  24.586  28.001   1.299
 7463W        W66559  38.388  10.348   0.812
 7464W        W66560   0.466   4.774  14.824
 7465W        W66561  22.551  28.574   2.213
 7466W        W66562  14.813  31.587  14.304
 7467W        W66563  29.513  27.480   0.856
 7468W        W66564   1.354  30.427   0.264
 7469W        W66565  15.269  15.800   1.239
 7470W        W66566  27.607  32.484   0.924
 7471W        W66567  37.004  36.461   0.866
 7472W        W66568  44.011  11.251  12.937
 7473W        W66569  36.557   1.425   1.719
 7474W        W66570   9.698  30.631  13.936
 7475W        W66571  38.830  43.953   2.769
 7476W        W66572  23.224  25.535   4.129
 7477W        W66573  39.938  38.464  11.046
 7478W        W66574  21.702  10.193  14.818
 7479W        W66575  23.553  31.091  10.556
 7480W        W66576  24.589   2.334  11.583
 7481W        W66577  15.243  35.424  14.419
 7482W        W66578  43.335  12.770   0.879
 7483W        W66579  40.546  14.624   4.743
 7484W        W66580  39.385  36.522   4.835
 7485W        W66581  31.446  25.076   1.426
 7486W        W66582   1.470  36.565   1.892
 7487W        W66583  30.581  35.508   0.352
 7488W        W66584  44.778  21.094   4.720
 7489W        W66585  20.213  29.924   2.335
 7490W        W66586  14.122  32.446  12.375
 7491W        W66587  27.997  15.692   9.927
 7492W        W66588  13.270  38.909  14.392
 7493W        W66589  36.551  20.223  13.945
 7494W        W66590  20.032  12.252   0.417
 7495W        W66591   5.846  23.031   4.214
 7496W        W66592  33.092  28.971  14.315
 7497W        W66593  34.048   4.422  12.022
 7498W        W66594  27.180   1.383  13.483
 7499W        W66595  29.431  36.498  11.027
 7500W        W66596   6.222  35.398   1.321
 7501W        W66597  39.884  24.156   3.856
 7502W        W66598  15.629  35.009   2.707
 7503W        W66599   5.827   5.912  11.016
 7504W        W66600   7.798   6.878  13.996
 7505W        W66601   0.948  29.090  10.034
 7506W        W66602  39.011  18.201   3.368
 7507W        W66603  17.574  12.645  11.061
 7508W        W66604  33.881  15.298   2.761
 7509W        W66605  35.889   6.850  11.506
 7510W        W66606  13.311  24.081   1.814
 7511W        W66607   5.392  31.032   0.448
 7512W        W66608   1.333  18.175  14.494
 7513W        W66609  21.547  44.802  14.004
 7514W        W66610  29.500  30.513   2.354
 7515W        W66611  33.076  24.604   1.401
 7516W        W66612   9.702  41.851   0.769
 7517W        W66613  35.103  26.475  12.097
 7518W        W66614  21.127  41.827   4.722
 7519W        W66615  38.960  15.679   4.122
 7520W        W66616   7.700  20.165  12.477
 7521W        W66617   0.449   7.785  10.409
 7522W        W66618   2.804  42.468  12.829
 7523W        W66619  12.740   5.246  11.509
 7524W        W66620  39.481  27.099   2.727
 7525W        W66621  24.222  36.018   4.645
 7526W        W66622   8.728  14.180   2.739
 7527W        W66623  30.473  22.121   3.161
 7528W        W66624   0.745  38.355   1.306
 7529W        W66625  44.972   3.313  10.466
 7530W        W66626   8.329   7.409  12.362
 7531W        W66627  33.017  38.049  14.470
 7532W        W66628  44.438  19.271  12.513
 7533W        W66629  14.682  28.571  10.134
 7534W        W66630  23.119  16.633   3.768
 7535W        W66631  34.064  33.931   4.710
 7536W        W66632   5.280  33.438  10.412
 7537W        W66633  23.619  30.480   2.745
 7538W        W66634  40.459  40.531  12.442
 7539W        W66635   0.841   0.860  14.807
 7540W        W66636  14.159  25.540   3.352
 7541W        W66637  17.149  30.013  14.355
 7542W        W66638   8.776  13.137  11.907
 7543W        W66639  11.737  39.942   2.348
 7544W        W66640  11.758   9.695   3.655
 7545W        W66641  42.299  12.623   1.403
 7546W        W66642  13.743  30.002   2.709
 7547W        W66643  41.432  42.836   1.363
 7548W        W66644   3.823  24.166   0.388
 7549W        W66645  22.560  41.992   4.300
 7550W        W66646  11.624  18.194  12.548
 7551W        W66647   7.801  31.904  12.973
 7552W        W66648  12.714  32.420   0.392
 7553W        W66649   6.263  39.063   2.221
 7554W        W66650   6.902  17.739  12.486
 7555W        W66651  29.022  44.908   4.670
 7556W        W66652  42.465   2.276   1.250
 7557W        W66653  29.622   7.291  12.866
 7558W        W66654   9.199  28.942   0.832
 7559W        W66655   9.817   6.902  12.357
 7560W        W66656  35.044  30.604  11.112
 7561W        W66657  35.513  40.033   3.203
 7562W        W66658   5.339  26.619   2.883
 7563W        W66659   1.786   8.660  13.492
 7564W        W66660  15.317  32.511  12.460
 7565W        W66661  10.248   2.236   2.745
 7566W        W66662  34.097   1.242  11.582
 7567W        W66663  38.355  19.725  11.516
 7568W        W66664  19.625  15.254   0.305
 7569W        W66665  30.413   8.668  13.890
 7570W        W66666  16.676  11.720   4.335
 7571W        W66667  39.541  17.238   0.254
 7572W        W66668  23.698  12.815   4.211
 7573W        W66669  37.020  18.705  11.561
 7574W        W66670   7.899   5.422  11.520
 7575W        W66671  32.990  33.489  13.839
 7576W        W66672  40.533  44.852  12.880
 7577W        W66673  30.530  34.870   0.837
 7578W        W66674  31.040  32.608   2.777
 7579W        W66675  15.158   4.896   1.367
 7580W        W66676  40.440  10.243   1.854
 7581W        W66677  38.367  17.727   3.847
 7582W        W66678  24.602  23.628   0.483
 7583W        W66679  30.128  19.249   2.828
 7584W        W66680  31.053  27.652   2.876
 7585W        W66681   8.258  33.036   1.744
 7586W        W66682  42.482  29.168   0.251
 7587W        W66683  26.501  32.619  11.921
 7588W        W66684  19.053  35.374   5.128
 7589W        W66685  32.927   0.446   4.652
 7590W        W66686  10.780  16.751   0.274
 7591W        W66687  33.608  25.707  14.899
 7592W        W66688   7.399  43.880  12.020
 7593W        W66689  38.944  33.928  14.890
 7594W        W66690  36.504  37.544   2.376
 7595W        W66691  42.935  23.131  10.949
 7596W        W66692  25.215  34.431   9.973
 7597W        W66693   5.340  26.179  12.025
 7598W        W66694  42.452   7.248   4.209
 7599W        W66695  33.972   7.404   3.335
 7600W        W66696  34.570   1.799  11.875
 7601W        W66697  34.390  23.112  10.940
 7602W        W66698   3.366  30.931  10.999
 7603W        W66699  16.136   5.303   2.351
 7604W        W66700   4.854   2.388   0.883
 7605W        W66701  33.946  24.063  14.398
 7606W        W66702   9.211  28.471  10.985
 7607W        W66703  18.126  30.525   0.420
 7608W        W66704  12.802  17.163  13.415
 7609W        W66705  24.655  25.970  12.072
 7610W        W66706   8.876  43.007   1.891
 7611W        W66707  11.743   2.421  12.836
 7612W        W66708  18.211  30.457  13.871
 7613W        W66709  11.224   9.673   3.779
 7614W        W66710   9.742  13.302   2.663
 7615W        W66711   5.348  32.123   4.750
 7616W        W66712  44.377   2.413   4.832
 7617W        W66713  17.610  34.888   9.579
 7618W        W66714   3.370  23.034   3.752
 7619W        W66715  11.348  26.051   1.394
 7620W        W66716   8.680  31.623  10.498
 7621W        W66717  16.598  41.892   0.419
 7622W        W66718   0.744  33.989   4.305
 7623W        W66719  30.428   3.945   0.405
 7624W        W66720  31.572   1.908   2.895
 7625W        W66721  32.518  31.908  14.458
 7626W        W66722  32.037  25.968  14.383
 7627W        W66723  16.753   4.892   1.298
 7628W        W66724  27.579  44.899  10.635
 7629W        W66725  21.704  33.574  11.439
 7630W        W66726   8.296  29.428  10.961
 7631W        W66727  15.304   9.362  10.633
 7632W        W66728  38.057  39.337  14.976
 7633W        W66729  13.793  31.987  13.843
 7634W        W66730  31.486  10.792  13.528
 7635W        W66731  41.832   9.212   3.753
 7636W        W66732   1.824  21.017   1.345
 7637W        W66733  35.867  31.124  10.459
 7638W        W66734  14.613   7.262  12.470
 7639W        W66735  36.917  17.132   4.311
 7640W        W66736  15.715  21.123   1.388
 7641W        W66737  32.465  21.245   2.725
 7642W        W66738  19.263  27.466  10.894
 7643W        W66739  29.057  40.510   1.825
 7644W        W66740  28.565  27.631  11.495
 7645W        W66741  18.054   5.373   1.448
 7646W        W66742  10.244  20.660  14.380
 7647W        W66743   5.390  40.320   0.431
 7648W        W66744  12.733  40.499  11.971
 7649W        W66745  31.531  22.586   2.900
 7650W        W66746  21.656  30.051  13.849
 7651W        W66747  37.011  36.543   3.757
 7652W        W66748  39.348  22.682  11.925
 7653W        W66749  26.691  18.102   0.943
 7654W        W66750   9.845   4.209  13.913
 7655W        W66751  24.105  21.045   1.281
 7656W        W66752   5.438   7.902  13.417
 7657W        W66753  36.394  31.993   2.260
 7658W        W66754  17.216  32.587  11.922
 7659W        W66755  37.939  22.520  11.905
 7660W        W66756   4.335  23.528  14.826
 7661W        W66757   2.386  22.513   1.333
 7662W        W66758  28.619  28.533  10.571
 7663W        W66759  15.760  33.879   1.381
 7664W        W66760  35.945  17.232  11.957
 7665W        W66761  35.003  15.261   2.798
 7666W        W66762  32.421  10.164  14.362
 7667W        W66763  27.112  29.952   1.408
 7668W        W66764  16.112   8.662   2.223
 7669W        W66765  23.490   3.858  10.449
 7670W        W66766   6.361  20.029   3.239
 7671W        W66767  14.778  12.759  14.410
 7672W        W66768  29.094   8.301  11.518
 7673W        W66769   6.676  11.303  12.006
 7674W        W66770  22.554  35.555  11.094
 7675W        W66771  32.576  37.875   3.766
 7676W        W66772  39.989   3.425   1.706
 7677W        W66773  22.602   1.954  10.897
 7678W        W66774  12.133  20.645  11.401
 7679W        W66775  35.576  35.960   2.406
 7680W        W66776  19.208  43.439  14.990
 7681W        W66777   9.260  30.549   5.276
 7682W        W66778  10.243  25.526  11.543
 7683W        W66779  12.648   9.861   4.247
 7684W        W66780  19.240  40.802   1.296
 7685W        W66781  44.405  19.700  11.506
 7686W        W66782  16.162  15.231  14.898
 7687W        W66783  16.614  44.323   1.414
 7688W        W66784  30.074   3.355  10.536
 7689W        W66785  26.580  21.017  13.442
 7690W        W66786   0.805   6.920  11.462
 7691W        W66787  11.795  40.522   4.144
 7692W        W66788   3.449  15.289   0.459
 7693W        W66789  23.041  32.407  14.940
 7694W        W66790  41.475  39.426  12.980
 7695W        W66791   7.266   6.410  12.959
 7696W        W66792  34.079  39.412  12.469
 7697W        W66793  38.488  15.316  11.410
 7698W        W66794  21.162  28.137   1.843
 7699W        W66795   7.303  36.477   4.239
 7700W        W66796   8.778  25.580  14.387
 7701W        W66797   9.291  43.878   3.249
 7702W        W66798  42.018  18.773   1.443
 7703W        W66799  13.194  43.433   4.308
 7704W        W66800  20.712  26.143  14.901
 7705W        W66801  22.021  17.658  14.782
 7706W        W66802   0.355  41.886  11.931
 7707W        W66803  20.567  25.035   0.835
 7708W        W66804   4.780  37.549  14.293
 7709W        W66805   4.832   7.255  11.033
 7710W        W66806   0.327  43.296  10.623
 7711W        W66807   0.256  25.558   2.677
 7712W        W66808  15.241  41.854   1.335
 7713W        W66809   2.798  16.088  12.442
 7714W        W66810  14.783  19.139  13.377
 7715W        W66811  26.112  26.132   0.931
 7716W        W66812  14.688  36.031  12.024
 7717W        W66813  10.207  14.162  10.435
 7718W        W66814  18.601  23.149   0.310
 7719W        W66815  33.406   2.945   1.872
 7720W        W66816   7.330   0.364  12.999
 7721W        W66817   6.416  33.979   3.800
 7722W        W66818   8.263  38.331  12.542
 7723W        W66819  22.034  13.169  10.506
 7724W        W66820  27.950  41.535  11.051
 7725W        W66821  20.648  44.802   0.264
 7726W        W66822  41.817  40.532   4.342
 7727W        W66823  31.987  31.640   2.210
 7728W        W66824  12.174  26.560   2.724
 7729W        W66825  31.647  34.488  14.401
 7730W        W66826   2.381   6.341   4.130
 7731W        W66827   2.808   1.378  14.883
 7732W        W66828  15.328  22.039   1.932
 7733W        W66829  22.614  30.422   0.364
 7734W        W66830  42.013  21.614  10.963
 7735W        W66831  21.611  36.867   1.409
 7736W        W66832   0.263   5.271  12.933
 7737W        W66833  13.328  22.673   4.753
 7738W        W66834  17.572  10.706  12.559
 7739W        W66835  26.004  15.200  14.398
 7740W        W66836  32.964  24.081  14.821
 7741W        W66837   3.709  44.468   0.919
 7742W        W66838  37.905   4.867  13.310
 7743W        W66839  16.812   4.893  12.091
 7744W        W66840  24.144  40.849  12.529
 7745W        W66841   0.477   7.849  14.783
 7746W        W66842  15.151  15.762   4.232
 7747W        W66843  10.363  35.939  13.409
 7748W        W66844  38.914  20.071   0.482
 7749W        W66845  42.905   4.363  14.957
 7750W        W66846  26.571   0.488   2.763
 7751W        W66847  36.454  10.256   2.754
 7752W        W66848  35.413  13.306   4.113
 7753W        W66849   8.796  22.596   4.296
 7754W        W66850   6.218  36.871  12.366
 7755W        W66851   1.278  34.970  13.958
 7756W        W66852  25.036   0.376   0.749
 7757W        W66853  18.199   1.870   2.327
 7758W        W66854  23.138  19.565   0.288
 7759W        W66855  30.022  41.012   2.291
 7760W        W66856  41.502  31.021  11.518
 7761W        W66857  33.568   7.398   4.714
 7762W        W66858  28.109  26.178   4.116
 7763W        W66859  36.904  40.447   1.217
 7764W        W66860  13.166  27.675  12.558
 7765W        W66861  29.152  39.372  14.379
 7766W        W66862  37.021  44.404  11.593
 7767W        W66863   4.809  13.310  12.530
 7768W        W66864  26.616  25.650   2.397
 7769W        W66865  16.776  23.676   1.417
 7770W        W66866  12.281   1.438  13.392
 7771W        W66867  27.043  43.301  13.382
 7772W        W66868  14.754   6.800  11.543
 7773W        W66869  27.490   6.236   3.869
 7774W        W66870   5.421  22.006  10.893
 7775W        W66871  38.076  31.485   2.670
 7776W        W66872  23.060  18.166   0.320
 7777W        W66873  24.142   1.429  13.411
 7778W        W66874  39.489  39.026  12.560
 7779W        W66875  23.165  30.987   1.881
 7780W        W66876  43.918  32.631  14.419
 7781W        W66877   4.219  42.367  12.048
 7782W        W66878  15.694  28.983   2.371
 7783W        W66879  29.111  11.716  13.846
 7784W        W66880  14.229  36.462   3.816
 7785W        W66881  25.666  22.030  10.636
 7786W        W66882  30.918  20.096  12.494
 7787W        W66883  43.009  20.672  12.008
 7788W        W66884  16.764   3.740   3.856
 7789W        W66885  25.141  13.770   2.775
 7790W        W66886  23.994  31.575  12.045
 7791W        W66887  43.961  29.458  14.403
 7792W        W66888  16.623  23.510  11.559
 7793W        W66889  25.592  42.513  11.001
 7794W        W66890   4.743  26.142  14.465
 7795W        W66891  41.475  23.125   3.351
 7796W        W66892  42.840  23.641   1.910
 7797W        W66893   9.819  25.040   1.355
 7798W        W66894  14.285  39.973   1.382
 7799W        W66895  33.609   0.761   2.296
 7800W        W66896  36.027   8.167   0.928
 7801W        W66897  10.661  22.667   3.351
 7802W        W66898  38.937  36.901   4.628
 7803W        W66899  19.204  39.820   0.892
 7804W        W66900  40.883  39.370  14.332
 7805W        W66901  33.085  14.714   5.736
 7806W        W66902   8.871  39.822  13.418
 7807W        W66903  44.390  30.070  11.000
 7808W        W66904  32.957   6.690  14.992
 7809W        W66905  27.627   1.939   1.260
 7810W        W66906   9.202  31.540   3.354
 7811W        W66907  15.731  16.209  12.369
 7812W        W66908  26.468  23.196  14.447
 7813W        W66909   7.406   7.287   3.847
 7814W        W66910  22.527  13.782  14.327
 7815W        W66911  27.043  17.300  13.438
 7816W        W66912   4.227  22.597   1.396
 7817W        W66913  23.040   8.756   0.351
 7818W        W66914  32.462  10.780   2.871
 7819W        W66915  13.189  28.650  14.848
 7820W        W66916  27.570  31.597   1.330
 7821W        W66917  37.387  41.947  14.883
 7822W        W66918  20.751  22.617  14.870
 7823W        W66919  27.567   3.909   4.133
 7824W        W66920  17.713  33.104   3.276
 7825W        W66921  41.437  26.026   2.313
 7826W        W66922  17.120  15.790  10.454
 7827W        W66923  17.226  34.949   0.376
 7828W        W66924  10.186  17.726   2.786
 7829W        W66925   4.385  23.599  13.051
 7830W        W66926   5.209  36.018  14.818
 7831W        W66927   9.713  23.153  11.859
 7832W        W66928   4.884   4.273   1.275
 7833W        W66929  26.119  44.278   2.396
 7834W        W66930  23.199  33.882  14.770
 7835W        W66931  28.625   8.740  11.512
 7836W        W66932  20.695  15.129  14.469
 7837W        W66933  35.884  31.899  12.359
 7838W        W66934  34.392  21.060  11.973
 7839W        W66935  37.928   1.948  13.352
 7840W        W66936  22.746  10.152   4.738
 7841W        W66937  41.940   6.797  12.348
 7842W        W66938  20.677   5.386   1.754
 7843W        W66939  35.893  21.518  13.478
 7844W        W66940  43.494  19.211   3.266
 7845W        W66941  32.601  31.079   1.232
 7846W        W66942   7.187  21.581  12.091
 7847W        W66943   0.442  28.983  14.295
 7848W        W66944  39.541  19.162   2.695
 7849W        W66945   8.170   0.482   4.832
 7850W        W66946   6.362  32.556  14.839
 7851W        W66947   3.919  27.957  10.960
 7852W        W66948  12.698  15.153  13.946
 7853W        W66949  33.114  34.908   2.299
 7854W        W66950  29.464   8.351   2.310
 7855W        W66951  30.941   2.751   2.369
 7856W        W66952  16.577   9.870   4.802
 7857W        W66953  32.488  42.302  12.918
 7858W        W66954  16.282  23.584  12.461
 7859W        W66955  16.594  21.701  12.880
 7860W        W66956  44.302  13.840  11.539
 7861W        W66957  42.423  20.695   1.321
 7862W        W66958  38.326  44.334   2.724
 7863W        W66959  22.252  33.973  13.062
 7864W        W66960  14.667  25.545   3.855
 7865W        W66961  21.523  39.935   4.120
 7866W        W66962  26.191  13.250   2.392
 7867W        W66963  20.575  28.441   0.337
 7868W        W66964  23.625  10.736  11.953
 7869W        W66965   0.892  13.676  10.609
 7870W        W66966  32.546  29.116   1.810
 7871W        W66967   2.765  11.286   2.356
 7872W        W66968  16.665  41.497  10.569
 7873W        W66969  34.371  42.883   3.849
 7874W        W66970  44.850   3.427  13.905
 7875W        W66971   8.214  14.303  13.029
 7876W        W66972   6.357   9.288  11.493
 7877W        W66973  19.640   9.334   1.290
 7878W        W66974  26.471  28.437  11.085
 7879W        W66975  13.317  39.965  11.912
 7880W        W66976  44.381  25.654   0.897
 7881W        W66977  20.194   1.819  14.462
 7882W        W66978  42.868  38.064   1.843
 7883W        W66979   4.835  19.073   3.342
 7884W        W66980  28.162  36.453  14.803
 7885W        W66981  21.208  39.004  11.095
 7886W        W66982  20.055  23.227   1.302
 7887W        W66983  30.459   5.390   3.632
 7888W        W66984  39.447  29.589  14.786
 7889W        W66985  31.406   1.429   2.306
 7890W        W66986  19.246  13.329  14.856
 7891W        W66987  33.469  30.086   4.225
 7892W        W66988  16.251  40.371   4.191
 7893W        W66989  39.531  29.996   2.188
 7894W        W66990   4.806  15.651  10.584
 7895W        W66991  18.704   3.374   3.866
 7896W        W66992  43.791  14.652  13.950
 7897W        W66993   5.857  22.164  14.822
 7898W        W66994   6.270   1.952   3.212
 7899W        W66995  43.427   4.356  14.938
 7900W        W66996  25.022  37.843   0.381
 7901W        W66997  42.844  10.848  13.907
 7902W        W66998  30.476  21.168   2.829
 7903W        W66999   1.287   0.261  10.463
 7904W        W67000  18.160   5.313  14.970
 7905W        W67001  31.624  17.297   3.299
 7906W        W67002  25.206  34.034   3.673
 7907W        W67003  16.262  11.214   0.265
 7908W        W67004  39.841   0.301  12.450
 7909W        W67005  17.169  38.568   4.149
 7910W        W67006  36.858  36.847   3.869
 7911W        W67007  11.841  35.063  11.116
 7912W        W67008  14.656  32.610  13.804
 7913W        W67009   0.953  38.421  10.930
 7914W        W67010  31.985  24.699   3.335
 7915W        W67011  24.080  20.230   0.339
 7916W        W67012  13.673   3.409   3.192
 7917W        W67013   5.331  11.318  13.343
 7918W        W67014  28.541  43.792  11.599
 7919W        W67015  41.813  32.399   4.251
 7920W        W67016  12.836  24.635   3.202
 7921W        W67017  24.635  13.116  12.920
 7922W        W67018  14.324  34.470  14.288
 7923W        W67019  27.531  10.727   2.289
 7924W        W67020  42.416  24.481   0.432
 7925W        W67021  40.801   3.858  13.915
 7926W        W67022  27.532  10.207  10.942
 7927W        W67023  11.159  37.831  14.385
 7928W        W67024  30.423  41.861  12.527
 7929W        W67025  28.101  38.839   3.218
 7930W        W67026  43.790   8.758  13.901
 7931W        W67027  17.242  22.593   4.219
 7932W        W67028  14.788  19.690  14.811
 7933W        W67029  28.474  32.609   0.417
 7934W        W67030   8.822  34.493   0.374
 7935W        W67031  34.119  10.804  10.512
 7936W        W67032   4.412  35.588   1.214
 7937W        W67033  24.531  43.958   4.116
 7938W        W67034  25.110  17.655  10.131
 7939W        W67035  36.425  41.408   1.403
 7940W        W67036  36.430  21.207   1.283
 7941W        W67037   2.272  33.463  13.402
 7942W        W67038  35.429  26.038   2.254
 7943W        W67039  43.831  30.463   0.368
 7944W        W67040  35.995  30.045  12.025
 7945W        W67041   1.765  27.637   2.712
 7946W        W67042  24.483  21.587   2.798
 7947W        W67043  31.912  44.381   0.947
 7948W        W67044   9.718   1.238  13.492
 7949W        W67045  20.240  41.376  13.428
 7950W        W67046  44.791   9.743  10.456
 7951W        W67047  40.858  42.366  11.487
 7952W        W67048  38.384  35.040   0.942
 7953W        W67049  12.258  41.796  13.433
 7954W        W67050  43.827  35.001  13.484
 7955W        W67051  42.316  44.480  14.475
 7956W        W67052   4.390   1.852  11.416
 7957W        W67053  31.002  41.405   4.611
 7958W        W67054  22.712  36.416   2.218
 7959W        W67055  44.854   6.904   3.329
 7960W        W67056  11.645  36.922  11.100
 7961W        W67057  16.257   6.199  11.491
 7962W        W67058  35.038  12.710   4.176
 7963W        W67059  30.103  34.455   4.735
 7964W        W67060  10.730  34.927   3.215
 7965W        W67061   6.425  11.830  11.917
 7966W        W67062  15.216  38.402  11.512
 7967W        W67063  37.386  25.478  12.573
 7968W        W67064  40.053  33.054  13.546
 7969W        W67065  20.638  19.662  10.928
 7970W        W67066  34.025  40.354   3.195
 7971W        W67067  24.656  31.439  14.977
 7972W        W67068  27.073   1.800  13.472
 7973W        W67069   4.429  20.692  12.429
 7974W        W67070   3.820   1.446  14.804
 7975W        W67071  18.090  38.342   4.720
 7976W        W67072  18.562  35.052   0.942
 7977W        W67073  11.144  37.935  11.009
 7978W        W67074  41.416  33.109  13.522
 7979W        W67075  26.473  34.571  13.328
 7980W        W67076  33.041  43.279  12.438
 7981W        W67077  44.459  32.946  11.080
 7982W        W67078  41.891  29.594   4.303
 7983W        W67079  23.636  29.648  14.376
 7984W        W67080  36.929  19.579  13.978
 7985W        W67081  38.980  40.373   0.786
 7986W        W67082  10.147   0.940  10.594
 7987W        W67083  42.462  11.823  13.944
 7988W        W67084  26.140  25.690  10.540
 7989W        W67085  13.648   6.861   0.773
 7990W        W67086  19.163  29.982   2.785
 7991W        W67087  19.274  23.643  14.334
 7992W        W67088  13.800  37.433  11.508
 7993W        W67089   5.746   2.269   4.824
 7994W        W67090  23.133  26.097   2.401
 7995W        W67091   2.450  42.814  11.576
 7996W        W67092   8.888  30.558   2.326
 7997W        W67093  37.560  35.535  11.939
 7998W        W67094  21.697  32.103   3.739
 7999W        W67095  19.609   3.784  10.557
 8000W        W67096  11.819   4.355   2.274
 8001W        W67097  23.562  32.504   0.416
 8002W        W67098  39.045  11.269  13.964
 8003W        W67099  29.616  39.389   3.224
 8004W        W67100  32.621  16.714  12.091
 8005W        W67101  27.538   0.396  14.945
 8006W        W67102   1.805  42.492   2.827
 8007W        W67103  33.063  25.147  13.950
 8008W        W67104  40.920   8.792   3.828
 8009W        W67105  24.638  28.109  14.275
 8010W        W67106  40.042  17.098   1.807
 8011W        W67107  19.059  15.118   4.747
 8012W        W67108  22.175  41.308   2.685
 8013W        W67109  25.521  18.109  11.448
 8014W        W67110  44.002   4.804   0.465
 8015W        W67111  42.809  27.685   0.738
 8016W        W67112  41.878   9.807  11.855
 8017W        W67113   5.246  29.643   4.188
 8018W        W67114  32.990  30.115  14.453
 8019W        W67115  26.104  40.914  13.541
 8020W        W67116  40.312  29.096  14.933
 8021W        W67117  22.154  26.107  13.311
 8022W        W67118  43.982  42.441   4.208
 8023W        W67119   4.915  43.996   1.845
 8024W        W67120  11.660  36.952  14.001
 8025W        W67121   3.286  28.941  11.580
 8026W        W67122  24.113  12.244  11.551
 8027W        W67123  31.600   8.386  12.428
 8028W        W67124  38.833   3.382  13.444
 8029W        W67125  19.056  29.578   1.709
 8030W        W67126   4.765  13.800  11.611
 8031W        W67127  39.879  18.198   1.714
 8032W        W67128  29.436  40.485   4.619
 8033W        W67129  10.855  36.352  13.522
 8034W        W67130  12.302  41.959   3.787
 8035W        W67131  37.380  38.542   0.254
 8036W        W67132  24.619   4.316   3.248
 8037W        W67133   3.283  31.013  12.018
 8038W        W67134  17.129   7.292   4.242
 8039W        W67135  25.075  17.724   3.746
 8040W        W67136  23.048  37.007   2.267
 8041W        W67137  15.591   8.672   1.424
 8042W        W67138  15.624   0.372  14.787
 8043W        W67139  20.589  29.595   4.311
 8044W        W67140  37.921  40.362  11.486
 8045W        W67141  12.302  17.745   3.719
 8046W        W67142  11.269   8.315  12.363
 8047W        W67143  26.676  36.428  11.485
 8048W        W67144  26.633   2.453  11.555
 8049W        W67145  38.951   5.760   4.334
 8050W        W67146  27.093  28.011   3.303
 8051W        W67147  38.974   5.196   2.669
 8052W        W67148  26.531   4.778   1.877
 8053W        W67149  22.583   8.737   3.741
 8054W        W67150  28.088  39.844   4.653
 8055W        W67151  31.113  16.290  11.482
 8056W        W67152   0.453  10.330   1.854
 8057W        W67153  11.142   1.237  12.925
 8058W        W67154  44.347   8.185  11.377
 8059W        W67155  34.414  25.158   5.177
 8060W        W67156  30.465  44.349  13.052
 8061W        W67157  31.541  11.211  14.817
 8062W        W67158  30.630   7.415   2.216
 8063W        W67159  44.437   5.728  14.996
 8064W        W67160  37.974   9.786  11.570
 8065W        W67161  26.040  42.516   1.770
 8066W        W67162  28.023   1.402  10.981
 8067W        W67163  29.115  20.625  14.772
 8068W        W67164   2.839  33.596  14.908
 8069W        W67165  16.720  35.016   5.100
 8070W        W67166  20.570   1.478   3.383
 8071W        W67167  18.734  26.086   0.447
 8072W        W67168   0.381   3.433  14.514
 8073W        W67169  32.088  17.650  11.512
 8074W        W67170  39.875   0.364  11.376
 8075W        W67171  29.024  19.184   0.758
 8076W        W67172  20.605  28.995  12.347
 8077W        W67173  29.548  19.698  11.026
 8078W        W67174  23.710  21.577   4.817
 8079W        W67175  36.435  35.502   3.636
 8080W        W67176  12.622  29.137   3.633
 8081W        W67177   0.350  10.761   0.471
 8082W        W67178  30.987  41.493   4.189
 8083W        W67179  14.653  20.046   4.694
 8084W        W67180  21.531  16.753  11.544
 8085W        W67181  10.809  29.935  12.024
 8086W        W67182   2.850  36.072  13.024
 8087W        W67183  42.378   8.690  13.881
 8088W        W67184  11.213  14.834  13.859
 8089W        W67185   1.834   2.727   2.851
 8090W        W67186   4.271  24.535  14.029
 8091W        W67187  21.017  32.059  13.881
 8092W        W67188  38.984   3.912  11.402
 8093W        W67189  26.049   0.324   0.322
 8094W        W67190   8.670  37.023  11.591
 8095W        W67191  37.408  38.550   3.345
 8096W        W67192  12.746  25.470  14.484
 8097W        W67193  25.582   8.856   0.289
 8098W        W67194  30.562   6.224  10.982
 8099W        W67195  18.593  17.237   1.291
 8100W        W67196   1.253  33.502   4.210
 8101W        W67197   1.799  39.462  13.036
 8102W        W67198  15.619  36.932   9.654
 8103W        W67199  29.482  17.281   5.295
 8104W        W67200  35.950  43.405  12.975
 8105W        W67201  37.980  40.416   0.742
 8106W        W67202  37.467  21.571   4.655
 8107W        W67203  25.598  17.270   3.750
 8108W        W67204  29.610  18.621   4.836
 8109W        W67205  29.145  14.699  11.990
 8110W        W67206  37.832  20.233   0.760
 8111W        W67207  26.520  38.841  13.820
 8112W        W67208   4.223  23.674  11.385
 8113W        W67209  32.062  22.627   0.286
 8114W        W67210  43.772  25.188   3.275
 8115W        W67211  25.146   6.292  11.546
 8116W        W67212  10.333  24.601  13.503
 8117W        W67213  16.221  30.596  13.453
 8118W        W67214  35.407  17.131  10.434
 8119W        W67215   4.811  41.818  10.511
 8120W        W67216  16.609   1.260   0.820
 8121W        W67217  29.629  25.669  14.481
 8122W        W67218  44.426  19.136   4.652
 8123W        W67219  34.895  21.675  10.950
 8124W        W67220  21.619  37.848  12.889
 8125W        W67221  17.594  27.160   3.148
 8126W        W67222  24.585  37.470   3.272
 8127W        W67223  14.302  28.499  11.055
 8128W        W67224  36.384  38.951  11.873
 8129W        W67225  39.466  31.584   3.384
 8130W        W67226  25.495   4.700   5.190
 8131W        W67227  44.402  42.958   0.904
 8132W        W67228  32.438  24.613  14.014
 8133W        W67229  14.772  26.528   2.189
 8134W        W67230   3.851  26.099   0.822
 8135W        W67231  15.159  12.278   3.756
 8136W        W67232  28.089   4.776  10.002
 8137W        W67233  21.193   1.338  14.031
 8138W        W67234  14.311  15.797  12.044
 8139W        W67235  24.613  35.076   4.275
 8140W        W67236   4.297  44.464   4.772
 8141W        W67237   0.979  25.644  12.423
 8142W        W67238  12.690  35.903  14.966
 8143W        W67239  40.303  17.719   1.251
 8144W        W67240  32.955  10.756  14.869
 8145W        W67241  21.240  28.626  11.382
 8146W        W67242  30.088  17.612   4.660
 8147W        W67243  27.168  23.053  10.480
 8148W        W67244   8.853  13.329  12.518
 8149W        W67245  18.060  37.402  11.870
 8150W        W67246   0.787   4.813  12.860
 8151W        W67247  23.053  31.018   4.186
 8152W        W67248  25.608  27.583   2.664
 8153W        W67249  22.502  24.112  14.312
 8154W        W67250  25.499   2.314  10.448
 8155W        W67251  33.441  35.966  12.051
 8156W        W67252  40.801   1.938   3.337
 8157W        W67253   8.785  29.501   4.131
 8158W        W67254   8.755  43.848  14.289
 8159W        W67255  22.052  42.469  12.552
 8160W        W67256  38.361  28.947   2.752
 8161W        W67257  15.133  29.103  12.448
 8162W        W67258  10.375  26.994  14.290
 8163W        W67259  16.627  10.204   4.135
 8164W        W67260  37.381  12.300  12.084
 8165W        W67261  21.110  31.554   3.360
 8166W        W67262  26.645  33.602  13.508
 8167W        W67263   9.180  26.060  14.913
 8168W        W67264   1.863  21.645  12.974
 8169W        W67265  15.790  22.587  12.009
 8170W        W67266   9.825  44.336  10.587
 8171W        W67267  22.509  29.597  11.525
 8172W        W67268   4.261   3.365   0.365
 8173W        W67269  25.520   2.247  14.980
 8174W        W67270  13.732   3.847  10.444
 8175W        W67271  43.893   8.681   0.400
 8176W        W67272  26.036  42.786   1.333
 8177W        W67273  24.103  23.597   1.725
 8178W        W67274  31.107  25.111   1.794
 8179W        W67275  16.304  35.364   2.300
 8180W        W67276  29.523  36.440  12.017
 8181W        W67277   1.288   2.790  11.538
 8182W        W67278  41.330   0.775  12.001
 8183W        W67279  26.118  38.060   4.192
 8184W        W67280  42.830   5.699  12.036
 8185W        W67281  22.080  29.642  10.942
 8186W        W67282  10.872  11.848   1.442
 8187W        W67283  31.977  33.616  11.495
 8188W        W67284  21.602  24.567   2.261
 8189W        W67285  37.425  27.481   0.882
 8190W        W67286  31.433  42.368  11.857
 8191W        W67287  44.305  33.118   0.307
 8192W        W67288  40.486   2.851  14.297
 8193W        W67289   3.824  24.555   5.174
 8194W        W67290  43.001  39.891  10.568
 8195W        W67291  38.007  29.088   3.651
 8196W        W67292  20.644  16.223  14.899
 8197W        W67293  11.229   5.857  10.422
 8198W        W67294   2.779  15.635  11.574
 8199W        W67295  23.636  33.906   1.847
 8200W        W67296  13.789  31.132   2.858
 8201W        W67297   1.922  33.605   1.386
 8202W        W67298  13.681  31.419   2.277
 8203W        W67299  43.796   2.323   3.800
 8204W        W67300  43.340  18.063  12.949
 8205W        W67301   4.712  20.589  12.475
 8206W        W67302  37.469  35.557   4.122
 8207W        W67303  15.728  25.589   0.749
 8208W        W67304  32.975  15.109   2.834
 8209W        W67305  24.571  32.021   2.182
 8210W        W67306   0.764  30.043   1.359
 8211W        W67307  13.186  37.397   3.361
 8212W        W67308   2.331   2.447   3.795
 8213W        W67309  14.814   0.900  12.562
 8214W        W67310   9.723  28.441  13.969
 8215W        W67311   8.366   7.666  13.005
 8216W        W67312  25.199  16.706   4.802
 8217W        W67313  27.942   1.769  10.123
 8218W        W67314  19.737  35.944   2.391
 8219W        W67315  39.453  30.432  14.412
 8220W        W67316  30.963  12.328   1.432
 8221W        W67317   2.905  20.693   3.671
 8222W        W67318   6.705   9.248   3.751
 8223W        W67319  25.165  35.434  12.901
 8224W        W67320  32.026  34.991  12.091
 8225W        W67321  39.476  38.538  14.459
 8226W        W67322  30.466   0.874   3.154
 8227W        W67323  42.420  22.719  14.399
 8228W        W67324  16.181  36.915   2.822
 8229W        W67325  29.448  29.016  11.603
 8230W        W67326  32.047   7.328  12.456
 8231W        W67327  33.123  18.647  12.527
 8232W        W67328  27.190  17.687   3.667
 8233W        W67329   6.197  13.651  10.420
 8234W        W67330  42.864  23.196  14.874
 8235W        W67331  24.676  42.500   0.341
 8236W        W67332  39.860  44.433  11.575
 8237W        W67333  29.559  30.489  11.912
 8238W        W67334  16.742  39.981  11.574
 8239W        W67335  38.070  16.193   2.290
 8240W        W67336   3.917   2.345   3.306
 8241W        W67337  25.553  32.514  12.354
 8242W        W67338  39.529  29.924  12.059
 8243W        W67339  17.794   6.718  12.370
 8244W        W67340  24.481  25.981   4.780
 8245W        W67341  14.811   9.338  13.896
 8246W        W67342  17.606  25.685   4.227
 8247W        W67343  32.630  17.741   0.935
 8248W        W67344  10.383  39.394  11.868
 8249W        W67345  16.080   3.249  14.275
 8250W        W67346   8.733  17.088   5.155
 8251W        W67347  22.609  27.512   2.774
 8252W        W67348  18.593  18.284   4.629
 8253W        W67349  27.099   0.287  10.420
 8254W        W67350  29.927   7.714   1.411
 8255W        W67351  32.058  19.170  11.122
 8256W        W67352  22.169  15.792   3.185
 8257W        W67353  29.482   4.851  14.028
 8258W        W67354   6.696  24.559  12.915
 8259W        W67355  29.138  25.995   0.915
 8260W        W67356   4.263  19.050  14.957
 8261W        W67357   0.291   4.885  10.603
 8262W        W67358  11.859  19.560   1.866
 8263W        W67359  18.764  38.443  14.869
 8264W        W67360  28.670   4.736   0.827
 8265W        W67361  23.047   8.258  13.986
 8266W        W67362  20.612  28.463   4.195
 8267W        W67363   3.874  36.078   3.791
 8268W        W67364   3.260  27.461  13.511
 8269W        W67365  21.669  26.040  13.795
 8270W        W67366  27.686  18.289  12.065
 8271W        W67367  32.578  17.125   2.381
 8272W        W67368   3.743  44.757   1.341
 8273W        W67369  22.597  26.517  14.797
 8274W        W67370  29.633   6.380   4.765
 8275W        W67371  38.882  29.447  10.416
 8276W        W67372   2.238   1.276  13.886
 8277W        W67373  18.632  35.480   4.629
 8278W        W67374  10.282  38.522  10.462
 8279W        W67375  22.739  31.114   3.840
 8280W        W67376  31.960   8.198   0.413
 8281W        W67377  19.101   1.268  12.485
 8282W        W67378  38.476  36.985   1.917
 8283W        W67379  23.607  28.566  13.064
 8284W        W67380  19.174  13.116   3.654
 8285W        W67381  29.967   6.870   4.728
 8286W        W67382  22.667   1.838   3.250
 8287W        W67383  28.978  30.429  11.529
 8288W        W67384  36.930  18.719   0.937
 8289W        W67385  44.262   8.348  11.976
 8290W        W67386  40.824  39.508  13.037
 8291W        W67387  14.651  13.187   2.233
 8292W        W67388  20.224  13.283  13.415
 8293W        W67389  35.000  17.156  12.842
 8294W        W67390  11.837   0.410   4.230
 8295W        W67391  38.959  15.775   4.811
 8296W        W67392  22.043  35.978   4.643
 8297W        W67393  44.295  35.096   3.672
 8298W        W67394  25.976  14.728   1.741
 8299W        W67395  37.571   3.714   1.792
 8300W        W67396  43.019  43.971  12.038
 8301W        W67397  36.082  39.488   4.731
 8302W        W67398  11.311  13.746  11.509
 8303W        W67399  11.677   8.291   1.694
 8304W        W67400   3.405   1.978   0.324
 8305W        W67401  31.410  40.942  14.515
 8306W        W67402  34.600  34.022  10.414
 8307W        W67403  21.150  30.443  11.489
 8308W        W67404   9.188  44.806  11.104
 8309W        W67405  24.587  29.963   4.765
 8310W        W67406  16.123  17.069   4.198
 8311W        W67407   9.390  33.067   1.698
 8312W        W67408  21.607  16.751   2.222
 8313W        W67409  33.014  40.527   2.329
 8314W        W67410  22.120  15.097  14.425
 8315W        W67411   8.396  10.649   3.318
 8316W        W67412  41.810  15.218  11.459
 8317W        W67413   4.743   9.848  14.492
 8318W        W67414   5.196  27.510  13.929
 8319W        W67415  17.167  33.878  14.311
 8320W        W67416  28.681  22.644   4.810
 8321W        W67417  16.733   0.773  13.469
 8322W        W67418   8.164  24.615   5.156
 8323W        W67419  23.659  15.235   4.693
 8324W        W67420   7.679  32.592   4.113
 8325W        W67421  43.471  10.854  11.890
 8326W        W67422   6.848  38.453   4.136
 8327W        W67423   8.726  33.596  11.081
 8328W        W67424  37.881  19.073  13.028
 8329W        W67425  12.305   8.845  13.917
 8330W        W67426  39.471  34.567   3.270
 8331W        W67427  29.500  12.661  14.387
 8332W        W67428  44.268  18.176  13.996
 8333W        W67429  21.202   6.689  10.482
 8334W        W67430  29.585  40.019  12.859
 8335W        W67431  36.540  29.078  11.071
 8336W        W67432  22.583   1.763   0.738
 8337W        W67433   4.887  21.168  13.834
 8338W        W67434  22.608   2.444  13.406
 8339W        W67435  41.799  13.736  10.473
 8340W        W67436  29.931  11.666   3.175
 8341W        W67437  15.688  12.277  12.965
 8342W        W67438  44.280  12.317  14.013
 8343W        W67439  11.205  26.130  11.944
 8344W        W67440  21.086   2.343  14.338
 8345W        W67441  42.867   0.329  12.045
 8346W        W67442  12.645  20.553  14.387
 8347W        W67443  13.138  29.949   2.413
 8348W        W67444   1.350  12.848   4.826
 8349W        W67445  40.540   9.712   2.300
 8350W        W67446  41.468  43.415  12.830
 8351W        W67447  11.811  18.772   1.885
 8352W        W67448  43.314  35.362   1.314
 8353W        W67449   6.358   5.908   0.863
 8354W        W67450  30.132  10.801   3.827
 8355W        W67451  43.505   5.329   3.838
 8356W        W67452  37.547  36.561  13.424
 8357W        W67453   4.825  39.005  12.942
 8358W        W67454  29.527  17.204  14.961
 8359W        W67455  24.621  40.935   2.353
 8360W        W67456  34.432  33.523  11.432
 8361W        W67457  37.406   0.976   3.675
 8362W        W67458  22.627  33.614   0.860
 8363W        W67459  35.362  37.548  11.929
 8364W        W67460  17.065   1.799  13.318
 8365W        W67461  30.043   6.787   2.305
 8366W        W67462  30.123  25.697  14.979
 8367W        W67463  33.128  31.020   3.635
 8368W        W67464  43.323  29.651   2.406
 8369W        W67465   1.879  29.085  14.017
 8370W        W67466  17.062  36.502   1.731
 8371W        W67467  44.794  34.994   3.287
 8372W        W67468  38.569  14.220  10.067
 8373W        W67469  17.579  12.625   1.783
 8374W        W67470  23.619  37.525  13.413
 8375W        W67471  38.328  43.472   0.876
 8376W        W67472  11.140  42.446  10.487
 8377W        W67473  22.238  13.199   2.197
 8378W        W67474  32.071  22.201   4.159
 8379W        W67475  17.645  22.501  14.488
 8380W        W67476  35.413  24.514  10.579
 8381W        W67477   7.316  31.047   2.341
 8382W        W67478  15.793  16.652   1.929
 8383W        W67479  23.036  24.988  14.926
 8384W        W67480   9.374  23.022   4.304
 8385W        W67481  12.196  30.450   5.574
 8386W        W67482  10.222  33.961  12.088
 8387W        W67483   9.769  15.801  14.371
 8388W        W67484   1.831  23.551   4.688
 8389W        W67485  14.133  40.395  13.526
 8390W        W67486  31.138  44.259   2.230
 8391W        W67487  17.643   2.286   3.776
 8392W        W67488  41.912  40.024   0.448
 8393W        W67489  24.574  35.999  12.838
 8394W        W67490  41.936  19.548  10.606
 8395W        W67491   8.324  26.605   1.920
 8396W        W67492  20.092  15.636   0.450
 8397W        W67493  34.582  12.213   3.740
 8398W        W67494  42.367  29.553   4.312
 8399W        W67495  44.358  44.344  13.367
 8400W        W67496  35.413  22.651  12.559
 8401W        W67497  27.002  22.251   0.419
 8402W        W67498  27.562  26.102   0.410
 8403W        W67499   5.420  31.489  13.991
 8404W        W67500  18.545  26.548  14.983
 8405W        W67501  44.266  43.964  13.932
 8406W        W67502  20.564  38.024   1.778
 8407W        W67503  23.171  17.644   3.326
 8408W        W67504  32.546  43.814  14.843
 8409W        W67505  30.086  27.615   2.736
 8410W        W67506  18.239   2.252   1.930
 8411W        W67507   2.773   7.795  14.422
 8412W        W67508  44.799  16.666  13.877
 8413W        W67509  30.949  40.941  10.568
 8414W        W67510  37.531  12.147  14.506
 8415W        W67511  33.973  19.714   2.793
 8416W        W67512  19.670  26.464  13.444
 8417W        W67513  19.057  42.488   2.713
 8418W        W67514   0.923   3.717   3.300
 8419W        W67515  28.155  27.136  10.645
 8420W        W67516   8.801  42.855   5.261
 8421W        W67517  20.719  33.022  13.432
 8422W        W67518  12.657  28.052  11.386
 8423W        W67519  20.217  23.230   1.838
 8424W        W67520  22.549  30.462  10.561
 8425W        W67521  11.700  44.852  13.041
 8426W        W67522  32.420   6.865   2.241
 8427W        W67523  31.547  42.973  11.387
 8428W        W67524  11.234  27.058   2.230
 8429W        W67525   9.829   3.441  14.398
 8430W        W67526  44.824  17.681  11.977
 8431W        W67527  30.093  32.509  11.383
 8432W        W67528  11.300   9.362  14.358
 8433W        W67529  11.313  32.410   1.906
 8434W        W67530  44.007  32.943  12.969
 8435W        W67531  37.365  27.142  13.497
 8436W        W67532  40.971  27.136  12.449
 8437W        W67533   7.761  32.610   3.239
 8438W        W67534  41.518  12.235  11.918
 8439W        W67535  31.527  18.103   4.327
 8440W        W67536  23.706  30.966   2.410
 8441W        W67537  43.981  44.975   1.444
 8442W        W67538  20.695   9.370  12.877
 8443W        W67539  41.495  21.210   0.247
 8444W        W67540  10.325  35.086   4.278
 8445W        W67541  16.750  11.834   0.958
 8446W        W67542  26.480  11.333  10.596
 8447W        W67543  39.498  17.082   0.880
 8448W        W67544  14.797  36.002   0.837
 8449W        W67545  24.130  38.543  10.522
 8450W        W67546  40.845  11.274   0.412
 8451W        W67547  31.463  37.442  12.888
 8452W        W67548  10.849  38.331   4.665
 8453W        W67549  22.667   2.396  12.952
 8454W        W67550  27.580   9.350  10.550
 8455W        W67551  40.439  32.434  10.439
 8456W        W67552  22.042   0.292   2.709
 8457W        W67553  20.734  31.952  11.884
 8458W        W67554  37.923  32.423  13.006
 8459W        W67555  37.057  36.026  13.025
 8460W        W67556  12.810  26.560  12.056
 8461W        W67557  17.255   9.719  11.497
 8462W        W67558  11.326  35.417   0.827
 8463W        W67559  28.958  20.748   5.676
 8464W        W67560  36.879  42.370   2.404
 8465W        W67561  40.019   1.416  13.811
 8466W        W67562  20.713   8.341  13.828
 8467W        W67563  10.835  44.787  13.493
 8468W        W67564  13.222  12.314   1.318
 8469W        W67565   4.351   1.918  13.540
 8470W        W67566   1.464  34.932   2.214
 8471W        W67567  34.038  34.581  10.572
 8472W        W67568  38.823  19.649  13.060
 8473W        W67569  17.749  16.695   1.797
 8474W        W67570  44.272  40.016  12.411
 8475W        W67571  11.698  18.633   2.291
 8476W        W67572  27.032  20.547   1.239
 8477W        W67573   9.271  41.435   4.788
 8478W        W67574  44.913  31.907   0.829
 8479W        W67575  14.225  29.125   9.998
 8480W        W67576  29.975  39.021   0.454
 8481W        W67577   3.451  14.194  14.475
 8482W        W67578  19.196  19.617   4.131
 8483W        W67579  19.640  31.908  11.870
 8484W        W67580  40.045  31.470  11.080
 8485W        W67581  31.975  29.125  10.621
 8486W        W67582  27.027  19.605   2.309
 8487W        W67583  33.403  22.574   3.775
 8488W        W67584  43.768  10.232  14.922
 8489W        W67585  33.417  17.225   3.274
 8490W        W67586  12.735  34.929   3.296
 8491W        W67587   2.429  37.863  12.347
 8492W        W67588  33.097   2.397   0.795
 8493W        W67589  22.551  41.401  10.551
 8494W        W67590  42.297  12.146   3.806
 8495W        W67591   9.870  24.614  10.995
 8496W        W67592  20.036  39.466  10.639
 8497W        W67593  29.055  24.674   4.806
 8498W        W67594  21.589  30.016  12.394
 8499W        W67595  22.544   2.799  10.895
 8500W        W67596  37.026  27.626   2.233
 8501W        W67597  27.487  42.796  10.565
 8502W        W67598  42.301  25.131  10.569
 8503W        W67599  28.007  12.259  12.052
 8504W        W67600  30.641  12.706  10.549
 8505W        W67601   4.421  30.981  10.932
 8506W        W67602  38.988  40.985  12.551
 8507W        W67603  29.510  39.009   3.728
 8508W        W67604  23.174  18.211   1.823
 8509W        W67605  18.633   1.336   1.214
 8510W        W67606  39.954   4.700   1.809
 8511W        W67607  20.729   7.316  13.933
 8512W        W67608  28.633   2.287   4.230
 8513W        W67609  24.594   4.432  11.946
 8514W        W67610  24.523  18.119  14.380
 8515W        W67611  31.949  38.339  11.494
 8516W        W67612  28.517  26.521   3.148
 8517W        W67613  18.122   4.778   2.801
 8518W        W67614  17.640  38.528   5.584
 8519W        W67615  36.073  35.861   1.750
 8520W        W67616  42.376  35.503   0.458
 8521W        W67617  14.103  32.596   2.855
 8522W        W67618  32.079  21.727  12.975
 8523W        W67619   2.365   4.446  12.417
 8524W        W67620  29.641  10.171  10.073
 8525W        W67621   6.885  15.579   4.337
 8526W        W67622   8.801  29.170  13.881
 8527W        W67623   4.807  26.467   3.841
 8528W        W67624  41.345   3.881  10.985
 8529W        W67625  36.462  18.561   0.368
 8530W        W67626  38.532  14.821   0.950
 8531W        W67627  23.731  13.817  14.355
 8532W        W67628  15.141  19.261  12.866
 8533W        W67629  14.832  31.142   2.784
 8534W        W67630   0.339   5.403   1.428
 8535W        W67631  39.347  26.627  12.980
 8536W        W67632  42.436  26.130   2.271
 8537W        W67633  38.867  44.780  14.288
 8538W        W67634   8.351  29.475  14.940
 8539W        W67635  34.926  31.153   1.358
 8540W        W67636  18.563  18.244   2.732
 8541W        W67637  39.892  15.122  11.044
 8542W        W67638   8.363   3.296   1.923
 8543W        W67639   1.790   3.720  13.926
 8544W        W67640  25.146  10.312   0.445
 8545W        W67641  43.868   9.835  13.843
 8546W        W67642  37.345   4.916   3.841
 8547W        W67643   3.866  22.699  12.568
 8548W        W67644   5.809  18.599  12.923
 8549W        W67645  21.655  14.159   4.672
 8550W        W67646  31.451  43.812  13.815
 8551W        W67647  23.020  14.670  11.388
 8552W        W67648  35.859  15.186   0.798
 8553W        W67649  41.965   6.254  12.915
 8554W        W67650  32.051   1.436  11.491
 8555W        W67651   2.277  15.771  10.062
 8556W        W67652  16.672  22.505  14.890
 8557W        W67653  34.894  20.649   0.275
 8558W        W67654   6.263   7.348  14.837
 8559W        W67655  10.312   5.782   1.698
 8560W        W67656  42.376  17.301   2.785
 8561W        W67657  24.641  35.466   4.691
 8562W        W67658  41.794  19.267   1.876
 8563W        W67659  30.626  25.483  12.550
 8564W        W67660  28.462  10.384  11.865
 8565W        W67661   1.826  12.360   4.180
 8566W        W67662  23.557  18.191   3.149
 8567W        W67663  15.230  23.647  10.945
 8568W        W67664  29.540   0.925   0.337
 8569W        W67665   6.201  21.727  11.554
 8570W        W67666  33.613  22.663   5.143
 8571W        W67667   1.819   7.779  12.091
 8572W        W67668   8.678  27.042   1.278
 8573W        W67669   5.240   6.701  14.505
 8574W        W67670  18.663  30.966   2.339
 8575W        W67671  34.042  43.929   1.332
 8576W        W67672   7.785  22.574  13.542
 8577W        W67673  34.111  28.020   3.701
 8578W        W67674  37.578  11.775  12.517
 8579W        W67675  20.571  29.459   3.365
 8580W        W67676  41.474  41.508  11.491
 8581W        W67677  41.842  27.525  10.951
 8582W        W67678  35.386  33.052   4.178
 8583W        W67679   1.760  28.639   2.841
 8584W        W67680  21.706  16.721  13.843
 8585W        W67681   6.324  43.872   3.203
 8586W        W67682   4.219  24.675   0.319
 8587W        W67683  10.725   8.828   3.171
 8588W        W67684  25.120  32.958   2.304
 8589W        W67685  21.538   9.699   1.211
 8590W        W67686  32.138  11.129  13.337
 8591W        W67687   5.358  29.920   4.784
 8592W        W67688  12.131  40.011   3.350
 8593W        W67689  11.268   5.312  12.047
 8594W        W67690  29.450  17.165   3.657
 8595W        W67691  10.762  10.661  12.830
 8596W        W67692  34.429  26.583   2.286
 8597W        W67693   0.859   6.910  12.975
 8598W        W67694  41.810  35.103  10.497
 8599W        W67695  43.476  24.027   3.231
 8600W        W67696   0.479   2.787  12.035
 8601W        W67697  37.395  24.600  13.317
 8602W        W67698  32.995  17.221  12.542
 8603W        W67699  30.053  36.415  14.456
 8604W        W67700  32.931  26.195  13.329
 8605W        W67701  25.126  15.607  13.013
 8606W        W67702   3.744  15.681   3.775
 8607W        W67703  31.062  39.903  12.908
 8608W        W67704   3.387  39.039  13.812
 8609W        W67705  11.305  15.755  13.386
 8610W        W67706  19.213  16.260   0.254
 8611W        W67707  36.551  23.570   9.596
 8612W        W67708  14.195  44.279   3.383
 8613W        W67709  24.060  35.884   3.202
 8614W        W67710  42.954  12.616  10.952
 8615W        W67711  26.473  20.119  13.501
 8616W        W67712  31.103   5.722   3.315
 8617W        W67713   3.849  29.597   3.261
 8618W        W67714  31.030  32.402  10.453
 8619W        W67715  44.920  37.370  14.369
 8620W        W67716   0.956  28.137   4.659
 8621W        W67717  23.549  22.038  14.386
 8622W        W67718  29.442  41.849   4.219
 8623W        W67719  33.933  34.020   0.437
 8624W        W67720  20.237  41.467  11.478
 8625W        W67721  44.857  27.456  11.406
 8626W        W67722   4.352  44.331   0.736
 8627W        W67723  26.079  16.267   4.693
 8628W        W67724  18.745  44.783   4.619
 8629W        W67725  12.319  24.101  11.548
 8630W        W67726  14.317  32.577  12.856
 8631W        W67727  38.958  11.193  12.071
 8632W        W67728  11.852   5.299  11.026
 8633W        W67729  32.940  19.738  13.537
 8634W        W67730  44.360   0.481   3.222
 8635W        W67731  30.562  23.186  13.411
 8636W        W67732  10.700  21.633  14.932
 8637W        W67733  38.349  43.864  14.867
 8638W        W67734  33.960  44.791   2.842
 8639W        W67735  15.814   4.288   1.806
 8640W        W67736  31.077  23.718   9.539
 8641W        W67737  12.639  34.972  12.036
 8642W        W67738  33.416   9.761  14.996
 8643W        W67739  32.424  36.467   4.676
 8644W        W67740  34.401  16.582   0.915
 8645W        W67741  40.931   1.804   4.344
 8646W        W67742  19.189  15.807   2.899
 8647W        W67743   3.713  24.686   5.783
 8648W        W67744  26.201   6.689  12.420
 8649W        W67745  34.497  40.871   2.817
 8650W        W67746  15.672  18.754  13.011
 8651W        W67747  12.648  27.586  10.065
 8652W        W67748   2.279  38.071   4.827
 8653W        W67749   1.843   0.353   4.739
 8654W        W67750   9.191   2.933  14.986
 8655W        W67751  18.292  40.536  11.529
 8656W        W67752   2.797  22.220   4.797
 8657W        W67753   6.759  35.956  13.029
 8658W        W67754   1.920  16.774  10.560
 8659W        W67755  10.814  24.997  14.886
 8660W        W67756  19.116  22.553   2.250
 8661W        W67757   4.703  18.149   0.918
 8662W        W67758  18.721  34.551   2.244
 8663W        W67759  26.662  26.489  11.538
 8664W        W67760  15.300  28.104  10.556
 8665W        W67761  21.228  11.662  10.509
 8666W        W67762  21.143  39.466  13.430
 8667W        W67763  29.637  42.826   5.225
 8668W        W67764  24.680   0.454  13.884
 8669W        W67765  35.445   9.873  12.075
 8670W        W67766   5.695   5.692   0.299
 8671W        W67767   1.928  12.741  14.442
 8672W        W67768   8.305  15.254  13.999
 8673W        W67769  44.462   6.331  13.008
 8674W        W67770  34.449  21.243  12.448
 8675W        W67771  24.145   7.899   2.195
 8676W        W67772  17.563   8.735  10.426
 8677W        W67773   0.877  32.543  11.427
 8678W        W67774  21.552   1.382   2.229
 8679W        W67775  40.380  38.516  11.529
 8680W        W67776  22.595  42.485  12.898
 8681W        W67777   4.284  11.277   1.440
 8682W        W67778  44.879  44.421   1.280
 8683W        W67779  34.928  29.005  11.859
 8684W        W67780  10.267  24.613  13.994
 8685W        W67781  26.535  18.165   2.736
 8686W        W67782  24.126  17.074   3.677
 8687W        W67783  12.233  25.673   0.805
 8688W        W67784   2.268  25.569  14.833
 8689W        W67785  34.500  20.653  14.861
 8690W        W67786  14.822  43.774  12.537
 8691W        W67787  23.704  29.017  14.765
 8692W        W67788  19.553  33.574  11.029
 8693W        W67789  30.969  19.120  11.097
 8694W        W67790  38.340   9.788  13.348
 8695W        W67791  27.464  39.826  12.454
 8696W        W67792   3.882  43.011   5.265
 8697W        W67793  42.022   2.318  11.559
 8698W        W67794  24.182  15.327   1.427
 8699W        W67795  40.862  12.814  13.957
 8700W        W67796  10.679  32.587   4.625
 8701W        W67797  21.564  23.111  10.629
 8702W        W67798  41.024  31.085   2.662
 8703W        W67799  43.990   5.834   0.256
 8704W        W67800  14.668  22.995   3.360
 8705W        W67801  15.106   8.395  10.914
 8706W        W67802  35.031   9.677   4.635
 8707W        W67803  41.943  37.499   2.208
 8708W        W67804  12.148  14.746  12.341
 8709W        W67805  27.055  27.092  13.402
 8710W        W67806  21.603   6.352  12.940
 8711W        W67807  44.386  10.236  11.937
 8712W        W67808  20.532  42.354   0.967
 8713W        W67809  41.358  16.178  14.312
 8714W        W67810  38.482  33.025   0.347
 8715W        W67811  16.166   0.767  13.867
 8716W        W67812  33.120  16.291  12.508
 8717W        W67813  31.036  30.030   2.303
 8718W        W67814  18.196  34.989   3.753
 8719W        W67815  22.694  25.698   0.805
 8720W        W67816  14.710  23.115   2.803
 8721W        W67817  10.642  29.637   9.947
 8722W        W67818  15.224   5.350  12.864
 8723W        W67819   7.712  12.208   3.736
 8724W        W67820  25.214  26.683   1.770
 8725W        W67821   5.210  28.013  13.812
 8726W        W67822  38.538  44.797  13.793
 8727W        W67823  17.258  17.142  14.887
 8728W        W67824   7.832   3.385  14.337
 8729W        W67825  37.012  27.039   1.718
 8730W        W67826   1.864   8.358   1.312
 8731W        W67827  41.808  20.083  14.423
 8732W        W67828  17.155  34.505  12.924
 8733W        W67829  23.176  39.964   3.843
 8734W        W67830  11.833  23.018  11.997
 8735W        W67831  10.163  36.522  13.921
 8736W        W67832   9.190  38.026   0.829
 8737W        W67833   6.899   9.704   4.346
 8738W        W67834  39.839  12.239  10.926
 8739W        W67835  26.038  37.561  11.998
 8740W        W67836  35.546  28.992   3.802
 8741W        W67837  40.947  13.650   0.777
 8742W        W67838  36.998  36.438  10.908
 8743W        W67839  15.684  38.987   4.220
 8744W        W67840  33.467   4.280  10.623
 8745W        W67841   3.799  41.449  12.955
 8746W        W67842  12.159  16.799   3.377
 8747W        W67843  29.935  44.343  14.357
 8748W        W67844  12.252  42.461  11.973
 8749W        W67845  29.559  26.643  14.793
 8750W        W67846   9.342   2.406  13.843
 8751W        W67847   7.715  24.978  12.001
 8752W        W67848  23.991  24.118   4.721
 8753W        W67849  13.723  32.495   1.917
 8754W        W67850  26.466   9.749   9.920
 8755W        W67851  12.764  16.738   1.313
 8756W        W67852  35.090  23.544  10.547
 8757W        W67853  36.098  31.921  14.832
 8758W        W67854  44.829  19.137   3.187
 8759W        W67855  17.277   5.206  12.424
 8760W        W67856  42.874   0.449   0.949
 8761W        W67857  23.112   5.258   3.773
 8762W        W67858  35.518  42.305  10.556
 8763W        W67859   1.797  35.409  13.488
 8764W        W67860  34.460  31.581  12.092
 8765W        W67861  27.017  34.941   1.366
 8766W        W67862  17.558  34.530   4.640
 8767W        W67863  24.229  22.536  11.945
 8768W        W67864  43.788  22.522  11.493
 8769W        W67865  28.557  35.965  14.919
 8770W        W67866   4.895   1.239  11.381
 8771W        W67867   3.822  15.800  13.374
 8772W        W67868   4.314  28.047   0.463
 8773W        W67869  16.306  16.762   0.792
 8774W        W67870  36.845  40.906   4.197
 8775W        W67871  11.180  15.579   0.350
 8776W        W67872  29.070  32.980   1.884
 8777W        W67873  15.666  22.688  12.479
 8778W        W67874  39.983  42.290   1.287
 8779W        W67875   6.302  13.238   2.842
 8780W        W67876  24.152   0.384  11.991
 8781W        W67877   4.449  24.662   3.361
 8782W        W67878  38.501   8.814  10.462
 8783W        W67879  28.993  40.347   2.318
 8784W        W67880  16.291  13.786  11.021
 8785W        W67881  36.489  36.907  14.789
 8786W        W67882  43.331  34.592  13.056
 8787W        W67883  15.176  35.976   9.957
 8788W        W67884  38.368  34.446   1.210
 8789W        W67885  36.976  14.662  13.328
 8790W        W67886  25.677   4.763  11.927
 8791W        W67887   7.732  42.003  12.885
 8792W        W67888  30.984  32.921   3.812
 8793W        W67889   5.807   2.770  12.888
 8794W        W67890  32.614  13.797  12.094
 8795W        W67891  41.507  22.617   4.140
 8796W        W67892  20.133   5.880   4.675
 8797W        W67893  20.102   9.205   1.418
 8798W        W67894  21.026  37.839   9.574
 8799W        W67895  43.334  25.048  10.409
 8800W        W67896   2.295  29.608   1.216
 8801W        W67897  33.894  21.609  13.329
 8802W        W67898  21.260   9.205   3.681
 8803W        W67899   8.387  21.042  14.461
 8804W        W67900  40.361  19.549  10.403
 8805W        W67901  26.060  15.684  13.828
 8806W        W67902  43.966  23.122  13.037
 8807W        W67903  21.721   3.329  14.298
 8808W        W67904  21.710  24.696  12.520
 8809W        W67905  24.541  33.419   4.817
 8810W        W67906  40.502   9.734  13.514
 8811W        W67907   3.829   8.783  12.893
 8812W        W67908  40.842   5.881  14.995
 8813W        W67909  19.623   7.275  10.415
 8814W        W67910  14.138   5.413  13.534
 8815W        W67911  32.593  10.339   0.935
 8816W        W67912  25.096  41.332   1.321
 8817W        W67913  38.044  15.206   1.701
 8818W        W67914  26.025  14.170   2.398
 8819W        W67915  25.522  39.862  12.888
 8820W        W67916   5.789   5.305  13.933
 8821W        W67917  13.606  10.714  12.571
 8822W        W67918  31.022  27.004  14.996
 8823W        W67919  31.947   3.822   5.157
 8824W        W67920  41.517  32.608  12.340
 8825W        W67921  43.289   2.382  10.587
 8826W        W67922  25.507  41.833   0.357
 8827W        W67923  42.033  25.547   2.674
 8828W        W67924  37.880  13.268  14.981
 8829W        W67925  35.020  38.020  11.906
 8830W        W67926  10.748  14.757   0.956
 8831W        W67927  31.432  24.091  13.496
 8832W        W67928  29.451  24.210  11.915
 8833W        W67929  12.179  11.170  14.340
 8834W        W67930  27.466  27.009   1.757
 8835W        W67931   7.863  28.170   0.954
 8836W        W67932  14.818  33.564   3.649
 8837W        W67933   7.768  28.105  14.316
 8838W        W67934   2.433  24.653   9.602
 8839W        W67935  23.521  24.120   0.278
 8840W        W67936  25.699   8.373  13.396
 8841W        W67937  41.839   4.371   1.439
 8842W        W67938  10.823  40.538   0.330
 8843W        W67939  19.242  12.285   2.886
 8844W        W67940  10.813   7.687   3.800
 8845W        W67941  10.167  22.503   0.727
 8846W        W67942   7.742   0.263  12.388
 8847W        W67943   3.738   0.852  11.907
 8848W        W67944  24.167  42.453  10.919
 8849W        W67945  23.189  21.083  11.042
 8850W        W67946  31.031  11.664  11.114
 8851W        W67947   2.765  32.017  10.935
 8852W        W67948  24.986  18.722   4.794
 8853W        W67949  37.945  33.086  12.472
 8854W        W67950  11.219  38.513   0.257
 8855W        W67951  10.647   6.760   0.410
 8856W        W67952  29.533  30.001  14.896
 8857W        W67953   4.858  15.608  11.111
 8858W        W67954  23.038  18.611  13.390
 8859W        W67955  40.836  39.006  13.476
 8860W        W67956  24.639  21.540   0.425
 8861W        W67957  42.329  12.633   0.341
 8862W        W67958  36.881  27.636   0.263
 8863W        W67959  13.652  17.148  10.418
 8864W        W67960  21.581  34.431  13.011
 8865W        W67961  11.307  44.499   1.399
 8866W        W67962  16.578  34.028   0.815
 8867W        W67963  12.168   8.206   0.417
 8868W        W67964   5.342  32.924   2.197
 8869W        W67965  35.467   0.946   2.803
 8870W        W67966  29.130   2.303  11.530
 8871W        W67967  12.261   4.701  10.086
 8872W        W67968  17.211   2.826   2.736
 8873W        W67969  42.378  19.627   4.602
 8874W        W67970   0.324   1.793   2.353
 8875W        W67971  25.020  16.203  13.324
 8876W        W67972  33.081  43.475  13.367
 8877W        W67973  36.072  41.814   4.752
 8878W        W67974  28.036   6.389   2.181
 8879W        W67975  44.362  22.618  12.521
 8880W        W67976  21.745  44.825  11.072
 8881W        W67977  31.471  13.182   0.389
 8882W        W67978   1.762  38.411  11.020
 8883W        W67979  11.362   0.850  14.389
 8884W        W67980  41.297  18.266  12.827
 8885W        W67981  19.662   1.357  14.941
 8886W        W67982  33.514  13.321   3.706
 8887W        W67983  20.145  36.446   3.696
 8888W        W67984  23.054  38.938  13.485
 8889W        W67985  16.723   1.349   1.717
 8890W        W67986   3.331  26.195   5.228
 8891W        W67987   9.374  26.187   0.805
 8892W        W67988   9.839  21.755  13.960
 8893W        W67989  37.360  13.291  10.907
 8894W        W67990   8.272   8.342   0.453
 8895W        W67991  39.032  11.664   3.186
 8896W        W67992  10.377   4.359  12.579
 8897W        W67993  13.136  13.196   5.146
 8898W        W67994   3.237  22.063  13.351
 8899W        W67995  23.052   1.449   3.754
 8900W        W67996   5.798  26.016  14.429
 8901W        W67997  17.610  20.234  10.537
 8902W        W67998  20.240  18.111   2.393
 8903W        W67999  42.492   6.749  14.905
 8904W        W68000  43.468  30.657   1.786
 8905W        W68001   6.309  30.615   2.742
 8906W        W68002  40.458  13.678  11.116
 8907W        W68003  43.841  30.569  13.510
 8908W        W68004  43.892  35.875  11.895
 8909W        W68005  15.600  31.565   0.351
 8910W        W68006  44.502  13.269  14.309
 8911W        W68007  34.067   5.754   3.714
 8912W        W68008  24.101  26.571  12.402
 8913W        W68009  18.185   7.772   0.834
 8914W        W68010  34.550  27.012  14.328
 8915W        W68011  35.498  33.119   0.868
 8916W        W68012  25.528  35.010   2.819
 8917W        W68013  22.737   4.391   4.341
 8918W        W68014  44.825  15.290  10.499
 8919W        W68015  38.341  26.090   0.457
 8920W        W68016  24.056  39.963  11.992
 8921W        W68017  43.272  40.856  12.033
 8922W        W68018  19.719   5.339   0.926
 8923W        W68019  22.068  38.929   0.803
 8924W        W68020  24.010   1.338  10.491
 8925W        W68021   6.282  20.035  13.998
 8926W        W68022  38.021  13.749   2.357
 8927W        W68023  37.429   5.195  11.598
 8928W        W68024  24.641  11.137  14.945
 8929W        W68025  30.074  37.839   4.705
 8930W        W68026  37.341  37.080   3.659
 8931W        W68027  24.156   8.844  11.541
 8932W        W68028  44.799  10.693   1.695
 8933W        W68029  26.519   0.435  11.908
 8934W        W68030  29.562   2.252  14.349
 8935W        W68031  42.346  42.870  12.940
 8936W        W68032  29.941  32.939  13.371
 8937W        W68033   8.325  31.054   2.837
 8938W        W68034   2.792   3.237  13.040
 8939W        W68035  31.998  30.657   2.856
 8940W        W68036  13.147  18.254  12.845
 8941W        W68037  34.948  30.571  12.069
 8942W        W68038  18.744   4.861   4.200
 8943W        W68039   3.877  34.048   1.346
 8944W        W68040  36.571  25.490   1.721
 8945W        W68041  23.055  42.818  13.037
 8946W        W68042  19.617  42.912  14.429
 8947W        W68043  21.593  18.222  10.958
 8948W        W68044  35.563  26.592   3.821
 8949W        W68045   5.406  39.361  13.332
 8950W        W68046  24.067  35.028   3.201
 8951W        W68047   1.955  11.784   0.733
 8952W        W68048  16.276   3.815   4.603
 8953W        W68049  13.647  32.931  14.947
 8954W        W68050  39.423   8.168   3.830
 8955W        W68051  32.084  36.909   3.370
 8956W        W68052   7.297  40.428   3.828
 8957W        W68053  30.044  34.478  10.920
 8958W        W68054  37.992  14.098   3.275
 8959W        W68055  38.889  19.099   3.781
 8960W        W68056  25.520  15.164   0.299
 8961W        W68057  30.562  14.749   3.687
 8962W        W68058   3.911  43.920  12.410
 8963W        W68059  28.930  42.331   2.401
 8964W        W68060  13.733   5.872   2.744
 8965W        W68061  21.758  12.350   0.879
 8966W        W68062  19.160  19.623   1.322
 8967W        W68063  30.617  34.889  11.952
 8968W        W68064  22.524  10.167   9.932
 8969W        W68065  43.779  42.832   4.137
 8970W        W68066  39.550   4.865  10.137
 8971W        W68067  17.797  42.370  14.509
 8972W        W68068   6.251  31.924  14.804
 8973W        W68069  25.102  18.069   4.270
 8974W        W68070  22.568  22.515  12.906
 8975W        W68071  42.358  25.974  12.940
 8976W        W68072  11.784  34.942   1.888
 8977W        W68073  17.697  32.564   0.339
 8978W        W68074  11.748  41.366   1.749
 8979W        W68075  30.933  38.960   2.355
 8980W        W68076  40.538  35.520   4.257
 8981W        W68077   7.861  33.512  10.592
 8982W        W68078   0.909  25.189  10.494
 8983W        W68079  22.637  11.658  13.001
 8984W        W68080  24.006  44.442   2.705
 8985W        W68081  22.044  18.656  13.897
 8986W        W68082  16.257   8.823  10.568
 8987W        W68083  21.027  33.487  11.508
 8988W        W68084   4.910  28.466   0.887
 8989W        W68085  23.050  17.748  12.000
 8990W        W68086  11.149  44.805  11.992
 8991W        W68087   9.785   8.812   0.758
 8992W        W68088   6.332   6.242  12.435
 8993W        W68089  12.211  10.727   2.184
 8994W        W68090  29.100   6.291   1.711
 8995W        W68091  38.838  35.560   4.697
 8996W        W68092   7.884  33.626   1.420
 8997W        W68093  12.166  35.430   4.213
 8998W        W68094  12.318   6.702   3.289
 8999W        W68095   8.388  24.036   4.324
 9000W        W68096  33.623  41.490   2.307
 9001W        W68097  34.439  16.223   2.872
 9002W        W68098  17.740  13.837   2.241
 9003W        W68099  23.138  34.060   4.202
 9004W        W68100  29.617  26.571  14.484
 9005W        W68101   2.809   6.812  12.951
 9006W        W68102  26.170  16.762   0.245
 9007W        W68103  29.081  27.614  11.468
 9008W        W68104   4.778   9.176  10.480
 9009W        W68105  13.801  21.756  14.001
 9010W        W68106   3.456  14.282  14.835
 9011W        W68107  32.958  31.493   4.255
 9012W        W68108   2.750  29.604  10.958
 9013W        W68109  20.062  33.966  10.953
 9014W        W68110  21.238  24.988  11.568
 9015W        W68111  31.988   1.951   0.266
 9016W        W68112  14.330  36.023  14.482
 9017W        W68113  43.464  29.127  14.788
 9018W        W68114  30.536   1.272  14.318
 9019W        W68115   6.273  25.529   9.943
 9020W        W68116  30.082  39.365   2.187
 9021W        W68117   6.375  27.073  14.346
 9022W        W68118  19.675   4.328  13.475
 9023W        W68119   4.772  34.408  12.917
 9024W        W68120  15.172  38.375   2.190
 9025W        W68121  22.695  39.952  13.959
 9026W        W68122  31.129   5.918   3.703
 9027W        W68123  38.538   7.771   3.375
 9028W        W68124  27.191  33.083   4.332
 9029W        W68125  15.106  11.145   4.243
 9030W        W68126  14.148  12.698  11.470
 9031W        W68127   5.225  21.678  10.890
 9032W        W68128  18.648  18.703   3.675
 9033W        W68129   9.305  15.589   0.939
 9034W        W68130   1.868  27.506  11.946
 9035W        W68131  40.412  11.856   2.791
 9036W        W68132  38.053  30.619  11.063
 9037W        W68133  39.873  21.649  12.507
 9038W        W68134  19.097  12.311   1.419
 9039W        W68135   2.408  35.361  11.105
 9040W        W68136  10.384  23.178   3.644
 9041W        W68137  19.584  13.730  14.763
 9042W        W68138   9.287  20.703  10.469
 9043W        W68139   4.229  43.989   3.639
 9044W        W68140  12.619  33.970   2.179
 9045W        W68141   1.834  33.401  13.809
 9046W        W68142  11.275  12.131  10.588
 9047W        W68143  18.055  32.997  14.023
 9048W        W68144  34.588  22.605   3.373
 9049W        W68145  16.579   5.718  13.354
 9050W        W68146  15.646  18.128  11.919
 9051W        W68147  22.059  16.673   2.690
 9052W        W68148   1.902  36.497  13.543
 9053W        W68149  25.567  30.434   3.643
 9054W        W68150  16.675  19.718  11.499
 9055W        W68151  29.150  12.758  10.442
 9056W        W68152  29.612  32.637   3.658
 9057W        W68153  34.443   4.345  14.466
 9058W        W68154  32.414   1.818   0.385
 9059W        W68155  43.317   8.362   0.790
 9060W        W68156  40.429  16.172   4.119
 9061W        W68157  10.877  16.112  12.849
 9062W        W68158  24.202  18.607  13.503
 9063W        W68159  20.700  44.886   1.887
 9064W        W68160  22.149  26.678   2.224
 9065W        W68161  16.669  37.945   1.704
 9066W        W68162  31.933  17.711  14.783
 9067W        W68163  19.779  41.408  14.862
 9068W        W68164   6.250  11.309   2.296
 9069W        W68165  34.502   8.299   0.961
 9070W        W68166  21.546   3.394   2.841
 9071W        W68167  10.214   4.934   3.212
 9072W        W68168   2.297  23.647   3.753
 9073W        W68169  13.286  14.202  12.428
 9074W        W68170   3.417  10.216   2.901
 9075W        W68171  22.205  22.740   0.352
 9076W        W68172  39.553   2.863   1.700
 9077W        W68173  40.387  20.760   0.758
 9078W        W68174  40.520  25.668  10.910
 9079W        W68175  39.426  18.662  14.807
 9080W        W68176  28.978   3.856   4.717
 9081W        W68177   4.264  24.669   4.213
 9082W        W68178  10.331   0.923   3.217
 9083W        W68179  21.747  44.436  14.980
 9084W        W68180  41.027   3.922  10.454
 9085W        W68181  38.518  17.723   1.710
 9086W        W68182  41.454  33.437   0.408
 9087W        W68183   2.238  18.704   3.370
 9088W        W68184   3.928  42.795  10.534
 9089W        W68185  42.829  41.906  13.030
 9090W        W68186  37.068  21.746   3.687
 9091W        W68187  44.437  37.974  13.370
 9092W        W68188  42.350  39.362  13.853
 9093W        W68189  35.898  19.699  13.387
 9094W        W68190  20.641   0.473   0.421
 9095W        W68191  43.333  37.016  13.908
 9096W        W68192   6.872  17.145  14.349
 9097W        W68193  40.004  23.075   2.392
 9098W        W68194   5.196  41.849   0.942
 9099W        W68195  41.362  10.697   3.867
 9100W        W68196  40.915  34.998  14.476
 9101W        W68197  37.526  12.853  12.395
 9102W        W68198  17.623  24.075   0.437
 9103W        W68199  32.394  12.338  12.028
 9104W        W68200   7.345  36.961   2.702
 9105W        W68201   2.414  17.200   0.897
 9106W        W68202   2.896  19.675   3.225
 9107W        W68203   4.811  37.514   3.167
 9108W        W68204  18.055   1.350   3.249
 9109W        W68205  24.215  40.035  13.936
 9110W        W68206  12.120  39.063  14.917
 9111W        W68207  31.146  43.388  13.351
 9112W        W68208  20.736  18.253   0.289
 9113W        W68209   1.342  13.202  11.446
 9114W        W68210  35.985   8.337   2.765
 9115W        W68211  16.131   0.774   0.341
 9116W        W68212   5.385  24.117  12.051
 9117W        W68213  16.731  30.551  10.964
 9118W        W68214  37.362  37.947  12.076
 9119W        W68215  22.572   9.712   2.264
 9120W        W68216  31.950  17.305   0.811
 9121W        W68217  35.503   6.682   1.223
 9122W        W68218  37.443   0.343   1.351
 9123W        W68219   6.718  39.984  12.885
 9124W        W68220  39.932  35.602  11.065
 9125W        W68221  34.913  44.305  10.035
 9126W        W68222  37.400   7.701   1.436
 9127W        W68223  22.716  31.057   9.966
 9128W        W68224   2.355   9.234  14.965
 9129W        W68225   5.388  16.211   1.215
 9130W        W68226  16.794   2.914   4.633
 9131W        W68227  10.706  33.022  13.307
 9132W        W68228   5.322  25.999   2.707
 9133W        W68229  19.535   0.916   1.376
 9134W        W68230  10.321  20.527  11.920
 9135W        W68231   3.867   2.771   0.361
 9136W        W68232  20.174  43.895   3.265
 9137W        W68233   7.751  42.903   2.391
 9138W        W68234  29.053  23.201  13.351
 9139W        W68235  24.478   4.725   4.186
 9140W        W68236  10.638  16.729  14.296
 9141W        W68237  19.611  26.637   2.272
 9142W        W68238  34.437  37.836  14.991
 9143W        W68239  19.225  13.198   2.818
 9144W        W68240   8.762  42.825   3.665
 9145W        W68241  41.473   7.345   0.902
 9146W        W68242  10.373  26.537   2.787
 9147W        W68243   8.736  17.151   1.837
 9148W        W68244   6.371   4.396  10.505
 9149W        W68245  40.303   9.359  11.128
 9150W        W68246   9.295  19.738   4.613
 9151W        W68247   7.852  42.983  14.368
 9152W        W68248  16.746  31.436  14.403
 9153W        W68249  15.784  21.163   4.602
 9154W        W68250  22.590   6.343  14.859
 9155W        W68251  42.331  40.396  12.025
 9156W        W68252  35.496  39.408   0.918
 9157W        W68253  16.137  42.952   3.173
 9158W        W68254  38.511   9.196  11.579
 9159W        W68255  31.001  39.019  14.323
 9160W        W68256  23.536  13.339   3.279
 9161W        W68257   0.475  18.172   1.399
 9162W        W68258  36.938  16.776   9.947
 9163W        W68259  16.583   0.897  12.961
 9164W        W68260   4.850   8.289  13.498
 9165W        W68261  16.191  21.242  14.388
 9166W        W68262  35.592  31.912   3.633
 9167W        W68263  32.958  42.375  12.909
 9168W        W68264   8.177  16.636  12.342
 9169W        W68265  38.446  11.240   3.343
 9170W        W68266  29.973  22.206  11.120
 9171W        W68267  36.965  14.111   2.867
 9172W        W68268   8.360  36.896   1.911
 9173W        W68269  42.872  35.491  11.913
 9174W        W68270  18.184   8.265  11.045
 9175W        W68271  36.453  36.910   4.630
 9176W        W68272  28.436   7.836  13.486
 9177W        W68273   4.915   5.731   3.753
 9178W        W68274  30.918  25.513   4.750
 9179W        W68275   0.781  14.829   2.400
 9180W        W68276  18.081  16.661  12.979
 9181W        W68277  16.111  23.734  12.009
 9182W        W68278  39.325  33.501  11.462
 9183W        W68279  30.950  17.731   4.289
 9184W        W68280  22.583  23.537  14.303
 9185W        W68281   2.938  37.422   1.872
 9186W        W68282  31.575  41.914  12.462
 9187W        W68283  17.266   3.418  13.491
 9188W        W68284  43.477  23.989   4.181
 9189W        W68285   4.848  36.870   4.819
 9190W        W68286  28.009   4.907   4.830
 9191W        W68287  17.274  16.096   1.699
 9192W        W68288   1.814   5.333   1.788
 9193W        W68289  36.444  33.626   0.767
 9194W        W68290  16.244  37.403   0.376
 9195W        W68291  32.586  17.755  11.990
 9196W        W68292  32.605  38.077   3.348
 9197W        W68293  41.507   5.779  12.526
 9198W        W68294  24.604  44.836   4.833
 9199W        W68295  10.245  43.475  11.045
 9200W        W68296  10.237   7.844   1.721
 9201W        W68297  19.670  37.380   3.688
 9202W        W68298  16.254  34.878   0.474
 9203W        W68299  44.932  35.470  14.974
 9204W        W68300  44.498  16.175   2.738
 9205W        W68301  43.384  18.057   2.848
 9206W        W68302  23.217  22.092  13.956
 9207W        W68303  13.210  36.558   3.335
 9208W        W68304  37.050  37.875  14.782
 9209W        W68305  27.110   3.827  12.580
 9210W        W68306  44.794  40.374   2.387
 9211W        W68307  23.684  24.202  14.009
 9212W        W68308  36.940  13.761  11.916
 9213W        W68309  29.077  11.294   4.224
 9214W        W68310  30.079  17.780   1.825
 9215W        W68311  35.911  14.318   0.456
 9216W        W68312  16.108  16.747  13.492
 9217W        W68313  40.510  16.733  12.521
 9218W        W68314   8.221  30.568  10.409
 9219W        W68315  17.227  20.549   3.793
 9220W        W68316   9.874  26.112  11.521
 9221W        W68317  25.209  33.912  11.553
 9222W        W68318   9.784  35.892  14.489
 9223W        W68319  26.702   6.913   4.252
 9224W        W68320  27.584  33.484   2.348
 9225W        W68321   8.711  29.097   0.426
 9226W        W68322  24.538   3.887  11.861
 9227W        W68323  31.915   4.727   0.307
 9228W        W68324  21.122  42.454   4.196
 9229W        W68325  21.234   6.408   2.735
 9230W        W68326  29.614  36.066   3.219
 9231W        W68327  33.492  28.557  12.919
 9232W        W68328   1.409  25.045   1.234
 9233W        W68329  12.622  18.170  10.640
 9234W        W68330  16.282   2.849  11.557
 9235W        W68331  26.509  25.079  10.929
 9236W        W68332  40.949  18.755   4.210
 9237W        W68333  34.595  30.537  10.640
 9238W        W68334  36.892  38.519   1.881
 9239W        W68335   7.196  31.006   0.914
 9240W        W68336  43.978   9.862  12.901
 9241W        W68337   0.360  36.449  13.309
 9242W        W68338  18.134  43.928  10.923
 9243W        W68339  11.738  40.510  11.959
 9244W        W68340  35.864  32.885  14.934
 9245W        W68341   5.922  34.429  11.499
 9246W        W68342  23.153  39.832   2.210
 9247W        W68343   5.809  41.317   3.328
 9248W        W68344   8.324   8.335  10.484
 9249W        W68345  39.494  43.362   3.170
 9250W        W68346  29.455  22.609  14.798
 9251W        W68347  29.122  15.147   3.798
 9252W        W68348   3.278  43.350  11.050
 9253W        W68349  22.997  31.611   2.867
 9254W        W68350  21.574  22.026  14.021
 9255W        W68351  19.653  19.089  14.286
 9256W        W68352  25.060  30.963  11.931
 9257W        W68353  13.247  15.210  10.566
 9258W        W68354  29.131  43.326   2.688
 9259W        W68355  21.048   8.707   0.342
 9260W        W68356  23.591  10.725   2.671
 9261W        W68357  33.521  25.141  14.442
 9262W        W68358  23.559  12.156  11.920
 9263W        W68359  20.622  19.704   4.138
 9264W        W68360  14.310   2.798   2.814
 9265W        W68361  41.387  30.496   0.470
 9266W        W68362   4.216   3.415   4.200
 9267W        W68363  35.991  28.078  14.328
 9268W        W68364  41.032  42.440  13.894
 9269W        W68365  37.488  23.497   1.432
 9270W        W68366  17.691  12.310   3.176
 9271W        W68367  23.601  35.517  11.977
 9272W        W68368  14.273  44.291  11.006
 9273W        W68369  37.551  27.102   0.410
 9274W        W68370  34.582  25.180  14.954
 9275W        W68371  25.098  37.563  10.594
 9276W        W68372  30.576   9.200   0.278
 9277W        W68373   4.225  12.849  12.362
 9278W        W68374   4.423  34.893  13.505
 9279W        W68375   0.275  41.868  11.451
 9280W        W68376  37.916  37.899  12.908
 9281W        W68377  39.354  10.819   0.901
 9282W        W68378  14.738  23.178  10.507
 9283W        W68379  39.856  19.692  12.035
 9284W        W68380  10.643  31.630   4.132
 9285W        W68381  24.212  41.833   2.870
 9286W        W68382  25.692  11.161  11.079
 9287W        W68383  23.628  12.179  13.514
 9288W        W68384  29.472  16.621   1.932
 9289W        W68385  21.543  36.390   4.123
 9290W        W68386  44.274  24.043   0.323
 9291W        W68387  40.862  41.808   4.305
 9292W        W68388   8.844  28.009  12.863
 9293W        W68389  16.094  15.631  11.034
 9294W        W68390   8.809   8.798  11.520
 9295W        W68391  22.516  16.215   3.804
 9296W        W68392  42.902  41.531   2.849
 9297W        W68393  39.395  19.679   1.903
 9298W        W68394   7.903  35.507  11.558
 9299W        W68395  13.609   5.211   0.959
 9300W        W68396  42.008  39.361  11.983
 9301W        W68397  34.566  21.512  11.861
 9302W        W68398   6.789  13.323  13.822
 9303W        W68399   1.894  17.623   1.864
 9304W        W68400  10.189  39.440   1.875
 9305W        W68401   7.185  17.147   1.281
 9306W        W68402   6.289   3.746   3.373
 9307W        W68403  40.486   7.396  11.923
 9308W        W68404   9.175  29.979   0.370
 9309W        W68405  26.546  18.126  13.506
 9310W        W68406  33.108  10.783  12.525
 9311W        W68407  44.878  41.423   2.184
 9312W        W68408  42.995  12.668  10.534
 9313W        W68409  18.657  29.970   3.823
 9314W        W68410  27.967  11.153  11.390
 9315W        W68411  37.473  26.094  11.087
 9316W        W68412   8.789  37.513   4.128
 9317W        W68413  23.549  27.968   4.256
 9318W        W68414  42.320   6.329   3.312
 9319W        W68415  24.518   9.785   4.202
 9320W        W68416  38.382   7.666  12.563
 9321W        W68417  11.277  23.041  14.502
 9322W        W68418  22.656   8.747   0.475
 9323W        W68419  14.633  30.618   0.934
 9324W        W68420   4.383  40.454   3.280
 9325W        W68421  14.638  22.191  12.426
 9326W        W68422   9.341  37.842   2.225
 9327W        W68423  43.764  22.675   3.855
 9328W        W68424   5.225  41.022  13.054
 9329W        W68425   6.211  14.670  14.961
 9330W        W68426   9.227  15.707   4.240
 9331W        W68427  20.232  31.424  13.991
 9332W        W68428  11.855  11.646  11.543
 9333W        W68429   8.226   3.364  10.564
 9334W        W68430   1.244   5.914   3.677
 9335W        W68431   6.377   1.328  12.041
 9336W        W68432  43.449  14.303   4.757
 9337W        W68433   4.309  34.438   4.218
 9338W        W68434  16.239  42.426  11.884
 9339W        W68435  15.322  41.926   1.770
 9340W        W68436   5.768  14.631   2.724
 9341W        W68437   6.384  33.039   3.292
 9342W        W68438  38.472  39.997  13.859
 9343W        W68439  29.960  31.930  11.121
 9344W        W68440   9.174  31.988  12.043
 9345W        W68441  11.141  29.075   0.904
 9346W        W68442  35.597  43.495   1.220
 9347W        W68443  13.246  34.502   4.815
 9348W        W68444  23.056  27.109   2.663
 9349W        W68445  33.386   7.700   3.324
 9350W        W68446  32.588  44.383  14.299
 9351W        W68447  22.098  32.075   3.754
 9352W        W68448  13.235  34.512  11.012
 9353W        W68449   9.207   6.339  12.373
 9354W        W68450  18.052  40.874   4.811
 9355W        W68451   7.393  10.171   2.260
 9356W        W68452  32.609  41.810  10.476
 9357W        W68453  33.018  27.152  14.514
 9358W        W68454  13.339  10.149  13.440
 9359W        W68455  31.468  18.285  14.352
 9360W        W68456  43.456  17.226  13.829
 9361W        W68457  13.812  13.112   1.770
 9362W        W68458  21.668  41.459  10.591
 9363W        W68459  20.593  15.595   4.630
 9364W        W68460  33.901  38.857   4.610
 9365W        W68461  44.439  39.498  11.104
 9366W        W68462  38.338   1.764  12.462
 9367W        W68463   9.852  39.469  11.485
 9368W        W68464  13.268  21.067  13.536
 9369W        W68465  42.336  37.560  14.436
 9370W        W68466  23.174  40.904   1.288
 9371W        W68467  14.724  17.138  12.409
 9372W        W68468  43.774  27.455   0.454
 9373W        W68469  20.707  36.995   3.333
 9374W        W68470  28.061  23.031  10.022
 9375W        W68471  35.045  25.652   4.807
 9376W        W68472   2.336  26.643   4.275
 9377W        W68473  15.744  37.907   3.869
 9378W        W68474  18.233  13.765   0.475
 9379W        W68475   2.782  34.426   3.837
 9380W        W68476  23.640  35.364   1.735
 9381W        W68477  15.183  33.019   3.384
 9382W        W68478  33.109   8.378  14.914
 9383W        W68479  35.028  37.368  14.883
 9384W        W68480  30.022  32.399   4.230
 9385W        W68481  43.841   2.349   1.397
 9386W        W68482  29.957  19.734  12.343
 9387W        W68483   3.858   5.358   1.239
 9388W        W68484  13.214  17.772   4.797
 9389W        W68485   0.361  32.022  13.840
 9390W        W68486  31.529  31.928   2.902
 9391W        W68487  12.150  35.489  12.579
 9392W        W68488  26.587   9.746  13.508
 9393W        W68489  42.314  22.508  10.576
 9394W        W68490  38.929   9.186   0.482
 9395W        W68491   3.224  21.581  13.837
 9396W        W68492  31.952  16.287  11.483
 9397W        W68493  36.367  13.145  11.373
 9398W        W68494  16.274   6.391   0.746
 9399W        W68495  15.756  26.133   1.287
 9400W        W68496  40.822  13.237   2.831
 9401W        W68497  15.747  15.254  10.052
 9402W        W68498   6.793  22.145   3.154
 9403W        W68499   7.206   8.215   2.850
 9404W        W68500  43.843  18.625  13.058
 9405W        W68501   2.734   4.877   2.237
 9406W        W68502   5.919  28.179   3.721
 9407W        W68503   7.295  36.083   4.758
 9408W        W68504  30.637   9.156  13.008
 9409W        W68505  30.066  26.620   1.809
 9410W        W68506  17.582  24.062   1.781
 9411W        W68507  11.668  39.459  12.439
 9412W        W68508  34.114  39.858  11.021
 9413W        W68509  43.431   3.756   4.618
 9414W        W68510  24.545  16.132  12.872
 9415W        W68511  44.962  40.489  12.543
 9416W        W68512  18.758  25.520  10.430
 9417W        W68513  38.853  41.476   1.388
 9418W        W68514   3.344  32.921   2.281
 9419W        W68515  44.367  24.016   2.706
 9420W        W68516  34.056  30.969  11.603
 9421W        W68517  28.114  20.179  10.405
 9422W        W68518  29.469  26.686   4.250
 9423W        W68519  44.263   2.892  12.413
 9424W        W68520  27.456  13.233  14.958
 9425W        W68521  27.117   7.818   4.221
 9426W        W68522  24.084  20.211  14.385
 9427W        W68523   4.421   4.754   3.377
 9428W        W68524  11.174  26.179   4.797
 9429W        W68525   5.732  20.609   2.666
 9430W        W68526   8.831   4.332   0.905
 9431W        W68527  25.562  12.337   4.598
 9432W        W68528  21.188  20.677   1.728
 9433W        W68529  23.148  41.375  12.004
 9434W        W68530  24.098  27.609  11.898
 9435W        W68531   8.880   1.820  10.910
 9436W        W68532  12.141  10.649   3.799
 9437W        W68533  44.502   6.831  11.460
 9438W        W68534   9.854  39.993   1.227
 9439W        W68535  29.957   7.713   2.331
 9440W        W68536   8.681   2.250  13.439
 9441W        W68537  13.648  37.018   3.165
 9442W        W68538  15.820  32.038  10.568
 9443W        W68539  17.592   4.817  11.861
 9444W        W68540  22.244  41.440   0.810
 9445W        W68541  13.620  26.478  12.879
 9446W        W68542   7.185   7.186  11.420
 9447W        W68543  24.058  27.013   2.894
 9448W        W68544   8.897  13.207  13.948
 9449W        W68545  26.550  21.033   1.832
 9450W        W68546  35.030  37.492  12.438
 9451W        W68547  15.730  15.300  13.946
 9452W        W68548  38.531  15.791   0.265
 9453W        W68549  21.528   7.386  11.448
 9454W        W68550  14.693  31.513   0.480
 9455W        W68551   0.911  19.777   1.845
 9456W        W68552  41.388   7.880  14.925
 9457W        W68553  28.995   1.812  12.578
 9458W        W68554   6.319   0.929  12.457
 9459W        W68555   1.362   4.355  11.099
 9460W        W68556   5.196   4.413   2.368
 9461W        W68557  37.363  24.677   1.304
 9462W        W68558  17.079  17.253  11.539
 9463W        W68559  15.771  17.662  14.000
 9464W        W68560   7.749  20.060   0.396
 9465W        W68561  22.138   7.211  10.990
 9466W        W68562  16.288  41.796  11.522
 9467W        W68563  12.779   8.732  13.852
 9468W        W68564  30.156  27.679  10.907
 9469W        W68565   7.173  37.577  13.317
 9470W        W68566  44.277  25.519   3.326
 9471W        W68567   0.328  41.439   4.774
 9472W        W68568  10.345  22.014   0.323
 9473W        W68569  16.307  18.698  13.502
 9474W        W68570  28.953   9.378   0.257
 9475W        W68571  13.204  27.955   5.581
 9476W        W68572  10.191  34.946   3.236
 9477W        W68573   1.890  15.286   1.322
 9478W        W68574  22.649  37.501   0.834
 9479W        W68575  28.057  34.510  14.321
 9480W        W68576  14.329  33.483   4.147
 9481W        W68577   8.676  12.116  13.869
 9482W        W68578  25.516  10.220  13.308
 9483W        W68579  13.716  39.815   1.346
 9484W        W68580   3.729  13.675   3.772
 9485W        W68581   7.716  40.878  13.987
 9486W        W68582   7.202  26.490   1.434
 9487W        W68583  27.184   4.870   4.349
 9488W        W68584  33.543  43.863  14.372
 9489W        W68585  27.588  10.159   2.409
 9490W        W68586  20.549  34.493  12.345
 9491W        W68587  31.579  39.830   1.242
 9492W        W68588  40.309  33.885  11.968
 9493W        W68589  20.576  15.579   0.436
 9494W        W68590   2.422  20.720  14.483
 9495W        W68591   0.860  10.186   1.300
 9496W        W68592  13.339   5.383  13.350
 9497W        W68593  35.398  24.609   4.632
 9498W        W68594  13.216  30.513   0.333
 9499W        W68595  28.033  39.059   1.833
 9500W        W68596  42.830   0.478   0.305
 9501W        W68597  24.690  40.019  12.919
 9502W        W68598   7.340  12.188  14.794
 9503W        W68599  26.057  27.569   1.442
 9504W        W68600  33.047  40.952  10.632
 9505W        W68601  13.727  10.299  13.940
 9506W        W68602  14.301  20.759  10.448
 9507W        W68603   4.893  11.798   1.301
 9508W        W68604  36.091  31.540  11.415
 9509W        W68605  10.292  24.524   3.827
 9510W        W68606  31.646   2.420   2.718
 9511W        W68607  29.137  33.620  14.506
 9512W        W68608  29.093  28.966  10.898
 9513W        W68609   1.850  26.477   1.362
 9514W        W68610  14.311  31.144   0.907
 9515W        W68611  32.564   6.902  12.908
 9516W        W68612  42.815  22.130  10.447
 9517W        W68613  35.091  37.895  13.353
 9518W        W68614  19.189  31.065   0.286
 9519W        W68615  44.277  35.359   4.320
 9520W        W68616  17.780  16.188   3.379
 9521W        W68617  34.992  37.888   0.879
 9522W        W68618  17.205  23.620   4.728
 9523W        W68619   0.780   4.329   0.407
 9524W        W68620  39.433  29.139  11.878
 9525W        W68621  10.274  23.128  13.444
 9526W        W68622  38.454   4.242   3.695
 9527W        W68623  42.420  26.113  11.590
 9528W        W68624   3.282  20.164   1.832
 9529W        W68625  20.253   3.858   4.160
 9530W        W68626  25.578  31.107   4.272
 9531W        W68627  30.611  35.979   0.753
 9532W        W68628  22.077   4.301  13.053
 9533W        W68629  27.094   6.340  11.856
 9534W        W68630  34.433   4.876   2.234
 9535W        W68631   0.921  43.299   1.824
 9536W        W68632   6.687  39.416   2.297
 9537W        W68633  44.385   8.381   0.965
 9538W        W68634   7.246  10.148   0.873
 9539W        W68635  13.159  26.557   4.690
 9540W        W68636  26.674   0.915  14.443
 9541W        W68637  37.448   1.364  13.352
 9542W        W68638  43.937   6.280  13.837
 9543W        W68639   4.363  20.699  11.479
 9544W        W68640   6.862  10.867  12.490
 9545W        W68641   7.743  19.671   1.363
 9546W        W68642  28.026   7.893   5.313
 9547W        W68643  23.500  10.157   1.790
 9548W        W68644  26.092   2.921   1.311
 9549W        W68645  23.627  33.464  13.884
 9550W        W68646  39.360  17.770   2.895
 9551W        W68647  13.803  34.505   4.688
 9552W        W68648  38.911   7.905  10.988
 9553W        W68649  37.069   9.186  12.555
 9554W        W68650  43.501  10.653  13.849
 9555W        W68651  21.241  23.646   3.155
 9556W        W68652  26.562  14.649  13.414
 9557W        W68653  28.986   9.208   4.706
 9558W        W68654   7.792   8.791   3.186
 9559W        W68655  15.740   1.237   1.381
 9560W        W68656  23.628  18.633  14.888
 9561W        W68657  33.456  40.843  10.906
 9562W        W68658  39.814   2.352   3.795
 9563W        W68659  39.449  18.652  14.300
 9564W        W68660   7.341  35.497  11.886
 9565W        W68661  32.392  26.149   2.762
 9566W        W68662   5.809  33.042   4.628
 9567W        W68663  41.534  29.097  12.524
 9568W        W68664   3.726  19.111  12.019
 9569W        W68665  19.096  40.965   3.165
 9570W        W68666  13.277  39.345  14.313
 9571W        W68667  30.104   7.314   2.186
 9572W        W68668  33.014  36.574  14.932
 9573W        W68669  12.754  11.761  13.368
 9574W        W68670  20.087  19.671  14.858
 9575W        W68671   7.785   8.280  14.994
 9576W        W68672  40.826  39.011   0.791
 9577W        W68673  19.592  21.064   1.783
 9578W        W68674  32.444  26.004  14.843
 9579W        W68675  33.089  34.069  14.391
 9580W        W68676   5.372   7.906  12.978
 9581W        W68677  24.180  34.067  14.901
 9582W        W68678  22.172   4.824   3.233
 9583W        W68679  11.727  43.370  14.860
 9584W        W68680   5.281  28.536  11.484
 9585W        W68681  34.067  33.078   0.760
 9586W        W68682  37.860   9.268  13.488
 9587W        W68683  10.230  39.900  12.939
 9588W        W68684  16.290  29.444   4.835
 9589W        W68685  28.606  17.194  10.490
 9590W        W68686  13.179  25.501  12.510
 9591W        W68687  22.572  29.952   3.180
 9592W        W68688  22.719  19.751  12.057
 9593W        W68689  23.636  26.695   0.313
 9594W        W68690  17.069  32.617  11.410
 9595W        W68691  42.788  39.040   1.774
 9596W        W68692  36.393  14.749  10.632
 9597W        W68693  19.121   2.467  13.984
 9598W        W68694   0.379  29.965   3.383
 9599W        W68695  33.602  17.271  12.903
 9600W        W68696  36.920  30.130   2.268
 9601W        W68697  22.707   7.271   1.848
 9602W        W68698  39.501  25.561   3.682
 9603W        W68699  33.454  38.445   0.366
 9604W        W68700  22.629   9.760   5.122
 9605W        W68701  39.510   6.189   4.273
 9606W        W68702  10.785  23.522  12.383
 9607W        W68703  11.141  33.612  14.978
 9608W        W68704   1.319  40.045   2.190
 9609W        W68705   7.229  32.087   2.732
 9610W        W68706  36.496  42.777   0.940
 9611W        W68707   5.716  24.139   2.389
 9612W        W68708  41.413  37.047   2.777
 9613W        W68709  41.436   3.858  11.986
 9614W        W68710  13.694  36.413   2.242
 9615W        W68711  21.747  33.423   2.322
 9616W        W68712  15.130  15.185   2.334
 9617W        W68713   7.879  18.249   3.729
 9618W        W68714  22.029  10.357  12.881
 9619W        W68715  38.034   7.270   0.414
 9620W        W68716  33.073  24.134  14.511
 9621W        W68717  16.694   1.401  14.795
 9622W        W68718  31.016  12.811   5.096
 9623W        W68719  11.210  17.295  11.413
 9624W        W68720  15.247  39.005   4.323
 9625W        W68721  38.363  30.026  14.026
 9626W        W68722  36.881  16.084   1.743
 9627W        W68723   8.766  41.293  14.785
 9628W        W68724   8.700   1.385   4.838
 9629W        W68725  13.834  39.544   4.733
 9630W        W68726  36.903  36.583   2.348
 9631W        W68727  26.518   8.806  11.570
 9632W        W68728  38.058  36.416  14.415
 9633W        W68729   8.768  19.265   0.726
 9634W        W68730  34.121  42.967   0.939
 9635W        W68731   2.252  11.639  12.346
 9636W        W68732  14.152  38.566   0.349
 9637W        W68733  11.310  21.175  11.474
 9638W        W68734  29.467  37.564  11.857
 9639W        W68735  31.506  27.037   1.814
 9640W        W68736  41.333  14.711  11.565
 9641W        W68737  25.990   5.749  13.980
 9642W        W68738  43.429  13.606   1.837
 9643W        W68739  19.681   6.876   5.149
 9644W        W68740  26.527  36.372  13.529
 9645W        W68741  12.757  25.202   4.823
 9646W        W68742  21.641   0.782  14.799
 9647W        W68743  15.321  38.485   0.385
 9648W        W68744  11.244   5.407   2.742
 9649W        W68745   5.371   9.788   1.856
 9650W        W68746  29.629   3.349   2.390
 9651W        W68747   0.829  29.129  12.536
 9652W        W68748  23.021  29.052   2.362
 9653W        W68749  28.556  38.854   2.788
 9654W        W68750  36.921  16.610   4.322
 9655W        W68751   3.834  37.058   2.716
 9656W        W68752  25.620  33.403   0.351
 9657W        W68753  19.252  33.415  12.568
 9658W        W68754  22.147   3.236   0.753
 9659W        W68755  37.449  33.046  13.544
 9660W        W68756  23.609  28.171   3.813
 9661W        W68757  35.077   2.741  10.406
 9662W        W68758  38.400  43.274  11.921
 9663W        W68759  10.330  20.648   9.926
 9664W        W68760   6.756  10.821  13.001
 9665W        W68761  12.695  22.088   3.868
 9666W        W68762   9.725  11.831   1.917
 9667W        W68763  30.529  37.421   5.120
 9668W        W68764  19.180  19.156  14.761
 9669W        W68765   8.892  33.563   3.665
 9670W        W68766  35.963  44.340  10.894
 9671W        W68767  18.695   2.813  12.068
 9672W        W68768  14.142  35.916   0.441
 9673W        W68769   4.779   5.249  14.462
 9674W        W68770  35.584   9.819   3.858
 9675W        W68771  32.973   0.988  14.997
 9676W        W68772   6.400  34.916   1.399
 9677W        W68773  35.974  30.926   1.935
 9678W        W68774  38.519  40.369  14.280
 9679W        W68775  11.631  11.825   4.327
 9680W        W68776   4.406  28.490  12.080
 9681W        W68777   3.228  35.955  12.902
 9682W        W68778  32.592  36.051  11.555
 9683W        W68779  15.151  23.653   3.265
 9684W        W68780   7.818  17.122   1.860
 9685W        W68781  32.624  40.832   0.741
 9686W        W68782  23.154   7.198   5.092
 9687W        W68783  12.179  27.172   2.324
 9688W        W68784  19.619  43.275  11.917
 9689W        W68785  19.207   1.244   2.326
 9690W        W68786  35.452   3.302   5.261
 9691W        W68787  16.670  36.089  12.023
 9692W        W68788  20.094  33.596  11.040
 9693W        W68789  21.710   3.780   0.369
 9694W        W68790  39.428  35.867  14.305
 9695W        W68791  25.644  19.178   2.256
 9696W        W68792   1.852  28.144   0.925
 9697W        W68793  11.190  32.140   5.289
 9698W        W68794  40.982  24.594  11.412
 9699W        W68795   1.834  16.296   1.417
 9700W        W68796  30.514  39.839   1.312
 9701W        W68797  11.319  33.523   2.734
 9702W        W68798   1.941   2.785   2.343
 9703W        W68799  19.058  44.262  13.952
 9704W        W68800  31.060  36.885   2.319
 9705W        W68801  41.386  16.155   0.893
 9706W        W68802  38.350  21.526   1.433
 9707W        W68803  34.897  13.661   4.187
 9708W        W68804   7.908  38.003  14.391
 9709W        W68805  41.919  22.098   1.700
 9710W        W68806  35.096  18.582   3.787
 9711W        W68807  15.661  10.668  10.932
 9712W        W68808  34.891  22.530  12.346
 9713W        W68809  27.021  21.557  13.485
 9714W        W68810  15.731  34.896  13.472
 9715W        W68811  15.229  39.003  14.941
 9716W        W68812  16.182  40.367  13.383
 9717W        W68813  15.669   9.308  12.421
 9718W        W68814  26.184  15.709   2.379
 9719W        W68815  25.517  24.574   0.333
 9720W        W68816  31.576  39.378  11.924
 9721W        W68817  17.065   7.683  10.916
 9722W        W68818   8.241  24.001  11.523
 9723W        W68819  39.473  25.073  10.566
 9724W        W68820  41.853  24.133  11.420
 9725W        W68821   6.920  19.714  13.040
 9726W        W68822  17.267  16.585   3.264
 9727W        W68823  39.963  14.744   3.161
 9728W        W68824   2.812   1.481   0.377
 9729W        W68825  13.351  42.804  14.497
 9730W        W68826  20.263  42.015  10.628
 9731W        W68827  21.656  36.484  12.451
 9732W        W68828  22.017  40.929   1.794
 9733W        W68829  11.813   9.647   0.882
 9734W        W68830  13.707   7.886   3.150
 9735W        W68831   4.859   9.790   3.202
 9736W        W68832  37.521  31.944  10.499
 9737W        W68833  27.520   2.364  12.853
 9738W        W68834  32.891  36.982   1.720
 9739W        W68835   4.281  13.237  13.797
 9740W        W68836  20.139  18.258   0.406
 9741W        W68837  18.569  17.232  11.923
 9742W        W68838   0.372  13.649   1.850
 9743W        W68839   0.329   4.230  14.508
 9744W        W68840   2.850  38.830  12.088
 9745W        W68841  18.140  28.470  13.368
 9746W        W68842  21.585  38.553  14.014
 9747W        W68843  11.724  19.568  11.936
 9748W        W68844   2.415  16.667  12.547
 9749W        W68845  12.780  16.567   9.659
 9750W        W68846   0.965  40.974   1.774
 9751W        W68847  34.000  43.385   1.872
 9752W        W68848  27.639  10.192  14.472
 9753W        W68849  40.908   7.283  14.309
 9754W        W68850  38.552  11.351   2.847
 9755W        W68851  36.848  23.148  11.075
 9756W        W68852  39.371  42.790   4.199
 9757W        W68853  11.835  20.583   3.657
 9758W        W68854  22.712  37.365   1.699
 9759W        W68855  13.802  22.632   2.276
 9760W        W68856  40.913  12.630   0.381
 9761W        W68857  24.069  16.111   2.290
 9762W        W68858  18.051  21.080   0.945
 9763W        W68859  34.552  27.169   2.276
 9764W        W68860  43.283  17.267   1.236
 9765W        W68861  40.368  25.538  11.561
 9766W        W68862  22.141  35.963  11.516
 9767W        W68863  10.162  15.797  11.950
 9768W        W68864  34.991   7.311  11.396
 9769W        W68865  18.598  40.009  14.886
 9770W        W68866  43.835  29.100  12.562
 9771W        W68867  33.035  31.417  11.959
 9772W        W68868  38.412   8.346  11.383
 9773W        W68869  29.001  17.220   4.147
 9774W        W68870  28.488  17.266   3.791
 9775W        W68871  19.568  31.916  11.537
 9776W        W68872  24.016  36.394  13.832
 9777W        W68873  16.726  34.570   0.395
 9778W        W68874  27.035  10.224  14.891
 9779W        W68875  26.066  42.885  12.437
 9780W        W68876  43.347  27.618  13.904
 9781W        W68877  23.188   5.863   0.382
 9782W        W68878  24.976  43.421  14.381
 9783W        W68879  13.622   0.444  14.871
 9784W        W68880  42.931  18.060   4.675
 9785W        W68881   1.775  10.315   0.373
 9786W        W68882   2.261   8.390  11.926
 9787W        W68883   6.862   6.701  13.014
 9788W        W68884  40.880  11.809   3.804
 9789W        W68885  35.587  37.945   3.661
 9790W        W68886  32.504  37.437   5.205
 9791W        W68887  37.575  14.713   4.331
 9792W        W68888  22.589  28.607   1.907
 9793W        W68889  27.957   8.785   4.619
 9794W        W68890  18.672   1.400  13.517
 9795W        W68891  39.492  25.058  13.338
 9796W        W68892  17.618  33.385  11.482
 9797W        W68893  40.817   0.275  14.828
 9798W        W68894  25.080  32.959   0.845
 9799W        W68895   9.203  44.369  12.409
 9800W        W68896  23.011  28.998   3.714
 9801W        W68897  10.202  23.019  12.356
 9802W        W68898  29.014  25.177  10.589
 9803W        W68899   5.721   1.746  13.855
 9804W        W68900  14.758  16.121  10.578
 9805W        W68901   2.261  44.457  11.586
 9806W        W68902   9.303  12.761  12.022
 9807W        W68903  28.991  31.597  12.442
 9808W        W68904  37.035  17.688  11.968
 9809W        W68905  14.740   5.214  12.878
 9810W        W68906   2.966  20.032  12.041
 9811W        W68907  25.144  18.260  11.453
 9812W        W68908  11.632  41.926  13.877
 9813W        W68909  19.083  26.586   1.719
 9814W        W68910  29.034  37.038   0.337
 9815W        W68911  22.647  30.061  10.054
 9816W        W68912  28.442  11.260   2.902
 9817W        W68913  38.378   1.307   2.245
 9818W        W68914  34.048  29.977   2.780
 9819W        W68915  24.010  29.927   0.785
 9820W        W68916  11.277  25.494   1.216
 9821W        W68917  38.497   7.258  13.812
 9822W        W68918   0.307  17.081   4.312
 9823W        W68919  43.765  43.012   2.736
 9824W        W68920  12.786  33.383   0.820
 9825W        W68921  13.223   8.212  14.915
 9826W        W68922   5.251   7.250  10.422
 9827W        W68923  27.516  24.633  10.483
 9828W        W68924  31.473  21.030  14.837
 9829W        W68925  35.423  28.584  11.085
 9830W        W68926  18.622  18.235  14.768
 9831W        W68927  42.866  14.226   4.724
 9832W        W68928  15.697  20.174  14.858
 9833W        W68929  38.004   9.340  10.905
 9834W        W68930  26.579  26.129  12.504
 9835W        W68931  28.156   4.299   3.825
 9836W        W68932  38.966  19.047   1.365
 9837W        W68933  25.166  38.567  12.340
 9838W        W68934  24.154  44.760  12.577
 9839W        W68935  36.909  18.545  13.483
 9840W        W68936  12.636  37.981  13.055
 9841W        W68937   3.400  41.431  10.579
 9842W        W68938  38.348  22.697   1.246
 9843W        W68939  26.618  19.245  14.773
 9844W        W68940  43.276   5.266  10.582
 9845W        W68941  36.401   3.841  14.893
 9846W        W68942  34.091  18.650  12.502
 9847W        W68943   9.849  32.888  10.465
 9848W        W68944  16.257  23.174  13.820
 9849W        W68945   8.882  14.230   4.136
 9850W        W68946  13.178  41.033   0.947
 9851W        W68947  19.728   1.329  12.050
 9852W        W68948   6.330  24.997  12.912
 9853W        W68949  29.137  19.245  10.627
 9854W        W68950   6.206  24.706   0.928
 9855W        W68951  39.336  43.427   2.339
 9856W        W68952  44.328  36.021  12.402
 9857W        W68953   6.292  21.535  12.459
 9858W        W68954  18.581  17.232   5.092
 9859W        W68955  23.561   9.857   5.096
 9860W        W68956  29.552  20.046  14.873
 9861W        W68957  20.684   4.422  10.461
 9862W        W68958  22.707  14.653  14.376
 9863W        W68959  28.043  22.213  11.042
 9864W        W68960  35.101  25.980   3.170
 9865W        W68961  10.153  30.935  14.926
 9866W        W68962  31.043  25.975   2.701
 9867W        W68963  42.879  11.318  10.580
 9868W        W68964  33.031   3.853  14.392
 9869W        W68965  38.515  38.033  14.990
 9870W        W68966   8.363  22.700   1.345
 9871W        W68967  41.787  30.523   5.130
 9872W        W68968  25.975   0.373  13.897
 9873W        W68969   0.283  38.034  10.965
 9874W        W68970   9.167   9.163  10.932
 9875W        W68971  36.467  26.508  12.564
 9876W        W68972  19.063  28.641  11.069
 9877W        W68973   0.310  27.163  13.467
 9878W        W68974  27.577  24.548   0.751
 9879W        W68975  16.184  19.192   2.399
 9880W        W68976  42.866  26.001   3.631
 9881W        W68977  19.652  28.988   2.788
 9882W        W68978  32.549  40.472   0.954
 9883W        W68979   6.901   1.830  12.862
 9884W        W68980  24.110  43.508  11.126
 9885W        W68981  12.199  29.144  12.096
 9886W        W68982  16.254  29.957   1.862
 9887W        W68983  39.446  39.932  13.980
 9888W        W68984  43.270  24.107  11.022
 9889W        W68985  36.527  23.129   0.387
 9890W        W68986  35.068   6.404   0.443
 9891W        W68987   1.287  12.278  12.526
 9892W        W68988  39.383  20.655  14.388
 9893W        W68989  35.360  43.773  14.971
 9894W        W68990  41.807  41.871  11.568
 9895W        W68991  29.617  42.906  11.859
 9896W        W68992  14.267  41.320  14.967
 9897W        W68993  18.113  17.092   3.359
 9898W        W68994  43.789  12.121   4.644
 9899W        W68995  10.362  34.945  14.367
 9900W        W68996  16.610   5.344  12.842
 9901W        W68997  23.128  39.954  14.773
 9902W        W68998  13.745  44.999  12.961
 9903W        W68999   8.184  42.966   4.610
 9904W        W69000  35.478  15.092   1.243
 9905W        W69001  25.648  25.704   1.747
 9906W        W69002  16.791  17.163  14.389
 9907W        W69003  43.775  33.391   0.924
 9908W        W69004  11.770  29.460   1.873
 9909W        W69005  28.644  33.087   5.729
 9910W        W69006  15.805  31.935   0.352
 9911W        W69007  20.072  32.482  14.424
 9912W        W69008  38.421  24.163  10.596
 9913W        W69009  20.092  19.059   0.888
 9914W        W69010  44.503  15.810   0.463
 9915W        W69011  11.833  21.568   4.180
 9916W        W69012  25.113  28.067  10.923
 9917W        W69013   1.865  11.868  14.305
 9918W        W69014  35.489   2.417   1.410
 9919W        W69015  36.410  22.017  10.898
 9920W        W69016  44.471  15.669   0.814
 9921W        W69017   3.240   4.848   3.205
 9922W        W69018  37.389  31.587   0.479
 9923W        W69019   3.950  22.203  12.069
 9924W        W69020  15.162   5.199   4.185
 9925W        W69021   1.858  34.464   1.709
 9926W        W69022  21.578  29.026   2.271
 9927W        W69023  12.285  22.599   0.373
 9928W        W69024  21.616  37.849  11.117
 9929W        W69025   6.408  16.123  11.062
 9930W        W69026  26.630  20.550  12.032
 9931W        W69027  32.030  30.592  14.467
 9932W        W69028  20.586  30.570   4.308
 9933W        W69029   5.840  21.597  13.943
 9934W        W69030  43.512  20.239   3.272
 9935W        W69031  44.879  17.306   3.849
 9936W        W69032  36.093   4.330  14.903
 9937W        W69033   9.725  44.817   3.846
 9938W        W69034  14.333  11.224  14.508
 9939W        W69035  25.210  11.307  12.401
 9940W        W69036  37.842  35.443  11.029
 9941W        W69037  35.554  20.135  12.001
 9942W        W69038  38.467  32.938   2.713
 9943W        W69039   5.383  27.454  10.901
 9944W        W69040  24.535  15.630  11.020
 9945W        W69041  39.825  18.232  11.870
 9946W        W69042  14.323   8.809  11.389
 9947W        W69043  11.295   2.377   1.924
 9948W        W69044  23.726   3.301  11.980
 9949W        W69045  30.127  23.168  11.902
 9950W        W69046  10.317  31.115  12.435
 9951W        W69047  15.191   0.309  13.340
 9952W        W69048  34.523  38.973   1.226
 9953W        W69049  27.044  27.046   3.646
 9954W        W69050   2.800  39.476   3.671
 9955W        W69051  19.776  16.646  12.374
 9956W        W69052  40.425  36.041   1.764
 9957W        W69053   3.432  24.984   0.833
 9958W        W69054  44.972   8.188  13.334
 9959W        W69055  34.940  33.026  12.423
 9960W        W69056  19.709   2.757  12.494
 9961W        W69057  40.444   6.688  13.837
 9962W        W69058  31.976  10.746  11.056
 9963W        W69059  29.094  32.077  12.467
 9964W        W69060   9.174  29.504   3.281
 9965W        W69061  16.785  21.729   4.291
 9966W        W69062  23.080   4.378   0.292
 9967W        W69063  42.979   0.833  14.957
 9968W        W69064  26.207  23.548   4.284
 9969W        W69065  26.576  40.472  11.402
 9970W        W69066  42.306  25.675  14.009
 9971W        W69067  32.392  28.502  10.432
 9972W        W69068  25.475  25.158   2.730
 9973W        W69069  24.158  25.510   3.223
 9974W        W69070  34.407   7.210   3.861
 9975W        W69071   2.259  17.174  14.413
 9976W        W69072  24.550  42.799  14.453
 9977W        W69073  40.437  41.383   1.364
 9978W        W69074  21.540  10.169   5.311
 9979W        W69075  43.945  41.825   0.731
 9980W        W69076   6.841   2.432   3.683
 9981W        W69077   0.844  11.287   0.356
 9982W        W69078  26.061  19.190  14.458
 9983W        W69079  39.923  31.997   0.426
 9984W        W69080  22.598  33.123   3.353
 9985W        W69081  36.033  32.572   3.802
 9986W        W69082  12.817  38.891   2.307
 9987W        W69083  19.738  10.256  11.901
 9988W        W69084  12.615  42.848   0.910
 9989W        W69085  13.179  33.906   4.667
 9990W        W69086  20.584  30.519  10.621
 9991W        W69087  15.197  42.449  13.033
 9992W        W69088  26.694  24.137   2.794
 9993W        W69089  13.666  17.214   1.265
 9994W        W69090  20.112   3.795  12.497
 9995W        W69091  13.159   1.759   1.879
 9996W        W69092  38.823  28.182  11.422
 9997W        W69093   5.721   8.250   3.830
 9998W        W69094  44.296  18.594  13.410
 9999W        W69095   8.674   0.910   5.293
10000W        W69096  30.572   6.875   2.191
10001W        W69097  35.914  11.338   2.403
10002W        W69098  12.283   9.821  13.522
10003W        W69099  33.985  20.540   1.757
10004W        W69100   4.867   8.767  11.473
10005W        W69101  36.891  28.672  14.888
10006W        W69102  29.665  39.928   2.302
10007W        W69103  11.799  14.323  11.380
10008W        W69104  13.715   9.350  13.451
10009W        W69105   4.343   1.853  14.400
10010W        W69106   3.747  30.943  12.553
10011W        W69107   5.700   2.823   3.684
10012W        W69108   7.832  41.462   2.669
10013W        W69109  14.770  29.959   3.384
10014W        W69110  11.264   0.441   3.701
10015W        W69111  26.657  15.188   2.204
10016W        W69112  38.830  43.870   4.327
10017W        W69113  25.219  31.482   3.765
10018W        W69114   5.761  32.005   1.371
10019W        W69115  26.040  34.482   0.401
10020W        W69116   3.424  15.770   2.286
10021W        W69117  34.121  24.507  11.596
10022W        W69118  36.592  36.010  10.542
10023W        W69119  24.678  42.991   3.847
10024W        W69120  28.463  39.884  14.483
10025W        W69121  16.684   9.232   1.702
10026W        W69122  32.023  41.003  14.028
10027W        W69123  32.413  44.996  11.064
10028W        W69124  18.729  40.523   1.887
10029W        W69125  17.254  35.387  10.995
10030W        W69126  26.039  22.089  14.355
10031W        W69127   6.811   8.234   4.690
10032W        W69128   1.924  16.689  12.480
10033W        W69129   6.284  38.074   1.415
10034W        W69130   1.737  44.891  13.930
10035W        W69131   4.779  14.165   9.934
10036W        W69132  37.359   4.299  14.000
10037W        W69133  41.406  16.185  12.418
10038W        W69134  38.517   5.303  11.915
10039W        W69135  11.635  24.100   1.708
10040W        W69136   6.310  19.264  12.890
10041W        W69137  36.505  23.555   4.257
10042W        W69138   5.196  31.988   1.250
10043W        W69139  18.056  30.437   4.748
10044W        W69140   8.309  22.685   4.196
10045W        W69141   4.937  13.768   0.454
10046W        W69142  23.495   5.922  14.274
10047W        W69143  29.578   3.239   4.134
10048W        W69144  19.691   1.325   1.896
10049W        W69145  21.703  38.461   4.604
10050W        W69146  18.219  38.491  13.866
10051W        W69147  30.634  31.082   0.440
10052W        W69148  34.405  36.563  12.869
10053W        W69149  43.893  19.595  10.950
10054W        W69150  42.494  32.940   1.245
10055W        W69151  35.852   4.707   2.269
10056W        W69152   3.298  26.566   0.901
10057W        W69153   4.238   4.377  10.984
10058W        W69154  16.271   7.192   0.246
10059W        W69155  37.386  31.640   1.706
10060W        W69156  20.706  23.126   3.364
10061W        W69157  13.340  22.615   4.183
10062W        W69158  41.024  37.832   0.890
10063W        W69159  16.140  39.936  13.346
10064W        W69160   8.869  37.870  11.920
10065W        W69161   9.248  33.057  12.948
10066W        W69162  25.186   5.204   2.818
10067W        W69163   4.363   5.270  11.513
10068W        W69164  35.408   6.874   3.170
10069W        W69165   6.246   2.235   3.637
10070W        W69166  16.652  20.187  13.392
10071W        W69167   8.862  25.201  11.868
10072W        W69168  32.890  20.524   4.236
10073W        W69169  38.403  38.479   0.880
10074W        W69170  29.616  32.451  14.470
10075W        W69171   0.753  10.225  11.955
10076W        W69172  43.874  23.578  14.393
10077W        W69173   9.293  13.201   4.653
10078W        W69174  20.767  14.635   0.936
10079W        W69175  36.055  38.542  11.035
10080W        W69176  15.098  39.961   4.231
10081W        W69177  43.444  37.553  12.438
10082W        W69178  17.200  18.213   0.747
10083W        W69179   3.426  23.606   2.405
10084W        W69180   9.300  18.055   1.800
10085W        W69181  39.347  36.008  12.562
10086W        W69182  15.167  17.066   4.767
10087W        W69183  39.867   7.870  13.389
10088W        W69184   2.433  30.432  10.088
10089W        W69185  22.012  29.637   3.742
10090W        W69186  20.115  15.641  10.403
10091W        W69187  44.392  11.697   0.786
10092W        W69188  28.056  14.592   0.897
10093W        W69189  33.426  13.289  10.888
10094W        W69190  35.853  15.610  10.157
10095W        W69191  20.237  42.286  14.512
10096W        W69192  23.680  30.048  10.475
10097W        W69193  31.517  13.831   4.342
10098W        W69194  22.146  36.999   0.374
10099W        W69195  27.041  33.905   5.222
10100W        W69196  25.966   7.878   3.640
10101W        W69197  44.923  21.712   1.306
10102W        W69198  30.066   8.869   3.791
10103W        W69199   9.174  38.842  13.914
10104W        W69200  36.393  43.916  13.414
10105W        W69201  14.095  28.116  14.028
10106W        W69202  26.500  25.201   3.299
10107W        W69203  11.828   0.284  10.544
10108W        W69204   7.344  23.183  13.895
10109W        W69205  41.526  17.791  11.928
10110W        W69206   8.731  42.333   3.257
10111W        W69207   3.895  14.691  13.531
10112W        W69208  44.497  10.644   3.710
10113W        W69209  31.538  15.713  13.834
10114W        W69210  23.604  27.023   1.308
10115W        W69211  13.787  15.101   1.443
10116W        W69212  22.648  20.716   1.823
10117W        W69213   6.391   3.413   1.411
10118W        W69214  41.962  28.063   9.990
10119W        W69215  11.733   9.653   2.678
10120W        W69216  17.153  16.191  13.030
10121W        W69217   4.880   0.974   5.288
10122W        W69218   0.466  26.101  13.406
10123W        W69219  38.047   5.378   3.190
10124W        W69220  17.779  30.456   4.784
10125W        W69221  13.728  20.546   4.190
10126W        W69222  35.373  17.064   1.276
10127W        W69223  27.593  15.603   3.788
10128W        W69224  14.191  34.532  13.470
10129W        W69225  31.568  37.514  11.899
10130W        W69226  13.234  34.977  11.487
10131W        W69227  29.144  40.388  12.511
10132W        W69228  39.985  25.487  10.458
10133W        W69229  26.117  24.708  13.061
10134W        W69230  20.650  44.850   1.397
10135W        W69231  22.560  29.942   1.302
10136W        W69232   0.817  30.096  14.825
10137W        W69233  14.300  40.466  12.399
10138W        W69234   7.357  21.527  12.956
10139W        W69235  20.212  29.081  11.539
10140W        W69236  20.531   0.332  14.981
10141W        W69237  38.516  26.502   2.786
10142W        W69238  44.289  38.371  13.378
10143W        W69239  12.722  39.374   0.295
10144W        W69240  14.620  30.992  10.487
10145W        W69241  12.642  14.831  14.874
10146W        W69242  27.005  29.027   0.249
10147W        W69243  43.308  37.505  12.064
10148W        W69244  28.131   1.861   2.405
10149W        W69245  40.968   7.673   3.868
10150W        W69246  16.250  29.506  14.853
10151W        W69247  30.619  23.571   4.177
10152W        W69248  20.609  30.418   0.960
10153W        W69249  28.637  16.101  12.080
10154W        W69250   4.271  20.074   3.379
10155W        W69251  21.576  19.243   4.166
10156W        W69252  23.073   8.841   4.122
10157W        W69253   5.794  26.654   1.352
10158W        W69254  10.780  17.247  10.528
10159W        W69255   0.947  39.933  12.078
10160W        W69256  16.657   9.339   2.784
10161W        W69257   8.767   1.237   0.434
10162W        W69258  43.018  33.491   3.246
10163W        W69259   8.658  29.610   3.748
10164W        W69260   1.751  31.613   1.270
10165W        W69261  13.230  16.221   2.240
10166W        W69262   8.255  40.545   3.333
10167W        W69263  17.724  27.539   1.238
10168W        W69264  34.089  15.098   9.554
10169W        W69265  26.661  36.556   4.141
10170W        W69266  23.690  26.699  14.815
10171W        W69267  34.970  21.607  12.412
10172W        W69268  18.727  42.437  12.517
10173W        W69269  10.222  23.149   1.889
10174W        W69270  28.479   4.350  10.518
10175W        W69271  20.112  39.981  13.483
10176W        W69272  23.505  14.717   2.202
10177W        W69273  14.281  29.524   1.840
10178W        W69274  21.517  30.919  13.900
10179W        W69275   5.337  12.700   4.789
10180W        W69276  31.608  42.987  12.954
10181W        W69277  38.018   8.674   5.792
10182W        W69278  13.296  23.499   4.810
10183W        W69279   6.361  14.319  10.428
10184W        W69280  42.449  26.624  12.447
10185W        W69281  42.999   0.820   4.801
10186W        W69282  31.418   6.283   1.273
10187W        W69283  19.771  11.200   0.418
10188W        W69284  27.533   7.864   2.789
10189W        W69285   7.387  32.983   3.283
10190W        W69286  29.176  29.440  13.425
10191W        W69287  11.292  42.313  11.863
10192W        W69288  41.803   0.388  14.344
10193W        W69289  18.707   8.699  10.536
10194W        W69290  41.803  41.813  14.758
10195W        W69291  35.910  43.435  10.429
10196W        W69292  39.865   5.206   4.633
10197W        W69293  20.110  24.049   1.874
10198W        W69294  23.189   3.351   4.222
10199W        W69295  40.000  17.157   1.442
10200W        W69296  26.976  22.558  12.911
10201W        W69297  28.566  13.766  13.473
10202W        W69298  31.535  39.335   4.613
10203W        W69299  43.370  10.858  10.975
10204W        W69300  14.282  33.536  14.339
10205W        W69301   4.444  15.311  14.402
10206W        W69302  20.576   9.665   4.819
10207W        W69303   5.717  39.815  11.031
10208W        W69304   6.679  15.218   4.231
10209W        W69305  24.191  10.678  10.464
10210W        W69306  34.454  36.378  14.032
10211W        W69307  33.051  32.895   1.833
10212W        W69308  28.944  19.082   4.752
10213W        W69309  37.910  23.618   3.784
10214W        W69310  33.970  35.879  12.378
10215W        W69311  22.014  25.172   4.725
10216W        W69312  37.910   8.359  14.822
10217W        W69313  21.545  28.938   1.310
10218W        W69314  20.606  22.101   3.764
10219W        W69315  11.167  29.490   2.686
10220W        W69316  41.867  40.802  14.955
10221W        W69317  29.645  40.471  14.774
10222W        W69318  15.260  29.067  11.858
10223W        W69319   5.849  33.895   1.867
10224W        W69320  42.982   5.282   0.760
10225W        W69321   2.806  28.013  12.550
10226W        W69322  28.439   6.344   0.836
10227W        W69323  25.635  34.985   0.919
10228W        W69324  29.589   2.763  12.447
10229W        W69325  17.214   8.685   1.320
10230W        W69326  30.599   9.704  14.844
10231W        W69327  31.589  30.540  14.410
10232W        W69328  43.374  35.405  13.951
10233W        W69329  31.002  17.184  13.914
10234W        W69330  17.558  42.019  11.612
10235W        W69331  18.577  15.777  11.962
10236W        W69332  18.610  34.087   5.114
10237W        W69333  42.353  24.043   1.898
10238W        W69334  11.796  40.874   3.348
10239W        W69335  15.230  33.594  10.077
10240W        W69336  40.021  37.472   1.370
10241W        W69337  44.377  20.682   3.342
10242W        W69338  13.754  20.601  10.890
10243W        W69339  25.116   1.889   3.744
10244W        W69340  32.406   4.252   3.248
10245W        W69341  38.364  14.116   1.299
10246W        W69342  39.369  36.468  14.308
10247W        W69343  25.156  26.537  10.564
10248W        W69344  14.793  36.544   3.760
10249W        W69345  30.613  21.238   1.213
10250W        W69346   0.480  22.512  10.624
10251W        W69347   6.858  42.458  14.846
10252W        W69348  19.198  32.577   1.292
10253W        W69349   9.692  22.134   2.236
10254W        W69350  37.409  33.543  13.934
10255W        W69351  23.132   4.367   1.385
10256W        W69352  42.912  43.896  12.866
10257W        W69353  32.966  18.070  11.948
10258W        W69354  44.425  24.220  12.882
10259W        W69355  43.401   0.258   2.707
10260W        W69356   0.383  29.934  13.319
10261W        W69357   9.336  40.954   4.325
10262W        W69358  24.684  44.759  13.478
10263W        W69359  25.702  44.925  11.011
10264W        W69360  17.154  35.369   0.255
10265W        W69361   7.322  25.686   0.323
10266W        W69362   8.331  34.393  10.623
10267W        W69363  10.712  19.251  14.993
10268W        W69364  44.801  35.008  14.802
10269W        W69365   2.913  36.486  13.487
10270W        W69366  28.082  33.081  10.505
10271W        W69367  24.567  40.911   4.837
10272W        W69368  14.113  42.911  12.478
10273W        W69369  27.101   9.877  11.434
10274W        W69370  20.670  15.110  12.548
10275W        W69371  22.688  30.598  14.978
10276W        W69372  20.043  34.086   2.816
10277W        W69373  31.619  31.457  13.798
10278W        W69374  22.635  10.319  13.841
10279W        W69375  30.446  14.600   4.239
10280W        W69376   0.255  15.098   4.833
10281W        W69377  35.900  18.088   2.865
10282W        W69378  27.044  40.443  13.375
10283W        W69379  42.812  15.177   3.712
10284W        W69380  36.870  29.522   2.719
10285W        W69381  12.652  17.634   2.317
10286W        W69382  15.606  26.522   1.322
10287W        W69383   7.831  25.678  13.540
10288W        W69384   9.371   3.758  12.461
10289W        W69385   4.801  24.145   3.276
10290W        W69386  29.442  33.541   2.229
10291W        W69387  13.293  29.569  13.417
10292W        W69388   7.354  25.549   2.776
10293W        W69389  29.538  11.639   2.710
10294W        W69390   6.818  27.467   0.472
10295W        W69391  16.656  19.667   4.266
10296W        W69392   2.328   2.956   4.676
10297W        W69393  27.016   7.851  10.951
10298W        W69394  14.212  19.534   1.852
10299W        W69395  23.170  31.493   0.374
10300W        W69396  27.456   7.249  12.052
10301W        W69397  29.944  19.219  13.944
10302W        W69398  34.006  38.559   2.397
10303W        W69399  17.731  11.767   0.919
10304W        W69400  43.370  29.648   2.803
10305W        W69401  27.486   4.734   2.681
10306W        W69402  26.978   4.706   3.808
10307W        W69403  17.145  26.544   1.870
10308W        W69404  22.605  21.237   4.777
10309W        W69405   2.472  16.096   4.768
10310W        W69406  13.676  21.545  10.496
10311W        W69407  38.937  18.263   1.443
10312W        W69408  19.611  10.832  12.090
10313W        W69409  24.124  28.151  13.394
10314W        W69410   5.872  26.986  14.467
10315W        W69411  11.344  33.422   1.907
10316W        W69412  17.152  22.234   4.652
10317W        W69413  35.896   6.752  10.475
10318W        W69414  42.913  11.365  13.879
10319W        W69415   9.300  39.425  11.001
10320W        W69416  30.624  13.609  12.930
10321W        W69417   5.263  42.928   4.223
10322W        W69418  34.024  16.788   2.419
10323W        W69419  30.962  21.556  13.506
10324W        W69420  32.595  13.773  11.081
10325W        W69421  39.330  31.450  13.982
10326W        W69422  31.489  13.251  11.448
10327W        W69423  38.362   8.240  14.010
10328W        W69424  15.601  43.787   1.287
10329W        W69425  26.179  18.622   4.121
10330W        W69426  27.114  12.639   3.792
10331W        W69427  21.055   6.755  12.361
10332W        W69428  44.007  26.595  10.963
10333W        W69429  22.525  34.546   2.768
10334W        W69430  39.923  25.647   4.792
10335W        W69431  16.172  11.146  13.812
10336W        W69432  12.141  43.375   3.717
10337W        W69433   9.370  36.480  14.318
10338W        W69434   6.790  33.000   4.333
10339W        W69435  21.023  16.724  13.042
10340W        W69436  22.720  33.985   1.442
10341W        W69437  28.165  18.634  12.421
10342W        W69438  30.419  32.898  12.887
10343W        W69439  41.332  25.144  11.556
10344W        W69440  32.945   5.272  11.490
10345W        W69441  14.186  34.913  13.418
10346W        W69442   0.833  20.112   3.348
10347W        W69443  42.513  30.503   2.855
10348W        W69444  24.717  27.190  14.335
10349W        W69445  30.037  33.026   0.250
10350W        W69446  43.934   4.936  12.355
10351W        W69447  34.429  36.017   0.254
10352W        W69448  13.732  28.613   9.950
10353W        W69449   6.890   2.265   0.243
10354W        W69450  23.724  34.544   2.259
10355W        W69451  27.506  14.617   2.851
10356W        W69452   5.311  15.617   5.260
10357W        W69453  36.086  38.352  12.073
10358W        W69454  12.839  28.609   2.351
10359W        W69455   3.364  30.567   1.257
10360W        W69456  24.994  36.066   3.167
10361W        W69457  44.977   9.710   2.190
10362W        W69458  18.291  42.966   1.904
10363W        W69459   5.436  38.054  13.010
10364W        W69460  27.644  38.367  14.960
10365W        W69461   7.806  25.114   0.398
10366W        W69462  44.900  19.146  12.553
10367W        W69463  27.186  36.411  12.872
10368W        W69464  22.194  37.058   0.889
10369W        W69465  17.684  31.645  11.980
10370W        W69466  35.915  28.530   0.344
10371W        W69467  14.104  26.172   4.217
10372W        W69468  36.888   5.926  14.392
10373W        W69469  40.380  35.373   0.396
10374W        W69470   2.925  41.496  14.379
10375W        W69471  18.074  15.700  11.121
10376W        W69472  25.670  22.607   1.272
10377W        W69473  35.362  11.305  10.930
10378W        W69474  10.660  20.711   2.758
10379W        W69475  10.363  12.851   2.244
10380W        W69476  42.984  28.080  11.390
10381W        W69477  22.563  43.357  13.864
10382W        W69478  23.172   1.472  13.923
10383W        W69479  41.470  17.215  12.858
10384W        W69480  41.822  32.500  13.849
10385W        W69481  10.788  11.138  13.440
10386W        W69482  38.065   5.314   2.305
10387W        W69483  22.013   8.694   1.807
10388W        W69484  36.452  11.644  13.030
10389W        W69485  34.990  36.411   1.340
10390W        W69486   6.310  39.822  11.107
10391W        W69487  21.172  36.878  14.877
10392W        W69488   4.826   6.692   1.402
10393W        W69489  35.487   2.792  12.030
10394W        W69490  39.434  41.491  12.373
10395W        W69491  20.751  33.534   3.833
10396W        W69492  32.071  15.153   0.848
10397W        W69493  24.553  24.991   2.748
10398W        W69494  23.184  11.183   2.813
10399W        W69495  28.520  43.459  12.539
10400W        W69496  15.160  33.447   3.190
10401W        W69497   3.901   7.788  11.882
10402W        W69498  33.387  33.486   0.243
10403W        W69499  18.097  10.381   1.735
10404W        W69500  41.328  11.825  12.074
10405W        W69501  23.695  24.099   3.699
10406W        W69502  38.953  44.768  13.363
10407W        W69503  17.061  28.159  10.476
10408W        W69504  20.104  17.665  14.022
10409W        W69505  43.324  10.198   2.284
10410W        W69506  34.495  23.677   0.341
10411W        W69507  34.913   0.482  14.439
10412W        W69508  32.579  36.093  11.964
10413W        W69509   1.441   0.885   2.233
10414W        W69510  43.449  14.322   3.219
10415W        W69511  44.989  18.199  11.391
10416W        W69512   9.823  10.760   2.402
10417W        W69513  13.716   6.766   3.327
10418W        W69514  22.699  40.801   3.661
10419W        W69515  39.974  17.192  11.535
10420W        W69516  13.223  33.941  12.988
10421W        W69517  20.096   0.346  12.076
10422W        W69518  39.425  43.504  14.936
10423W        W69519  44.762  10.856   2.883
10424W        W69520  11.224  18.633   1.218
10425W        W69521  41.923  36.366   1.853
10426W        W69522   2.775   3.337  12.044
10427W        W69523  33.422  19.762   4.701
10428W        W69524   4.225  14.132   2.681
10429W        W69525  15.613  40.474   3.748
10430W        W69526  39.534  16.694   3.783
10431W        W69527  15.667  29.010  13.379
10432W        W69528  24.643  26.670   1.353
10433W        W69529  29.631  33.988  12.029
10434W        W69530   1.388  15.733   3.350
10435W        W69531   0.979   2.236  10.574
10436W        W69532  26.047  44.890   3.668
10437W        W69533   0.746  27.100   4.130
10438W        W69534  43.007  32.991   3.173
10439W        W69535   0.374   0.448   0.762
10440W        W69536   1.819  28.577  11.427
10441W        W69537  34.882  30.581  10.128
10442W        W69538  32.615  33.022  12.036
10443W        W69539  26.590  26.499  10.645
10444W        W69540   3.316   4.868   2.697
10445W        W69541   6.836   1.792   0.823
10446W        W69542  16.619  35.949  13.841
10447W        W69543  32.121  14.665   4.337
10448W        W69544  21.185   9.327   1.902
10449W        W69545  36.499  17.174   3.169
10450W        W69546   5.754   8.292  13.479
10451W        W69547  32.130   3.454  14.997
10452W        W69548   1.250  10.729   2.723
10453W        W69549  39.020   8.788   0.812
10454W        W69550   6.791  11.696   4.598
10455W        W69551   1.792  38.520  13.505
10456W        W69552  21.196  31.579   1.857
10457W        W69553  28.512  15.672  11.478
10458W        W69554  23.605  36.953  13.418
10459W        W69555  41.888   3.920  14.951
10460W        W69556   6.194  34.905  11.530
10461W        W69557  39.559  26.970  13.327
10462W        W69558  38.830  34.045  13.400
10463W        W69559  36.003  40.807   3.702
10464W        W69560   9.184  12.324  14.765
10465W        W69561  26.145  38.916  10.560
10466W        W69562  25.167  18.685   9.586
10467W        W69563  36.869   8.231  12.901
10468W        W69564   6.817  44.340   2.211
10469W        W69565  31.980  23.106   2.859
10470W        W69566  27.646  28.149   1.877
10471W        W69567  18.064  14.216   0.752
10472W        W69568  33.874  24.181  12.557
10473W        W69569  32.981  39.339  14.288
10474W        W69570  38.068  18.788   3.364
10475W        W69571  30.966   2.304  13.402
10476W        W69572  17.097  38.896   2.750
10477W        W69573  15.762  15.754   2.308
10478W        W69574  24.561   9.173   4.247
10479W        W69575  21.069  27.690  11.409
10480W        W69576   4.825  33.935   4.727
10481W        W69577   9.262  30.909  12.929
10482W        W69578  17.685  11.249   1.246
10483W        W69579  11.145   2.270  14.322
10484W        W69580  30.585  38.956   2.384
10485W        W69581   3.250  25.104   4.701
10486W        W69582  17.763  27.525   4.291
10487W        W69583  28.150  37.508   4.173
10488W        W69584  44.405  43.954  10.979
10489W        W69585  42.910  38.534   1.900
10490W        W69586  43.872  10.829   3.834
10491W        W69587  13.172  42.347   3.170
10492W        W69588  36.564  12.149   2.796
10493W        W69589  20.070   4.271   0.320
10494W        W69590  25.557  21.085   5.252
10495W        W69591  16.261  35.956  14.337
10496W        W69592   4.438  41.945   1.859
10497W        W69593  17.617  37.881   3.734
10498W        W69594   0.768  16.142  12.475
10499W        W69595   8.813   1.324   1.728
10500W        W69596  41.373  38.872   4.641
10501W        W69597   6.410  28.083   4.237
10502W        W69598  17.717  10.747   4.617
10503W        W69599  26.539  38.002  14.287
10504W        W69600  20.562   4.729   3.163
10505W        W69601  37.544  21.096   0.881
10506W        W69602  42.815  41.327  13.332
10507W        W69603  11.853  30.907  13.448
10508W        W69604  16.173   6.363  10.477
10509W        W69605   7.856  37.451   1.248
10510W        W69606  28.052   3.845   1.766
10511W        W69607  26.017  19.549   1.757
10512W        W69608  10.681  41.340  11.052
10513W        W69609   9.850  30.123   0.273
10514W        W69610   6.679  22.669   4.292
10515W        W69611  41.520   7.204   3.683
10516W        W69612  17.068  43.875  10.939
10517W        W69613  29.097  14.672   0.898
10518W        W69614  34.974  22.038   4.303
10519W        W69615  39.510  24.523   4.207
10520W        W69616  18.273   4.803  13.525
10521W        W69617  15.170  12.745  14.767
10522W        W69618  29.591   2.910   0.311
10523W        W69619  15.704  42.882   3.748
10524W        W69620  14.196   5.783   1.928
10525W        W69621  28.538  30.479  11.449
10526W        W69622  35.955  23.240   3.690
10527W        W69623  32.540   0.429  11.570
10528W        W69624   1.755   9.877   3.174
10529W        W69625  21.237  39.533  10.127
10530W        W69626   4.271  25.571   9.485
10531W        W69627  32.624  17.606  14.410
10532W        W69628  31.140  35.865   1.321
10533W        W69629  12.181  32.985  14.804
10534W        W69630  40.009  18.207   2.277
10535W        W69631  39.462  22.039   1.433
10536W        W69632  29.466   1.346   4.341
10537W        W69633  27.051  39.431   2.324
10538W        W69634  28.977  33.932  10.474
10539W        W69635  31.975  28.469   3.335
10540W        W69636  41.381   5.432  12.413
10541W        W69637   8.390  44.903  13.837
10542W        W69638  32.991  26.955  11.050
10543W        W69639  19.188  35.411   3.320
10544W        W69640  28.675  22.193   3.275
10545W        W69641  39.855  44.498  12.526
10546W        W69642   4.369   2.741  14.908
10547W        W69643  41.984  32.066   0.306
10548W        W69644  41.914  42.927   4.250
10549W        W69645  28.649  17.790  11.429
10550W        W69646   4.408   4.366  11.981
10551W        W69647  13.275  14.197  13.400
10552W        W69648   9.870  26.630   0.925
10553W        W69649  13.729  35.451   1.340
10554W        W69650  18.620   4.775  12.505
10555W        W69651  38.422  24.594  13.394
10556W        W69652   1.901  35.104  11.577
10557W        W69653  11.225  23.644  10.910
10558W        W69654  13.283  17.709   3.825
10559W        W69655  26.456  43.793   2.379
10560W        W69656  26.624  44.488  12.520
10561W        W69657  21.166  36.490  12.341
10562W        W69658  22.616  18.157   3.178
10563W        W69659   9.749  34.420   0.309
10564W        W69660  15.173  31.553   0.347
10565W        W69661   8.669   7.725   1.875
10566W        W69662  15.155  42.291   3.383
10567W        W69663  13.673  35.875  10.578
10568W        W69664  23.532  37.494  11.039
10569W        W69665  20.634   5.343   3.183
10570W        W69666  32.477  34.506  10.899
10571W        W69667  31.923  14.307   3.796
10572W        W69668  35.876  44.872  12.039
10573W        W69669  37.384  33.006   2.364
10574W        W69670  35.997  29.056   2.681
10575W        W69671  14.609   6.383  12.380
10576W        W69672   5.381  43.857   2.250
10577W        W69673  37.347  19.125  14.281
10578W        W69674  39.938  13.342  12.401
10579W        W69675  14.785  38.038  12.465
10580W        W69676  40.386  18.285  13.979
10581W        W69677  25.506  18.556   2.677
10582W        W69678   7.215   9.655  11.592
10583W        W69679  18.134  13.196   2.306
10584W        W69680   1.903  19.767   1.310
10585W        W69681  28.945  13.694   2.810
10586W        W69682  34.005  27.137   0.321
10587W        W69683  12.298   1.291   4.751
10588W        W69684  27.111  35.401  14.942
10589W        W69685   7.780   6.199   1.877
10590W        W69686  29.667   7.809  13.377
10591W        W69687   9.260  23.699  10.517
10592W        W69688  21.020  40.358  11.886
10593W        W69689  35.913  31.923  11.892
10594W        W69690   3.817  10.344  14.416
10595W        W69691  37.485   1.846  14.410
10596W        W69692  27.015  27.116   1.266
10597W        W69693  35.968   8.885  11.013
10598W        W69694  37.012   3.460   1.701
10599W        W69695  35.457  42.936  13.513
10600W        W69696  18.138   0.448   3.700
10601W        W69697   9.766   3.250  11.970
10602W        W69698  15.710  33.079   0.370
10603W        W69699  31.445  41.504   2.867
10604W        W69700  39.329   5.439   1.749
10605W        W69701  21.630  37.498   0.911
10606W        W69702   0.481  30.576  11.980
10607W        W69703   9.323  40.392   1.928
10608W        W69704  22.236  16.308   0.855
10609W        W69705  27.965  20.630   4.713
10610W        W69706   8.338  34.023   1.916
10611W        W69707  21.534   2.347  14.009
10612W        W69708  21.757  32.592   3.316
10613W        W69709  32.621   2.452   0.861
10614W        W69710  34.918  12.721  12.984
10615W        W69711  37.009  34.014  14.923
10616W        W69712  26.070  20.750  12.882
10617W        W69713  24.100   7.751   3.839
10618W        W69714   5.690  29.934   2.693
10619W        W69715  44.864   8.179  11.408
10620W        W69716  25.701  31.071  11.103
10621W        W69717  39.945  14.669  11.882
10622W        W69718  32.515  15.579  12.052
10623W        W69719  15.687  34.998   2.296
10624W        W69720  17.084  15.807  11.935
10625W        W69721  40.462  13.266   1.433
10626W        W69722   9.304  30.581  13.820
10627W        W69723  39.528  27.543   1.337
10628W        W69724  21.621   7.781  11.375
10629W        W69725   4.904  28.135  11.606
10630W        W69726   8.291   2.846   2.195
10631W        W69727  11.666  39.826  10.137
10632W        W69728  10.300  15.690   2.373
10633W        W69729  43.913   1.329   4.611
10634W        W69730  34.472  20.087   3.254
10635W        W69731  25.636  10.285  12.974
10636W        W69732  34.435  40.848   1.279
10637W        W69733  42.821  31.626  10.432
10638W        W69734  34.117  42.487  10.637
10639W        W69735   5.309  26.103   3.177
10640W        W69736  27.623  31.052  11.970
10641W        W69737  34.937  35.360   0.923
10642W        W69738   9.279  12.701  11.475
10643W        W69739  34.598   5.314   4.832
10644W        W69740   9.668   2.422   3.661
10645W        W69741  15.157  18.077  12.505
10646W        W69742  28.578  13.658  10.521
10647W        W69743  15.230  42.865   0.763
10648W        W69744  10.766  27.586   4.185
10649W        W69745  38.498  12.255  13.479
10650W        W69746  43.947  33.537   0.289
10651W        W69747   0.410  13.781   0.345
10652W        W69748  31.082  34.560   5.629
10653W        W69749  19.237  11.298   4.239
10654W        W69750  31.413   0.816  11.859
10655W        W69751  11.695   1.779   2.885
10656W        W69752  44.400  21.222  12.096
10657W        W69753   3.369  39.838   9.979
10658W        W69754  33.975  39.816   2.860
10659W        W69755  26.068  30.606  14.795
10660W        W69756  44.264  14.188   0.332
10661W        W69757   4.438  42.862  10.934
10662W        W69758  34.938  22.624   0.448
10663W        W69759  17.258   0.457  11.911
10664W        W69760  44.936  18.227   2.406
10665W        W69761  14.631  33.063   1.362
10666W        W69762  33.619  28.952   2.199
10667W        W69763  25.987   3.902  10.898
10668W        W69764   7.865  17.282  14.029
10669W        W69765  14.713  24.081  13.425
10670W        W69766  32.578  32.525   0.840
10671W        W69767  27.634  12.265  11.575
10672W        W69768   5.912  15.313   2.860
10673W        W69769  25.471   5.411   4.649
10674W        W69770  31.973  12.266   4.659
10675W        W69771  21.256  42.972  13.338
10676W        W69772   1.285  22.180   0.336
10677W        W69773  35.891  30.426  11.590
10678W        W69774  44.346  32.000   0.808
10679W        W69775   3.751  22.227  10.584
10680W        W69776  20.091  35.065  12.394
10681W        W69777  19.120   5.852   0.831
10682W        W69778   3.218  40.958  13.334
10683W        W69779   0.770   6.202   2.757
10684W        W69780   8.873   1.332  11.126
10685W        W69781  41.335  32.409  14.495
10686W        W69782  36.014  30.075  14.488
10687W        W69783   4.282   1.796  11.857
10688W        W69784  17.295  22.071   0.963
10689W        W69785  35.924  17.243   0.729
10690W        W69786  17.072  29.592  12.989
10691W        W69787  33.941  38.373  14.998
10692W        W69788  18.665   5.279   0.253
10693W        W69789  10.303   2.382  13.457
10694W        W69790   3.392   5.314   2.673
10695W        W69791  18.749  12.330  13.818
10696W        W69792  13.646  30.519   2.344
10697W        W69793  25.582  39.819  11.593
10698W        W69794  30.431   8.161   2.819
10699W        W69795  36.010  29.547   0.952
10700W        W69796  43.449  18.248   3.368
10701W        W69797   9.164  43.844  10.997
10702W        W69798  36.868  25.990   4.695
10703W        W69799  43.890   6.695  11.540
10704W        W69800  26.617  23.497   0.459
10705W        W69801  33.902   0.398   1.815
10706W        W69802  19.596   0.767   0.396
10707W        W69803  29.024   2.318  10.893
10708W        W69804  32.026  22.215   2.669
10709W        W69805  43.432  25.639  13.429
10710W        W69806  35.493  37.409  11.554
10711W        W69807  31.412  27.950  11.531
10712W        W69808  28.062  32.039   1.861
10713W        W69809  40.958  11.820  10.956
10714W        W69810  18.596  20.040   3.802
10715W        W69811  26.028   2.328   4.821
10716W        W69812   2.314  21.041   0.836
10717W        W69813  17.161  29.949   4.710
10718W        W69814  13.190   6.907  10.512
10719W        W69815  20.162   4.860  13.949
10720W        W69816  20.700   3.453  13.819
10721W        W69817   7.366  27.158  12.030
10722W        W69818  23.038  34.463   3.797
10723W        W69819   8.873   8.324   4.714
10724W        W69820  13.657  36.348  12.823
10725W        W69821  12.710  10.334   1.894
10726W        W69822  26.495  21.043  11.923
10727W        W69823   7.207  40.450  12.969
10728W        W69824  29.008  29.537   2.885
10729W        W69825  26.018   5.255  10.984
10730W        W69826  35.394  16.728   2.267
10731W        W69827  19.135  43.768   1.764
10732W        W69828  36.074  41.525  14.807
10733W        W69829  34.043  37.473  10.444
10734W        W69830  15.814  43.472  12.911
10735W        W69831   5.695   3.882  12.539
10736W        W69832  42.290  20.075   3.821
10737W        W69833  42.450  27.605   4.186
10738W        W69834  21.205   7.732   2.825
10739W        W69835  30.949  30.917  13.331
10740W        W69836  18.114  20.175   1.246
10741W        W69837  30.494  25.151  10.059
10742W        W69838  31.461  39.892   4.774
10743W        W69839  18.085  39.996  13.401
10744W        W69840  11.221  26.676  13.858
10745W        W69841  29.045   2.434   2.220
10746W        W69842  44.967  14.623   0.825
10747W        W69843  20.664  11.316   2.712
10748W        W69844  22.088   8.724   1.219
10749W        W69845  12.620  12.120   4.240
10750W        W69846  28.583  24.133  12.994
10751W        W69847  29.557  10.679   2.338
10752W        W69848  20.141  31.438   1.247
10753W        W69849   1.242  32.557  10.450
10754W        W69850  23.061  20.568  13.859
10755W        W69851  10.144   8.330  10.479
10756W        W69852  12.299  37.567   1.251
10757W        W69853  39.527  21.255   3.152
10758W        W69854  30.605  30.924  12.969
10759W        W69855  43.859   7.803  13.859
10760W        W69856   0.333  42.430  14.827
10761W        W69857  22.066  15.808  11.938
10762W        W69858  36.421  34.372  14.920
10763W        W69859  20.225   9.347  14.438
10764W        W69860  27.147  37.348  13.947
10765W        W69861  35.938  32.467  10.421
10766W        W69862  28.557  35.939  12.955
10767W        W69863  18.133   5.195  13.310
10768W        W69864   5.761  15.087  12.978
10769W        W69865   6.377  32.010   5.289
10770W        W69866  20.619  12.777  10.896
10771W        W69867   3.753   4.904  10.085
10772W        W69868  31.484  17.137  11.453
10773W        W69869  17.750  21.213  12.490
10774W        W69870  11.129  21.584   0.468
10775W        W69871  13.730  35.066  10.629
10776W        W69872  14.752  35.006  13.015
10777W        W69873  11.150  44.882   3.808
10778W        W69874   9.303   7.291  11.070
10779W        W69875   0.357   0.864   2.310
10780W        W69876   5.898  34.454   4.774
10781W        W69877   7.248  23.627  10.576
10782W        W69878  20.104   2.316   4.276
10783W        W69879  25.215  30.496   0.391
10784W        W69880  21.753   9.737   0.933
10785W        W69881  24.076  33.030   3.362
10786W        W69882   1.905  18.678  11.105
10787W        W69883  22.593  10.695  12.376
10788W        W69884  35.010  29.604  10.405
10789W        W69885   9.325  40.544   0.741
10790W        W69886   5.744  38.006  10.472
10791W        W69887  30.482   2.244  12.978
10792W        W69888  23.215  24.077  12.079
10793W        W69889  27.969  13.840   4.627
10794W        W69890  34.944   6.364  12.379
10795W        W69891  35.002  29.943   3.291
10796W        W69892  14.770   1.951   3.793
10797W        W69893   4.939   2.385  13.466
10798W        W69894   3.920   4.216   4.329
10799W        W69895  24.559  11.640  13.825
10800W        W69896  44.270  26.082   2.389
10801W        W69897  18.555  23.596  11.561
10802W        W69898  20.655  33.491  14.799
10803W        W69899  42.004   8.753  13.952
10804W        W69900  18.127  38.859   2.680
10805W        W69901  40.960  15.197  11.576
10806W        W69902  31.128  29.086  13.946
10807W        W69903  30.065  37.957  13.338
10808W        W69904   6.882  16.649  13.975
10809W        W69905  43.811  15.147   4.751
10810W        W69906  20.559  24.180  13.459
10811W        W69907  17.247  10.213   1.801
10812W        W69908  34.923  20.153   3.378
10813W        W69909  38.845  37.020   0.262
10814W        W69910  15.141  42.975   3.703
10815W        W69911   1.828  15.139   4.242
10816W        W69912   1.872  25.094  13.835
10817W        W69913  12.131   3.743   2.671
10818W        W69914  35.092  24.601   2.360
10819W        W69915  12.764  25.519  12.938
10820W        W69916   4.256  17.205  12.074
10821W        W69917  25.467  37.045   0.385
10822W        W69918  14.324  19.049   2.216
10823W        W69919  11.130  22.244   2.877
10824W        W69920  20.737   8.797  10.605
10825W        W69921  43.988  25.059  10.422
10826W        W69922  38.459   2.807   3.272
10827W        W69923  24.601   3.290  11.580
10828W        W69924   7.337  12.760  14.011
10829W        W69925  32.442  24.593  11.935
10830W        W69926  18.191  29.470  11.535
10831W        W69927  36.029  19.152   4.261
10832W        W69928  26.988   5.758   4.783
10833W        W69929  32.538  38.421   0.469
10834W        W69930   3.253  13.803  10.413
10835W        W69931  41.037  11.718   1.927
10836W        W69932  31.064  27.995  12.487
10837W        W69933  35.512  14.159   2.761
10838W        W69934  22.562  23.628  10.947
10839W        W69935  10.817  16.223   1.265
10840W        W69936  34.989  44.925   1.409
10841W        W69937  38.879  23.498  10.567
10842W        W69938   4.300  33.946  13.451
10843W        W69939  28.969  40.548   0.960
10844W        W69940  10.184  18.684  14.400
10845W        W69941  18.588  19.140   4.819
10846W        W69942   8.806  43.390   2.667
10847W        W69943  28.640   6.773   2.208
10848W        W69944  43.855  19.059   1.745
10849W        W69945   1.892  11.848   3.630
10850W        W69946  34.375   6.380   0.254
10851W        W69947  16.272  11.128   0.785
10852W        W69948   0.455   0.929   1.395
10853W        W69949  39.333  24.709   0.345
10854W        W69950   3.408  34.369   0.902
10855W        W69951   6.718  43.886  11.486
10856W        W69952   2.890  36.476   3.826
10857W        W69953  12.278  11.850  11.906
10858W        W69954  22.659  23.165  14.418
10859W        W69955  27.629  20.769   3.213
10860W        W69956   0.330  31.104   0.914
10861W        W69957  32.601  37.411  13.841
10862W        W69958   8.265  22.144   4.306
10863W        W69959  22.506  40.881  12.835
10864W        W69960  35.415  22.734   1.903
10865W        W69961  23.110  28.501  11.098
10866W        W69962  12.711  17.224   2.371
10867W        W69963   7.724   9.668  10.468
10868W        W69964  32.089  43.301   1.247
10869W        W69965  35.539  40.960  14.481
10870W        W69966  33.404  15.674   2.223
10871W        W69967  17.565  13.196   0.455
10872W        W69968  22.675  44.781   1.708
10873W        W69969   3.855   9.669  11.560
10874W        W69970  25.126  41.974   2.879
10875W        W69971  21.017  26.609  12.381
10876W        W69972  10.749  30.984   3.845
10877W        W69973  44.292  26.690  14.385
10878W        W69974  33.092  41.940   2.690
10879W        W69975  19.706  36.869   2.266
10880W        W69976  31.951  25.537   4.803
10881W        W69977  21.078  31.623   1.246
10882W        W69978  14.174  22.100  13.528
10883W        W69979  34.390  21.644  10.504
10884W        W69980   1.278   1.321   4.601
10885W        W69981   5.693   1.433  14.016
10886W        W69982  39.322   4.880  12.491
10887W        W69983  13.769   2.380   1.885
10888W        W69984  35.104   4.870  13.888
10889W        W69985   3.236  11.170   1.352
10890W        W69986  31.936  41.520  13.021
10891W        W69987  41.840  43.822   2.266
10892W        W69988  29.534  26.952  11.900
10893W        W69989  24.120   9.785   2.382
10894W        W69990   5.285  16.680   0.343
10895W        W69991  22.007   0.807  12.071
10896W        W69992  38.441  21.174   0.898
10897W        W69993  26.111  31.607  14.369
10898W        W69994  31.567  10.685   4.828
10899W        W69995   5.775  42.800  11.449
10900W        W69996  28.159  27.117   2.775
10901W        W69997  40.372  44.762   1.375
10902W        W69998   6.813  42.308  10.626
10903W        W69999   7.773  30.491   0.384
10904W        W70000  32.565  44.776   1.735
10905W        W70001  40.310  26.117   3.189
10906W        W70002  40.051  13.139  14.836
10907W        W70003  35.579  35.595   0.776
10908W        W70004  36.093   4.281   3.334
10909W        W70005   9.355  22.691  11.567
10910W        W70006  28.612  27.954   4.766
10911W        W70007   3.884  42.946  12.889
10912W        W70008  44.806  15.275   3.305
10913W        W70009   0.396  34.081   4.251
10914W        W70010   8.365  13.788  12.882
10915W        W70011  33.601  39.315  11.411
10916W        W70012  18.175  43.276  13.852
10917W        W70013  32.111  32.986   1.882
10918W        W70014  37.413   0.294   0.361
10919W        W70015  30.070  33.934  10.975
10920W        W70016  39.818  16.772   2.829
10921W        W70017   3.879  32.968   3.852
10922W        W70018   0.961   6.269  13.826
10923W        W70019  24.063  39.363  12.533
10924W        W70020  20.592  41.536  11.595
10925W        W70021  37.349  30.431  13.408
10926W        W70022  35.942  27.533  12.447
10927W        W70023  21.104  23.114   2.209
10928W        W70024   3.751  28.021   1.223
10929W        W70025  33.966   6.753  10.429
10930W        W70026  10.738  23.995  10.991
10931W        W70027   3.914  14.240  11.610
10932W        W70028   7.905   9.186  11.086
10933W        W70029   0.887  20.625   4.815
10934W        W70030  11.861  18.179   1.411
10935W        W70031  35.413  33.073  13.438
10936W        W70032  27.686  17.096   2.321
10937W        W70033  15.309  10.295   0.945
10938W        W70034  42.398  22.180   1.900
10939W        W70035  31.479  41.297   1.216
10940W        W70036  12.854  20.156  11.403
10941W        W70037  34.915  34.916   1.773
10942W        W70038   2.450  22.251  13.442
10943W        W70039   1.483  40.363   4.725
10944W        W70040  37.889  25.692  13.325
10945W        W70041  35.016  31.070  14.831
10946W        W70042  31.992  38.524   2.831
10947W        W70043   2.319  28.467   1.792
10948W        W70044  23.195  29.539   2.746
10949W        W70045   5.434  36.960   3.806
10950W        W70046  26.970  43.945   4.630
10951W        W70047  13.648  41.357   0.420
10952W        W70048  12.219  21.027   3.714
10953W        W70049   5.246   2.788   2.221
10954W        W70050  10.644   8.885  10.642
10955W        W70051  29.452   4.429  10.976
10956W        W70052  20.052  44.831  10.562
10957W        W70053  11.329  15.645   3.352
10958W        W70054  24.497  33.026  13.463
10959W        W70055  40.949   2.243   1.740
10960W        W70056   1.849  32.922  11.058
10961W        W70057  14.652  15.270  13.832
10962W        W70058  38.357  43.956  14.397
10963W        W70059  27.457  27.562  10.413
10964W        W70060  32.907  10.667  13.964
10965W        W70061   3.378  27.949  14.961
10966W        W70062  27.554  23.718   3.243
10967W        W70063  24.124  43.276   1.801
10968W        W70064  26.995  28.500   3.365
10969W        W70065  28.489  41.987   0.859
10970W        W70066   5.859   2.442   1.270
10971W        W70067  14.201  44.307  12.557
10972W        W70068  40.809  15.730   5.110
10973W        W70069  42.976   1.239  11.433
10974W        W70070  23.123  44.004  14.308
10975W        W70071  34.913  18.121  12.908
10976W        W70072   5.879   9.767  14.383
10977W        W70073  21.053  11.685   0.278
10978W        W70074  43.378  14.305   0.309
10979W        W70075  21.705  40.938  14.406
10980W        W70076  29.489  18.722   4.134
10981W        W70077  11.293   9.393   1.327
10982W        W70078  36.526  33.052   2.257
10983W        W70079  19.583  15.133   1.887
10984W        W70080  42.481   1.929   1.704
10985W        W70081  28.122  36.047  14.949
10986W        W70082  33.966   1.456   3.690
10987W        W70083  17.619   8.329  14.895
10988W        W70084  12.293  25.106   2.851
10989W        W70085  24.141  30.422   0.448
10990W        W70086  10.763  33.411  14.403
10991W        W70087  38.027  12.850  11.467
10992W        W70088  31.087  11.695  10.505
10993W        W70089   4.853  39.916   2.785
10994W        W70090  13.268  27.017   3.729
10995W        W70091  39.543  29.548   4.142
10996W        W70092  22.587  25.962  13.352
10997W        W70093  26.051   4.733  11.049
10998W        W70094  18.708  28.059  10.444
10999W        W70095  30.086   2.807   1.891
11000W        W70096   5.333  37.908   2.770
11001W        W70097  43.996  42.400  14.286
11002W        W70098  14.794   0.479   4.337
11003W        W70099  24.000  21.658   2.258
11004W        W70100  44.415  43.326  14.789
11005W        W70101  30.517  27.646   3.351
11006W        W70102   5.314  41.995  11.972
11007W        W70103  40.520  19.120   0.955
11008W        W70104   6.849  20.688  11.413
11009W        W70105  11.310  21.695  14.491
11010W        W70106  25.470   8.803   1.336
11011W        W70107  20.072  37.571  10.640
11012W        W70108  20.210  21.629   2.741
11013W        W70109  37.977   0.350  14.983
11014W        W70110  42.319  28.062  10.635
11015W        W70111   3.775   7.301  14.787
11016W        W70112   9.727  29.632   4.762
11017W        W70113   2.913   3.764  10.515
11018W        W70114  37.834  13.626   3.708
11019W        W70115  22.599  28.515  13.885
11020W        W70116  17.180  34.438   0.401
11021W        W70117  27.155   1.454   0.343
11022W        W70118  36.533   7.799  14.798
11023W        W70119  12.674  21.079  12.088
11024W        W70120  10.279   0.418   0.934
11025W        W70121  39.823   4.842  14.290
11026W        W70122   7.221  35.952   4.308
11027W        W70123   4.401  25.088   2.332
11028W        W70124   8.299  12.692  12.406
11029W        W70125  40.499  24.640   4.665
11030W        W70126  33.502  19.124  14.760
11031W        W70127  34.076   7.887  13.426
11032W        W70128  21.113  11.788  11.108
11033W        W70129   2.942  28.049   1.804
11034W        W70130  12.644  42.881  13.389
11035W        W70131   6.370  12.346   3.689
11036W        W70132  13.241   3.389  10.590
11037W        W70133  28.028  10.218  12.045
11038W        W70134   9.692  27.586   1.444
11039W        W70135  16.172   6.736   0.893
11040W        W70136   9.328  26.159   3.821
11041W        W70137  30.032   2.783   3.738
11042W        W70138  18.767  17.185  11.098
11043W        W70139  34.928  13.650   0.425
11044W        W70140  22.676  41.964  12.349
11045W        W70141  21.566   5.736   0.749
11046W        W70142  24.626   8.273  14.822
11047W        W70143  22.173  34.399   3.178
11048W        W70144  44.402  10.324   3.752
11049W        W70145  31.114   3.405   1.404
11050W        W70146  39.348  25.191   2.807
11051W        W70147  33.091   9.883  11.526
11052W        W70148  24.627  16.286  13.922
11053W        W70149   6.695  21.730   5.302
11054W        W70150  16.292  24.038  14.827
11055W        W70151  15.235   7.697  13.432
11056W        W70152  32.893  30.085  14.013
11057W        W70153  38.057   0.430  14.499
11058W        W70154   8.163   4.318   0.755
11059W        W70155   9.727  42.930  13.052
11060W        W70156   8.783  26.158  11.557
11061W        W70157  20.522  25.665  13.495
11062W        W70158  37.960  28.036  10.046
11063W        W70159   5.709  25.968  13.489
11064W        W70160  32.038   6.733  10.581
11065W        W70161  23.012  29.455   2.225
11066W        W70162   1.427  29.936  14.004
11067W        W70163  16.316  30.066   0.326
11068W        W70164  24.645  26.540   2.260
11069W        W70165  19.600  21.077  12.839
11070W        W70166  38.441  14.633  13.433
11071W        W70167  20.034  28.032  12.497
11072W        W70168   9.345  19.225  11.510
11073W        W70169  29.525  13.119  12.462
11074W        W70170  12.722  35.909   1.892
11075W        W70171   7.722  15.257  12.505
11076W        W70172  24.598  19.234  14.337
11077W        W70173  20.153   0.322  14.297
11078W        W70174   6.758  31.497  10.906
11079W        W70175   7.807   3.343   3.671
11080W        W70176   9.280  27.984  10.591
11081W        W70177  20.630   9.186  11.864
11082W        W70178  29.990  23.621  14.807
11083W        W70179  16.718  29.631  13.982
11084W        W70180  14.676   9.665  10.947
11085W        W70181  21.680  19.631  12.392
11086W        W70182  10.718  19.572   4.764
11087W        W70183   5.218  15.772  10.477
11088W        W70184  44.287  27.172  11.029
11089W        W70185  32.992   5.314  12.459
11090W        W70186  21.066  44.885   1.747
11091W        W70187  37.400  44.308   3.697
11092W        W70188  43.285  18.234   1.786
11093W        W70189  28.948  22.647   0.802
11094W        W70190  13.779  12.616  11.426
11095W        W70191  40.825  35.107  14.014
11096W        W70192  30.463  26.524   1.697
11097W        W70193  12.175  41.515   0.442
11098W        W70194  23.505   2.737  10.483
11099W        W70195  38.870  14.789   4.207
11100W        W70196   6.745  17.635  10.516
11101W        W70197   6.725   5.855   3.869
11102W        W70198   5.323   3.446  12.994
11103W        W70199  30.656  40.995  13.548
11104W        W70200   3.277  39.548  11.508
11105W        W70201  41.908  10.173   1.890
11106W        W70202  24.635  20.740   1.327
11107W        W70203  28.595   2.409  14.409
11108W        W70204  39.039   7.741   4.352
11109W        W70205  29.491  17.151  10.530
11110W        W70206  43.375  38.338  11.608
11111W        W70207   3.812  33.583   2.891
11112W        W70208   9.177  17.579  10.462
11113W        W70209  20.532  44.363  11.532
11114W        W70210  34.120  23.177  12.571
11115W        W70211  14.273  30.119  11.865
11116W        W70212  25.990  36.953   0.923
11117W        W70213   4.887  42.971   3.351
11118W        W70214  29.129  26.472   4.644
11119W        W70215  27.973  39.914  10.121
11120W        W70216  22.567  16.638  13.376
11121W        W70217  22.027  18.247  10.112
11122W        W70218  25.487  13.761  10.472
11123W        W70219  18.066  30.440   3.805
11124W        W70220  40.342  26.589   3.242
11125W        W70221   2.317  33.485   0.443
11126W        W70222  36.435  19.285  10.004
11127W        W70223  37.536  39.377   4.676
11128W        W70224  32.451  30.519  14.927
11129W        W70225   4.925  19.242  14.499
11130W        W70226  27.608   7.854   1.785
11131W        W70227  10.669  43.952   0.451
11132W        W70228  44.847  31.099  14.814
11133W        W70229  44.767  29.152  13.960
11134W        W70230  30.606  21.580  13.411
11135W        W70231  30.061  39.854  11.006
11136W        W70232   7.306  16.250   4.817
11137W        W70233  25.681   1.261  13.860
11138W        W70234  29.131  21.544   4.164
11139W        W70235  10.351  43.508   4.736
11140W        W70236   0.924  34.865  13.360
11141W        W70237  36.440   0.445  13.465
11142W        W70238   1.425  30.931  11.001
11143W        W70239  22.248  37.581  11.568
11144W        W70240  29.094  30.644  14.376
11145W        W70241  33.011  32.949  13.816
11146W        W70242  22.538  19.050   4.635
11147W        W70243   6.813  32.909  13.839
11148W        W70244   7.895  34.479  11.114
11149W        W70245   1.846  23.237   3.269
11150W        W70246  16.722  44.264  10.497
11151W        W70247  44.484  14.230   2.285
11152W        W70248  43.835  29.979   3.154
11153W        W70249   6.369  26.047  12.824
11154W        W70250  28.960  42.362   1.858
11155W        W70251  36.580   3.831   0.877
11156W        W70252  21.068  44.442  14.918
11157W        W70253   6.877  21.686  12.415
11158W        W70254  32.055  20.531  13.007
11159W        W70255  27.092  27.600   1.410
11160W        W70256  37.342  10.161  12.889
11161W        W70257  40.305  11.158  14.831
11162W        W70258  28.981   9.825   1.876
11163W        W70259  44.001  15.132  13.377
11164W        W70260  22.614  19.574  12.871
11165W        W70261   8.186  29.051   2.809
11166W        W70262   8.402  37.356   4.296
11167W        W70263  28.045  34.096   4.672
11168W        W70264   1.320  32.457   3.651
11169W        W70265  12.158   9.723   4.120
11170W        W70266  21.518  13.120   5.169
11171W        W70267  41.829   8.230   3.720
11172W        W70268  44.861   7.760  10.506
11173W        W70269  36.883  23.548  12.034
11174W        W70270  22.059  24.688   0.735
11175W        W70271   4.313   4.759   3.845
11176W        W70272   5.265  23.503   0.298
11177W        W70273  24.175  43.346  14.472
11178W        W70274   6.211  41.355   3.194
11179W        W70275  32.584   4.320  11.884
11180W        W70276  43.991  11.687   4.122
11181W        W70277  14.708  25.651   1.902
11182W        W70278  43.464  37.541  13.524
11183W        W70279  22.645   5.241   0.878
11184W        W70280  26.482  25.584   0.891
11185W        W70281  35.872  35.859   4.280
11186W        W70282  37.881  38.521  13.844
11187W        W70283  30.017  43.803  12.855
11188W        W70284  41.510  23.610   3.231
11189W        W70285  27.592   0.818   1.235
11190W        W70286  15.278   5.773   1.759
11191W        W70287  38.856   7.384  12.341
11192W        W70288   2.911  39.321  13.839
11193W        W70289  25.513  14.644   3.165
11194W        W70290  38.973  14.338  12.915
11195W        W70291  36.980  12.137   3.301
11196W        W70292   7.770  32.044   0.464
11197W        W70293  26.076  30.553   2.283
11198W        W70294  22.713  37.536   2.858
11199W        W70295   2.414  18.231  14.830
11200W        W70296   4.887   4.428   0.447
11201W        W70297  28.056  18.235  14.997
11202W        W70298   8.249  33.550   4.194
11203W        W70299  21.191  42.905   0.457
11204W        W70300  43.493  41.898   0.961
11205W        W70301  15.141  14.207  12.429
11206W        W70302   8.862  37.533  10.456
11207W        W70303  29.924  32.594   0.378
11208W        W70304  16.164  32.945  13.496
11209W        W70305  20.133  19.695  10.986
11210W        W70306  23.093   4.806  14.374
11211W        W70307  22.680  43.966   2.365
11212W        W70308  43.777   6.753  10.484
11213W        W70309   4.211  18.559  12.888
11214W        W70310  24.613   0.776   0.875
11215W        W70311   1.477  27.691   2.333
11216W        W70312  27.963  26.967   1.319
11217W        W70313   2.252  43.295  11.877
11218W        W70314  28.606  24.105   0.792
11219W        W70315  36.477  33.623   3.241
11220W        W70316  18.133  37.984   1.783
11221W        W70317   6.410  30.588   2.379
11222W        W70318   3.940  34.055  10.622
11223W        W70319  32.479  38.948  10.940
11224W        W70320  32.537  32.999  12.368
11225W        W70321  19.061  14.619  13.819
11226W        W70322  37.002  39.900   1.706
11227W        W70323  19.140  32.894  13.982
11228W        W70324  22.675  13.322  10.997
11229W        W70325  17.719   6.411  10.605
11230W        W70326   9.200  38.042  11.106
11231W        W70327  30.928  38.000  11.467
11232W        W70328  12.351  12.701   5.321
11233W        W70329  18.286  33.009  14.926
11234W        W70330  43.400  32.918  13.019
11235W        W70331  19.165   7.831   2.793
11236W        W70332  27.003  44.918  10.501
11237W        W70333  44.837   9.191   3.705
11238W        W70334  20.698  11.193  12.063
11239W        W70335  10.288  13.604   0.888
11240W        W70336  28.529  27.557  12.433
11241W        W70337  33.490  10.373  10.016
11242W        W70338   3.929   2.872   1.289
11243W        W70339  34.106  10.161  11.913
11244W        W70340  22.056  40.812   3.844
11245W        W70341  21.215  20.099  12.974
11246W        W70342  27.573   5.411   0.747
11247W        W70343  28.979  27.033   4.729
11248W        W70344  21.125  23.176  11.002
11249W        W70345  43.778  21.046  13.804
11250W        W70346   0.826   6.867   4.132
11251W        W70347  35.866  11.179   0.354
11252W        W70348   1.281  44.329  12.484
11253W        W70349  23.199  35.934  10.408
11254W        W70350  22.171   6.865   0.886
11255W        W70351  21.724  29.952  10.457
11256W        W70352  14.675   1.253  11.873
11257W        W70353  26.032  10.170   1.341
11258W        W70354  15.768   3.351  13.507
11259W        W70355  33.977  27.131   1.357
11260W        W70356  40.339   3.284  13.015
11261W        W70357   7.737  26.516   4.668
11262W        W70358  21.160  34.463   2.824
11263W        W70359  38.928  25.196   2.849
11264W        W70360  21.575  31.452  10.544
11265W        W70361  19.715   7.250  13.412
11266W        W70362  28.513  27.035  10.450
11267W        W70363  17.733  29.493  13.838
11268W        W70364  22.252  37.349  14.831
11269W        W70365  25.713  10.802  13.335
11270W        W70366  24.028  44.343   1.294
11271W        W70367   4.757  18.162   2.383
11272W        W70368  10.727  42.922  10.631
11273W        W70369  11.214  20.703   0.259
11274W        W70370   1.460   5.903  11.542
11275W        W70371  22.147   5.404   4.188
11276W        W70372  26.514   1.884  14.781
11277W        W70373  34.865   3.323   5.198
11278W        W70374  26.201  18.131  14.498
11279W        W70375  28.109  34.541   2.762
11280W        W70376  38.870  42.945  14.300
11281W        W70377  13.679  37.442  13.475
11282W        W70378   9.752  42.952   4.221
11283W        W70379  20.202  22.210   3.147
11284W        W70380  14.665   2.883   4.835
11285W        W70381  20.093  41.026  11.003
11286W        W70382  22.747  21.577  11.055
11287W        W70383   8.689  37.424  13.367
11288W        W70384  14.320  42.027   1.296
11289W        W70385  24.699   6.704  12.387
11290W        W70386  35.410   0.420   4.773
11291W        W70387  17.179  17.203   1.925
11292W        W70388  25.046  31.070   5.145
11293W        W70389  16.608  11.309  13.058
11294W        W70390  37.994  40.894   1.741
11295W        W70391   5.215  20.229   2.720
11296W        W70392   8.721  11.164   2.212
11297W        W70393   4.849  44.757   2.269
11298W        W70394  18.577   4.424   4.793
11299W        W70395  20.101  14.835  10.577
11300W        W70396   5.360  18.221  13.005
11301W        W70397  34.612   7.309   4.721
11302W        W70398  26.183  14.338  12.961
11303W        W70399  12.180  29.607  13.471
11304W        W70400  44.347   7.263   3.652
11305W        W70401  26.078   1.387  13.459
11306W        W70402  44.458   5.751  12.054
11307W        W70403  14.275  28.075  14.490
11308W        W70404  38.831  32.544  12.843
11309W        W70405  11.127  20.582  13.865
11310W        W70406  41.024  39.973  11.488
11311W        W70407  25.579  38.406  14.512
11312W        W70408  31.067  32.414   4.699
11313W        W70409  34.468  38.887  14.767
11314W        W70410   9.324  43.390  14.885
11315W        W70411  36.053  32.919  10.407
11316W        W70412  22.711  38.539   0.876
11317W        W70413  13.776  16.778   9.530
11318W        W70414   3.218   6.687   0.764
11319W        W70415  34.063  25.150  13.374
11320W        W70416   1.829  21.150  13.965
11321W        W70417  13.692  37.077  11.050
11322W        W70418  21.546  18.669  14.935
11323W        W70419  20.250  21.254  10.547
11324W        W70420  31.501  33.483  12.426
11325W        W70421  13.794   5.214   1.333
11326W        W70422  32.495  17.271  10.643
11327W        W70423   2.386  41.513  11.019
11328W        W70424  24.594  19.686   2.702
11329W        W70425  43.354  41.326   3.861
11330W        W70426  16.300  36.929  14.961
11331W        W70427  27.970  25.053  11.932
11332W        W70428  40.874  40.887   1.695
11333W        W70429   4.264  18.726   1.448
11334W        W70430   9.334  37.397   4.268
11335W        W70431  44.922  38.393  10.986
11336W        W70432  41.486   8.181  12.865
11337W        W70433  33.533  43.918  14.029
11338W        W70434  33.999  29.027   0.835
11339W        W70435  40.412   8.707   4.127
11340W        W70436  29.995  13.675   0.366
11341W        W70437  11.708  21.230  10.571
11342W        W70438  43.450   8.835  13.998
11343W        W70439   9.307   8.704   0.734
11344W        W70440   2.749  16.732  12.385
11345W        W70441  32.617  32.613   1.863
11346W        W70442  11.223  37.877  14.985
11347W        W70443  32.902  13.831   4.754
11348W        W70444   8.379  35.599   3.636
11349W        W70445   4.230  28.630   2.353
11350W        W70446  24.170  12.162   2.265
11351W        W70447  19.557  23.700  14.457
11352W        W70448  24.103  37.559  11.519
11353W        W70449   5.202   2.300   3.809
11354W        W70450  15.184  20.595  10.973
11355W        W70451   7.830   2.465   4.631
11356W        W70452  20.542  31.467   1.247
11357W        W70453  15.258   5.864   2.373
11358W        W70454  43.830  39.840   3.692
11359W        W70455  22.526   0.377   0.466
11360W        W70456   6.204  33.490   2.265
11361W        W70457   5.277  18.576  14.336
11362W        W70458  10.316  41.939  13.882
11363W        W70459   3.396   4.351  14.494
11364W        W70460   6.854   2.780   4.814
11365W        W70461  29.120   0.792  11.553
11366W        W70462   2.403   5.927   3.862
11367W        W70463  43.286  39.357  13.493
11368W        W70464  21.211  13.141   1.702
11369W        W70465  42.806  38.521   0.358
11370W        W70466   4.897  44.859  12.877
11371W        W70467  38.059   2.812   2.746
11372W        W70468  34.917  33.028  13.528
11373W        W70469  29.554   7.333  13.796
11374W        W70470  37.541  44.896  11.407
11375W        W70471  42.452  27.626  13.930
11376W        W70472  42.776  35.932  12.827
11377W        W70473  20.617   7.177   3.322
11378W        W70474  42.851  39.550  13.326
11379W        W70475  37.476  41.536   2.335
11380W        W70476  27.043  12.129   2.391
11381W        W70477  38.351  33.998   3.716
11382W        W70478  26.604  43.988  13.954
11383W        W70479   9.647  12.672  13.023
11384W        W70480  42.466  18.066  12.094
11385W        W70481   7.310  29.497   2.811
11386W        W70482  42.482  19.604   0.860
11387W        W70483   7.337  41.964   3.828
11388W        W70484  33.537  38.944   5.280
11389W        W70485  37.878  12.824  12.433
11390W        W70486  32.062  23.588   2.729
11391W        W70487  28.649  43.883   2.416
11392W        W70488  19.592  19.236  10.474
11393W        W70489  14.830  23.077   4.625
11394W        W70490  33.410  15.095   2.356
11395W        W70491  19.212  25.645   3.206
11396W        W70492  28.449  13.205   2.396
11397W        W70493   1.970  14.149   2.686
11398W        W70494  22.184  18.634  13.435
11399W        W70495  38.356  14.338   4.633
11400W        W70496   4.856   0.764   0.261
11401W        W70497  44.493  30.551  12.900
11402W        W70498   9.723  43.454  12.509
11403W        W70499  25.999  33.055   4.329
11404W        W70500  35.977  28.019   4.655
11405W        W70501  43.865  24.138   1.295
11406W        W70502  31.648  29.639  12.476
11407W        W70503  27.107  40.835  13.020
11408W        W70504   5.225  31.924   1.807
11409W        W70505  41.937  30.621   9.941
11410W        W70506  30.018  13.123  14.386
11411W        W70507  33.435  43.454   2.410
11412W        W70508  27.510  31.081   0.347
11413W        W70509  41.322  10.237   5.240
11414W        W70510  16.789  23.131   2.834
11415W        W70511  26.198  20.733  13.889
11416W        W70512  26.499   6.860  13.879
11417W        W70513  22.042  39.955  11.921
11418W        W70514  26.620  44.973   3.306
11419W        W70515  25.479   5.325  12.513
11420W        W70516  44.825   5.857   2.351
11421W        W70517  10.295  15.322  12.547
11422W        W70518  19.256  10.345  10.404
11423W        W70519  11.329   0.427   1.709
11424W        W70520  12.144  14.628  10.634
11425W        W70521  41.961   1.374   1.210
11426W        W70522  28.139  32.024   2.893
11427W        W70523  42.321  38.992  10.404
11428W        W70524  18.271  34.981  14.299
11429W        W70525  25.658   9.823   3.331
11430W        W70526  15.091  29.013   2.897
11431W        W70527  26.992   4.816  10.590
11432W        W70528  31.478   9.738  14.838
11433W        W70529  14.726   2.823   1.364
11434W        W70530   0.384   5.254   3.659
11435W        W70531  22.690  22.152  13.844
11436W        W70532  15.673  32.938   3.372
11437W        W70533   1.809  28.521   3.288
11438W        W70534   9.770   2.946  14.436
11439W        W70535  36.504   0.837   0.875
11440W        W70536  24.180   4.823  13.359
11441W        W70537  26.021  14.252   2.794
11442W        W70538   7.322  12.687   1.754
11443W        W70539   1.827  19.699   3.663
11444W        W70540  25.054  36.447   3.156
11445W        W70541  11.677  31.034  13.856
11446W        W70542  43.944  27.623  11.092
11447W        W70543  27.632  19.147   0.886
11448W        W70544  38.521  32.075   4.156
11449W        W70545  40.350  22.533   0.262
11450W        W70546   9.374  15.670  11.589
11451W        W70547   4.934  25.610   1.229
11452W        W70548  26.096  25.666  11.444
11453W        W70549  29.611   3.846  14.897
11454W        W70550  25.648   4.857   4.247
11455W        W70551  21.098   9.823  10.103
11456W        W70552  30.982  38.857   1.779
11457W        W70553  36.471  14.661   4.214
11458W        W70554  16.635  10.306   0.844
11459W        W70555   7.725  18.262   1.232
11460W        W70556  38.424   4.448  12.919
11461W        W70557  34.990  29.624  12.470
11462W        W70558  25.126   5.326  14.485
11463W        W70559  38.923  30.519  10.450
11464W        W70560  22.127   1.400  14.454
11465W        W70561  18.219  14.798   2.279
11466W        W70562  20.659  18.672  13.921
11467W        W70563  29.535  18.580  13.351
11468W        W70564  12.642  29.116  11.588
11469W        W70565  29.922  15.605   4.256
11470W        W70566   9.352  21.532  14.905
11471W        W70567  28.578  29.614   1.750
11472W        W70568  44.340  23.110  12.969
11473W        W70569  16.075  27.640   9.964
11474W        W70570  28.587  43.353   3.249
11475W        W70571  21.606  43.426   0.266
11476W        W70572  39.546  31.442   4.231
11477W        W70573   4.410   5.342  14.829
11478W        W70574  36.398   5.204   2.845
11479W        W70575   9.743  16.079  11.932
11480W        W70576  25.526  18.768  11.386
11481W        W70577  25.086  21.075  14.462
11482W        W70578  35.369   2.820  10.565
11483W        W70579  42.455  15.274   2.231
11484W        W70580  36.028   6.205  11.007
11485W        W70581  35.602  18.766   0.913
11486W        W70582  26.100  29.148  13.975
11487W        W70583  14.708  11.810  14.931
11488W        W70584  42.967  22.064  12.068
11489W        W70585  12.216  27.667  10.404
11490W        W70586  14.624  15.210   4.738
11491W        W70587  32.542  40.809   2.205
11492W        W70588   7.796  43.505   2.249
11493W        W70589  41.442   4.345  10.429
11494W        W70590   4.212   5.825  14.418
11495W        W70591  13.602  38.440  13.981
11496W        W70592  34.118   6.872  12.435
11497W        W70593  15.317  33.433  14.895
11498W        W70594  31.509   4.286  14.817
11499W        W70595   0.847  16.658   1.218
11500W        W70596  11.327  43.293  13.548
11501W        W70597  18.160  37.529   4.240
11502W        W70598   7.313  23.208   3.852
11503W        W70599   1.313   8.716  13.319
11504W        W70600  11.250   4.834  11.941
11505W        W70601  28.508  13.214   4.322
11506W        W70602  37.867  36.369  10.610
11507W        W70603   9.336  36.969  13.385
11508W        W70604  31.427  24.627  11.981
11509W        W70605  13.259  41.996   4.691
11510W        W70606   2.445  14.773  14.973
11511W        W70607  17.087  32.024  12.474
11512W        W70608  38.907   5.336  13.511
11513W        W70609  17.604  14.242   2.329
11514W        W70610   8.838  28.140  12.573
11515W        W70611  18.096  11.832  12.474
11516W        W70612  18.058  40.431  11.999
11517W        W70613  33.458  41.933   0.425
11518W        W70614   9.722  14.672  13.021
11519W        W70615  11.198  15.091   9.945
11520W        W70616  19.051   7.410  13.985
11521W        W70617   6.273  31.519  12.008
11522W        W70618   0.929  39.448  14.426
11523W        W70619  38.016   5.850   1.386
11524W        W70620  14.234  39.431   0.456
11525W        W70621   9.694   0.463  11.401
11526W        W70622  36.984  32.486  13.443
11527W        W70623   1.283  26.035  12.053
11528W        W70624  43.858   2.740   0.884
11529W        W70625  18.749  19.555  14.982
11530W        W70626  21.637  38.820   1.349
11531W        W70627   8.799  38.980  12.471
11532W        W70628  21.216  39.977   2.334
11533W        W70629   8.740  39.893   1.328
11534W        W70630   0.906   9.383  10.531
11535W        W70631  17.610   0.840   3.269
11536W        W70632  21.108  38.866   3.201
11537W        W70633  25.173  23.098   4.171
11538W        W70634   4.834  33.966  11.016
11539W        W70635   0.424  30.117   4.668
11540W        W70636  27.050  39.883   4.714
11541W        W70637  25.158  14.157  11.044
11542W        W70638  16.226  38.940   4.212
11543W        W70639   9.850  42.301   0.287
11544W        W70640  24.595  39.388   1.257
11545W        W70641  34.108  22.196   1.437
11546W        W70642  31.521  30.438  14.023
11547W        W70643  21.710  11.763   2.729
11548W        W70644  26.528  39.485   4.343
11549W        W70645  43.388  31.477   1.772
11550W        W70646  39.032  19.607  11.005
11551W        W70647   2.361  15.658   0.786
11552W        W70648  12.716  19.083   4.245
11553W        W70649  34.946  26.639  13.817
11554W        W70650  16.134  40.886  12.459
11555W        W70651  44.960  34.923   3.818
11556W        W70652  19.574   6.378  14.488
11557W        W70653   3.245  32.631  14.452
11558W        W70654  33.977  21.717  12.823
11559W        W70655  28.517   4.869  13.000
11560W        W70656   3.890  28.953   1.286
11561W        W70657  12.328  28.510   4.246
11562W        W70658  18.285   3.316  10.546
11563W        W70659  11.177  11.141  13.425
11564W        W70660   3.262  37.521  12.988
11565W        W70661  35.595   8.704   2.684
11566W        W70662   1.749  17.584  13.396
11567W        W70663  39.527  24.053   4.192
11568W        W70664  27.006  37.992  11.005
11569W        W70665  17.589  36.484  13.864
11570W        W70666  43.947  34.548   3.706
11571W        W70667  36.922  17.690  12.566
11572W        W70668  23.084   6.295  14.294
11573W        W70669  38.473  34.536   3.191
11574W        W70670  36.523   2.256  10.542
11575W        W70671  41.532  37.579  11.449
11576W        W70672  11.172  38.327  10.532
11577W        W70673  42.517   8.740   1.355
11578W        W70674  30.647  41.401   0.442
11579W        W70675  32.997  29.454   4.234
11580W        W70676  21.107  22.560   2.798
11581W        W70677  23.531  19.042  14.909
11582W        W70678  40.521  26.022   1.792
11583W        W70679  42.792   0.374  13.372
11584W        W70680  25.695   1.282   2.834
11585W        W70681  13.606  24.626   2.294
11586W        W70682  28.070  13.668   2.781
11587W        W70683  41.019  26.984  14.769
11588W        W70684   4.243   2.924  11.965
11589W        W70685  28.531  25.678   4.133
11590W        W70686  11.248  24.541  10.521
11591W        W70687  26.150  27.140  13.918
11592W        W70688  17.122  38.986  14.978
11593W        W70689  13.254   5.740  14.868
11594W        W70690  24.032  40.798   0.937
11595W        W70691  35.868  10.313  14.901
11596W        W70692  19.061   9.194   2.292
11597W        W70693  36.031  33.976   1.825
11598W        W70694   8.679  24.683  13.825
11599W        W70695   9.355   3.314  10.413
11600W        W70696  15.737  24.595  11.995
11601W        W70697  42.374  16.187  12.467
11602W        W70698  16.089  28.452  14.316
11603W        W70699  31.948   1.772  13.968
11604W        W70700   2.363  37.582   4.142
11605W        W70701  24.502  38.968   0.455
11606W        W70702  19.722  27.020  14.428
11607W        W70703  29.042  39.539  11.010
11608W        W70704  21.192   2.744  12.383
11609W        W70705  29.460  14.326  13.493
11610W        W70706   6.747  27.585  13.542
11611W        W70707  14.312   1.820   0.314
11612W        W70708   3.712  19.079  10.459
11613W        W70709  23.674   0.333   0.361
11614W        W70710  28.643  41.948  13.485
11615W        W70711   8.170  40.330  12.939
11616W        W70712  30.008   8.268  11.913
11617W        W70713  30.911  18.662   2.337
11618W        W70714  44.993   9.154   1.339
11619W        W70715  16.286  21.636   3.168
11620W        W70716  32.613  13.625   0.937
11621W        W70717  38.423  20.547  10.493
11622W        W70718  30.915   7.309   3.371
11623W        W70719  11.305  11.651   3.696
11624W        W70720  43.892  36.361  11.571
11625W        W70721   7.175   0.493   1.726
11626W        W70722  29.961  35.091   2.670
11627W        W70723   8.742   4.336   2.727
11628W        W70724   7.359   0.399   2.191
11629W        W70725  40.535  35.386   1.295
11630W        W70726  27.135  35.917   5.220
11631W        W70727  28.109  28.968  11.890
11632W        W70728  37.542  39.886   2.397
11633W        W70729  34.017   5.194  10.404
11634W        W70730  16.685  14.191  10.491
11635W        W70731   2.795   0.382   2.734
11636W        W70732   2.251  34.093  13.453
11637W        W70733  35.075  41.895  11.503
11638W        W70734  33.434  30.068   0.807
11639W        W70735  42.446  38.960  12.448
11640W        W70736  19.568  17.075   1.274
11641W        W70737  28.606  10.340   4.603
11642W        W70738  25.153   3.358   1.238
11643W        W70739  25.180  31.149  14.353
11644W        W70740  34.012  12.707   0.453
11645W        W70741   4.884  15.101   2.377
11646W        W70742  14.784  29.533  12.360
11647W        W70743  32.038   7.804   2.189
11648W        W70744   9.819  12.637   3.853
11649W        W70745  21.632   6.679   3.269
11650W        W70746  21.242   3.331   2.723
11651W        W70747  40.344  28.095   1.365
11652W        W70748  21.139   8.367   2.806
11653W        W70749  16.130  16.094  10.561
11654W        W70750  17.206   3.317   0.348
11655W        W70751  37.021  23.637   0.349
11656W        W70752  30.585  36.993   1.450
11657W        W70753  37.432   2.849   1.433
11658W        W70754  34.975  19.055  13.334
11659W        W70755  31.100  20.756  12.959
11660W        W70756  20.081  33.952   3.733
11661W        W70757  19.679  14.651  13.472
11662W        W70758  12.697  29.124   2.417
11663W        W70759  10.818  30.647   0.469
11664W        W70760  21.063   7.842   2.366
11665W        W70761  15.234  16.761   2.666
11666W        W70762  25.472  19.124   4.669
11667W        W70763  22.605   9.202  12.026
11668W        W70764  22.141   9.822   0.457
11669W        W70765  33.455   2.953   1.345
11670W        W70766  28.966  23.509  10.607
11671W        W70767  33.030   3.346  13.385
11672W        W70768  36.491  32.425   1.769
11673W        W70769  36.517  27.953   0.809
11674W        W70770  17.228   2.906   2.277
11675W        W70771  35.988  31.961   0.465
11676W        W70772   7.768   8.315  11.453
11677W        W70773   9.680  44.370  12.901
11678W        W70774  38.837  44.468   2.263
11679W        W70775  17.215  43.406  14.435
11680W        W70776  20.552   6.355   0.805
11681W        W70777  39.018  43.366   2.343
11682W        W70778  22.214   6.412   1.746
11683W        W70779  23.692  28.998  13.834
11684W        W70780   9.698   4.792   4.774
11685W        W70781   4.723  12.303   1.697
11686W        W70782  38.977  35.520   1.353
11687W        W70783  39.049   3.767   9.954
11688W        W70784  44.505  36.557   3.838
11689W        W70785  28.544  37.473   3.837
11690W        W70786  28.934  43.996   4.606
11691W        W70787  23.554  38.833  14.875
11692W        W70788  39.860  34.047   4.141
11693W        W70789  23.132  17.623  12.485
11694W        W70790   3.232   9.201   4.770
11695W        W70791  16.573   7.791  11.505
11696W        W70792   3.753  29.480   3.774
11697W        W70793  26.204   0.268  12.521
11698W        W70794  36.037  36.581   2.829
11699W        W70795  21.178   8.710   1.911
11700W        W70796  15.182  44.347   2.339
11701W        W70797  41.791  36.988   0.427
11702W        W70798  41.379   7.720   1.711
11703W        W70799   4.927  16.086   0.933
11704W        W70800  21.227  15.210   1.254
11705W        W70801   3.381   8.352   1.265
11706W        W70802  25.168  42.397  12.899
11707W        W70803  33.530  17.290   2.801
11708W        W70804   8.243  40.051  12.022
11709W        W70805  17.556  20.211   4.122
11710W        W70806  12.753  41.447   3.866
11711W        W70807  13.676  11.206   2.326
11712W        W70808  22.232   4.768   2.380
11713W        W70809   9.857  35.447  13.321
11714W        W70810  13.181  29.157  11.041
11715W        W70811   3.336   7.230  11.493
11716W        W70812  33.904  19.147  10.555
11717W        W70813   9.375  42.393   4.647
11718W        W70814   9.784  37.393   3.713
11719W        W70815  34.877   7.337  12.013
11720W        W70816  40.510  10.192  12.054
11721W        W70817  28.482  44.368   4.324
11722W        W70818  44.370  25.006  12.856
11723W        W70819  32.541  12.292  13.508
11724W        W70820  28.633  20.200   4.838
11725W        W70821  15.675  31.066  11.978
11726W        W70822   5.347   7.292  13.003
11727W        W70823   6.383  19.658   0.759
11728W        W70824  15.600  29.114   0.952
11729W        W70825  22.996  44.471   2.862
11730W        W70826  22.221  10.224   5.310
11731W        W70827  22.244  36.579  14.512
11732W        W70828   8.890   2.234  12.924
11733W        W70829  26.138  16.275   3.869
11734W        W70830  12.630  25.486  14.958
11735W        W70831  39.012   4.806   1.291
11736W        W70832  38.547  41.440   2.780
11737W        W70833  32.497  37.071  11.943
11738W        W70834  17.198  32.965   3.671
11739W        W70835  19.617  35.969  10.636
11740W        W70836  11.792  29.638   0.763
11741W        W70837  22.027  10.726  14.383
11742W        W70838  27.161   5.226  14.451
11743W        W70839  16.735   1.978   2.375
11744W        W70840  22.081  27.962  12.887
11745W        W70841  17.112   6.312  11.915
11746W        W70842  18.278   0.895   2.674
11747W        W70843   7.702  23.067  14.470
11748W        W70844   0.795   0.773   3.689
11749W        W70845  31.611  37.066   0.830
11750W        W70846  36.472   7.333   2.884
11751W        W70847  24.552   6.387   2.901
11752W        W70848   8.211  25.572  12.860
11753W        W70849  31.958  28.970   2.226
11754W        W70850  29.643  31.594   3.816
11755W        W70851  37.069   8.169   4.249
11756W        W70852  23.995  37.494  14.935
11757W        W70853   9.378  40.958   4.740
11758W        W70854   9.356  32.074  13.472
11759W        W70855  11.327  13.730  13.496
11760W        W70856   2.407  15.800   0.244
11761W        W70857   1.916  36.550   0.743
11762W        W70858  22.668  20.579   4.277
11763W        W70859   1.751  35.062  12.566
11764W        W70860  29.593  25.049   1.706
11765W        W70861  39.035   9.345  12.544
11766W        W70862  18.283  35.433   5.751
11767W        W70863  21.032  11.305  12.559
11768W        W70864  40.976   1.778  10.588
11769W        W70865  42.316  33.547   2.769
11770W        W70866   7.345  33.045  10.554
11771W        W70867   9.862  14.309  13.458
11772W        W70868  35.071  40.981  14.877
11773W        W70869   1.324  33.083   3.631
11774W        W70870  23.513  42.487   3.208
11775W        W70871  42.820  15.232   4.343
11776W        W70872  30.619  25.692  11.612
11777W        W70873  24.683  22.729   1.302
11778W        W70874  10.700  41.440  13.982
11779W        W70875  11.793  43.971  11.098
11780W        W70876  38.463  41.511  11.054
11781W        W70877  30.162  10.649  10.922
11782W        W70878  16.251  41.325   4.195
11783W        W70879  14.188  40.313   5.102
11784W        W70880   3.219  42.905   5.245
11785W        W70881   9.333  14.647   3.665
11786W        W70882  26.104  40.881  14.374
11787W        W70883  35.078   0.875   4.266
11788W        W70884  25.526  15.262  11.951
11789W        W70885  33.465  25.502   5.798
11790W        W70886  35.414  41.946   0.886
11791W        W70887  28.071  24.659  13.923
11792W        W70888  11.667  14.131   3.851
11793W        W70889   1.887  33.940   1.348
11794W        W70890  24.712   9.759  11.866
11795W        W70891  28.063  31.490  10.951
11796W        W70892  31.509  14.681  14.935
11797W        W70893  30.516   7.882  12.944
11798W        W70894  30.503  11.798   1.425
11799W        W70895  14.664  27.987  10.943
11800W        W70896  10.348   8.730  12.407
11801W        W70897  37.416  41.403  14.413
11802W        W70898   7.282  43.847  11.563
11803W        W70899  13.710  38.518  10.527
11804W        W70900  22.163  20.078  11.388
11805W        W70901  15.198  11.853  11.452
11806W        W70902  17.656  19.737  11.389
11807W        W70903  10.350  24.489   0.928
11808W        W70904  15.178   1.930  10.901
11809W        W70905   3.952   3.330   3.794
11810W        W70906   9.318  39.362  11.452
11811W        W70907  29.089  20.737   4.229
11812W        W70908   8.817   9.362   3.788
11813W        W70909  41.409  40.813  14.973
11814W        W70910  30.471  14.718  13.536
11815W        W70911  18.777  21.140  10.913
11816W        W70912  23.143  21.076  14.969
11817W        W70913  21.747  38.866   4.667
11818W        W70914   9.699  14.329   4.323
11819W        W70915  23.530  26.581   0.858
11820W        W70916   1.314  39.490  13.990
11821W        W70917  17.107  10.707  13.490
11822W        W70918  28.615  24.195  11.577
11823W        W70919  20.661  22.214   4.352
11824W        W70920  26.618  38.871   2.682
11825W        W70921  41.377   5.260  12.054
11826W        W70922  18.179   6.373   0.397
11827W        W70923   8.244   6.343  10.618
11828W        W70924  27.591  14.800   3.231
11829W        W70925  17.723  31.984  10.452
11830W        W70926  15.171  22.103   2.192
11831W        W70927   1.900   3.769  10.984
11832W        W70928  14.650   7.338   2.878
11833W        W70929  23.195   0.414  13.451
11834W        W70930   4.850   9.279  12.575
11835W        W70931  34.500  14.608   2.821
11836W        W70932  22.055  20.709  14.782
11837W        W70933  15.255  11.361   0.293
11838W        W70934  35.871  29.054  11.538
11839W        W70935  20.737   8.315  11.976
11840W        W70936  35.426  39.989  11.060
11841W        W70937  36.854  40.014   2.386
11842W        W70938  26.083  39.860  13.341
11843W        W70939   3.914  33.125  11.002
11844W        W70940  40.943  26.667  12.060
11845W        W70941  20.173  30.598   5.283
11846W        W70942   0.460  42.026  11.045
11847W        W70943  33.936  35.483  13.470
11848W        W70944  43.854  38.057   4.167
11849W        W70945  11.351  29.066  10.156
11850W        W70946   0.464  12.280  12.349
11851W        W70947  19.627  31.635   4.181
11852W        W70948  44.392  40.435  12.388
11853W        W70949  29.636  23.576   1.909
11854W        W70950  13.337   3.920   3.336
11855W        W70951  31.041  33.520   4.274
11856W        W70952  28.059  13.704  12.561
11857W        W70953  30.941   1.941   3.668
11858W        W70954  32.087  40.435  14.863
11859W        W70955  30.525   8.688  12.518
11860W        W70956  30.503  37.478   3.169
11861W        W70957  15.750  32.511   1.779
11862W        W70958  23.145   8.276   1.769
11863W        W70959  35.414  39.458  13.497
11864W        W70960   5.832  20.229  11.574
11865W        W70961  11.142   1.937   3.771
11866W        W70962  17.263  32.031  10.541
11867W        W70963  29.100  41.412   4.741
11868W        W70964   4.700  31.479   0.412
11869W        W70965  25.195  43.331   2.259
11870W        W70966   4.450   7.200  14.412
11871W        W70967   4.938  36.563  14.928
11872W        W70968   0.807   6.241   1.427
11873W        W70969  16.104  28.177   2.874
11874W        W70970   4.419   8.238  14.513
11875W        W70971  17.768  33.624   2.793
11876W        W70972  25.506  24.594  12.891
11877W        W70973  26.977  38.405   1.792
11878W        W70974  11.304  16.599  14.449
11879W        W70975  13.209   1.740   9.970
11880W        W70976  19.616  16.716  11.948
11881W        W70977  41.318  44.327   4.801
11882W        W70978  25.076   8.658  12.042
11883W        W70979  14.292  41.383  10.516
11884W        W70980  23.165  38.060  12.397
11885W        W70981  17.705  26.459   2.796
11886W        W70982  10.321  22.039  14.988
11887W        W70983  32.438  44.421   4.773
11888W        W70984  42.898  18.574  12.453
11889W        W70985  26.651  29.524   4.759
11890W        W70986  18.117   6.277  11.525
11891W        W70987  31.623  32.124  13.808
11892W        W70988  38.839  25.969   2.839
11893W        W70989   4.815  32.996  11.118
11894W        W70990  12.316   1.865  12.574
11895W        W70991   0.764   1.322   2.762
11896W        W70992  44.826   5.198   4.267
11897W        W70993  24.592  15.207   0.302
11898W        W70994  27.582  43.308  11.069
11899W        W70995  14.340  28.460   2.819
11900W        W70996  12.650  30.155  11.471
11901W        W70997  25.569  19.536   2.894
11902W        W70998  14.766   3.825   0.476
11903W        W70999   1.855  38.531  13.056
11904W        W71000  31.405  19.053  14.386
11905W        W71001  36.886  28.543  14.434
11906W        W71002  22.239  37.953   2.315
11907W        W71003   5.713  29.104   9.979
11908W        W71004  12.173   8.368  13.976
11909W        W71005   2.431  25.978   0.448
11910W        W71006  25.563  11.186  10.420
11911W        W71007  22.202  18.133   2.821
11912W        W71008  10.192   0.785  11.408
11913W        W71009  30.538  15.676   0.817
11914W        W71010   3.815  15.675   0.732
11915W        W71011  40.445   1.769   3.349
11916W        W71012   3.225  27.501  14.797
11917W        W71013  13.210  17.747  10.996
11918W        W71014  24.035   3.758   1.298
11919W        W71015  43.011  20.032  13.514
11920W        W71016   5.885   9.650  11.375
11921W        W71017  30.030  19.550   0.876
11922W        W71018   6.718   0.308   3.216
11923W        W71019  41.300   4.415  11.887
11924W        W71020  10.654  33.959  11.606
11925W        W71021  36.464  40.542   4.637
11926W        W71022  42.969  26.187   3.179
11927W        W71023  15.197   4.736   2.777
11928W        W71024  37.899  40.870  12.453
11929W        W71025  13.139  30.585  14.884
11930W        W71026   2.241  10.828   4.342
11931W        W71027  35.433  37.397  14.487
11932W        W71028   0.766   9.822   2.223
11933W        W71029  31.521  25.468  13.307
11934W        W71030  15.193  15.174   4.225
11935W        W71031  10.196  19.144   1.761
11936W        W71032  38.999  44.291   9.982
11937W        W71033  44.761   1.976   0.426
11938W        W71034  14.286  39.520   4.320
11939W        W71035  44.291  19.745   2.784
11940W        W71036  35.033  28.006   4.769
11941W        W71037  41.934  24.577   2.241
11942W        W71038   9.241  32.075   2.417
11943W        W71039  17.802  18.174  11.054
11944W        W71040  22.581  23.518   2.403
11945W        W71041  27.572  43.913  13.858
11946W        W71042  20.629  17.135  12.375
11947W        W71043  35.893   5.302   2.365
11948W        W71044  40.841   2.925  14.780
11949W        W71045  38.837  40.543   2.889
11950W        W71046   9.326  24.181  10.529
11951W        W71047  32.562  42.019   1.767
11952W        W71048   9.890   0.270   2.229
11953W        W71049  22.047  21.757   2.281
11954W        W71050  41.430  15.275   2.819
11955W        W71051  22.617  38.935  10.975
11956W        W71052   2.227   8.798   4.629
11957W        W71053   2.247   6.785  12.448
11958W        W71054  16.743  31.598   1.365
11959W        W71055   8.181  40.388  14.892
11960W        W71056  43.945  26.504  10.554
11961W        W71057  12.258   4.904   3.806
11962W        W71058  16.249  17.765   1.214
11963W        W71059  33.122   1.788  12.432
11964W        W71060   0.427   8.365   3.295
11965W        W71061   1.762  15.688  13.375
11966W        W71062  43.917  44.773  12.863
11967W        W71063  24.501  28.171  10.429
11968W        W71064   1.246  20.608   1.739
11969W        W71065  42.377  22.617  13.531
11970W        W71066  26.138  30.109  13.929
11971W        W71067   7.742  23.169   3.330
11972W        W71068   9.159  17.633  12.838
11973W        W71069  43.798   3.852  12.538
11974W        W71070  18.090  23.631   0.959
11975W        W71071  22.130  14.243   0.336
11976W        W71072  32.430  14.606   3.202
11977W        W71073  28.168   7.752   2.409
11978W        W71074   1.825  30.964  13.854
11979W        W71075   2.836  38.503  14.413
11980W        W71076  28.124  13.299   1.269
11981W        W71077   0.350   1.334   3.171
11982W        W71078  17.559  11.688  14.970
11983W        W71079   3.220  10.375  11.415
11984W        W71080  10.262  33.397   1.883
11985W        W71081  38.402  16.734  13.385
11986W        W71082  34.468   0.776  13.533
11987W        W71083  25.588  18.733   5.787
11988W        W71084  15.805   2.724  14.997
11989W        W71085  12.160  39.011  10.633
11990W        W71086  23.732  18.225  12.375
11991W        W71087  44.283  42.962   2.301
11992W        W71088  11.642   9.202   4.644
11993W        W71089  26.209  36.846   1.444
11994W        W71090  14.740  38.437  13.983
11995W        W71091  32.490  39.874   4.294
11996W        W71092  35.970  33.384   0.757
11997W        W71093   6.293  33.069  14.300
11998W        W71094  15.225   7.700  12.460
11999W        W71095  33.001   8.379   3.742
12000W        W71096   4.842  10.765  11.859
12001W        W71097  24.702  40.525  10.958
12002W        W71098   9.814  28.127  14.427
12003W        W71099  26.568  27.109  14.320
12004W        W71100   6.839  11.639  12.405
12005W        W71101  25.973  33.925   3.726
12006W        W71102  32.940  34.596   0.951
12007W        W71103  32.972  10.302  13.339
12008W        W71104  30.470  18.628   0.950
12009W        W71105  26.152  17.754   3.242
12010W        W71106  38.922  39.967   1.895
12011W        W71107   8.165  31.552   4.259
12012W        W71108  11.206  18.747   1.863
12013W        W71109   3.875  37.838  10.491
12014W        W71110   4.916  41.306   1.871
12015W        W71111  26.542  14.725   0.338
12016W        W71112  44.493  22.543  14.837
12017W        W71113  14.774  31.084   1.731
12018W        W71114  22.573  27.073   1.791
12019W        W71115  25.664  16.651  10.929
12020W        W71116  22.171  25.529  14.761
12021W        W71117   8.850  37.835   4.735
12022W        W71118  36.471   5.807   1.268
12023W        W71119  30.163  15.229   0.399
12024W        W71120  17.206  42.420  13.376
12025W        W71121  16.700  10.782  11.587
12026W        W71122  11.807  33.516   5.188
12027W        W71123   0.977  26.178  10.155
12028W        W71124  36.402   1.732   5.263
12029W        W71125  33.386   1.284   1.435
12030W        W71126  21.184  36.865  12.054
12031W        W71127  18.755   0.414  10.544
12032W        W71128  15.732   1.891   4.604
12033W        W71129  16.245  34.378  14.369
12034W        W71130  33.551  35.570  11.519
12035W        W71131  34.434  19.250  14.944
12036W        W71132  42.351  35.375  14.404
12037W        W71133  34.880   6.898  13.459
12038W        W71134  27.611  33.903   1.215
12039W        W71135   6.687   9.181  14.023
12040W        W71136  41.887  19.123  12.870
12041W        W71137  12.124  22.737   3.730
12042W        W71138   7.851  37.579  12.545
12043W        W71139  40.323  27.944   3.164
12044W        W71140  33.011  40.475  14.927
12045W        W71141  19.681  16.569   3.700
12046W        W71142   2.909  27.077   2.873
12047W        W71143   3.248  42.481   3.317
12048W        W71144  33.082  28.668  13.981
12049W        W71145  39.335  40.384   0.729
12050W        W71146  25.104  11.741   3.824
12051W        W71147  29.926  25.528  11.384
12052W        W71148  34.056  11.700   3.668
12053W        W71149  33.594  20.079  14.815
12054W        W71150  23.190   5.930   4.257
12055W        W71151  31.971  21.137   5.223
12056W        W71152  17.776  40.527   3.361
12057W        W71153  21.647   6.869   2.848
12058W        W71154  14.191   3.305  11.989
12059W        W71155  18.262  33.414   2.371
12060W        W71156  11.146  14.318   1.832
12061W        W71157  13.614  12.294  13.459
12062W        W71158  26.044  37.386   0.292
12063W        W71159   2.293   0.253  14.796
12064W        W71160  32.409  17.287   3.303
12065W        W71161  32.915  29.565   4.688
12066W        W71162   6.768  30.038   0.914
12067W        W71163   8.277  32.503   4.167
12068W        W71164  33.989  16.149   3.154
12069W        W71165  24.683  18.776  10.476
12070W        W71166  30.099   1.447  13.057
12071W        W71167  40.473  13.157  13.529
12072W        W71168  39.933   6.896  11.553
12073W        W71169  15.158  43.270  12.049
12074W        W71170  13.671  18.755   2.399
12075W        W71171  38.451  19.196  11.601
12076W        W71172  39.945  21.176  11.961
12077W        W71173  17.578  24.515   1.441
12078W        W71174  43.982  18.106   3.148
12079W        W71175  26.573  21.622   1.280
12080W        W71176   3.398  24.001   0.402
12081W        W71177  44.346  17.285  11.942
12082W        W71178   2.318  26.047   1.757
12083W        W71179   7.227   7.787  12.930
12084W        W71180  11.215   7.196   0.784
12085W        W71181   6.794  35.059  10.517
12086W        W71182   6.211  14.622  14.337
12087W        W71183   7.316  21.548   2.322
12088W        W71184  37.460  18.667  11.581
12089W        W71185  22.056  40.544  11.512
12090W        W71186  30.952  39.843  13.857
12091W        W71187  37.490  24.492  11.454
12092W        W71188   1.255  29.967   2.350
12093W        W71189  15.282  18.268   4.785
12094W        W71190   0.444  25.498  13.345
12095W        W71191  14.108  33.553   3.768
12096W        W71192  42.483  23.557  12.457
12097W        W71193  26.564  29.524   0.427
12098W        W71194  30.595  25.526   0.465
12099W        W71195  11.721  12.757  11.008
12100W        W71196  44.393  13.161   0.828
12101W        W71197  36.574  16.254  14.445
12102W        W71198  37.429  17.220  13.504
12103W        W71199   1.850  21.586  13.497
12104W        W71200   9.758   8.800   2.711
12105W        W71201  43.803  44.286   1.394
12106W        W71202   0.956  13.284   5.204
12107W        W71203  41.904  34.937  10.947
12108W        W71204  18.291  25.499   3.259
12109W        W71205  27.691  44.305  10.636
12110W        W71206  33.403   4.376   0.773
12111W        W71207  13.184  30.984   3.665
12112W        W71208  18.180  31.599  12.880
12113W        W71209   7.365  30.050   4.210
12114W        W71210   4.875   8.742  11.870
12115W        W71211  31.584  23.190  13.498
12116W        W71212  39.957  26.670   2.320
12117W        W71213  29.931  21.261   4.785
12118W        W71214  42.888  31.966   2.199
12119W        W71215  27.119  30.128   0.281
12120W        W71216  28.454   2.436   2.683
12121W        W71217  12.800  44.374  13.032
12122W        W71218  19.062   0.449  10.930
12123W        W71219  27.625   0.977  14.783
12124W        W71220  25.055   4.259  14.888
12125W        W71221  17.161  10.314   0.287
12126W        W71222  44.320   6.831   0.869
12127W        W71223  35.881   9.656   1.926
12128W        W71224  11.318  36.974   2.186
12129W        W71225  38.529  32.607   0.833
12130W        W71226   3.264  37.422   1.241
12131W        W71227  21.218  18.098   5.315
12132W        W71228  39.375   7.197  11.122
12133W        W71229  43.869  15.600   2.734
12134W        W71230   0.424  10.730  11.602
12135W        W71231  22.657  16.188   3.182
12136W        W71232  22.544   0.479  11.089
12137W        W71233  26.597  29.040   0.773
12138W        W71234   1.771  17.698  12.380
12139W        W71235  34.431  35.055  14.274
12140W        W71236  21.612  36.076   4.726
12141W        W71237  39.555   6.859   3.271
12142W        W71238  28.991  29.956  13.518
12143W        W71239  23.536  41.429   3.216
12144W        W71240  27.492  26.057   4.220
12145W        W71241  31.478  16.633  14.449
12146W        W71242   7.838  31.075  13.313
12147W        W71243   7.248   1.413  11.944
12148W        W71244  38.868  41.940  10.453
12149W        W71245  26.488   2.359   2.776
12150W        W71246  37.447  12.121   1.375
12151W        W71247  38.955  41.890  14.340
12152W        W71248   9.729  40.522   1.695
12153W        W71249  15.580  16.271  11.084
12154W        W71250  21.634  33.957  10.437
12155W        W71251  32.038  44.449   1.273
12156W        W71252  13.267  16.306   2.678
12157W        W71253  14.195  18.259   4.147
12158W        W71254  40.916  29.102   1.733
12159W        W71255  30.638  28.055  11.935
12160W        W71256  37.907  26.091  11.040
12161W        W71257   5.791  22.705  13.396
12162W        W71258  19.044  41.795  12.504
12163W        W71259  32.495  13.676  13.969
12164W        W71260  28.566  21.657   0.780
12165W        W71261  16.192  40.801   1.873
12166W        W71262   8.659   2.355   2.822
12167W        W71263  25.984  29.441   2.803
12168W        W71264  28.494  13.288  12.995
12169W        W71265  44.272  26.644   1.736
12170W        W71266  22.171  17.601  13.448
12171W        W71267  19.225  18.166  10.462
12172W        W71268  32.420  31.026  12.558
12173W        W71269  27.176  36.480   2.285
12174W        W71270   6.191   5.364   3.825
12175W        W71271  39.954  14.215   4.201
12176W        W71272  33.387  41.864   4.689
12177W        W71273   0.969  17.624  10.460
12178W        W71274  44.319   5.767  13.528
12179W        W71275  28.516   5.769   1.365
12180W        W71276  25.581  24.042  14.496
12181W        W71277  16.735   8.895  12.512
12182W        W71278  17.183  35.525   3.833
12183W        W71279  26.664   3.292   4.647
12184W        W71280   6.711  27.663  11.065
12185W        W71281  26.208  39.038   3.214
12186W        W71282  23.552  27.564   2.195
12187W        W71283  38.543  24.544   2.665
12188W        W71284  17.723  27.024  11.993
12189W        W71285   4.438  30.108   1.921
12190W        W71286  42.500  22.058  11.415
12191W        W71287  44.989  27.683   1.346
12192W        W71288  10.267  17.703   4.662
12193W        W71289  17.182  17.646  13.419
12194W        W71290   1.396  15.223  11.386
12195W        W71291  11.313  12.314   3.237
12196W        W71292  12.802  34.584   1.891
12197W        W71293  21.227  41.835  10.545
12198W        W71294  27.447  33.921  13.484
12199W        W71295   5.749  14.114   0.906
12200W        W71296   0.366  25.000  10.907
12201W        W71297  21.658  30.471   0.838
12202W        W71298  19.155   3.449  13.537
12203W        W71299  38.470  41.487   3.379
12204W        W71300   0.805  31.010  11.374
12205W        W71301  27.072  16.694   2.180
12206W        W71302  44.419  30.069   0.391
12207W        W71303  21.237  19.130  12.994
12208W        W71304  44.914  13.136  13.451
12209W        W71305  26.516  29.625  11.398
12210W        W71306  28.577   0.858  13.995
12211W        W71307  33.445  39.870  13.020
12212W        W71308  18.706  22.101   4.641
12213W        W71309  15.267  32.123  13.968
12214W        W71310  23.670  37.535  10.599
12215W        W71311  23.121  41.996   2.852
12216W        W71312  23.012  16.637  13.924
12217W        W71313  32.522   1.242   2.417
12218W        W71314  40.355  43.795   1.788
12219W        W71315   3.216   2.285   1.843
12220W        W71316   2.252  25.999   1.329
12221W        W71317  13.720   1.749  11.113
12222W        W71318  42.515  39.390  13.421
12223W        W71319  12.316  31.022   2.680
12224W        W71320  34.585  41.861   2.714
12225W        W71321  26.653  40.382   4.330
12226W        W71322  38.010  18.291   2.332
12227W        W71323   3.867  22.126   2.279
12228W        W71324  40.335  29.925  13.010
12229W        W71325  17.252   6.187   3.298
12230W        W71326   0.461  10.831  14.463
12231W        W71327  11.735  41.427  14.379
12232W        W71328  11.171  30.507   5.310
12233W        W71329  38.490  28.518   0.318
12234W        W71330   3.843  11.742   4.785
12235W        W71331   3.943  23.626  14.435
12236W        W71332  37.942   4.853   3.860
12237W        W71333   5.791   0.964  14.355
12238W        W71334   4.756  32.512   0.922
12239W        W71335   4.347   7.800  13.456
12240W        W71336  24.625  27.096  13.987
12241W        W71337  44.947   0.770  14.388
12242W        W71338  15.592  17.138  12.351
12243W        W71339   5.906  40.003  12.362
12244W        W71340  42.446   0.815  12.971
12245W        W71341  11.659  14.690  14.796
12246W        W71342  25.637  21.029   0.475
12247W        W71343  16.616  39.357  11.490
12248W        W71344  17.077  30.132   3.178
12249W        W71345  10.720  16.719  13.542
12250W        W71346  41.839  25.592  12.962
12251W        W71347  10.273  23.525  11.082
12252W        W71348  28.616  13.706  10.978
12253W        W71349  20.599  16.797   4.179
12254W        W71350  43.294  21.676   3.758
12255W        W71351  36.431  29.581   3.277
12256W        W71352  40.345  34.486   1.818
12257W        W71353  17.621  21.734   1.770
12258W        W71354  13.165  40.536  13.823
12259W        W71355  19.656   8.672   1.779
12260W        W71356  20.230  14.776   1.441
12261W        W71357   3.804  30.918   4.118
12262W        W71358  29.500  17.783   0.814
12263W        W71359  30.583  18.171   4.767
12264W        W71360  29.473   6.373   5.108
12265W        W71361  29.637   8.710   4.326
12266W        W71362   4.270  38.927   1.761
12267W        W71363  18.609  17.672   4.740
12268W        W71364  27.458  12.139   1.837
12269W        W71365  38.548  23.996   3.338
12270W        W71366  25.506  40.378   3.230
12271W        W71367  19.776  15.285  13.308
12272W        W71368  18.131  34.460   9.635
12273W        W71369  27.687  30.630   0.431
12274W        W71370   5.227  16.602   4.304
12275W        W71371  40.410  27.189  11.966
12276W        W71372  24.174  11.786  14.918
12277W        W71373   9.691  37.526  12.470
12278W        W71374  34.445  44.903  11.949
12279W        W71375  17.102  35.402  11.418
12280W        W71376  24.140  43.329   0.483
12281W        W71377  42.877  31.960   2.776
12282W        W71378  17.560  24.052   2.784
12283W        W71379  11.256  14.629   5.230
12284W        W71380  17.666  19.715  11.863
12285W        W71381  28.936  20.037  10.619
12286W        W71382   4.762  19.105  13.391
12287W        W71383  35.589  41.851   0.377
12288W        W71384  10.807  38.040  13.532
12289W        W71385   8.655  34.548   2.757
12290W        W71386  43.808  23.238  10.481
12291W        W71387  34.580  37.580  13.465
12292W        W71388  22.589   1.837   0.364
12293W        W71389  17.700  34.986  13.845
12294W        W71390  22.630  40.513  11.868
12295W        W71391  23.493  36.913   3.755
12296W        W71392  13.804  42.023   4.625
12297W        W71393  26.055  29.475   4.151
12298W        W71394  34.419   1.948   1.303
12299W        W71395  38.982  27.943   1.856
12300W        W71396  35.436  43.329   2.351
12301W        W71397   1.466  13.813  10.587
12302W        W71398  16.728  23.495   0.361
12303W        W71399  44.485  12.682   5.297
12304W        W71400  34.031  29.038  11.428
12305W        W71401  10.730  23.647   1.778
12306W        W71402   2.921  44.770  10.960
12307W        W71403  37.462  27.636  10.603
12308W        W71404  28.600  30.041   0.454
12309W        W71405   5.875   7.362  13.916
12310W        W71406   6.364   6.396   4.839
12311W        W71407  20.138  20.266   2.263
12312W        W71408  16.115  10.814   0.827
12313W        W71409  22.249  16.626  11.594
12314W        W71410   9.298  43.487   2.179
12315W        W71411  43.287  20.573  13.062
12316W        W71412  40.376  18.644   3.704
12317W        W71413   4.822   2.434  12.481
12318W        W71414  36.999  42.907  11.939
12319W        W71415   7.772  42.287   0.348
12320W        W71416  19.079  22.646  12.473
12321W        W71417   5.267   9.271  11.560
12322W        W71418  42.892  30.907   1.819
12323W        W71419  17.178  38.883   0.823
12324W        W71420  42.308   1.385  13.416
12325W        W71421  15.326  10.820  13.018
12326W        W71422  27.545  35.941  10.999
12327W        W71423   4.256  23.543   1.278
12328W        W71424  36.582  11.636  11.113
12329W        W71425   7.899  40.443  14.790
12330W        W71426  25.547  33.046  11.430
12331W        W71427  25.675  15.783   0.296
12332W        W71428  34.911  16.288  13.328
12333W        W71429  24.058   6.223   3.701
12334W        W71430  11.273   2.231  11.460
12335W        W71431  24.019   2.313   3.745
12336W        W71432  17.790  23.017   1.828
12337W        W71433  15.165  27.502  10.095
12338W        W71434  25.978  40.355  12.008
12339W        W71435  25.664  23.548  12.514
12340W        W71436  42.333   7.403  14.354
12341W        W71437  19.638   0.924   0.921
12342W        W71438  12.206  13.133  14.944
12343W        W71439  30.959  18.108   0.870
12344W        W71440  38.476  11.738   3.786
12345W        W71441   9.304  17.603  11.052
12346W        W71442  44.805   9.692   1.444
12347W        W71443  40.934   9.276   2.875
12348W        W71444  39.454   1.393   1.362
12349W        W71445  32.130  23.202   2.321
12350W        W71446  35.867  28.462  12.938
12351W        W71447  13.816  36.418  12.516
12352W        W71448  13.200   5.711   0.812
12353W        W71449  37.036   9.266   0.447
12354W        W71450  31.023  21.148  11.894
12355W        W71451  37.353  24.494   3.324
12356W        W71452  17.680  11.623  12.343
12357W        W71453  32.589   1.888   3.762
12358W        W71454  12.698   2.744   0.819
12359W        W71455  30.146   8.282  12.557
12360W        W71456  27.119  43.901  14.892
12361W        W71457  19.237  25.046  13.035
12362W        W71458  35.494  19.059  11.453
12363W        W71459  42.956  29.111  12.049
12364W        W71460  27.152  12.272  13.830
12365W        W71461   1.893  42.915   2.736
12366W        W71462  20.575  42.439  11.457
12367W        W71463   6.803   3.335  12.387
12368W        W71464   4.387  22.682  13.353
12369W        W71465  15.786  40.973   1.287
12370W        W71466  36.089  28.659   2.328
12371W        W71467  43.799  36.576   2.865
12372W        W71468  32.923  32.992   4.655
12373W        W71469   4.926  31.602   1.409
12374W        W71470  37.892  23.159   0.401
12375W        W71471  37.881  36.423   1.390
12376W        W71472   3.342  36.471  11.913
12377W        W71473  23.103  11.285  13.519
12378W        W71474  18.098  34.516   4.824
12379W        W71475  34.934  18.561  12.864
12380W        W71476   4.408   0.280   0.336
12381W        W71477  28.578  24.571  12.839
12382W        W71478  13.688  13.150   0.388
12383W        W71479  28.076  40.042  11.451
12384W        W71480  11.241   6.783   4.234
12385W        W71481  10.712  33.456   1.833
12386W        W71482  28.665  19.573   0.450
12387W        W71483  32.480  15.293   3.294
12388W        W71484  24.554  23.597   3.300
12389W        W71485  21.191  43.857   0.252
12390W        W71486  40.980  19.737  14.842
12391W        W71487  12.784  42.348   4.288
12392W        W71488  38.351   2.360   3.312
12393W        W71489   2.889  41.010  13.853
12394W        W71490  11.702  27.100   1.379
12395W        W71491  33.529  18.616   4.740
12396W        W71492  14.292   0.302   0.774
12397W        W71493  32.478  37.432  14.445
12398W        W71494  21.194  21.095   0.861
12399W        W71495  18.148  42.476  11.473
12400W        W71496  33.936  19.111  11.051
12401W        W71497  24.050  28.173  11.557
12402W        W71498  16.748  20.585   3.703
12403W        W71499  30.132  14.103   1.400
12404W        W71500   4.229  10.183   0.936
12405W        W71501  33.119  22.735   2.736
12406W        W71502   9.167  44.945  14.459
12407W        W71503  15.597  39.865   4.816
12408W        W71504  42.348   7.841  10.930
12409W        W71505  10.827  40.798   3.843
12410W        W71506   5.785  22.719  12.407
12411W        W71507  41.829  31.958  14.859
12412W        W71508   9.825  10.866   1.402
12413W        W71509  29.641   2.959   3.823
12414W        W71510   5.251  25.699  12.967
12415W        W71511  40.013  41.826  12.475
12416W        W71512  15.791   0.315   0.295
12417W        W71513  26.041  43.000   3.239
12418W        W71514   6.724  10.169   1.385
12419W        W71515  29.504  15.653   0.777
12420W        W71516  24.121   2.965   1.839
12421W        W71517  37.894  20.536  14.306
12422W        W71518  10.217  27.588   9.950
12423W        W71519  14.156   5.864   3.746
12424W        W71520  15.284  39.514  13.864
12425W        W71521  21.559  28.447   4.839
12426W        W71522  16.307  22.619   0.344
12427W        W71523  11.152  19.202   2.386
12428W        W71524  10.219  22.566  13.517
12429W        W71525  14.322  11.201   1.719
12430W        W71526  38.419  37.425  13.845
12431W        W71527  16.773  24.700   3.154
12432W        W71528  37.335  36.892  14.348
12433W        W71529   2.417  35.988   1.892
12434W        W71530  36.939  33.968   1.801
12435W        W71531  44.333  14.164  14.453
12436W        W71532   8.281  27.071  13.975
12437W        W71533  26.951  21.623   3.177
12438W        W71534  27.197  15.589  14.836
12439W        W71535  23.081   9.675  13.331
12440W        W71536  22.015   5.737   3.241
12441W        W71537  30.630  24.067   1.740
12442W        W71538  21.709   2.369  12.548
12443W        W71539  43.352  10.804  12.425
12444W        W71540  26.637  10.824   2.877
12445W        W71541  25.492  29.991  14.007
12446W        W71542   6.898  40.372  11.386
12447W        W71543  23.151   8.373  11.904
12448W        W71544  25.110  23.503   3.707
12449W        W71545  17.620  29.431  12.097
12450W        W71546   1.466  27.117  11.439
12451W        W71547  25.102   8.866   4.201
12452W        W71548  39.030  12.118   4.124
12453W        W71549  24.598  29.080   2.292
12454W        W71550  31.527   7.331   3.194
12455W        W71551  25.677  15.806   1.232
12456W        W71552  29.985  20.704   2.186
12457W        W71553   2.384   1.845   0.879
12458W        W71554  40.361  19.091  14.441
12459W        W71555   0.348  19.052  12.379
12460W        W71556  17.110  44.435  14.972
12461W        W71557  14.108  44.783   1.213
12462W        W71558  31.434  32.442   0.260
12463W        W71559   1.808  28.510  10.453
12464W        W71560  29.430  10.349  10.609
12465W        W71561   9.340  31.141  11.084
12466W        W71562  39.824  11.852   2.702
12467W        W71563  15.707  16.781   2.710
12468W        W71564   6.703  22.033   0.245
12469W        W71565  25.047  16.258   4.177
12470W        W71566  26.483  40.854   4.330
12471W        W71567  36.957  30.117   2.811
12472W        W71568   0.788  38.911   0.789
12473W        W71569   4.364  33.062   4.137
12474W        W71570  28.179  10.328   2.347
12475W        W71571  25.487  32.426   1.923
12476W        W71572  20.190  25.483  13.423
12477W        W71573  30.643  11.723   0.247
12478W        W71574   2.849   4.300  14.774
12479W        W71575  28.510  37.443   4.256
12480W        W71576   3.248  19.210  14.446
12481W        W71577  29.926  42.776   2.703
12482W        W71578  41.885  24.982   4.753
12483W        W71579  36.363  31.153  14.860
12484W        W71580  44.993  16.772   2.732
12485W        W71581  11.779  39.924   3.732
12486W        W71582  19.106   3.926   3.730
12487W        W71583  32.407  15.142   0.861
12488W        W71584   2.902  21.582  13.325
12489W        W71585  15.747   7.900  12.563
12490W        W71586   3.226  25.487   4.662
12491W        W71587  33.073  28.639   4.228
12492W        W71588   6.911  19.168   1.780
12493W        W71589  28.041  17.706  10.932
12494W        W71590   8.836  44.935  10.428
12495W        W71591  32.929  21.757  13.534
12496W        W71592  38.967  35.928   3.630
12497W        W71593  14.132  30.068  13.401
12498W        W71594  30.112  32.461  13.979
12499W        W71595  16.717  36.556  14.326
12500W        W71596  17.074  30.511  10.558
12501W        W71597  34.941  42.876  14.938
12502W        W71598  24.202  42.824   1.737
12503W        W71599   0.337  28.663   3.385
12504W        W71600  29.091  10.835   3.233
12505W        W71601  35.569   0.254  13.029
12506W        W71602   4.791  30.533  14.490
12507W        W71603  44.954  24.218  11.415
12508W        W71604  16.280  14.292  11.047
12509W        W71605  30.034  24.508   3.372
12510W        W71606  32.047  11.327  14.026
12511W        W71607  26.677   5.911   2.754
12512W        W71608   1.773  29.125   0.783
12513W        W71609   8.832  41.842   3.339
12514W        W71610  30.554  40.021   0.265
12515W        W71611   9.762  25.007  11.575
12516W        W71612  14.792  39.811  11.940
12517W        W71613  20.094  26.056   4.777
12518W        W71614  30.097  37.397  14.785
12519W        W71615  16.103  19.116  11.065
12520W        W71616   5.831  36.544  12.386
12521W        W71617  42.818   1.272   1.400
12522W        W71618   9.235  42.449   1.806
12523W        W71619  33.557  30.562  14.970
12524W        W71620  40.023   9.259  13.890
12525W        W71621  23.607  13.606   2.794
12526W        W71622  11.360  33.443   1.423
12527W        W71623  40.030  40.924   4.818
12528W        W71624  36.439  23.507   2.198
12529W        W71625   7.237  17.664   3.648
12530W        W71626   5.761  13.768  14.480
12531W        W71627  40.439  37.381   0.735
12532W        W71628  28.941  26.604   2.246
12533W        W71629  36.843  33.392   2.265
12534W        W71630   1.244   6.212   3.774
12535W        W71631  35.984  18.158   1.932
12536W        W71632   1.271  25.610  14.850
12537W        W71633   3.331  20.054  10.530
12538W        W71634  24.531  19.548  12.966
12539W        W71635  44.429  19.543   3.154
12540W        W71636  32.504   7.777   1.816
12541W        W71637  43.395  42.902   0.386
12542W        W71638  16.667  27.193   3.809
12543W        W71639   3.278  28.089   4.170
12544W        W71640  37.063   9.888  12.400
12545W        W71641  28.652  11.708   1.381
12546W        W71642  20.148  30.914  13.837
12547W        W71643  30.425  10.745  10.626
12548W        W71644  44.434  39.811  10.072
12549W        W71645   3.833  26.032   2.208
12550W        W71646  14.200  16.783   0.874
12551W        W71647  13.122  26.190   2.869
12552W        W71648  29.473   8.732   1.449
12553W        W71649   6.873  13.772  12.343
12554W        W71650  18.596  25.530  13.498
12555W        W71651  28.055  43.392   2.827
12556W        W71652   8.279  44.484  10.506
12557W        W71653   5.308  40.938   2.735
12558W        W71654  16.790  24.103  10.899
12559W        W71655   0.872  27.962   2.886
12560W        W71656   6.314  44.940   1.344
12561W        W71657  14.764  39.556  11.492
12562W        W71658  30.536   7.774  13.801
12563W        W71659  40.548  20.033  14.032
12564W        W71660  16.144  39.522   0.896
12565W        W71661  38.348   0.883   0.250
12566W        W71662   6.221  15.199  12.919
12567W        W71663  27.026   6.304  13.494
12568W        W71664   6.353  30.544   3.869
12569W        W71665  25.030  15.784  10.515
12570W        W71666  40.016  16.657   1.883
12571W        W71667  34.523  37.915   2.675
12572W        W71668  24.037  30.451   4.791
12573W        W71669   7.181   2.299   3.153
12574W        W71670   8.672  28.171  14.810
12575W        W71671  11.269  25.202  13.919
12576W        W71672  44.801  32.968  14.794
12577W        W71673  19.086  44.895  14.417
12578W        W71674  13.728   3.272   5.302
12579W        W71675  13.777  13.763  13.355
12580W        W71676   6.908  21.679   9.534
12581W        W71677  31.991  35.870   0.833
12582W        W71678  44.368  37.839   3.816
12583W        W71679  25.520  23.225  11.930
12584W        W71680  29.625  11.223   1.716
12585W        W71681  16.121  36.502  13.465
12586W        W71682  31.110  10.774  12.499
12587W        W71683  15.685   6.339   0.805
12588W        W71684   6.375  44.788  10.582
12589W        W71685  40.947  15.740   3.753
12590W        W71686   0.803  30.015  10.889
12591W        W71687   5.399  20.194  14.391
12592W        W71688  42.825  24.162  11.504
12593W        W71689  41.376  39.515   2.728
12594W        W71690  14.212  31.967  11.431
12595W        W71691   9.247  32.968  14.384
12596W        W71692   6.768  40.492  14.386
12597W        W71693  19.636  41.385   1.360
12598W        W71694   6.366  22.196   4.662
12599W        W71695  13.172   5.332  14.896
12600W        W71696   6.869  19.277  14.019
12601W        W71697   2.255  16.748   3.660
12602W        W71698   0.471  18.200   0.786
12603W        W71699  40.841  29.033  13.919
12604W        W71700  42.378  23.039   1.745
12605W        W71701  44.892  28.137   4.688
12606W        W71702  25.964  43.387  10.934
12607W        W71703  39.836  15.138   3.228
12608W        W71704  35.433  26.139  10.639
12609W        W71705  11.153  26.481  14.371
12610W        W71706  37.922  18.244   9.965
12611W        W71707   1.397  42.913  13.442
12612W        W71708  29.587  17.638   0.318
12613W        W71709  12.787  31.046   4.787
12614W        W71710   3.733  20.629  12.916
12615W        W71711  15.667  22.675   5.183
12616W        W71712  23.159  24.026   2.724
12617W        W71713  25.997  15.647  11.889
12618W        W71714  45.000   8.252  14.276
12619W        W71715  15.218  44.999   0.356
12620W        W71716  39.455   7.758  14.446
12621W        W71717  34.046   2.881   0.846
12622W        W71718  40.030  41.419   3.652
12623W        W71719  14.114  21.248  11.125
12624W        W71720   5.323  39.029   0.280
12625W        W71721   9.703  21.752   1.294
12626W        W71722  30.452  21.546  12.993
12627W        W71723   7.673   7.285  10.476
12628W        W71724  13.236   7.690  12.478
12629W        W71725  13.164   1.913  13.843
12630W        W71726  25.057  32.996   1.235
12631W        W71727  13.332  19.677  14.409
12632W        W71728  24.595  30.037   3.173
12633W        W71729   2.857  20.134  10.428
12634W        W71730   5.789  36.426  10.572
12635W        W71731  21.594  15.756  11.056
12636W        W71732  35.058  38.843  12.026
12637W        W71733  44.368   8.706  10.602
12638W        W71734  15.243  24.524  14.474
12639W        W71735  30.972  28.548   3.357
12640W        W71736  18.744  29.106  14.962
12641W        W71737  31.642  20.215  11.553
12642W        W71738  42.317   2.417   2.715
12643W        W71739   8.307  25.504  14.932
12644W        W71740  32.591   1.263   1.276
12645W        W71741  42.989   0.344  14.860
12646W        W71742  44.835  30.086  13.309
12647W        W71743   5.694  40.839  11.014
12648W        W71744  42.881  35.420  11.425
12649W        W71745   5.836  11.664  12.579
12650W        W71746  38.845  15.159  14.775
12651W        W71747   7.781  19.142  12.949
12652W        W71748  38.403  20.035   0.332
12653W        W71749  14.117  39.940  10.434
12654W        W71750  12.221  40.306   1.784
12655W        W71751  25.630  15.777   4.347
12656W        W71752  29.599   2.425  13.481
12657W        W71753  21.544   3.801  11.409
12658W        W71754   6.317   9.355  12.000
12659W        W71755  16.595  19.077  10.469
12660W        W71756  18.161  25.997  10.618
12661W        W71757   2.435   1.461   0.816
12662W        W71758  38.950  38.482   0.924
12663W        W71759  10.247   3.866   4.658
12664W        W71760  36.935  27.021   3.741
12665W        W71761  23.184  43.302   3.259
12666W        W71762  19.693  11.249   3.193
12667W        W71763  22.680   0.284  10.003
12668W        W71764  21.556  41.039   1.721
12669W        W71765  21.743  16.592  13.343
12670W        W71766  36.424  26.189  12.353
12671W        W71767  22.697  40.449   0.424
12672W        W71768  10.358   2.454   4.291
12673W        W71769  37.552   3.710   0.323
12674W        W71770  39.427  16.275   0.382
12675W        W71771  38.067  32.518   3.337
12676W        W71772   2.804  35.032  11.091
12677W        W71773  26.166  37.354   1.792
12678W        W71774  19.751  40.858   2.336
12679W        W71775  21.676  12.619  12.001
12680W        W71776  44.272  26.156   3.673
12681W        W71777   9.283   2.786   4.640
12682W        W71778   1.801  35.092  14.313
12683W        W71779  19.671   6.261  11.939
12684W        W71780   3.339  13.169  14.463
12685W        W71781   0.482  42.477   1.834
12686W        W71782  22.640  15.199   4.336
12687W        W71783  39.044   4.817   3.676
12688W        W71784  33.023  13.700   5.647
12689W        W71785   7.703  17.735   2.876
12690W        W71786  19.259   2.314  10.494
12691W        W71787  43.913  28.041   4.228
12692W        W71788   0.857   1.481   0.473
12693W        W71789  31.512  41.339   4.822
12694W        W71790  17.790  15.586   2.327
12695W        W71791  41.954  43.900   2.682
12696W        W71792  33.019  35.866   4.777
12697W        W71793  27.128  34.936   4.235
12698W        W71794   2.927  24.667  12.838
12699W        W71795  17.066  29.566   0.466
12700W        W71796  23.113  34.863  11.935
12701W        W71797  26.505  14.337  13.408
12702W        W71798  22.237  11.781   4.293
12703W        W71799  21.172   4.879   0.303
12704W        W71800   9.288  20.605   2.899
12705W        W71801   2.914  38.492  13.450
12706W        W71802  16.279  31.524  12.443
12707W        W71803   4.846  42.500   0.385
12708W        W71804   2.752  43.997   0.376
12709W        W71805  22.149  44.938   0.874
12710W        W71806   9.363  36.857   3.146
12711W        W71807  40.369   9.333  14.766
12712W        W71808   6.255   0.436   1.350
12713W        W71809  37.516  15.320   9.545
12714W        W71810  20.679  17.259  14.354
12715W        W71811   2.346  17.258   2.268
12716W        W71812  29.633   9.804   1.915
12717W        W71813  30.577  43.504  13.338
12718W        W71814  36.929   5.260   3.177
12719W        W71815   3.889  21.051   0.442
12720W        W71816  14.270  16.134  13.846
12721W        W71817  12.176   4.862  12.357
12722W        W71818   9.370  29.146  14.022
12723W        W71819  16.660  17.255  11.888
12724W        W71820  44.264  36.398  13.912
12725W        W71821  38.441  13.814  14.473
12726W        W71822  34.115  43.441   0.763
12727W        W71823  21.238  27.603  10.533
12728W        W71824  27.535  11.140   3.305
12729W        W71825  36.958  28.474   1.700
12730W        W71826  41.819   6.257   1.448
12731W        W71827  16.797   4.898   3.736
12732W        W71828  33.430  20.699  10.949
12733W        W71829  26.563  17.561   3.683
12734W        W71830  15.617  26.514  13.973
12735W        W71831  38.429  40.970   2.287
12736W        W71832   2.788   7.796  11.010
12737W        W71833  36.439  44.795   3.329
12738W        W71834  41.968  37.085  12.448
12739W        W71835  26.129  16.661   2.691
12740W        W71836  19.073  40.400  12.345
12741W        W71837  39.559  44.005   1.701
12742W        W71838  13.143   6.263  11.943
12743W        W71839  24.199  24.111   3.776
12744W        W71840  41.800  11.750   5.135
12745W        W71841  15.130  14.242  14.298
12746W        W71842  28.522   6.299  11.598
12747W        W71843   3.241  16.678   2.734
12748W        W71844  42.476  28.460   1.375
12749W        W71845  41.387  26.194   2.729
12750W        W71846  24.505  24.696  11.091
12751W        W71847   3.439  16.251  13.526
12752W        W71848  29.543   9.225   3.262
12753W        W71849   7.734  35.567   1.365
12754W        W71850   7.273  16.088  12.035
12755W        W71851  35.497  35.974  13.010
12756W        W71852  15.145  27.147  11.859
12757W        W71853  22.209  43.807   4.313
12758W        W71854   9.355  13.765   1.926
12759W        W71855  44.892  12.188   1.847
12760W        W71856   9.794  24.669   2.672
12761W        W71857   2.371  22.250   0.426
12762W        W71858  12.704  27.639   1.218
12763W        W71859   1.807   0.472  14.890
12764W        W71860   8.319  35.506   2.837
12765W        W71861  15.823  17.274   5.124
12766W        W71862  35.889  43.467   1.839
12767W        W71863  24.223  38.547  14.852
12768W        W71864  33.932   2.836  12.031
12769W        W71865   7.820  20.054   1.711
12770W        W71866   3.231  36.088  14.308
12771W        W71867   6.798  26.551   4.651
12772W        W71868  28.475  20.730   5.630
12773W        W71869  13.346  22.654   2.413
12774W        W71870  37.497  26.105   3.688
12775W        W71871  43.306  30.486  11.401
12776W        W71872  44.372   5.406   1.445
12777W        W71873  16.695  25.093  12.847
12778W        W71874  37.834  15.156   3.733
12779W        W71875   8.247  31.421  11.578
12780W        W71876   4.859  43.779  12.457
12781W        W71877  11.240  36.984  13.309
12782W        W71878  26.174   1.444  11.037
12783W        W71879  24.480   5.743   4.814
12784W        W71880  20.620  26.584  12.375
12785W        W71881   1.940   9.360  14.415
12786W        W71882  42.441  26.652   3.184
12787W        W71883   7.374  44.765  14.297
12788W        W71884  17.797  41.021   4.325
12789W        W71885   8.882  44.945   4.617
12790W        W71886  25.481  33.510   0.920
12791W        W71887  20.144  29.116   1.791
12792W        W71888  14.117  19.281  14.287
12793W        W71889  44.311  26.570  10.614
12794W        W71890  44.810  18.766   1.823
12795W        W71891  42.864   0.453   1.231
12796W        W71892  33.471  36.590   2.678
12797W        W71893  30.061  34.442   0.812
12798W        W71894   1.823  11.327   0.795
12799W        W71895  32.934  13.629  13.057
12800W        W71896   5.759   9.722   1.329
12801W        W71897   2.923  17.783  12.528
12802W        W71898  17.233  34.057   1.832
12803W        W71899   0.841  10.243   3.347
12804W        W71900   9.225  24.218  12.065
12805W        W71901  18.791  21.172  13.506
12806W        W71902   8.738   4.888  13.939
12807W        W71903  44.818  21.232  12.853
12808W        W71904  24.637   4.769   0.383
12809W        W71905  26.190  20.555   1.424
12810W        W71906  12.200  13.762  12.450
12811W        W71907  17.167  22.111   1.770
12812W        W71908   4.747  36.905   0.454
12813W        W71909  31.119  17.284  14.438
12814W        W71910  39.499  26.460  10.934
12815W        W71911   5.695   8.744   0.800
12816W        W71912  41.873  38.390   3.664
12817W        W71913  14.793   1.824  13.966
12818W        W71914  42.844  29.592  12.450
12819W        W71915  34.591  17.618  13.963
12820W        W71916  29.092  43.466  10.582
12821W        W71917   6.882  43.434  11.947
12822W        W71918  22.088  24.117   3.179
12823W        W71919  11.224  34.937  12.922
12824W        W71920  10.180   3.832  12.477
12825W        W71921   8.226  24.626   0.732
12826W        W71922   8.890  38.412  11.508
12827W        W71923   7.906  36.999   1.336
12828W        W71924   7.713   5.826  12.033
12829W        W71925  42.923  24.562  12.834
12830W        W71926  37.027   1.422   2.275
12831W        W71927   8.223   0.346   0.754
12832W        W71928  40.501  32.519   3.708
12833W        W71929  15.806  17.730  14.473
12834W        W71930  26.650  29.974   3.280
12835W        W71931   1.933   3.765  12.518
12836W        W71932  11.729  34.569   5.141
12837W        W71933  18.607  16.215   4.715
12838W        W71934  30.517  18.560  13.805
12839W        W71935  43.330   8.841  11.119
12840W        W71936  38.896  20.222  11.985
12841W        W71937  21.642  29.601  11.965
12842W        W71938  36.847  40.341  14.330
12843W        W71939  32.485  43.793   3.662
12844W        W71940  17.682  15.744   0.727
12845W        W71941  40.025  12.691   2.882
12846W        W71942  34.506  26.500  14.897
12847W        W71943  40.873  16.251  14.935
12848W        W71944  12.719  32.520  10.631
12849W        W71945  28.453  23.100  14.366
12850W        W71946  32.496  18.706   4.325
12851W        W71947  44.773   5.708  13.975
12852W        W71948  15.269  15.318   4.744
12853W        W71949  29.077   4.817   1.391
12854W        W71950   6.197   1.364   2.798
12855W        W71951  19.040  19.726   3.172
12856W        W71952  36.095  30.458   1.251
12857W        W71953  17.703   0.425  11.952
12858W        W71954  23.632  31.953   2.713
12859W        W71955  34.087  31.441  11.524
12860W        W71956  18.246   0.744   0.316
12861W        W71957  13.656  28.517   4.335
12862W        W71958  33.908   8.676  12.971
12863W        W71959  14.625  24.112  13.918
12864W        W71960  29.431  18.204   2.685
12865W        W71961   1.457  16.291  10.964
12866W        W71962  18.615  43.991  12.074
12867W        W71963  13.166  32.012  10.895
12868W        W71964  21.144  37.874   0.321
12869W        W71965  18.075  18.137  13.015
12870W        W71966  38.957  18.165   0.440
12871W        W71967  14.820   0.440  11.980
12872W        W71968  33.558   0.325  10.998
12873W        W71969  39.056  10.756   2.396
12874W        W71970   2.336   9.346  10.999
12875W        W71971   8.324   1.859  14.778
12876W        W71972   0.438  14.815  11.869
12877W        W71973  36.570   6.372  13.490
12878W        W71974  42.947  36.404   3.312
12879W        W71975  41.393  39.009  14.376
12880W        W71976  38.978  31.493  14.510
12881W        W71977  22.604   0.926   3.656
12882W        W71978  25.585  19.078  12.433
12883W        W71979  32.547   3.730   0.278
12884W        W71980  38.022  13.206  11.422
12885W        W71981  24.678   8.270   0.760
12886W        W71982  13.608   8.359   4.800
12887W        W71983   2.909  32.903   0.896
12888W        W71984  19.679  11.770  12.024
12889W        W71985  18.190  18.609  11.099
12890W        W71986   2.342  43.389   1.316
12891W        W71987  37.038  13.662  14.491
12892W        W71988  33.578  32.517   4.244
12893W        W71989  17.734  44.440  10.075
12894W        W71990  25.663  22.105   4.154
12895W        W71991   3.220  33.401   3.852
12896W        W71992  25.030  11.282   1.245
12897W        W71993  19.041  16.631   1.328
12898W        W71994  25.549   3.781   4.301
12899W        W71995  33.603  30.035  12.950
12900W        W71996   2.286  40.446  14.869
12901W        W71997  14.184  43.845   3.299
12902W        W71998  44.271  25.097   2.404
12903W        W71999  18.680   6.271  10.449
12904W        W72000  38.076  20.056   4.230
12905W        W72001  35.939   2.778   3.173
12906W        W72002   5.201  24.702   1.700
12907W        W72003   0.756  35.998  14.444
12908W        W72004   2.252  36.573  13.429
12909W        W72005  34.421  38.408   2.734
12910W        W72006   0.436  17.182   0.243
12911W        W72007  41.976  27.962  12.830
12912W        W72008  12.306  36.059   1.777
12913W        W72009  38.961  10.866  14.438
12914W        W72010  15.283   7.891   0.371
12915W        W72011  43.410  35.091  10.420
12916W        W72012  31.622  20.053   5.248
12917W        W72013  10.704  36.583  12.031
12918W        W72014  14.811  23.170  11.873
12919W        W72015  33.102  27.451  13.918
12920W        W72016   4.729   6.719   2.195
12921W        W72017   2.757  42.506  10.540
12922W        W72018  28.012   4.748  13.905
12923W        W72019  43.812   9.849  10.605
12924W        W72020  26.566  10.850   1.801
12925W        W72021  14.834   8.671  12.045
12926W        W72022  18.181  23.715  14.976
12927W        W72023  24.214  41.384   0.353
12928W        W72024  12.747  43.003  10.510
12929W        W72025  44.429  23.682  10.612
12930W        W72026  21.050  10.277  12.009
12931W        W72027  23.612  16.790  10.481
12932W        W72028  19.076  22.252  13.316
12933W        W72029  39.531  35.900   5.116
12934W        W72030  16.593  33.490  11.986
12935W        W72031  14.303  39.368   1.788
12936W        W72032  18.749  32.027   9.975
12937W        W72033  41.034   6.815  13.444
12938W        W72034   7.880  30.148   1.845
12939W        W72035   0.862   3.429   5.308
12940W        W72036  16.630  44.972  12.890
12941W        W72037  37.354  10.287   0.814
12942W        W72038  13.243   2.309  13.953
12943W        W72039  16.297  19.544  10.502
12944W        W72040  23.091  27.972   1.834
12945W        W72041  37.968  19.276  12.088
12946W        W72042  23.178  14.702   1.836
12947W        W72043  29.458  18.214  13.521
12948W        W72044  37.049  25.194   1.272
12949W        W72045  11.319  16.096   2.747
12950W        W72046  22.709  41.848  14.425
12951W        W72047  17.293  41.876  11.426
12952W        W72048  26.543  29.011   3.778
12953W        W72049  37.950   8.793  10.464
12954W        W72050  15.764  26.009  13.034
12955W        W72051  19.748  39.840  11.859
12956W        W72052  35.443  26.690   0.941
12957W        W72053  15.783  16.099   4.643
12958W        W72054  32.043   2.903   1.421
12959W        W72055  10.787   1.956   0.411
12960W        W72056  34.392  18.758   5.153
12961W        W72057  22.649  30.439  11.401
12962W        W72058  15.245  30.478  12.025
12963W        W72059  31.533  32.893  10.901
12964W        W72060  14.764   3.316  10.940
12965W        W72061  25.154  15.732  14.458
12966W        W72062  40.542  23.237  11.028
12967W        W72063  42.792  32.473   3.671
12968W        W72064  12.662  10.876   3.211
12969W        W72065  32.405  17.760   3.295
12970W        W72066  25.658  40.939  14.979
12971W        W72067  29.619  40.037   0.809
12972W        W72068   0.839  44.788  13.483
12973W        W72069  36.055  25.033  11.983
12974W        W72070  18.108  31.995   3.726
12975W        W72071   0.366  13.740   2.683
12976W        W72072  44.305  25.607  11.113
12977W        W72073   9.780  23.120   9.934
12978W        W72074  38.517  19.614  12.889
12979W        W72075  34.095  23.191   0.965
12980W        W72076   0.453  15.156  13.062
12981W        W72077  24.632  21.019  12.061
12982W        W72078  31.527   5.844   0.300
12983W        W72079  19.753  21.248   1.283
12984W        W72080   5.744   0.815   3.265
12985W        W72081   3.820  22.538  14.969
12986W        W72082   8.288  21.046   1.417
12987W        W72083   8.857  41.806  11.449
12988W        W72084  28.155  30.531   1.886
12989W        W72085  15.325  43.905   4.835
12990W        W72086   3.418  24.143  13.823
12991W        W72087  25.027   5.240  10.971
12992W        W72088  17.155   0.854  11.048
12993W        W72089  23.154  35.560  10.490
12994W        W72090   3.733  22.642   2.890
12995W        W72091  12.761  10.210   3.836
12996W        W72092  39.003  19.172   2.821
12997W        W72093  30.956   1.878  13.044
12998W        W72094   1.959   4.251  11.896
12999W        W72095   8.759  11.826   0.359
13000W        W72096   3.940  30.095  11.028
13001W        W72097  23.578  38.842   2.851
13002W        W72098   0.358  18.181   2.325
13003W        W72099   1.842   5.860   1.926
13004W        W72100  44.306  40.320   4.812
13005W        W72101  34.902  12.298  12.534
13006W        W72102  24.637  40.413   3.713
13007W        W72103  16.776  43.321   4.275
13008W        W72104  28.987  19.713   4.819
13009W        W72105  38.016  18.685  12.441
13010W        W72106  40.461  18.601   0.258
13011W        W72107  35.873  44.382  12.479
13012W        W72108  20.186   9.259   0.872
13013W        W72109  16.298  27.141  12.056
13014W        W72110  19.226   4.344  12.397
13015W        W72111  14.095  41.318   2.227
13016W        W72112  33.971   2.269  13.042
13017W        W72113  39.973  39.486   2.363
13018W        W72114  37.488  26.551   2.236
13019W        W72115  41.889   0.818   5.184
13020W        W72116  33.112  34.447   4.829
13021W        W72117   4.715  10.864  10.889
13022W        W72118  24.541  32.001  10.520
13023W        W72119  42.852  42.937   4.654
13024W        W72120  18.162  12.330   4.288
13025W        W72121  35.105  12.287   0.858
13026W        W72122  43.913  26.128  14.422
13027W        W72123  31.954   3.738   3.630
13028W        W72124  29.520   3.294   0.434
13029W        W72125  22.628  28.004   9.927
13030W        W72126  21.628  37.400  14.326
13031W        W72127   0.907  19.603  13.817
13032W        W72128  35.098  44.456  10.491
13033W        W72129  23.048   6.907   5.308
13034W        W72130  29.643  23.991  12.435
13035W        W72131  22.208  37.985   3.208
13036W        W72132   3.442  13.843  14.355
13037W        W72133  21.560  40.044  10.537
13038W        W72134  18.212   4.432   4.726
13039W        W72135   1.785  44.787   4.612
13040W        W72136  42.954  44.455   2.875
13041W        W72137  44.490  18.779  12.836
13042W        W72138   7.171  25.110   3.233
13043W        W72139   3.407  10.728  10.580
13044W        W72140   4.383  14.235  11.514
13045W        W72141  24.051   6.697   4.662
13046W        W72142  26.638  21.020   0.880
13047W        W72143  17.195   5.819  14.343
13048W        W72144  26.584  19.206   1.732
13049W        W72145   0.304  13.292   2.832
13050W        W72146  19.632  34.567   3.220
13051W        W72147  19.758  23.527   1.727
13052W        W72148  20.265  38.528   0.291
13053W        W72149  32.415   3.728  11.485
13054W        W72150   4.415  44.326  14.364
13055W        W72151  37.071   2.324  12.339
13056W        W72152  13.168  19.175  13.043
13057W        W72153  13.643   3.270   0.894
13058W        W72154  20.639   9.731  13.453
13059W        W72155  28.516  13.165  13.379
13060W        W72156  29.633  32.589   4.271
13061W        W72157  27.116  19.646  11.472
13062W        W72158  16.705  37.415   1.245
13063W        W72159   2.726  23.546   0.457
13064W        W72160  18.232   5.801  10.995
13065W        W72161  33.527  21.642   4.797
13066W        W72162  18.716  13.647  11.072
13067W        W72163  11.255  16.667  12.411
13068W        W72164  22.104   2.464   4.276
13069W        W72165  35.416   1.477  14.338
13070W        W72166  20.050  29.958   3.829
13071W        W72167  14.739  35.083  14.290
13072W        W72168  42.383  44.310  13.903
13073W        W72169   7.674  12.736  10.060
13074W        W72170   9.344  23.700   1.444
13075W        W72171   8.304  30.475  12.579
13076W        W72172  36.415   0.436  10.148
13077W        W72173   5.830  36.941   3.146
13078W        W72174  17.654  37.395  12.864
13079W        W72175  19.700  33.890  11.979
13080W        W72176   3.458  11.657  12.897
13081W        W72177  12.196  14.144  12.483
13082W        W72178   2.926  26.088  12.091
13083W        W72179   4.320  29.662  14.494
13084W        W72180   4.923  40.052  11.449
13085W        W72181   7.402  34.400  10.912
13086W        W72182  34.388  42.499   3.319
13087W        W72183  35.061  43.769   0.400
13088W        W72184  21.511  36.461   9.618
13089W        W72185  20.207   2.963  12.835
13090W        W72186  41.337  27.069  12.571
13091W        W72187  42.302  27.686  13.022
13092W        W72188  15.163  23.600  14.400
13093W        W72189  34.470  18.235   1.778
13094W        W72190  17.190  23.735  12.994
13095W        W72191   5.847  19.764   3.712
13096W        W72192  37.841  22.170  10.977
13097W        W72193   2.906  32.623  12.376
13098W        W72194  15.301   2.346   2.194
13099W        W72195  40.327  43.271  12.540
13100W        W72196  11.229   2.357   4.671
13101W        W72197  31.056  10.198  10.576
13102W        W72198  20.681  16.703   1.896
13103W        W72199  42.434  22.695  12.872
13104W        W72200  11.686  12.856  13.392
13105W        W72201  26.120   1.745  11.470
13106W        W72202  43.925  25.170  13.002
13107W        W72203  25.020  29.468  11.501
13108W        W72204  34.012  26.661   5.165
13109W        W72205  38.344  43.930   0.375
13110W        W72206  17.156  38.348   3.155
13111W        W72207  20.590  28.934   1.303
13112W        W72208  29.603  32.419   2.231
13113W        W72209  27.139   8.866  14.991
13114W        W72210  18.686  33.435  11.577
13115W        W72211   1.848   9.393   4.317
13116W        W72212  26.155  22.560  14.368
13117W        W72213   4.856   6.229   5.254
13118W        W72214  28.180  39.378   0.775
13119W        W72215  10.301   5.814   3.227
13120W        W72216  35.952   7.786   4.256
13121W        W72217  31.056  29.494  13.523
13122W        W72218  33.399   3.243  13.918
13123W        W72219  38.883  11.733  13.525
13124W        W72220   0.871  21.101   0.417
13125W        W72221  28.545  40.343  14.962
13126W        W72222  15.215  12.669  10.555
13127W        W72223  11.698   1.824   3.232
13128W        W72224  37.862  25.534  14.458
13129W        W72225   5.334  17.122   2.890
13130W        W72226  11.681  24.664  11.598
13131W        W72227  40.414  16.699  11.090
13132W        W72228  23.088  13.837   0.791
13133W        W72229  40.475  33.533  13.364
13134W        W72230  39.019  14.620   2.294
13135W        W72231  17.110  17.588  14.370
13136W        W72232  19.147  42.463  13.953
13137W        W72233  39.445  37.886   3.188
13138W        W72234  34.078  24.570   1.919
13139W        W72235  21.670  26.141   2.390
13140W        W72236  23.547   0.756  14.892
13141W        W72237  29.666  33.886   2.403
13142W        W72238   5.922  14.798  12.972
13143W        W72239   6.813  44.265   4.353
13144W        W72240  13.663  17.636   0.354
13145W        W72241   6.276  42.812  13.489
13146W        W72242  16.312   8.194  14.904
13147W        W72243   2.369  25.653   4.269
13148W        W72244  44.968   7.408   3.673
13149W        W72245   8.380  28.146  10.997
13150W        W72246  19.586   5.916  13.384
13151W        W72247  23.069  37.076   4.230
13152W        W72248  14.778  42.905   4.675
13153W        W72249  32.037  27.646   0.835
13154W        W72250   0.322  27.116   1.344
13155W        W72251  27.115  32.033   1.221
13156W        W72252  11.355  25.026  11.083
13157W        W72253   7.286  24.591   2.827
13158W        W72254  25.114  38.843   0.472
13159W        W72255  38.472  34.584   4.722
13160W        W72256  22.225  12.655  14.868
13161W        W72257  22.191   8.176   1.307
13162W        W72258  25.658  43.414  12.093
13163W        W72259  36.435  34.056  14.440
13164W        W72260   3.752  21.528  13.344
13165W        W72261  25.590  28.037  11.078
13166W        W72262  19.176  35.529   4.703
13167W        W72263  41.315  36.958   4.597
13168W        W72264   7.791  24.709   2.262
13169W        W72265  40.824  36.473   1.422
13170W        W72266  20.640  40.472   3.746
13171W        W72267  25.604  34.572   3.679
13172W        W72268  32.528  10.655   4.156
13173W        W72269   5.438  42.330   4.317
13174W        W72270  27.007   4.253  10.628
13175W        W72271  41.444  23.060  11.094
13176W        W72272  34.374  41.409   4.188
13177W        W72273  24.128  42.919  10.633
13178W        W72274  14.790  40.997   4.741
13179W        W72275   6.743  25.497   1.813
13180W        W72276  12.161  28.591  13.820
13181W        W72277  23.681   6.848   2.888
13182W        W72278   6.372  28.567   4.645
13183W        W72279  31.493  18.256  12.891
13184W        W72280  34.566   0.340   2.803
13185W        W72281  23.519  43.939   2.710
13186W        W72282   7.332   1.927  10.581
13187W        W72283  30.035  17.569  13.539
13188W        W72284  32.494  27.673   4.125
13189W        W72285  35.063   2.280   3.662
13190W        W72286  33.494  27.000   2.216
13191W        W72287   5.316  11.723   2.351
13192W        W72288  43.983   6.826   0.883
13193W        W72289  32.954  39.560   2.259
13194W        W72290   7.824   6.377  12.533
13195W        W72291  21.067  34.864   0.347
13196W        W72292  22.022  20.048  11.067
13197W        W72293  17.667  22.554   1.905
13198W        W72294  35.956  35.421   3.234
13199W        W72295  35.062  28.528   2.310
13200W        W72296   5.784  38.406  11.101
13201W        W72297  40.006  26.038  11.081
13202W        W72298  24.645  18.648  14.349
13203W        W72299  33.904  39.428   4.125
13204W        W72300  28.525  41.353  10.929
13205W        W72301  44.008  37.065   3.295
13206W        W72302  44.388   5.809  13.962
13207W        W72303  18.156  22.686  13.025
13208W        W72304   2.428  19.744  10.422
13209W        W72305  32.966  20.762   4.695
13210W        W72306  29.062   2.858  12.382
13211W        W72307  32.620  40.892  11.883
13212W        W72308  33.607  41.984  13.980
13213W        W72309  41.517  17.629  13.367
13214W        W72310  34.935  21.606  11.606
13215W        W72311  33.608   2.789  13.937
13216W        W72312  10.270   1.874  14.921
13217W        W72313  34.987  39.549   4.343
13218W        W72314  16.610   2.860   2.286
13219W        W72315  43.366  19.281   0.314
13220W        W72316   3.856  15.799   3.257
13221W        W72317  40.480  35.954  14.892
13222W        W72318  38.030  43.383  12.917
13223W        W72319  13.207  43.994   2.884
13224W        W72320  15.127   7.732  11.605
13225W        W72321  16.134  27.566  10.585
13226W        W72322  21.103  26.481  13.885
13227W        W72323  13.135  18.790   1.809
13228W        W72324   0.369  24.191   3.258
13229W        W72325   0.365   3.320  11.115
13230W        W72326  32.138  35.895  10.513
13231W        W72327  24.114  16.620  10.987
13232W        W72328  41.426  12.795   4.679
13233W        W72329  18.260  23.013  13.450
13234W        W72330  19.699   5.726  12.901
13235W        W72331  19.551  26.678   1.713
13236W        W72332  37.040  36.473  12.043
13237W        W72333   9.774  34.373  11.580
13238W        W72334  33.594   7.714  11.559
13239W        W72335  27.146  32.990  12.493
13240W        W72336  11.324  43.513   1.831
13241W        W72337   4.331  11.195  13.544
13242W        W72338   8.187  12.333   2.887
13243W        W72339   6.337  12.231   0.379
13244W        W72340  33.596  27.164   4.335
13245W        W72341  17.232  42.778   2.259
13246W        W72342  28.606  29.134  12.055
13247W        W72343  32.631  15.663  12.953
13248W        W72344  20.188  20.660   2.384
13249W        W72345   4.858   8.392   4.726
13250W        W72346   6.810   6.184   1.432
13251W        W72347   0.945  37.070  13.395
13252W        W72348  31.539   7.172  12.985
13253W        W72349  23.222  21.049   3.230
13254W        W72350  32.004  21.253  11.956
13255W        W72351   6.915  21.133  12.408
13256W        W72352  41.815   2.325   4.137
13257W        W72353  22.601  34.947   4.779
13258W        W72354   0.442  39.824   3.731
13259W        W72355   5.729   4.938   3.668
13260W        W72356  29.634  36.500   1.814
13261W        W72357  42.350  21.697   1.234
13262W        W72358   1.450  22.579   0.784
13263W        W72359  26.030  33.466  11.901
13264W        W72360  16.220  22.531   4.334
13265W        W72361  17.658  26.032   2.391
13266W        W72362   9.712  28.493   4.801
13267W        W72363  27.946   0.855   0.797
13268W        W72364   5.900  27.117   1.722
13269W        W72365  30.923  22.066  11.995
13270W        W72366  39.064  21.075  11.396
13271W        W72367  26.637  20.651  10.070
13272W        W72368  40.981  14.639  10.508
13273W        W72369  38.568  42.962   2.186
13274W        W72370   3.822   7.318   4.202
13275W        W72371  12.138  43.842  12.574
13276W        W72372  29.447  14.156   4.246
13277W        W72373  42.952   5.816   9.999
13278W        W72374  44.486  21.592  11.101
13279W        W72375   6.712  15.305   1.318
13280W        W72376  39.871  10.165  14.875
13281W        W72377  13.183  32.083   3.256
13282W        W72378  28.940  27.581  13.537
13283W        W72379  35.478  37.921  14.779
13284W        W72380   8.249  29.978  13.441
13285W        W72381  39.818   3.888  10.435
13286W        W72382  27.077  31.918  12.520
13287W        W72383  22.192  22.159  11.534
13288W        W72384  42.927  11.638   3.813
13289W        W72385  17.185  40.823  11.526
13290W        W72386  16.170  15.160   3.308
13291W        W72387   5.913  30.053  10.974
13292W        W72388  10.694  31.518   3.151
13293W        W72389  43.279  43.831   1.323
13294W        W72390   0.882   6.342   1.719
13295W        W72391  20.611  12.189   0.434
13296W        W72392   7.849  26.127  12.870
13297W        W72393  14.676  23.599  14.852
13298W        W72394  17.197  40.510   4.181
13299W        W72395  22.588  12.236  12.928
13300W        W72396  14.826   1.917   3.186
13301W        W72397   1.314  10.785   4.655
13302W        W72398  21.631  35.522   0.780
13303W        W72399   0.785  28.672   4.206
13304W        W72400  22.212  15.645  13.886
13305W        W72401  11.858  39.449  11.906
13306W        W72402   9.880  21.058   5.243
13307W        W72403  32.953  10.371  12.950
13308W        W72404  23.549  23.166   0.384
13309W        W72405  34.100  41.491  13.807
13310W        W72406  30.089  20.261   0.379
13311W        W72407  38.340  42.508   3.701
13312W        W72408  35.469   8.354   3.193
13313W        W72409   4.353  17.197  13.003
13314W        W72410   8.306  39.054   2.763
13315W        W72411  19.708  24.681  11.547
13316W        W72412  18.210  18.091   3.180
13317W        W72413   0.458  21.060   3.792
13318W        W72414   4.896  22.221   2.758
13319W        W72415  15.604  28.064  10.518
13320W        W72416  25.178  21.616  13.044
13321W        W72417  43.994   9.886   4.165
13322W        W72418   0.380   0.908   4.683
13323W        W72419  11.178   0.396   4.808
13324W        W72420  15.304  24.143  11.118
13325W        W72421  12.756  44.954   1.366
13326W        W72422   8.726   2.418   1.761
13327W        W72423  17.739  36.022   3.740
13328W        W72424  20.535   1.750  14.791
13329W        W72425  30.551  16.078   3.303
13330W        W72426  40.022   8.160   4.329
13331W        W72427  14.726   9.650   3.214
13332W        W72428  10.265   0.775  14.767
13333W        W72429   9.664  42.776   2.343
13334W        W72430  40.952  43.803   1.387
13335W        W72431  29.627  32.040   9.984
13336W        W72432  33.071  23.638   1.229
13337W        W72433   2.873  20.163   0.322
13338W        W72434  20.645  18.672   1.365
13339W        W72435  11.369  37.399  14.808
13340W        W72436  24.977  44.429  12.580
13341W        W72437  29.092   9.189   1.357
13342W        W72438  25.623  29.972   3.779
13343W        W72439  21.248  20.179   0.857
13344W        W72440  27.120  29.562  12.021
13345W        W72441  13.775  20.729   2.399
13346W        W72442  22.688  11.271   2.726
13347W        W72443   7.182  21.250  10.066
13348W        W72444  10.715  28.473  13.897
13349W        W72445  11.623   2.254  13.524
13350W        W72446  19.208  27.477   4.827
13351W        W72447  35.501   2.306   3.209
13352W        W72448   0.774   1.279  11.389
13353W        W72449  39.372  20.593   0.868
13354W        W72450  32.080   9.161   0.948
13355W        W72451  10.254   8.272  12.944
13356W        W72452  12.738  28.174   9.587
13357W        W72453   6.797  35.995   2.687
13358W        W72454   4.296  31.142  11.971
13359W        W72455  28.120  16.764  11.087
13360W        W72456  35.485  19.143   3.837
13361W        W72457  21.568  31.942  12.550
13362W        W72458  32.074   2.860   3.829
13363W        W72459   3.776  11.679  14.784
13364W        W72460   7.415  42.872  14.357
13365W        W72461   1.972  43.825   3.811
13366W        W72462  21.183  32.920  14.379
13367W        W72463  25.507  27.588  10.994
13368W        W72464   9.881   1.836   1.408
13369W        W72465   4.358  31.052   2.778
13370W        W72466  21.128  38.070   1.801
13371W        W72467  25.030   4.771   4.838
13372W        W72468  28.551  42.888   2.869
13373W        W72469  15.773  12.290  10.407
13374W        W72470  28.067  28.589  12.861
13375W        W72471  32.937  23.081   3.811
13376W        W72472  26.973  10.304   2.395
13377W        W72473   5.320  13.706  12.833
13378W        W72474  43.787   8.681  11.060
13379W        W72475  16.714  20.611  14.357
13380W        W72476  40.036  28.645   1.723
13381W        W72477   5.868   0.840   1.312
13382W        W72478   7.831  15.670  11.540
13383W        W72479  33.970   5.217   0.307
13384W        W72480   8.213   2.409   1.238
13385W        W72481  42.873  24.706   3.211
13386W        W72482   5.206   8.383  12.892
13387W        W72483  43.867  42.875   0.377
13388W        W72484  21.605  35.416   1.373
13389W        W72485  13.625  25.149   0.320
13390W        W72486  33.886  41.852  12.855
13391W        W72487  30.073  23.511  11.469
13392W        W72488  28.143  43.422   0.904
13393W        W72489  25.142  41.819   2.419
13394W        W72490  31.516   7.787   1.802
13395W        W72491  20.112  42.380  10.488
13396W        W72492  20.136  12.208   1.798
13397W        W72493  42.790  40.945  13.856
13398W        W72494  15.790  20.057  10.588
13399W        W72495  11.226  10.810  13.812
13400W        W72496  13.268  25.081   1.705
13401W        W72497  20.244  20.147  12.014
13402W        W72498  26.678   9.780  12.060
13403W        W72499  20.703  30.549   0.370
13404W        W72500   9.339   8.893  10.549
13405W        W72501  23.706   9.708   9.566
13406W        W72502   5.778  24.611  14.407
13407W        W72503   1.932  10.653   0.756
13408W        W72504  13.701  15.716  10.161
13409W        W72505  16.726  21.111  14.994
13410W        W72506  28.628  28.019   0.793
13411W        W72507  27.650  43.896  12.060
13412W        W72508  17.732  28.031  12.866
13413W        W72509  11.217  31.641  12.435
13414W        W72510  37.502  34.093   0.787
13415W        W72511  12.770   7.740   4.688
13416W        W72512  26.458  33.079   4.217
13417W        W72513  21.570  32.108  10.968
13418W        W72514   3.222  33.917   3.774
13419W        W72515   9.881  37.955   2.241
13420W        W72516  23.686  15.779  13.333
13421W        W72517  33.069   6.700   2.830
13422W        W72518  33.881  43.341   1.293
13423W        W72519  32.990  27.084  12.359
13424W        W72520  29.953  21.050   0.934
13425W        W72521  21.729   0.894   3.342
13426W        W72522  18.055   6.723  10.088
13427W        W72523  10.804   1.858  14.464
13428W        W72524  41.973  26.178  12.090
13429W        W72525  43.431  30.980   3.782
13430W        W72526  26.472  43.867  11.473
13431W        W72527  35.363   7.231  12.435
13432W        W72528  10.789  23.187   1.872
13433W        W72529  23.628  16.710  14.947
13434W        W72530  37.905  41.876  10.454
13435W        W72531  15.110  19.704  14.876
13436W        W72532  43.960  22.601  10.454
13437W        W72533   9.177  23.043   1.427
13438W        W72534  27.972  42.456   4.307
13439W        W72535  26.565  27.666   1.276
13440W        W72536  10.715  12.799  13.940
13441W        W72537   8.379  37.505   3.644
13442W        W72538  26.978  37.360   0.349
13443W        W72539  43.398  42.293   0.410
13444W        W72540  41.341  35.995   4.156
13445W        W72541   7.369  26.664   4.601
13446W        W72542  39.859  23.514  11.001
13447W        W72543  16.191  42.300   1.410
13448W        W72544  23.073  15.784   0.469
13449W        W72545  27.061  21.634   2.756
13450W        W72546  38.534  18.617   0.761
13451W        W72547  40.984   0.941  11.964
13452W        W72548   5.834   8.758  14.344
13453W        W72549  24.097  37.562   2.878
13454W        W72550  28.971   3.266   3.295
13455W        W72551  30.110  22.648   4.301
13456W        W72552  20.652  39.437  12.844
13457W        W72553  18.771   8.364   3.838
13458W        W72554  13.808  29.953  12.074
13459W        W72555   7.678  29.451  10.588
13460W        W72556  37.381  20.645   0.885
13461W        W72557  14.773   2.379   3.761
13462W        W72558  15.709  27.084   2.797
13463W        W72559  35.898  22.141  13.548
13464W        W72560  22.635  29.048  11.892
13465W        W72561  42.822  38.957  12.960
13466W        W72562  22.222  35.397  13.354
13467W        W72563  39.870  15.093  12.347
13468W        W72564  27.499  16.279   2.311
13469W        W72565   8.815  38.374  11.080
13470W        W72566  38.561  44.311   9.932
13471W        W72567  42.370  41.830  10.988
13472W        W72568  20.160  31.073  13.449
13473W        W72569  15.595   6.416  11.612
13474W        W72570  20.274  29.670  14.944
13475W        W72571  32.417  31.994   2.407
13476W        W72572  36.924  34.062   2.811
13477W        W72573  12.308   0.873   0.265
13478W        W72574   6.312   8.796  14.327
13479W        W72575  12.698   7.750   2.335
13480W        W72576   7.193  27.649   9.650
13481W        W72577  33.941   7.191  14.310
13482W        W72578  31.011  37.971   4.165
13483W        W72579  14.145  28.512  12.062
13484W        W72580  16.089   7.257  13.820
13485W        W72581  43.341  27.095  11.098
13486W        W72582   5.328  16.772  11.416
13487W        W72583  19.576  13.603   3.208
13488W        W72584  15.128  30.498   9.964
13489W        W72585   3.264  26.612   0.311
13490W        W72586  38.062  27.008   1.727
13491W        W72587  12.313  25.657  12.895
13492W        W72588  41.959  29.519  13.433
13493W        W72589   8.253   9.651   4.689
13494W        W72590  25.710  29.122   2.337
13495W        W72591  37.508  25.473  13.849
13496W        W72592  32.480   2.812  13.311
13497W        W72593  27.099  20.642   5.184
13498W        W72594  25.550   3.382  11.515
13499W        W72595  29.468  16.162   2.763
13500W        W72596  37.501  39.372   0.746
13501W        W72597  28.536  39.847   3.821
13502W        W72598   8.751  21.555  13.830
13503W        W72599  10.264  26.149   4.302
13504W        W72600  26.603  31.900   4.730
13505W        W72601  12.834   5.253   0.826
13506W        W72602  27.999  36.436  12.072
13507W        W72603   4.347   7.734  11.096
13508W        W72604  38.949  44.345  11.991
13509W        W72605  31.094   5.295   4.300
13510W        W72606  29.652  35.876   3.727
13511W        W72607  20.594  28.531  11.089
13512W        W72608   2.753   0.958   4.713
13513W        W72609  41.335   2.349   5.135
13514W        W72610  24.226   8.257   4.713
13515W        W72611  11.774  10.698   4.667
13516W        W72612   2.953  40.523  11.973
13517W        W72613  34.022   8.775  13.511
13518W        W72614   3.917  43.894   1.913
13519W        W72615  23.107  23.203   1.905
13520W        W72616   3.382  11.685   4.216
13521W        W72617  11.832  28.672  14.818
13522W        W72618   4.898  19.174   0.746
13523W        W72619   7.775  35.921   1.305
13524W        W72620   4.205   9.705   0.437
13525W        W72621   7.175  32.914  13.382
13526W        W72622  22.221  44.430   0.414
13527W        W72623  42.395  36.454  13.518
13528W        W72624  31.583  42.383   0.768
13529W        W72625  24.566  26.473   3.735
13530W        W72626   8.723  32.517   3.780
13531W        W72627  38.926  32.966  13.809
13532W        W72628  38.530  42.391   2.779
13533W        W72629  21.178  19.126   3.649
13534W        W72630   9.645  36.993  11.406
13535W        W72631  32.603   3.301  14.470
13536W        W72632   0.357  42.291   3.855
13537W        W72633   8.230  36.883   0.413
13538W        W72634   6.917  29.509  10.120
13539W        W72635  42.321   6.920  12.956
13540W        W72636   7.417   6.696   4.611
13541W        W72637  40.846  35.041   0.761
13542W        W72638  23.146  10.286   5.287
13543W        W72639  44.901  11.654  14.991
13544W        W72640  15.286   5.919  14.852
13545W        W72641  37.417  35.397  12.846
13546W        W72642   9.194  15.724   9.627
13547W        W72643  28.475  21.061   3.789
13548W        W72644  35.488  20.049   0.380
13549W        W72645  23.557  41.524  12.510
13550W        W72646  32.119   2.880   4.632
13551W        W72647  14.301  16.639  11.376
13552W        W72648  39.938  34.377   4.163
13553W        W72649  16.129  30.620  14.874
13554W        W72650   7.360   5.318  11.092
13555W        W72651  30.138   6.692   3.282
13556W        W72652  15.817  43.443   0.887
13557W        W72653  30.449  29.096  11.433
13558W        W72654  31.961  44.445  10.916
13559W        W72655  38.381  27.495   1.719
13560W        W72656  12.250   6.371   4.647
13561W        W72657  17.757   1.755   1.409
13562W        W72658   5.785  10.725  10.469
13563W        W72659   4.727  26.121   0.269
13564W        W72660   8.770  42.448   2.879
13565W        W72661   3.396   5.882  14.502
13566W        W72662  14.661  23.702  10.522
13567W        W72663  22.218  32.581  11.389
13568W        W72664  21.522  13.228   4.640
13569W        W72665  24.063  40.955  11.934
13570W        W72666  38.346   9.846  13.871
13571W        W72667   8.323  40.452  13.837
13572W        W72668  24.693  38.063  10.433
13573W        W72669   8.166  23.091  14.818
13574W        W72670  15.329  38.420   0.919
13575W        W72671  24.501  42.948   0.752
13576W        W72672  36.074  13.611  13.830
13577W        W72673  27.032   7.902   4.790
13578W        W72674   8.893   6.731  11.598
13579W        W72675  20.558  25.066   4.221
13580W        W72676  29.557   1.790  11.938
13581W        W72677  43.390  32.485  13.878
13582W        W72678  17.632  22.047  12.014
13583W        W72679   4.241  17.164   2.666
13584W        W72680  22.113   0.326  10.481
13585W        W72681  37.465  36.942   4.654
13586W        W72682  11.233  12.795   0.251
13587W        W72683   6.187   6.892   2.785
13588W        W72684  15.161  36.950  13.451
13589W        W72685  24.212  36.012  13.004
13590W        W72686   5.796  35.922   0.315
13591W        W72687   1.444  11.136   0.814
13592W        W72688  32.937  34.059  11.121
13593W        W72689  42.997  10.217   1.414
13594W        W72690  18.065  41.383   0.782
13595W        W72691  23.190  26.618   2.789
13596W        W72692  39.993  37.522  11.857
13597W        W72693   5.403  31.439   1.432
13598W        W72694  39.401   3.455  12.555
13599W        W72695  42.482  16.708  12.401
13600W        W72696  37.537  24.611  13.846
13601W        W72697  14.783  43.478   4.755
13602W        W72698   4.229  39.923  12.418
13603W        W72699  33.408  42.980   2.275
13604W        W72700  33.499  11.691   3.268
13605W        W72701  35.476  11.816   2.319
13606W        W72702   2.437  17.631   0.320
13607W        W72703  36.936  28.974   1.818
13608W        W72704  16.769  36.070   2.744
13609W        W72705  34.988  34.991  13.342
13610W        W72706   4.769  20.245  10.614
13611W        W72707  12.654  27.505  14.463
13612W        W72708  21.254  15.762   1.785
13613W        W72709  22.624  30.093   2.281
13614W        W72710  35.411  28.609  11.394
13615W        W72711   6.378  29.119   0.960
13616W        W72712   7.271  42.411  14.766
13617W        W72713   4.906  21.512  12.505
13618W        W72714  37.021  39.986  10.544
13619W        W72715  13.337  13.158  14.455
13620W        W72716  23.576  42.999   4.634
13621W        W72717  19.112  36.076   2.787
13622W        W72718  11.277  35.875   0.395
13623W        W72719   2.310  32.935  13.413
13624W        W72720   0.829  37.425   2.392
13625W        W72721   4.842  34.056   2.806
13626W        W72722  44.440   0.753  12.057
13627W        W72723   6.191  40.013  14.507
13628W        W72724  19.207  40.485   1.275
13629W        W72725  38.339  26.984  11.083
13630W        W72726  13.304  26.034  13.496
13631W        W72727   8.853   3.911  12.513
13632W        W72728  35.594  34.081  12.456
13633W        W72729  18.230  37.836  13.064
13634W        W72730  17.726   6.692   3.810
13635W        W72731   9.184  31.545  10.034
13636W        W72732  20.161  17.252  13.486
13637W        W72733  15.624   4.333  13.400
13638W        W72734  10.187   4.277   4.725
13639W        W72735  27.134  40.926  12.081
13640W        W72736  25.666  31.954  13.858
13641W        W72737  19.097  16.756  13.987
13642W        W72738  26.459   5.761   4.199
13643W        W72739  38.896  21.025  13.408
13644W        W72740  14.150  18.703  12.568
13645W        W72741  23.616  21.573  13.366
13646W        W72742  41.836  43.829  12.471
13647W        W72743  37.899   0.865   3.675
13648W        W72744  27.183   6.340   3.355
13649W        W72745  33.074  24.195   3.236
13650W        W72746  26.099   0.323   2.313
13651W        W72747   8.694  39.910  13.966
13652W        W72748  17.135   5.828  14.993
13653W        W72749  33.569  38.823  14.955
13654W        W72750  17.685  35.553   5.229
13655W        W72751  21.161  15.261  13.424
13656W        W72752  18.560  26.954  11.455
13657W        W72753  22.040   1.448   3.858
13658W        W72754  32.989   9.798  13.852
13659W        W72755  37.043  16.632   2.766
13660W        W72756   4.373  13.344  10.614
13661W        W72757   3.756   2.956   2.670
13662W        W72758  38.502  20.152  13.041
13663W        W72759   9.743  12.735  13.946
13664W        W72760  26.557  28.603   2.699
13665W        W72761  23.227  43.499   2.781
13666W        W72762   8.834  15.277   2.191
13667W        W72763  13.195   5.835   2.856
13668W        W72764  27.461   6.774   3.649
13669W        W72765  22.021  42.404   0.350
13670W        W72766  30.949  30.497  10.521
13671W        W72767  32.498  23.037   2.839
13672W        W72768   3.857  12.800  10.586
13673W        W72769  27.178  31.440   0.409
13674W        W72770  36.926   7.800  12.379
13675W        W72771  10.345  24.699  14.906
13676W        W72772  40.964  39.330   2.776
13677W        W72773  38.875   8.375  13.527
13678W        W72774  20.223  15.289   4.263
13679W        W72775   8.367  33.528   0.467
13680W        W72776   4.205  16.781   2.837
13681W        W72777   4.353  28.133  11.995
13682W        W72778   5.883   4.752   3.173
13683W        W72779  16.684  39.007  14.361
13684W        W72780  15.269  27.603   3.775
13685W        W72781   2.458  11.292   0.762
13686W        W72782  38.435  43.851   1.425
13687W        W72783  37.405  37.985   0.268
13688W        W72784  20.236  16.640   4.115
13689W        W72785  38.045  32.092   1.910
13690W        W72786  34.610  32.517  14.444
13691W        W72787   9.879  22.095  12.940
13692W        W72788  44.434   4.727   5.286
13693W        W72789  43.960  31.957  11.480
13694W        W72790  23.158  15.187  11.895
13695W        W72791   6.707   4.388  12.018
13696W        W72792  15.819  40.368   2.187
13697W        W72793  40.876  10.734   3.245
13698W        W72794  24.715   0.826  12.471
13699W        W72795  20.723  30.918  14.852
13700W        W72796   4.401  37.854  11.418
13701W        W72797   3.914  10.366   3.193
13702W        W72798  14.227  33.068   3.778
13703W        W72799  36.070   2.842  12.964
13704W        W72800  26.487  36.920  11.411
13705W        W72801  38.426  38.478  13.800
13706W        W72802  34.010   5.433   1.753
13707W        W72803  16.754  21.031   1.719
13708W        W72804  17.699  16.303  14.856
13709W        W72805  10.716   1.465   2.233
13710W        W72806  23.605  41.977   4.643
13711W        W72807   4.789  10.706   3.233
13712W        W72808  37.436  11.660   0.419
13713W        W72809  39.498  28.672  12.003
13714W        W72810  32.507   7.322  12.969
13715W        W72811  34.111   8.283   3.703
13716W        W72812  20.243  24.505   2.334
13717W        W72813  19.219   2.343  11.865
13718W        W72814   9.806  30.133  11.859
13719W        W72815   1.332  24.544  12.945
13720W        W72816   8.196  10.790  12.522
13721W        W72817  18.224  22.632  13.454
13722W        W72818  36.954  32.611   3.360
13723W        W72819  32.129  13.739   2.835
13724W        W72820   3.350  10.676   2.723
13725W        W72821   2.888  36.847   0.296
13726W        W72822  28.453  13.312   1.257
13727W        W72823  35.385   1.823  11.003
13728W        W72824  30.422  29.918   1.370
13729W        W72825  39.892  37.487  13.051
13730W        W72826  43.931  21.622  11.960
13731W        W72827  18.074  11.780  13.429
13732W        W72828  31.899  43.871   4.193
13733W        W72829  14.831  10.295  11.888
13734W        W72830  24.596  21.711   3.826
13735W        W72831   7.674  28.023   2.346
13736W        W72832  42.818  20.259  11.954
13737W        W72833  10.277  22.188   3.793
13738W        W72834  35.959  22.245   2.291
13739W        W72835  21.252  15.692   1.330
13740W        W72836   2.825  41.387   0.484
13741W        W72837   7.687   4.725   4.272
13742W        W72838  35.448   9.678  12.875
13743W        W72839  25.144   7.816   1.372
13744W        W72840  17.599  14.300  13.928
13745W        W72841  41.357   2.882   2.262
13746W        W72842  18.545   1.782  10.616
13747W        W72843   4.912  30.647  14.893
13748W        W72844  18.192  20.664  12.088
13749W        W72845  28.102   2.439   3.176
13750W        W72846  20.029  18.189   1.822
13751W        W72847  23.607  30.473   4.805
13752W        W72848  32.394   2.794   0.316
13753W        W72849  27.653  11.788  14.386
13754W        W72850   3.907  22.541  13.048
13755W        W72851  33.926  18.289   9.661
13756W        W72852  10.363   1.381   4.698
13757W        W72853  14.625   4.237  13.545
13758W        W72854  40.344  18.228   4.716
13759W        W72855  15.762  33.604   4.747
13760W        W72856  35.366  19.155  12.353
13761W        W72857   6.196  16.302   1.307
13762W        W72858  30.537  20.725  13.949
13763W        W72859   6.306  18.125   4.798
13764W        W72860   1.368  22.502   3.696
13765W        W72861  14.805  41.321   3.232
13766W        W72862   7.764  30.443   1.213
13767W        W72863  13.305   5.332   4.758
13768W        W72864  19.717  39.935   3.192
13769W        W72865  34.940  36.938   2.250
13770W        W72866  42.958  39.428   3.798
13771W        W72867  36.353   7.231  13.027
13772W        W72868  20.062  43.410  11.942
13773W        W72869  12.339  39.017   2.796
13774W        W72870  11.699  31.051   4.314
13775W        W72871   1.245  34.043  12.519
13776W        W72872  34.476   7.371   4.239
13777W        W72873  44.919  42.474  14.782
13778W        W72874  42.937  27.167   0.263
13779W        W72875  20.036  33.582   0.419
13780W        W72876  38.959  26.147   4.761
13781W        W72877  40.408  14.601   1.742
13782W        W72878  16.591  13.644   0.840
13783W        W72879   0.347  32.528   0.860
13784W        W72880  16.311  15.095   1.253
13785W        W72881  19.271  18.627   0.340
13786W        W72882   0.875  24.059  14.495
13787W        W72883  17.182  24.655   1.221
13788W        W72884  30.995  39.898  10.418
13789W        W72885  40.878  18.716  13.022
13790W        W72886  37.570  16.749   2.281
13791W        W72887  12.843   9.838  11.414
13792W        W72888  38.509  34.884  12.002
13793W        W72889  17.244  41.786  14.295
13794W        W72890  40.852  22.581  11.924
13795W        W72891  37.932   4.425   2.852
13796W        W72892  24.484   8.291   5.203
13797W        W72893  35.975  33.429   4.141
13798W        W72894  30.028  12.268   1.882
13799W        W72895  29.667   0.969  11.871
13800W        W72896  11.283  16.610   0.479
13801W        W72897  40.478  39.897  11.063
13802W        W72898  18.086  24.179   0.865
13803W        W72899  13.325  28.129  11.419
13804W        W72900  15.614  25.984  11.928
13805W        W72901  41.818   3.945  14.008
13806W        W72902  33.905  36.011   3.845
13807W        W72903  14.185  28.140   1.782
13808W        W72904  15.107  30.651  14.412
13809W        W72905  22.011  35.108  14.431
13810W        W72906  11.136   0.481   4.210
13811W        W72907   8.176   2.933  11.552
13812W        W72908  12.160  40.901   0.368
13813W        W72909   1.882  32.905  13.987
13814W        W72910  37.361   8.724  14.904
13815W        W72911  42.339  40.475  13.807
13816W        W72912  29.523  36.984  13.319
13817W        W72913  15.615  23.994   1.715
13818W        W72914  30.129  41.315  10.918
13819W        W72915  33.885  33.125   4.774
13820W        W72916  32.957   1.317  11.601
13821W        W72917   3.370  26.623  13.791
13822W        W72918   2.376  36.464  12.983
13823W        W72919  28.572  26.006   2.692
13824W        W72920   0.809  28.057  11.461
13825W        W72921  23.040  32.400   3.240
13826W        W72922   2.313  22.209   3.689
13827W        W72923  21.049  35.386   4.136
13828W        W72924   6.864  25.638  14.984
13829W        W72925   0.879  40.368   5.126
13830W        W72926  33.538  35.910   4.137
13831W        W72927  15.260  19.668  13.522
13832W        W72928  17.586  19.620   0.923
13833W        W72929   8.835  43.385   3.213
13834W        W72930  44.982  17.174   2.378
13835W        W72931  23.070   4.717   3.382
13836W        W72932  43.326   6.250  13.397
13837W        W72933  39.438  40.960   2.823
13838W        W72934  44.934   7.367   2.698
13839W        W72935  43.278  26.103   2.404
13840W        W72936  31.142  17.666   5.790
13841W        W72937  43.860  32.072  11.861
13842W        W72938   9.858   8.176   2.228
13843W        W72939  18.279  21.034  10.624
13844W        W72940  15.257  34.009  10.916
13845W        W72941   4.323  18.653  11.009
13846W        W72942  37.572  43.388  11.507
13847W        W72943  29.063  27.010  14.031
13848W        W72944  38.361  32.940   3.646
13849W        W72945  42.497   1.806  11.429
13850W        W72946  12.327   6.381  11.862
13851W        W72947  26.111  21.096   1.711
13852W        W72948  30.978  16.217  12.490
13853W        W72949  19.682   7.267  14.950
13854W        W72950   2.328   0.846   1.723
13855W        W72951  21.049  15.284  12.005
13856W        W72952  33.097  33.475  13.349
13857W        W72953  30.065  28.084  14.804
13858W        W72954  39.840  35.581  14.398
13859W        W72955  17.241  11.323   4.734
13860W        W72956  11.189  14.280  14.984
13861W        W72957  13.600  12.284   2.711
13862W        W72958  40.408  23.150  11.985
13863W        W72959   1.932  41.478  10.423
13864W        W72960   1.301  15.203  12.554
13865W        W72961  29.574  42.918  10.541
13866W        W72962   8.818   0.847   3.690
13867W        W72963  16.778  26.179   2.796
13868W        W72964  25.468  32.086   2.242
13869W        W72965  22.076  31.521  11.038
13870W        W72966   9.873  15.203  11.609
13871W        W72967  34.067   8.868  12.574
13872W        W72968  12.715  13.237   2.383
13873W        W72969  31.631  37.971   4.181
13874W        W72970  18.271   9.332  10.487
13875W        W72971   4.424  35.439   4.782
13876W        W72972   0.464  13.315  12.922
13877W        W72973  40.021   7.681  12.404
13878W        W72974   2.446  29.164   3.147
13879W        W72975  31.034  25.713   0.403
13880W        W72976   2.814  14.643   2.403
13881W        W72977  41.326  33.120   0.818
13882W        W72978  31.904   7.242   2.388
13883W        W72979  22.675  12.774   3.331
13884W        W72980  41.946  42.509  13.399
13885W        W72981   4.318  29.106  11.053
13886W        W72982  35.857  36.478  13.859
13887W        W72983  24.608  29.051  10.620
13888W        W72984  26.483   1.271   0.257
13889W        W72985   2.796  24.634   4.808
13890W        W72986  15.786  33.015  11.484
13891W        W72987  30.985  18.624   3.646
13892W        W72988  29.653   6.283  10.497
13893W        W72989  17.175  30.108   3.660
13894W        W72990  30.496  20.528  11.444
13895W        W72991  32.473  22.553  12.903
13896W        W72992  19.168  20.671  13.437
13897W        W72993  26.079  12.695  12.412
13898W        W72994  28.997  38.456   3.276
13899W        W72995  20.208   7.721   0.358
13900W        W72996  24.549  35.536   2.858
13901W        W72997  38.862   0.897   9.951
13902W        W72998  26.493   6.804  11.535
13903W        W72999   5.715   1.377  12.546
13904W        W73000   6.296  32.895  14.955
13905W        W73001  36.883  11.280   1.840
13906W        W73002  16.792  14.784  11.395
13907W        W73003  37.016  11.646   4.646
13908W        W73004  17.776  44.880   2.767
13909W        W73005  15.715  23.036   3.753
13910W        W73006  42.979  24.524   1.861
13911W        W73007   2.380  29.986   1.715
13912W        W73008  16.800  28.460  12.492
13913W        W73009  14.171  36.922  10.930
13914W        W73010  23.214  42.292  12.018
13915W        W73011  23.160  25.655   2.196
13916W        W73012  25.051  11.856  11.579
13917W        W73013  37.852  31.455  10.520
13918W        W73014   5.749  12.351   3.809
13919W        W73015  12.621   2.274  10.921
13920W        W73016   2.952  22.662  10.618
13921W        W73017   3.717  19.746   4.598
13922W        W73018   5.738  29.057  11.052
13923W        W73019  23.218   0.887  10.421
13924W        W73020  11.756   9.259  13.802
13925W        W73021  10.807   8.389  14.936
13926W        W73022  28.546  10.760   1.221
13927W        W73023  38.333   3.274   2.745
13928W        W73024  17.077   1.880  10.566
13929W        W73025  37.427  32.501  13.030
13930W        W73026  21.715   6.420   3.735
13931W        W73027  15.311  33.115  11.112
13932W        W73028  25.493   6.743  12.476
13933W        W73029  32.411   1.257   0.926
13934W        W73030  30.433  14.209   2.748
13935W        W73031  18.084  20.711   4.256
13936W        W73032  34.923  35.902  14.470
13937W        W73033  27.609  37.917   5.113
13938W        W73034   0.979  21.248  10.014
13939W        W73035  19.127  30.635  10.978
13940W        W73036  19.183  16.311  14.944
13941W        W73037  25.626  25.170   5.138
13942W        W73038   9.832  29.597  12.341
13943W        W73039  38.985  44.754  10.068
13944W        W73040  27.012  20.049   1.890
13945W        W73041  25.097  28.483   0.420
13946W        W73042  12.842  38.873   1.414
13947W        W73043  43.318  18.253  12.365
13948W        W73044  13.626  41.931  10.896
13949W        W73045  38.946   7.728  12.476
13950W        W73046   5.370  14.163   1.731
13951W        W73047  25.475  17.110  12.389
13952W        W73048   0.380  30.059   1.270
13953W        W73049  39.419  44.404  14.827
13954W        W73050  42.916  19.760   0.470
13955W        W73051  42.982  21.108  10.972
13956W        W73052  22.614  38.835   3.328
13957W        W73053   8.743  17.738  12.446
13958W        W73054  13.836  28.989  13.935
13959W        W73055  15.707  13.657  11.610
13960W        W73056  30.574  13.605  11.419
13961W        W73057   7.881  15.133   0.796
13962W        W73058  20.109  31.985  11.444
13963W        W73059  15.221  16.254  13.365
13964W        W73060   4.225  14.700   4.686
13965W        W73061   1.337   7.232   2.766
13966W        W73062  43.310  36.422  13.975
13967W        W73063  37.368  11.803  13.016
13968W        W73064  20.066   4.422  14.807
13969W        W73065  35.049   9.181   4.700
13970W        W73066  39.062  41.528  14.958
13971W        W73067   7.799  35.951  12.922
13972W        W73068  28.555  34.047   0.324
13973W        W73069   2.399   0.321  11.019
13974W        W73070  13.832  40.914  11.097
13975W        W73071   9.776  35.082   3.382
13976W        W73072  22.631  35.037   0.379
13977W        W73073  35.948   3.306   3.242
13978W        W73074  22.150  36.580  13.404
13979W        W73075  10.377   4.267   1.379
13980W        W73076  28.078  23.715  10.156
13981W        W73077  36.902  44.370   1.778
13982W        W73078   5.413  11.260  11.096
13983W        W73079   6.878  36.854  12.420
13984W        W73080  37.923  13.111  12.034
13985W        W73081  16.310  16.304   1.305
13986W        W73082  38.389  40.894   4.272
13987W        W73083  19.220   3.738   4.655
13988W        W73084  23.021  14.734  12.497
13989W        W73085  16.637  23.658  12.371
13990W        W73086  12.148  19.602  11.052
13991W        W73087  11.360  39.552  12.985
13992W        W73088  24.210  39.401  11.986
13993W        W73089  14.761  21.644   3.745
13994W        W73090  28.550  22.160  10.985
13995W        W73091  18.773  42.347   1.400
13996W        W73092  19.059  41.344   4.178
13997W        W73093  31.931  17.122   1.855
13998W        W73094   8.255  29.605  13.867
13999W        W73095   5.734  30.128   0.471
14000W        W73096  31.109  41.470  12.999
14001W        W73097  11.157  40.348   0.895
14002W        W73098  22.612  43.843   4.317
14003W        W73099  12.135  33.408   4.807
14004W        W73100  42.486   3.432   2.203
14005W        W73101   8.387   1.888   3.211
14006W        W73102  20.540  40.376   2.198
14007W        W73103  11.704  33.387  12.011
14008W        W73104  42.900   3.400   3.867
14009W        W73105  26.525   8.728   0.462
14010W        W73106  16.620  11.150   2.364
14011W        W73107   6.740  20.567  13.430
14012W        W73108   4.297  21.159   1.347
14013W        W73109  20.209   9.180  12.469
14014W        W73110  38.480  10.234   1.815
14015W        W73111  39.049  39.029   0.273
14016W        W73112  16.614  19.759   1.789
14017W        W73113  26.194  44.330  14.930
14018W        W73114  12.119  34.385  12.572
14019W        W73115  44.406   7.726   3.154
14020W        W73116  39.058  16.102   1.297
14021W        W73117  29.453  28.536   0.785
14022W        W73118   9.656  42.987   4.800
14023W        W73119  12.138  36.577  14.298
14024W        W73120   4.931  30.581  11.050
14025W        W73121   0.459  38.836   1.288
14026W        W73122   8.760  21.643   4.303
14027W        W73123  37.464  19.069  14.995
14028W        W73124   5.373  10.282  10.145
14029W        W73125  13.182   8.685  13.933
14030W        W73126   8.226  18.743  10.921
14031W        W73127   5.284  19.754   3.854
14032W        W73128  44.903   9.882  14.461
14033W        W73129  35.862  24.141   1.727
14034W        W73130  44.348  10.712   0.753
14035W        W73131   2.757   7.318   4.285
14036W        W73132  12.676  34.424  13.036
14037W        W73133  37.011  19.221  10.548
14038W        W73134  31.496  44.815   3.378
14039W        W73135  30.532  43.863  13.001
14040W        W73136  32.421  42.784  13.502
14041W        W73137  24.996  39.469   1.706
14042W        W73138  44.905  11.195   3.690
14043W        W73139  23.114   1.348  12.017
14044W        W73140  27.029  10.217   1.277
14045W        W73141  42.840  17.575   0.877
14046W        W73142   9.834  41.937   0.375
14047W        W73143   3.941   0.304   3.226
14048W        W73144  21.747   7.899   2.220
14049W        W73145  41.944  44.935  12.957
14050W        W73146  28.514  31.438   0.313
14051W        W73147  40.955  22.698   2.711
14052W        W73148  25.177  10.139  11.434
14053W        W73149  14.330  18.085  12.950
14054W        W73150   1.252  44.959  10.459
14055W        W73151   8.767  34.448  14.356
14056W        W73152  41.504  41.014  11.902
14057W        W73153  39.947  32.583   3.793
14058W        W73154  13.231  25.644  10.967
14059W        W73155  29.426  36.896  14.950
14060W        W73156  31.989  14.212   2.729
14061W        W73157   1.417  26.058   0.829
14062W        W73158  18.781  15.578   4.836
14063W        W73159  16.127  22.024   2.896
14064W        W73160   9.189  12.154  10.512
14065W        W73161  31.953  27.105  14.334
14066W        W73162  32.107   4.221   4.285
14067W        W73163   2.253  33.468   1.838
14068W        W73164  18.244  28.068   3.241
14069W        W73165   6.778  12.130   1.800
14070W        W73166  21.549  30.526   1.836
14071W        W73167  29.033  17.094   2.178
14072W        W73168   8.230  32.953  14.479
14073W        W73169  10.767  40.331   3.814
14074W        W73170  20.687  40.817  13.947
14075W        W73171   2.778  13.314   1.861
14076W        W73172  28.458  42.918   4.643
14077W        W73173  22.702   2.248   3.827
14078W        W73174   3.337   1.416   1.734
14079W        W73175  25.983   8.748   2.734
14080W        W73176  18.580  15.798  14.951
14081W        W73177  13.623  22.533   1.908
14082W        W73178  44.319  29.121  11.040
14083W        W73179  14.156  19.157  12.930
14084W        W73180  27.000   7.243   4.701
14085W        W73181  42.852  40.352  12.485
14086W        W73182   5.725   5.414  14.475
14087W        W73183  32.537  36.573  11.612
14088W        W73184  33.967  27.585  13.019
14089W        W73185  26.009  22.237  11.557
14090W        W73186  42.944  10.868  11.389
14091W        W73187  36.031  11.853   1.421
14092W        W73188  22.668  42.389   3.312
14093W        W73189  19.690  13.242  12.965
14094W        W73190  18.083  24.189  14.466
14095W        W73191  24.076  29.934   1.922
14096W        W73192  42.842  26.457   3.723
14097W        W73193  25.970  17.109   4.321
14098W        W73194   9.256  32.980   0.759
14099W        W73195  36.384  27.091   1.231
14100W        W73196  28.593   7.830   2.312
14101W        W73197   5.300   4.708   1.750
14102W        W73198  36.981  43.987  12.908
14103W        W73199  33.578  40.381   4.642
14104W        W73200  15.260   7.749  12.916
14105W        W73201  28.502   8.375   4.311
14106W        W73202   3.735   7.872   0.294
14107W        W73203   0.405   5.344   3.344
14108W        W73204  10.209  28.632  12.066
14109W        W73205  27.041  36.474   5.583
14110W        W73206  42.012  36.583   2.754
14111W        W73207  25.507  31.603   1.432
14112W        W73208  35.985   5.382   4.336
14113W        W73209  29.991  22.089   0.726
14114W        W73210  43.508  35.013  11.393
14115W        W73211   0.452   5.844  13.959
14116W        W73212  16.188  35.923   2.225
14117W        W73213   9.800  11.658  14.998
14118W        W73214   2.817  12.814  11.465
14119W        W73215  29.939  25.144   0.267
14120W        W73216  11.840  41.520   2.264
14121W        W73217   9.858  40.996   1.753
14122W        W73218   0.848  41.885   3.771
14123W        W73219  33.579  27.608   0.310
14124W        W73220   1.347  22.601  14.322
14125W        W73221  38.881  16.186   3.821
14126W        W73222  33.029  10.746  14.394
14127W        W73223  35.951   9.307  12.361
14128W        W73224  41.422  24.719   1.747
14129W        W73225  13.663  30.650   2.691
14130W        W73226  40.933  26.521  14.469
14131W        W73227  22.134  24.644   2.761
14132W        W73228  42.955  22.221   2.385
14133W        W73229  14.642  31.037  12.913
14134W        W73230   5.691   0.272   2.901
14135W        W73231  21.130  42.924  11.122
14136W        W73232   3.904   7.296   4.808
14137W        W73233  44.368   5.424   4.720
14138W        W73234  11.808  25.069  11.393
14139W        W73235  36.015   6.315  13.420
14140W        W73236  14.663  42.492  14.346
14141W        W73237   0.833  44.774  12.516
14142W        W73238  19.577  32.637   3.696
14143W        W73239   4.341  26.142   3.854
14144W        W73240  16.138  37.421  12.412
14145W        W73241   1.383  38.374   4.756
14146W        W73242  11.762  26.074  13.856
14147W        W73243   5.919  34.556  11.877
14148W        W73244  17.689  31.896   1.747
14149W        W73245  36.005   3.401  14.318
14150W        W73246   8.244  16.606  12.085
14151W        W73247  26.967   8.232  13.944
14152W        W73248  31.459  33.398  14.430
14153W        W73249   8.250  21.639   1.379
14154W        W73250  11.213  37.531  12.351
14155W        W73251  37.064  22.727  13.415
14156W        W73252  10.254  43.795   1.761
14157W        W73253  44.467  34.427  10.127
14158W        W73254   0.252  41.538  11.859
14159W        W73255  34.440  13.811  11.960
14160W        W73256   6.730  31.903  13.390
14161W        W73257   1.815  33.416  14.465
14162W        W73258  32.026  31.948  11.919
14163W        W73259  21.575   8.786  13.819
14164W        W73260  33.548  12.657  11.032
14165W        W73261  42.948  22.670  12.377
14166W        W73262   2.228  25.712  11.881
14167W        W73263   5.770  13.708   1.401
14168W        W73264  13.649  10.232  14.844
14169W        W73265   2.297  36.453   4.810
14170W        W73266  19.581  35.860  10.087
14171W        W73267  35.545  19.210  11.903
14172W        W73268  38.509  27.171  10.447
14173W        W73269  42.526  32.916  10.977
14174W        W73270  11.709  40.884  12.506
14175W        W73271  24.531  35.994  11.908
14176W        W73272  40.369  15.288  12.387
14177W        W73273  29.657  39.324  14.938
14178W        W73274  15.668  27.046  12.364
14179W        W73275  41.817  40.498   3.649
14180W        W73276   8.190  42.033   1.355
14181W        W73277  10.343  20.109   3.831
14182W        W73278  42.460   6.395   4.779
14183W        W73279  31.016  32.971   1.257
14184W        W73280  11.367  17.664  12.997
14185W        W73281  25.198  36.926  13.509
14186W        W73282  26.029  28.671   3.318
14187W        W73283  20.714  27.101   2.838
14188W        W73284  40.474  32.040   2.753
14189W        W73285  37.551  23.711  10.515
14190W        W73286  20.274   2.355  13.054
14191W        W73287  25.502   4.823  12.405
14192W        W73288   5.305  34.106   1.723
14193W        W73289  44.886  22.042   4.298
14194W        W73290  13.665  43.410  11.003
14195W        W73291   7.744  16.163   1.300
14196W        W73292  27.999   6.796  10.985
14197W        W73293   5.868  31.000  11.570
14198W        W73294  24.485  41.400  14.948
14199W        W73295  11.646  26.522  10.142
14200W        W73296  42.320  33.537  14.415
14201W        W73297  38.879  33.484  14.317
14202W        W73298   3.315  26.085   0.266
14203W        W73299  37.557   8.325  10.008
14204W        W73300  21.751  31.544  13.519
14205W        W73301  27.582  17.664   3.787
14206W        W73302   0.467  39.899   3.231
14207W        W73303  26.091  42.003   3.705
14208W        W73304  41.538  30.049  10.542
14209W        W73305   0.938  31.639   0.756
14210W        W73306   1.792  38.071   0.320
14211W        W73307  17.627   4.245   3.718
14212W        W73308  17.742   1.865  11.499
14213W        W73309  36.581  23.030   1.336
14214W        W73310  32.633  12.184   4.687
14215W        W73311  19.218  23.736   0.260
14216W        W73312  43.475  34.120  12.351
14217W        W73313  37.543  40.415  13.928
14218W        W73314  28.583  43.911   4.786
14219W        W73315  28.511  15.193  13.357
14220W        W73316   7.336  15.750   3.777
14221W        W73317   8.225  10.719   2.325
14222W        W73318  42.899  12.238  11.558
14223W        W73319  23.611  39.891  14.990
14224W        W73320   4.885  16.620   0.788
14225W        W73321  35.917  23.066   0.770
14226W        W73322  20.116  31.142  14.450
14227W        W73323  37.479   8.764   1.718
14228W        W73324  36.053   1.360   2.736
14229W        W73325  40.970  18.678  13.835
14230W        W73326   1.814  42.499  12.448
14231W        W73327  17.633  32.479  14.513
14232W        W73328  34.026  13.189   1.802
14233W        W73329  37.386   1.292   3.789
14234W        W73330  37.854  21.140   2.376
14235W        W73331  15.604  13.799  10.600
14236W        W73332  31.150   3.275   2.738
14237W        W73333  40.010  34.433   1.703
14238W        W73334  42.436  26.167   2.837
14239W        W73335  42.809  32.984   0.416
14240W        W73336  36.938   2.255  14.022
14241W        W73337  16.700  22.662   1.280
14242W        W73338  27.512  14.654  14.359
14243W        W73339   5.394  31.639  12.883
14244W        W73340  40.024  17.300  10.555
14245W        W73341   5.425  43.791   4.190
14246W        W73342  27.455  15.594  14.815
14247W        W73343  40.972  13.195   3.664
14248W        W73344  24.546  21.176   2.286
14249W        W73345  30.515  44.428   4.799
14250W        W73346  36.865  26.004  13.436
14251W        W73347  27.128  20.210   3.654
14252W        W73348  22.203   7.791  13.913
14253W        W73349  38.823  13.152   3.837
14254W        W73350  44.481  37.353  12.486
14255W        W73351  19.268  19.128   4.827
14256W        W73352  31.568  14.111   4.191
14257W        W73353  36.090  43.451   1.442
14258W        W73354   3.387   4.407  12.391
14259W        W73355  25.107   5.774   3.659
14260W        W73356   7.859  44.833  12.870
14261W        W73357  39.888   7.341   5.254
14262W        W73358  22.589  12.697  13.883
14263W        W73359  25.565  30.520  11.465
14264W        W73360  27.527  35.427  10.623
14265W        W73361  23.620  39.819   4.766
14266W        W73362  10.353  10.145   0.955
14267W        W73363  27.122  12.814   4.228
14268W        W73364  42.973   5.804   0.319
14269W        W73365   9.649  13.306   0.484
14270W        W73366   2.880   6.219  10.460
14271W        W73367  34.977  24.717   9.920
14272W        W73368  36.486  15.721   9.985
14273W        W73369   9.308  11.728  11.559
14274W        W73370  32.430  20.557  14.413
14275W        W73371  20.229  20.257   4.705
14276W        W73372  38.994  22.696   3.318
14277W        W73373  40.510  32.526  11.018
14278W        W73374  44.812  27.072  12.435
14279W        W73375  13.838  23.544  13.867
14280W        W73376  35.524   4.710   0.880
14281W        W73377  21.034  13.233   2.726
14282W        W73378   1.404   1.392  10.628
14283W        W73379  33.382  18.235   3.732
14284W        W73380   6.814  24.185   0.370
14285W        W73381  28.543   2.781  12.895
14286W        W73382  18.198  25.137  12.467
14287W        W73383   0.484  20.080  12.064
14288W        W73384   0.847  34.411  10.967
14289W        W73385  30.074  28.027  10.910
14290W        W73386  21.213  21.753  10.454
14291W        W73387  44.873  12.832   4.667
14292W        W73388   3.844  20.583   0.726
14293W        W73389  19.195  16.604  13.415
14294W        W73390  44.405  38.926   5.182
14295W        W73391  39.453   8.780   0.452
14296W        W73392   4.428   4.822  13.411
14297W        W73393  31.121  25.699   4.249
14298W        W73394  16.654   2.853  14.298
14299W        W73395  34.063  18.113  11.539
14300W        W73396  15.124  32.105   0.767
14301W        W73397  35.521  13.766   2.689
14302W        W73398  25.688  30.088   4.671
14303W        W73399  23.683  31.047   0.372
14304W        W73400   8.712  15.767   3.756
14305W        W73401  14.758  22.703   3.684
14306W        W73402   6.420   6.908  10.995
14307W        W73403   3.950   9.822  10.901
14308W        W73404   4.845  27.014   3.843
14309W        W73405  13.225  35.513   4.705
14310W        W73406  31.099  43.780  10.540
14311W        W73407  37.925  35.509   0.839
14312W        W73408  27.672  10.847   3.694
14313W        W73409  39.516   8.382  11.122
14314W        W73410  25.976  11.668   3.240
14315W        W73411  29.497   0.484  14.305
14316W        W73412   0.264   4.824   1.386
14317W        W73413  24.492   2.311   4.199
14318W        W73414  15.265  27.001   1.346
14319W        W73415   9.763  38.844   4.740
14320W        W73416  40.844  26.684  12.829
14321W        W73417  27.973  40.346   0.249
14322W        W73418  28.624  24.531  10.888
14323W        W73419  36.863  20.724  10.486
14324W        W73420  29.122  39.842  13.922
14325W        W73421   4.835  36.061  11.423
14326W        W73422  19.537  30.419  10.149
14327W        W73423  32.547  32.964  13.380
14328W        W73424  30.465   2.263  12.555
14329W        W73425  33.066  43.804   3.276
14330W        W73426  29.565  33.008   5.243
14331W        W73427  21.163   0.975   2.856
14332W        W73428   8.837  18.621   1.338
14333W        W73429   4.231   9.727   0.839
14334W        W73430  43.800  29.504  11.528
14335W        W73431  25.633   5.856   1.314
14336W        W73432  35.970  43.991   1.243
14337W        W73433  27.993  34.521   0.483
14338W        W73434  30.621  25.216  12.093
14339W        W73435   9.753  15.676  12.052
14340W        W73436  26.521  25.551  13.939
14341W        W73437  26.088  30.977   4.159
14342W        W73438  13.673  30.054  11.378
14343W        W73439  24.711  42.875  14.930
14344W        W73440  14.651  22.524   1.292
14345W        W73441   1.362  26.207  10.597
14346W        W73442  13.169  28.496  13.796
14347W        W73443  41.313  20.613  12.983
14348W        W73444  12.127  34.086   0.272
14349W        W73445   1.455  34.992   1.919
14350W        W73446  28.554  22.558   2.674
14351W        W73447  39.418  14.691  11.993
14352W        W73448   7.665  26.096   3.294
14353W        W73449  44.828   7.813  13.318
14354W        W73450  26.612  11.807  10.421
14355W        W73451  28.165  14.642  12.861
14356W        W73452  28.517  42.493   1.781
14357W        W73453  11.757  39.416   3.188
14358W        W73454   4.785  23.026   2.670
14359W        W73455   5.766  43.270   2.367
14360W        W73456  26.203  30.600   3.790
14361W        W73457  30.535  26.033   1.426
14362W        W73458  29.035  21.525   4.763
14363W        W73459  11.175  44.266  14.349
14364W        W73460  24.076   7.826  10.425
14365W        W73461  30.426  15.258   1.442
14366W        W73462  28.530  11.780   3.679
14367W        W73463  32.397  19.632  13.508
14368W        W73464  13.284   9.759  10.596
14369W        W73465  16.103   7.406   0.812
14370W        W73466  25.516  27.043   0.940
14371W        W73467  31.484  41.014   2.212
14372W        W73468  18.770  37.033  14.280
14373W        W73469  36.409  16.237  13.419
14374W        W73470   4.737  30.994   4.698
14375W        W73471  27.181  19.636   2.804
14376W        W73472  38.972   7.836   2.289
14377W        W73473  34.963   4.445   3.806
14378W        W73474  14.299  44.315   1.745
14379W        W73475   5.879  44.840   3.749
14380W        W73476  28.982  34.980   5.306
14381W        W73477  31.566   0.953   3.276
14382W        W73478  24.554   9.720  11.017
14383W        W73479  25.502  25.595   2.901
14384W        W73480  11.645  40.498  10.616
14385W        W73481  11.628  27.569  12.981
14386W        W73482  13.679  20.539  14.892
14387W        W73483  17.108  12.651  13.355
14388W        W73484  27.643  38.867   2.239
14389W        W73485  21.606  25.061  14.392
14390W        W73486  25.473  22.641  12.927
14391W        W73487  29.465  32.561   1.325
14392W        W73488  22.717  36.468   0.338
14393W        W73489  19.765  14.216  12.904
14394W        W73490   4.826   6.242  10.924
14395W        W73491  26.994   2.318   2.404
14396W        W73492  34.952  21.750   1.859
14397W        W73493  38.409  30.053   3.770
14398W        W73494  24.203   8.335  10.933
14399W        W73495   6.332  14.228   1.899
14400W        W73496   3.844  17.183  11.884
14401W        W73497  10.175   3.850   3.229
14402W        W73498  23.552  44.404  10.547
14403W        W73499  43.433  25.996  14.011
14404W        W73500  30.498  44.292   3.168
14405W        W73501  38.552  44.487  10.599
14406W        W73502  34.015   4.412   4.834
14407W        W73503  21.209  32.030  11.916
14408W        W73504  18.697   6.342  14.926
14409W        W73505  17.571  20.681  11.503
14410W        W73506  35.005  32.945  14.460
14411W        W73507  35.601  31.037   1.812
14412W        W73508   1.836  27.965   2.857
14413W        W73509  44.881  39.423  11.533
14414W        W73510  38.329  36.544   3.657
14415W        W73511  27.635  23.212   1.793
14416W        W73512  17.632  17.239  13.362
14417W        W73513  11.226  17.617   1.417
14418W        W73514  39.921  25.010   4.208
14419W        W73515   1.905  22.155  12.566
14420W        W73516  37.004  38.856  13.494
14421W        W73517   3.297  10.146   2.261
14422W        W73518  28.066  36.385   2.742
14423W        W73519  27.521   2.254   1.417
14424W        W73520   4.296  33.893   4.625
14425W        W73521  32.936  12.215  11.421
14426W        W73522   9.167   5.721   1.334
14427W        W73523  44.937  37.502   1.257
14428W        W73524  37.541  31.574   3.676
14429W        W73525   9.754  43.391   1.422
14430W        W73526   4.772   7.276   1.372
14431W        W73527  39.414  11.788  14.781
14432W        W73528  39.020  17.155   5.085
14433W        W73529  30.422  27.190   3.371
14434W        W73530   1.959  20.057  11.960
14435W        W73531  21.748  21.630   9.963
14436W        W73532   3.252  42.988  11.862
14437W        W73533   2.417  30.061  13.033
14438W        W73534  32.902   0.862   2.341
14439W        W73535  29.549  17.728  11.099
14440W        W73536  34.094  14.707  13.063
14441W        W73537  27.126  20.672  10.161
14442W        W73538  42.003   5.767   1.894
14443W        W73539  34.381  15.617   1.252
14444W        W73540  37.984  10.662   4.206
14445W        W73541  25.507   3.819   1.699
14446W        W73542  27.071  34.106   0.313
14447W        W73543  10.259   7.320   0.309
14448W        W73544  19.237  30.994   1.363
14449W        W73545  40.837  22.020   4.197
14450W        W73546  20.739  40.997   2.219
14451W        W73547  30.467  33.536  13.434
14452W        W73548  17.189  19.216   4.827
14453W        W73549  30.024  29.503  10.638
14454W        W73550  22.527  10.297   4.263
14455W        W73551  18.739   0.485   0.727
14456W        W73552  38.004  12.738  13.422
14457W        W73553  40.806  34.092  11.606
14458W        W73554   8.832  14.193   1.216
14459W        W73555  41.368  27.953   4.814
14460W        W73556  28.589  11.225   0.833
14461W        W73557  16.311  14.309  12.460
14462W        W73558  18.109  33.619   0.456
14463W        W73559  12.739  18.090  12.946
14464W        W73560  11.648  32.541  13.878
14465W        W73561  16.234  28.438   5.677
14466W        W73562   9.326  23.635  13.436
14467W        W73563   1.804  43.409   0.792
14468W        W73564  28.114  10.874  14.276
14469W        W73565  26.132   1.464   4.611
14470W        W73566  17.118  12.173   1.804
14471W        W73567  11.293   6.750   4.721
14472W        W73568  44.294  23.154   4.286
14473W        W73569  17.088  42.001   3.304
14474W        W73570  41.037  32.973   1.407
14475W        W73571  11.346  12.300  12.576
14476W        W73572  39.925   2.922  14.941
14477W        W73573   2.858  34.035   1.706
14478W        W73574  21.533   0.342  14.392
14479W        W73575  19.695  32.909   0.865
14480W        W73576  16.778  40.538  14.861
14481W        W73577  15.090  19.271  12.086
14482W        W73578   6.770   2.433  14.442
14483W        W73579   2.961  41.971   3.844
14484W        W73580  35.994  44.940   4.312
14485W        W73581  11.173   9.737   2.872
14486W        W73582   7.380  14.322  14.478
14487W        W73583  21.680   0.350  14.029
14488W        W73584  40.027   5.434   3.353
14489W        W73585   9.829  31.563  10.545
14490W        W73586  14.192  25.967   0.792
14491W        W73587  39.859  31.054  12.999
14492W        W73588  14.745  20.594  12.053
14493W        W73589  29.655   2.435   4.598
14494W        W73590  10.353  33.062   1.856
14495W        W73591  39.409  39.951   0.271
14496W        W73592   7.775   6.247   5.087
14497W        W73593  41.523  21.163  13.467
14498W        W73594  19.629  41.807   2.672
14499W        W73595  27.152  34.988  11.607
14500W        W73596   2.788  39.862   4.276
14501W        W73597  10.186  33.886   2.840
14502W        W73598  25.982  28.097   1.321
14503W        W73599  34.448   9.820  14.820
14504W        W73600  40.811  41.832   0.477
14505W        W73601   4.904   0.430   1.351
14506W        W73602  39.029  10.222   1.235
14507W        W73603  32.891  44.393  11.468
14508W        W73604  30.074   2.348  10.524
14509W        W73605  33.000  27.661   2.864
14510W        W73606  14.721  13.144  13.401
14511W        W73607   1.427  22.112  10.595
14512W        W73608  11.131  17.281   3.825
14513W        W73609  35.476   4.821   1.795
14514W        W73610   2.395  26.630   5.261
14515W        W73611   1.867  36.927  12.571
14516W        W73612  25.638  13.139  13.058
14517W        W73613   8.169  26.155   2.254
14518W        W73614  27.105  10.636  14.430
14519W        W73615   0.845  23.615   0.897
14520W        W73616  21.575  39.538   0.244
14521W        W73617  11.629  39.376   3.691
14522W        W73618  13.208  44.482   2.802
14523W        W73619  44.481  34.410   3.701
14524W        W73620   8.184   5.861   1.704
14525W        W73621  30.642  11.650  11.529
14526W        W73622  30.618  32.887  11.048
14527W        W73623  44.305   1.417   3.637
14528W        W73624  26.595  36.871  12.555
14529W        W73625  20.173  39.953   1.719
14530W        W73626  23.023  22.088   1.731
14531W        W73627   1.835  26.570   4.330
14532W        W73628  10.794  41.985  13.838
14533W        W73629  22.228  28.071  13.439
14534W        W73630  25.976  31.099  13.480
14535W        W73631   6.338   7.683   2.221
14536W        W73632   0.820  44.777  10.452
14537W        W73633  26.163  12.122  14.024
14538W        W73634  36.061   3.797   0.402
14539W        W73635  30.125  30.447  12.013
14540W        W73636  12.211  31.055  14.817
14541W        W73637   2.280  30.464  10.490
14542W        W73638  14.202  28.486   2.340
14543W        W73639  23.030   0.797  12.026
14544W        W73640  39.389   8.160  12.578
14545W        W73641  35.464  30.488   0.445
14546W        W73642  25.130  37.411  12.966
14547W        W73643  19.171  36.943  11.067
14548W        W73644  36.896  29.107  11.927
14549W        W73645  18.615  15.115  10.914
14550W        W73646   5.837  20.714  11.473
14551W        W73647  12.285  12.734   0.267
14552W        W73648  17.094  36.846   3.733
14553W        W73649  37.081  19.143   2.237
14554W        W73650  43.384   5.351  10.924
14555W        W73651  14.765  14.141  10.594
14556W        W73652  22.677  43.294  10.416
14557W        W73653   2.811  35.973  10.486
14558W        W73654  41.316  36.575   4.822
14559W        W73655   0.282  30.572  13.060
14560W        W73656  16.126  22.204  13.025
14561W        W73657  34.935   7.181   3.775
14562W        W73658  16.121   6.349   1.379
14563W        W73659  35.054   9.212  13.982
14564W        W73660  32.511  10.758   2.307
14565W        W73661   2.787  13.630  13.984
14566W        W73662  28.105  23.177   3.758
14567W        W73663  43.012  10.292   3.267
14568W        W73664  29.035  16.143  12.957
14569W        W73665  10.672  39.414   3.868
14570W        W73666  38.392  43.369  13.009
14571W        W73667  17.088   7.203   1.450
14572W        W73668   1.412  11.218   3.796
14573W        W73669  10.778  41.418  11.596
14574W        W73670  30.501  17.673   9.676
14575W        W73671  27.012  29.081   1.379
14576W        W73672   5.801  36.455   0.444
14577W        W73673  22.076  43.867  11.951
14578W        W73674  43.515  42.788   4.184
14579W        W73675  12.777  31.995   9.506
14580W        W73676   5.235  25.670   1.366
14581W        W73677  42.515   2.814   1.266
14582W        W73678  35.881  20.578   4.293
14583W        W73679   5.904  20.676  11.978
14584W        W73680   1.318  19.643   0.911
14585W        W73681  35.021  15.753  13.333
14586W        W73682  43.298  23.093   3.811
14587W        W73683  24.579  23.226   2.858
14588W        W73684  41.378  43.814   2.781
14589W        W73685  19.733  35.471  12.031
14590W        W73686  40.544  38.373   4.282
14591W        W73687  15.655  24.226  11.018
14592W        W73688  36.541  25.521   0.412
14593W        W73689  21.731   8.281   1.233
14594W        W73690   0.437  41.882  10.496
14595W        W73691  29.138  29.152  14.983
14596W        W73692  33.020  25.967  12.851
14597W        W73693   7.757  24.230  11.866
14598W        W73694   1.252  14.772  13.435
14599W        W73695  13.158   9.762  11.039
14600W        W73696  21.526  44.861   4.758
14601W        W73697  32.415  27.690  13.931
14602W        W73698  37.370  34.120   0.372
14603W        W73699  27.120  17.230  12.575
14604W        W73700  14.220  34.957   3.731
14605W        W73701  29.120  21.605  14.347
14606W        W73702   5.322   5.432  11.423
14607W        W73703  25.119  10.874  14.491
14608W        W73704  26.181  33.009  10.018
14609W        W73705  25.644  11.187   0.864
14610W        W73706   2.828   7.199  10.454
14611W        W73707  13.662  25.666   1.827
14612W        W73708  40.484  18.664  11.082
14613W        W73709  27.988   6.409  13.927
14614W        W73710   8.392  12.162  14.010
14615W        W73711  44.314  17.171   1.696
14616W        W73712  17.666  11.345  13.904
14617W        W73713   4.217  16.589   1.780
14618W        W73714  30.437  29.116   4.343
14619W        W73715  39.856  31.126  14.017
14620W        W73716  35.493  38.384   2.784
14621W        W73717  26.502  12.325  12.978
14622W        W73718  32.116  10.354   4.295
14623W        W73719  28.994  29.135  13.802
14624W        W73720  32.470  10.141   3.764
14625W        W73721  29.077   2.956  13.940
14626W        W73722   2.887  17.236   3.326
14627W        W73723   3.872  14.809   2.694
14628W        W73724  16.673   9.857   3.149
14629W        W73725   7.232  25.583   2.351
14630W        W73726   0.266  22.635  11.005
14631W        W73727   8.659   2.445   3.164
14632W        W73728  32.460   1.903  13.990
14633W        W73729  42.978  20.546   0.243
14634W        W73730  20.197  22.516  14.493
14635W        W73731  41.846   5.405   0.450
14636W        W73732  29.135  17.695   1.851
14637W        W73733  34.914  13.662   2.848
14638W        W73734  16.159  17.608   2.685
14639W        W73735  13.302  32.501   1.340
14640W        W73736  31.941   1.381   0.825
14641W        W73737  16.107   2.876  14.413
14642W        W73738  13.733  35.963   2.847
14643W        W73739  24.049  25.217   2.238
14644W        W73740  43.386   1.932  13.310
14645W        W73741  12.254  17.063  12.340
14646W        W73742  32.109  27.492  10.055
14647W        W73743  26.984  34.585  13.971
14648W        W73744   7.268  40.397   1.697
14649W        W73745  38.885  16.190  11.529
14650W        W73746  24.153  42.339  14.312
14651W        W73747  34.997  33.983   3.841
14652W        W73748   7.205  27.084   4.805
14653W        W73749  31.402  19.670  13.900
14654W        W73750  21.720  36.897   0.742
14655W        W73751  37.454   3.450   2.401
14656W        W73752   4.925  28.488  10.588
14657W        W73753  28.605  40.979  13.473
14658W        W73754  43.348  25.698  10.906
14659W        W73755   3.330   3.803  10.923
14660W        W73756  11.660  31.010   2.288
14661W        W73757  17.221  34.045  12.005
14662W        W73758   7.405  19.619   1.695
14663W        W73759   9.275  35.408   4.344
14664W        W73760  18.781  34.565  10.581
14665W        W73761  22.065  23.621  12.431
14666W        W73762  19.208  38.483   4.149
14667W        W73763  17.112  24.113  12.013
14668W        W73764  44.829   2.733  13.014
14669W        W73765  25.470  10.206  14.878
14670W        W73766  11.128  19.540  13.502
14671W        W73767  13.158  10.786  11.007
14672W        W73768  41.917  15.142   3.350
14673W        W73769  22.682  40.317  14.839
14674W        W73770  12.185  20.730  12.397
14675W        W73771  40.408  12.160  14.382
14676W        W73772  17.205  40.366  14.477
14677W        W73773  16.218  13.743   2.832
14678W        W73774  31.080  34.559  13.051
14679W        W73775  19.686  44.496  11.987
14680W        W73776  36.407   8.379   3.234
14681W        W73777   9.795  44.951   1.276
14682W        W73778  38.500  34.928   1.333
14683W        W73779  15.275  13.142   1.922
14684W        W73780   7.328  36.002   2.288
14685W        W73781  20.626  44.353  11.013
14686W        W73782  28.061  21.264   2.376
14687W        W73783   2.348  32.901   2.182
14688W        W73784  42.015   7.372   1.702
14689W        W73785  42.389  14.720  12.477
14690W        W73786  37.940   7.911  14.498
14691W        W73787  35.963  40.349  12.479
14692W        W73788  33.586   9.350   1.402
14693W        W73789   8.694   5.410  14.280
14694W        W73790  11.314   9.165  12.030
14695W        W73791  40.913   5.826   1.810
14696W        W73792  41.031  25.130  11.552
14697W        W73793  16.659  12.762   0.775
14698W        W73794  17.254  11.165  12.987
14699W        W73795  38.030  35.971   0.410
14700W        W73796   1.915  34.478   4.717
14701W        W73797  34.077   5.233   4.120
14702W        W73798  27.966  25.207   0.728
14703W        W73799  35.587  43.987   2.199
14704W        W73800  42.872   9.821  14.978
14705W        W73801  35.589  16.793  14.933
14706W        W73802   3.225  31.946   4.210
14707W        W73803   3.337  27.680  13.041
14708W        W73804   7.286  39.520   0.817
14709W        W73805   3.829  35.457   3.726
14710W        W73806  41.870  34.005   0.869
14711W        W73807  27.106  22.614   1.323
14712W        W73808   0.494  34.892   0.939
14713W        W73809  11.225   3.383   3.632
14714W        W73810   1.896  12.150  10.419
14715W        W73811  39.484  27.547   2.683
14716W        W73812   2.407  43.796   4.705
14717W        W73813  42.988  40.969   0.762
14718W        W73814   5.277  40.395   1.696
14719W        W73815  16.780   1.821   0.306
14720W        W73816  25.661  16.782   4.665
14721W        W73817  41.034  42.813   0.876
14722W        W73818  26.059  18.139  12.834
14723W        W73819  38.409  10.233  13.499
14724W        W73820   5.797  12.814  11.016
14725W        W73821  35.000  31.429   3.753
14726W        W73822  33.510  30.117  11.041
14727W        W73823  35.084  10.742   4.788
14728W        W73824  31.600  42.858  13.981
14729W        W73825  41.525  36.432   3.728
14730W        W73826  24.185  33.554   2.809
14731W        W73827  10.356  26.001  14.407
14732W        W73828   1.412  44.419   0.915
14733W        W73829   8.399   6.831   1.307
14734W        W73830  13.696  42.517  11.594
14735W        W73831   5.342  44.344  14.866
14736W        W73832  23.127  11.636   9.926
14737W        W73833  34.420  37.411   0.950
14738W        W73834  44.808  40.054   1.773
14739W        W73835   2.226  39.474   0.258
14740W        W73836  39.900   1.255   2.178
14741W        W73837  34.943  29.146   0.458
14742W        W73838  14.284   0.916  12.423
14743W        W73839  11.656   2.326  14.926
14744W        W73840  41.916  31.932  10.632
14745W        W73841   1.847   4.890  12.964
14746W        W73842   0.284  42.319  13.506
14747W        W73843  25.152   3.441  12.378
14748W        W73844  35.399  26.203  14.019
14749W        W73845  27.139  25.034   4.748
14750W        W73846   2.250   6.697   3.170
14751W        W73847  10.842  40.849   1.351
14752W        W73848  34.386  14.816  10.941
14753W        W73849  19.691  37.455  14.850
14754W        W73850  18.691  41.791  11.093
14755W        W73851  36.485  24.513  12.896
14756W        W73852  39.469  32.547   1.736
14757W        W73853  22.610  44.266   5.182
14758W        W73854  29.439  10.832   3.859
14759W        W73855  37.422  26.535  12.994
14760W        W73856  43.464  18.737  13.451
14761W        W73857  15.227  35.440   1.300
14762W        W73858  11.712  27.578   2.196
14763W        W73859  41.514  33.617   2.780
14764W        W73860  40.321   5.770  11.450
14765W        W73861  39.912  40.921  13.389
14766W        W73862  33.504  11.724   4.649
14767W        W73863  17.599  43.508  13.906
14768W        W73864  23.561  20.579  11.505
14769W        W73865   2.755   0.394  13.968
14770W        W73866  41.839   7.378  14.506
14771W        W73867   6.211  43.820  11.071
14772W        W73868   6.291   4.730   0.372
14773W        W73869   0.859  41.500   1.828
14774W        W73870   7.342  40.866   2.293
14775W        W73871   0.986  39.870   4.782
14776W        W73872  37.029   0.889   4.799
14777W        W73873  42.285  39.808   3.339
14778W        W73874  21.130  11.327  10.595
14779W        W73875  40.518   5.355  13.802
14780W        W73876   5.713  36.069   1.350
14781W        W73877  11.797  35.039  14.348
14782W        W73878  37.348  20.609  14.007
14783W        W73879  23.675   9.212  12.887
14784W        W73880  21.741  26.591  13.857
14785W        W73881  30.947  39.558   3.270
14786W        W73882   6.208  13.141  14.413
14787W        W73883  29.025   4.857   0.410
14788W        W73884  43.313   6.734  11.111
14789W        W73885  30.061  37.367  11.081
14790W        W73886  36.390  15.130   4.303
14791W        W73887  17.157  42.023  10.506
14792W        W73888   8.772  13.796   3.225
14793W        W73889  33.007  38.886   0.955
14794W        W73890  37.996  39.052   3.300
14795W        W73891  27.093  39.517  14.313
14796W        W73892  25.205  39.397  12.406
14797W        W73893  12.140  12.345  13.003
14798W        W73894   2.951   1.324  13.842
14799W        W73895   7.289  34.589   0.918
14800W        W73896  10.352  15.739  12.544
14801W        W73897  41.914  36.507  11.915
14802W        W73898   6.859  29.104   2.768
14803W        W73899  13.252  25.710   3.202
14804W        W73900  16.762   0.949  14.030
14805W        W73901  42.932  44.867   2.197
14806W        W73902  42.870  36.436  14.317
14807W        W73903   3.717  23.552   4.829
14808W        W73904  28.175  26.547  13.949
14809W        W73905  36.416  31.588   1.324
14810W        W73906  40.034  10.870   9.983
14811W        W73907  11.621  24.574   4.169
14812W        W73908  30.457   2.400   2.368
14813W        W73909  44.435  33.017  13.325
14814W        W73910   4.803  40.918  13.356
14815W        W73911  30.563  27.639  10.463
14816W        W73912  40.919   9.856  14.331
14817W        W73913  13.201   1.975  12.533
14818W        W73914  16.160   2.420  14.032
14819W        W73915  16.714  11.368  10.434
14820W        W73916  31.466  37.511  14.873
14821W        W73917   4.900  22.558   0.898
14822W        W73918   3.760  15.222  11.402
14823W        W73919  37.977  26.041  11.976
14824W        W73920  28.607  23.660   2.280
14825W        W73921  26.503   1.751   1.416
14826W        W73922  13.248  30.464   1.823
14827W        W73923   0.868  16.134  13.876
14828W        W73924  25.009   9.811  12.438
14829W        W73925   9.263  39.372  13.933
14830W        W73926  10.671  25.640  12.501
14831W        W73927   1.287  17.115   3.644
14832W        W73928  29.918  21.702   2.330
14833W        W73929  15.639   6.227  11.899
14834W        W73930   8.388  11.188   4.792
14835W        W73931  23.733  36.946   0.807
14836W        W73932  10.215  31.136   0.846
14837W        W73933  11.769  18.144  13.057
14838W        W73934  21.247  32.471  11.113
14839W        W73935   6.297  40.513   0.796
14840W        W73936  34.372  43.388  12.502
14841W        W73937   6.904  33.425  13.914
14842W        W73938  26.681  36.414  14.420
14843W        W73939  21.527  19.162   5.650
14844W        W73940  23.715  15.662  10.942
14845W        W73941   2.859  12.703  14.377
14846W        W73942  19.777  42.961   0.432
14847W        W73943  14.236   4.700   2.834
14848W        W73944  26.488  29.018  14.304
14849W        W73945  17.283  11.691  10.894
14850W        W73946  13.728  24.085  14.427
14851W        W73947  14.814  35.049  13.993
14852W        W73948  16.157  30.962   3.202
14853W        W73949  23.163  30.434   4.675
14854W        W73950   3.240  27.980   2.738
14855W        W73951  12.165  36.876   3.797
14856W        W73952  43.998  37.945  14.842
14857W        W73953  35.384  39.514  14.417
14858W        W73954  26.466  12.812   2.885
14859W        W73955  44.915  33.607   1.912
14860W        W73956  44.499  14.184  13.380
14861W        W73957  30.967  15.184  10.595
14862W        W73958  34.038  26.112   0.334
14863W        W73959  44.309  39.905   2.700
14864W        W73960  10.874  17.279  12.032
14865W        W73961   1.305   5.379  14.348
14866W        W73962  17.246  14.774  11.022
14867W        W73963  11.217   6.254   0.732
14868W        W73964  16.624  25.640  14.312
14869W        W73965   1.396  38.060   1.399
14870W        W73966  29.013   8.321   4.271
14871W        W73967  38.430  41.912  12.956
14872W        W73968  30.427  12.644  12.352
14873W        W73969   0.784  12.683   4.770
14874W        W73970  34.971  27.138   4.300
14875W        W73971  14.184  12.197  11.001
14876W        W73972  18.784  44.855  14.944
14877W        W73973  44.368  44.779  13.441
14878W        W73974  24.063  39.822   2.889
14879W        W73975  28.961  40.382   3.753
14880W        W73976   5.196  21.729   1.221
14881W        W73977  30.988  22.037   3.771
14882W        W73978  20.615   2.290   4.329
14883W        W73979   1.940  22.105   3.203
14884W        W73980  28.510  30.498   4.185
14885W        W73981  41.797  19.075  11.505
14886W        W73982  35.533   1.318   4.248
14887W        W73983  32.621  15.167   5.123
14888W        W73984  44.282  35.908   1.399
14889W        W73985  29.527   3.215  12.344
14890W        W73986  28.441  29.588   4.682
14891W        W73987   6.379  44.285   2.883
14892W        W73988  38.565  27.687  12.377
14893W        W73989  39.832  30.087   4.626
14894W        W73990  21.160  36.010  12.984
14895W        W73991  36.548  28.592   4.813
14896W        W73992  35.020  14.735  13.431
14897W        W73993  11.296  13.731   4.773
14898W        W73994  11.180  23.058  10.418
14899W        W73995  36.563  27.514  11.082
14900W        W73996  42.791  28.455   1.400
14901W        W73997  42.920  20.052   4.277
14902W        W73998  17.726   5.922  11.576
14903W        W73999  31.918  36.460   2.359
14904W        W74000  31.506  12.703   0.909
14905W        W74001  23.027   0.369  12.961
14906W        W74002   0.875  26.063  11.020
14907W        W74003  19.745  41.829   4.824
14908W        W74004  34.557  13.727   4.797
14909W        W74005  38.905   1.475   4.753
14910W        W74006  30.100  21.213  14.353
14911W        W74007  17.794  18.613  14.808
14912W        W74008   5.806   3.791  10.915
14913W        W74009  23.499  27.066  14.765
14914W        W74010   9.229   0.413   2.264
14915W        W74011  33.876  11.238   0.779
14916W        W74012  26.659  24.696   3.192
14917W        W74013  10.870  32.116  14.840
14918W        W74014  26.021  13.146  12.368
14919W        W74015  16.621  15.760  10.992
14920W        W74016  15.241   3.278   0.923
14921W        W74017   4.354  28.538  14.032
14922W        W74018  36.553  17.637   2.323
14923W        W74019  11.676  18.711   0.888
14924W        W74020  26.148  29.665  13.368
14925W        W74021   2.420  40.545   1.243
14926W        W74022  13.135  17.247  13.868
14927W        W74023  39.500   4.716   0.919
14928W        W74024  40.817  27.071  11.444
14929W        W74025   0.879  20.552   0.459
14930W        W74026  29.512   6.705  10.986
14931W        W74027  24.631  20.763   1.759
14932W        W74028  26.614  28.136  10.516
14933W        W74029  11.758  21.516  11.457
14934W        W74030  12.148  11.371  10.491
14935W        W74031  43.313   4.333  13.323
14936W        W74032   6.682  41.507   3.679
14937W        W74033  37.546  17.062   0.306
14938W        W74034  39.437  10.815  14.029
14939W        W74035  25.669   7.861  12.416
14940W        W74036   0.874  33.421  13.938
14941W        W74037  26.557  26.548  13.371
14942W        W74038  31.948  18.737   9.522
14943W        W74039  18.713  28.538   2.679
14944W        W74040  34.605  41.872   2.352
14945W        W74041  35.083   5.320  14.981
14946W        W74042   7.380  36.589  10.890
14947W        W74043  39.005  15.113  10.602
14948W        W74044  12.193  18.216   3.822
14949W        W74045  35.450  38.009  10.966
14950W        W74046  21.171  25.678   0.831
14951W        W74047  14.763  39.835  14.394
14952W        W74048  37.535  29.971   2.413
14953W        W74049  34.477  17.728   2.668
14954W        W74050  17.294  17.274  12.392
14955W        W74051   4.388  37.548  13.826
14956W        W74052  11.295  35.594   2.225
14957W        W74053  26.015  35.589   1.394
14958W        W74054   1.908   6.828   0.359
14959W        W74055  32.141  31.147  13.341
14960W        W74056  16.208   0.424   1.432
14961W        W74057  32.939  44.999   1.293
14962W        W74058   8.361  10.789   4.754
14963W        W74059  12.667   9.320   4.722
14964W        W74060  33.439  10.694   2.396
14965W        W74061  12.791  21.171  12.382
14966W        W74062  18.545   5.192   1.274
14967W        W74063  22.635  33.953  13.839
14968W        W74064   4.866  30.153   5.289
14969W        W74065  30.969  38.877  11.082
14970W        W74066  26.026   3.231   1.704
14971W        W74067  35.484   0.769  12.451
14972W        W74068  40.323   0.361   0.802
14973W        W74069  23.023  13.161  10.976
14974W        W74070  13.143  28.095   2.265
14975W        W74071  26.037   8.281   2.370
14976W        W74072  41.979  16.177  11.438
14977W        W74073  42.808  10.213   3.840
14978W        W74074  12.753  16.705   3.275
14979W        W74075  34.057  28.453  10.600
14980W        W74076  17.690  18.743  11.398
14981W        W74077   7.800  43.796  12.412
14982W        W74078  36.425   3.401  13.499
14983W        W74079  24.724  19.268  12.895
14984W        W74080  33.437  24.719  10.984
14985W        W74081  12.762  12.332  13.503
14986W        W74082  16.150  28.061   2.255
14987W        W74083  34.394   6.419   1.825
14988W        W74084  37.490  19.583   0.928
14989W        W74085  12.178   1.401  10.934
14990W        W74086  37.344  36.996  14.867
14991W        W74087  11.728   1.737  11.957
14992W        W74088  29.158  18.292   0.926
14993W        W74089  41.424  41.792  10.484
14994W        W74090  20.646  15.590  13.433
14995W        W74091   7.739  39.473  14.360
14996W        W74092  19.053  18.293   2.704
14997W        W74093  11.690  32.068  12.432
14998W        W74094  30.964  10.874   3.217
14999W        W74095  31.637  39.887  11.447
15000W        W74096   5.888  33.386   4.682
15001W        W74097   5.344  22.201   5.792
15002W        W74098  22.018  22.116  12.568
15003W        W74099  35.105  20.549  12.356
15004W        W74100  41.465  11.623   2.836
15005W        W74101  27.692  22.686  11.493
15006W        W74102  35.916  28.680   0.920
15007W        W74103  43.382   6.838  12.469
15008W        W74104  41.418  12.163   3.818
15009W        W74105  34.960  38.068   0.247
15010W        W74106   4.833  33.552   3.738
15011W        W74107   6.402  12.637   0.821
15012W        W74108   7.762   8.873  10.078
15013W        W74109  13.290   2.844  11.522
15014W        W74110  26.015  37.849  12.011
15015W        W74111   0.397  38.557  14.497
15016W        W74112  34.954   4.701  11.505
15017W        W74113   4.718  44.821   4.138
15018W        W74114  42.515  37.498   3.188
15019W        W74115  21.574   7.388   4.288
15020W        W74116  40.387   2.873   3.761
15021W        W74117  12.358  42.292  13.829
15022W        W74118   8.867  35.505  10.424
15023W        W74119  13.290  10.746  10.516
15024W        W74120  41.996  28.038   3.770
15025W        W74121  25.500  43.379   2.281
15026W        W74122  29.488  25.021  10.539
15027W        W74123  31.552  23.168   3.727
15028W        W74124  35.506   3.372  10.458
15029W        W74125  32.107  27.513  12.970
15030W        W74126  44.402  31.475   0.302
15031W        W74127  41.434  11.843   4.335
15032W        W74128  12.156  17.682   3.181
15033W        W74129   1.810  22.095   2.310
15034W        W74130  28.556  30.488   4.723
15035W        W74131   4.886  38.850   5.194
15036W        W74132  32.885  15.225   5.220
15037W        W74133   6.283  18.706  13.945
15038W        W74134  23.679  38.039   1.846
15039W        W74135  34.528  29.424   0.339
15040W        W74136  17.141   5.213   0.880
15041W        W74137   7.211  43.372   1.822
15042W        W74138  43.919  39.929   0.460
15043W        W74139  14.733   4.224   0.880
15044W        W74140   7.668  18.762  13.006
15045W        W74141  20.667  20.581  13.931
15046W        W74142  15.222  23.521  12.902
15047W        W74143  16.300  39.355   1.775
15048W        W74144  44.274  28.011   1.281
15049W        W74145  35.984  14.665  12.979
15050W        W74146  35.855  43.442  12.424
15051W        W74147   3.758  14.671  10.497
15052W        W74148  23.089  35.467   2.678
15053W        W74149  11.189  23.733   1.859
15054W        W74150  21.747  26.658  14.398
15055W        W74151  39.406  33.096  11.462
15056W        W74152  18.685  16.621  11.894
15057W        W74153  18.267   4.788   0.819
15058W        W74154  18.078  19.225  13.932
15059W        W74155   3.423  17.744  12.378
15060W        W74156   0.266  25.472  14.280
15061W        W74157   0.393  22.174   0.366
15062W        W74158   3.898  32.455   3.148
15063W        W74159  31.555  15.246  12.991
15064W        W74160  33.612  38.039  14.283
15065W        W74161  26.648   7.704   4.763
15066W        W74162  15.270  43.888  13.049
15067W        W74163  27.691  42.031   4.344
15068W        W74164  13.198  21.053   1.874
15069W        W74165  24.689  30.028   0.769
15070W        W74166  31.454  36.006  12.823
15071W        W74167   2.861  33.394   2.332
15072W        W74168   9.799  17.211   1.284
15073W        W74169  27.038  13.144   0.355
15074W        W74170   7.228   4.392  10.453
15075W        W74171  25.085  18.786  14.453
15076W        W74172  34.109  25.985   2.835
15077W        W74173  12.151  30.525  12.050
15078W        W74174  41.911  22.629  10.453
15079W        W74175  19.603  35.556   3.379
15080W        W74176  37.376   9.743  12.493
15081W        W74177  27.577   1.477   0.743
15082W        W74178  30.014  13.601   4.743
15083W        W74179  34.569  27.532   4.672
15084W        W74180  37.408  17.728   0.957
15085W        W74181  25.116  38.387   3.168
15086W        W74182  26.014  21.225  12.580
15087W        W74183  22.549   0.770   5.131
15088W        W74184  36.451  34.421  11.592
15089W        W74185  23.510  24.675   1.263
15090W        W74186  15.256  36.946  12.907
15091W        W74187  38.866  43.388   1.810
15092W        W74188  17.073  27.466   1.906
15093W        W74189  21.249  24.564   0.326
15094W        W74190  42.933  18.592   3.758
15095W        W74191  10.737  31.950   2.736
15096W        W74192  31.132   5.777   1.739
15097W        W74193  36.523  39.037   4.636
15098W        W74194  14.667  21.550   0.815
15099W        W74195  39.939  36.987  12.957
15100W        W74196  35.928  18.201   1.315
15101W        W74197  17.675  14.181   1.257
15102W        W74198   5.812  44.492   2.837
15103W        W74199   4.862  35.468   3.152
15104W        W74200   6.772  21.023  13.401
15105W        W74201  32.072  32.047  11.092
15106W        W74202  33.093  19.055  12.570
15107W        W74203   5.736  24.090  14.498
15108W        W74204  43.513  13.667   1.268
15109W        W74205  19.690  15.603   1.402
15110W        W74206  33.475   9.289  14.793
15111W        W74207  21.631  27.105   2.340
15112W        W74208   7.358  34.101   4.753
15113W        W74209   5.928  38.942   4.620
15114W        W74210  11.244  36.957  11.590
15115W        W74211  37.442   2.811   4.788
15116W        W74212  32.047   7.708   2.723
15117W        W74213  43.947  40.808  13.510
15118W        W74214  23.493  38.950  11.526
15119W        W74215  33.419   6.224   2.263
15120W        W74216  32.120  15.098  12.419
15121W        W74217  30.942  25.150   2.317
15122W        W74218  40.479  10.368   1.424
15123W        W74219  38.402   6.343   0.447
15124W        W74220  23.695  13.351   2.688
15125W        W74221  20.252  42.890  11.015
15126W        W74222  21.155  15.608  10.464
15127W        W74223  33.411  10.218  12.510
15128W        W74224   3.752  28.014   4.258
15129W        W74225  27.178  40.508   3.306
15130W        W74226  10.722  28.989   1.219
15131W        W74227   8.309  25.043   2.307
15132W        W74228   7.356  23.158  12.896
15133W        W74229  14.278  19.562   1.214
15134W        W74230  42.806  10.676   0.333
15135W        W74231  19.252  13.815  12.022
15136W        W74232  12.624  23.187   1.353
15137W        W74233  32.143   2.781  11.388
15138W        W74234  24.133   5.775  14.830
15139W        W74235  10.199   2.857  10.534
15140W        W74236  44.466  21.660  14.420
15141W        W74237   0.819  33.505   4.301
15142W        W74238  28.675  38.527   4.217
15143W        W74239  25.131  33.006   0.276
15144W        W74240  40.865  28.931   3.668
15145W        W74241  22.599  41.379  14.971
15146W        W74242  41.435  35.432   0.732
15147W        W74243  28.082  38.487  12.930
15148W        W74244   7.232  32.473  11.005
15149W        W74245  44.878  25.513   4.649
15150W        W74246  33.047   0.939   0.425
15151W        W74247   2.381  17.230  12.452
15152W        W74248  15.251  10.662   4.231
15153W        W74249  32.489  14.217   0.445
15154W        W74250  43.949  18.082  14.366
15155W        W74251  20.132   0.743  13.428
15156W        W74252  39.918   6.405   3.770
15157W        W74253  40.837   4.820  14.998
15158W        W74254  34.889  16.150   0.411
15159W        W74255   4.939  21.149  10.898
15160W        W74256   4.862  29.447   2.355
15161W        W74257  10.289   9.190  10.590
15162W        W74258  12.252   7.196  14.428
15163W        W74259  39.472  19.185  13.844
15164W        W74260   1.462   3.436   1.315
15165W        W74261  44.930  11.248   0.405
15166W        W74262  28.988  40.431  14.970
15167W        W74263   6.290   8.161   3.222
15168W        W74264  38.012  21.060   3.303
15169W        W74265  12.191  36.527   3.268
15170W        W74266  23.127  32.575   0.781
15171W        W74267  40.528  41.365   0.895
15172W        W74268  30.632  12.284  12.028
15173W        W74269  41.992  34.103   1.791
15174W        W74270  21.748  35.468   3.826
15175W        W74271   1.360  11.243  14.472
15176W        W74272  32.548  36.461   1.748
15177W        W74273  18.200  35.109   1.851
15178W        W74274  22.064   3.808  13.411
15179W        W74275  14.208  25.119  11.988
15180W        W74276  43.787  13.266  11.429
15181W        W74277  21.717   0.789  12.047
15182W        W74278  20.162  18.685   1.293
15183W        W74279  27.071   5.923  11.124
15184W        W74280  38.438   6.285   2.772
15185W        W74281   4.319   9.780   4.762
15186W        W74282  41.486  37.966  13.003
15187W        W74283  20.707  21.025  12.855
15188W        W74284   6.682  18.276  14.024
15189W        W74285   0.964  23.062  12.953
15190W        W74286   2.761  37.482  13.951
15191W        W74287   0.276  10.709  13.446
15192W        W74288   1.283  37.575   2.311
15193W        W74289  23.596  22.579   2.224
15194W        W74290  26.029  32.410  14.960
15195W        W74291   5.900  33.961  14.804
15196W        W74292  32.417   6.215  13.913
15197W        W74293  28.498   0.301  14.356
15198W        W74294   1.408  42.473  13.859
15199W        W74295  23.597  29.641   4.265
15200W        W74296   8.324  35.455  11.548
15201W        W74297  15.179  34.872  10.468
15202W        W74298  40.965  31.046   4.248
15203W        W74299  14.719   0.785   4.597
15204W        W74300  43.019  31.998  13.495
15205W        W74301  19.690  29.109   3.740
15206W        W74302   3.849  29.062  11.916
15207W        W74303   6.923  38.936  12.384
15208W        W74304  13.793  14.144   3.860
15209W        W74305  39.340  11.863  10.498
15210W        W74306  27.989  13.713  10.912
15211W        W74307  22.105  18.636  12.041
15212W        W74308  10.759   1.826   1.363
15213W        W74309   8.810  37.542  14.819
15214W        W74310   6.393  22.658   3.733
15215W        W74311  11.670  22.157   0.271
15216W        W74312  38.555  29.578  13.534
15217W        W74313  22.509  16.674   2.368
15218W        W74314  37.972  28.121   2.387
15219W        W74315  30.918  13.250   0.295
15220W        W74316  42.843  38.018   4.308
15221W        W74317   5.335  32.536   0.348
15222W        W74318  33.473   2.768   2.414
15223W        W74319  25.974  32.584  13.415
15224W        W74320   0.943  31.433  13.954
15225W        W74321  39.966  14.205  10.891
15226W        W74322  44.955  39.471  13.042
15227W        W74323  27.056   4.443   1.361
15228W        W74324  33.498  38.058   4.813
15229W        W74325   5.692   9.333  12.453
15230W        W74326   1.390  16.582  10.591
15231W        W74327  19.118   7.340   1.413
15232W        W74328  14.116  19.681  12.937
15233W        W74329  42.970  29.548   0.402
15234W        W74330  40.932  19.777  11.465
15235W        W74331  40.546  18.061  10.529
15236W        W74332  41.423  41.884   5.204
15237W        W74333  21.122  25.218   0.946
15238W        W74334  42.964  12.792   4.267
15239W        W74335  39.061  27.544   2.688
15240W        W74336  19.667  11.860  12.923
15241W        W74337  17.203   7.665  14.900
15242W        W74338  25.985  40.917   4.330
15243W        W74339   9.309  16.649  14.975
15244W        W74340  20.104  23.496   3.373
15245W        W74341   0.786  10.654   2.268
15246W        W74342  15.180  36.079  11.448
15247W        W74343  27.084  29.144   3.350
15248W        W74344  11.795  38.893  10.119
15249W        W74345  39.878  23.721  13.815
15250W        W74346  34.441  33.433  13.872
15251W        W74347  19.160   8.195  14.998
15252W        W74348  32.066  34.887   5.179
15253W        W74349   0.821   3.245  10.073
15254W        W74350  22.222  14.187  14.019
15255W        W74351  14.245  20.548   3.248
15256W        W74352  22.204  24.565  11.879
15257W        W74353   8.721  38.412  12.533
15258W        W74354   5.690  25.151  12.078
15259W        W74355  22.505  44.963   0.883
15260W        W74356  24.208   3.930   1.837
15261W        W74357   8.704  33.558  14.843
15262W        W74358  25.590  24.059   2.772
15263W        W74359  30.467  31.420  11.399
15264W        W74360  16.307  33.057  12.416
15265W        W74361  30.457  19.273  10.010
15266W        W74362  23.166  27.500   2.317
15267W        W74363  44.908  28.507  12.490
15268W        W74364  16.615  23.626   2.255
15269W        W74365  14.765   9.347  11.477
15270W        W74366  21.726  33.542   1.805
15271W        W74367  36.556  40.338  13.385
15272W        W74368  25.095   4.233   0.740
15273W        W74369  13.175  14.628  13.426
15274W        W74370  12.765  32.053   5.286
15275W        W74371  37.932   3.853  14.334
15276W        W74372  33.066  17.188   1.261
15277W        W74373  21.067  14.736  13.902
15278W        W74374  43.891   4.240  14.769
15279W        W74375  30.145  40.803   0.333
15280W        W74376  43.447  43.807   0.445
15281W        W74377  21.735   7.399  10.997
15282W        W74378   6.754  36.967   2.895
15283W        W74379  15.661  15.285   0.332
15284W        W74380  42.780  41.308  11.457
15285W        W74381  23.648  31.568   0.461
15286W        W74382   0.756  20.161   2.734
15287W        W74383  19.729  34.911  12.537
15288W        W74384  19.776  11.853  13.449
15289W        W74385  25.531   3.416  12.052
15290W        W74386   4.384  43.930   4.353
15291W        W74387  25.992  23.695  13.967
15292W        W74388  28.636   0.279   4.196
15293W        W74389   5.249  14.705  14.776
15294W        W74390  37.998  14.787  14.926
15295W        W74391  10.869  24.659   0.366
15296W        W74392  27.950  21.038  13.862
15297W        W74393   5.779  43.878   1.386
15298W        W74394  37.014  31.086   4.184
15299W        W74395   8.302   1.771   4.229
15300W        W74396  26.036  27.526   4.672
15301W        W74397  20.187  34.391   0.815
15302W        W74398  33.380  16.664  12.471
15303W        W74399  23.141  32.954   2.194
15304W        W74400  15.635   9.706  12.518
15305W        W74401  27.022   6.332  10.463
15306W        W74402  30.064  30.133   0.829
15307W        W74403  14.694  29.081  13.446
15308W        W74404  28.598  14.221   4.250
15309W        W74405  11.369  37.407  12.968
15310W        W74406  40.816  20.687  11.917
15311W        W74407  14.199  26.979   0.770
15312W        W74408  41.434  39.835   0.908
15313W        W74409   3.902  26.115   1.740
15314W        W74410  22.739  18.778   4.795
15315W        W74411  27.488  35.886  10.439
15316W        W74412  24.164  17.205  12.090
15317W        W74413  15.128  22.147   2.901
15318W        W74414  28.666   5.303  12.859
15319W        W74415   7.698  30.952   3.770
15320W        W74416   7.912   8.190   4.333
15321W        W74417  25.154   0.842   3.166
15322W        W74418  29.024  15.811   4.266
15323W        W74419  36.035  20.218  13.410
15324W        W74420  16.290  37.347  10.103
15325W        W74421  20.767  11.221   2.321
15326W        W74422  18.737   2.742  10.558
15327W        W74423   2.428  34.908  11.572
15328W        W74424  13.290   4.771  13.038
15329W        W74425  26.120  20.076   0.392
15330W        W74426  41.999   7.390  14.907
15331W        W74427  33.004   9.681   4.808
15332W        W74428  40.984  13.644  13.047
15333W        W74429   2.720  19.649  13.866
15334W        W74430   0.434  25.489  12.040
15335W        W74431  31.925  32.578  11.504
15336W        W74432  33.883  12.790   3.231
15337W        W74433  17.720  10.694   1.827
15338W        W74434  38.011  33.897  14.423
15339W        W74435   2.862  37.833  11.064
15340W        W74436   1.826  32.574   4.637
15341W        W74437  44.994   2.312  12.379
15342W        W74438   9.326   1.952   4.656
15343W        W74439   2.868   1.380  11.878
15344W        W74440   1.382   4.924   1.255
15345W        W74441  21.165  37.939   0.958
15346W        W74442   9.177   6.351  10.901
15347W        W74443  27.187  16.605   3.709
15348W        W74444  34.554  38.486  12.987
15349W        W74445  26.680   7.172   0.895
15350W        W74446   6.914  39.512  12.944
15351W        W74447  42.865  42.393  10.891
15352W        W74448   6.411  30.085  11.378
15353W        W74449   9.794  35.940   3.726
15354W        W74450  30.436  39.031  12.465
15355W        W74451  44.835  22.618  11.058
15356W        W74452  44.423  41.891  13.062
15357W        W74453  33.923   6.890  12.046
15358W        W74454   3.821   4.255  12.076
15359W        W74455  20.550  37.383  14.431
15360W        W74456  10.369  31.957   9.642
15361W        W74457   9.691  37.352  14.856
15362W        W74458  21.597   7.198   3.267
15363W        W74459  37.489  37.491   3.194
15364W        W74460  40.393   5.364   3.247
15365W        W74461   6.807   0.927   4.160
15366W        W74462   6.207  27.672   1.302
15367W        W74463  18.197  17.594  12.944
15368W        W74464  18.131  43.969   0.292
15369W        W74465  36.520  16.178  10.027
15370W        W74466   3.310  32.526  13.952
15371W        W74467  10.216  41.422  12.506
15372W        W74468   8.279   7.349   1.773
15373W        W74469  18.664  21.100   3.240
15374W        W74470  44.841   8.796  12.053
15375W        W74471  36.450  16.213   0.430
15376W        W74472  33.521   9.834   3.838
15377W        W74473  21.719   6.283  10.416
15378W        W74474   4.289  43.919  14.304
15379W        W74475   8.698  20.644   4.171
15380W        W74476   0.366  25.587  13.865
15381W        W74477  30.525  28.053   1.434
15382W        W74478  18.221  21.731   2.760
15383W        W74479  27.032  28.140   4.290
15384W        W74480  42.290  28.600   4.763
15385W        W74481  39.894  40.459  11.591
15386W        W74482  26.628   9.293  13.472
15387W        W74483  23.735   4.423  13.015
15388W        W74484  39.061  18.726   0.330
15389W        W74485  26.103  40.893   2.773
15390W        W74486   0.259  40.502  13.449
15391W        W74487  15.290  35.584  12.434
15392W        W74488  27.574  28.471   1.366
15393W        W74489  14.620  42.342  10.568
15394W        W74490   0.785  16.073  12.029
15395W        W74491  40.815  44.858   3.365
15396W        W74492  14.638  33.054   1.888
15397W        W74493  11.725   0.329   2.672
15398W        W74494  17.561  10.338  12.856
15399W        W74495  22.179  20.603  11.387
15400W        W74496  18.574  10.648  11.054
15401W        W74497   4.829  28.638  14.492
15402W        W74498   1.857  11.145  11.546
15403W        W74499  37.967  43.483  11.997
15404W        W74500  31.896  11.292   4.270
15405W        W74501  19.158  29.644   4.131
15406W        W74502  13.781  15.589   0.480
15407W        W74503  16.194  10.733   4.269
15408W        W74504  41.381  24.218  13.985
15409W        W74505  17.778  17.708   1.851
15410W        W74506  30.123  23.658   3.803
15411W        W74507   5.772  22.696   3.684
15412W        W74508   6.911  12.625   4.250
15413W        W74509   4.255   0.424  14.435
15414W        W74510  14.175  30.997  11.907
15415W        W74511  13.223  39.033   4.195
15416W        W74512  25.482  13.231  14.001
15417W        W74513  31.427  21.665  10.896
15418W        W74514  31.005  40.953   4.264
15419W        W74515  31.446  29.567   0.864
15420W        W74516   5.359   9.677  13.985
15421W        W74517  27.128  32.915   2.892
15422W        W74518  33.494  31.577  10.497
15423W        W74519   7.355  43.381  12.853
15424W        W74520   7.766  32.545  13.912
15425W        W74521   4.712   0.492   0.730
15426W        W74522  44.313  31.013   1.210
15427W        W74523   8.795  10.781   4.120
15428W        W74524  13.119  33.394   0.251
15429W        W74525   7.863  44.335   5.236
15430W        W74526  12.335   4.944   3.216
15431W        W74527   4.871  33.072   3.161
15432W        W74528   9.864   4.300   1.258
15433W        W74529  42.400  14.737  12.029
15434W        W74530   5.858  10.216  14.950
15435W        W74531  35.940  44.301   2.711
15436W        W74532  16.221  40.829   2.811
15437W        W74533   8.771  43.914  11.039
15438W        W74534  24.113   5.865   1.794
15439W        W74535  37.526  40.404   0.320
15440W        W74536  32.023  13.222   0.369
15441W        W74537  32.523  24.100   3.256
15442W        W74538  29.596  11.249   1.362
15443W        W74539  28.092   4.445  12.414
15444W        W74540   7.706  27.988  12.000
15445W        W74541  33.434  31.087   2.875
15446W        W74542  44.289  28.075   1.725
15447W        W74543  40.342   9.309  10.430
15448W        W74544  42.849  35.390  14.935
15449W        W74545  13.650   5.732   0.377
15450W        W74546   9.333  18.257   2.772
15451W        W74547  11.134  11.207  13.937
15452W        W74548  40.375  33.619  10.963
15453W        W74549   8.229   6.860  14.443
15454W        W74550  23.504  35.095  12.399
15455W        W74551  21.247  10.788   1.913
15456W        W74552  26.576  29.084  13.496
15457W        W74553  24.581  37.437  10.985
15458W        W74554   2.303   3.845   4.120
15459W        W74555  24.595   7.354  13.917
15460W        W74556  29.571  12.674   1.335
15461W        W74557  38.982  25.083  12.061
15462W        W74558  29.554  11.623  10.121
15463W        W74559  39.504  34.088  11.875
15464W        W74560  41.844  23.682  11.042
15465W        W74561  15.198  15.731  13.475
15466W        W74562  34.449  11.763  14.806
15467W        W74563  35.969  40.403  13.537
15468W        W74564  34.876  35.084   0.796
15469W        W74565  17.184  38.886  11.398
15470W        W74566  42.873   9.175  10.610
15471W        W74567   6.347  35.501   3.760
15472W        W74568  23.139  35.919  12.837
15473W        W74569   4.222  33.516  12.977
15474W        W74570   1.886  13.208  13.001
15475W        W74571  10.789  31.135  11.087
15476W        W74572  20.571  29.116  14.461
15477W        W74573  43.772  41.981  10.930
15478W        W74574  15.719  37.346  12.979
15479W        W74575  16.786   4.383  14.771
15480W        W74576   9.362  12.812   4.235
15481W        W74577  34.065  32.477  14.450
15482W        W74578   4.219  37.969   1.780
15483W        W74579  28.939  28.130  13.403
15484W        W74580  22.619  30.043  13.446
15485W        W74581  42.451   5.827   1.253
15486W        W74582  19.229  21.640  11.058
15487W        W74583   7.312  12.710   4.785
15488W        W74584   0.985  26.112   4.730
15489W        W74585  25.495  20.037  12.875
15490W        W74586   6.300   2.820  10.952
15491W        W74587  36.868   3.398   0.386
15492W        W74588   2.946  29.574  14.855
15493W        W74589  42.861  13.609  10.638
15494W        W74590  23.502   5.732   1.382
15495W        W74591  30.658  38.924   2.723
15496W        W74592  32.628  15.690  14.765
15497W        W74593  22.745  31.020   2.787
15498W        W74594   2.868  27.503  12.998
15499W        W74595  30.624  10.773   3.159
15500W        W74596  25.178  26.514  14.314
15501W        W74597  25.612  27.133  14.962
15502W        W74598  42.026  39.359  10.939
15503W        W74599  38.944  36.996  10.558
15504W        W74600  28.005  16.171   4.323
15505W        W74601  12.331  10.373  13.536
15506W        W74602  38.893  21.512  13.410
15507W        W74603  18.059  23.703  14.298
15508W        W74604  20.551  42.795   3.646
15509W        W74605  40.885  31.999  11.480
15510W        W74606  27.157  39.465   3.273
15511W        W74607   9.724  10.216  12.845
15512W        W74608  11.175  44.371  11.126
15513W        W74609  20.053  34.521   4.811
15514W        W74610  23.063   3.231  14.846
15515W        W74611  35.904  21.197   3.147
15516W        W74612  17.573  26.093  11.092
15517W        W74613  30.626  15.289  12.348
15518W        W74614  21.540   7.869  10.464
15519W        W74615  38.922  36.954   0.955
15520W        W74616  20.109  29.043  10.135
15521W        W74617  30.637  22.234  11.974
15522W        W74618  36.410   6.337  10.043
15523W        W74619  30.077  34.903  13.926
15524W        W74620  35.498   8.780   4.332
15525W        W74621  37.544  24.981   2.686
15526W        W74622  11.852  26.970  12.475
15527W        W74623  17.295  30.072  13.521
15528W        W74624  40.386   6.689  10.635
15529W        W74625  23.027   0.942   4.661
15530W        W74626  11.204   8.814  12.406
15531W        W74627   6.709  29.642   0.745
15532W        W74628  10.353  21.721   3.351
15533W        W74629  29.098  31.954  11.461
15534W        W74630  21.661  11.737  11.049
15535W        W74631  10.865  15.619   1.839
15536W        W74632  24.119  36.852   4.741
15537W        W74633  18.194   5.311   3.863
15538W        W74634  21.218  40.345  12.954
15539W        W74635  16.735   1.779   1.847
15540W        W74636  30.637   2.302  13.459
15541W        W74637  18.164  41.829  14.925
15542W        W74638  17.780  32.422  14.917
15543W        W74639  11.162  42.942   1.369
15544W        W74640   7.322   2.769  11.554
15545W        W74641  32.503  40.039  14.365
15546W        W74642  12.753   0.398  12.845
15547W        W74643  44.814  23.093   0.435
15548W        W74644  38.517   4.338   1.865
15549W        W74645  43.773  30.615   3.775
15550W        W74646  43.854  28.544  12.422
15551W        W74647   5.355  11.299   1.246
15552W        W74648  39.552  31.105  14.495
15553W        W74649  18.292   2.309   3.325
15554W        W74650  33.485  30.947  10.589
15555W        W74651  44.985  20.031  11.938
15556W        W74652  23.999  43.921   0.794
15557W        W74653  22.102  19.719   3.353
15558W        W74654   1.924  26.171   4.692
15559W        W74655  43.823  34.958   3.709
15560W        W74656  33.601  26.169   4.765
15561W        W74657  32.516  39.912   0.408
15562W        W74658  34.944  15.268  12.842
15563W        W74659  26.059  13.664   1.274
15564W        W74660  11.277  36.550  11.550
15565W        W74661  34.608  21.242   1.371
15566W        W74662  22.085  32.917  11.606
15567W        W74663  12.151  36.844  14.363
15568W        W74664   2.298  12.623  14.029
15569W        W74665  12.685  30.002  11.880
15570W        W74666  34.385  23.183  14.317
15571W        W74667  34.589  26.185   1.785
15572W        W74668  36.888  19.547   2.781
15573W        W74669   6.712  37.543   2.814
15574W        W74670  41.516  27.502  14.430
15575W        W74671  20.698   4.882  14.309
15576W        W74672  34.540   4.407   1.803
15577W        W74673   1.392  35.521   4.610
15578W        W74674  33.974  26.517   4.172
15579W        W74675  29.994  26.060   4.142
15580W        W74676   5.383  32.004   0.864
15581W        W74677   6.829  41.411   3.364
15582W        W74678  31.629  26.091   0.285
15583W        W74679  29.142  24.710  11.103
15584W        W74680  32.607  30.157   3.356
15585W        W74681  42.422  16.247  12.872
15586W        W74682   4.810  20.722  11.934
15587W        W74683  20.616   8.313   2.817
15588W        W74684  36.086  42.461   0.851
15589W        W74685   0.887  31.111   4.339
15590W        W74686  13.332  44.980  11.060
15591W        W74687   0.277  10.206   0.265
15592W        W74688  12.212  14.203   1.803
15593W        W74689  31.630   1.767  13.978
15594W        W74690   6.360  38.005   3.330
15595W        W74691  39.973  32.135   2.789
15596W        W74692  38.067  43.352   4.678
15597W        W74693  31.083   6.746  12.456
15598W        W74694   1.328   0.791  14.423
15599W        W74695  24.047  36.554  14.461
15600W        W74696  19.235  24.587  14.812
15601W        W74697   8.867  16.715   0.907
15602W        W74698  11.645  22.028   1.381
15603W        W74699  43.766  12.710  11.420
15604W        W74700  42.523  31.137  11.884
15605W        W74701  11.150  20.042  14.967
15606W        W74702  38.391  34.384   0.437
15607W        W74703  19.052  26.542  14.482
15608W        W74704  29.646   0.427   2.742
15609W        W74705  35.018   4.227   2.269
15610W        W74706  37.839   3.851  12.341
15611W        W74707   9.343  19.201  11.009
15612W        W74708  17.763   4.734   4.794
15613W        W74709  12.818   7.253  11.889
15614W        W74710  34.430  12.830   0.390
15615W        W74711   0.937  25.601   2.203
15616W        W74712  39.487  18.729   3.730
15617W        W74713  20.123  16.599  11.017
15618W        W74714  41.867  24.147   2.832
15619W        W74715  10.790  31.015   1.311
15620W        W74716  18.137  26.461  14.932
15621W        W74717  31.112   4.920   3.785
15622W        W74718   6.197  14.210  11.442
15623W        W74719   2.885  20.038  10.911
15624W        W74720  13.273  11.366  14.879
15625W        W74721  32.496   5.696  10.644
15626W        W74722  22.170  29.959  12.065
15627W        W74723  40.337  31.930  10.053
15628W        W74724  26.097  17.168  12.078
15629W        W74725  10.368  13.731  10.125
15630W        W74726  41.524  43.323   1.269
15631W        W74727   3.251  16.137   2.204
15632W        W74728  10.714  13.331   3.651
15633W        W74729  19.586  13.646   2.273
15634W        W74730  29.016  37.854   2.744
15635W        W74731  36.980  34.375   0.258
15636W        W74732  21.146   3.828  13.046
15637W        W74733  37.973  44.989   4.348
15638W        W74734  23.155  24.569   3.323
15639W        W74735   6.783  29.658  13.806
15640W        W74736  32.472  14.733  10.970
15641W        W74737  13.325  13.844   2.407
15642W        W74738   7.839  39.450   3.243
15643W        W74739  15.169   9.835   0.345
15644W        W74740  31.949   1.738  13.447
15645W        W74741  15.100  23.198   0.375
15646W        W74742  41.974  28.452  11.996
15647W        W74743  34.915  39.943  10.914
15648W        W74744  42.949   0.931  11.608
15649W        W74745  29.124   5.426  10.553
15650W        W74746  37.568  21.694   0.319
15651W        W74747  42.010  22.995  12.949
15652W        W74748   8.393  15.623   1.834
15653W        W74749  32.058  44.973  11.911
15654W        W74750   7.677  28.148  13.032
15655W        W74751   3.402  22.145  11.941
15656W        W74752  22.700  37.437  14.840
15657W        W74753  33.081  21.529   3.263
15658W        W74754   0.474  15.747  10.574
15659W        W74755  43.933  25.175   1.878
15660W        W74756   3.804  22.704  13.895
15661W        W74757  22.711  24.484   0.866
15662W        W74758  22.562   1.279  14.405
15663W        W74759  18.637  17.259   2.234
15664W        W74760   6.245  41.391  11.971
15665W        W74761  27.572  32.438   2.718
15666W        W74762  29.629  38.390  11.398
15667W        W74763  24.662   9.331   1.406
15668W        W74764  10.263  32.885  11.436
15669W        W74765   7.828  29.010  11.123
15670W        W74766  21.688  14.270   1.877
15671W        W74767   0.871  33.389   3.691
15672W        W74768  12.167  30.466   0.789
15673W        W74769  11.263  11.721  13.831
15674W        W74770  34.923  10.299  13.956
15675W        W74771   3.398   9.717  13.360
15676W        W74772  18.580  26.493  10.586
15677W        W74773  20.236   5.818   0.873
15678W        W74774  18.569  12.176  12.901
15679W        W74775  14.209  34.485  13.852
15680W        W74776  11.824  28.616   0.942
15681W        W74777  28.023  27.009   3.630
15682W        W74778  15.671  40.355   5.226
15683W        W74779  27.663  32.419   1.911
15684W        W74780  28.089  30.918  11.922
15685W        W74781   2.359  41.522   4.646
15686W        W74782   0.876  36.553  13.469
15687W        W74783  38.832  22.538   4.169
15688W        W74784  22.154  32.579   2.760
15689W        W74785  23.640  34.120  10.458
15690W        W74786   6.705  21.718   4.790
15691W        W74787  16.785  33.090  12.448
15692W        W74788  24.980   9.304   1.376
15693W        W74789  26.973  27.080  11.574
15694W        W74790  43.918  34.608   2.313
15695W        W74791   2.256  22.576  10.037
15696W        W74792  24.543   4.249   2.313
15697W        W74793  27.940  32.519  13.931
15698W        W74794  26.494  34.935   0.303
15699W        W74795  25.526  40.887  12.432
15700W        W74796  42.365  20.571  12.044
15701W        W74797  41.801   7.338   1.312
15702W        W74798  10.821   1.297   2.794
15703W        W74799  37.000  34.939   1.211
15704W        W74800   7.868  12.851   2.733
15705W        W74801  42.502  37.564  13.900
15706W        W74802  35.598  24.034  10.995
15707W        W74803  23.106   1.408   0.255
15708W        W74804  12.182   5.251  13.897
15709W        W74805  39.930  25.002   2.758
15710W        W74806  10.736  22.140  14.499
15711W        W74807  23.007  10.342  13.909
15712W        W74808   1.311  14.225   1.384
15713W        W74809   3.844  44.355   4.202
15714W        W74810  21.030  21.652   5.158
15715W        W74811  21.560  22.696  12.383
15716W        W74812  34.563  33.877   1.913
15717W        W74813  41.794  35.386   1.904
15718W        W74814  29.104  20.239   0.478
15719W        W74815  14.106  42.879   1.863
15720W        W74816  18.784   5.260   4.338
15721W        W74817  18.661  25.052   9.966
15722W        W74818  19.672  20.703  13.928
15723W        W74819  19.614  37.512   0.731
15724W        W74820   2.836  36.024   4.315
15725W        W74821  32.978  18.550   1.759
15726W        W74822   9.797   8.257  13.474
15727W        W74823  38.922   1.319  11.458
15728W        W74824  15.241  24.216   2.816
15729W        W74825  17.204  37.534   1.726
15730W        W74826  31.465  12.725  12.410
15731W        W74827  40.874  40.965  14.313
15732W        W74828  42.327   5.722  11.546
15733W        W74829  13.220  23.106  11.408
15734W        W74830  41.964   3.301   2.781
15735W        W74831  19.074   7.215  13.511
15736W        W74832  29.073  19.736   1.267
15737W        W74833  32.098  41.032  12.957
15738W        W74834  16.743  27.590  10.642
15739W        W74835   3.926  26.479   1.803
15740W        W74836  30.113  21.055   4.337
15741W        W74837  37.418  27.974   1.773
15742W        W74838  27.166   4.276   4.264
15743W        W74839   8.862  32.534  13.793
15744W        W74840  18.647   4.925   4.761
15745W        W74841  28.131   2.783   2.262
15746W        W74842   7.325   3.425   4.154
15747W        W74843  29.607  39.347   4.164
15748W        W74844  29.571   4.316  11.394
15749W        W74845   9.880  30.653   2.284
15750W        W74846   0.747  18.161  11.931
15751W        W74847  10.810  14.762  13.882
15752W        W74848  37.355  31.084   2.349
15753W        W74849   7.893  37.381  12.857
15754W        W74850  28.585  39.526  11.550
15755W        W74851   5.247  19.065  13.837
15756W        W74852  27.141   7.730  13.986
15757W        W74853   4.868  35.050  11.875
15758W        W74854   5.865  29.047   3.791
15759W        W74855  35.415  25.114   2.707
15760W        W74856   1.334   4.888  11.027
15761W        W74857  44.434  30.026  11.550
15762W        W74858  18.647  37.449   0.343
15763W        W74859  34.371  36.542  11.579
15764W        W74860  24.221  34.011   4.615
15765W        W74861  44.912  11.138   1.309
15766W        W74862  41.951  41.312   0.287
15767W        W74863  16.169  43.864   3.333
15768W        W74864  44.979  27.986   1.754
15769W        W74865  37.350  33.051   1.862
15770W        W74866   7.896   3.711   4.736
15771W        W74867  23.008   6.903   2.844
15772W        W74868   3.338   4.258   3.282
15773W        W74869  21.594  22.738   4.819
15774W        W74870  39.000   5.792   3.332
15775W        W74871  21.663  38.965  13.930
15776W        W74872  44.909   6.689  13.041
15777W        W74873  22.129   3.263  11.515
15778W        W74874  14.666  38.519   0.939
15779W        W74875  23.041  39.335   4.347
15780W        W74876   4.867  39.907   3.249
15781W        W74877  20.615  28.094  10.479
15782W        W74878  29.937  35.933   0.372
15783W        W74879  15.592   8.675  10.448
15784W        W74880  14.720   0.248  13.307
15785W        W74881  21.039   3.257  14.309
15786W        W74882   9.159   4.832  12.001
15787W        W74883  30.037   6.355  13.037
15788W        W74884   5.214  27.627  12.862
15789W        W74885  37.417  35.361  12.494
15790W        W74886  24.585  44.279   4.143
15791W        W74887  37.386   4.713  13.948
15792W        W74888  19.643  14.221   0.407
15793W        W74889  43.924  13.643  11.073
15794W        W74890  38.833  36.416  13.385
15795W        W74891   6.411  41.372   1.275
15796W        W74892  22.036  29.032  11.020
15797W        W74893  27.132  41.367  14.333
15798W        W74894  32.936  24.983  10.461
15799W        W74895  22.518  42.919  12.551
15800W        W74896  11.642  33.909  14.449
15801W        W74897  28.679   4.766  14.909
15802W        W74898   1.937  33.429   2.274
15803W        W74899  10.811   4.448   0.367
15804W        W74900  19.076  29.593  10.460
15805W        W74901   5.688  15.653   0.917
15806W        W74902   7.862   0.813   5.255
15807W        W74903   6.350  44.391   1.728
15808W        W74904  44.487  21.563   2.821
15809W        W74905  13.177  24.549   0.765
15810W        W74906  26.956  17.179   1.275
15811W        W74907  41.440  20.713   1.923
15812W        W74908  25.672   1.406   3.797
15813W        W74909  16.146   2.801   2.697
15814W        W74910  38.491  18.572  14.442
15815W        W74911  26.164  23.645   4.766
15816W        W74912  35.524   6.296   1.780
15817W        W74913  37.413  19.542   3.853
15818W        W74914   3.762  41.800  12.525
15819W        W74915   1.428   2.879  13.348
15820W        W74916  12.679  36.568   3.372
15821W        W74917  30.581  19.603  10.583
15822W        W74918  40.938   8.274  13.372
15823W        W74919   9.274  37.985   3.827
15824W        W74920  27.941  27.691   1.774
15825W        W74921  23.158   7.835   1.447
15826W        W74922  38.937   3.731   2.251
15827W        W74923  42.348  18.751   4.124
15828W        W74924  29.951  30.157   4.612
15829W        W74925   8.355  29.500  11.855
15830W        W74926  27.632  33.056  11.424
15831W        W74927  42.350  19.742  12.912
15832W        W74928  14.097  23.617  11.539
15833W        W74929  24.697  18.577   5.682
15834W        W74930  24.597  39.419  14.769
15835W        W74931  14.232   7.319  10.596
15836W        W74932  12.278  13.721   3.339
15837W        W74933   0.858  12.705   0.741
15838W        W74934  40.498  16.092  11.569
15839W        W74935  33.618   5.859   4.192
15840W        W74936  29.601  12.619  11.477
15841W        W74937  17.601   3.814   0.446
15842W        W74938  14.098   2.759   4.145
15843W        W74939   3.736   5.220   4.769
15844W        W74940   7.401  29.061  10.487
15845W        W74941  41.299  31.032  13.395
15846W        W74942  27.523  20.702   1.872
15847W        W74943  42.489  19.265   4.334
15848W        W74944  22.195  35.038   2.286
15849W        W74945  29.092  16.257   3.655
15850W        W74946  11.346   6.408  12.970
15851W        W74947  22.011   3.224   2.308
15852W        W74948  40.411  19.736   0.466
15853W        W74949  27.096  43.962   0.890
15854W        W74950  36.025  37.869  11.441
15855W        W74951  22.230  22.690   4.127
15856W        W74952   5.860  34.546   2.816
15857W        W74953  42.453  38.944   1.240
15858W        W74954  35.929  19.139   0.463
15859W        W74955  35.516  30.065  11.999
15860W        W74956  38.974  28.616  14.961
15861W        W74957  22.522  42.916  14.883
15862W        W74958  37.388  25.700  11.935
15863W        W74959   2.749  14.206  14.932
15864W        W74960  38.507  12.347   5.684
15865W        W74961   4.445  41.422   1.863
15866W        W74962  31.042  30.117  11.101
15867W        W74963  34.519   3.454   1.806
15868W        W74964  16.570  13.110   3.848
15869W        W74965  38.031  29.131  12.579
15870W        W74966  29.640  14.159   2.409
15871W        W74967  25.964  39.890   2.209
15872W        W74968   4.339   0.786   1.333
15873W        W74969  15.712  36.961  14.290
15874W        W74970  38.910  32.128   1.831
15875W        W74971  28.994  22.035   4.307
15876W        W74972  40.840  39.499   4.787
15877W        W74973  32.961  13.775  11.033
15878W        W74974  42.877   1.757  14.932
15879W        W74975   7.831  41.041  14.936
15880W        W74976  37.991  32.468  13.957
15881W        W74977  16.630  10.708   3.795
15882W        W74978  44.826   6.268   2.259
15883W        W74979  21.193  33.578   4.678
15884W        W74980  20.663  28.631  13.894
15885W        W74981  41.950  19.715   3.319
15886W        W74982  41.452  43.501   3.660
15887W        W74983  24.577  32.423  11.036
15888W        W74984  29.604   2.452   2.872
15889W        W74985  16.201  15.652   9.992
15890W        W74986  24.711  20.079  12.914
15891W        W74987   4.275  43.015   1.241
15892W        W74988  10.339  42.440   3.185
15893W        W74989  13.326  17.558  11.447
15894W        W74990   3.260  29.534   3.259
15895W        W74991  20.600  17.582  13.865
15896W        W74992  27.146   2.839  13.968
15897W        W74993  24.983  37.549   1.838
15898W        W74994  40.852  36.994   1.806
15899W        W74995  14.723  30.628  13.001
15900W        W74996  15.736  40.036  14.458
15901W        W74997  44.414   8.378   4.159
15902W        W74998  23.089  37.382  13.459
15903W        W74999  28.967  40.339   4.736
15904W        W75000  39.535  33.590   4.714
15905W        W75001  40.888  41.460   3.851
15906W        W75002  21.184  43.444  10.611
15907W        W75003  42.852  13.606   0.325
15908W        W75004  27.592   2.298   0.304
15909W        W75005  17.126  14.142  14.021
15910W        W75006   6.326   7.757  11.066
15911W        W75007  21.593  19.741   3.697
15912W        W75008  30.524  28.178  13.424
15913W        W75009  17.072  24.219   1.722
15914W        W75010  40.391  13.694   2.824
15915W        W75011  31.477  40.919  13.921
15916W        W75012  19.182  13.299   1.761
15917W        W75013  11.246   6.348   1.408
15918W        W75014  11.216  10.707   3.276
15919W        W75015   1.795  19.193  12.930
15920W        W75016  23.058   4.298  13.343
15921W        W75017   6.918  40.924  13.044
15922W        W75018   6.883  14.800   4.622
15923W        W75019   0.958  29.519  10.981
15924W        W75020  35.553   2.869   3.357
15925W        W75021  43.022   1.438   3.870
15926W        W75022  42.894  26.156   2.759
15927W        W75023  12.840  11.286   1.929
15928W        W75024  41.924  25.055   1.711
15929W        W75025  34.415  26.154  12.015
15930W        W75026  15.608  25.636   3.732
15931W        W75027  23.654   2.270   3.634
15932W        W75028  14.654  41.824   3.778
15933W        W75029  29.647   9.234  11.907
15934W        W75030  38.992  41.859  13.968
15935W        W75031  21.526  12.281   1.893
15936W        W75032  43.296  33.530   3.289
15937W        W75033   9.192  22.556   1.243
15938W        W75034   3.942  31.411   0.346
15939W        W75035  41.366  37.568   4.673
15940W        W75036   0.397   4.305   3.303
15941W        W75037   3.249  29.000   3.230
15942W        W75038  15.813  25.027   4.324
15943W        W75039   3.241  42.394  10.644
15944W        W75040  39.918   8.172   9.988
15945W        W75041  37.409  19.112  12.095
15946W        W75042   2.729   4.937   3.150
15947W        W75043   1.254  31.597   3.325
15948W        W75044  28.009  41.398  10.502
15949W        W75045   6.401  34.521  11.107
15950W        W75046  22.050  19.615   3.812
15951W        W75047  28.944   4.349  11.073
15952W        W75048  32.934  38.065   3.306
15953W        W75049  42.832  44.790  13.415
15954W        W75050   2.302   3.855   2.404
15955W        W75051  20.645  19.139   3.150
15956W        W75052   5.761  15.658  14.512
15957W        W75053   1.779  14.248   3.794
15958W        W75054  21.726  35.996  11.425
15959W        W75055  27.606  18.714  10.641
15960W        W75056  36.933  44.460   4.296
15961W        W75057  27.997  14.327   3.688
15962W        W75058  14.200  20.596  14.470
15963W        W75059   6.767  43.899  12.377
15964W        W75060  14.676   4.714   2.271
15965W        W75061  20.659   3.776   2.809
15966W        W75062  28.127  27.001  13.996
15967W        W75063  25.482  34.508  14.354
15968W        W75064  35.540  33.447  12.050
15969W        W75065   1.905  25.622  13.905
15970W        W75066   5.288   5.748  11.457
15971W        W75067  10.747   4.901  14.922
15972W        W75068  28.021  23.607  14.996
15973W        W75069  40.315  18.566   2.239
15974W        W75070  33.614   4.262  12.454
15975W        W75071  23.715  11.647  11.558
15976W        W75072   8.163   2.874  11.066
15977W        W75073   9.797  13.745   1.234
15978W        W75074  44.881  18.655  13.897
15979W        W75075   0.961  14.174   0.264
15980W        W75076  31.421  35.939   1.313
15981W        W75077  44.851  33.874   1.450
15982W        W75078  11.683  37.980   1.215
15983W        W75079   6.846  23.197  12.898
15984W        W75080  14.694   1.906   1.262
15985W        W75081  17.211   1.384  11.077
15986W        W75082  25.594  20.718  12.472
15987W        W75083  31.600  38.386  14.953
15988W        W75084  43.781  43.952  12.087
15989W        W75085   2.263   2.362  13.866
15990W        W75086  19.139   7.330  14.309
15991W        W75087  26.199  14.658   0.737
15992W        W75088  13.669   9.161   3.676
15993W        W75089  39.390  22.526   0.920
15994W        W75090  30.919  14.325   4.616
15995W        W75091   2.421  44.773  13.962
15996W        W75092  38.477  31.407  14.848
15997W        W75093  32.623   5.811  12.875
15998W        W75094  23.705  21.750   2.887
15999W        W75095  43.867  14.597  11.374
16000W        W75096   7.754  30.964  12.064
16001W        W75097  10.172  24.695  11.097
16002W        W75098  36.489   8.211  13.968
16003W        W75099   0.784  15.814  12.901
16004W        W75100   6.199  40.853  11.974
16005W        W75101  41.394  39.043   0.925
16006W        W75102  42.896  30.462  12.954
16007W        W75103  38.858  14.696   3.214
16008W        W75104  16.784  42.932  12.954
16009W        W75105  28.990  10.155   1.228
16010W        W75106   7.873  26.509   3.714
16011W        W75107  28.634  43.485  10.950
16012W        W75108  34.943  34.070  13.048
16013W        W75109  20.561  13.153  13.528
16014W        W75110  39.317  15.794   3.347
16015W        W75111  15.794   9.260   0.307
16016W        W75112  34.013  28.094  10.986
16017W        W75113  31.468   0.920   2.293
16018W        W75114  32.955  27.952   4.691
16019W        W75115  42.860  37.855  11.037
16020W        W75116  38.559  33.934  12.357
16021W        W75117   9.756  15.284   3.695
16022W        W75118  33.063  20.219  11.538
16023W        W75119  20.166  22.667  12.864
16024W        W75120  29.966  15.177  12.349
16025W        W75121  42.474   1.885  12.380
16026W        W75122  37.370  32.924   1.365
16027W        W75123  33.419  17.208  11.891
16028W        W75124  22.007  23.240  12.546
16029W        W75125  40.952  17.217  12.456
16030W        W75126  15.295  18.575   4.677
16031W        W75127   6.832   7.209   2.393
16032W        W75128  31.117  22.024   1.897
16033W        W75129  30.496  37.523   2.763
16034W        W75130  34.928  36.913  12.094
16035W        W75131   4.748  22.589  13.884
16036W        W75132  12.194   4.888  11.951
16037W        W75133  27.969   5.224   3.813
16038W        W75134   6.856  32.580   3.758
16039W        W75135   7.244  40.536   1.226
16040W        W75136  31.405   7.860   0.475
16041W        W75137  30.618  12.768   2.255
16042W        W75138  24.224  28.548  12.987
16043W        W75139  31.411  18.232   0.828
16044W        W75140  14.206  33.596   4.610
16045W        W75141  38.005  31.041  12.493
16046W        W75142  44.972  22.648  13.952
16047W        W75143  12.215  29.998  14.771
16048W        W75144  11.815  28.479   4.302
16049W        W75145  11.177  15.756   1.246
16050W        W75146  19.044   2.930  12.968
16051W        W75147  33.939  27.140   5.705
16052W        W75148  11.287  22.540  14.879
16053W        W75149  22.196  25.598   2.266
16054W        W75150   1.417  17.790   2.744
16055W        W75151  11.210  12.116   0.334
16056W        W75152   3.892  40.469  12.524
16057W        W75153  25.186  41.825   5.097
16058W        W75154  43.817  25.138   1.352
16059W        W75155   8.404  37.969  14.919
16060W        W75156   9.799  24.208  13.933
16061W        W75157   6.335  24.987   2.267
16062W        W75158  14.153  37.470   1.790
16063W        W75159   8.196   6.912  12.073
16064W        W75160  33.406  30.499   1.717
16065W        W75161  13.188  30.590   5.693
16066W        W75162  40.370  23.500   3.378
16067W        W75163  41.503  16.752   1.346
16068W        W75164   5.835  13.607   3.340
16069W        W75165  28.183  37.853   4.630
16070W        W75166  15.739  26.036  13.343
16071W        W75167  41.414  24.165  12.444
16072W        W75168  20.138  44.457   5.186
16073W        W75169  22.094  17.583  13.036
16074W        W75170   6.225  40.534   0.422
16075W        W75171  21.534  37.837   1.419
16076W        W75172  42.408  26.100   3.172
16077W        W75173  17.765  35.931   0.350
16078W        W75174  15.612  11.749   2.816
16079W        W75175  22.567   7.299   0.874
16080W        W75176  22.207  29.175   4.321
16081W        W75177  26.660  30.449  11.105
16082W        W75178  16.678   9.279  11.534
16083W        W75179  37.041  44.395   0.745
16084W        W75180  26.655  19.621   2.217
16085W        W75181   6.681  25.491  11.425
16086W        W75182  14.762  16.701   1.720
16087W        W75183  36.379  12.254  11.372
16088W        W75184  33.953  43.403  13.433
16089W        W75185  39.450  30.992   4.832
16090W        W75186  16.309  18.747  12.562
16091W        W75187  35.009  33.086   1.423
16092W        W75188  44.302  42.997  13.899
16093W        W75189  30.579  10.199  12.943
16094W        W75190  38.451  22.724  14.029
16095W        W75191  18.217  35.860  13.996
16096W        W75192  10.699   2.309   2.194
16097W        W75193  19.714   2.884   2.418
16098W        W75194  41.795  39.316   2.725
16099W        W75195  14.203  18.163  12.364
16100W        W75196   6.411  38.451   0.867
16101W        W75197  44.371  42.898  13.517
16102W        W75198  22.741   0.760  10.059
16103W        W75199  11.775  36.427   4.293
16104W        W75200  38.523  31.491   2.678
16105W        W75201   8.857  12.153  10.983
16106W        W75202  32.940  38.072   2.756
16107W        W75203  42.390  25.026  12.401
16108W        W75204  42.971  27.052   4.721
16109W        W75205  32.591  36.062   3.678
16110W        W75206   3.823  39.992   0.809
16111W        W75207  13.208  14.640  12.083
16112W        W75208  16.786   2.333   0.457
16113W        W75209  38.530  41.356   0.934
16114W        W75210  22.013   6.842   1.329
16115W        W75211   1.834  17.282   4.751
16116W        W75212  33.399  21.558  11.471
16117W        W75213  32.486   9.740  13.956
16118W        W75214  18.095  18.131   2.892
16119W        W75215  32.454   0.396   0.474
16120W        W75216  26.169  15.776   4.182
16121W        W75217  15.686  29.482  10.553
16122W        W75218  37.516  30.963   2.820
16123W        W75219  29.122  34.061   1.788
16124W        W75220   5.264  13.629  14.790
16125W        W75221  11.285   2.464   0.321
16126W        W75222  29.567   8.730  12.414
16127W        W75223  13.217  31.040   2.900
16128W        W75224  23.058   8.683  13.012
16129W        W75225  17.579   9.359   3.777
16130W        W75226  37.983  39.384   4.834
16131W        W75227  23.701  23.662   3.637
16132W        W75228  11.791  15.584   3.232
16133W        W75229  27.488  10.804   1.296
16134W        W75230  13.293   7.737   2.350
16135W        W75231  13.246   1.871   0.421
16136W        W75232  24.186  35.366   0.438
16137W        W75233  12.720  20.579  11.081
16138W        W75234  15.822  19.206  11.465
16139W        W75235  33.083  21.032   1.758
16140W        W75236  44.767  28.013   0.870
16141W        W75237  44.476  26.168   4.705
16142W        W75238  27.121   0.980   4.803
16143W        W75239  16.800   9.791   4.229
16144W        W75240  10.305  19.659  12.405
16145W        W75241  16.130  35.879  12.861
16146W        W75242   3.293  29.033  13.457
16147W        W75243  18.603   4.737   5.286
16148W        W75244   7.679  20.691   0.325
16149W        W75245   3.268  16.583   3.646
16150W        W75246  39.874  26.545  11.471
16151W        W75247  38.071  37.574   1.264
16152W        W75248  11.768  33.017   0.299
16153W        W75249  36.560   4.442   2.407
16154W        W75250  24.706  20.666  14.765
16155W        W75251  28.554  42.340  12.029
16156W        W75252  39.497  43.445   1.917
16157W        W75253  17.250  31.417   1.232
16158W        W75254  12.717   6.863  12.844
16159W        W75255  31.485  11.161   2.205
16160W        W75256  30.657  14.246  12.491
16161W        W75257  42.950  19.256  11.472
16162W        W75258  19.042  15.581  13.528
16163W        W75259  39.055  14.234  14.774
16164W        W75260  37.970  21.090   1.850
16165W        W75261   4.450  18.704   3.747
16166W        W75262   0.340  12.610  14.476
16167W        W75263  36.928   7.704   0.783
16168W        W75264   3.837  14.684   4.810
16169W        W75265  19.123  13.746   1.767
16170W        W75266  13.340  36.014  13.902
16171W        W75267   2.260  13.338  13.317
16172W        W75268  24.115  43.914   4.184
16173W        W75269  38.454  10.811  12.538
16174W        W75270  44.774  17.737  14.358
16175W        W75271  40.899  33.084  10.638
16176W        W75272   0.312  17.190  14.298
16177W        W75273   1.853   5.436  11.908
16178W        W75274   3.215   9.251  12.467
16179W        W75275  26.600  13.302  14.881
16180W        W75276   0.274  33.596  13.380
16181W        W75277  25.590  21.122   2.372
16182W        W75278   9.715  11.205  14.311
16183W        W75279  32.590  29.086   4.618
16184W        W75280  36.078  29.525   1.766
16185W        W75281  16.287  29.538  12.022
16186W        W75282  28.639  11.303  12.470
16187W        W75283  18.635  41.989  12.547
16188W        W75284  12.196  34.884  13.407
16189W        W75285   3.378  44.356  14.508
16190W        W75286  32.625  11.187   0.364
16191W        W75287  27.562   7.174  12.861
16192W        W75288  22.720  43.977  14.773
16193W        W75289  17.608  20.547  14.769
16194W        W75290  24.983   3.942   2.860
16195W        W75291  24.150  24.107   3.253
16196W        W75292   5.229  36.550  14.858
16197W        W75293   6.273  16.633  12.373
16198W        W75294  20.258  32.980  11.944
16199W        W75295  40.410  33.430   2.890
16200W        W75296  20.659  43.798  12.921
16201W        W75297  27.046   8.330   4.812
16202W        W75298   5.399  13.195   0.440
16203W        W75299  24.625  14.166   3.339
16204W        W75300  21.096  31.086  12.943
16205W        W75301  38.904   1.736  13.323
16206W        W75302  28.588  38.410  13.383
16207W        W75303  21.731  27.678  14.402
16208W        W75304  21.251  23.539   1.360
16209W        W75305   2.754  30.478  12.455
16210W        W75306  18.755  16.159   1.402
16211W        W75307  38.482   1.320  11.021
16212W        W75308   6.375  24.994  10.438
16213W        W75309  17.561  32.027  10.051
16214W        W75310   6.875  41.861   4.830
16215W        W75311  34.061  42.957   3.702
16216W        W75312  37.984   5.741   2.322
16217W        W75313  16.115  27.141   1.306
16218W        W75314   1.883   8.775   1.801
16219W        W75315  31.020  18.198   3.736
16220W        W75316  30.616  32.116   4.264
16221W        W75317   2.263  35.378   2.866
16222W        W75318  28.565  41.874   2.888
16223W        W75319  12.802  27.543  11.459
16224W        W75320   2.464   9.766  11.381
16225W        W75321  24.230   1.285  11.545
16226W        W75322  35.463  44.812   0.886
16227W        W75323  36.965  28.515   4.311
16228W        W75324  37.558  32.570  13.450
16229W        W75325  18.710  34.015   0.869
16230W        W75326  38.544  14.115  11.903
16231W        W75327  15.185   4.901   3.826
16232W        W75328   9.372   2.382  14.499
16233W        W75329  11.342  19.061  11.951
16234W        W75330   4.393   8.261   0.444
16235W        W75331  11.156   1.890   2.334
16236W        W75332  16.171  21.616   0.483
16237W        W75333   1.391   2.424   4.186
16238W        W75334  14.125  26.983   2.816
16239W        W75335  32.907  37.537  13.921
16240W        W75336  24.492  28.989  12.350
16241W        W75337  20.746  43.015  14.780
16242W        W75338  27.946  21.123  12.059
16243W        W75339  25.164  43.892   2.828
16244W        W75340   7.745  32.966  11.102
16245W        W75341  18.761   4.852   3.329
16246W        W75342  34.034  38.925  10.893
16247W        W75343  24.480  28.058   2.358
16248W        W75344  33.507  23.008  14.472
16249W        W75345  26.982  15.216   4.216
16250W        W75346  44.294  10.244   2.335
16251W        W75347  29.638  33.974  10.636
16252W        W75348  30.148   6.369   2.246
16253W        W75349   7.719  26.050   4.622
16254W        W75350   1.287   8.897   3.788
16255W        W75351  29.478   3.745  14.501
16256W        W75352  12.295  21.255   0.273
16257W        W75353  14.686  41.363   0.386
16258W        W75354  40.953  10.319  13.858
16259W        W75355  21.620   6.792   1.261
16260W        W75356  20.728  17.113  11.087
16261W        W75357  38.512  27.978  13.470
16262W        W75358  26.577  23.061   4.788
16263W        W75359  24.495   6.746  12.089
16264W        W75360   5.344  41.945  14.898
16265W        W75361  22.185  33.975  11.877
16266W        W75362  20.655  30.083  14.017
16267W        W75363  41.338  31.490  12.051
16268W        W75364   5.773  30.983   2.224
16269W        W75365  13.278  17.251   1.756
16270W        W75366  32.031   0.295   0.783
16271W        W75367   9.846   6.294  13.397
16272W        W75368  31.610  16.187  14.793
16273W        W75369   4.809  26.602   0.396
16274W        W75370  30.481   6.373   5.210
16275W        W75371   0.911   2.731  14.956
16276W        W75372   1.871  43.814   0.938
16277W        W75373  15.729  15.611   4.293
16278W        W75374  25.644  39.553   3.245
16279W        W75375  15.131  21.691   0.348
16280W        W75376  25.180   3.739   4.229
16281W        W75377  10.869  32.017  10.485
16282W        W75378  41.366  24.533  13.411
16283W        W75379  39.319  41.513   3.689
16284W        W75380  26.039  36.359   2.356
16285W        W75381  16.813   6.351  14.376
16286W        W75382   7.216  27.545   5.759
16287W        W75383  18.609  31.037  14.968
16288W        W75384   1.912   4.783  14.792
16289W        W75385  33.530  34.510  14.993
16290W        W75386   0.319  33.053   2.815
16291W        W75387  42.894  16.795   3.197
16292W        W75388  17.584   5.374  10.920
16293W        W75389  29.605  42.509   2.725
16294W        W75390  22.048  27.084   3.869
16295W        W75391  14.210  14.636   0.352
16296W        W75392   4.883  22.055   0.809
16297W        W75393  32.071  14.766  12.957
16298W        W75394  32.461   2.808   2.401
16299W        W75395  30.056  16.148  14.504
16300W        W75396  27.491  25.615   2.339
16301W        W75397  10.333  19.149  11.580
16302W        W75398  40.872  14.244  11.884
16303W        W75399   7.821   0.926   2.811
16304W        W75400  10.376  14.710   0.891
16305W        W75401   6.911  16.160  12.971
16306W        W75402   7.393  11.264  14.980
16307W        W75403  14.230  37.552  13.429
16308W        W75404  13.212  34.005  12.043
16309W        W75405  13.839   2.800   2.294
16310W        W75406  23.592  22.580  13.924
16311W        W75407  32.614  18.073   3.834
16312W        W75408  34.496  14.211  11.944
16313W        W75409  28.548   1.930  11.926
16314W        W75410  41.817  29.093  14.798
16315W        W75411  28.048  11.149   3.237
16316W        W75412  37.873  11.247  14.493
16317W        W75413  13.833  42.902  13.425
16318W        W75414  29.050  22.627   9.992
16319W        W75415  38.434  38.928   4.305
16320W        W75416  19.082  34.486   2.860
16321W        W75417  12.748  11.712   2.349
16322W        W75418   4.783  30.048   0.477
16323W        W75419   4.275  12.810   1.268
16324W        W75420  32.499  14.198  11.128
16325W        W75421  25.145  32.508   1.879
16326W        W75422  30.616   6.844  13.375
16327W        W75423  36.962  41.508   2.781
16328W        W75424  17.079  11.335   3.345
16329W        W75425  27.986   7.401  12.486
16330W        W75426  36.089  19.777  11.071
16331W        W75427  10.745  32.489  14.029
16332W        W75428  14.602  36.577  10.589
16333W        W75429  14.133  32.063   1.403
16334W        W75430  22.719  10.778   2.403
16335W        W75431  25.156   1.321   1.819
16336W        W75432  37.073  37.394  10.532
16337W        W75433  41.458  21.724   4.797
16338W        W75434  14.652  26.196  12.365
16339W        W75435  11.839  20.039   2.298
16340W        W75436  40.339  12.687  11.928
16341W        W75437  36.450   7.318   9.938
16342W        W75438  40.415  11.150  11.866
16343W        W75439  26.641   6.348   0.387
16344W        W75440   1.855   1.389  10.968
16345W        W75441  17.645  43.852   1.932
16346W        W75442   0.915  38.340  12.001
16347W        W75443   1.482  16.127   1.742
16348W        W75444   6.812  21.671   0.805
16349W        W75445  10.237  29.075  13.827
16350W        W75446  32.480   2.889  14.859
16351W        W75447  43.300  24.979   2.664
16352W        W75448  38.443   4.770   0.244
16353W        W75449  20.601  32.887   4.337
16354W        W75450   2.384  37.923   0.478
16355W        W75451  22.572  20.134  10.569
16356W        W75452  24.976  26.097   1.386
16357W        W75453  27.656   5.752   4.696
16358W        W75454   7.353   4.260   2.696
16359W        W75455  29.582   8.264   3.761
16360W        W75456  12.259  20.618   1.715
16361W        W75457  12.794  28.989   0.418
16362W        W75458   3.793   8.208   0.802
16363W        W75459  33.896  23.522   3.348
16364W        W75460   5.919  28.093  13.035
16365W        W75461   4.931  41.493   4.680
16366W        W75462  24.605  42.995  10.912
16367W        W75463  37.889  11.783   5.726
16368W        W75464   2.841  43.304  13.038
16369W        W75465  17.758  25.514  14.406
16370W        W75466  44.330   9.366  11.886
16371W        W75467  34.948  13.331   3.713
16372W        W75468  41.019  33.048   4.280
16373W        W75469  16.232  38.871  12.402
16374W        W75470  39.056  35.940   2.245
16375W        W75471  31.029  33.542   4.801
16376W        W75472  22.995  15.292   1.701
16377W        W75473  30.615  40.405   3.827
16378W        W75474  31.521  43.297  14.978
16379W        W75475  34.076  22.099   2.758
16380W        W75476  24.211  35.021  10.967
16381W        W75477  44.446   1.771  11.389
16382W        W75478   9.857  25.069   3.148
16383W        W75479  29.134  25.538  11.995
16384W        W75480   8.370  43.976  13.451
16385W        W75481  16.162   0.856  11.063
16386W        W75482  37.888  36.843  11.546
16387W        W75483  20.710  35.989  10.628
16388W        W75484  43.851  21.139  11.025
16389W        W75485  28.581  42.515   4.664
16390W        W75486  16.784   1.820  12.905
16391W        W75487   9.852  20.264  11.884
16392W        W75488  16.279  24.989   4.818
16393W        W75489   8.705   4.274   3.632
16394W        W75490  35.599   8.677  12.830
16395W        W75491  27.093  28.061   0.463
16396W        W75492  16.614  32.054   3.155
16397W        W75493  41.407   7.178   1.816
16398W        W75494  25.027  33.921   4.352
16399W        W75495  30.433  30.981  13.404
16400W        W75496  31.610  32.105   4.315
16401W        W75497   0.929   1.320   3.694
16402W        W75498   9.887  25.185   0.461
16403W        W75499  30.511   6.219   4.114
16404W        W75500  14.634  24.219   1.287
16405W        W75501  27.173  31.902   4.163
16406W        W75502  37.517  44.872   1.352
16407W        W75503  21.744  43.770  14.427
16408W        W75504   3.242   4.439  13.918
16409W        W75505   6.261  26.582   2.406
16410W        W75506  16.569  19.139  10.998
16411W        W75507  33.915  21.746   0.832
16412W        W75508  14.741  13.270   1.412
16413W        W75509  23.985  31.629  13.958
16414W        W75510   8.375  10.699  13.013
16415W        W75511   0.389  42.872   1.330
16416W        W75512  43.485  44.010  12.036
16417W        W75513  22.629  41.347  12.425
16418W        W75514  35.600   3.388   0.425
16419W        W75515  42.353   3.794   0.260
16420W        W75516   8.784  42.808  13.863
16421W        W75517  10.305  13.662  11.000
16422W        W75518  13.227  35.900   3.153
16423W        W75519  24.617  29.101  11.397
16424W        W75520   8.266  16.702   4.282
16425W        W75521  41.324   9.807  14.006
16426W        W75522   5.223  25.493  14.285
16427W        W75523  34.030  25.186   5.645
16428W        W75524  10.663   4.281   3.849
16429W        W75525   4.752   4.219  14.799
16430W        W75526  44.955  33.020  10.494
16431W        W75527  14.256  38.063   3.782
16432W        W75528  27.099  19.606  14.399
16433W        W75529  33.087  16.737   2.256
16434W        W75530  28.050  26.552  14.428
16435W        W75531   7.790   6.732   2.348
16436W        W75532   9.710  31.998  13.530
16437W        W75533  37.004   6.236   1.425
16438W        W75534  16.226   4.888  10.909
16439W        W75535   2.425  30.514   3.781
16440W        W75536  28.935  39.560   0.283
16441W        W75537  25.184  19.765   0.844
16442W        W75538   2.828  25.127   3.796
16443W        W75539  40.517  33.467   1.391
16444W        W75540  23.700  35.035   0.418
16445W        W75541  22.036   9.654  12.491
16446W        W75542  25.611  25.570  13.881
16447W        W75543  34.503  13.280  10.418
16448W        W75544   7.256  28.086   5.627
16449W        W75545  44.994  35.576  12.096
16450W        W75546  33.425  18.283  13.804
16451W        W75547  38.843   1.902  13.986
16452W        W75548   7.676  10.173  13.952
16453W        W75549  14.735   7.896   1.351
16454W        W75550  12.265  20.189   0.447
16455W        W75551  31.499  22.653   1.710
16456W        W75552  15.168  38.377  12.029
16457W        W75553  19.092   9.849   5.570
16458W        W75554  34.041  36.978   4.290
16459W        W75555   1.402   0.861  12.550
16460W        W75556  17.795  23.148  14.947
16461W        W75557  38.560   0.399   4.780
16462W        W75558  21.125  20.647  14.348
16463W        W75559  25.983  32.549   5.211
16464W        W75560  30.951  41.808  11.439
16465W        W75561  17.159  27.059   4.677
16466W        W75562  35.093  20.735   5.231
16467W        W75563  21.684  43.912  13.869
16468W        W75564  25.531  38.540   5.105
16469W        W75565  16.221   2.785  12.401
16470W        W75566   2.776  11.315  11.979
16471W        W75567  31.128  23.070   1.296
16472W        W75568   1.912   1.943   1.912
16473W        W75569  44.780   8.235   2.218
16474W        W75570  11.834  29.501   3.149
16475W        W75571  42.907  38.963   0.381
16476W        W75572  38.376   5.906   4.742
16477W        W75573  16.640   7.744  14.397
16478W        W75574  16.718   0.810   1.344
16479W        W75575   3.756  43.307  11.087
16480W        W75576   0.253   2.885  14.849
16481W        W75577  20.620   5.199  12.895
16482W        W75578  26.091  38.001  12.925
16483W        W75579  37.054  34.524  13.877
16484W        W75580  38.035  37.996   0.945
16485W        W75581  23.022  12.618   1.881
16486W        W75582  44.794  26.998  13.042
16487W        W75583  38.380  20.677  10.935
16488W        W75584   2.410  40.308  11.872
16489W        W75585  25.520  29.621  10.588
16490W        W75586  17.223  40.336  12.403
16491W        W75587  15.281  35.413  14.786
16492W        W75588   4.335  34.954   3.226
16493W        W75589   8.829  32.016  12.421
16494W        W75590  38.901  29.580   0.861
16495W        W75591  26.659  18.680   2.210
16496W        W75592  10.350  12.676   1.402
16497W        W75593  15.190  30.059  14.451
16498W        W75594  26.187   2.413   2.179
16499W        W75595  15.677  35.513   2.730
16500W        W75596  24.622  31.002  11.022
16501W        W75597  44.289  32.058  11.390
16502W        W75598  41.875  32.001  12.955
16503W        W75599  18.217  15.619   2.887
16504W        W75600   0.744  38.487   1.833
16505W        W75601   8.730  43.337  11.451
16506W        W75602  32.120  26.538  11.972
16507W        W75603  39.489  10.844   1.295
16508W        W75604  24.044  29.975  12.489
16509W        W75605  20.547  27.604   3.777
16510W        W75606  33.127  22.663  14.964
16511W        W75607   0.254  13.757  14.959
16512W        W75608  35.047   6.700   1.825
16513W        W75609  31.622   3.850   2.327
16514W        W75610  21.539  32.131   1.346
16515W        W75611  29.429   4.212   1.723
16516W        W75612  32.396  44.343  12.992
16517W        W75613  24.674  26.968   3.295
16518W        W75614  26.605  27.978  10.916
16519W        W75615  31.407   8.874  11.036
16520W        W75616  24.057  28.954   2.236
16521W        W75617  31.003  28.942   4.138
16522W        W75618  22.524  10.298  11.059
16523W        W75619  30.424  13.300   1.834
16524W        W75620  28.566   7.298  14.891
16525W        W75621  29.562  31.617  11.089
16526W        W75622  38.972  43.278  14.495
16527W        W75623  14.637  11.834  10.122
16528W        W75624  28.072   7.755   4.121
16529W        W75625   0.303  10.286   5.082
16530W        W75626   8.247  18.093  11.557
16531W        W75627  40.895  23.062   0.248
16532W        W75628  27.143  15.807  12.925
16533W        W75629  18.233  24.009   3.157
16534W        W75630  34.382  39.332   3.715
16535W        W75631  39.844  15.229  12.928
16536W        W75632  29.115  29.574   4.798
16537W        W75633  30.502  31.102  12.401
16538W        W75634   6.914  16.692   1.315
16539W        W75635  11.644  23.015  13.901
16540W        W75636  36.456   8.888  13.915
16541W        W75637  30.512  41.493  13.448
16542W        W75638  10.685  12.349   3.383
16543W        W75639  32.478  29.173  12.483
16544W        W75640   2.247  43.913  10.928
16545W        W75641   9.228   8.723   5.286
16546W        W75642  44.917  21.605   3.372
16547W        W75643  19.167  19.172  10.894
16548W        W75644  41.848  11.201  11.906
16549W        W75645  13.181  12.355   3.356
16550W        W75646   3.807  34.553   2.332
16551W        W75647  14.282  23.092   0.960
16552W        W75648  12.278  35.470   3.756
16553W        W75649  42.951  41.347   3.235
16554W        W75650  16.793  32.970   1.868
16555W        W75651  40.546  44.852  10.641
16556W        W75652  13.650   3.378   2.855
16557W        W75653  35.493  28.626   0.267
16558W        W75654  35.097   8.732   2.815
16559W        W75655   5.323  36.374   1.829
16560W        W75656  44.870  13.761  10.608
16561W        W75657  30.530  36.841   3.754
16562W        W75658  33.121   1.477  10.507
16563W        W75659  37.913  42.324   2.871
16564W        W75660  29.927  19.123   2.381
16565W        W75661  38.006  18.692  11.005
16566W        W75662  37.422  28.068   2.348
16567W        W75663   4.804  43.415   1.257
16568W        W75664  31.970  26.197   0.406
16569W        W75665   7.289   9.728   3.805
16570W        W75666   7.773   1.458  11.085
16571W        W75667   5.853  22.639  11.864
16572W        W75668  18.655  30.446  14.442
16573W        W75669  32.466  36.477   3.233
16574W        W75670  44.291  38.409   9.965
16575W        W75671  20.612  41.006  14.776
16576W        W75672  18.168   9.878   1.793
16577W        W75673  42.937  42.355  12.444
16578W        W75674  41.992  11.326   1.349
16579W        W75675  44.942   1.292  14.311
16580W        W75676  26.038   4.818   2.251
16581W        W75677  29.994  26.580   0.326
16582W        W75678  25.578  20.151   2.680
16583W        W75679  26.003  31.470  12.004
16584W        W75680  43.348  12.792  14.409
16585W        W75681  10.867   3.398  12.361
16586W        W75682  17.712   0.931  10.581
16587W        W75683   2.414  24.007  10.411
16588W        W75684  24.085  34.581  14.948
16589W        W75685   4.807  21.179   3.371
16590W        W75686  27.520  16.607   2.236
16591W        W75687   9.875  18.574   2.325
16592W        W75688  11.728  12.152   4.816
16593W        W75689  10.315   9.663  13.418
16594W        W75690  30.085  35.552   4.799
16595W        W75691   1.280  11.139  10.599
16596W        W75692  19.643   8.355   1.335
16597W        W75693   6.198  12.791  14.500
16598W        W75694  26.162  31.078   0.799
16599W        W75695  19.699   7.694   4.160
16600W        W75696   0.892   1.905  11.123
16601W        W75697  44.966  19.735  11.517
16602W        W75698  41.298   2.850  13.490
16603W        W75699  30.507  30.467  12.850
16604W        W75700  40.489  44.315   4.797
16605W        W75701   6.315  19.115  11.503
16606W        W75702  22.051  11.182  11.389
16607W        W75703  44.961  35.514  14.281
16608W        W75704  32.077   8.186   1.791
16609W        W75705  37.918  16.193   1.307
16610W        W75706  10.179   1.971  14.331
16611W        W75707  36.359   5.204  10.451
16612W        W75708  43.472   8.307  11.114
16613W        W75709  38.362  11.309   5.110
16614W        W75710  33.433  43.852   1.426
16615W        W75711  21.166  29.605   2.719
16616W        W75712  34.558  25.638   4.166
16617W        W75713  23.223   9.865  11.952
16618W        W75714  27.547  23.542   4.647
16619W        W75715  33.467  30.098  11.605
16620W        W75716  36.906  34.452   4.161
16621W        W75717  30.069  35.499  12.007
16622W        W75718  28.151  20.725  12.992
16623W        W75719  23.228  14.106   1.424
16624W        W75720  17.607  12.311   9.967
16625W        W75721   1.240  23.736  10.449
16626W        W75722  14.270  43.336  11.547
16627W        W75723   3.720  12.847   0.783
16628W        W75724  12.657  27.649  10.902
16629W        W75725  31.009   7.873   1.323
16630W        W75726  18.556  16.295   3.307
16631W        W75727   6.696  26.060  13.006
16632W        W75728  25.687  41.506   3.282
16633W        W75729  16.584  11.741   3.226
16634W        W75730  30.598   4.347   1.301
16635W        W75731  26.170  13.773  14.979
16636W        W75732  41.813   3.217   1.695
16637W        W75733   2.338  16.570  10.533
16638W        W75734  38.570   5.898   1.269
16639W        W75735  20.632  39.904  14.785
16640W        W75736   4.802  33.896   4.157
16641W        W75737   8.717  36.545   0.835
16642W        W75738  42.460   1.341  12.070
16643W        W75739  32.602  22.140   0.959
16644W        W75740  39.489  28.667   3.164
16645W        W75741  29.574  25.618   2.302
16646W        W75742  22.571  21.023   3.738
16647W        W75743  43.938  14.667  13.474
16648W        W75744   3.911  18.720   4.139
16649W        W75745  43.827  28.080   1.823
16650W        W75746   9.177  24.059   0.458
16651W        W75747  44.329  38.830   2.336
16652W        W75748  26.093  11.240  11.419
16653W        W75749   7.371   5.375  11.879
16654W        W75750  43.021  25.600   0.454
16655W        W75751  24.504  31.618   0.295
16656W        W75752   1.845  32.426   0.830
16657W        W75753  12.820  32.506  12.830
16658W        W75754   7.225  10.708  11.374
16659W        W75755  22.134  23.582  14.843
16660W        W75756  14.237  20.220   0.278
16661W        W75757  30.141  18.676   0.467
16662W        W75758  23.053  29.638   1.857
16663W        W75759  39.390  21.745   4.764
16664W        W75760   2.428   4.449  13.929
16665W        W75761   3.752  26.152   4.219
16666W        W75762  30.471  13.834   1.856
16667W        W75763  44.776  32.949  10.978
16668W        W75764   2.237  41.535   0.893
16669W        W75765  40.505  39.406   4.820
16670W        W75766  20.148  23.694  14.898
16671W        W75767  43.422  34.894  14.853
16672W        W75768   8.280  24.608   0.276
16673W        W75769  41.415  19.599  13.858
16674W        W75770   0.959  28.676   3.343
16675W        W75771  21.051  30.483  12.414
16676W        W75772  26.186  11.699   1.277
16677W        W75773   1.740  39.345   3.701
16678W        W75774  25.496  43.961  11.870
16679W        W75775   8.739  16.241   1.376
16680W        W75776   2.424  38.070   3.257
16681W        W75777   3.366  28.498  14.800
16682W        W75778  10.242  19.587  10.482
16683W        W75779  28.552  39.356  10.467
16684W        W75780  30.415   1.269  12.018
16685W        W75781  19.597   6.279   2.206
16686W        W75782  27.594  21.734  12.860
16687W        W75783  26.975  22.656   0.799
16688W        W75784  17.260   0.343   0.440
16689W        W75785  21.019  27.604   3.300
16690W        W75786  26.463  43.278  12.893
16691W        W75787   8.831  23.200   4.276
16692W        W75788  27.103  20.695   3.205
16693W        W75789  44.457  39.962   3.841
16694W        W75790  13.340  11.747   2.785
16695W        W75791  30.508  13.792   3.362
16696W        W75792   8.840  39.469   2.205
16697W        W75793  16.812   0.938   3.785
16698W        W75794  31.129  33.098   3.168
16699W        W75795  33.916   5.350  14.432
16700W        W75796   8.284  42.017   2.766
16701W        W75797  27.196  42.338  11.021
16702W        W75798  21.228  28.139  14.336
16703W        W75799   5.898  14.235   4.607
16704W        W75800  23.588  31.096   0.884
16705W        W75801   9.755  10.832  13.392
16706W        W75802  13.167   9.697  11.382
16707W        W75803  24.182  34.604  13.341
16708W        W75804   0.792  11.340  14.281
16709W        W75805  12.718  24.562   2.863
16710W        W75806  15.134  10.830   0.936
16711W        W75807  28.110  36.043   2.413
16712W        W75808  30.101  32.033   3.836
16713W        W75809  30.494  14.279   2.240
16714W        W75810  43.439  34.606  13.993
16715W        W75811   4.805  12.628   3.818
16716W        W75812  21.535  15.646   3.251
16717W        W75813  34.487   1.847   3.677
16718W        W75814  28.565  32.959  13.049
16719W        W75815  43.868  44.817   0.860
16720W        W75816   7.297  21.529   4.760
16721W        W75817  12.733  10.298   1.386
16722W        W75818  38.530   6.878   1.742
16723W        W75819  36.492  37.045   0.812
16724W        W75820  39.966  43.333  14.377
16725W        W75821   4.818  41.932  11.459
16726W        W75822  36.454  28.662  11.907
16727W        W75823  10.705  24.725   4.169
16728W        W75824   4.260  31.963   1.240
16729W        W75825  33.503  44.948   0.296
16730W        W75826   6.281  27.509   4.256
16731W        W75827   5.731   0.290  10.612
16732W        W75828  36.468   9.252   3.191
16733W        W75829  18.688  39.428   5.258
16734W        W75830  10.199  43.804   2.258
16735W        W75831  39.981   7.334  13.964
16736W        W75832   6.906  36.043  10.411
16737W        W75833  11.129  14.118  12.563
16738W        W75834  11.807  34.866   1.445
16739W        W75835  27.448  28.602   2.812
16740W        W75836  15.153  15.217  10.440
16741W        W75837  22.688  30.508   0.755
16742W        W75838  42.526  44.418   3.230
16743W        W75839  21.657   9.320   0.374
16744W        W75840  24.680  40.467  11.903
16745W        W75841  12.305   9.396  13.534
16746W        W75842  31.525  17.792   1.918
16747W        W75843  42.353   6.327  12.369
16748W        W75844  34.023  10.172   2.792
16749W        W75845  36.874   1.343  12.855
16750W        W75846  40.365  13.794   3.763
16751W        W75847   1.443  22.690  10.582
16752W        W75848  40.888   1.400   2.202
16753W        W75849  34.043  36.956   2.855
16754W        W75850   4.380   0.371  10.974
16755W        W75851   2.784  41.316  14.784
16756W        W75852  23.573  22.232  13.041
16757W        W75853  34.520   4.810  13.798
16758W        W75854  21.133   5.921   0.265
16759W        W75855  27.617  32.126   1.744
16760W        W75856  38.862  31.473   2.411
16761W        W75857   8.380  44.985   0.375
16762W        W75858  12.306  19.776   4.620
16763W        W75859  27.517  25.632  10.990
16764W        W75860  25.710  17.253  13.819
16765W        W75861  40.496   7.292  10.968
16766W        W75862  38.973  28.445   0.844
16767W        W75863  39.533   0.376   1.786
16768W        W75864  24.005  43.331   4.116
16769W        W75865  14.256  20.271   0.932
16770W        W75866  13.163   3.741   2.286
16771W        W75867  28.449  38.324  11.963
16772W        W75868  18.061  12.836   1.421
16773W        W75869  23.190  11.306  14.841
16774W        W75870  20.562  26.472   4.282
16775W        W75871   5.399  37.043   1.736
16776W        W75872  22.206  32.530   4.271
16777W        W75873  36.442  32.914   3.759
16778W        W75874   3.375  43.943   2.234
16779W        W75875   4.707  17.576  11.041
16780W        W75876   9.280  25.159  13.826
16781W        W75877  25.204  12.656  13.501
16782W        W75878  43.360  31.033   0.309
16783W        W75879  40.901  15.254   3.206
16784W        W75880  43.294  40.539   0.322
16785W        W75881   3.942  16.133   3.869
16786W        W75882  38.394  27.646  11.384
16787W        W75883  24.209  42.333   1.780
16788W        W75884  23.551  10.800   4.613
16789W        W75885   9.669   9.224  13.475
16790W        W75886  16.736  33.453   0.924
16791W        W75887   0.783  28.058   0.298
16792W        W75888   7.677  24.059  13.949
16793W        W75889   0.818   8.701   0.357
16794W        W75890  18.692  17.637  12.958
16795W        W75891  18.283   6.223   2.199
16796W        W75892  42.811   2.861  10.495
16797W        W75893  21.723  17.723  10.588
16798W        W75894  32.427  34.540  11.476
16799W        W75895  18.257  12.682  12.898
16800W        W75896  24.175  14.296   3.696
16801W        W75897  21.219  12.260  11.940
16802W        W75898  10.657   7.726  10.622
16803W        W75899  33.935  16.682   0.314
16804W        W75900  17.185  40.368   2.412
16805W        W75901  32.140  35.954  13.382
16806W        W75902  44.491   2.370  14.503
16807W        W75903  42.418  28.093   0.385
16808W        W75904  38.923   6.784   0.436
16809W        W75905   7.285  11.250  13.409
16810W        W75906   8.345  24.576  11.466
16811W        W75907  27.096  14.339   0.383
16812W        W75908  41.934  34.591   4.129
16813W        W75909  25.631  10.380   2.817
16814W        W75910  23.146  22.502   3.237
16815W        W75911  17.224  12.219   3.377
16816W        W75912   5.195  16.788  12.055
16817W        W75913   8.236  29.035   1.343
16818W        W75914  12.124  38.910   1.340
16819W        W75915  40.403  37.572  10.149
16820W        W75916   9.385  20.623  11.434
16821W        W75917  35.447   3.395   3.247
16822W        W75918  33.525  11.853  12.038
16823W        W75919  20.695  15.084   4.663
16824W        W75920  31.948   8.697  14.999
16825W        W75921  19.200   2.338  12.355
16826W        W75922  20.167  30.068  14.459
16827W        W75923  17.694   0.807  12.537
16828W        W75924   2.893  35.600   3.784
16829W        W75925  13.123  14.787  13.932
16830W        W75926  30.133  37.042  13.881
16831W        W75927  38.559  30.633  14.434
16832W        W75928   2.355   0.420  12.455
16833W        W75929  43.905  14.817   3.753
16834W        W75930  25.031  19.233   2.738
16835W        W75931   2.277  37.076  14.422
16836W        W75932  27.026  22.682  12.374
16837W        W75933  12.147  22.037  13.984
16838W        W75934  12.222  16.748   1.301
16839W        W75935  40.520  21.660   4.116
16840W        W75936   1.974  32.052  11.585
16841W        W75937  35.387  33.389   3.672
16842W        W75938  42.463  44.887   2.342
16843W        W75939  19.156  44.882  11.552
16844W        W75940  39.931  10.316   3.769
16845W        W75941  28.157  29.165   3.829
16846W        W75942  35.499  13.627  12.487
16847W        W75943   5.402  42.477   1.876
16848W        W75944  42.283  42.334  12.070
16849W        W75945  22.606   4.273   2.839
16850W        W75946  19.536  26.157  14.425
16851W        W75947  21.544   3.440   4.661
16852W        W75948  31.030   8.706   3.678
16853W        W75949  23.490   9.329   4.795
16854W        W75950  24.061  29.068  12.043
16855W        W75951  42.308  25.967  14.483
16856W        W75952  15.674  31.909  14.819
16857W        W75953  36.529  35.082  11.020
16858W        W75954   0.422  22.617   1.446
16859W        W75955  36.586  38.855  13.808
16860W        W75956  17.163  15.762   0.805
16861W        W75957  19.170  16.756   0.249
16862W        W75958  13.729  11.127   0.399
16863W        W75959  13.279   1.843  14.455
16864W        W75960  43.824   5.351   2.311
16865W        W75961   9.854  25.046   2.194
16866W        W75962   6.744  41.993   2.847
16867W        W75963  24.063   8.659   3.865
16868W        W75964  43.418  26.203   4.737
16869W        W75965   3.713  44.773   0.440
16870W        W75966  19.060  27.109   3.159
16871W        W75967  23.056  23.696   3.644
16872W        W75968  11.303  43.765  14.309
16873W        W75969  44.929  33.469  12.565
16874W        W75970  25.137  43.279  11.004
16875W        W75971  13.199   2.416   3.171
16876W        W75972  42.384  15.823  11.125
16877W        W75973  39.851  43.907   1.890
16878W        W75974  35.403   5.229   3.298
16879W        W75975  41.439  11.224  10.003
16880W        W75976  23.199  19.105   0.771
16881W        W75977  29.021   8.739  14.021
16882W        W75978  38.402  13.215   5.196
16883W        W75979  29.425  35.459  10.561
16884W        W75980   4.921   7.323  14.348
16885W        W75981  14.689  24.611  12.088
16886W        W75982  35.952  32.121   2.354
16887W        W75983   0.768  26.111   0.330
16888W        W75984  12.799   6.820  10.505
16889W        W75985  17.774  20.656  14.497
16890W        W75986  34.580  30.929  10.907
16891W        W75987  32.070  31.516  13.361
16892W        W75988  14.673   6.758   4.156
16893W        W75989  30.125  44.285   1.421
16894W        W75990  32.932  42.295   3.369
16895W        W75991  36.351  36.981   2.893
16896W        W75992  28.019  43.008  11.088
16897W        W75993  31.085  28.046  10.472
16898W        W75994   8.398  20.114  10.644
16899W        W75995   8.340   1.887  12.987
16900W        W75996   0.411  30.125  11.410
16901W        W75997  41.825  13.208  12.574
16902W        W75998  24.549  43.983  13.502
16903W        W75999   1.926  36.364   3.341
16904W        W76000  24.059  22.129  13.472
16905W        W76001  11.753  15.763   3.814
16906W        W76002  23.591  20.245   5.670
16907W        W76003   1.821  43.895   0.302
16908W        W76004  31.613  32.949  12.566
16909W        W76005   7.267  31.624   4.138
16910W        W76006  12.185   6.740   4.250
16911W        W76007   0.831  26.503  11.425
16912W        W76008  43.331  20.153  13.943
16913W        W76009  37.061   0.384   2.782
16914W        W76010  10.242   4.394  10.927
16915W        W76011  32.446   9.726  11.559
16916W        W76012  33.494  22.064   9.989
16917W        W76013  20.728   2.270  12.513
16918W        W76014  36.567  20.593  12.419
16919W        W76015  24.063   5.426  10.992
16920W        W76016  29.450  25.513   0.317
16921W        W76017  38.013  35.876  11.471
16922W        W76018  35.028  31.551   0.273
16923W        W76019  14.702  16.113  11.876
16924W        W76020  20.102   7.397   1.756
16925W        W76021  19.111  17.736   4.228
16926W        W76022   0.779  19.695   0.427
16927W        W76023   7.309  40.428   0.852
16928W        W76024  39.824  40.470  13.374
16929W        W76025  32.056  22.692  14.396
16930W        W76026  42.343  28.560  11.040
16931W        W76027  29.545   4.927  12.345
16932W        W76028  38.876  15.253   2.319
16933W        W76029  42.449  30.068  12.837
16934W        W76030  11.313  37.982   4.656
16935W        W76031  22.134  27.999   4.745
16936W        W76032  34.379  44.359   3.293
16937W        W76033  20.129  23.525   2.835
16938W        W76034  12.236  34.030   3.323
16939W        W76035  22.601  11.156  12.422
16940W        W76036  10.794  41.485  10.449
16941W        W76037  29.635  43.445   4.827
16942W        W76038   8.889   6.724   2.885
16943W        W76039  11.297  39.464   2.896
16944W        W76040  38.859  32.889  12.082
16945W        W76041  20.058   6.871   4.711
16946W        W76042  32.003   8.787  12.081
16947W        W76043  41.993  17.110   3.244
16948W        W76044  40.021  43.323   3.203
16949W        W76045  14.204  15.244   1.353
16950W        W76046  13.127  13.706  14.967
16951W        W76047  21.751  23.543   5.267
16952W        W76048   0.903   5.694  13.437
16953W        W76049   9.149  24.023  14.890
16954W        W76050  38.038  10.708   3.311
16955W        W76051   8.175  11.310  10.575
16956W        W76052  18.147  32.618   4.325
16957W        W76053  14.807   3.841  14.021
16958W        W76054  13.140  31.938  12.892
16959W        W76055   5.275  30.025  13.342
16960W        W76056  10.229  16.316  13.893
16961W        W76057  37.356   1.808   3.331
16962W        W76058  40.800  34.421   2.381
16963W        W76059  18.203  15.171   4.173
16964W        W76060   5.220   1.819   3.364
16965W        W76061  10.646  13.256   2.178
16966W        W76062   0.942  43.817   1.448
16967W        W76063  34.562  39.858  13.974
16968W        W76064  40.890   3.268   2.834
16969W        W76065  26.173   6.245  11.937
16970W        W76066   2.291  36.568   4.290
16971W        W76067  27.502  31.144   1.404
16972W        W76068  39.974  42.496  13.479
16973W        W76069   9.838  22.501   3.274
16974W        W76070  11.723  32.548   1.876
16975W        W76071  28.155  15.240   9.949
16976W        W76072  38.951  33.095   0.959
16977W        W76073  10.311  38.968   3.253
16978W        W76074  35.438  15.678  11.431
16979W        W76075  39.440  44.946  14.846
16980W        W76076   0.981  31.950   2.336
16981W        W76077  40.825  20.148   0.317
16982W        W76078  15.138  13.271  12.946
16983W        W76079  12.681   2.382  11.580
16984W        W76080  29.009  23.555   9.997
16985W        W76081  11.844  15.629  14.819
16986W        W76082  44.759  23.493  11.612
16987W        W76083   0.827  25.210   2.874
16988W        W76084  13.304  37.530   1.899
16989W        W76085  23.587  33.473   4.264
16990W        W76086  39.996  38.867   3.650
16991W        W76087  17.590  36.353  12.552
16992W        W76088  33.913   9.751   2.770
16993W        W76089  13.130  42.958   2.340
16994W        W76090  41.501  14.662  13.007
16995W        W76091  11.204  11.654   0.960
16996W        W76092  42.861  41.873   2.331
16997W        W76093  21.659  32.628   4.708
16998W        W76094   8.282   7.297  13.026
16999W        W76095  28.456  20.145   2.260
17000W        W76096   4.744  31.555   1.697
17001W        W76097  42.956  26.044   0.414
17002W        W76098   3.356  25.030  11.943
17003W        W76099  35.503   8.866   0.255
17004W        W76100  40.446  44.496  10.529
17005W        W76101  18.067  36.911   4.236
17006W        W76102  35.106  19.545   4.139
17007W        W76103  23.037  35.008  10.920
17008W        W76104  39.337   9.842   1.266
17009W        W76105   5.924  27.523  14.428
17010W        W76106  23.596  32.921   2.719
17011W        W76107  14.188  27.674   3.795
17012W        W76108  35.081   5.370  12.053
17013W        W76109  43.357  36.391  13.050
17014W        W76110  17.600  30.427   0.760
17015W        W76111  37.060  41.929   4.208
17016W        W76112  16.143  22.238  10.946
17017W        W76113  24.113   6.742   2.402
17018W        W76114  20.672  17.748   1.694
17019W        W76115  23.559   7.828   0.750
17020W        W76116  29.990  34.864   3.851
17021W        W76117  38.900   9.660  12.954
17022W        W76118  26.698  15.245  14.468
17023W        W76119  32.438  12.198  11.441
17024W        W76120  16.657  22.013   1.859
17025W        W76121  27.988  32.541  11.901
17026W        W76122  24.569   0.841  10.510
17027W        W76123  32.007  32.885  12.868
17028W        W76124   9.810   3.444   0.779
17029W        W76125  33.505  12.751  10.079
17030W        W76126  23.181   4.797   0.288
17031W        W76127  42.305   8.710  10.404
17032W        W76128   1.395  15.203  13.467
17033W        W76129  33.924  18.653  11.460
17034W        W76130  18.568   8.231   4.192
17035W        W76131  41.812  29.174   2.196
17036W        W76132  10.680  43.318  12.877
17037W        W76133  26.137  33.617   2.724
17038W        W76134   7.724   2.370  14.456
17039W        W76135  39.870  41.397  10.888
17040W        W76136  43.884  30.988   4.609
17041W        W76137   2.336  14.657  12.030
17042W        W76138  44.290  40.967  12.840
17043W        W76139   1.278  14.683   0.331
17044W        W76140  42.456   5.858   3.363
17045W        W76141  22.095  30.471  14.329
17046W        W76142  37.870  23.068  11.871
17047W        W76143  10.275  29.933   2.347
17048W        W76144  18.282  36.017  13.343
17049W        W76145  43.842  42.461   2.798
17050W        W76146  20.726   2.957   3.842
17051W        W76147  41.417  28.492  13.031
17052W        W76148  19.271  19.604   2.818
17053W        W76149   7.201  21.059   0.361
17054W        W76150   8.217   2.888   4.136
17055W        W76151  42.445   6.806   4.128
17056W        W76152  10.869   4.248   2.865
17057W        W76153   3.790  42.868   0.845
17058W        W76154  18.603  42.015   3.718
17059W        W76155   5.813  22.594   5.278
17060W        W76156  42.896  29.526   5.136
17061W        W76157  21.577  16.288   4.690
17062W        W76158  40.305  42.951   0.380
17063W        W76159   3.416   2.335   0.265
17064W        W76160  40.874  26.113   0.466
17065W        W76161  39.468   5.929   0.753
17066W        W76162   5.407  37.970   4.349
17067W        W76163  35.950   4.908   1.317
17068W        W76164   7.261  28.183  12.857
17069W        W76165  26.470  38.908  10.130
17070W        W76166  33.103  38.403   4.262
17071W        W76167  22.652  24.049  11.901
17072W        W76168   2.781  12.783  12.425
17073W        W76169  22.040   9.833  11.509
17074W        W76170  36.399  15.632  14.980
17075W        W76171  39.814  42.464  14.351
17076W        W76172  10.184   1.793   4.331
17077W        W76173  25.587  15.774   1.869
17078W        W76174   3.419  40.434   1.422
17079W        W76175  40.927   3.417  10.965
17080W        W76176  41.460  29.140  12.880
17081W        W76177  28.576  30.028  10.992
17082W        W76178   2.408  43.881   2.733
17083W        W76179  39.466  14.239  11.029
17084W        W76180  22.138   3.859  12.865
17085W        W76181  21.193   4.232  12.418
17086W        W76182  38.068  39.927  12.532
17087W        W76183  36.523  22.622  12.346
17088W        W76184   0.252  13.349  14.339
17089W        W76185  22.578  23.532   0.422
17090W        W76186  26.696   6.330   1.855
17091W        W76187  14.300  15.324  12.070
17092W        W76188  10.674  44.809   2.287
17093W        W76189  38.342  22.205  11.518
17094W        W76190  28.503  25.481   0.770
17095W        W76191  20.211  30.972   4.174
17096W        W76192  15.805  23.715   1.772
17097W        W76193  43.302  15.813   4.121
17098W        W76194   4.938  31.109  10.600
17099W        W76195   6.289  22.638   1.851
17100W        W76196  12.750  37.451  12.978
17101W        W76197  43.886  10.828  10.584
17102W        W76198  40.017  37.499   1.912
17103W        W76199  16.142  37.477  10.898
17104W        W76200  34.424  33.028  11.869
17105W        W76201  14.727  44.331   4.773
17106W        W76202  37.865  44.960  11.507
17107W        W76203  10.723   1.833   0.739
17108W        W76204  13.602  23.090   1.816
17109W        W76205  21.532  20.190  11.511
17110W        W76206  15.119   6.327  13.529
17111W        W76207  39.352  23.699  13.995
17112W        W76208  25.138  34.397  12.393
17113W        W76209  12.678  43.397  13.968
17114W        W76210  42.998  33.498   2.854
17115W        W76211  18.222   5.390  14.031
17116W        W76212  31.100  35.603   2.834
17117W        W76213  26.536  24.064   5.145
17118W        W76214  29.958  22.641  11.878
17119W        W76215  14.166  29.602   1.402
17120W        W76216   1.483  32.074   1.695
17121W        W76217  37.830  14.588  14.008
17122W        W76218  18.098  38.068  12.473
17123W        W76219   1.882   1.819  12.464
17124W        W76220  34.072  39.520  11.425
17125W        W76221  33.621  25.045  10.440
17126W        W76222  35.446  34.087  13.813
17127W        W76223  34.873   0.429  10.474
17128W        W76224  30.484  40.361   4.138
17129W        W76225  23.132  12.310  12.490
17130W        W76226  41.390  41.848   4.164
17131W        W76227  38.893  42.916  12.998
17132W        W76228  33.574   6.730  12.973
17133W        W76229   0.459  31.071   2.746
17134W        W76230   8.847  35.928   0.352
17135W        W76231   5.811  37.509   4.796
17136W        W76232   9.282   2.800  12.396
17137W        W76233  30.136   0.839   1.914
17138W        W76234  38.444  43.881   1.795
17139W        W76235  40.342  30.554  12.975
17140W        W76236  25.131  43.386  11.914
17141W        W76237   5.903  28.536  13.793
17142W        W76238  33.962  15.593   1.756
17143W        W76239   3.863  39.865  13.323
17144W        W76240  31.583   5.288   1.902
17145W        W76241   7.243   7.898  11.605
17146W        W76242  37.926   3.711  14.968
17147W        W76243  40.841  28.038  12.013
17148W        W76244   1.378   0.373   3.822
17149W        W76245   1.949  38.466  14.442
17150W        W76246  29.511  41.530   2.725
17151W        W76247  33.999  19.060   0.432
17152W        W76248  21.667  26.057   0.382
17153W        W76249   7.698  40.855  11.605
17154W        W76250  15.125  37.397  12.047
17155W        W76251   7.280  28.560   1.806
17156W        W76252  16.166  16.300   4.251
17157W        W76253  17.580  12.787   2.259
17158W        W76254  18.656   1.476   1.736
17159W        W76255  18.653  19.752  13.900
17160W        W76256   6.750  19.169   2.669
17161W        W76257  28.972  23.727   1.343
17162W        W76258   6.791  19.063  11.569
17163W        W76259  24.185  27.945  13.893
17164W        W76260  34.994   1.843  13.012
17165W        W76261  37.005  32.568  13.995
17166W        W76262   8.406  28.053   3.704
17167W        W76263  10.354  14.737   1.398
17168W        W76264  35.021  18.605   5.121
17169W        W76265  33.083  14.718  10.416
17170W        W76266  44.315  29.089   2.223
17171W        W76267  28.135  30.630   3.226
17172W        W76268  21.093  16.176  11.005
17173W        W76269  10.752  14.822  12.991
17174W        W76270  25.492  29.456  13.926
17175W        W76271  33.449  39.866  10.422
17176W        W76272  29.473  15.767   4.188
17177W        W76273  24.139  18.282  14.348
17178W        W76274  36.848   1.871   3.378
17179W        W76275  24.072  41.012  14.918
17180W        W76276   3.329  25.479  10.594
17181W        W76277  22.179   0.451  13.934
17182W        W76278  12.128   2.934   1.319
17183W        W76279  20.691  36.424  11.525
17184W        W76280  43.420  14.233   1.874
17185W        W76281  18.236  17.568   4.190
17186W        W76282   4.746  22.011   1.841
17187W        W76283   8.738  25.188   3.632
17188W        W76284  44.479   9.684  12.430
17189W        W76285   9.673   0.796  10.459
17190W        W76286  15.711  17.128   2.408
17191W        W76287  19.088   5.690  11.924
17192W        W76288   8.304  37.410  13.931
17193W        W76289   5.917   5.381   1.846
17194W        W76290  26.107  29.641  14.021
17195W        W76291  22.087  19.758   2.215
17196W        W76292  43.929  39.518   1.848
17197W        W76293  32.110   4.916  11.042
17198W        W76294   9.734  29.091   1.762
17199W        W76295  41.968  35.587  11.088
17200W        W76296  31.549   7.898   3.216
17201W        W76297  39.889   4.711  13.500
17202W        W76298   4.874  42.004  11.997
17203W        W76299  29.918  25.638   0.333
17204W        W76300  12.361   9.341   3.196
17205W        W76301  33.975  25.028   9.668
17206W        W76302  21.043  11.322  11.590
17207W        W76303  44.902  25.559  13.813
17208W        W76304   5.840  28.066   1.414
17209W        W76305  21.517  12.324  12.546
17210W        W76306  26.582  27.008  11.432
17211W        W76307   0.303  18.595   2.783
17212W        W76308   3.816  42.913   2.707
17213W        W76309  13.807  17.657  12.855
17214W        W76310  19.714  42.434  10.994
17215W        W76311  31.540  32.091  10.437
17216W        W76312   7.679   8.749   1.416
17217W        W76313   8.393  10.687  14.958
17218W        W76314   4.755  38.384  10.409
17219W        W76315  37.533   7.898   0.312
17220W        W76316   8.758   4.218  13.323
17221W        W76317  21.544  29.117   4.114
17222W        W76318  33.090  33.102  13.015
17223W        W76319   1.931  17.691  13.028
17224W        W76320  34.922  36.908   0.899
17225W        W76321  23.543  19.633   2.786
17226W        W76322  36.400  33.885  12.052
17227W        W76323  27.517  24.021   1.248
17228W        W76324  21.225  22.622   2.385
17229W        W76325  36.562  42.027   1.701
17230W        W76326  37.954  44.430   9.961
17231W        W76327  25.029  22.620   3.863
17232W        W76328  41.984   2.776  10.981
17233W        W76329  34.971  20.580   4.802
17234W        W76330  39.360   1.923  13.473
17235W        W76331  13.247  20.045   3.648
17236W        W76332  27.995   9.850  10.407
17237W        W76333   2.815   0.776  14.032
17238W        W76334  42.283  21.186  10.541
17239W        W76335  39.389  26.174  13.351
17240W        W76336  23.132  30.459  14.915
17241W        W76337  34.873  41.879   3.198
17242W        W76338  23.636   4.264   0.391
17243W        W76339  23.037  41.908   3.796
17244W        W76340  28.157  26.636  12.861
17245W        W76341   0.442  43.313  11.019
17246W        W76342  37.951  14.746   4.818
17247W        W76343  34.417   9.192  10.911
17248W        W76344  43.290  36.021  11.068
17249W        W76345  30.487  41.987  14.932
17250W        W76346  27.971   8.321  14.463
17251W        W76347  18.576  15.792  13.433
17252W        W76348  24.638   5.310   4.319
17253W        W76349  19.095  35.955  13.005
17254W        W76350  25.655  13.116  11.058
17255W        W76351  36.429   5.426   2.203
17256W        W76352  35.474  25.675   4.179
17257W        W76353  23.071  28.168  10.421
17258W        W76354  17.124  38.525  12.566
17259W        W76355  44.801  37.885   0.314
17260W        W76356   1.899  22.672  14.305
17261W        W76357  40.504   9.764  14.311
17262W        W76358  16.803   3.398   4.293
17263W        W76359  41.426  16.105  14.937
17264W        W76360  26.198   9.382   1.901
17265W        W76361  17.222  17.082  12.082
17266W        W76362  37.870  17.710   3.241
17267W        W76363   6.919  29.525   1.872
17268W        W76364  20.688  19.656  14.774
17269W        W76365  38.912  16.627   3.371
17270W        W76366  20.045  19.649  10.143
17271W        W76367  37.562  11.273   2.245
17272W        W76368  43.503   4.388   1.378
17273W        W76369  26.013  37.405   4.125
17274W        W76370  19.750  43.326   4.314
17275W        W76371  11.131  18.243   2.848
17276W        W76372  29.058  38.995  14.481
17277W        W76373  41.366  24.651  13.908
17278W        W76374  25.182  25.552  10.524
17279W        W76375  38.036  33.494  12.426
17280W        W76376   9.739   1.246   4.168
17281W        W76377  17.781  16.590   3.360
17282W        W76378  10.306  18.588  10.946
17283W        W76379  24.973  32.416  14.854
17284W        W76380  16.235  16.277  14.783
17285W        W76381  44.853   5.432  12.948
17286W        W76382  24.179   3.390  11.400
17287W        W76383   8.694  31.444  11.446
17288W        W76384  14.330   2.870   3.345
17289W        W76385  36.028  41.931  14.467
17290W        W76386  19.183  26.632  14.972
17291W        W76387   0.972   7.187  13.331
17292W        W76388  32.535  29.444  10.564
17293W        W76389  12.190  38.514   0.248
17294W        W76390   9.888   4.727  13.518
17295W        W76391  30.419  14.323  13.499
17296W        W76392  42.799  25.713  12.481
17297W        W76393   4.915  21.034   2.700
17298W        W76394   1.316  25.594   0.770
17299W        W76395  37.057  23.605  14.315
17300W        W76396   5.426  44.818  11.427
17301W        W76397  43.849   4.785  10.507
17302W        W76398   2.253  29.007   0.873
17303W        W76399  24.978  24.208  13.523
17304W        W76400  34.006  18.236  13.817
17305W        W76401  24.636  44.477   1.408
17306W        W76402  22.248   3.437  11.918
17307W        W76403  13.687  11.703   1.834
17308W        W76404  28.633  27.967  12.862
17309W        W76405  23.210  44.464  12.849
17310W        W76406  22.645  33.074  14.914
17311W        W76407  36.407  20.257   0.863
17312W        W76408  44.973  30.532  10.973
17313W        W76409  28.080  11.167   2.249
17314W        W76410   2.768  37.078   1.899
17315W        W76411  26.993  12.820  11.555
17316W        W76412  36.024  12.342   0.279
17317W        W76413  43.294  31.018   4.296
17318W        W76414  35.078  39.871  14.315
17319W        W76415  25.981   8.246  11.982
17320W        W76416  12.807  20.138   4.638
17321W        W76417  28.083  23.683   5.213
17322W        W76418  13.257   7.834   3.252
17323W        W76419  29.568  11.176   0.771
17324W        W76420  29.438  38.561   2.857
17325W        W76421  44.421  30.494   0.943
17326W        W76422   9.706  16.630  13.355
17327W        W76423   9.202  42.908   3.228
17328W        W76424  42.430  37.491  14.926
17329W        W76425  35.557   8.685  10.918
17330W        W76426  30.432  21.720   4.740
17331W        W76427  34.483  35.398   3.298
17332W        W76428  40.374  28.934   3.264
17333W        W76429  12.698  10.355  10.493
17334W        W76430   9.873  42.824   1.362
17335W        W76431  35.037  29.014   1.320
17336W        W76432  15.759   4.927  12.899
17337W        W76433  42.377   2.460   4.240
17338W        W76434  33.397  31.471   4.624
17339W        W76435  13.799  32.109   4.812
17340W        W76436   7.281   4.401  12.837
17341W        W76437  15.210   4.758  10.512
17342W        W76438  27.477   9.696  14.967
17343W        W76439  43.352   8.318   1.795
17344W        W76440  15.309   7.334   3.677
17345W        W76441  28.550  13.338  13.983
17346W        W76442  35.048  44.428  12.826
17347W        W76443  42.943  28.159  10.493
17348W        W76444  38.911  40.540   2.228
17349W        W76445  21.193  13.604  11.034
17350W        W76446   1.873  29.595   3.222
17351W        W76447   7.759  21.605   2.231
17352W        W76448  40.539   5.914   3.674
17353W        W76449  25.588   3.287   5.251
17354W        W76450  30.510  25.065   1.823
17355W        W76451  16.702  29.606   9.921
17356W        W76452  32.435  10.167  13.065
17357W        W76453  11.754  31.534   4.826
17358W        W76454  15.781   5.749  13.333
17359W        W76455  43.343  40.388  13.491
17360W        W76456  30.120   0.443   4.742
17361W        W76457  44.441  22.732   2.825
17362W        W76458   2.723  29.951  14.765
17363W        W76459  43.512   5.792   4.749
17364W        W76460  33.938  41.791   0.437
17365W        W76461   9.769   7.240   0.294
17366W        W76462   8.311  14.121   9.962
17367W        W76463  24.056  22.154  11.508
17368W        W76464   7.698  12.211   0.926
17369W        W76465   4.822  11.627  13.952
17370W        W76466  29.931  22.138   2.782
17371W        W76467   4.834  32.504  12.886
17372W        W76468  31.438   8.338  11.464
17373W        W76469  42.312  38.881  13.846
17374W        W76470  43.796   4.327  13.319
17375W        W76471  35.543  17.667  12.001
17376W        W76472  22.105   7.364   4.252
17377W        W76473  28.007  43.307  11.402
17378W        W76474  18.730  13.835   2.205
17379W        W76475  35.478  35.032   4.644
17380W        W76476  11.773  22.188   0.927
17381W        W76477  14.732  30.542  14.428
17382W        W76478   7.241  25.572  14.333
17383W        W76479  35.909  32.921  11.081
17384W        W76480  22.743  35.369   0.914
17385W        W76481  43.421  42.828  12.032
17386W        W76482  19.566  44.476  11.400
17387W        W76483  11.252  29.429  14.937
17388W        W76484  12.167  34.591   3.385
17389W        W76485  19.707  22.576   3.693
17390W        W76486   1.791   9.176  14.849
17391W        W76487  18.665  41.513   1.296
17392W        W76488  18.785  26.509   3.866
17393W        W76489  10.272  24.185  13.403
17394W        W76490   2.867   6.350   1.898
17395W        W76491  24.007  24.675  11.478
17396W        W76492  18.235  24.149   2.717
17397W        W76493  28.562  39.385  11.916
17398W        W76494  20.125  23.052   2.720
17399W        W76495  42.483  26.653   3.638
17400W        W76496  37.889  35.022  11.607
17401W        W76497  40.433  41.830  13.409
17402W        W76498  22.158   1.447   2.847
17403W        W76499  44.414  40.983   1.838
17404W        W76500   0.335  10.142  14.352
17405W        W76501  21.237  32.500  14.442
17406W        W76502  29.046   9.853   3.751
17407W        W76503  37.461  23.214  13.328
17408W        W76504  23.682  35.366  12.545
17409W        W76505  36.941  40.507   1.765
17410W        W76506  16.783  43.287  13.833
17411W        W76507  13.189  20.654   2.238
17412W        W76508   4.399  28.115   1.901
17413W        W76509   9.283  10.714  13.036
17414W        W76510   3.452   9.881   0.853
17415W        W76511   1.328  16.088  12.922
17416W        W76512  36.999  43.930   3.187
17417W        W76513  27.491  29.136   1.697
17418W        W76514  33.037  29.653  11.414
17419W        W76515  24.056   1.749  11.093
17420W        W76516   2.420   9.209  12.375
17421W        W76517  14.249  40.332   1.373
17422W        W76518  25.962  38.418   4.612
17423W        W76519  12.235   5.880  11.589
17424W        W76520  40.010   5.328   0.285
17425W        W76521  17.295  24.086  14.485
17426W        W76522  25.470  11.855   9.958
17427W        W76523  26.675   0.489   0.897
17428W        W76524   5.421  22.065   9.977
17429W        W76525  20.147  39.960  11.517
17430W        W76526   6.766  20.576  11.937
17431W        W76527  43.379  24.594  12.504
17432W        W76528  10.159  35.494   1.280
17433W        W76529  37.957   0.964  11.058
17434W        W76530   6.380  42.283  13.872
17435W        W76531  34.455  37.061  11.526
17436W        W76532   4.936  34.421   4.720
17437W        W76533   4.700  17.247   2.852
17438W        W76534  38.828  13.189  10.493
17439W        W76535  31.996   9.768   3.201
17440W        W76536  24.162  28.463   4.342
17441W        W76537  23.589  36.444   4.792
17442W        W76538  31.952  26.632   2.894
17443W        W76539   1.259   5.425  14.765
17444W        W76540   4.889  42.371   1.348
17445W        W76541  20.169   5.923  10.414
17446W        W76542   3.436  44.919  14.856
17447W        W76543  14.337  43.331   0.352
17448W        W76544  12.148  34.094  12.007
17449W        W76545  44.390  24.584   3.868
17450W        W76546  29.146  17.264  12.857
17451W        W76547   2.391  34.967  14.856
17452W        W76548  33.960  26.124   3.691
17453W        W76549  13.170  29.083  14.317
17454W        W76550  36.589   8.329   0.747
17455W        W76551  40.484  21.516   2.404
17456W        W76552  21.120  31.524   4.770
17457W        W76553  28.010  42.814   1.724
17458W        W76554  19.659  21.630   4.713
17459W        W76555  40.460  21.703   4.614
17460W        W76556  27.613  28.572   0.299
17461W        W76557  41.357   5.922   2.340
17462W        W76558  34.981  34.459  12.387
17463W        W76559   1.402  34.118  10.404
17464W        W76560  16.256  12.300   3.779
17465W        W76561  22.622  26.954   4.280
17466W        W76562  16.257  20.758  12.935
17467W        W76563  11.191  14.310  10.960
17468W        W76564   0.463  17.188  11.942
17469W        W76565   9.734  34.936   1.931
17470W        W76566   2.883  26.107   3.669
17471W        W76567  14.740  11.731  11.003
17472W        W76568   8.792   2.767  11.017
17473W        W76569  19.115  39.365  12.960
17474W        W76570  16.719   1.239  12.404
17475W        W76571  29.119  32.999  12.990
17476W        W76572  18.633  44.414  11.968
17477W        W76573  25.539  15.691  12.552
17478W        W76574  40.368  12.788  13.864
17479W        W76575  20.107   4.922   4.287
17480W        W76576  18.097  22.733   4.781
17481W        W76577  17.215  40.490   2.901
17482W        W76578  35.012  21.735  14.956
17483W        W76579  43.382  29.616   0.750
17484W        W76580   5.794  10.352  13.907
17485W        W76581   7.800  14.298  10.081
17486W        W76582  16.762  40.307   3.653
17487W        W76583  12.173  12.143  10.563
17488W        W76584  36.035   2.451   0.930
17489W        W76585   9.647  30.926  13.892
17490W        W76586  14.175  35.511  14.306
17491W        W76587  34.117  31.044   3.248
17492W        W76588  12.218  15.109   3.248
17493W        W76589  20.657  44.820  13.894
17494W        W76590  22.582  23.030  13.514
17495W        W76591  19.125  21.646   4.682
17496W        W76592  37.389  24.997   1.880
17497W        W76593  27.500  37.423  13.967
17498W        W76594  24.716  10.321   4.258
17499W        W76595  40.921  14.754   1.358
17500W        W76596  21.746  23.178  13.358
17501W        W76597  31.009  28.937   4.772
17502W        W76598  18.587  18.683  12.986
17503W        W76599  41.922  28.983   2.796
17504W        W76600  40.953  35.420  13.896
17505W        W76601   1.798  24.980   1.261
17506W        W76602  30.455   0.358  14.890
17507W        W76603  24.109  43.463   1.380
17508W        W76604  36.000  10.197   0.935
17509W        W76605  20.145  11.667   5.246
17510W        W76606   2.868  12.732   1.436
17511W        W76607  12.638  18.222   0.777
17512W        W76608   1.319  19.244   3.722
17513W        W76609   1.946  29.963   4.232
17514W        W76610  15.245  39.973  10.589
17515W        W76611  24.215  43.281  13.525
17516W        W76612  32.941  24.514  10.033
17517W        W76613  10.194  13.811  14.289
17518W        W76614  36.010  25.664  11.099
17519W        W76615  14.826  32.029  14.497
17520W        W76616  23.034  16.718   0.478
17521W        W76617   4.307  21.610  14.409
17522W        W76618  35.561   0.312   0.740
17523W        W76619  41.789   6.856  13.334
17524W        W76620   4.751  39.454  13.356
17525W        W76621   5.347   7.709   1.218
17526W        W76622  41.295  14.635  14.793
17527W        W76623   4.382  17.271   4.242
17528W        W76624  33.937  42.352  13.030
17529W        W76625  35.938   9.348  14.985
17530W        W76626   9.846  30.986   0.300
17531W        W76627   0.795  12.355  10.998
17532W        W76628   4.216  20.177   1.434
17533W        W76629  16.230  39.999  11.037
17534W        W76630   1.242   3.343   3.809
17535W        W76631  23.017  38.820   3.290
17536W        W76632  43.358  28.648  14.397
17537W        W76633   5.259  23.009   5.268
17538W        W76634  41.928   2.817   1.716
17539W        W76635  43.872   0.449   2.693
17540W        W76636  13.163   5.918   4.600
17541W        W76637   3.222  22.523  10.980
17542W        W76638   1.867  29.978   3.725
17543W        W76639  41.905  41.869  13.058
17544W        W76640  40.458   4.863  11.527
17545W        W76641  34.601  14.740  10.455
17546W        W76642   0.478  18.268  11.571
17547W        W76643  39.036  17.796  11.446
17548W        W76644  22.143  30.503  14.980
17549W        W76645  28.503   2.295  13.451
17550W        W76646  14.599  17.727   9.518
17551W        W76647  11.825  14.260  13.839
17552W        W76648  12.259  16.669  12.368
17553W        W76649  40.893  28.067   2.200
17554W        W76650  18.089   1.338   3.729
17555W        W76651  19.198  40.954   2.671
17556W        W76652  42.307  11.655   3.859
17557W        W76653  43.929  22.065  10.894
17558W        W76654  39.972  25.078  11.591
17559W        W76655  40.971  37.870  14.800
17560W        W76656  42.983  17.691   0.382
17561W        W76657  22.067   5.687   4.656
17562W        W76658  39.035  25.070  12.559
17563W        W76659  28.533  17.655   0.766
17564W        W76660  17.791  17.200  11.943
17565W        W76661  20.529  32.597   0.262
17566W        W76662  31.544  12.788   4.235
17567W        W76663  30.035  42.990   2.282
17568W        W76664   3.277  34.407   2.281
17569W        W76665   3.300  11.667  14.279
17570W        W76666   6.229   5.761   4.807
17571W        W76667  29.127  27.504   2.209
17572W        W76668  34.550  42.821   4.688
17573W        W76669  27.178  22.253   4.260
17574W        W76670   1.483  36.858  10.423
17575W        W76671  24.497  18.064  12.934
17576W        W76672  37.425   7.667   3.677
17577W        W76673  29.576  11.316   0.291
17578W        W76674  10.287  12.789  13.799
17579W        W76675  13.718  31.031   1.725
17580W        W76676  14.340   2.798  11.090
17581W        W76677  29.592  24.493  12.438
17582W        W76678  26.588   0.413   3.687
17583W        W76679   6.726  29.009   1.442
17584W        W76680  11.750  24.195   4.292
17585W        W76681  11.788   7.755   2.836
17586W        W76682   6.384  41.486  12.914
17587W        W76683  38.978  28.613   4.614
17588W        W76684  29.134   6.697   3.256
17589W        W76685   8.788  39.957   2.760
17590W        W76686  18.275  42.001  12.855
17591W        W76687  12.287  35.011   2.695
17592W        W76688  40.912  24.191   2.204
17593W        W76689  33.981  35.478   0.259
17594W        W76690  27.174  17.686  11.431
17595W        W76691  36.592  31.924   2.833
17596W        W76692   8.740  24.997  12.884
17597W        W76693  36.423  41.884  10.934
17598W        W76694  28.100  20.554  10.088
17599W        W76695  10.157  22.684   4.772
17600W        W76696   0.348  25.061  14.859
17601W        W76697   0.344   6.709  11.898
17602W        W76698   1.479  40.827   0.926
17603W        W76699  24.216   5.793  12.468
17604W        W76700   0.892  32.537   4.760
17605W        W76701  35.517  37.051  14.373
17606W        W76702   4.409  18.085  13.852
17607W        W76703  16.713   2.305   0.914
17608W        W76704  29.664   4.343   4.299
17609W        W76705  19.092  15.769  13.918
17610W        W76706  11.624  27.177   2.733
17611W        W76707  31.402  20.589   0.367
17612W        W76708  21.178  18.141  10.942
17613W        W76709  15.105   4.879   0.758
17614W        W76710  21.651   7.694   2.892
17615W        W76711  28.083  27.961  12.414
17616W        W76712  18.140  37.944   3.185
17617W        W76713  37.468  34.561  14.359
17618W        W76714  37.050  35.008  12.043
17619W        W76715  41.982  34.615  10.613
17620W        W76716   0.494  23.553   0.381
17621W        W76717   0.388  35.455  14.997
17622W        W76718  29.584  34.612   4.781
17623W        W76719  17.130  15.301  14.938
17624W        W76720  31.496  29.566  11.973
17625W        W76721  33.004   4.265   0.860
17626W        W76722  14.097  23.211   0.271
17627W        W76723   3.905  39.039  10.083
17628W        W76724  35.573  34.400  14.019
17629W        W76725  34.575  28.507  14.908
17630W        W76726  34.371  27.949   0.357
17631W        W76727  31.434  34.479  11.937
17632W        W76728  29.516  37.367   3.758
17633W        W76729  23.023   0.889  14.476
17634W        W76730  10.169  21.658  12.992
17635W        W76731  15.251  32.922  11.373
17636W        W76732  22.216  28.535  11.866
17637W        W76733  32.904  23.625   0.455
17638W        W76734  34.386  14.650  14.438
17639W        W76735  13.661   6.756  10.574
17640W        W76736  32.460  22.179  14.895
17641W        W76737  40.380  40.341   2.334
17642W        W76738  30.473   9.208   3.278
17643W        W76739  38.370  36.584  11.056
17644W        W76740   7.406  10.790   0.807
17645W        W76741   0.818  41.516   4.314
17646W        W76742  36.366   8.319  13.396
17647W        W76743  34.026  15.761  13.044
17648W        W76744  40.042   2.749   0.350
17649W        W76745   3.350  42.860  12.881
17650W        W76746   9.877  18.143   2.332
17651W        W76747   9.285  34.468  13.023
17652W        W76748  13.803   2.781  12.505
17653W        W76749  21.199  25.607  14.329
17654W        W76750   9.758  32.076  12.853
17655W        W76751  43.482  26.022  10.583
17656W        W76752  26.955  36.944   5.621
17657W        W76753  16.170  28.137  10.999
17658W        W76754  22.653   7.676  11.531
17659W        W76755  35.895  37.499   3.677
17660W        W76756   7.780  40.889   3.149
17661W        W76757  41.969  31.140   4.626
17662W        W76758  34.506  40.007  10.415
17663W        W76759  43.933  12.292  13.883
17664W        W76760   4.864  23.990  14.821
17665W        W76761  21.582  28.516  11.912
17666W        W76762  44.885  28.577  14.347
17667W        W76763  43.872  44.455   2.337
17668W        W76764  18.197  20.150   2.670
17669W        W76765   5.362  12.217   4.638
17670W        W76766  31.125  22.741   1.868
17671W        W76767  20.570  12.836   0.884
17672W        W76768  31.105  38.955   4.683
17673W        W76769   4.359   9.753  13.812
17674W        W76770   8.684  40.934  13.925
17675W        W76771   6.913  44.440   4.736
17676W        W76772   4.928   4.262  14.360
17677W        W76773  36.538  42.962  12.453
17678W        W76774  13.836  11.841   4.224
17679W        W76775  11.837  11.690  12.958
17680W        W76776   5.196  36.079   3.714
17681W        W76777  39.366  22.635   4.634
17682W        W76778  20.083  20.624  13.426
17683W        W76779  17.792   2.952  12.992
17684W        W76780   8.808  32.409   0.469
17685W        W76781  41.851  12.219  11.944
17686W        W76782  28.995  18.067   2.188
17687W        W76783  13.266  11.164   1.865
17688W        W76784   7.290  23.123   1.756
17689W        W76785  17.764   0.486   0.362
17690W        W76786   5.771   4.864  11.522
17691W        W76787  20.125  37.832   2.295
17692W        W76788  29.144  41.018  12.439
17693W        W76789   5.874  35.450  14.480
17694W        W76790  13.823  26.506   1.277
17695W        W76791  25.640  41.459   2.320
17696W        W76792  40.538   6.371  12.834
17697W        W76793  15.183  39.556   3.239
17698W        W76794  17.769   8.271  11.104
17699W        W76795  25.006   0.268  13.363
17700W        W76796   0.898  44.868  14.478
17701W        W76797   8.873  19.104  10.112
17702W        W76798   9.339   1.429   0.371
17703W        W76799  10.738  42.877   0.281
17704W        W76800  31.617  40.942   4.193
17705W        W76801  39.947  19.064   1.362
17706W        W76802   3.296  11.222   3.275
17707W        W76803  12.768  24.550  11.955
17708W        W76804  43.445  41.789   0.396
17709W        W76805  33.450   6.291  14.022
17710W        W76806   1.837  31.528  12.406
17711W        W76807  22.741   0.335  13.522
17712W        W76808  28.930  10.786  12.562
17713W        W76809   1.296  29.056   2.347
17714W        W76810  19.053  28.635  13.538
17715W        W76811  26.123  13.295  11.574
17716W        W76812  36.911  36.078   0.399
17717W        W76813  12.653  36.435  11.543
17718W        W76814   4.220  11.717   1.913
17719W        W76815  36.971  32.912  13.837
17720W        W76816  15.307   1.403  13.965
17721W        W76817   5.347  10.192   3.808
17722W        W76818  32.458  17.287  14.915
17723W        W76819   1.806  21.027   1.903
17724W        W76820  31.598  28.176  10.612
17725W        W76821  38.518  21.196   0.354
17726W        W76822  20.709   9.310   0.378
17727W        W76823  25.647  20.116   4.779
17728W        W76824  30.946  33.605   3.213
17729W        W76825  35.904   7.291   1.762
17730W        W76826  39.861  32.897   4.128
17731W        W76827  30.423   2.865  11.917
17732W        W76828  16.672  40.939   3.302
17733W        W76829  19.167   6.760   4.354
17734W        W76830  32.115  37.966   4.707
17735W        W76831   5.910  11.799   3.853
17736W        W76832  11.864  38.420  13.530
17737W        W76833  29.129  27.168  10.972
17738W        W76834  20.535  44.369  10.435
17739W        W76835   8.837  26.137   2.236
17740W        W76836   0.389  22.569  11.483
17741W        W76837  33.879  17.775   3.217
17742W        W76838  42.316   9.698  10.590
17743W        W76839  40.451   5.289   0.883
17744W        W76840  43.858   0.820  14.444
17745W        W76841  24.219  24.701   0.780
17746W        W76842  15.711   9.707   2.376
17747W        W76843  20.119   0.756   0.967
17748W        W76844   3.408  16.672   1.917
17749W        W76845  36.436  15.662   2.892
17750W        W76846  36.586  37.364  14.314
17751W        W76847  42.317  38.004   4.729
17752W        W76848  23.641  14.147  13.953
17753W        W76849  23.135  14.789   2.667
17754W        W76850   2.820   9.828   0.847
17755W        W76851  31.423  26.145   4.693
17756W        W76852  22.007  39.515  14.283
17757W        W76853   1.965  11.129  10.923
17758W        W76854  14.308  21.687  10.895
17759W        W76855  29.443  25.547   0.810
17760W        W76856   2.780  42.385   4.299
17761W        W76857   9.730  20.590  13.434
17762W        W76858  25.131   2.784  14.335
17763W        W76859  30.014   8.318   0.302
17764W        W76860  41.982  34.545  12.360
17765W        W76861  13.218  30.062  10.494
17766W        W76862  44.848  26.080   2.731
17767W        W76863  13.300  21.527   4.300
17768W        W76864  22.515  40.481  14.002
17769W        W76865  20.737  23.027   2.240
17770W        W76866  44.879  14.324  10.600
17771W        W76867  26.093  24.998   3.193
17772W        W76868   2.449  26.647  12.835
17773W        W76869  30.011  30.474   4.637
17774W        W76870  26.511  20.702   0.946
17775W        W76871  26.638  36.858  13.009
17776W        W76872  13.637   3.945  14.296
17777W        W76873  24.660  36.926   3.326
17778W        W76874  41.967  16.603  12.831
17779W        W76875   0.974   7.893  12.994
17780W        W76876  11.249  29.035   3.799
17781W        W76877   0.862  36.958   4.786
17782W        W76878   6.863  16.714   4.645
17783W        W76879  15.257   3.231  14.026
17784W        W76880  25.660  24.673   2.177
17785W        W76881  21.747   1.916  10.582
17786W        W76882  26.529  14.183  11.399
17787W        W76883  35.871  36.523  11.439
17788W        W76884  27.503   8.166   0.482
17789W        W76885   4.244  36.885  10.489
17790W        W76886  23.710   0.430   3.315
17791W        W76887  39.434  43.941  10.506
17792W        W76888   5.431  31.543   0.895
17793W        W76889  25.157  21.140   5.126
17794W        W76890  25.660  13.701  13.429
17795W        W76891  23.720   4.292   3.757
17796W        W76892   9.336  37.884   4.169
17797W        W76893  24.549  32.575   3.759
17798W        W76894  40.500  15.307  11.487
17799W        W76895  16.804   9.375   4.175
17800W        W76896  17.181   8.824   0.296
17801W        W76897  33.892  41.031   4.752
17802W        W76898  33.879   6.195  14.864
17803W        W76899   5.234   7.192   2.764
17804W        W76900  12.680   1.268   2.747
17805W        W76901   4.731  35.463   0.267
17806W        W76902  31.421  38.908   1.847
17807W        W76903  44.402  41.866   4.213
17808W        W76904  39.853   9.210  11.440
17809W        W76905  10.335  19.743   0.371
17810W        W76906  36.091   4.440   4.685
17811W        W76907  19.098  35.907  14.298
17812W        W76908  35.917  22.998   2.762
17813W        W76909   7.826  41.796  13.484
17814W        W76910  18.137  15.102   2.198
17815W        W76911  39.968  19.756  11.442
17816W        W76912  37.985   7.686   4.693
17817W        W76913  26.506  11.729  12.972
17818W        W76914  42.911  22.218   2.806
17819W        W76915   7.378  30.563  13.517
17820W        W76916  14.798  43.949   2.677
17821W        W76917  15.318  25.178  13.546
17822W        W76918  27.471  13.797  14.343
17823W        W76919  14.828  17.262  11.031
17824W        W76920   9.318   5.358   0.782
17825W        W76921  16.183  18.056   3.733
17826W        W76922  42.294   8.786   4.131
17827W        W76923   4.358   3.881   3.693
17828W        W76924  27.550  18.294   0.354
17829W        W76925  13.745  43.989   0.753
17830W        W76926  25.045   8.699   5.301
17831W        W76927   9.294  12.722   0.428
17832W        W76928  39.853  24.480   3.686
17833W        W76929  20.081  13.190   4.689
17834W        W76930  21.596  27.115   3.837
17835W        W76931  26.496   1.470  14.985
17836W        W76932  28.438  20.624   0.403
17837W        W76933  30.587   3.273   2.676
17838W        W76934  26.640  33.382   4.806
17839W        W76935  27.505  34.979   2.856
17840W        W76936  44.488  21.037   1.241
17841W        W76937   1.414  40.808   1.783
17842W        W76938  44.991  33.515  13.349
17843W        W76939  38.044   3.458  14.319
17844W        W76940  14.241   3.759  13.364
17845W        W76941  39.903   1.794  11.513
17846W        W76942  38.061  17.075  11.417
17847W        W76943   9.817  25.150  13.942
17848W        W76944   3.743  43.342   1.840
17849W        W76945  38.060  14.252  12.577
17850W        W76946  24.150  17.296  10.507
17851W        W76947  39.853  17.593   4.149
17852W        W76948  31.106  30.165  14.872
17853W        W76949   0.478   6.393  13.502
17854W        W76950  44.489   9.689  14.949
17855W        W76951  40.444  18.737  12.901
17856W        W76952  40.827   6.412  14.938
17857W        W76953  20.078  36.854   3.720
17858W        W76954  12.821  33.877   4.697
17859W        W76955  41.872  15.681   4.674
17860W        W76956  39.934  21.098   0.839
17861W        W76957  12.819  33.571   0.244
17862W        W76958   0.771  20.076  11.055
17863W        W76959   9.765  13.630   1.862
17864W        W76960  20.563  25.533  14.514
17865W        W76961  20.096   7.912   0.750
17866W        W76962  18.236  38.973   0.775
17867W        W76963  44.008  20.045   3.700
17868W        W76964  42.495  11.739   2.218
17869W        W76965  38.067  25.010  12.929
17870W        W76966  31.435  10.825   1.213
17871W        W76967  26.531  15.097   2.854
17872W        W76968  28.576  23.517  11.569
17873W        W76969  23.994  10.164   5.098
17874W        W76970  14.153  27.953   0.312
17875W        W76971  17.764  21.065   1.439
17876W        W76972  42.945  29.462   4.347
17877W        W76973  29.588  40.450   1.327
17878W        W76974  35.979  24.655  13.832
17879W        W76975  25.714   6.760   2.692
17880W        W76976  23.630  28.471   3.285
17881W        W76977  29.047  11.361   1.697
17882W        W76978  42.016  43.939   0.859
17883W        W76979  42.499  30.422   2.310
17884W        W76980  19.624  13.829  10.969
17885W        W76981  24.710  40.882   4.228
17886W        W76982  35.008  20.553   4.271
17887W        W76983   7.202  44.882   1.750
17888W        W76984  17.767  18.652  10.642
17889W        W76985  33.901  24.714  13.441
17890W        W76986  29.919  19.050   1.902
17891W        W76987  11.370  23.530   0.799
17892W        W76988  14.764  34.003  11.928
17893W        W76989   0.888  43.928  12.946
17894W        W76990  33.468  39.822   2.716
17895W        W76991  33.923   4.767   3.746
17896W        W76992  36.040  41.878   0.780
17897W        W76993  38.959  31.959   1.393
17898W        W76994   7.398  34.476   2.295
17899W        W76995   1.901  35.958   3.270
17900W        W76996  36.563  28.171  14.982
17901W        W76997  26.140  44.846  12.933
17902W        W76998  35.570  27.028  12.049
17903W        W76999   6.812  34.459   0.359
17904W        W77000  21.657  18.231   3.832
17905W        W77001   9.865   6.794   2.878
17906W        W77002  21.711  15.220  14.999
17907W        W77003   6.883  44.355   3.360
17908W        W77004  18.277  10.877  10.607
17909W        W77005  20.523  31.519   2.216
17910W        W77006  27.145  13.674   1.359
17911W        W77007  20.702  28.156  11.032
17912W        W77008  13.201  34.576   4.201
17913W        W77009  24.518  35.496  13.893
17914W        W77010  34.988   6.300   2.768
17915W        W77011   0.341  26.145  14.350
17916W        W77012   3.218  22.029   0.483
17917W        W77013  14.748  30.907  11.467
17918W        W77014  30.429   1.800  13.884
17919W        W77015   9.734  26.509  12.500
17920W        W77016  15.670  36.552  12.503
17921W        W77017  28.628   5.769  11.544
17922W        W77018  22.217  40.527  13.532
17923W        W77019  20.610  43.385  13.514
17924W        W77020  25.121  34.558   3.750
17925W        W77021  42.953   2.914   4.778
17926W        W77022  21.527  29.475  14.513
17927W        W77023  31.446  17.138   0.898
17928W        W77024   4.372  28.501  10.499
17929W        W77025  23.550   6.922   1.257
17930W        W77026  32.625  12.208   4.169
17931W        W77027  22.537  32.940  11.891
17932W        W77028  27.964  13.203   4.113
17933W        W77029  40.497  22.229  11.564
17934W        W77030  23.702  15.166  10.545
17935W        W77031  33.053  37.067   0.915
17936W        W77032  37.337  36.527  11.936
17937W        W77033  42.312  27.077  10.914
17938W        W77034  41.517  36.402  14.884
17939W        W77035   4.941   2.352   2.888
17940W        W77036   0.402  44.273  11.587
17941W        W77037  41.936  27.071   4.829
17942W        W77038  30.920  22.732   2.681
17943W        W77039  41.316  34.534   4.218
17944W        W77040  22.208  35.441  14.306
17945W        W77041  22.504  39.895  10.987
17946W        W77042  26.688  43.271  14.881
17947W        W77043  14.213   6.695  14.866
17948W        W77044   0.832  43.442  12.432
17949W        W77045  11.737  18.268   5.121
17950W        W77046  20.229  42.498  14.770
17951W        W77047  43.411  44.772  11.050
17952W        W77048   0.316  25.480  11.488
17953W        W77049  28.000  26.996   2.344
17954W        W77050  41.884   2.234  13.038
17955W        W77051  32.427   3.800   1.772
17956W        W77052  22.242  36.552   4.207
17957W        W77053  31.538  22.151   0.936
17958W        W77054   3.891  25.107   9.546
17959W        W77055  10.358  11.233  13.372
17960W        W77056  10.715  19.182  14.430
17961W        W77057  12.682  21.210  14.941
17962W        W77058   3.233  34.491  13.348
17963W        W77059  35.898   8.162  14.427
17964W        W77060  18.654   6.231  13.416
17965W        W77061  41.361  11.149   0.755
17966W        W77062   5.761  29.558   0.938
17967W        W77063  17.304   1.963  11.124
17968W        W77064  33.992   5.911   0.851
17969W        W77065  41.791  18.613   2.755
17970W        W77066  22.995  43.309  12.558
17971W        W77067  34.588  24.008  14.323
17972W        W77068  27.082  14.194   0.762
17973W        W77069  27.187  29.134  11.927
17974W        W77070  31.068   0.775  10.115
17975W        W77071  16.317   8.776  12.373
17976W        W77072  40.532  29.946  10.593
17977W        W77073   1.775  12.788  14.946
17978W        W77074  36.479  10.741  13.021
17979W        W77075   3.421  43.931   0.259
17980W        W77076  25.655  41.521  10.041
17981W        W77077   6.851   8.858  11.025
17982W        W77078  14.155   3.771   3.783
17983W        W77079  41.874  26.623  14.896
17984W        W77080  36.847  41.888  11.924
17985W        W77081  39.517  22.726  13.442
17986W        W77082   7.202   1.900  12.906
17987W        W77083   3.221  28.007   1.445
17988W        W77084  41.406  34.033   3.161
17989W        W77085  28.622   9.222   0.424
17990W        W77086  44.878   9.754   0.413
17991W        W77087   2.461  38.417   1.336
17992W        W77088  34.956  41.451   2.183
17993W        W77089   7.310  23.229   4.172
17994W        W77090   8.761  15.706  12.029
17995W        W77091  19.710  35.555   1.811
17996W        W77092  38.833  36.409  10.490
17997W        W77093  16.183   5.874   3.768
17998W        W77094  36.504  41.991   2.337
17999W        W77095  18.222  16.617   4.827
18000W        W77096  16.790   3.302   3.832
18001W        W77097   2.946  24.185   1.311
18002W        W77098  22.054  31.963   0.857
18003W        W77099  41.524  42.780   3.164
18004W        W77100   2.939  23.489   2.369
18005W        W77101  37.023  25.043   3.200
18006W        W77102   7.184  28.534   3.862
18007W        W77103   1.801  11.209   4.334
18008W        W77104  22.569  44.403   2.685
18009W        W77105  30.456  22.201  12.451
18010W        W77106  37.939  10.805  11.128
18011W        W77107  11.683  36.856  11.907
18012W        W77108   9.244  41.318   5.264
18013W        W77109  12.297  40.797  12.087
18014W        W77110  16.290  20.676  14.279
18015W        W77111  27.044   5.226   0.959
18016W        W77112  40.829  25.185   0.840
18017W        W77113  16.663  27.012  11.032
18018W        W77114  31.150  13.645  11.582
18019W        W77115  23.182  28.542   1.927
18020W        W77116  14.800   5.219   4.653
18021W        W77117  20.699  43.841  10.584
18022W        W77118  22.145  29.994  13.059
18023W        W77119  42.008  38.472  11.579
18024W        W77120  40.936  15.092  11.011
18025W        W77121  18.721  12.198  14.470
18026W        W77122  21.219  39.547   3.366
18027W        W77123  11.154   5.824   1.778
18028W        W77124  18.641  33.055   1.350
18029W        W77125  36.042  22.078  10.623
18030W        W77126   2.831  22.560  12.891
18031W        W77127   7.685  10.269  13.401
18032W        W77128  10.169  44.903   0.315
18033W        W77129   9.282  17.750   2.895
18034W        W77130  29.072  16.221  12.552
18035W        W77131  26.534  44.771   0.774
18036W        W77132   0.391   3.721  12.401
18037W        W77133  41.300  11.683   0.367
18038W        W77134   1.883   7.701   4.166
18039W        W77135   1.388   8.677  13.840
18040W        W77136  33.407  42.932  14.897
18041W        W77137  26.537  15.151  10.510
18042W        W77138   4.249  10.270  11.973
18043W        W77139   4.271  18.666   2.277
18044W        W77140  32.935  43.344   4.736
18045W        W77141  43.787  26.025   4.678
18046W        W77142  15.814  11.348   0.273
18047W        W77143  14.292  34.432   3.251
18048W        W77144  43.387   5.796   2.863
18049W        W77145   2.365  33.430  11.103
18050W        W77146  41.538  31.929  12.469
18051W        W77147  40.456  29.969   2.285
18052W        W77148  22.189  29.013   4.600
18053W        W77149  16.246  12.161   2.765
18054W        W77150  40.811   3.745  14.778
18055W        W77151  25.195  30.152   3.646
18056W        W77152  14.134  34.877   0.938
18057W        W77153  32.513  14.301   1.879
18058W        W77154   0.849   3.221  14.824
18059W        W77155  19.149  14.718   4.282
18060W        W77156  40.845  43.407  11.508
18061W        W77157   2.227  18.763  10.930
18062W        W77158  32.023  28.059  14.332
18063W        W77159  25.015  32.499   2.878
18064W        W77160  18.064  12.266  13.400
18065W        W77161  36.499  26.996  14.863
18066W        W77162  37.424  26.606   3.843
18067W        W77163   7.195  15.610   0.246
18068W        W77164   3.881  37.848   0.798
18069W        W77165  13.676  44.428  12.949
18070W        W77166  35.488  30.546  12.825
18071W        W77167   0.484  24.515   1.441
18072W        W77168  38.403  22.635   3.249
18073W        W77169  35.978  40.920  12.361
18074W        W77170  24.485   1.398   3.203
18075W        W77171  29.557  36.054  13.044
18076W        W77172  32.940  23.521   3.788
18077W        W77173  18.779  44.838  13.461
18078W        W77174  12.124  18.093   9.959
18079W        W77175  39.963  39.056   0.909
18080W        W77176  33.577  21.179   2.884
18081W        W77177  44.859  16.212   4.242
18082W        W77178  36.065  36.092   3.864
18083W        W77179   3.279  18.604   0.783
18084W        W77180  32.922  32.565  10.437
18085W        W77181  33.483   5.243   1.257
18086W        W77182  21.569   9.719  10.981
18087W        W77183   4.942  36.457   2.185
18088W        W77184  40.982  39.521   3.375
18089W        W77185  38.978  40.512  13.062
18090W        W77186  12.168   9.203  10.456
18091W        W77187  10.264  10.760   1.873
18092W        W77188   5.204   3.839   2.295
18093W        W77189  26.117  30.134   2.366
18094W        W77190  18.663  23.193  13.063
18095W        W77191  26.169  27.023  13.411
18096W        W77192   7.667  40.328  12.834
18097W        W77193   7.217  20.539  14.776
18098W        W77194   5.220  18.566  13.391
18099W        W77195  32.902   3.761  13.879
18100W        W77196  24.480  32.079   0.309
18101W        W77197  11.705  36.075  11.011
18102W        W77198  41.353  13.182   2.324
18103W        W77199  43.384  25.140  13.019
18104W        W77200  41.475  26.113  12.971
18105W        W77201  35.413  34.925   4.238
18106W        W77202   1.382  11.768  12.492
18107W        W77203   1.473   5.827  14.856
18108W        W77204  38.534  18.593   3.323
18109W        W77205  30.605  15.128  11.577
18110W        W77206  15.137   5.904   1.294
18111W        W77207   2.892  43.776  14.793
18112W        W77208   8.866   2.954   0.429
18113W        W77209   1.358  29.659   0.270
18114W        W77210  25.152  36.400   1.846
18115W        W77211  36.873   4.251   2.356
18116W        W77212  28.627  39.343  12.900
18117W        W77213  23.611  41.921  11.568
18118W        W77214  27.105  27.463   1.935
18119W        W77215  36.536  33.490  12.027
18120W        W77216   3.784  12.757  11.884
18121W        W77217  19.101   9.810   1.787
18122W        W77218   9.392   7.868  13.037
18123W        W77219  28.490  26.188  12.091
18124W        W77220  29.545  40.509   3.631
18125W        W77221  11.262  24.557  11.961
18126W        W77222  19.605  40.835  12.445
18127W        W77223  10.202   3.310   0.357
18128W        W77224  13.180  27.475   1.765
18129W        W77225  23.148  30.157   3.163
18130W        W77226  44.854   0.393  14.329
18131W        W77227  27.537  28.157  12.416
18132W        W77228  34.016  41.395  11.985
18133W        W77229  13.194   0.309   4.652
18134W        W77230   9.323  28.582   2.380
18135W        W77231  12.744  44.489  12.568
18136W        W77232  30.087  39.350  13.421
18137W        W77233  35.488   9.835   3.325
18138W        W77234  39.487  43.906   2.795
18139W        W77235  18.057  18.067   4.236
18140W        W77236  44.294  28.573   3.360
18141W        W77237  14.157  24.593  13.997
18142W        W77238  15.735  12.346  11.929
18143W        W77239  23.634  41.015  11.400
18144W        W77240  15.166  27.692  12.489
18145W        W77241  10.721  13.207  13.859
18146W        W77242   5.378  24.069   0.789
18147W        W77243  12.622   0.301   2.838
18148W        W77244  26.512  10.291   0.791
18149W        W77245  16.738   5.922  14.410
18150W        W77246  30.541  36.478  13.454
18151W        W77247  11.195  38.055  13.517
18152W        W77248  11.840  44.399   1.766
18153W        W77249  33.042  34.513  13.865
18154W        W77250   5.408   9.293   3.272
18155W        W77251  17.567  20.209  11.991
18156W        W77252  40.473   8.678  10.562
18157W        W77253  16.658   0.306  14.006
18158W        W77254  26.477  29.537   0.798
18159W        W77255  39.980  19.116   4.288
18160W        W77256  33.879  27.542  13.548
18161W        W77257  44.776  28.963  14.476
18162W        W77258   8.852  33.602   0.831
18163W        W77259   2.416  12.849   1.337
18164W        W77260  37.494  10.236  13.980
18165W        W77261   4.926   1.289   2.392
18166W        W77262   5.295   7.341   2.359
18167W        W77263  34.030  29.486   1.827
18168W        W77264  40.987  25.100   3.636
18169W        W77265  44.362   2.359  12.557
18170W        W77266  32.472  34.981   1.865
18171W        W77267  27.624  32.038   1.402
18172W        W77268  23.600   7.256  10.968
18173W        W77269  12.296  15.221  14.496
18174W        W77270  35.391   9.178  11.576
18175W        W77271  22.218  19.701   1.871
18176W        W77272   8.729  37.503   1.423
18177W        W77273  32.070  33.457  11.938
18178W        W77274  31.408  22.047   1.384
18179W        W77275  36.049   1.873   1.370
18180W        W77276  41.311  24.025   2.719
18181W        W77277   0.852  25.490  11.883
18182W        W77278  31.509   5.287   3.857
18183W        W77279   7.786   1.415  14.354
18184W        W77280  24.145  43.841   1.333
18185W        W77281  18.742   0.461  10.960
18186W        W77282  30.424   7.229  14.493
18187W        W77283  38.878   7.278   0.260
18188W        W77284   4.300  28.994  12.365
18189W        W77285  30.931  25.046  10.087
18190W        W77286  11.736   9.801  12.894
18191W        W77287  24.031  26.566   0.903
18192W        W77288  43.402  27.558   2.806
18193W        W77289  33.930  28.172   5.758
18194W        W77290  32.961  20.590   0.870
18195W        W77291  43.289  12.278   3.239
18196W        W77292   5.869  10.368   4.688
18197W        W77293  26.031  27.639   2.683
18198W        W77294  12.307   2.960  14.449
18199W        W77295  20.241  28.088   9.960
18200W        W77296  33.132   9.285   1.295
18201W        W77297  34.606  23.084   3.341
18202W        W77298   8.283  31.971  11.429
18203W        W77299  23.567  31.038  14.832
18204W        W77300   1.817  27.040  14.914
18205W        W77301   5.743   6.845   2.389
18206W        W77302  20.130  32.405   4.687
18207W        W77303   1.416  15.251   1.333
18208W        W77304  27.967  33.050  12.029
18209W        W77305  30.128  20.606   4.282
18210W        W77306  44.890  33.051  13.514
18211W        W77307  34.480  29.525   1.337
18212W        W77308  25.984  24.677   0.787
18213W        W77309  34.998  38.536  12.572
18214W        W77310   5.433  32.465  13.985
18215W        W77311  36.562  38.840  10.034
18216W        W77312  17.727   4.908   2.715
18217W        W77313  41.023   9.761  12.060
18218W        W77314   5.817   1.345  11.083
18219W        W77315  40.468  24.214   0.461
18220W        W77316   0.827   0.782   3.352
18221W        W77317  20.729   8.202  14.308
18222W        W77318   0.263  10.336   3.820
18223W        W77319  25.642  44.314  13.820
18224W        W77320  44.451  38.966  14.821
18225W        W77321  19.718  29.651   3.154
18226W        W77322   5.767  44.958   2.811
18227W        W77323  22.666  16.668  10.042
18228W        W77324  38.967  40.849  13.901
18229W        W77325   9.728  21.232   9.942
18230W        W77326   9.180  36.936   4.277
18231W        W77327  13.220  43.814  12.979
18232W        W77328  36.464  31.131   0.940
18233W        W77329  36.524   3.790   3.758
18234W        W77330  12.835  33.001  10.104
18235W        W77331  40.344  19.763   0.819
18236W        W77332  34.118   1.751   2.896
18237W        W77333  43.385  25.155  14.435
18238W        W77334  41.934  13.757   1.369
18239W        W77335  19.650   9.177  14.993
18240W        W77336  41.025  35.065  11.117
18241W        W77337  38.527   6.827   9.955
18242W        W77338  36.438  25.481   2.369
18243W        W77339  16.628  20.063  14.789
18244W        W77340  27.591  17.581  13.003
18245W        W77341   6.759   7.796  14.435
18246W        W77342  38.430  21.160  11.963
18247W        W77343   6.355  16.229   0.823
18248W        W77344  16.592  13.664   1.389
18249W        W77345  43.960  16.624   3.189
18250W        W77346  14.228  23.504  12.033
18251W        W77347  29.165  21.608  11.604
18252W        W77348  42.392  25.118  13.474
18253W        W77349   4.339  42.472  14.906
18254W        W77350  37.485  28.062   4.270
18255W        W77351  10.311   5.214  14.855
18256W        W77352  18.776   5.834   4.615
18257W        W77353  37.982  41.033  14.920
18258W        W77354   7.797   2.458   1.768
18259W        W77355  33.539  37.434   4.187
18260W        W77356  31.554  20.223   3.156
18261W        W77357  44.426  20.051  13.498
18262W        W77358  19.764  27.487  14.308
18263W        W77359   3.714  38.396  14.818
18264W        W77360   8.830   1.749   0.355
18265W        W77361  29.170  35.057   1.772
18266W        W77362  19.670  36.083   3.822
18267W        W77363  30.972  29.142  13.438
18268W        W77364  14.721  29.573  11.409
18269W        W77365   9.383  43.950  13.036
18270W        W77366  32.989   2.445  14.423
18271W        W77367  43.278  36.028   4.261
18272W        W77368   6.732   8.392   2.794
18273W        W77369  26.483  40.816  12.427
18274W        W77370  43.400   8.831   0.360
18275W        W77371  16.714  22.196   2.727
18276W        W77372  37.006   7.391   0.321
18277W        W77373  13.134   1.893   0.906
18278W        W77374  35.499  16.110   2.221
18279W        W77375  28.945  17.259  10.501
18280W        W77376  21.681   7.839   4.352
18281W        W77377   3.950  10.215   1.224
18282W        W77378  24.100  30.638   1.321
18283W        W77379  24.092  32.946  11.566
18284W        W77380  41.984   4.889   9.935
18285W        W77381  44.886  30.520   1.380
18286W        W77382   6.854  12.288   4.144
18287W        W77383  43.336   6.187   3.862
18288W        W77384  25.668  27.994  14.830
18289W        W77385  16.742   8.340   0.953
18290W        W77386  10.716   7.764  14.966
18291W        W77387  31.642  30.540   0.783
18292W        W77388  17.256  22.042  11.576
18293W        W77389  21.522  13.207  12.501
18294W        W77390  10.328  33.399   5.126
18295W        W77391  10.862  38.500  10.556
18296W        W77392   2.428  18.589   0.891
18297W        W77393  18.053  23.679   3.842
18298W        W77394  20.531  33.463   4.636
18299W        W77395   2.888   6.894  11.053
18300W        W77396  37.957  14.707  12.060
18301W        W77397  44.848  35.518  11.429
18302W        W77398  30.592   4.896   4.237
18303W        W77399  15.229  17.596   5.116
18304W        W77400  14.228  39.401   0.884
18305W        W77401  32.020   6.885  13.511
18306W        W77402  24.078   2.356   1.903
18307W        W77403  22.230  30.447  13.850
18308W        W77404   6.864   2.772  10.532
18309W        W77405  20.210   3.329  14.861
18310W        W77406  35.463   3.810  13.455
18311W        W77407  17.200  20.528   3.258
18312W        W77408  40.841  31.925   1.391
18313W        W77409  24.120  35.490  12.906
18314W        W77410  39.525  41.930   3.241
18315W        W77411  10.204  10.718  14.438
18316W        W77412   6.892  13.766   4.693
18317W        W77413   0.437  23.040   2.862
18318W        W77414  19.773  29.546  11.944
18319W        W77415  18.761  25.038  11.935
18320W        W77416  30.132  23.190   4.601
18321W        W77417  24.037  13.804   4.633
18322W        W77418  30.545  15.265   2.181
18323W        W77419   5.688  31.965  13.050
18324W        W77420  16.580  33.940   4.793
18325W        W77421  22.514   9.221  13.433
18326W        W77422  23.985  20.695  14.909
18327W        W77423  42.005   8.343  12.982
18328W        W77424  14.661  14.288   0.771
18329W        W77425  16.253   6.762  11.600
18330W        W77426  28.154  20.149   2.870
18331W        W77427  34.876   5.746  12.832
18332W        W77428  14.292  35.532   0.737
18333W        W77429   9.866  10.833   4.748
18334W        W77430   7.238   8.719  12.834
18335W        W77431  26.088  13.348   0.365
18336W        W77432  12.643  19.116   2.892
18337W        W77433  39.477  22.103   4.751
18338W        W77434  43.286   5.753   3.272
18339W        W77435  37.833   7.750   3.216
18340W        W77436  10.275  17.289   0.764
18341W        W77437  38.955  16.569  13.491
18342W        W77438  42.780  14.807   3.198
18343W        W77439  15.714  37.836   3.255
18344W        W77440  32.428  25.672   4.259
18345W        W77441  14.751  38.521  13.378
18346W        W77442   3.954  44.936  10.566
18347W        W77443  30.572  36.530   4.830
18348W        W77444  39.320  14.651   4.675
18349W        W77445   0.255  11.837   2.269
18350W        W77446  26.617  15.798   2.241
18351W        W77447   9.788  34.067   3.153
18352W        W77448  44.318  12.671   0.727
18353W        W77449  34.502  11.858   3.831
18354W        W77450  11.365  40.459   2.735
18355W        W77451  10.637  21.729  14.414
18356W        W77452   4.939  27.175   1.787
18357W        W77453  22.183  17.651  10.916
18358W        W77454  13.814  25.072   3.740
18359W        W77455  37.405  39.344   2.412
18360W        W77456  44.984   9.694   2.819
18361W        W77457  15.656   8.685   3.316
18362W        W77458  15.094  38.820  10.892
18363W        W77459  12.694  34.973  13.977
18364W        W77460   4.702  29.516   0.425
18365W        W77461  35.981  21.159   1.777
18366W        W77462  19.098  33.598   0.247
18367W        W77463  28.035  39.460   5.198
18368W        W77464   4.779  38.000  12.886
18369W        W77465  35.548   4.300  11.538
18370W        W77466  21.082  20.078  14.422
18371W        W77467  31.598  18.213  14.764
18372W        W77468  42.013   6.728  13.891
18373W        W77469  10.715  33.036   0.958
18374W        W77470  42.958   8.248   4.187
18375W        W77471  37.445  20.085  12.341
18376W        W77472  29.469  32.918   3.248
18377W        W77473   2.446  13.732   2.877
18378W        W77474  28.582  40.960   1.241
18379W        W77475  13.343  20.754   0.937
18380W        W77476  32.907  16.198  14.299
18381W        W77477   2.946   6.695   2.233
18382W        W77478   3.823  42.454  13.307
18383W        W77479  13.309  44.483   3.728
18384W        W77480  22.203  24.083  10.621
18385W        W77481   6.334  23.640  12.473
18386W        W77482  17.085  38.840   5.799
18387W        W77483   6.330  34.022   2.750
18388W        W77484  22.583  29.661   3.361
18389W        W77485  41.004  36.997  13.938
18390W        W77486  27.056  26.602  13.910
18391W        W77487  41.796  34.960  14.320
18392W        W77488  38.053  11.732   4.673
18393W        W77489  30.999  12.824  10.065
18394W        W77490  12.142  24.141  13.057
18395W        W77491  16.317  15.738  14.353
18396W        W77492  11.822  31.544   0.815
18397W        W77493  22.738  42.397   1.300
18398W        W77494  36.861  27.035   4.210
18399W        W77495  27.974   1.445   4.234
18400W        W77496   6.782   4.840  11.508
18401W        W77497  19.096   5.284  14.305
18402W        W77498  32.015   2.784  13.880
18403W        W77499  22.723  17.115   0.406
18404W        W77500   2.839  37.035   1.393
18405W        W77501  34.034  44.313   1.313
18406W        W77502  18.212  14.099  14.479
18407W        W77503  12.732  34.081  14.434
18408W        W77504  39.481  28.019  12.484
18409W        W77505  36.866  11.299   5.248
18410W        W77506   8.898  30.586  12.836
18411W        W77507  24.013   1.927  13.485
18412W        W77508  33.579   1.936   3.254
18413W        W77509  32.513   7.363   1.809
18414W        W77510  38.062   6.230  11.066
18415W        W77511  13.166   8.810  11.392
18416W        W77512  37.446   6.214   3.699
18417W        W77513  27.649   6.730   0.931
18418W        W77514  20.686   2.370   0.283
18419W        W77515  20.769  25.180   4.776
18420W        W77516   2.389   7.857   0.363
18421W        W77517  22.746  25.053  11.524
18422W        W77518  28.936  24.167   3.643
18423W        W77519  14.833  11.191   1.789
18424W        W77520  20.084  30.638   2.848
18425W        W77521  21.533  16.608   4.623
18426W        W77522  11.188  44.774  13.019
18427W        W77523  29.511  11.264  11.984
18428W        W77524  17.720  33.565  14.910
18429W        W77525  36.485  43.354  11.901
18430W        W77526  43.342  29.048  11.437
18431W        W77527  20.189  27.688   2.229
18432W        W77528  14.817   2.871   2.221
18433W        W77529  33.405   1.392  12.027
18434W        W77530   9.841   3.715  12.030
18435W        W77531  11.289  34.582  12.373
18436W        W77532  44.273  28.131   2.731
18437W        W77533   6.311  16.300  14.965
18438W        W77534  26.151  43.847   1.429
18439W        W77535   1.320  11.248   1.847
18440W        W77536  20.664  24.647  12.398
18441W        W77537   8.399  44.454   4.344
18442W        W77538   0.968  40.832   3.730
18443W        W77539  22.252   3.918   0.841
18444W        W77540   7.902  20.564   4.726
18445W        W77541  21.721  20.116   1.697
18446W        W77542  35.968  24.708   2.694
18447W        W77543  29.166  34.513   3.717
18448W        W77544  11.725  38.011   2.708
18449W        W77545  32.454  12.207   0.273
18450W        W77546  44.463  41.916  11.020
18451W        W77547  22.563   5.415  14.815
18452W        W77548   0.770  17.642  13.429
18453W        W77549  33.592  16.110  10.914
18454W        W77550  39.414   0.854  10.498
18455W        W77551   2.376   5.422   3.727
18456W        W77552   3.461  28.179  12.381
18457W        W77553  20.561  23.000  14.463
18458W        W77554  39.438  24.538  14.961
18459W        W77555  31.551   6.794  12.460
18460W        W77556  19.088   0.933   4.709
18461W        W77557   1.415  40.512  12.990
18462W        W77558   9.691  18.643  13.013
18463W        W77559  11.151  36.035   0.873
18464W        W77560  34.603   8.872   0.450
18465W        W77561  19.203   8.205   2.219
18466W        W77562  41.806  19.711   2.676
18467W        W77563  10.315  40.037  14.322
18468W        W77564  41.514  41.828  12.382
18469W        W77565  22.074   6.262   1.430
18470W        W77566  40.030  38.392  14.468
18471W        W77567  25.163   1.875   2.272
18472W        W77568  25.048  19.071  11.019
18473W        W77569   8.295   2.378  13.851
18474W        W77570  29.007  40.028  14.929
18475W        W77571  18.212  34.432   2.246
18476W        W77572  34.501   3.849   1.821
18477W        W77573  19.039  35.476   4.351
18478W        W77574  10.874   2.851  12.994
18479W        W77575  25.215   1.462  12.354
18480W        W77576   9.291  13.264  13.518
18481W        W77577   0.756  39.328   0.318
18482W        W77578  17.709  18.270  11.440
18483W        W77579  28.606  44.311  14.801
18484W        W77580   4.738  38.545  14.420
18485W        W77581   9.239  31.404  12.900
18486W        W77582  38.884  16.660   1.217
18487W        W77583  31.150  27.528   3.235
18488W        W77584  23.590  34.578  10.484
18489W        W77585  19.752  30.926   0.736
18490W        W77586  17.733   0.802  12.091
18491W        W77587  43.299   0.864  11.081
18492W        W77588  18.125  13.783  10.481
18493W        W77589  40.401  28.648  10.964
18494W        W77590  29.639  22.084  11.068
18495W        W77591   5.402   1.852   2.383
18496W        W77592  27.195   0.748  11.860
18497W        W77593   0.267  20.214   3.770
18498W        W77594  16.581  24.525  13.015
18499W        W77595  40.991  31.936  13.386
18500W        W77596  29.108  13.663   4.203
18501W        W77597   9.811  38.975   0.952
18502W        W77598  36.391  41.359   5.184
18503W        W77599  30.519  10.725   2.898
18504W        W77600  29.104  26.703   1.419
18505W        W77601   9.665  24.064  14.944
18506W        W77602   8.387   4.394  11.520
18507W        W77603   2.325  38.341   1.836
18508W        W77604  14.688  11.234   4.304
18509W        W77605  13.654   8.186  12.996
18510W        W77606  20.559  16.103   4.816
18511W        W77607  38.960  13.234   1.768
18512W        W77608  38.360  41.517  13.328
18513W        W77609  18.588   0.421  11.450
18514W        W77610   0.957  25.025  14.764
18515W        W77611  33.584   5.239   4.720
18516W        W77612  17.117  12.266  13.372
18517W        W77613  19.207  18.169   4.708
18518W        W77614  22.132  20.156   1.365
18519W        W77615   7.245  17.148   0.298
18520W        W77616  17.094  12.217  12.068
18521W        W77617  36.506  34.997   4.161
18522W        W77618  14.173  37.080  14.869
18523W        W77619  19.638  27.166  11.501
18524W        W77620   0.488  26.175  10.450
18525W        W77621  28.635  28.941   4.322
18526W        W77622  11.689  40.055   4.298
18527W        W77623   7.719  14.216  13.964
18528W        W77624   2.380  10.142  10.589
18529W        W77625   1.916  20.587  14.999
18530W        W77626  30.132  36.475   1.896
18531W        W77627  39.541   6.210   1.323
18532W        W77628  21.230  30.958  13.400
18533W        W77629  41.019  16.224   4.154
18534W        W77630  23.511  21.523  11.536
18535W        W77631  33.943  26.998   3.156
18536W        W77632  21.056  10.353   2.221
18537W        W77633  41.020  39.026   3.159
18538W        W77634  10.726  44.288  11.508
18539W        W77635   0.461   8.756   0.304
18540W        W77636  38.484   3.923  12.882
18541W        W77637  34.503   0.778  11.057
18542W        W77638  33.401  26.556  13.528
18543W        W77639  37.997  21.677  13.387
18544W        W77640   6.314  32.514   1.264
18545W        W77641  21.043  15.798   5.301
18546W        W77642  32.003   5.708   1.275
18547W        W77643  33.099  11.255   1.816
18548W        W77644  31.476  19.631   0.942
18549W        W77645  24.114   0.852  12.346
18550W        W77646  10.298   0.435  12.401
18551W        W77647   9.244  41.961  13.061
18552W        W77648  37.938  14.711  14.335
18553W        W77649  28.045  24.499  12.068
18554W        W77650  41.914   6.681  11.977
18555W        W77651  44.422   0.748   2.299
18556W        W77652  21.608  21.155  13.865
18557W        W77653  14.122  21.567   1.376
18558W        W77654  14.617   8.671   5.276
18559W        W77655  24.014   8.760   0.801
18560W        W77656  42.991  22.728  13.499
18561W        W77657   1.362  40.307  14.958
18562W        W77658   9.828  33.074   4.126
18563W        W77659  38.327  10.825   1.816
18564W        W77660  19.627  23.204   0.831
18565W        W77661  34.013   3.805  14.350
18566W        W77662  29.023  21.144   1.865
18567W        W77663  40.804  15.251  14.998
18568W        W77664  36.915  13.748   2.227
18569W        W77665   8.815  29.150  12.021
18570W        W77666  25.219  16.597  12.070
18571W        W77667  10.685  34.575  14.830
18572W        W77668  14.201  18.696  13.323
18573W        W77669  12.702  14.767  13.377
18574W        W77670  23.689   9.213   0.392
18575W        W77671  23.201  12.279  10.942
18576W        W77672  33.111  16.105   3.187
18577W        W77673  40.927  27.524   0.337
18578W        W77674  23.098  31.913  10.482
18579W        W77675  42.952  18.669  10.561
18580W        W77676  30.513   7.870   2.185
18581W        W77677  41.044   7.817  13.368
18582W        W77678   2.292  12.229   1.299
18583W        W77679  39.410  20.185   1.704
18584W        W77680  37.514   4.228  12.868
18585W        W77681  44.906  42.398   3.198
18586W        W77682  24.582   9.846  13.977
18587W        W77683  26.666  16.116  14.441
18588W        W77684  19.541  19.771  10.907
18589W        W77685   8.754  36.891  14.457
18590W        W77686   4.430  12.720  13.953
18591W        W77687  22.524  23.562  13.885
18592W        W77688  13.664  41.487   1.885
18593W        W77689  33.114  11.792  13.008
18594W        W77690  17.579  11.790  12.985
18595W        W77691  36.355   2.925   3.668
18596W        W77692   6.726   0.341  12.378
18597W        W77693  14.140  43.452  10.436
18598W        W77694  26.496  17.231  13.063
18599W        W77695   8.180  43.793   0.417
18600W        W77696  11.220  39.336   0.334
18601W        W77697   3.780  40.455   2.341
18602W        W77698  41.296  35.916  11.912
18603W        W77699  27.159  21.083  13.954
18604W        W77700  32.131  20.540   3.658
18605W        W77701  16.087  30.109  10.532
18606W        W77702  17.283  11.225   1.886
18607W        W77703  27.964  12.786  10.582
18608W        W77704  34.065  26.986  10.433
18609W        W77705   0.977  32.564  14.909
18610W        W77706   0.807   5.873   3.277
18611W        W77707  37.066  29.096  13.916
18612W        W77708  11.636   4.343  11.073
18613W        W77709   7.726  18.101  11.942
18614W        W77710  25.542   8.732   4.134
18615W        W77711  11.176  19.593  11.926
18616W        W77712  11.332   7.299  13.525
18617W        W77713  42.973  37.407  11.396
18618W        W77714  22.087  20.068  14.467
18619W        W77715  24.169  40.522  14.423
18620W        W77716  18.085  24.588  13.376
18621W        W77717  12.309   7.325   2.871
18622W        W77718  37.053  28.151  12.908
18623W        W77719  13.612  34.436   3.786
18624W        W77720  38.340  32.061  11.955
18625W        W77721  13.788  33.610   2.389
18626W        W77722  33.626  28.608   4.734
18627W        W77723   4.272  37.389   2.879
18628W        W77724  33.604  42.032   4.325
18629W        W77725  36.959  32.026   4.122
18630W        W77726  37.469  11.800  13.489
18631W        W77727  11.288  23.140   0.252
18632W        W77728  44.499  36.388  11.095
18633W        W77729  19.276  20.045  13.970
18634W        W77730  33.555  14.821  14.497
18635W        W77731   7.820  15.187  11.089
18636W        W77732   1.412  10.732   3.205
18637W        W77733   1.805   9.841   1.924
18638W        W77734   3.769   3.897   0.902
18639W        W77735  24.681  39.448   0.314
18640W        W77736  17.208  29.549   1.319
18641W        W77737  21.704   3.338   1.698
18642W        W77738  39.911   3.251  14.430
18643W        W77739  18.572   0.468  13.845
18644W        W77740  35.924  12.210  10.576
18645W        W77741  19.560  34.006   0.796
18646W        W77742  40.453  22.226  11.060
18647W        W77743  18.565  14.242   0.785
18648W        W77744  38.850  44.330  12.346
18649W        W77745  23.231  15.607  10.635
18650W        W77746  42.393  14.248  13.043
18651W        W77747  38.363  34.949  14.322
18652W        W77748   3.326  14.637  13.001
18653W        W77749   4.767   6.385  13.505
18654W        W77750  14.726  28.133   4.130
18655W        W77751  14.240  29.470  13.513
18656W        W77752   7.842  17.594   1.819
18657W        W77753  41.978  14.628  12.057
18658W        W77754  19.600  22.709   4.638
18659W        W77755   8.892  21.603  14.363
18660W        W77756  16.616   7.358   1.859
18661W        W77757  27.044   8.175   1.747
18662W        W77758  44.468  42.789  10.082
18663W        W77759  11.641   4.745  13.446
18664W        W77760  23.637   1.372   3.804
18665W        W77761  43.013   8.274  10.487
18666W        W77762   4.441  11.342  14.916
18667W        W77763  38.884  19.764  12.566
18668W        W77764  29.968  11.200   1.433
18669W        W77765  41.510  28.444   2.359
18670W        W77766  31.019  40.049   4.761
18671W        W77767  25.676  41.469  14.007
18672W        W77768   9.842   8.783  11.593
18673W        W77769  34.000   0.353  11.041
18674W        W77770   7.208  26.037  14.980
18675W        W77771  18.648  31.542  14.441
18676W        W77772   0.788  15.711  11.536
18677W        W77773   7.758  35.406  12.859
18678W        W77774   0.377   8.699  11.900
18679W        W77775  15.741  22.683  12.904
18680W        W77776  29.470  38.378   1.409
18681W        W77777   4.204  39.877  12.939
18682W        W77778   4.925   3.876   3.717
18683W        W77779   3.803   3.786   1.351
18684W        W77780  20.579  42.919  11.511
18685W        W77781  39.538  19.272  13.386
18686W        W77782  20.054  23.499   2.363
18687W        W77783  29.438  11.699  13.044
18688W        W77784  17.774  42.398  11.067
18689W        W77785  25.101  39.882  11.072
18690W        W77786  23.604  34.369  10.154
18691W        W77787  38.054   0.390   2.192
18692W        W77788   4.304  20.534  10.501
18693W        W77789  40.356  31.491   4.609
18694W        W77790  26.181  24.990  12.071
18695W        W77791   0.862  20.095  11.488
18696W        W77792  44.767  43.931  14.283
18697W        W77793   3.364  34.963   5.247
18698W        W77794   3.913  14.715  11.060
18699W        W77795  33.972  23.663   2.245
18700W        W77796  32.579  26.116  11.385
18701W        W77797   9.227  21.053   0.249
18702W        W77798   4.273  40.999   2.355
18703W        W77799  11.719  35.909   3.630
18704W        W77800   2.931  39.462  14.432
18705W        W77801  20.602  34.015  12.446
18706W        W77802   9.201  33.082   4.690
18707W        W77803  26.475  21.599  14.016
18708W        W77804  31.553  14.326  10.004
18709W        W77805   9.839  10.357  12.053
18710W        W77806  29.062  27.604   2.758
18711W        W77807  35.464   3.755   3.195
18712W        W77808   8.253  19.185  10.023
18713W        W77809   6.887  20.045  12.979
18714W        W77810  32.476  16.771  11.556
18715W        W77811  23.562  18.142   1.363
18716W        W77812   3.800  27.673  10.572
18717W        W77813  16.741  14.146  11.591
18718W        W77814  21.263  16.129   0.436
18719W        W77815  42.822  40.353  12.048
18720W        W77816  11.703   6.827  10.512
18721W        W77817  40.935  13.341  10.581
18722W        W77818  38.041  29.625   4.244
18723W        W77819  11.175  24.704  13.994
18724W        W77820  13.623   9.216  14.335
18725W        W77821  37.554  36.420   1.340
18726W        W77822   6.800  21.056   2.397
18727W        W77823  30.438  23.179   1.722
18728W        W77824  16.680  26.586   1.404
18729W        W77825  33.913   2.926   0.312
18730W        W77826  43.942  27.583  13.881
18731W        W77827  23.083  31.448  12.922
18732W        W77828  19.168   8.804  14.357
18733W        W77829  31.108  10.718   0.427
18734W        W77830  30.426  44.940   2.363
18735W        W77831  10.704  26.625   0.875
18736W        W77832  21.191  20.270   4.269
18737W        W77833  42.855  11.353   0.411
18738W        W77834  39.888  41.931   2.294
18739W        W77835   2.739  38.042  11.522
18740W        W77836  14.276  18.204  10.465
18741W        W77837   9.364  21.692   0.898
18742W        W77838  17.708   6.748  11.004
18743W        W77839   7.212  35.094  13.338
18744W        W77840   2.841  44.844  12.951
18745W        W77841  20.273   5.253   1.763
18746W        W77842  34.550   6.881  13.332
18747W        W77843  28.508  18.761   3.178
18748W        W77844  36.085  36.030   2.865
18749W        W77845   9.653  39.545  14.771
18750W        W77846  33.551  14.642  10.977
18751W        W77847  43.983  32.588   2.902
18752W        W77848  22.018  39.384  10.415
18753W        W77849  20.598  41.423   1.231
18754W        W77850  44.477   8.770  13.812
18755W        W77851  35.951  34.997  10.413
18756W        W77852  10.661  18.719  11.962
18757W        W77853  40.494  37.559  13.048
18758W        W77854  36.534   6.888  14.873
18759W        W77855  22.617  14.649  11.076
18760W        W77856  32.022  38.410  11.030
18761W        W77857  42.939   2.768   1.771
18762W        W77858   7.800  44.351   9.949
18763W        W77859   8.829  16.145   4.650
18764W        W77860  29.167  32.928  11.900
18765W        W77861  22.174  42.319   0.818
18766W        W77862  26.483  13.124  14.454
18767W        W77863  27.054  15.730  10.898
18768W        W77864  15.647   4.868  14.759
18769W        W77865  22.584  35.603  14.012
18770W        W77866   0.812  22.504   9.988
18771W        W77867   8.229  41.820   4.118
18772W        W77868  43.510  12.685   1.806
18773W        W77869  30.531  16.760  12.018
18774W        W77870  30.999   2.758   3.178
18775W        W77871  30.036  32.482  13.405
18776W        W77872  19.601  18.087   1.327
18777W        W77873  37.850   5.241   1.433
18778W        W77874  35.861  31.601   3.856
18779W        W77875   0.909   6.261  14.989
18780W        W77876   0.974  31.508   3.276
18781W        W77877  35.561  34.972  13.369
18782W        W77878   9.272  32.962  14.996
18783W        W77879  38.440  25.078  13.856
18784W        W77880  19.260  19.724  11.601
18785W        W77881  35.561  13.287  11.857
18786W        W77882   8.725   4.749  12.366
18787W        W77883   4.384  42.961  13.924
18788W        W77884  41.449  12.679  14.362
18789W        W77885   6.279  33.433   3.700
18790W        W77886  42.897  22.242   3.826
18791W        W77887   1.945  12.656   4.187
18792W        W77888  40.894  13.207   4.218
18793W        W77889  14.103  11.211   0.409
18794W        W77890  17.147  41.953  13.828
18795W        W77891   7.730   7.288   1.346
18796W        W77892  28.996  12.708   4.134
18797W        W77893  28.089  14.248   1.267
18798W        W77894  19.074   5.781  11.111
18799W        W77895   6.397  20.200   0.910
18800W        W77896  44.299   9.660  13.868
18801W        W77897   6.894  37.902   0.336
18802W        W77898  28.615  25.097   4.632
18803W        W77899  44.944  12.787   3.380
18804W        W77900  40.803   0.306   4.602
18805W        W77901  17.221   8.861   9.986
18806W        W77902  22.633  27.597   3.329
18807W        W77903  21.671  28.929  13.386
18808W        W77904   9.299   9.645   4.226
18809W        W77905  19.211   1.907  12.510
18810W        W77906   6.390  14.827   1.345
18811W        W77907  42.426   7.843  11.960
18812W        W77908   0.814  39.023   4.759
18813W        W77909  39.925  39.906   3.754
18814W        W77910  43.404  12.196  14.374
18815W        W77911  13.206  24.120  11.967
18816W        W77912  39.487   4.324   2.716
18817W        W77913  16.801  34.955   1.250
18818W        W77914   6.792  43.308   3.279
18819W        W77915  11.294  17.752  11.945
18820W        W77916  39.032  41.947  12.516
18821W        W77917  44.799   5.902   0.333
18822W        W77918   5.359   2.368  13.460
18823W        W77919  27.995  35.416  13.403
18824W        W77920  28.627  42.439  12.999
18825W        W77921  21.673  11.249   0.392
18826W        W77922  30.110   3.841   0.835
18827W        W77923  25.142   6.845   1.403
18828W        W77924   1.838  22.610   4.767
18829W        W77925  13.111   0.446  11.875
18830W        W77926  36.556  30.481   3.243
18831W        W77927   6.810  10.797   0.295
18832W        W77928  11.625  12.152   2.415
18833W        W77929   4.836  29.985   1.922
18834W        W77930  23.527  17.562   3.731
18835W        W77931  40.993  19.130  12.434
18836W        W77932  20.631  43.500   3.355
18837W        W77933   0.367  31.633  10.578
18838W        W77934  16.205  31.028  12.575
18839W        W77935   3.787  11.659   2.231
18840W        W77936  28.987   3.370   1.737
18841W        W77937  30.501  25.555  12.057
18842W        W77938  25.144  41.898  14.382
18843W        W77939   0.293  37.024  14.817
18844W        W77940  38.470  19.187  13.996
18845W        W77941   4.226  10.294  14.358
18846W        W77942   8.378   0.317   1.339
18847W        W77943   6.238   7.360  10.026
18848W        W77944  25.592  18.249   0.371
18849W        W77945  24.141  33.401  12.449
18850W        W77946  14.262  38.438  14.979
18851W        W77947  33.036  27.044   5.263
18852W        W77948  40.852  39.898  11.019
18853W        W77949  10.366  22.534   2.262
18854W        W77950  36.841   7.191   3.363
18855W        W77951  39.560  36.914   0.892
18856W        W77952   8.890   8.383  11.498
18857W        W77953  12.766  11.645  10.579
18858W        W77954  37.896  13.689   2.755
18859W        W77955   4.245  29.091  10.446
18860W        W77956  41.409  30.106   2.800
18861W        W77957  42.812  25.166   0.309
18862W        W77958  21.189  10.318   1.335
18863W        W77959  27.536  20.158   1.215
18864W        W77960  35.602  11.237  10.422
18865W        W77961   7.172  33.905   4.220
18866W        W77962  11.721  35.007   0.410
18867W        W77963   1.835   9.224   1.898
18868W        W77964  33.572   3.288   4.807
18869W        W77965  29.952  12.619  13.535
18870W        W77966   2.260   8.405  13.431
18871W        W77967  22.561   1.901  12.377
18872W        W77968  19.712  25.653  13.326
18873W        W77969   8.336  35.370  10.559
18874W        W77970   6.255  38.875  14.341
18875W        W77971  14.113  20.575  11.469
18876W        W77972   1.776  25.991   2.354
18877W        W77973  23.984   8.378   2.698
18878W        W77974  42.984  25.110  14.817
18879W        W77975  28.180   1.299   2.808
18880W        W77976  22.507  33.488   0.478
18881W        W77977  18.677  40.967  14.514
18882W        W77978  18.083  33.924  10.075
18883W        W77979  32.908  44.967  12.575
18884W        W77980  23.064  28.592   2.719
18885W        W77981  32.632  31.040   3.386
18886W        W77982  37.336  17.762  13.043
18887W        W77983  20.720  42.806   0.330
18888W        W77984  18.678  43.305  14.829
18889W        W77985   7.769   1.416   1.808
18890W        W77986  39.985  29.974   3.269
18891W        W77987  44.468   9.747   4.199
18892W        W77988  20.755   6.703  12.039
18893W        W77989  16.195   8.386   2.818
18894W        W77990  39.523   2.770  14.515
18895W        W77991  20.595  42.986   2.776
18896W        W77992  14.316  11.260   3.268
18897W        W77993  28.455  32.077  12.981
18898W        W77994  24.173   5.327   1.352
18899W        W77995  33.490  30.515   2.204
18900W        W77996  31.097  41.968  12.516
18901W        W77997  40.355  19.098  11.416
18902W        W77998  38.884  23.122   1.293
18903W        W77999  39.377  29.474  10.933
18904W        W78000  23.638  33.406  14.412
18905W        W78001  15.295  11.691  11.113
18906W        W78002  19.750  24.579  14.981
18907W        W78003   2.728  31.914   4.671
18908W        W78004   1.953  19.257   0.358
18909W        W78005  35.575  21.542  14.029
18910W        W78006  20.613  42.345   1.442
18911W        W78007  16.190   1.890   3.362
18912W        W78008  35.934  35.446   4.138
18913W        W78009  19.230  22.571   4.215
18914W        W78010  37.396   4.420  14.762
18915W        W78011  37.527  17.307   1.788
18916W        W78012  30.588  16.111  13.388
18917W        W78013  10.682   4.418   3.353
18918W        W78014  41.534  19.262  13.926
18919W        W78015  27.940  24.140   3.242
18920W        W78016  10.644   9.209  14.833
18921W        W78017   8.319  24.078   1.402
18922W        W78018  20.647  23.695   1.445
18923W        W78019  23.546  40.430   4.788
18924W        W78020  12.677  42.486  10.984
18925W        W78021  40.991  39.914   1.372
18926W        W78022  13.114  24.015  10.960
18927W        W78023  36.046   8.173  11.101
18928W        W78024  14.240  24.596   1.822
18929W        W78025  34.394  37.042  13.965
18930W        W78026  26.144  44.904   4.783
18931W        W78027   3.310  39.472  13.501
18932W        W78028  30.013  36.928  11.419
18933W        W78029  32.571  13.315  11.598
18934W        W78030  39.858   8.383  14.779
18935W        W78031  32.507  25.583   1.240
18936W        W78032  39.016  29.070   1.447
18937W        W78033  17.288  13.785  12.980
18938W        W78034  37.576  30.922  11.866
18939W        W78035  31.602  10.680   0.832
18940W        W78036   1.255  41.952   4.620
18941W        W78037  32.998  44.862  14.322
18942W        W78038   2.961  40.440  11.507
18943W        W78039  18.708  24.993  12.999
18944W        W78040  25.506  34.457  11.870
18945W        W78041  36.959  41.989   0.467
18946W        W78042  30.043  29.968  12.439
18947W        W78043  36.871  12.162   0.775
18948W        W78044  17.649  21.020   0.865
18949W        W78045   4.247  37.549  10.585
18950W        W78046   4.298  43.327   1.239
18951W        W78047  29.534  12.802   3.387
18952W        W78048   7.395  39.490   4.747
18953W        W78049  36.372  35.985   2.899
18954W        W78050  17.141   9.780   0.895
18955W        W78051   5.771  21.129  12.952
18956W        W78052  33.074   6.260   2.784
18957W        W78053   8.853   3.735   0.912
18958W        W78054  11.762   7.748  10.507
18959W        W78055  19.649  17.569  11.007
18960W        W78056   9.718  42.001  11.075
18961W        W78057   8.243  32.955   4.120
18962W        W78058  39.512  10.677   1.919
18963W        W78059   7.884  28.495  13.046
18964W        W78060   8.309   7.752   4.139
18965W        W78061  15.602  39.974  13.817
18966W        W78062  10.748  26.565  14.807
18967W        W78063  43.485  31.605   2.411
18968W        W78064  39.410  12.262  11.109
18969W        W78065  38.028  37.944   4.195
18970W        W78066  30.970  28.937  12.055
18971W        W78067  42.527  37.995  11.864
18972W        W78068  22.159  13.836  14.337
18973W        W78069   6.814  28.061   0.367
18974W        W78070  34.369   9.359  14.287
18975W        W78071  30.611  23.682   3.176
18976W        W78072  39.495  41.839  12.438
18977W        W78073   0.842   6.760   1.252
18978W        W78074  43.275  11.242  11.031
18979W        W78075  14.219  40.798   3.204
18980W        W78076  30.479   4.275   1.735
18981W        W78077   3.914  42.339  12.430
18982W        W78078  38.004   7.282   0.952
18983W        W78079  40.546  11.250   1.822
18984W        W78080  42.484  34.545  14.849
18985W        W78081  16.273  20.062  12.905
18986W        W78082   1.304  41.920   3.827
18987W        W78083   1.301   6.863  13.791
18988W        W78084   2.778   3.403  10.451
18989W        W78085  22.740  18.250  12.937
18990W        W78086  25.589  43.864  12.551
18991W        W78087  29.443  42.848   3.357
18992W        W78088   9.837   9.691  13.004
18993W        W78089  34.407  37.427   5.239
18994W        W78090  44.927  15.648  13.380
18995W        W78091  15.749  41.406  14.772
18996W        W78092  22.209  18.565   9.654
18997W        W78093  36.583  31.971  14.431
18998W        W78094  28.182  15.622   0.880
18999W        W78095  25.215  20.690   0.478
19000W        W78096   7.817  32.634   2.701
19001W        W78097  35.924  34.532  11.607
19002W        W78098   5.900   4.316   2.344
19003W        W78099  10.238  32.026   3.264
19004W        W78100  18.634  28.591  13.377
19005W        W78101  41.963  42.881  10.562
19006W        W78102  41.373  33.512   2.358
19007W        W78103  24.999  25.206  12.492
19008W        W78104   5.432  31.544   2.183
19009W        W78105   3.377  26.073   0.824
19010W        W78106   8.706  14.144  12.922
19011W        W78107  35.539   3.831   4.271
19012W        W78108  12.625  35.431   4.789
19013W        W78109  27.515  32.104  11.116
19014W        W78110  29.473  34.474  12.083
19015W        W78111  39.924  20.757  11.960
19016W        W78112   2.810  30.603  11.473
19017W        W78113  41.418  25.131   2.416
19018W        W78114  23.011  43.291   0.415
19019W        W78115  36.487  12.732  13.323
19020W        W78116  12.266  43.975  14.367
19021W        W78117  24.114  40.511  12.427
19022W        W78118  24.098  31.482  14.796
19023W        W78119  41.945  36.496   3.292
19024W        W78120  16.677  32.494   9.975
19025W        W78121  14.267  24.193   3.779
19026W        W78122   5.345  33.562  14.341
19027W        W78123  12.322  25.622   1.243
19028W        W78124  13.768  31.423   4.708
19029W        W78125  21.029   6.361  12.992
19030W        W78126  21.588   3.937  10.582
19031W        W78127  36.894  29.559   0.794
19032W        W78128  33.943   8.839  14.346
19033W        W78129  34.540  17.289  14.275
19034W        W78130  25.624   2.285   2.775
19035W        W78131  21.121  12.188   4.736
19036W        W78132  31.494  13.277  13.875
19037W        W78133  16.103  37.503  11.537
19038W        W78134   4.442   1.791  13.010
19039W        W78135   6.222  21.200   0.947
19040W        W78136  12.338  39.027  12.844
19041W        W78137  26.070  18.790   5.282
19042W        W78138  44.377  12.620   2.254
19043W        W78139   1.428   9.878   1.426
19044W        W78140  21.742  43.363  14.421
19045W        W78141  10.255  39.985  13.812
19046W        W78142   1.809   7.179  13.344
19047W        W78143  13.227   6.330   0.424
19048W        W78144  38.494  12.805   4.620
19049W        W78145  16.741  38.513  10.901
19050W        W78146   5.437  18.668  12.861
19051W        W78147  35.380   2.737  14.020
19052W        W78148   0.258  29.587   0.454
19053W        W78149   6.803  33.976  14.807
19054W        W78150  27.156  26.667   2.851
19055W        W78151  23.996   2.421  14.898
19056W        W78152   8.254  41.843  11.432
19057W        W78153  20.195  10.270  14.881
19058W        W78154   7.788  18.085   5.164
19059W        W78155  33.475  40.449   3.811
19060W        W78156  18.753   9.352  12.907
19061W        W78157  40.814  41.930   2.896
19062W        W78158  30.578   4.703  10.574
19063W        W78159   9.195   1.927  12.554
19064W        W78160  38.832  32.535   2.734
19065W        W78161  11.842   5.222  11.464
19066W        W78162   3.869   9.161   0.414
19067W        W78163   3.236  21.647   1.296
19068W        W78164  39.976   7.347   1.854
19069W        W78165  24.176  25.665  11.503
19070W        W78166  38.069   2.332  14.429
19071W        W78167  18.579   6.386  14.006
19072W        W78168  12.279  42.843  11.536
19073W        W78169  25.579  11.359  14.385
19074W        W78170   9.730  15.656   2.743
19075W        W78171   0.765   3.330   2.759
19076W        W78172  28.615   6.228   2.241
19077W        W78173  30.644  20.753  10.476
19078W        W78174  24.625  27.967   3.648
19079W        W78175  36.036  31.945   2.761
19080W        W78176   9.661  14.319  11.971
19081W        W78177   5.928  35.396   0.967
19082W        W78178  22.640  38.834  14.905
19083W        W78179   5.713  19.094   0.244
19084W        W78180  42.032  34.438   0.737
19085W        W78181   1.318  11.803   3.286
19086W        W78182  43.310   7.881   0.960
19087W        W78183  40.417   9.720  11.998
19088W        W78184   9.155   0.949   1.709
19089W        W78185  41.912  12.782  11.449
19090W        W78186  26.977   8.822   1.792
19091W        W78187   6.302   0.767  14.498
19092W        W78188  10.844  30.909   2.239
19093W        W78189  36.076  19.740   4.308
19094W        W78190   0.425  31.064   4.276
19095W        W78191  13.708  21.705   3.675
19096W        W78192  17.778  10.217   0.753
19097W        W78193  12.284   9.855  14.315
19098W        W78194  30.918  14.335   1.230
19099W        W78195   6.312  13.835  10.917
19100W        W78196  42.370  21.596   0.325
19101W        W78197   1.332  10.682   3.790
19102W        W78198  19.613  13.746  13.894
19103W        W78199   5.901   0.342  14.290
19104W        W78200  12.799  41.381   2.232
19105W        W78201   0.930  35.983  10.440
19106W        W78202  10.140  44.985   4.788
19107W        W78203  36.995  10.173  13.857
19108W        W78204  10.698  31.530   2.221
19109W        W78205   6.772   7.728   1.441
19110W        W78206  39.362   1.346  11.448
19111W        W78207  36.395  40.344  12.074
19112W        W78208  41.323  27.165  14.773
19113W        W78209  26.489  39.450  13.370
19114W        W78210  21.517  26.608   4.315
19115W        W78211  27.495  35.552   0.831
19116W        W78212   9.761  24.564   1.444
19117W        W78213  11.231   0.960   2.252
19118W        W78214  16.802   5.868  12.055
19119W        W78215  34.589  13.212  12.427
19120W        W78216  16.074  31.153   5.595
19121W        W78217   8.861  35.905   3.675
19122W        W78218   0.284  12.218  13.478
19123W        W78219  10.222  44.862  13.497
19124W        W78220  19.150  28.151   1.255
19125W        W78221   1.771  36.964  12.962
19126W        W78222  31.917  28.010  10.438
19127W        W78223  10.280  34.372   2.826
19128W        W78224  14.109   2.814  14.852
19129W        W78225  43.972  35.856  11.445
19130W        W78226  22.534  13.644   2.743
19131W        W78227  13.686  40.378   4.138
19132W        W78228  20.069   9.276   3.740
19133W        W78229  20.152  44.414  14.511
19134W        W78230   7.326  19.622  13.318
19135W        W78231  34.117   9.297   3.281
19136W        W78232  41.872  16.665   4.802
19137W        W78233  29.100  26.984   2.761
19138W        W78234  19.623  28.642  11.507
19139W        W78235   5.733   7.314  14.466
19140W        W78236   7.763  36.567  13.919
19141W        W78237  35.962  35.951   1.305
19142W        W78238  39.865   3.863  13.964
19143W        W78239  11.347  21.082  14.382
19144W        W78240  38.074  44.456   1.253
19145W        W78241  25.207  10.359  12.824
19146W        W78242  36.376  34.484   4.781
19147W        W78243  10.641   0.300   0.857
19148W        W78244  26.007  42.436  13.002
19149W        W78245   4.817  42.310  10.584
19150W        W78246  34.079  20.744  14.996
19151W        W78247  37.971  31.582   1.852
19152W        W78248  27.133  36.960   4.667
19153W        W78249  24.039  42.856  13.336
19154W        W78250  14.130  15.270  11.126
19155W        W78251   6.888  25.182  11.061
19156W        W78252  30.475  16.194  11.475
19157W        W78253  41.854   7.721  11.129
19158W        W78254  26.522  40.891  12.888
19159W        W78255  14.156  28.065  12.061
19160W        W78256  34.434  41.502   2.341
19161W        W78257  33.453  31.592  13.498
19162W        W78258   6.841  25.600  12.384
19163W        W78259   5.757  38.840   0.776
19164W        W78260   6.749   8.769   1.282
19165W        W78261  11.835  40.440   3.179
19166W        W78262  15.164  26.560  12.940
19167W        W78263  12.214  36.581   2.392
19168W        W78264   3.361  29.998   0.771
19169W        W78265   6.388   5.423   1.423
19170W        W78266  32.893  14.253   3.710
19171W        W78267  13.633   7.845  12.565
19172W        W78268   8.777  44.849   2.356
19173W        W78269  32.022   4.419   1.844
19174W        W78270  39.359  36.071   3.837
19175W        W78271  13.816  25.061  10.439
19176W        W78272  25.078  15.185   0.940
19177W        W78273  15.296   7.310   1.756
19178W        W78274  21.104  12.230   3.811
19179W        W78275  14.207  40.952   1.765
19180W        W78276  22.206   1.824  10.558
19181W        W78277  18.646  12.120   0.419
19182W        W78278   9.343  26.022   9.971
19183W        W78279   8.176  39.954   1.853
19184W        W78280   7.855  32.549  11.859
19185W        W78281  16.252   7.764   4.203
19186W        W78282   1.861  33.952  10.963
19187W        W78283  25.119   5.367   4.148
19188W        W78284  10.769  28.181  12.947
19189W        W78285  26.685  42.993   2.333
19190W        W78286   2.459  30.428  10.900
19191W        W78287  22.085  44.273   3.343
19192W        W78288  15.790  33.464   3.272
19193W        W78289  32.081   5.304  12.003
19194W        W78290  13.618  13.249  14.283
19195W        W78291  20.077  18.651   4.153
19196W        W78292  21.144  40.900  12.370
19197W        W78293  13.241   6.374   0.949
19198W        W78294  31.064  20.638  10.591
19199W        W78295   0.800  13.238   2.803
19200W        W78296  18.780   7.869   2.214
19201W        W78297   9.724   1.828   3.193
19202W        W78298  13.319   4.440  14.010
19203W        W78299  34.586  35.870  13.311
19204W        W78300  36.349  37.011  13.391
19205W        W78301  29.000  10.319  12.870
19206W        W78302  28.952   2.286   4.760
19207W        W78303  42.964  25.164  13.920
19208W        W78304  39.891   2.834  13.413
19209W        W78305  26.511  22.714  13.511
19210W        W78306  20.575  31.142   1.805
19211W        W78307  29.102  22.163  12.396
19212W        W78308  38.000  42.974  10.431
19213W        W78309  39.901  37.493   4.703
19214W        W78310  19.675  23.593   4.799
19215W        W78311  40.393  27.108  12.971
19216W        W78312  13.614   1.399  11.951
19217W        W78313  31.031  35.999   1.703
19218W        W78314  22.558   1.791  11.914
19219W        W78315  41.984   8.329   4.242
19220W        W78316  29.947  44.350   2.245
19221W        W78317  28.531  25.976   0.397
19222W        W78318  10.778  26.987   0.307
19223W        W78319  26.498  11.298   2.272
19224W        W78320  20.551   2.838  11.089
19225W        W78321  29.074  15.610  14.397
19226W        W78322  12.313  33.060  13.530
19227W        W78323  42.285  18.195   3.374
19228W        W78324  17.666   1.295   0.769
19229W        W78325  24.646  31.071   2.211
19230W        W78326   5.403  22.728   9.461
19231W        W78327   8.378  33.046  11.023
19232W        W78328  44.950   5.734   4.600
19233W        W78329  35.498  23.227   2.757
19234W        W78330   7.894  39.055  11.957
19235W        W78331  42.987  19.705  14.955
19236W        W78332  25.486  33.885  13.343
19237W        W78333  23.209   5.841  13.367
19238W        W78334   4.895  23.632  13.352
19239W        W78335  42.929  24.092  14.986
19240W        W78336  37.050  11.200  14.006
19241W        W78337  25.035   8.392   1.744
19242W        W78338  31.030  25.176   2.822
19243W        W78339  17.303  40.029  12.059
19244W        W78340   7.243  27.950   1.793
19245W        W78341  34.027   6.798   3.291
19246W        W78342   7.771  43.509   2.690
19247W        W78343  36.876  27.459   3.813
19248W        W78344   3.264  22.706   0.359
19249W        W78345  41.981  15.811  13.401
19250W        W78346  19.642   6.377   4.331
19251W        W78347  20.221  17.233   1.367
19252W        W78348  17.153  29.037  13.511
19253W        W78349  31.440  38.570   2.183
19254W        W78350  38.980   8.178   0.343
19255W        W78351  42.380  38.917   0.874
19256W        W78352  41.453  27.120  10.929
19257W        W78353  21.682  21.749   9.659
19258W        W78354   8.219   0.975  14.387
19259W        W78355  22.610   2.395   1.314
19260W        W78356   6.870   2.258  11.998
19261W        W78357  28.129  42.414  11.100
19262W        W78358  23.604  15.643  14.511
19263W        W78359   9.392  13.290   1.856
19264W        W78360  36.425  32.622  10.432
19265W        W78361  28.458   9.281   2.323
19266W        W78362   3.380   0.377   3.157
19267W        W78363  42.348  14.133  12.539
19268W        W78364  37.987  21.642   1.389
19269W        W78365  43.354  24.722   1.338
19270W        W78366  31.544  15.731  10.610
19271W        W78367  35.029  40.051   1.279
19272W        W78368  30.565  43.909   3.268
19273W        W78369  39.480  40.430  12.436
19274W        W78370  43.302   6.795  12.087
19275W        W78371  27.028   2.766   2.273
19276W        W78372  22.139  31.629  11.414
19277W        W78373   4.886  38.363   3.734
19278W        W78374  23.590  23.682   0.453
19279W        W78375   5.229  17.651  13.522
19280W        W78376  32.624   8.379  14.443
19281W        W78377  33.041  44.813   2.312
19282W        W78378  22.085   6.256  11.062
19283W        W78379  23.557  29.496  12.497
19284W        W78380  18.616  28.148   3.248
19285W        W78381  20.543   0.322   2.898
19286W        W78382  21.705  21.642  11.099
19287W        W78383  33.892  42.484  13.373
19288W        W78384  17.686  13.751  13.977
19289W        W78385   0.354  41.885  13.377
19290W        W78386  10.794  38.932   1.375
19291W        W78387   0.916  39.020   3.648
19292W        W78388  19.606  31.414   3.308
19293W        W78389  34.500  40.881  13.460
19294W        W78390  38.058  17.153   2.196
19295W        W78391  35.404  25.491  14.829
19296W        W78392  16.709  41.796  13.344
19297W        W78393  22.202  16.142   4.298
19298W        W78394  18.573  26.512  11.397
19299W        W78395  20.104  30.158   0.362
19300W        W78396   7.207  42.815   2.675
19301W        W78397  14.750  32.413   2.867
19302W        W78398  34.504   3.364  13.874
19303W        W78399  38.879  13.726   3.662
19304W        W78400  28.575  30.597   0.434
19305W        W78401  23.138   8.214   1.210
19306W        W78402  18.066  10.214   0.960
19307W        W78403   2.468  20.250  10.516
19308W        W78404  23.024  29.526  12.387
19309W        W78405   7.801  29.077   4.329
19310W        W78406  12.852   4.715   3.829
19311W        W78407  19.061  36.364   1.362
19312W        W78408  27.091  43.353  14.833
19313W        W78409  20.110  28.571  14.864
19314W        W78410  19.151   6.193  10.935
19315W        W78411  10.259  22.561   2.822
19316W        W78412  44.790  40.042   1.229
19317W        W78413  39.024  19.149   2.353
19318W        W78414  25.609   6.347  11.090
19319W        W78415  25.700  38.955   1.403
19320W        W78416  10.686  44.785  11.039
19321W        W78417  31.060  39.382   2.902
19322W        W78418  43.398  37.352  11.091
19323W        W78419  13.317  28.079   4.301
19324W        W78420  21.533   9.280  12.035
19325W        W78421  40.939  15.612   1.834
19326W        W78422  25.583  37.382   2.886
19327W        W78423  27.601  25.973   1.287
19328W        W78424  22.054   0.987   1.789
19329W        W78425  11.691   3.896  13.307
19330W        W78426   3.399  26.018  11.388
19331W        W78427   1.290   6.907  14.395
19332W        W78428  37.504  35.425  10.557
19333W        W78429   6.301   6.373  14.780
19334W        W78430  14.326  24.499  10.532
19335W        W78431   5.266  12.265   4.216
19336W        W78432  30.934  43.461   3.653
19337W        W78433  43.933  11.338   0.263
19338W        W78434   6.853  43.960   4.819
19339W        W78435   0.839   8.342   4.641
19340W        W78436  30.649  42.299   3.784
19341W        W78437   8.878  26.599   4.173
19342W        W78438   3.324  31.968  12.570
19343W        W78439  24.712  29.172   3.701
19344W        W78440  28.632   7.342  13.440
19345W        W78441  36.939  17.694  14.441
19346W        W78442  37.952  44.362  11.540
19347W        W78443  11.800  38.909   2.733
19348W        W78444  21.547  24.005  11.425
19349W        W78445  14.713  17.772   2.310
19350W        W78446  16.681   7.382  13.427
19351W        W78447  38.397  14.096   2.849
19352W        W78448  18.596  10.164  13.524
19353W        W78449   6.724  18.264  14.773
19354W        W78450  15.218  30.079   9.492
19355W        W78451  44.355  24.029  10.952
19356W        W78452  16.669   4.866   4.319
19357W        W78453  44.995  19.268  12.826
19358W        W78454   1.828   5.747  11.521
19359W        W78455  21.092  20.138   1.225
19360W        W78456   6.364  27.608   1.754
19361W        W78457   6.360  30.607  14.442
19362W        W78458  13.141  13.630  10.961
19363W        W78459   6.200  26.115   9.981
19364W        W78460  29.973  17.687  14.374
19365W        W78461  13.345   4.734   3.709
19366W        W78462   9.329  21.545  12.847
19367W        W78463  22.219  35.588  13.857
19368W        W78464  40.818  28.933  10.493
19369W        W78465  15.218  21.162  12.441
19370W        W78466  25.564  31.501   4.211
19371W        W78467  16.648  35.940  13.527
19372W        W78468  30.035  14.831   2.236
19373W        W78469   0.755  27.083  11.892
19374W        W78470  38.858  26.522  13.844
19375W        W78471  41.293   6.759   1.891
19376W        W78472  43.350  40.936   0.424
19377W        W78473  38.356  35.960  13.526
19378W        W78474   4.818  27.626   1.726
19379W        W78475  14.688  41.032   2.894
19380W        W78476  36.355  21.205   0.378
19381W        W78477   5.242   0.973   0.732
19382W        W78478   4.783   9.152   3.699
19383W        W78479   7.791   5.767  10.966
19384W        W78480  28.058  10.684   4.679
19385W        W78481   0.471  10.651   3.810
19386W        W78482  24.676  29.937   3.670
19387W        W78483  34.092  30.457  11.457
19388W        W78484  34.425   1.357   3.371
19389W        W78485   6.252  10.678  11.456
19390W        W78486  26.121   6.738  14.501
19391W        W78487  21.115  40.809  13.816
19392W        W78488   9.662   1.389  11.989
19393W        W78489  15.233  27.458   3.255
19394W        W78490   6.823  12.849  12.533
19395W        W78491   6.219  24.693   3.784
19396W        W78492  17.168   4.711  13.356
19397W        W78493   8.247  21.038  10.546
19398W        W78494  18.185  16.155   1.222
19399W        W78495  43.939  31.979  14.020
19400W        W78496  17.117  27.594   2.390
19401W        W78497  15.190  21.258   3.656
19402W        W78498  28.180  43.861   0.907
19403W        W78499   7.699   1.767   5.082
19404W        W78500  17.778  34.504  12.084
19405W        W78501  12.223  21.182   2.396
19406W        W78502   8.278  43.489   1.698
19407W        W78503  30.558  36.845  10.051
19408W        W78504  17.663  23.633   3.715
19409W        W78505  21.605  18.201   3.325
19410W        W78506   7.862  28.598  14.428
19411W        W78507  15.313  31.060   1.700
19412W        W78508  18.254  26.489   4.807
19413W        W78509  19.260  23.095  12.934
19414W        W78510  15.763  10.644  14.377
19415W        W78511   1.937   4.344  14.827
19416W        W78512  32.489   7.350  10.987
19417W        W78513   7.827  21.725  14.868
19418W        W78514  32.512  25.078   3.671
19419W        W78515  43.313  31.522  10.612
19420W        W78516  12.681  30.918  11.946
19421W        W78517   7.225  25.624   9.939
19422W        W78518   3.410  18.066  13.873
19423W        W78519  27.532  36.568   5.252
19424W        W78520  11.300  23.495  11.444
19425W        W78521  25.219   5.756   4.767
19426W        W78522  38.557  15.785   3.673
19427W        W78523   0.368  44.879  14.858
19428W        W78524   2.867   9.336  12.433
19429W        W78525  26.045  17.074  14.804
19430W        W78526  39.019  15.712  13.905
19431W        W78527  15.305  24.550   2.794
19432W        W78528  16.746  34.510   3.814
19433W        W78529  30.950  34.514   1.233
19434W        W78530  42.363  32.565  14.462
19435W        W78531  26.180  42.952  11.078
19436W        W78532  24.542   9.741   1.875
19437W        W78533  31.919  27.985  14.866
19438W        W78534   0.907   7.401  14.425
19439W        W78535  35.540   1.264  13.841
19440W        W78536  39.969   3.750  11.960
19441W        W78537  17.203  11.724   2.714
19442W        W78538  41.430  35.586   0.254
19443W        W78539  11.670  39.855  10.463
19444W        W78540   5.299  21.526  11.478
19445W        W78541  44.974  14.817  13.347
19446W        W78542  31.579   1.384   0.310
19447W        W78543  44.290  16.315   4.312
19448W        W78544  43.924  27.126  12.956
19449W        W78545  25.197   8.208   1.304
19450W        W78546   0.928   2.306  12.430
19451W        W78547  40.500  10.679  10.533
19452W        W78548  22.551  17.625  12.976
19453W        W78549  35.958  29.952   0.281
19454W        W78550   7.403   6.842   3.704
19455W        W78551  10.850  36.564  13.907
19456W        W78552  34.434   0.959   0.747
19457W        W78553  38.432   9.765   0.284
19458W        W78554  29.129  24.556   1.348
19459W        W78555   4.365  26.520   3.633
19460W        W78556  10.241  41.914  12.504
19461W        W78557  16.218  41.382   1.406
19462W        W78558  10.683   6.400   0.252
19463W        W78559   3.220  13.150  11.127
19464W        W78560  11.295   4.838   1.733
19465W        W78561   7.792  16.635  13.835
19466W        W78562   1.767  29.157   2.888
19467W        W78563  12.711   3.283  11.959
19468W        W78564  41.029  35.855   2.686
19469W        W78565  25.582  41.503   3.657
19470W        W78566  23.553  39.524  13.017
19471W        W78567  24.545  21.117  10.952
19472W        W78568  29.078  25.657   4.837
19473W        W78569  40.882  41.495  12.020
19474W        W78570  22.707  41.497  13.956
19475W        W78571  41.848   4.873  11.050
19476W        W78572   5.921  27.531  11.421
19477W        W78573  16.749  42.969  12.063
19478W        W78574  27.055  17.185   4.808
19479W        W78575  41.981   8.365   0.373
19480W        W78576  17.140  41.998   0.858
19481W        W78577  24.994  30.476   1.345
19482W        W78578  21.144  11.709  10.112
19483W        W78579  17.195  13.750  11.591
19484W        W78580   3.230   8.312   1.886
19485W        W78581  25.678  44.394   4.699
19486W        W78582   1.797   7.695   1.878
19487W        W78583  22.665  39.464   2.390
19488W        W78584  32.888  18.574   4.326
19489W        W78585   5.380  14.103  13.813
19490W        W78586  30.050  40.842   1.335
19491W        W78587  23.664  40.893   1.299
19492W        W78588  41.988  35.463  12.865
19493W        W78589  13.724   8.745   1.247
19494W        W78590   6.264  30.155  14.281
19495W        W78591  42.453   7.414  11.492
19496W        W78592  19.075  34.522   2.304
19497W        W78593  12.746  29.058  10.415
19498W        W78594  34.500  37.081  14.795
19499W        W78595  40.869  26.578   3.703
19500W        W78596  27.192  43.828  11.460
19501W        W78597  17.063  44.009  14.766
19502W        W78598  39.981  18.601   3.729
19503W        W78599   4.767  38.044  14.412
19504W        W78600  34.490   9.214  13.459
19505W        W78601   3.765  33.940  14.958
19506W        W78602  23.503  36.460  13.378
19507W        W78603  27.681  28.036   2.670
19508W        W78604  18.749  42.380  13.052
19509W        W78605  22.030  42.428   2.831
19510W        W78606  32.002  22.621   3.285
19511W        W78607  26.083  13.742  12.955
19512W        W78608   3.901   7.228   2.789
19513W        W78609  29.629  25.148   3.360
19514W        W78610   2.871  19.637   1.224
19515W        W78611   1.249  18.715   4.700
19516W        W78612  27.964  30.941   3.356
19517W        W78613  26.662  21.548   4.258
19518W        W78614  14.608  29.999   9.487
19519W        W78615  20.565  17.761  13.459
19520W        W78616  22.165  22.121   4.126
19521W        W78617  23.048  28.089  11.892
19522W        W78618  44.844  13.276   1.438
19523W        W78619  36.385  27.506   2.698
19524W        W78620  14.328   5.252  12.965
19525W        W78621   6.381  33.459   1.707
19526W        W78622  39.455  24.682  13.415
19527W        W78623   4.827  20.095   0.249
19528W        W78624  38.875   7.776  14.868
19529W        W78625  33.080  10.643   3.330
19530W        W78626  33.076  40.322  13.511
19531W        W78627  18.281  29.004  11.549
19532W        W78628  37.976  12.797  13.060
19533W        W78629  14.591  14.322  10.091
19534W        W78630  34.967  13.142   4.168
19535W        W78631  31.420  30.024  10.529
19536W        W78632  42.445  24.225  13.034
19537W        W78633  10.868  23.035  13.391
19538W        W78634  18.635  24.009  11.488
19539W        W78635  39.482   7.320   1.383
19540W        W78636  12.249  42.869   5.295
19541W        W78637  41.479   4.209   1.759
19542W        W78638  22.712  31.996  14.362
19543W        W78639  38.831   2.422   0.908
19544W        W78640  17.627  14.169  11.563
19545W        W78641   6.884  37.880  11.056
19546W        W78642  40.045   4.363  12.344
19547W        W78643   2.784  29.523  14.493
19548W        W78644  37.367  15.712   3.844
19549W        W78645  18.758  32.550   4.328
19550W        W78646   4.243  41.489  12.441
19551W        W78647   8.269  34.914  12.434
19552W        W78648  26.626  16.673   0.940
19553W        W78649   4.849  27.110  12.048
19554W        W78650  14.709   4.772  10.929
19555W        W78651  38.848  25.135   0.867
19556W        W78652   3.269  21.688  13.337
19557W        W78653  17.785  43.895  14.874
19558W        W78654  41.912   7.404  13.984
19559W        W78655  28.086  20.144  10.990
19560W        W78656  15.776  30.042   1.216
19561W        W78657  42.431   0.750  10.597
19562W        W78658  35.943  35.567  14.960
19563W        W78659  35.471  43.822   1.829
19564W        W78660  13.716  35.899   4.751
19565W        W78661  11.269  24.714   0.826
19566W        W78662  44.859  10.741   2.290
19567W        W78663  23.106   8.323  12.534
19568W        W78664  31.088  16.307   3.240
19569W        W78665  27.558  25.670   0.425
19570W        W78666  13.836  30.118  10.954
19571W        W78667  37.577  38.871   3.823
19572W        W78668  30.509   7.270  12.923
19573W        W78669  33.055  28.522  11.927
19574W        W78670  26.646   8.694   2.338
19575W        W78671  41.040  17.634  13.954
19576W        W78672   6.381   0.826   0.308
19577W        W78673  24.203  30.044   3.774
19578W        W78674  20.259   5.931  11.605
19579W        W78675  14.338  24.571   1.389
19580W        W78676  12.755  35.478  14.464
19581W        W78677  28.639  32.485  10.629
19582W        W78678   2.804   9.667  10.936
19583W        W78679  11.814  43.886  12.046
19584W        W78680  29.470   0.757   1.252
19585W        W78681  38.566  14.684   1.258
19586W        W78682  37.965  23.693  13.394
19587W        W78683  33.538  31.906  14.378
19588W        W78684  33.060  42.436  13.393
19589W        W78685  20.176   5.351   0.842
19590W        W78686  44.290  44.445  11.880
19591W        W78687  16.150  44.378  11.430
19592W        W78688  30.536  16.567  13.472
19593W        W78689  15.804  17.614   0.916
19594W        W78690  37.837   4.750  11.527
19595W        W78691  18.061   9.368   0.326
19596W        W78692  29.935  24.988   1.448
19597W        W78693  19.258  14.312  14.812
19598W        W78694   9.680  40.045   0.305
19599W        W78695  35.500  25.185   0.728
19600W        W78696  20.706   6.815  12.962
19601W        W78697   9.221  20.225  11.993
19602W        W78698  28.179   1.824   3.148
19603W        W78699  37.445   0.478   2.721
19604W        W78700  30.036  11.252   4.668
19605W        W78701  40.802   4.796  13.368
19606W        W78702  21.161  34.375   4.249
19607W        W78703   4.761  25.605   0.278
19608W        W78704  27.583  12.303   4.659
19609W        W78705  18.151  40.836   4.348
19610W        W78706   0.385  28.000   2.808
19611W        W78707  20.626  13.278   2.224
19612W        W78708  44.963  37.974   1.254
19613W        W78709  15.290  14.196   1.736
19614W        W78710  37.069   6.864  12.022
19615W        W78711  13.698  20.054   1.395
19616W        W78712  13.793  30.558  11.014
19617W        W78713  11.747  13.220  14.026
19618W        W78714  44.495  36.959   4.195
19619W        W78715   6.824  31.549   3.656
19620W        W78716  16.782  42.814  13.492
19621W        W78717  28.134  31.017  12.576
19622W        W78718  11.245  24.612  11.444
19623W        W78719   5.793  17.207   1.330
19624W        W78720  15.735   3.290   1.910
19625W        W78721  11.858  42.356   0.459
19626W        W78722  17.240  33.023   4.698
19627W        W78723  37.421  36.088   0.881
19628W        W78724  12.789  38.966   0.377
19629W        W78725  28.093  17.773  12.454
19630W        W78726   4.793  34.446  14.487
19631W        W78727  24.558  29.976  14.782
19632W        W78728  16.168  13.793   2.297
19633W        W78729   6.737  38.433   1.436
19634W        W78730  30.421  33.933  10.986
19635W        W78731   4.315   0.375   1.258
19636W        W78732  20.182  27.624   0.893
19637W        W78733  31.915  37.466   1.281
19638W        W78734  27.485  17.203   3.687
19639W        W78735  15.209   9.789  11.031
19640W        W78736  16.282  31.974   3.274
19641W        W78737  31.024  40.311   4.140
19642W        W78738  15.769  23.215  11.485
19643W        W78739  26.579  44.376  10.982
19644W        W78740   1.300  37.359  13.872
19645W        W78741  20.608  26.179  10.918
19646W        W78742  32.575  18.105   1.388
19647W        W78743  24.563  24.520  10.635
19648W        W78744   4.397  14.236  10.976
19649W        W78745  18.641  11.849  13.973
19650W        W78746  19.692  24.999  14.316
19651W        W78747  36.036  11.748  10.515
19652W        W78748  25.612   9.811  11.376
19653W        W78749  16.210  15.289   1.769
19654W        W78750  30.130  34.567  12.422
19655W        W78751  24.497   2.332  12.855
19656W        W78752  13.328  26.538  14.006
19657W        W78753  16.803  26.110   1.383
19658W        W78754  38.453  26.659  11.438
19659W        W78755  42.436  33.409  12.497
19660W        W78756  44.837  42.420   0.454
19661W        W78757  16.097   9.669   2.329
19662W        W78758   9.713  28.056  12.544
19663W        W78759  31.584  42.815  14.298
19664W        W78760  21.575  37.000   0.338
19665W        W78761  33.420  27.997   2.375
19666W        W78762  22.069  13.121  11.955
19667W        W78763  26.116  18.242   1.697
19668W        W78764  14.140  30.487  14.950
19669W        W78765  30.068  28.625  12.985
19670W        W78766  17.613  33.580  10.974
19671W        W78767  33.477  38.853   2.192
19672W        W78768  36.588  38.560  11.904
19673W        W78769  30.592   4.774  13.403
19674W        W78770  11.320   8.818   2.897
19675W        W78771  12.200  43.494   2.886
19676W        W78772  38.506  36.558  14.947
19677W        W78773  14.336  39.485  13.436
19678W        W78774  27.690  21.651   0.447
19679W        W78775  42.989  21.263  11.964
19680W        W78776  35.954  40.541  14.956
19681W        W78777   7.896  42.435  12.355
19682W        W78778   8.860  21.112   1.750
19683W        W78779  19.553  43.281  12.885
19684W        W78780  11.739  27.168   2.368
19685W        W78781   2.305  34.910   1.316
19686W        W78782  41.959  32.104   5.170
19687W        W78783   8.314  18.550  12.344
19688W        W78784   7.384   6.694   3.333
19689W        W78785  40.429  26.952  13.450
19690W        W78786  34.457  23.527  10.911
19691W        W78787  11.152   5.720   2.232
19692W        W78788   0.393   6.257   3.753
19693W        W78789   2.913  22.641   0.427
19694W        W78790  14.727  29.640   3.698
19695W        W78791   0.899  20.058  10.508
19696W        W78792  12.209  41.846  14.289
19697W        W78793  21.598  32.108  11.486
19698W        W78794  43.278  28.036   0.445
19699W        W78795  26.001  22.139   1.329
19700W        W78796  17.622  25.019  10.574
19701W        W78797  23.725  36.010   0.859
19702W        W78798  27.024  31.937   2.860
19703W        W78799  43.472   2.244   0.375
19704W        W78800  29.574  37.501   2.890
19705W        W78801  33.876  22.132   0.780
19706W        W78802   1.442  44.328  10.515
19707W        W78803  24.008  29.524  13.909
19708W        W78804   2.230  33.460   5.274
19709W        W78805  14.746  13.137   3.330
19710W        W78806   9.676  28.050   0.795
19711W        W78807   6.379  12.215   4.113
19712W        W78808  22.113  13.125   4.636
19713W        W78809  41.914  21.634  10.406
19714W        W78810  30.109  11.679   2.350
19715W        W78811  12.314  44.313   1.290
19716W        W78812  40.820  24.119  14.848
19717W        W78813  29.505   6.875   0.465
19718W        W78814  24.640   3.938   3.307
19719W        W78815  34.372  28.560   2.770
19720W        W78816   3.454  32.598   3.685
19721W        W78817  40.503  41.383  13.900
19722W        W78818  27.107  27.092  10.918
19723W        W78819  11.238  37.951   0.289
19724W        W78820  28.545  44.941   3.250
19725W        W78821  22.710  14.784  11.962
19726W        W78822  26.967  39.814   0.910
19727W        W78823  22.204  37.940  12.382
19728W        W78824  43.982  42.387  14.951
19729W        W78825  28.568  44.365   4.793
19730W        W78826  17.305  28.095  13.321
19731W        W78827  12.278  41.352  12.965
19732W        W78828  26.010  32.456   2.847
19733W        W78829  15.135  31.642   0.768
19734W        W78830   5.779  18.750  10.470
19735W        W78831  23.725  39.061  10.462
19736W        W78832  35.517  24.149   2.760
19737W        W78833  11.178  36.367   0.779
19738W        W78834  44.946  35.927   0.753
19739W        W78835  42.859   0.340  13.921
19740W        W78836  38.489  32.056  12.522
19741W        W78837  23.731  32.911  12.521
19742W        W78838   6.781  25.144   2.272
19743W        W78839  23.732  21.219   2.739
19744W        W78840   8.213  34.961  13.389
19745W        W78841  21.259  36.975  13.821
19746W        W78842  41.375  31.539  12.844
19747W        W78843  24.042  18.053  11.486
19748W        W78844  43.422  27.947  10.516
19749W        W78845  43.766   0.374   3.694
19750W        W78846  34.990  14.616   3.806
19751W        W78847  12.286  14.140   4.311
19752W        W78848   6.398   0.838   4.714
19753W        W78849  26.608   8.783   2.806
19754W        W78850  16.276  30.415   3.864
19755W        W78851  12.135  29.553   1.753
19756W        W78852  17.722  17.671  13.050
19757W        W78853  35.880  34.389  12.392
19758W        W78854  38.522  25.533   0.323
19759W        W78855  13.798  27.197   4.291
19760W        W78856   6.728  14.811  12.497
19761W        W78857  22.061  38.066   0.765
19762W        W78858   4.366   3.804  13.474
19763W        W78859  39.834  31.015  14.425
19764W        W78860  38.551  21.585  13.051
19765W        W78861  29.572  21.640   1.440
19766W        W78862  37.535  17.677   4.643
19767W        W78863  19.190  25.498   4.716
19768W        W78864  35.870   7.271  11.969
19769W        W78865  20.594   5.848   0.868
19770W        W78866  23.028  23.150  11.584
19771W        W78867  31.049  24.617   3.168
19772W        W78868  24.053  12.780   3.184
19773W        W78869  31.106  11.642   2.190
19774W        W78870  37.558  39.512  12.092
19775W        W78871  16.082  23.583   3.381
19776W        W78872  14.309  18.138  14.515
19777W        W78873   3.892   3.932   1.913
19778W        W78874  10.301  21.720   2.390
19779W        W78875   5.784  34.087  11.959
19780W        W78876   5.798  31.999   3.760
19781W        W78877  21.035  17.744   4.341
19782W        W78878  27.606  31.545   2.885
19783W        W78879  42.473  14.334  11.476
19784W        W78880  11.170  44.756  14.347
19785W        W78881  21.173  22.512   4.327
19786W        W78882  13.296  13.702  13.523
19787W        W78883  35.956  39.858   4.151
19788W        W78884  39.876  44.281  14.487
19789W        W78885  39.489   3.295   4.831
19790W        W78886  18.090  14.643   4.144
19791W        W78887  22.185  35.954   0.804
19792W        W78888   5.245  42.030  10.463
19793W        W78889  18.226  41.341   3.275
19794W        W78890  24.590  32.533  10.444
19795W        W78891  39.904  40.912  10.406
19796W        W78892   2.936  33.582   0.889
19797W        W78893  17.677   3.929   1.901
19798W        W78894  32.107  22.134  12.522
19799W        W78895  21.169  34.529   3.216
19800W        W78896  18.753  14.677  12.981
19801W        W78897   0.987   6.353   4.748
19802W        W78898  38.072  36.857  12.023
19803W        W78899  31.088  13.190  14.408
19804W        W78900  43.421  36.527   3.635
19805W        W78901   4.839  32.141  11.397
19806W        W78902  39.982  16.770   3.801
19807W        W78903  43.855  39.005   1.304
19808W        W78904  17.765  34.595   2.867
19809W        W78905   7.783  28.068  11.456
19810W        W78906   8.330  39.821   2.394
19811W        W78907   4.730   7.679   4.156
19812W        W78908   9.183  22.048  10.611
19813W        W78909  37.353   7.816  13.462
19814W        W78910  29.109   3.732   0.760
19815W        W78911  19.247   3.824   1.853
19816W        W78912  34.524  10.724   4.253
19817W        W78913  41.492  18.246   2.868
19818W        W78914  39.437  35.429   3.705
19819W        W78915  36.406  43.900   1.307
19820W        W78916  32.122  34.060  13.037
19821W        W78917  39.880  13.806   1.275
19822W        W78918   9.705   4.299  12.508
19823W        W78919  26.039  11.270   0.331
19824W        W78920   6.908  42.931   3.669
19825W        W78921  39.457  34.520  10.404
19826W        W78922  32.094  12.249  11.869
19827W        W78923  36.420   2.828  10.910
19828W        W78924   1.825  19.093   2.201
19829W        W78925  34.865  34.027  13.508
19830W        W78926  21.043  28.449   2.396
19831W        W78927   6.911   2.251  12.862
19832W        W78928  13.159  32.075  11.927
19833W        W78929  32.577  15.630   2.221
19834W        W78930  24.155  15.695  14.374
19835W        W78931   2.424   3.223   0.789
19836W        W78932  20.117  25.190  14.823
19837W        W78933  23.640  11.630  13.362
19838W        W78934  25.180  12.258   4.293
19839W        W78935  12.149  44.293  13.920
19840W        W78936   1.278  31.501   1.402
19841W        W78937  33.519  33.088  10.991
19842W        W78938  33.016   7.233  11.485
19843W        W78939   6.200  18.776  13.341
19844W        W78940  10.361  44.290  11.096
19845W        W78941  15.089  37.038  14.813
19846W        W78942   7.327   2.817   3.714
19847W        W78943  12.684   4.790  10.554
19848W        W78944   9.313   9.330  13.045
19849W        W78945   7.876  33.026   1.240
19850W        W78946  18.106  36.444   2.670
19851W        W78947  24.489  25.500  13.990
19852W        W78948  21.139   1.888   2.337
19853W        W78949   3.802  33.073  11.600
19854W        W78950  28.115   0.935   0.440
19855W        W78951  42.388  23.661  11.003
19856W        W78952  22.188  13.835  13.841
19857W        W78953   2.334  11.778  14.834
19858W        W78954   9.804  31.589   3.648
19859W        W78955  17.213  19.728   2.863
19860W        W78956  26.153  39.398   3.183
19861W        W78957  33.132  22.049   0.905
19862W        W78958  44.939  22.678   4.629
19863W        W78959   0.779  29.990  12.885
19864W        W78960  36.096  29.947  12.479
19865W        W78961  19.662  17.171   0.476
19866W        W78962  32.106  19.108  13.863
19867W        W78963  33.126  40.970  14.025
19868W        W78964  23.073  32.450  11.002
19869W        W78965  10.384  35.596  13.855
19870W        W78966  40.541  35.057  14.378
19871W        W78967  22.187   8.161   1.725
19872W        W78968  15.112  26.505  10.406
19873W        W78969   5.730  24.706  11.486
19874W        W78970  18.586  26.478  13.814
19875W        W78971  13.235   4.723   2.415
19876W        W78972  29.454  29.105   1.779
19877W        W78973   7.296   7.231  14.839
19878W        W78974  18.784   6.324   0.858
19879W        W78975   5.341  40.307  12.487
19880W        W78976  28.040  21.234   0.841
19881W        W78977   2.932   1.274  10.473
19882W        W78978  27.157   9.388   3.166
19883W        W78979  25.620   3.765  14.495
19884W        W78980  35.595  37.512   1.705
19885W        W78981  15.257  10.174   2.241
19886W        W78982   0.437  24.568  11.602
19887W        W78983  14.197   7.844  11.877
19888W        W78984  16.207  40.531   2.412
19889W        W78985  22.187   8.328   2.296
19890W        W78986  33.901  21.520  12.504
19891W        W78987  40.547  16.103  14.810
19892W        W78988   5.906  29.511   0.424
19893W        W78989  40.886   3.753   1.900
19894W        W78990  38.881  16.158   3.375
19895W        W78991   1.760  18.068   2.381
19896W        W78992   0.757   9.749   1.899
19897W        W78993  40.432  11.848  11.553
19898W        W78994   3.876   5.404  14.361
19899W        W78995  41.368  16.611   1.772
19900W        W78996   6.913  13.750   1.823
19901W        W78997  18.689  28.955  11.877
19902W        W78998   4.847  12.678   3.348
19903W        W78999   3.955  28.662   2.340
19904W        W79000  28.977   5.233  13.819
19905W        W79001  14.182  44.489   1.365
19906W        W79002  26.146  38.062  14.977
19907W        W79003  32.022  41.400   2.735
19908W        W79004  34.373  17.672  12.570
19909W        W79005  36.994  15.687   0.766
19910W        W79006  38.897   5.833  10.467
19911W        W79007   5.877  29.597   1.292
19912W        W79008  42.026  33.478   9.922
19913W        W79009   0.919  19.145  10.542
19914W        W79010  18.664  39.504   3.225
19915W        W79011   6.356  23.050   5.184
19916W        W79012   2.254  24.701  11.867
19917W        W79013   2.893  14.235  14.491
19918W        W79014   0.292  16.650   0.395
19919W        W79015  10.293  24.192  12.561
19920W        W79016  42.499  33.951   1.417
19921W        W79017   8.201  28.101  11.412
19922W        W79018  40.459  26.965   1.698
19923W        W79019  10.142   7.727  10.149
19924W        W79020  35.577  28.126   4.235
19925W        W79021   5.879  11.802  13.906
19926W        W79022  22.125  10.285  14.867
19927W        W79023   3.242  10.360  14.389
19928W        W79024  41.349   0.439   4.180
19929W        W79025  35.381  22.714   2.718
19930W        W79026  39.343  35.413   1.715
19931W        W79027  12.232  41.489  12.576
19932W        W79028  11.675  32.014  13.533
19933W        W79029   8.219  23.559   2.761
19934W        W79030  24.162   0.453   3.723
19935W        W79031   5.324  34.559  11.053
19936W        W79032   7.817  11.846   3.691
19937W        W79033  21.231  10.758  12.033
19938W        W79034   5.242  39.864   0.914
19939W        W79035   8.887  38.420   0.954
19940W        W79036  15.727  29.120   5.722
19941W        W79037  39.472   3.867  13.913
19942W        W79038  39.052   3.939  13.038
19943W        W79039  36.946   5.751  14.911
19944W        W79040   3.245   7.803   0.728
19945W        W79041  28.513  29.938  13.014
19946W        W79042  24.973  21.144  12.513
19947W        W79043  35.513   0.334  14.306
19948W        W79044   3.368   0.255  14.335
19949W        W79045  19.689  44.984  12.520
19950W        W79046   2.827   1.237   4.756
19951W        W79047   9.807  36.483   1.779
19952W        W79048  22.703  37.568  14.029
19953W        W79049  18.144  12.175   9.941
19954W        W79050  31.922   0.770   4.807
19955W        W79051  17.180  35.925  13.435
19956W        W79052  19.584  17.133   2.720
19957W        W79053  27.963  26.041   1.315
19958W        W79054  28.929   0.946  10.939
19959W        W79055   1.951  31.086   2.768
19960W        W79056  32.906  13.789   1.804
19961W        W79057  35.083  16.635   2.417
19962W        W79058  42.960  22.543  13.864
19963W        W79059  29.530  30.658   1.832
19964W        W79060  16.775  28.488   3.179
19965W        W79061  15.185  29.172   4.798
19966W        W79062  18.658  24.024  13.545
19967W        W79063  40.506   5.760   9.982
19968W        W79064  36.869  13.323  12.965
19969W        W79065  15.595  40.336   4.170
19970W        W79066  13.780   0.493   2.397
19971W        W79067  29.552  35.080   0.782
19972W        W79068   2.859  18.554   0.474
19973W        W79069  16.572  30.978   5.228
19974W        W79070  42.281   7.227  13.936
19975W        W79071  23.631  40.515   1.758
19976W        W79072  17.280   7.382   3.866
19977W        W79073   8.160  44.886  11.994
19978W        W79074  19.211  33.528   1.784
19979W        W79075  42.332   5.325   1.283
19980W        W79076   6.356  43.403   2.859
19981W        W79077  28.130  10.788  13.005
19982W        W79078   9.767  41.940  12.849
19983W        W79079  31.135  36.941  12.535
19984W        W79080  33.892  15.743   2.799
19985W        W79081  42.303  41.494   4.765
19986W        W79082   5.701  43.334   4.136
19987W        W79083  25.217  13.658  13.989
19988W        W79084  42.888  28.467   3.783
19989W        W79085  27.067  42.778   2.352
19990W        W79086  40.891  43.441   2.203
19991W        W79087  28.492  41.398  14.817
19992W        W79088  29.071  41.862  13.963
19993W        W79089  19.067  23.193  13.917
19994W        W79090   1.940  35.500   2.864
19995W        W79091   4.703  17.301  12.994
19996W        W79092  24.532   1.238   4.277
19997W        W79093  26.540  41.932   2.275
19998W        W79094  27.973  38.434  10.447
19999W        W79095  38.826  32.028  11.551
20000W        W79096   7.722  16.695  10.975
20001W        W79097  24.101  35.518  12.066
20002W        W79098  41.426  11.717  10.902
20003W        W79099  37.554  44.336  13.021
20004W        W79100  27.151   3.412   3.854
20005W        W79101   1.912  17.609   3.247
20006W        W79102  10.653   6.369  14.950
20007W        W79103  42.284   3.307   4.767
20008W        W79104   8.207  33.562   3.833
20009W        W79105  40.327  28.965   1.753
20010W        W79106  18.549   7.874   4.209
20011W        W79107   1.974  12.229   1.778
20012W        W79108  13.662  21.648   1.256
20013W        W79109  37.883   5.383  12.915
20014W        W79110  40.335  29.522   3.185
20015W        W79111  15.210  30.921  13.818
20016W        W79112  36.869   2.269  11.445
20017W        W79113   9.286   6.245   4.235
20018W        W79114  27.083   9.303  14.480
20019W        W79115  25.533  12.155   2.252
20020W        W79116  40.547  11.180  11.012
20021W        W79117  10.824   8.325  11.116
20022W        W79118  26.472  28.547  11.861
20023W        W79119  31.537  20.135   2.666
20024W        W79120  22.545  23.013   4.810
20025W        W79121  20.741  17.584   2.846
20026W        W79122   3.401  16.758  11.904
20027W        W79123  29.057  35.933   2.319
20028W        W79124  11.721   3.383  14.009
20029W        W79125  25.683  24.141   5.301
20030W        W79126  28.182  39.337  14.926
20031W        W79127  35.437  39.933   1.301
20032W        W79128  19.120  40.313   5.221
20033W        W79129  16.806  20.610   2.182
20034W        W79130  27.477  16.246  14.018
20035W        W79131  41.972  42.990  11.030
20036W        W79132   5.229  43.435  12.463
20037W        W79133  32.951  40.500  11.591
20038W        W79134   1.482  33.535  13.962
20039W        W79135  42.969   1.751   2.248
20040W        W79136   8.760  44.463  10.589
20041W        W79137  30.055  32.604  14.763
20042W        W79138   8.327   8.848   4.190
20043W        W79139  43.336  35.496   3.765
20044W        W79140  26.208  11.276  10.959
20045W        W79141  40.442   0.833  11.422
20046W        W79142  29.539  44.425  14.458
20047W        W79143   1.833   2.846   3.291
20048W        W79144  41.426  15.085   4.306
20049W        W79145  17.132  26.504  10.554
20050W        W79146  22.737  24.573  11.571
20051W        W79147  38.508  21.583   4.705
20052W        W79148  34.529  40.511  12.401
20053W        W79149  17.663  40.443  11.084
20054W        W79150  16.696   7.289  12.081
20055W        W79151  21.117  19.605  12.062
20056W        W79152   1.802   8.751   3.353
20057W        W79153  16.570   8.179  13.353
20058W        W79154  32.425  36.562   4.191
20059W        W79155  25.588   9.702   0.942
20060W        W79156   8.796   9.757  11.598
20061W        W79157  36.578   3.865  14.353
20062W        W79158  19.540  12.719  12.033
20063W        W79159   4.781  16.171  12.888
20064W        W79160  11.650  15.591  14.318
20065W        W79161  17.688  18.632   3.192
20066W        W79162  17.728   5.200  12.453
20067W        W79163  28.569  37.860  11.540
20068W        W79164  25.597  21.656   4.335
20069W        W79165  44.367  38.472   3.869
20070W        W79166  30.470  18.621   3.825
20071W        W79167  44.485   2.791  10.485
20072W        W79168  14.331  16.797  13.367
20073W        W79169  19.702  44.452  12.854
20074W        W79170  12.226  17.568   4.794
20075W        W79171   9.873  25.572  14.981
20076W        W79172  34.040   7.368   3.648
20077W        W79173  10.297  31.618   1.261
20078W        W79174  35.562  25.605   2.206
20079W        W79175   0.904   9.822  14.762
20080W        W79176  13.636   5.735   4.702
20081W        W79177   6.196  39.358   0.838
20082W        W79178  13.301  39.361   2.363
20083W        W79179  28.642  42.983   0.845
20084W        W79180  31.956   7.233  10.518
20085W        W79181  12.840  29.641   0.375
20086W        W79182  32.986   7.823   4.613
20087W        W79183   4.359  27.594   0.303
20088W        W79184   0.439   7.867  12.424
20089W        W79185  26.147  35.907  13.876
20090W        W79186   1.879  18.215   3.252
20091W        W79187   6.878  25.132  12.373
20092W        W79188   8.700   9.365   4.183
20093W        W79189   6.693  35.017  11.063
20094W        W79190  27.588  38.559  11.571
20095W        W79191   2.465  44.903  11.006
20096W        W79192  28.123  31.930   3.326
20097W        W79193  42.422  10.360  13.393
20098W        W79194   0.774  41.959   4.317
20099W        W79195   7.794  26.576  10.586
20100W        W79196  31.918  22.018  13.850
20101W        W79197  37.061  19.067  13.992
20102W        W79198  31.593   6.256  13.001
20103W        W79199  25.144  44.920  11.039
20104W        W79200   3.747  44.480  14.882
20105W        W79201  13.684  43.298  13.002
20106W        W79202  19.227   7.309   0.344
20107W        W79203   8.738   8.191   3.385
20108W        W79204   4.247  36.434   1.255
20109W        W79205  13.136  42.497  11.083
20110W        W79206  43.998  17.210  13.886
20111W        W79207  43.885  19.772   3.214
20112W        W79208  39.383   0.490   2.836
20113W        W79209  43.469  44.967   1.336
20114W        W79210  18.623   7.183  11.458
20115W        W79211   2.780  12.164   4.779
20116W        W79212   6.774   9.866  14.766
20117W        W79213  33.967  18.102   3.815
20118W        W79214  18.722  10.698   0.253
20119W        W79215   3.459   5.815  13.359
20120W        W79216  33.082  42.440   1.441
20121W        W79217  19.059  16.096   2.686
20122W        W79218   0.376  13.281  12.515
20123W        W79219  35.510  24.158  14.955
20124W        W79220  17.768  24.497  11.100
20125W        W79221   2.274   3.713   0.872
20126W        W79222  11.301  10.179  14.005
20127W        W79223  31.964  17.672   1.301
20128W        W79224  25.700   3.353   2.223
20129W        W79225  11.139  30.437   4.712
20130W        W79226  10.250  38.026   4.742
20131W        W79227  31.460   1.771   0.265
20132W        W79228  43.376  14.591  13.943
20133W        W79229  13.163  22.638   0.966
20134W        W79230   4.424  17.080   0.828
20135W        W79231  27.108  34.038  11.107
20136W        W79232  29.157  12.757  14.986
20137W        W79233   6.203  19.256   1.288
20138W        W79234   2.318  22.729  11.492
20139W        W79235  23.640  35.426   0.780
20140W        W79236  21.591  37.883   1.905
20141W        W79237   4.295  35.062   2.756
20142W        W79238   8.848  18.559   4.787
20143W        W79239   1.433  32.515  13.830
20144W        W79240  20.581  36.854  12.560
20145W        W79241  20.709  25.191   2.411
20146W        W79242  40.881  40.419   3.183
20147W        W79243  28.946  23.687   4.304
20148W        W79244  26.640  19.055   2.683
20149W        W79245   6.344  37.349   4.799
20150W        W79246   3.799  38.898  14.823
20151W        W79247  33.463  23.018  13.055
20152W        W79248   1.838  40.905  14.830
20153W        W79249  30.995   2.916   0.752
20154W        W79250  44.452  23.081  10.605
20155W        W79251  19.172  41.327   1.411
20156W        W79252   6.908   2.447  11.412
20157W        W79253  44.007  37.481   2.412
20158W        W79254   1.931  36.948   2.320
20159W        W79255  29.634  26.166   4.824
20160W        W79256  35.962  35.011   2.827
20161W        W79257   5.774  38.062   0.779
20162W        W79258  38.048   8.678  11.996
20163W        W79259  24.481  18.163   4.686
20164W        W79260  27.584  15.131  12.083
20165W        W79261  11.640  15.802  11.982
20166W        W79262  34.969  43.432  14.339
20167W        W79263  13.109  42.826  14.965
20168W        W79264  24.637  16.646   0.884
20169W        W79265  29.991   2.389   3.667
20170W        W79266  37.411  15.809   4.721
20171W        W79267  10.281   6.853   1.910
20172W        W79268  26.152  25.473   1.924
20173W        W79269  15.192  17.785   3.174
20174W        W79270  33.588  24.094  12.468
20175W        W79271  23.069  38.483   4.747
20176W        W79272  12.289  18.062   2.811
20177W        W79273   9.643  41.404   1.432
20178W        W79274   4.335  12.333   1.747
20179W        W79275  39.419  24.161   0.353
20180W        W79276  37.036  41.342   2.310
20181W        W79277  33.569  14.127   5.288
20182W        W79278   9.692  33.926  12.978
20183W        W79279  30.972  26.972   2.777
20184W        W79280  26.588  32.946   5.111
20185W        W79281   8.801  43.369  13.357
20186W        W79282   6.268  24.543   2.881
20187W        W79283  20.568  22.095   3.227
20188W        W79284  29.511  13.222   4.709
20189W        W79285  13.204  21.168   0.249
20190W        W79286   0.807  18.162  14.802
20191W        W79287   1.382  31.070  12.563
20192W        W79288  12.136  39.904   4.832
20193W        W79289  41.936  19.618   4.315
20194W        W79290  29.052  32.485   2.272
20195W        W79291  40.800  29.940   1.699
20196W        W79292   1.301  15.802   4.233
20197W        W79293   7.769   6.698   0.869
20198W        W79294  26.520  35.564  11.582
20199W        W79295  18.732  15.628  12.496
20200W        W79296  43.395   5.294   0.846
20201W        W79297  21.046  40.382   1.311
20202W        W79298  29.518  35.007  11.601
20203W        W79299  37.395   7.882   9.949
20204W        W79300   6.734   7.912   4.116
20205W        W79301   8.676   3.787  14.356
20206W        W79302  31.482  33.444   0.370
20207W        W79303  35.381   1.830  14.896
20208W        W79304   0.895  17.112  10.049
20209W        W79305   3.230  21.173   4.258
20210W        W79306  22.535  13.197  11.923
20211W        W79307   0.443  17.296   1.716
20212W        W79308  37.488  37.865   0.932
20213W        W79309  32.976  33.971   4.271
20214W        W79310  22.222  22.594  10.631
20215W        W79311  20.160   4.836   3.177
20216W        W79312   3.823   1.356  13.861
20217W        W79313  39.448  41.322  14.930
20218W        W79314  35.561  38.450   3.161
20219W        W79315  38.928  17.078   0.819
20220W        W79316  26.136   4.889  10.072
20221W        W79317   4.289  23.714  11.879
20222W        W79318  34.419  33.619   3.368
20223W        W79319   2.351  22.599   5.094
20224W        W79320  31.090  16.612  12.057
20225W        W79321  23.645   1.303  14.345
20226W        W79322  35.076   8.856   0.408
20227W        W79323  43.963  13.607   2.876
20228W        W79324  31.948  33.579   2.231
20229W        W79325  31.580  21.700   3.660
20230W        W79326  18.552   2.730  11.483
20231W        W79327  36.980   4.394  14.453
20232W        W79328   1.842   4.387   3.722
20233W        W79329  28.442  23.139  12.385
20234W        W79330  37.999  38.021  14.296
20235W        W79331   3.913   1.307  12.949
20236W        W79332  24.711  42.974   5.157
20237W        W79333  13.743  30.972   5.784
20238W        W79334  27.952  32.894   0.482
20239W        W79335  12.242  17.581   1.868
20240W        W79336  14.665  11.705   0.431
20241W        W79337   4.809  29.042  10.036
20242W        W79338  21.207  32.410  12.091
20243W        W79339  27.994  41.918  13.504
20244W        W79340  22.236  18.259   1.852
20245W        W79341   8.336   5.333   2.358
20246W        W79342  31.075  24.036   1.726
20247W        W79343   6.776  13.115   1.216
20248W        W79344  38.933   0.886   5.136
20249W        W79345  11.647  37.939  11.007
20250W        W79346  16.660  19.141   4.313
20251W        W79347  28.971  22.237   0.366
20252W        W79348   0.316  25.709   1.366
20253W        W79349   1.445   9.301  11.407
20254W        W79350  42.807  16.650  12.901
20255W        W79351  30.097  40.841  14.778
20256W        W79352  35.520  18.714   2.259
20257W        W79353  34.515  17.214  14.984
20258W        W79354  18.762   3.451  12.983
20259W        W79355  20.652   7.713   5.099
20260W        W79356  28.090   0.257  11.460
20261W        W79357  42.924  16.621   0.440
20262W        W79358  39.968  34.500   1.272
20263W        W79359   2.783  16.077  11.608
20264W        W79360  26.180   0.364   3.801
20265W        W79361  39.396  27.672   3.756
20266W        W79362  30.644   7.348   2.822
20267W        W79363   9.376  42.409  10.406
20268W        W79364  24.616   4.278   2.820
20269W        W79365  21.734  33.601  12.919
20270W        W79366   8.391  35.020  11.101
20271W        W79367  27.508  20.550   0.449
20272W        W79368   9.266  15.281   0.273
20273W        W79369  12.210   9.777  14.954
20274W        W79370  18.285  40.475  12.489
20275W        W79371  23.011   6.760   0.452
20276W        W79372   1.812   4.726   1.212
20277W        W79373  19.050  29.554  13.807
20278W        W79374   5.693   6.740  12.866
20279W        W79375   0.763   7.385   5.166
20280W        W79376  43.442   4.717  10.962
20281W        W79377  34.087   5.235   3.157
20282W        W79378  10.216  40.442   0.967
20283W        W79379  37.858  33.919   4.346
20284W        W79380  32.889  31.409  10.951
20285W        W79381  35.434   2.461   2.867
20286W        W79382   2.795  30.609  11.013
20287W        W79383  42.519  32.131  12.023
20288W        W79384  25.602  31.605   3.711
20289W        W79385   5.423  28.947   2.733
20290W        W79386  15.264  43.827   0.922
20291W        W79387  10.658   1.749  10.481
20292W        W79388  35.590  10.146  13.941
20293W        W79389  42.777   3.269  13.006
20294W        W79390  17.152   5.252  10.418
20295W        W79391  24.176  27.104   2.279
20296W        W79392  44.956  17.556  12.477
20297W        W79393  41.967  29.936   3.282
20298W        W79394   6.204  28.458   0.779
20299W        W79395  16.619  21.207   2.832
20300W        W79396   0.401  33.044   4.285
20301W        W79397  43.866  14.705   2.748
20302W        W79398   2.361   4.857  12.876
20303W        W79399  44.935  43.342   4.745
20304W        W79400   0.855   0.953  12.078
20305W        W79401  25.602  17.108  11.608
20306W        W79402  18.073  11.228   0.958
20307W        W79403  31.481  12.690  12.889
20308W        W79404  18.668   8.832  12.875
20309W        W79405  14.265   8.826  11.951
20310W        W79406  20.100  20.042  13.439
20311W        W79407  39.459   4.355   1.368
20312W        W79408  11.762  30.609  12.022
20313W        W79409  25.684   8.698  13.346
20314W        W79410  29.927  28.034  11.944
20315W        W79411  28.611   0.982   1.766
20316W        W79412  23.664  30.599   1.781
20317W        W79413  41.944  43.988  14.000
20318W        W79414  30.592  14.594   3.277
20319W        W79415   6.896  31.996  13.949
20320W        W79416  18.615  14.788  11.938
20321W        W79417  18.791  16.630   0.897
20322W        W79418   8.718   7.260  11.497
20323W        W79419  12.249  13.816   2.330
20324W        W79420  14.188  36.533   1.716
20325W        W79421  12.158  13.656   0.344
20326W        W79422  16.569  19.605   2.374
20327W        W79423  42.405  21.714  11.078
20328W        W79424  24.699   0.797  14.814
20329W        W79425  35.084  28.509   0.327
20330W        W79426   3.799   3.739   4.114
20331W        W79427  33.017  31.563   1.846
20332W        W79428  32.431  17.183  13.840
20333W        W79429  22.650  28.539   2.692
20334W        W79430   2.776  33.002   2.886
20335W        W79431   7.861  41.312   1.403
20336W        W79432  36.961  23.028  14.909
20337W        W79433  38.975  18.681   2.298
20338W        W79434  27.471  34.053  12.942
20339W        W79435  26.683  42.853  14.483
20340W        W79436  35.440  12.627  10.603
20341W        W79437  31.447  35.590  10.548
20342W        W79438  42.370  13.311   1.881
20343W        W79439   6.375   9.820   4.278
20344W        W79440  28.658  37.440  14.433
20345W        W79441  20.761  20.698   3.742
20346W        W79442   0.252  34.881   3.237
20347W        W79443  28.091  28.634  13.851
20348W        W79444   1.917  34.417  13.850
20349W        W79445  19.077  41.799  14.014
20350W        W79446  31.581  10.298   2.691
20351W        W79447   1.851  33.585  11.956
20352W        W79448   6.249  17.708   3.727
20353W        W79449  41.404  26.989   4.687
20354W        W79450  10.768  35.594  14.775
20355W        W79451  42.472   7.769  11.461
20356W        W79452  27.105  30.154  12.993
20357W        W79453  42.457  39.528   2.757
20358W        W79454  16.160  29.131  12.039
20359W        W79455  26.052  17.670  10.641
20360W        W79456   8.699  36.373   5.086
20361W        W79457  14.101  30.071   2.752
20362W        W79458  29.464  10.305   1.901
20363W        W79459  22.108   4.226   0.370
20364W        W79460   9.880  32.078   1.300
20365W        W79461   5.291   5.880  12.007
20366W        W79462  21.037   3.929  10.928
20367W        W79463  15.239   0.372   2.312
20368W        W79464   2.886   7.202  12.000
20369W        W79465  16.641   6.852   4.749
20370W        W79466  27.594  41.514   2.371
20371W        W79467  19.647  41.528  13.391
20372W        W79468   7.669   3.231  13.454
20373W        W79469  10.377  30.615   2.186
20374W        W79470  41.891  14.728   2.839
20375W        W79471  12.356  24.065  14.893
20376W        W79472   4.727   6.771  13.325
20377W        W79473  39.026  23.683  10.114
20378W        W79474   0.862  21.536  14.816
20379W        W79475  24.047  34.927   0.366
20380W        W79476   0.269  43.288  12.350
20381W        W79477  34.913  36.368  13.794
20382W        W79478  33.080  26.616   2.341
20383W        W79479  23.157  18.230  14.024
20384W        W79480  42.890  21.715  11.398
20385W        W79481  38.426   7.714   2.262
20386W        W79482  18.740   3.953   3.360
20387W        W79483   5.239  44.259  14.289
20388W        W79484  38.534   4.903  11.859
20389W        W79485  12.126  37.563  12.077
20390W        W79486  37.924  31.964  12.989
20391W        W79487  19.717  18.751  13.969
20392W        W79488   9.172  21.526   1.887
20393W        W79489  37.053  15.663  14.443
20394W        W79490  43.903  25.589   1.308
20395W        W79491  17.232  44.389  12.023
20396W        W79492  33.020   6.826   4.136
20397W        W79493   5.322   8.855   2.234
20398W        W79494  17.688  39.876  13.482
20399W        W79495  27.491  36.877   4.802
20400W        W79496  17.234  43.925  12.054
20401W        W79497  25.043  31.140  10.537
20402W        W79498  38.352   6.299  10.592
20403W        W79499  34.577  44.882   1.264
20404W        W79500  18.274  19.678  14.429
20405W        W79501  43.947  15.175   3.199
20406W        W79502  14.775  43.449  12.024
20407W        W79503  33.876  44.375   2.744
20408W        W79504  39.394   3.782  14.772
20409W        W79505   0.960  15.748   5.178
20410W        W79506  22.185  18.728  11.435
20411W        W79507   7.791  22.572   2.351
20412W        W79508   9.345   9.349   0.873
20413W        W79509  18.678  30.640   1.439
20414W        W79510  12.821  27.451  12.865
20415W        W79511  10.705   6.698   1.855
20416W        W79512   6.201  31.546   2.801
20417W        W79513  23.089  32.444   4.738
20418W        W79514  43.503  22.244  14.976
20419W        W79515  24.098   2.888  13.863
20420W        W79516  24.980   6.270   4.619
20421W        W79517  21.623  32.621   3.759
20422W        W79518  37.909   3.393   2.299
20423W        W79519   2.732  33.972  11.376
20424W        W79520  21.237   6.740  11.905
20425W        W79521  24.717  24.034   1.298
20426W        W79522  29.451  14.335   2.842
20427W        W79523  28.622  15.752   3.657
20428W        W79524   0.794  43.473   0.960
20429W        W79525  30.640   5.703   0.771
20430W        W79526  26.057  20.155  11.051
20431W        W79527  28.661  13.612   4.272
20432W        W79528   2.286  15.142   3.215
20433W        W79529  36.425  38.048  11.884
20434W        W79530  16.206   4.212  10.549
20435W        W79531  24.556  19.711   1.812
20436W        W79532   5.901  15.329   0.804
20437W        W79533   8.664  12.119   2.384
20438W        W79534  16.112  14.178   0.301
20439W        W79535  43.925  40.534  14.840
20440W        W79536  12.737   9.685  14.828
20441W        W79537  41.475  13.751   0.849
20442W        W79538   6.734  32.634  13.003
20443W        W79539  41.918  10.206  14.408
20444W        W79540  11.272   6.242  11.440
20445W        W79541   5.407  26.627  10.417
20446W        W79542  32.573   9.363   2.180
20447W        W79543  20.175  16.726  10.535
20448W        W79544   4.309  11.272  11.412
20449W        W79545  29.578  44.938  14.762
20450W        W79546  38.899   8.252   3.366
20451W        W79547  19.609  38.484  11.924
20452W        W79548  40.429   6.863   1.716
20453W        W79549  14.602  37.447   3.366
20454W        W79550   5.890  27.669  14.901
20455W        W79551  27.065  15.671  10.532
20456W        W79552  30.031  27.537  13.445
20457W        W79553  34.535  43.352  13.942
20458W        W79554  27.025   1.802  11.573
20459W        W79555  39.957  19.136   2.181
20460W        W79556  39.967  32.111  11.098
20461W        W79557   4.826  44.346   2.733
20462W        W79558   6.344  43.962   4.645
20463W        W79559   7.403  40.852   3.721
20464W        W79560  10.842  41.974   0.945
20465W        W79561  36.551  40.413  12.487
20466W        W79562  34.080  39.464   3.813
20467W        W79563   7.830  20.230   4.150
20468W        W79564   6.694  43.396   1.794
20469W        W79565  23.683  40.003  10.984
20470W        W79566   1.391   5.696   4.620
20471W        W79567  11.287   1.320  11.385
20472W        W79568   7.369  16.263  13.548
20473W        W79569  25.047  28.061   0.751
20474W        W79570  37.953  26.030   3.858
20475W        W79571  15.223  30.432  10.486
20476W        W79572  42.525   8.207  13.968
20477W        W79573   1.823   9.852  11.576
20478W        W79574  24.978  31.999   3.725
20479W        W79575  28.624  22.143  12.444
20480W        W79576   6.277  34.996   0.404
20481W        W79577  44.852   8.364  10.526
20482W        W79578  22.057  21.137   1.438
20483W        W79579   5.896  12.649  11.972
20484W        W79580  15.117   8.188  10.530
20485W        W79581   1.793  36.526   0.460
20486W        W79582  13.153  44.315   4.809
20487W        W79583  20.743   8.735  14.460
20488W        W79584  16.103  42.030  14.477
20489W        W79585   5.903  10.663  12.547
20490W        W79586  43.906  19.722  12.554
20491W        W79587  19.153  16.192   1.874
20492W        W79588  32.011   8.844  10.068
20493W        W79589  18.208  10.200  11.611
20494W        W79590   5.778  42.365   4.656
20495W        W79591   1.791  22.590  11.948
20496W        W79592  44.853  24.068   3.666
20497W        W79593  23.638  24.174   1.782
20498W        W79594  12.165  11.696   4.622
20499W        W79595  41.440  32.056   3.831
20500W        W79596  34.377  12.352  11.589
20501W        W79597  38.006  42.910   0.929
20502W        W79598  34.596   7.389  11.427
20503W        W79599  18.752  15.177   3.215
20504W        W79600   3.385   3.350  11.965
20505W        W79601  34.924  36.376  14.784
20506W        W79602   8.258  16.573   3.178
20507W        W79603  37.403  19.060  13.026
20508W        W79604  15.118   0.297  10.621
20509W        W79605  12.241  35.415  12.063
20510W        W79606  39.991  40.908  14.020
20511W        W79607  27.030  36.406   0.328
20512W        W79608  39.397   3.288   4.149
20513W        W79609  13.223  15.657  13.466
20514W        W79610  44.466  15.154   1.449
20515W        W79611  18.179  24.057  12.445
20516W        W79612   6.184  17.140  13.924
20517W        W79613  38.344   8.698   0.954
20518W        W79614  13.277   3.868  12.859
20519W        W79615  26.495  33.410   0.323
20520W        W79616  23.713   3.710   2.886
20521W        W79617  25.062  37.491  13.396
20522W        W79618  27.592  33.977  12.488
20523W        W79619  44.370   4.728   1.918
20524W        W79620  29.076  42.853  12.510
20525W        W79621   6.355  43.440  14.874
20526W        W79622  31.896   5.773   4.638
20527W        W79623   2.874  31.442   2.818
20528W        W79624   3.835  26.082   1.397
20529W        W79625   4.353   0.490   4.676
20530W        W79626  18.741  17.595  14.386
20531W        W79627  22.109  31.001   0.406
20532W        W79628  15.682  13.326   4.208
20533W        W79629  39.445  20.690   2.210
20534W        W79630  21.719  15.721   4.192
20535W        W79631  35.532  32.922   2.882
20536W        W79632  11.313  16.230   1.867
20537W        W79633  19.646  44.321   0.428
20538W        W79634  24.641  35.571  11.916
20539W        W79635  33.915  44.963  11.561
20540W        W79636   2.767  16.248   4.680
20541W        W79637  15.807  16.318   9.966
20542W        W79638  42.468  27.941   3.782
20543W        W79639  20.165  36.575  12.093
20544W        W79640   6.807   2.321   1.315
20545W        W79641  16.191  29.504  13.991
20546W        W79642  17.279  35.363   4.646
20547W        W79643  17.564  37.858   0.254
20548W        W79644  35.437  15.686   0.851
20549W        W79645   1.402  27.948  14.320
20550W        W79646  24.575  41.812   3.666
20551W        W79647  26.498  35.871  14.396
20552W        W79648  32.409  23.996   2.327
20553W        W79649  30.066  22.668   3.221
20554W        W79650  39.990  35.425   3.326
20555W        W79651  22.194  38.335   1.874
20556W        W79652   2.737  19.086  14.029
20557W        W79653  39.001   9.253  11.857
20558W        W79654  24.590  28.546   0.801
20559W        W79655  33.620  43.332  14.804
20560W        W79656  15.773  17.159  14.842
20561W        W79657  22.154   4.283  12.068
20562W        W79658  23.046  13.149  13.033
20563W        W79659  44.289   4.868  10.498
20564W        W79660  16.604  40.924  14.947
20565W        W79661  15.245   0.492  12.366
20566W        W79662   1.280  25.979   2.834
20567W        W79663  29.080  25.084   1.777
20568W        W79664   2.815   8.174  12.001
20569W        W79665  36.943  15.194  11.069
20570W        W79666  41.889  35.914   0.927
20571W        W79667  31.513  23.563   1.235
20572W        W79668  40.003   5.784   1.390
20573W        W79669   2.723   9.298   3.724
20574W        W79670  14.229  37.920   4.208
20575W        W79671  38.842   2.429   0.448
20576W        W79672  25.491  21.567   9.582
20577W        W79673  31.610  13.845   3.155
20578W        W79674  18.628   6.911  12.476
20579W        W79675  26.960  10.261  12.082
20580W        W79676   3.452  28.106   1.771
20581W        W79677  16.793  10.184   1.816
20582W        W79678  13.708   7.811   2.257
20583W        W79679  38.884  31.046  12.506
20584W        W79680  30.639  29.015   3.695
20585W        W79681   0.862  44.811   2.409
20586W        W79682  38.914   9.797  12.423
20587W        W79683  44.858  29.925   2.671
20588W        W79684  34.946  36.988  14.312
20589W        W79685  28.604  35.439  11.452
20590W        W79686  10.826   2.303   1.291
20591W        W79687  44.008  12.801  13.846
20592W        W79688  31.997  17.585   3.818
20593W        W79689  14.602  43.875  11.932
20594W        W79690  42.381  43.925  12.493
20595W        W79691  35.066  37.064   3.207
20596W        W79692  35.501  42.350  14.954
20597W        W79693  21.538  38.452  11.483
20598W        W79694  41.446  44.463  11.425
20599W        W79695   8.898  29.096   3.286
20600W        W79696  25.574  39.425  14.393
20601W        W79697  30.440  30.618   3.311
20602W        W79698  36.409  33.085   1.805
20603W        W79699  20.053  35.498  12.349
20604W        W79700  44.796  43.429   1.384
20605W        W79701   9.764  40.313   3.307
20606W        W79702   9.671  28.677   0.276
20607W        W79703  42.503  15.329  13.339
20608W        W79704  14.286  15.649  14.989
20609W        W79705   0.451  32.392  13.946
20610W        W79706   5.843  43.454   3.698
20611W        W79707  12.289   4.449  14.285
20612W        W79708  41.509   3.316   4.760
20613W        W79709  23.553  19.749  11.531
20614W        W79710   0.318  23.637   3.287
20615W        W79711  29.031  44.767   2.306
20616W        W79712   0.983  20.730   9.963
20617W        W79713   1.766   7.377  13.872
20618W        W79714  29.634  42.492  13.810
20619W        W79715  28.093  18.155  12.038
20620W        W79716  35.061  18.232   0.862
20621W        W79717   8.726   7.252   0.822
20622W        W79718  13.157  27.170   2.708
20623W        W79719  30.020  17.305   3.230
20624W        W79720  34.929   9.295  12.073
20625W        W79721  33.454  17.558   4.339
20626W        W79722  39.990   1.257   0.283
20627W        W79723   0.382  30.121   4.261
20628W        W79724  21.756  28.038   3.352
20629W        W79725  25.623  15.814  11.011
20630W        W79726  42.497  28.969   1.406
20631W        W79727  39.973  23.088   2.797
20632W        W79728  26.034   4.849  10.406
20633W        W79729   6.243  34.575   2.881
20634W        W79730  40.439  10.709   2.192
20635W        W79731  41.889   6.839   1.720
20636W        W79732   3.222  31.478  14.865
20637W        W79733  26.677  25.181   0.864
20638W        W79734  21.685  41.454   3.171
20639W        W79735  33.478  12.712  14.465
20640W        W79736  22.676   6.423   0.332
20641W        W79737  12.283  41.365  10.627
20642W        W79738  28.123  16.757   0.343
20643W        W79739  28.955  12.856   3.681
20644W        W79740  24.588  40.384   2.854
20645W        W79741  28.020  39.355   3.814
20646W        W79742  32.104  14.679  11.597
20647W        W79743   5.338  32.049  14.835
20648W        W79744  28.073   8.824   0.923
20649W        W79745   2.308  25.150  10.619
20650W        W79746  37.468  11.177   9.990
20651W        W79747   2.359  32.585   1.303
20652W        W79748   0.749  18.295   2.347
20653W        W79749  34.932  11.176   1.863
20654W        W79750  39.406  18.120  12.095
20655W        W79751   7.409  37.410  10.929
20656W        W79752  14.288  10.153  13.820
20657W        W79753  15.141  10.294   1.783
20658W        W79754  11.796  37.504   3.249
20659W        W79755   9.689  24.507   3.307
20660W        W79756  43.421  40.893  14.973
20661W        W79757  34.502  31.956   3.646
20662W        W79758   2.837  38.353   1.714
20663W        W79759  26.161  28.650   2.194
20664W        W79760  30.078  42.869   1.390
20665W        W79761  13.793  32.572   0.943
20666W        W79762  38.843  13.754   1.740
20667W        W79763   2.863  20.239   4.353
20668W        W79764  30.503   7.299   0.793
20669W        W79765  23.007   7.251   0.756
20670W        W79766  30.447  40.399   1.741
20671W        W79767   0.461  32.597  14.480
20672W        W79768  16.732  18.726   4.163
20673W        W79769  11.690  35.514   2.209
20674W        W79770   9.177  13.638  13.864
20675W        W79771  44.414  38.450   4.162
20676W        W79772   5.202  15.744  10.017
20677W        W79773   4.215  28.957   0.952
20678W        W79774   7.829  36.491  10.905
20679W        W79775  41.538  13.796  11.984
20680W        W79776   6.413   5.894  14.023
20681W        W79777  35.501  10.703  14.332
20682W        W79778  26.646  31.539  12.504
20683W        W79779  41.795  22.537   3.187
20684W        W79780  26.670  23.597   3.760
20685W        W79781  16.267  16.766  11.423
20686W        W79782  16.621  29.540  10.974
20687W        W79783  41.372  11.642  14.799
20688W        W79784   4.438  44.892   2.245
20689W        W79785  17.767  39.376   0.770
20690W        W79786  36.445  35.482  14.772
20691W        W79787   7.404  38.538  11.539
20692W        W79788  23.728  24.506  10.986
20693W        W79789  37.925  21.164  10.065
20694W        W79790   5.845   9.844   3.358
20695W        W79791  11.651  20.100   2.868
20696W        W79792  12.766  27.962   5.118
20697W        W79793  19.116  21.581  12.470
20698W        W79794  31.061  28.951   1.242
20699W        W79795  30.475  30.908   1.908
20700W        W79796   2.809  43.802  11.458
20701W        W79797  39.868  43.014  12.474
20702W        W79798  36.008  29.454   1.370
20703W        W79799  28.022  36.569   1.320
20704W        W79800   5.197  43.466  12.937
20705W        W79801  26.117  29.520  13.023
20706W        W79802  43.021  10.284  12.890
20707W        W79803  20.535  37.852   3.359
20708W        W79804   2.424   2.236   3.362
20709W        W79805   2.930  11.281  10.547
20710W        W79806  40.866  31.056  12.092
20711W        W79807  13.649  28.141  10.524
20712W        W79808  28.627  32.077   2.282
20713W        W79809  40.834  36.998   0.948
20714W        W79810   1.826  19.548  12.893
20715W        W79811  43.852  13.147  12.523
20716W        W79812  12.182   0.458  10.615
20717W        W79813  14.808   9.260   3.780
20718W        W79814   8.395  34.368   4.818
20719W        W79815   9.679   0.789  13.313
20720W        W79816  43.470  35.910  13.807
20721W        W79817  31.524  40.836  11.553
20722W        W79818   1.774   9.217  11.946
20723W        W79819   0.314  20.169  14.959
20724W        W79820  27.970  44.777  13.528
20725W        W79821  31.999  21.214  13.433
20726W        W79822  13.138  38.328  14.394
20727W        W79823   4.374  39.323  14.928
20728W        W79824  34.926  41.902  12.922
20729W        W79825  21.571  40.979   4.153
20730W        W79826  26.100  41.337   0.423
20731W        W79827  31.079  33.475   1.755
20732W        W79828   5.301  35.893  10.436
20733W        W79829  36.870   9.803   0.269
20734W        W79830  18.214  24.034  12.900
20735W        W79831  35.483  35.003  14.918
20736W        W79832  40.814  36.027   1.335
20737W        W79833   2.256  16.596   4.343
20738W        W79834  11.701  30.575   5.229
20739W        W79835   7.843   6.300  11.513
20740W        W79836   8.767  24.519  11.520
20741W        W79837  40.055  24.027  14.797
20742W        W79838  26.055  38.895   1.308
20743W        W79839   0.852  10.180  10.529
20744W        W79840  12.692   5.900  14.909
20745W        W79841   1.462  24.690   0.827
20746W        W79842  36.376  24.229  13.334
20747W        W79843  30.630  36.487   0.746
20748W        W79844   5.415   4.334   4.293
20749W        W79845  34.456  42.464   2.790
20750W        W79846  30.915   1.308  11.121
20751W        W79847  38.043  27.972  11.118
20752W        W79848  41.302  35.525   1.703
20753W        W79849   5.879  41.487  10.447
20754W        W79850  41.349   3.240  13.041
20755W        W79851   7.837  41.435  13.476
20756W        W79852  14.334  38.507  14.297
20757W        W79853  14.751  23.653  12.514
20758W        W79854   2.262  12.221   4.735
20759W        W79855   5.409  43.286   1.934
20760W        W79856   5.379  21.205   2.235
20761W        W79857  22.063  16.752   2.374
20762W        W79858  24.026  40.931  10.462
20763W        W79859   0.891  37.505  14.278
20764W        W79860   3.323  27.160  11.526
20765W        W79861   4.891   0.372  13.010
20766W        W79862  23.035  37.949  12.971
20767W        W79863   1.782   1.269  11.932
20768W        W79864   8.828  40.385  11.952
20769W        W79865   1.336  11.658   0.367
20770W        W79866  33.043  13.262   2.260
20771W        W79867   6.300  42.514  11.596
20772W        W79868   9.364  29.522   3.855
20773W        W79869  13.222  44.303  11.413
20774W        W79870  22.604  42.899   5.116
20775W        W79871  41.894  43.495   3.304
20776W        W79872  24.722  39.817  12.512
20777W        W79873  41.984  29.435   2.379
20778W        W79874   1.277  21.632   0.435
20779W        W79875  37.002  38.501  11.946
20780W        W79876  21.050  22.090  14.953
20781W        W79877  19.683  12.304   3.630
20782W        W79878  31.897  41.531   2.369
20783W        W79879  26.056   8.217  14.844
20784W        W79880  29.986  16.154   5.706
20785W        W79881  28.947  29.529   3.216
20786W        W79882  15.606  12.847   0.858
20787W        W79883  12.793   0.461  14.452
20788W        W79884  34.902  31.912   0.737
20789W        W79885  27.977   2.962   3.296
20790W        W79886   7.334  21.704   3.756
20791W        W79887  15.316  28.179   3.742
20792W        W79888  38.981   4.928  14.462
20793W        W79889  21.074  11.786   5.119
20794W        W79890   3.383  36.433  12.998
20795W        W79891  14.225   8.721  11.076
20796W        W79892  25.122  20.152   0.823
20797W        W79893  32.101  22.731   9.575
20798W        W79894  42.309  37.868  11.044
20799W        W79895  33.525  23.526   2.221
20800W        W79896  29.936  43.796   4.266
20801W        W79897  16.770  21.589   3.658
20802W        W79898   9.819  32.999  13.051
20803W        W79899  10.859   0.329  12.496
20804W        W79900   8.877  15.130  12.896
20805W        W79901  27.959  21.084   3.347
20806W        W79902  23.037  43.973   4.759
20807W        W79903  11.862  18.170   3.235
20808W        W79904  16.198  13.139   2.828
20809W        W79905   4.764  35.864  10.576
20810W        W79906  16.086  41.830   1.814
20811W        W79907  10.200   6.361   1.917
20812W        W79908  18.143   2.818   0.284
20813W        W79909  14.686  29.615   2.269
20814W        W79910  19.113   3.449   0.385
20815W        W79911  32.614   9.169   3.700
20816W        W79912  36.083  21.037   4.614
20817W        W79913   3.316  22.659  10.469
20818W        W79914  39.860   8.741  10.515
20819W        W79915  19.246  23.090   1.785
20820W        W79916  16.229  41.521  11.033
20821W        W79917  22.552   7.260   0.361
20822W        W79918  25.080  16.805   3.162
20823W        W79919  10.706  32.991   4.306
20824W        W79920  28.532   7.237   1.331
20825W        W79921  19.261  20.669  10.954
20826W        W79922  14.154  25.216  14.849
20827W        W79923  44.933  18.581   2.754
20828W        W79924  17.116  30.457  12.865
20829W        W79925  13.826   4.742   4.693
20830W        W79926  14.744  36.996   0.776
20831W        W79927  32.893   5.763   2.310
20832W        W79928  30.498  25.154   0.402
20833W        W79929  16.220  39.542   0.417
20834W        W79930  11.312  36.890  10.444
20835W        W79931  14.290  41.409  12.941
20836W        W79932  20.544  23.535   4.799
20837W        W79933  15.157   5.349   1.743
20838W        W79934  23.515   4.698   2.340
20839W        W79935  31.602  18.079  12.089
20840W        W79936  16.152  23.134   2.758
20841W        W79937   5.749   6.401   0.947
20842W        W79938  32.966   9.213   2.848
20843W        W79939  10.851  39.850  10.952
20844W        W79940  12.176   2.859  10.595
20845W        W79941  13.316   9.172   3.683
20846W        W79942  24.701  11.705   0.805
20847W        W79943  16.573  31.542   2.850
20848W        W79944  38.529  23.580   3.698
20849W        W79945  33.429  38.969   3.771
20850W        W79946  26.971   7.320  13.030
20851W        W79947  10.192  42.366  12.467
20852W        W79948  38.993  29.054   2.223
20853W        W79949  11.207  27.547  14.431
20854W        W79950  21.572  18.677   0.353
20855W        W79951  20.732  41.311   4.314
20856W        W79952   0.479  44.835  12.978
20857W        W79953   8.312  31.068   0.739
20858W        W79954   7.178  40.334   2.328
20859W        W79955  43.800   4.266   3.780
20860W        W79956  21.713  40.852   2.705
20861W        W79957   8.843   8.363  13.433
20862W        W79958  30.445  31.521   2.282
20863W        W79959  23.493  42.336   2.383
20864W        W79960  20.663  25.120  11.051
20865W        W79961  39.430  19.620   3.815
20866W        W79962  27.136  13.778  10.630
20867W        W79963  33.950  16.675   5.309
20868W        W79964  32.970  42.931   3.357
20869W        W79965  37.900  43.817   2.332
20870W        W79966  22.662  44.950  12.475
20871W        W79967  16.589   8.260   3.347
20872W        W79968  42.380   2.369   0.477
20873W        W79969   5.769   3.372   0.954
20874W        W79970   7.721  43.503  10.568
20875W        W79971  25.669  10.156  12.564
20876W        W79972  22.151  15.155   0.442
20877W        W79973  32.063  25.596   3.224
20878W        W79974  41.984  24.148  10.044
20879W        W79975  20.626  16.287  13.998
20880W        W79976  15.607  35.532   1.311
20881W        W79977   7.378  39.338   1.731
20882W        W79978  16.633  34.442  13.819
20883W        W79979   8.234  36.891   3.251
20884W        W79980  39.854  36.475  14.515
20885W        W79981  33.947  34.429   3.386
20886W        W79982  18.603   6.769  14.904
20887W        W79983  28.597  15.303   3.809
20888W        W79984  15.584   0.426   2.207
20889W        W79985  40.914  18.697   3.733
20890W        W79986  34.437  33.978   2.413
20891W        W79987  23.551  17.765  13.927
20892W        W79988  15.622  27.593  13.336
20893W        W79989  27.617  40.031  14.822
20894W        W79990  34.570  40.904   3.639
20895W        W79991  22.542  40.364   3.172
20896W        W79992  21.089  27.500   0.734
20897W        W79993  40.316  28.580   4.194
20898W        W79994  22.566  10.328   1.883
20899W        W79995  29.480  37.940   4.157
20900W        W79996  16.717  21.651  10.530
20901W        W79997   1.733  30.938   1.911
20902W        W79998   6.807  16.691  14.488
20903W        W79999   6.726  11.159  10.595
20904W        W80000  42.376  12.727  12.418
20905W        W80001  22.535  27.019   3.674
20906W        W80002  32.080   3.740   0.918
20907W        W80003   5.376  11.225   0.924
20908W        W80004  20.751  29.636  13.889
20909W        W80005   8.266  10.260  12.035
20910W        W80006  27.492  26.177   0.914
20911W        W80007  18.620  29.546  10.624
20912W        W80008  24.121  11.133  12.945
20913W        W80009  20.171  36.572   0.904
20914W        W80010  21.017   1.778   1.316
20915W        W80011  42.941  22.735   1.399
20916W        W80012  43.943  41.501  11.900
20917W        W80013  20.227   8.738   3.166
20918W        W80014  17.116  24.074   5.166
20919W        W80015  14.232  34.995  14.946
20920W        W80016  17.112  24.036  14.910
20921W        W80017  10.342  17.198   4.703
20922W        W80018  32.613  24.225  13.372
20923W        W80019  11.131   1.810  10.642
20924W        W80020  35.376  34.869  11.559
20925W        W80021  26.575  26.665   2.186
20926W        W80022   3.437  14.630  10.965
20927W        W80023  29.037  41.892   3.849
20928W        W80024  42.006   7.765  11.582
20929W        W80025  44.812  34.110  13.323
20930W        W80026  20.149   0.480   0.468
20931W        W80027   1.341  42.474   3.225
20932W        W80028   7.775  17.150  10.118
20933W        W80029  18.182  23.206  10.428
20934W        W80030   0.394  18.553  10.896
20935W        W80031   7.265   3.246  13.894
20936W        W80032   4.782  43.501  14.768
20937W        W80033  38.829   1.428   2.785
20938W        W80034  21.180  26.577   3.776
20939W        W80035  44.281  16.227  11.950
20940W        W80036   4.394  33.999  13.934
20941W        W80037  13.272   0.766  10.585
20942W        W80038  43.896  24.019   0.414
20943W        W80039  14.655   9.800  14.357
20944W        W80040  32.581  28.639  10.956
20945W        W80041  30.434  33.531  12.907
20946W        W80042  40.485  15.159   3.329
20947W        W80043   7.826  29.580   1.280
20948W        W80044  27.493   9.734   3.866
20949W        W80045  10.316  36.941  11.491
20950W        W80046   0.270  43.328   4.654
20951W        W80047   7.275  35.452   1.875
20952W        W80048  18.096  43.497   1.753
20953W        W80049  43.899  12.691   0.348
20954W        W80050  33.404  38.937  11.065
20955W        W80051  34.102  33.994  13.888
20956W        W80052  17.674   1.255   0.482
20957W        W80053  40.825  29.632  14.909
20958W        W80054  38.069  30.419  13.801
20959W        W80055  12.792  40.406  14.337
20960W        W80056  19.539  18.270  10.927
20961W        W80057  32.438   9.692   1.377
20962W        W80058  34.535  42.013  13.060
20963W        W80059  21.711  14.597  11.457
20964W        W80060  27.956  27.141  14.951
20965W        W80061   7.760  27.590   5.658
20966W        W80062   8.279  29.105   3.684
20967W        W80063  37.497  36.852  13.520
20968W        W80064   6.754  22.031  11.911
20969W        W80065  14.283  41.828  12.414
20970W        W80066   1.733  39.867   0.424
20971W        W80067  21.692  26.633   1.329
20972W        W80068  32.458   9.177   0.934
20973W        W80069  40.031   7.232   0.751
20974W        W80070  14.097  44.941   0.312
20975W        W80071  30.635   6.812  10.489
20976W        W80072  15.203   1.310  11.600
20977W        W80073  15.328  23.496  13.471
20978W        W80074  33.458  37.370   0.472
20979W        W80075  32.947  23.527  11.573
20980W        W80076  42.470   7.801  10.553
20981W        W80077  14.227   6.197  12.395
20982W        W80078  41.387  11.813   1.872
20983W        W80079   4.231  13.680   3.199
20984W        W80080  36.584  22.696   5.082
20985W        W80081   7.867   1.749  12.948
20986W        W80082  13.646  44.451  14.770
20987W        W80083  41.535  23.695  13.803
20988W        W80084  31.474  43.972   0.466
20989W        W80085  43.918  25.675   2.674
20990W        W80086  40.006  28.442   1.295
20991W        W80087  44.821  32.405  10.603
20992W        W80088  31.435  16.683   0.789
20993W        W80089  27.105  36.074   2.337
20994W        W80090   8.223  17.790   3.304
20995W        W80091  20.621  27.127   3.855
20996W        W80092   6.851   0.456  11.507
20997W        W80093  23.603   2.796  13.432
20998W        W80094  23.081  18.738   1.443
20999W        W80095   9.351  11.197  10.586
21000W        W80096  31.488  20.683   1.431
21001W        W80097  22.186  20.239  14.863
21002W        W80098  43.484   2.425  11.094
21003W        W80099  32.487  38.446  14.877
21004W        W80100  11.709   3.461   2.264
21005W        W80101  21.601  20.165  12.388
21006W        W80102  27.969  19.776   9.924
21007W        W80103  14.158  38.386  13.309
21008W        W80104  13.705  14.791  14.838
21009W        W80105  28.056  28.554  10.581
21010W        W80106  13.327   2.344   0.454
21011W        W80107   6.253  19.165   4.317
21012W        W80108   4.921  20.552  14.973
21013W        W80109  18.600  13.791  11.535
21014W        W80110  30.425  17.241  12.383
21015W        W80111   1.828  43.514   0.440
21016W        W80112  40.312  32.923  14.299
21017W        W80113  25.079  42.851  14.392
21018W        W80114  31.949  35.383  11.964
21019W        W80115   0.771  37.916   1.258
21020W        W80116  16.621  25.129  14.490
21021W        W80117  40.347  15.723   1.443
21022W        W80118  36.436  40.831   3.712
21023W        W80119  22.678  19.636   4.291
21024W        W80120  20.039   5.768  12.883
21025W        W80121  39.319   3.223   2.399
21026W        W80122   9.703   0.291  14.915
21027W        W80123   6.251  42.512   1.753
21028W        W80124  35.042  22.111   2.203
21029W        W80125  15.160  22.551  10.617
21030W        W80126  37.348   8.833   1.225
21031W        W80127  30.416  39.382   2.374
21032W        W80128  18.087   7.398   1.292
21033W        W80129  37.361  42.502  14.955
21034W        W80130  20.173  16.298   2.344
21035W        W80131  43.483   7.387  13.995
21036W        W80132   8.770  27.624   0.829
21037W        W80133  32.535  11.669   3.207
21038W        W80134  35.006  34.414   3.769
21039W        W80135  31.130  18.665  13.417
21040W        W80136  38.478  12.736  14.511
21041W        W80137   2.338  44.305   2.273
21042W        W80138  11.217   3.442  14.858
21043W        W80139   1.361  42.324  10.577
21044W        W80140  44.762  19.737   5.293
21045W        W80141  12.303  26.048  12.920
21046W        W80142  15.135   5.803  11.026
21047W        W80143  17.746  23.149   0.790
21048W        W80144   0.376   3.797   1.429
21049W        W80145  37.453  16.599  11.001
21050W        W80146  19.710  25.520  10.978
21051W        W80147   9.170  43.979   2.375
21052W        W80148  22.689   1.870  13.969
21053W        W80149  43.867  26.996  14.282
21054W        W80150  27.573  41.298   3.705
21055W        W80151   1.309  19.555  13.341
21056W        W80152  17.157  42.355   0.323
21057W        W80153  21.142  39.901  13.843
21058W        W80154  31.567  19.048   2.396
21059W        W80155  21.611   2.389   1.755
21060W        W80156  30.938  27.475  12.935
21061W        W80157   1.951   1.411   4.346
21062W        W80158   3.259  11.371  11.560
21063W        W80159  29.035   8.860  10.420
21064W        W80160  34.889   8.815  14.967
21065W        W80161   3.876  41.514   3.238
21066W        W80162   1.320  26.524  12.056
21067W        W80163  29.464   3.350   3.797
21068W        W80164  29.106  23.005  11.408
21069W        W80165  24.219  17.080  12.463
21070W        W80166  39.432  20.229   3.713
21071W        W80167  20.709  25.482   2.334
21072W        W80168   9.745  33.483   3.299
21073W        W80169  10.792  20.227  11.394
21074W        W80170  22.130  22.604  13.541
21075W        W80171  22.665   2.288   0.812
21076W        W80172   6.403  40.390  13.955
21077W        W80173  20.684  15.165   1.225
21078W        W80174  35.399   9.245  14.816
21079W        W80175  43.939  43.354   4.134
21080W        W80176  44.452  38.872   3.735
21081W        W80177  34.083  29.502   4.753
21082W        W80178  26.631  26.611   0.894
21083W        W80179  44.833  33.489  11.976
21084W        W80180  40.947  37.868  11.107
21085W        W80181   3.927  23.004   5.089
21086W        W80182  36.369  43.958   4.261
21087W        W80183  44.287   0.777   4.222
21088W        W80184  38.929  28.629   0.463
21089W        W80185  41.790  35.594   0.419
21090W        W80186   7.291   2.899   2.732
21091W        W80187  41.994  25.575  12.066
21092W        W80188   4.271  30.907   3.167
21093W        W80189  42.312  41.993  12.945
21094W        W80190   7.667  23.216  12.464
21095W        W80191   3.729  43.392  10.419
21096W        W80192  42.979   6.339  14.291
21097W        W80193  32.416  16.674   3.261
21098W        W80194  27.611  12.654   3.732
21099W        W80195  29.050  34.572  11.510
21100W        W80196  31.907  18.745   3.354
21101W        W80197  30.006   1.758   4.274
21102W        W80198  16.735   7.728  10.442
21103W        W80199  43.492  30.500  14.324
21104W        W80200  21.699  16.227  11.893
21105W        W80201  44.760   4.807  11.921
21106W        W80202  26.598  27.173   1.419
21107W        W80203  27.478  13.661   4.698
21108W        W80204  42.443  36.380   2.775
21109W        W80205  10.219  19.628  11.489
21110W        W80206  20.589   2.857   1.382
21111W        W80207  40.411  15.806  13.945
21112W        W80208   5.309  16.234  12.417
21113W        W80209   9.331  41.027  11.542
21114W        W80210  10.861   5.371   0.264
21115W        W80211   4.705   7.244   1.929
21116W        W80212   8.765  41.431   0.870
21117W        W80213  38.436  13.186  13.993
21118W        W80214  40.825   2.921  11.110
21119W        W80215  34.603   7.683  11.019
21120W        W80216   0.321  20.185   0.747
21121W        W80217   2.764  39.816   3.748
21122W        W80218  12.246  28.072   2.693
21123W        W80219   0.404  15.089   3.222
21124W        W80220  20.598   1.439  10.626
21125W        W80221  22.619   5.906   3.245
21126W        W80222  18.700  10.381  13.939
21127W        W80223  28.111  25.140  13.445
21128W        W80224  42.870  12.615   3.658
21129W        W80225   0.844  32.596   0.907
21130W        W80226  22.661  14.810   3.671
21131W        W80227  17.289  43.019  14.430
21132W        W80228  27.072  20.062   0.735
21133W        W80229  26.540  42.403   0.336
21134W        W80230  43.320   1.457  13.408
21135W        W80231  16.652  10.336   1.346
21136W        W80232  17.748   4.795  13.835
21137W        W80233  12.719  24.097   4.750
21138W        W80234  27.043   7.311   3.766
21139W        W80235  16.093  15.793  14.886
21140W        W80236  16.249   9.693  11.100
21141W        W80237  41.320   6.876  14.339
21142W        W80238  25.620  33.059  14.498
21143W        W80239   5.782  15.253  13.521
21144W        W80240  29.037  18.689   3.768
21145W        W80241  24.624   1.241  12.518
21146W        W80242   8.814  28.126  10.890
21147W        W80243  44.292  41.300   4.810
21148W        W80244   4.898  21.710  13.838
21149W        W80245   7.343  14.243   2.776
21150W        W80246   8.848  12.263   1.262
21151W        W80247  24.978  39.814   1.309
21152W        W80248  44.299  17.275  11.000
21153W        W80249   8.191   7.293   2.339
21154W        W80250   5.409  16.749   3.764
21155W        W80251  11.656  13.327  14.349
21156W        W80252  25.010  43.825  12.921
21157W        W80253  17.173  10.833   5.684
21158W        W80254  44.925  22.137   1.324
21159W        W80255  33.584  43.837  14.980
21160W        W80256  29.953  16.806  14.915
21161W        W80257  33.888  33.488   4.224
21162W        W80258  29.926  15.712  13.029
21163W        W80259   9.268  37.483  10.959
21164W        W80260  34.556  21.693   4.822
21165W        W80261  40.982  33.126   2.841
21166W        W80262  14.603   7.207  13.462
21167W        W80263  26.701  31.005   2.729
21168W        W80264  37.012  19.140  12.864
21169W        W80265  37.027  22.181   4.313
21170W        W80266  11.143  28.485   5.192
21171W        W80267  40.513   0.430  10.969
21172W        W80268  27.162   6.299  12.841
21173W        W80269  10.674   1.276  13.796
21174W        W80270   2.464  35.584   1.788
21175W        W80271  25.103   3.903   4.706
21176W        W80272   1.471  30.141  12.848
21177W        W80273  16.185  13.110  14.877
21178W        W80274  36.469   5.855  13.441
21179W        W80275   5.422   4.268  12.500
21180W        W80276  20.234  25.482   0.247
21181W        W80277  19.594  20.660   2.233
21182W        W80278  11.372  34.467  13.989
21183W        W80279  37.869  44.270  13.833
21184W        W80280  28.664   2.814  11.436
21185W        W80281   9.394  13.189   3.791
21186W        W80282  28.931  40.436   2.806
21187W        W80283  24.601  22.025  14.782
21188W        W80284  24.566  24.558  11.946
21189W        W80285  41.465  17.261   1.248
21190W        W80286  22.999  44.463   0.942
21191W        W80287   4.762  22.558   0.359
21192W        W80288   4.230  33.619   4.814
21193W        W80289  16.773  17.628  14.765
21194W        W80290  33.570  17.757   2.773
21195W        W80291  18.548   8.216   1.794
21196W        W80292  30.461  13.643   0.874
21197W        W80293  39.884  33.005  13.992
21198W        W80294  26.574   3.810   0.412
21199W        W80295   6.790  27.672  10.566
21200W        W80296  40.311  32.110   1.445
21201W        W80297   9.362  23.164   9.612
21202W        W80298   8.238  24.545   2.283
21203W        W80299   2.868  19.244   1.903
21204W        W80300  16.676  19.184  13.005
21205W        W80301  43.882  35.567  12.055
21206W        W80302   2.274  38.871  12.416
21207W        W80303  39.441  44.986   1.322
21208W        W80304  18.607  21.617  13.892
21209W        W80305   7.306  44.845   2.182
21210W        W80306  12.758  26.147  14.279
21211W        W80307  34.438  21.627  12.976
21212W        W80308  18.604  30.459   4.345
21213W        W80309  12.116  38.354  10.608
21214W        W80310  21.229  36.591   0.357
21215W        W80311   7.352  35.106  12.843
21216W        W80312   4.756  40.943  13.809
21217W        W80313  41.320  20.666   3.667
21218W        W80314  35.917  37.966  13.029
21219W        W80315  37.021  39.938  12.960
21220W        W80316  43.857   3.264   2.203
21221W        W80317  44.780  35.400   1.281
21222W        W80318  25.024  29.115   1.877
21223W        W80319  20.665  16.112  14.429
21224W        W80320  32.495  11.694   4.747
21225W        W80321   7.412  30.658   1.794
21226W        W80322  22.180  30.581   2.314
21227W        W80323  17.217   9.355   0.264
21228W        W80324  32.585   0.969   1.297
21229W        W80325  19.230  25.107  14.368
21230W        W80326  26.494  10.878  10.637
21231W        W80327  22.235   2.814   2.823
21232W        W80328  42.803  44.355   4.651
21233W        W80329  37.553  20.656  14.289
21234W        W80330  13.164  32.611  10.011
21235W        W80331  20.173  41.300  12.877
21236W        W80332  10.787  38.076   1.788
21237W        W80333   1.763  16.739   3.222
21238W        W80334   5.235   0.917  14.829
21239W        W80335  39.008  34.935   3.862
21240W        W80336   6.190  15.703   1.345
21241W        W80337  43.407  34.025   1.908
21242W        W80338  25.703  27.451   3.202
21243W        W80339  26.977  43.879   2.374
21244W        W80340  27.974  34.518   9.569
21245W        W80341  38.001  12.117  10.102
21246W        W80342   8.817  38.851  13.962
21247W        W80343  38.047   2.896   3.691
21248W        W80344   4.911  44.490   4.751
21249W        W80345  44.859  43.945  10.566
21250W        W80346  13.182  35.601  14.774
21251W        W80347  10.208   5.694   4.830
21252W        W80348  32.137  22.550  14.859
21253W        W80349  31.091  15.176  14.457
21254W        W80350   7.687  18.669  11.914
21255W        W80351  41.981  15.699  12.537
21256W        W80352  23.495  25.580  13.834
21257W        W80353  27.025   2.907   0.373
21258W        W80354  21.138   6.212  12.442
21259W        W80355  23.549  29.120  14.343
21260W        W80356  15.623   9.310  12.011
21261W        W80357   5.822   2.730   1.401
21262W        W80358   0.249  25.215  12.086
21263W        W80359  13.191  14.734  14.433
21264W        W80360  20.700  36.413   4.240
21265W        W80361  24.680  21.151   4.658
21266W        W80362  44.862   8.788   3.259
21267W        W80363  23.539  25.103  11.537
21268W        W80364   6.729  35.921   4.728
21269W        W80365  30.474  30.450   2.377
21270W        W80366  36.405   3.720  13.875
21271W        W80367   1.739   0.932  14.976
21272W        W80368  20.574  37.460   1.215
21273W        W80369  11.152  39.383   1.907
21274W        W80370  30.478  29.961   2.207
21275W        W80371   1.899   6.396   2.203
21276W        W80372  24.616  38.332   2.818
21277W        W80373  32.135   4.796  13.496
21278W        W80374  11.330  44.856  13.318
21279W        W80375  28.034  15.763  11.057
21280W        W80376  16.221  35.015  13.325
21281W        W80377  27.487  33.985  10.482
21282W        W80378  24.011  18.224   1.327
21283W        W80379  30.913  38.480   2.779
21284W        W80380  10.224  27.475   3.808
21285W        W80381  17.620  21.115  14.480
21286W        W80382  32.957  30.101  11.558
21287W        W80383  43.797  35.939  14.931
21288W        W80384  41.538  38.345   4.794
21289W        W80385   9.376  21.693   4.827
21290W        W80386  38.999  20.046   0.966
21291W        W80387   7.836  33.407  11.066
21292W        W80388  44.963  35.034   1.709
21293W        W80389  28.014  44.772   3.371
21294W        W80390   0.880  31.459  11.476
21295W        W80391   5.882  22.688   1.292
21296W        W80392  35.559  32.134  14.952
21297W        W80393  31.425  11.188  10.416
21298W        W80394  23.136  31.111  10.585
21299W        W80395   9.322  13.325   4.230
21300W        W80396  20.523  43.293   0.887
21301W        W80397  38.961  25.048   4.253
21302W        W80398  19.610  35.098   0.776
21303W        W80399  24.090  27.966  10.108
21304W        W80400  25.474   2.878  14.368
21305W        W80401   6.877  21.715  10.959
21306W        W80402  44.768  34.376   4.658
21307W        W80403  32.988   4.320   1.757
21308W        W80404  13.129   3.791  14.457
21309W        W80405  35.979   3.235  10.569
21310W        W80406  40.414  13.713   0.859
21311W        W80407  32.912   3.828   4.697
21312W        W80408  23.097   7.678  13.341
21313W        W80409  23.711  40.453   3.188
21314W        W80410  37.918  41.302  12.954
21315W        W80411   9.351   2.262  13.325
21316W        W80412  35.020   0.419   2.880
21317W        W80413  21.543  42.891  10.505
21318W        W80414   9.187  37.435   1.353
21319W        W80415  35.070  32.575   3.657
21320W        W80416  18.764  27.499  11.011
21321W        W80417   1.896  12.795  12.930
21322W        W80418  29.607  33.104  11.606
21323W        W80419  31.447  39.408   1.820
21324W        W80420   1.391  17.251   3.349
21325W        W80421  20.555  40.983   1.318
21326W        W80422  11.208  13.674   3.857
21327W        W80423  20.597   8.404  11.044
21328W        W80424  26.494  38.915   0.790
21329W        W80425  11.191   1.749   0.898
21330W        W80426  36.910  35.414  13.905
21331W        W80427  39.044   3.863  12.542
21332W        W80428  26.063  28.597  14.910
21333W        W80429  12.656   9.826  13.061
21334W        W80430  38.486  18.757   4.827
21335W        W80431  20.274  20.528  13.859
21336W        W80432   3.404  39.051  14.281
21337W        W80433  32.069  26.161  11.542
21338W        W80434  10.648  43.391  14.331
21339W        W80435  16.605  31.617   0.917
21340W        W80436  13.349  10.691   2.189
21341W        W80437  21.522  41.533  12.434
21342W        W80438  10.847  18.555   5.101
21343W        W80439  10.785  11.856   2.300
21344W        W80440  28.101   2.230   0.888
21345W        W80441  43.973  28.611  11.899
21346W        W80442   1.944  43.295  12.059
21347W        W80443  40.938  13.115  13.950
21348W        W80444  13.643  34.118  10.505
21349W        W80445  11.176  32.440  11.947
21350W        W80446  40.969  31.027  11.540
21351W        W80447  33.124  31.901   1.332
21352W        W80448   7.194  35.926  13.925
21353W        W80449  38.028   1.436  14.431
21354W        W80450  25.204   2.750  13.344
21355W        W80451  19.110  36.429   0.897
21356W        W80452   0.920  31.032  14.828
21357W        W80453  25.044  34.975   9.566
21358W        W80454  25.988  42.404   4.300
21359W        W80455  42.306   1.255  12.518
21360W        W80456  18.159  43.512   3.310
21361W        W80457  22.143  20.578   3.222
21362W        W80458  13.830  26.607   4.784
21363W        W80459  33.930  24.602  10.640
21364W        W80460  35.046   7.747  11.097
21365W        W80461  27.505  14.770   1.416
21366W        W80462  37.528  17.248  14.465
21367W        W80463  29.036  18.555  14.418
21368W        W80464  40.439  18.747   3.189
21369W        W80465   9.690  22.729  14.380
21370W        W80466  27.591   6.722   2.820
21371W        W80467  44.341  16.587   3.277
21372W        W80468   1.338  30.544  14.348
21373W        W80469  31.962  36.359  13.889
21374W        W80470   9.680  21.613   2.701
21375W        W80471   6.304  35.358   4.167
21376W        W80472   5.390   9.858   0.870
21377W        W80473  32.524  42.486  11.973
21378W        W80474  27.604  13.109   2.814
21379W        W80475  13.605  37.003  13.481
21380W        W80476  13.704  13.191  10.628
21381W        W80477   7.258  25.170  14.375
21382W        W80478   9.765  21.139  10.507
21383W        W80479  30.973  19.595   5.207
21384W        W80480  28.609  13.147  10.950
21385W        W80481  24.538  17.112   4.303
21386W        W80482  40.813  36.879  10.503
21387W        W80483  39.033  21.235   3.186
21388W        W80484  36.063  39.977  11.553
21389W        W80485  38.883  40.904  12.051
21390W        W80486  26.035  14.603  11.533
21391W        W80487   1.928  37.382   0.811
21392W        W80488  33.555  25.161  13.336
21393W        W80489  21.094   3.288   4.735
21394W        W80490  41.413  20.141   1.701
21395W        W80491   3.382  29.512   4.209
21396W        W80492   7.287  27.537   2.674
21397W        W80493  18.699  12.224   4.229
21398W        W80494  31.409  22.596  14.946
21399W        W80495  36.019   3.405   3.789
21400W        W80496  29.576   4.842  11.086
21401W        W80497   3.756  33.900  10.887
21402W        W80498  41.842   4.722   5.258
21403W        W80499  33.004   2.315   3.811
21404W        W80500   4.434  41.449   3.740
21405W        W80501  37.535  23.075   1.328
21406W        W80502  19.749  17.703   1.876
21407W        W80503  27.621   5.436  10.476
21408W        W80504  26.470  32.476  14.843
21409W        W80505  16.190  20.620   4.240
21410W        W80506  40.512  28.055   5.246
21411W        W80507  30.571  30.511  14.993
21412W        W80508   2.818   5.710   1.785
21413W        W80509   4.798   8.190  10.499
21414W        W80510  37.469  17.134   5.188
21415W        W80511  17.570  13.765  12.457
21416W        W80512   1.349  40.456  12.352
21417W        W80513  16.092  19.087   1.238
21418W        W80514  30.531  24.606   0.737
21419W        W80515  37.950  27.672  13.867
21420W        W80516   7.389  17.685   2.675
21421W        W80517   5.710  38.883  10.414
21422W        W80518  35.368  23.720   0.966
21423W        W80519  17.641   2.464  10.526
21424W        W80520  42.460   3.870   4.207
21425W        W80521  34.433  32.430  13.530
21426W        W80522  35.483  43.460  11.076
21427W        W80523  11.841  20.064  14.765
21428W        W80524  11.811  13.639  12.428
21429W        W80525  32.514  18.255  11.863
21430W        W80526  25.071  30.130  14.919
21431W        W80527  13.349   4.701  14.001
21432W        W80528   3.849  10.831  12.851
21433W        W80529  10.655  19.214   1.849
21434W        W80530  37.532   0.876  12.477
21435W        W80531  20.186  37.892  13.918
21436W        W80532   4.932  18.083  11.507
21437W        W80533  23.170   6.818   1.309
21438W        W80534  18.688  19.082   3.333
21439W        W80535  38.918  19.763  11.583
21440W        W80536  12.653  18.115   4.268
21441W        W80537  18.601   9.796   2.752
21442W        W80538  22.574  17.272  14.427
21443W        W80539   8.216  25.996  12.414
21444W        W80540  17.088  13.151   0.278
21445W        W80541  12.206  25.501   2.347
21446W        W80542  11.820  22.135  10.470
21447W        W80543  35.597  13.702  13.996
21448W        W80544  26.078  44.297  11.961
21449W        W80545   4.911  44.768   0.749
21450W        W80546  20.723  26.677  11.064
21451W        W80547  29.453   5.393  11.944
21452W        W80548   8.857  18.728   3.216
21453W        W80549  12.663  38.426  13.984
21454W        W80550  16.122  37.476   5.169
21455W        W80551   1.293  26.605  14.349
21456W        W80552   4.225  39.864   0.794
21457W        W80553  33.065  29.980  12.909
21458W        W80554  17.157  33.596  11.109
21459W        W80555  32.064   2.967   2.840
21460W        W80556  42.409  40.305   1.232
21461W        W80557  41.528   9.217   1.226
21462W        W80558  24.132  27.610   3.149
21463W        W80559  14.619  22.659  12.981
21464W        W80560  22.060   2.822  13.014
21465W        W80561  30.510  41.932   3.258
21466W        W80562  41.368  32.581   3.772
21467W        W80563  35.997  14.663  13.347
21468W        W80564  39.950  44.857   1.739
21469W        W80565  38.826  24.086   5.252
21470W        W80566   6.225  14.214  12.009
21471W        W80567   8.205  13.612   0.294
21472W        W80568  41.875  10.367  13.891
21473W        W80569  26.606  39.844  11.885
21474W        W80570  21.224  31.004   2.298
21475W        W80571  16.784  32.004   2.705
21476W        W80572  22.187  30.910   4.247
21477W        W80573  21.152  43.996  10.946
21478W        W80574  43.852   4.889  12.844
21479W        W80575  18.124  17.089  10.565
21480W        W80576  30.105  36.579  13.868
21481W        W80577  11.293  40.500  13.032
21482W        W80578   0.770  22.081   0.351
21483W        W80579   4.829  15.149   0.931
21484W        W80580  11.658   6.263  11.560
21485W        W80581  42.373  13.649   1.389
21486W        W80582  24.128  32.896   0.261
21487W        W80583  40.321  15.614  14.879
21488W        W80584   4.784  35.358  12.990
21489W        W80585   9.701   2.861   1.764
21490W        W80586  24.140  42.965  12.967
21491W        W80587  43.408  16.219  10.472
21492W        W80588  19.262  34.551   1.746
21493W        W80589  28.957  12.723   0.319
21494W        W80590   7.819  12.618  10.905
21495W        W80591  30.003  17.636  14.923
21496W        W80592  15.309   9.316  11.463
21497W        W80593  44.402  43.903  14.424
21498W        W80594  10.704  41.989   3.723
21499W        W80595  25.194  25.172   3.835
21500W        W80596  44.758  36.942  11.483
21501W        W80597  42.460  25.601   0.831
21502W        W80598  39.941  25.648   1.280
21503W        W80599  26.182  40.847   4.682
21504W        W80600   9.307  34.035  14.342
21505W        W80601   1.909  19.558   2.395
21506W        W80602  38.830  16.667  11.939
21507W        W80603  39.335   0.812   0.731
21508W        W80604   0.425  10.689  12.960
21509W        W80605  44.492  37.469  14.768
21510W        W80606   3.836  33.919   3.346
21511W        W80607   4.316  26.953   0.878
21512W        W80608  17.150   5.773   3.153
21513W        W80609   4.822  36.378   3.281
21514W        W80610  42.524   2.271  14.994
21515W        W80611  33.882  42.282   1.786
21516W        W80612  31.153   2.283   2.297
21517W        W80613  20.700   8.681   2.243
21518W        W80614  16.768  38.511  12.922
21519W        W80615  31.595  41.837  13.406
21520W        W80616  11.823  34.946  12.928
21521W        W80617   5.905  22.113   1.813
21522W        W80618  38.835   3.217   1.419
21523W        W80619  13.824  36.877  12.999
21524W        W80620  29.587  41.844  14.417
21525W        W80621  44.923  34.890  10.609
21526W        W80622  18.631  23.063   4.263
21527W        W80623   4.449   8.856  13.441
21528W        W80624   3.840  33.391   3.287
21529W        W80625  41.347  18.153  14.330
21530W        W80626  19.773  29.439   2.868
21531W        W80627  19.580   8.164  14.956
21532W        W80628  34.540  37.458  12.959
21533W        W80629  28.023   1.325  13.966
21534W        W80630  43.401  25.971  14.367
21535W        W80631  34.001   1.925  11.442
21536W        W80632   8.394   3.325  10.932
21537W        W80633  24.159  41.304  13.493
21538W        W80634   1.383   3.318   4.319
21539W        W80635  31.625  11.777  14.879
21540W        W80636  32.041  28.150   5.135
21541W        W80637  40.333  34.876  10.088
21542W        W80638   3.392   8.211   0.461
21543W        W80639  29.111   0.404  12.965
21544W        W80640  37.061   6.312  13.033
21545W        W80641  26.609  11.812  11.550
21546W        W80642   0.876  26.680  11.126
21547W        W80643  35.053  17.620  12.388
21548W        W80644  40.016  20.259   0.455
21549W        W80645   7.213   1.299   1.328
21550W        W80646  39.396  30.087  11.372
21551W        W80647  36.456  32.571   3.698
21552W        W80648  32.598  21.581  14.960
21553W        W80649  18.600  18.670  14.935
21554W        W80650  17.204  35.887   2.739
21555W        W80651  36.000  22.720  13.002
21556W        W80652  42.016   5.830   1.369
21557W        W80653  12.824   9.881  10.643
21558W        W80654  32.431  26.111   0.886
21559W        W80655  37.943  28.612   0.799
21560W        W80656  14.217  31.923  14.422
21561W        W80657  24.975  37.937   0.900
21562W        W80658  26.078   7.304  14.453
21563W        W80659  42.503   6.853   3.213
21564W        W80660  11.756  44.375   1.250
21565W        W80661  12.722  22.086   0.831
21566W        W80662  43.500  26.094  12.092
21567W        W80663  44.452   7.202  11.428
21568W        W80664   1.482   1.797  12.855
21569W        W80665   3.411   1.817   4.752
21570W        W80666  26.492  35.449  12.564
21571W        W80667  10.757  33.915   1.386
21572W        W80668  14.735   7.217  13.959
21573W        W80669  28.037   1.423   3.344
21574W        W80670  17.774  27.979  10.478
21575W        W80671  14.765  17.070   0.741
21576W        W80672   3.305   4.366  11.953
21577W        W80673   9.391   6.804  14.387
21578W        W80674  20.556  43.289  13.026
21579W        W80675  12.303  24.208   2.354
21580W        W80676  40.436  21.064   2.727
21581W        W80677  27.462  36.906  13.487
21582W        W80678  35.955  41.946  11.959
21583W        W80679  39.889   1.343   3.154
21584W        W80680  44.863  38.844  14.018
21585W        W80681  32.625   9.859  10.426
21586W        W80682  40.944  19.260   1.328
21587W        W80683  33.945  42.031   3.307
21588W        W80684  23.190  34.434   9.439
21589W        W80685   0.853  22.652   1.436
21590W        W80686  35.955  11.137  13.013
21591W        W80687  11.657  14.830  12.350
21592W        W80688  37.991  30.999   1.384
21593W        W80689  36.989   2.374  12.033
21594W        W80690   4.754  34.415  13.862
21595W        W80691  39.342  39.444  14.010
21596W        W80692  28.142  20.583   5.166
21597W        W80693  44.427  41.383   0.385
21598W        W80694  34.061  23.096  13.930
21599W        W80695  16.735  36.477  13.977
21600W        W80696  32.035  17.140  14.827
21601W        W80697  22.199  22.704  12.003
21602W        W80698   4.708  42.918   5.278
21603W        W80699   8.778  18.189  11.045
21604W        W80700  30.576  26.496  11.430
21605W        W80701  23.544  13.160  11.987
21606W        W80702  34.011  23.727   1.380
21607W        W80703  20.617   3.327   2.373
21608W        W80704  36.096  22.688  13.417
21609W        W80705   4.841  29.138  11.957
21610W        W80706   6.910  25.654  13.426
21611W        W80707  25.964  19.618   0.883
21612W        W80708   2.430  17.691  10.466
21613W        W80709  12.156  22.557  10.539
21614W        W80710  14.320   1.274   3.740
21615W        W80711  19.700  18.718   1.786
21616W        W80712   7.180   6.361  14.829
21617W        W80713  44.285   2.373   3.853
21618W        W80714  25.144  27.982  10.431
21619W        W80715  17.231  28.540   2.286
21620W        W80716  22.599   6.877   9.971
21621W        W80717  40.487   5.748  13.846
21622W        W80718  34.519   9.823  12.835
21623W        W80719   4.438  16.233  11.482
21624W        W80720  37.022  42.841  12.958
21625W        W80721  30.509  13.200  11.471
21626W        W80722  21.540  13.274  11.040
21627W        W80723   3.217  33.407  11.941
21628W        W80724  28.456   3.409   2.837
21629W        W80725  15.325  23.049  12.918
21630W        W80726  31.122  33.062  13.049
21631W        W80727  13.819  25.166   0.849
21632W        W80728   3.945  40.934   4.229
21633W        W80729  38.902  44.498  13.523
21634W        W80730  35.514   1.309  13.444
21635W        W80731  16.639  15.116   3.651
21636W        W80732   7.338  19.537   4.290
21637W        W80733   5.932   4.302  11.914
21638W        W80734   1.274   6.361   4.626
21639W        W80735   0.743  43.307   2.358
21640W        W80736  38.364  44.983   0.893
21641W        W80737   8.722  35.956  13.346
21642W        W80738   0.355   5.380  14.785
21643W        W80739  37.988   9.673   1.265
21644W        W80740   7.795   2.328  13.030
21645W        W80741  18.204  23.217   2.407
21646W        W80742   8.220  39.876   3.243
21647W        W80743  12.610  18.086   0.377
21648W        W80744  23.081   1.319   2.851
21649W        W80745  30.091  40.816  14.407
21650W        W80746   7.727  34.547  11.421
21651W        W80747  42.944  13.774  14.912
21652W        W80748  34.973  41.983  14.331
21653W        W80749  44.463  17.143   4.165
21654W        W80750   9.302  42.015  12.340
21655W        W80751  34.391   9.730   0.944
21656W        W80752  27.074  35.460   1.431
21657W        W80753  26.085  12.614  11.866
21658W        W80754  25.525  40.479  11.373
21659W        W80755  40.416   4.870   4.151
21660W        W80756  24.188   5.728  10.475
21661W        W80757  39.012  21.711  11.492
21662W        W80758   3.335   5.800  10.956
21663W        W80759  37.055  37.485   4.170
21664W        W80760  28.466  16.314   4.283
21665W        W80761  13.267  17.717   2.262
21666W        W80762  19.600  26.492   1.217
21667W        W80763  22.242  34.057   3.312
21668W        W80764  18.056  22.216  14.475
21669W        W80765   2.304  32.950   1.887
21670W        W80766  22.733  18.737  10.568
21671W        W80767  43.350  14.824  11.374
21672W        W80768  16.787  15.104  11.452
21673W        W80769  31.018  27.940   0.257
21674W        W80770   5.301   0.396   4.199
21675W        W80771  11.242  12.620  14.893
21676W        W80772  39.555  44.007   0.458
21677W        W80773  37.040   8.233   2.364
21678W        W80774  36.025  20.175  14.868
21679W        W80775  31.038  11.818  13.903
21680W        W80776  19.636   4.348   0.762
21681W        W80777  24.585  20.046   2.244
21682W        W80778  15.757  24.018   3.343
21683W        W80779  43.388   3.370  10.903
21684W        W80780  28.678  24.045  14.508
21685W        W80781   0.924  33.421  13.050
21686W        W80782  15.760  24.574  11.603
21687W        W80783  31.108  40.817   3.175
21688W        W80784  38.853  26.991   0.755
21689W        W80785  35.521  37.447  13.436
21690W        W80786  33.445  37.040  14.508
21691W        W80787   8.823  14.114   5.194
21692W        W80788   6.809   3.229   3.324
21693W        W80789  24.028  19.096  13.862
21694W        W80790   6.792  31.962  10.600
21695W        W80791   9.678   1.836  12.377
21696W        W80792   4.389  36.480   4.836
21697W        W80793  36.011  30.526  14.016
21698W        W80794  11.195  27.619   1.442
21699W        W80795  36.041  15.774   0.889
21700W        W80796  14.829  41.934  14.391
21701W        W80797  23.490  11.804  12.523
21702W        W80798  22.048  10.826   2.237
21703W        W80799  22.238  28.559   2.815
21704W        W80800  20.141  43.810   2.832
21705W        W80801  18.656   3.450  11.114
21706W        W80802   4.293   6.875   0.781
21707W        W80803  37.420  18.264  10.432
21708W        W80804  14.213  24.014   4.119
21709W        W80805   5.196  38.564   0.967
21710W        W80806   5.215   6.298   3.739
21711W        W80807   2.390  31.003   0.961
21712W        W80808  12.184  41.481   1.277
21713W        W80809   9.290   8.341  14.873
21714W        W80810  42.869   8.778  11.383
21715W        W80811  41.532  42.029   2.725
21716W        W80812  15.189  22.518   3.146
21717W        W80813  44.368  21.032   4.759
21718W        W80814  26.000  22.615   4.706
21719W        W80815  26.127  32.489   5.614
21720W        W80816   8.297  41.502  12.001
21721W        W80817  11.670  17.728  12.408
21722W        W80818  35.507  20.709  12.515
21723W        W80819   1.891  40.540   3.283
21724W        W80820  25.481  19.635  12.456
21725W        W80821  18.563   0.763   0.786
21726W        W80822  36.035   5.258  13.045
21727W        W80823  34.915  29.651   3.633
21728W        W80824  29.542  35.359   3.775
21729W        W80825  17.282   4.873  13.990
21730W        W80826  18.550   0.765  10.924
21731W        W80827   7.209  34.119  13.793
21732W        W80828  41.470  37.351   1.294
21733W        W80829   1.781  18.742   5.105
21734W        W80830  17.680  31.918   4.818
21735W        W80831   7.801  37.838  13.886
21736W        W80832  32.531  17.216   5.124
21737W        W80833  37.509  43.352   0.775
21738W        W80834  24.128   4.802   2.248
21739W        W80835  39.812   5.876   2.238
21740W        W80836  29.035  29.092  13.416
21741W        W80837  41.408  35.980   3.824
21742W        W80838  25.546   4.277  14.484
21743W        W80839  26.122   4.878   4.652
21744W        W80840  38.335   5.230   1.758
21745W        W80841  29.007  20.107  14.464
21746W        W80842  27.687  16.135   0.793
21747W        W80843  25.211  33.904   1.369
21748W        W80844  10.334  39.476   2.233
21749W        W80845   3.925  41.928  10.548
21750W        W80846  39.470  12.762   1.706
21751W        W80847   4.825   3.788   4.287
21752W        W80848  26.157  18.609  10.085
21753W        W80849  26.115  44.813  14.969
21754W        W80850   1.814   4.209  10.620
21755W        W80851  14.240   7.812  14.326
21756W        W80852  13.792  42.869  12.921
21757W        W80853   7.767  26.543  11.610
21758W        W80854   3.947  40.468   0.258
21759W        W80855  38.471   9.675  14.899
21760W        W80856   0.377  27.551   0.921
21761W        W80857  31.946  11.713  14.389
21762W        W80858   1.315   6.272   0.865
21763W        W80859  39.364  32.528   0.801
21764W        W80860  13.693   0.904   1.822
21765W        W80861  18.270  34.075  14.427
21766W        W80862   4.802  22.199  10.460
21767W        W80863  14.609  44.858  14.513
21768W        W80864  32.400  14.163   0.902
21769W        W80865   6.239   0.939  11.968
21770W        W80866   7.328  39.977  13.485
21771W        W80867   8.707  38.860  12.024
21772W        W80868   1.962  12.129  12.432
21773W        W80869  39.355   2.324  11.900
21774W        W80870  28.138  25.032  12.954
21775W        W80871  20.679   3.874   3.281
21776W        W80872  37.906  31.412   1.280
21777W        W80873  33.912  13.214   3.697
21778W        W80874  14.206  14.726   0.762
21779W        W80875  21.192   7.266   0.756
21780W        W80876  42.339   1.392   3.286
21781W        W80877  26.073  16.716  10.912
21782W        W80878  16.786  30.441   1.719
21783W        W80879  30.586  22.232   1.359
21784W        W80880   4.771  39.921  14.387
21785W        W80881   4.937  37.458  12.983
21786W        W80882   8.707  22.631  12.989
21787W        W80883   7.411   4.431  14.942
21788W        W80884   0.779  44.444   2.741
21789W        W80885  25.674  14.235  14.506
21790W        W80886  12.664  31.549   1.356
21791W        W80887  17.157  31.648   2.353
21792W        W80888   3.737   0.253  12.486
21793W        W80889   9.704  25.998  14.313
21794W        W80890   3.399  41.814   3.353
21795W        W80891   6.383   9.802   2.691
21796W        W80892   0.380  12.317  11.602
21797W        W80893  41.817   2.853  14.417
21798W        W80894  33.442  13.723  14.829
21799W        W80895  22.581  15.161   3.230
21800W        W80896   5.248  36.543  14.442
21801W        W80897   5.694  18.166   2.366
21802W        W80898  16.268  14.147  13.984
21803W        W80899  28.994  23.158   9.931
21804W        W80900  25.556  30.148  14.916
21805W        W80901  27.508   7.246   0.788
21806W        W80902  40.805  35.892  13.518
21807W        W80903  41.376   2.459  11.102
21808W        W80904  21.611  23.535  11.538
21809W        W80905  30.444  14.096   1.251
21810W        W80906  42.424  12.255   0.396
21811W        W80907  31.075  42.969   0.925
21812W        W80908   1.911  39.902   1.225
21813W        W80909  29.520  38.025  14.021
21814W        W80910  22.548  42.002   0.901
21815W        W80911   6.841  30.553   4.177
21816W        W80912  31.137  38.360   1.829
21817W        W80913  34.082  23.987   0.315
21818W        W80914  33.390  34.885   0.253
21819W        W80915  33.519  13.832   4.783
21820W        W80916   0.490  31.981  11.935
21821W        W80917  22.731  17.073   3.729
21822W        W80918  41.826  32.042  13.812
21823W        W80919  42.922  31.593   0.321
21824W        W80920  15.227   5.339  11.536
21825W        W80921  37.970   7.214   2.863
21826W        W80922  28.489  19.146   0.260
21827W        W80923   0.945  15.103   0.859
21828W        W80924  33.581  29.578  11.898
21829W        W80925   2.437  24.654   5.156
21830W        W80926   5.723   1.443  11.904
21831W        W80927  32.944  38.819   2.758
21832W        W80928   8.162  28.138   1.227
21833W        W80929  35.050  39.982   2.234
21834W        W80930  21.202  28.554  13.346
21835W        W80931  24.056  25.189   0.862
21836W        W80932  20.689   2.238  14.494
21837W        W80933  30.483  32.135   2.724
21838W        W80934  31.048  30.933  12.507
21839W        W80935  21.653  17.130   1.729
21840W        W80936   8.183  27.036  11.612
21841W        W80937  36.938  11.787   1.373
21842W        W80938  41.930   3.947  10.610
21843W        W80939   4.856  17.282  13.864
21844W        W80940   8.697  44.342   0.909
21845W        W80941   1.358   4.363   2.218
21846W        W80942   5.256  23.627   9.441
21847W        W80943  32.499   0.423  12.437
21848W        W80944   3.282   4.757  14.355
21849W        W80945  42.388  23.013  14.482
21850W        W80946  42.470  39.008   4.836
21851W        W80947  17.570   3.420  13.979
21852W        W80948  23.666  44.810  11.029
21853W        W80949  30.950   1.423   2.412
21854W        W80950  34.919   4.847  14.417
21855W        W80951   6.359  23.136  10.606
21856W        W80952  38.465   7.754  14.359
21857W        W80953   9.227  33.509  14.983
21858W        W80954  29.001  10.174   3.176
21859W        W80955  32.562  22.709   0.318
21860W        W80956  44.890  43.330  10.465
21861W        W80957  28.484   4.394  13.375
21862W        W80958   6.799  29.629  11.560
21863W        W80959  38.378  36.944  11.487
21864W        W80960  18.067   3.364   0.349
21865W        W80961  40.950  19.113   2.417
21866W        W80962  19.718  43.880  13.527
21867W        W80963  20.615  30.969   1.447
21868W        W80964  43.297  27.061   1.797
21869W        W80965  43.959  29.121   1.874
21870W        W80966  21.220  25.983  14.773
21871W        W80967  32.953   1.379   3.726
21872W        W80968  31.452  26.148   2.187
21873W        W80969  33.427  44.370   2.410
21874W        W80970  32.587   8.362   0.854
21875W        W80971  26.676  30.145   0.425
21876W        W80972   7.869   0.379  10.638
21877W        W80973  20.617  40.906   2.705
21878W        W80974  45.000   6.232  12.031
21879W        W80975  17.258   1.787  12.019
21880W        W80976   5.429   1.929   2.825
21881W        W80977  18.549  30.592   3.163
21882W        W80978  25.047  29.979  12.444
21883W        W80979  30.967   0.315  12.892
21884W        W80980  43.924  29.032  11.089
21885W        W80981  26.013  29.995  14.304
21886W        W80982  25.637   0.901   2.368
21887W        W80983   7.349  30.640   3.186
21888W        W80984  19.253  31.473  11.076
21889W        W80985  23.522  26.522   1.845
21890W        W80986  18.229   1.772  12.531
21891W        W80987  21.708  18.091  13.379
21892W        W80988  38.555  44.993   4.236
21893W        W80989  26.973  36.860   0.284
21894W        W80990  33.885  31.912   1.317
21895W        W80991  22.111  40.011   2.803
21896W        W80992   0.330  15.768  14.848
21897W        W80993  43.390  43.885  14.310
21898W        W80994  27.032  16.151  11.898
21899W        W80995  22.652   4.775  12.095
21900W        W80996  43.793  44.891   4.302
21901W        W80997  36.496  12.263   4.117
21902W        W80998  18.581  38.523   3.282
21903W        W80999  35.362  16.102  12.056
21904W        W81000   6.839   9.704   3.276
21905W        W81001  15.313  40.960   4.328
21906W        W81002  14.669   4.270   1.438
21907W        W81003  38.526  12.749   0.751
21908W        W81004   1.740   2.837   1.451
21909W        W81005  14.609  31.490   0.726
21910W        W81006  15.697  26.663  10.502
21911W        W81007  21.252  25.975   1.710
21912W        W81008  16.155  11.816  12.494
21913W        W81009  36.525  32.980  11.539
21914W        W81010  11.258  20.647  11.486
21915W        W81011  10.254  35.073  11.872
21916W        W81012  23.665  12.792   3.704
21917W        W81013  17.156   8.304  11.984
21918W        W81014   6.377  33.025  12.550
21919W        W81015   2.330  20.259   0.748
21920W        W81016  39.855  41.509   1.823
21921W        W81017  44.371  37.508   4.239
21922W        W81018  44.413  40.304  11.008
21923W        W81019   6.822  22.597   2.790
21924W        W81020  32.442  11.709  12.557
21925W        W81021  29.076  23.079  12.962
21926W        W81022   4.210   2.727   0.905
21927W        W81023   6.835   4.324  10.967
21928W        W81024   5.439  23.059   3.150
21929W        W81025   4.887  10.274  13.509
21930W        W81026  23.236  22.196   3.801
21931W        W81027  26.579  43.325  10.959
21932W        W81028  26.074  40.873   3.665
21933W        W81029  19.099  32.017  13.403
21934W        W81030  30.914  27.551  14.824
21935W        W81031  25.534  10.366   3.274
21936W        W81032  11.319  32.948   4.230
21937W        W81033  29.459  34.498  12.913
21938W        W81034  10.824  27.113   2.722
21939W        W81035  12.204  43.423  10.938
21940W        W81036  38.921   3.392  12.903
21941W        W81037  19.749  34.562   3.680
21942W        W81038  28.935  34.010  13.537
21943W        W81039  29.459  19.256   1.711
21944W        W81040  12.256  42.823   9.993
21945W        W81041  36.046  25.966   0.413
21946W        W81042  37.486  16.188   2.761
21947W        W81043  12.821  44.435   1.266
21948W        W81044  40.923  30.018   1.380
21949W        W81045   8.379  25.700  14.430
21950W        W81046   1.749  29.623  14.786
21951W        W81047  39.410  11.277  13.966
21952W        W81048  31.479  33.010   3.646
21953W        W81049  43.766  42.305  12.352
21954W        W81050  11.662  34.613   4.259
21955W        W81051  36.533  24.128  12.994
21956W        W81052  27.565  14.634  10.995
21957W        W81053  31.051  44.501  13.923
21958W        W81054  27.449   3.717  13.488
21959W        W81055   4.279  21.591  10.950
21960W        W81056  13.822   7.715  14.983
21961W        W81057  33.484   7.244   2.853
21962W        W81058  43.854   8.791   4.736
21963W        W81059  35.395   6.251  14.381
21964W        W81060  33.428   5.868   1.380
21965W        W81061  12.264  39.900   0.794
21966W        W81062   9.746  16.780   0.908
21967W        W81063  42.960   4.353  11.513
21968W        W81064  26.120  42.325   0.924
21969W        W81065  34.046  44.327  13.484
21970W        W81066  36.970  14.678   2.329
21971W        W81067   2.774   4.755   1.925
21972W        W81068  17.791   3.309   4.602
21973W        W81069  23.681  26.614  11.436
21974W        W81070  42.863  13.232  10.452
21975W        W81071  27.970   0.275   4.324
21976W        W81072   3.251  29.056   9.978
21977W        W81073  43.437  39.961  12.071
21978W        W81074   5.751  33.450  13.421
21979W        W81075  44.982   6.388   9.964
21980W        W81076   3.892   8.210  12.579
21981W        W81077  13.307  20.709   1.436
21982W        W81078   5.320  12.819  13.539
21983W        W81079  18.234  22.071   2.375
21984W        W81080  31.915   4.737   2.332
21985W        W81081  36.994  11.331   0.398
21986W        W81082  36.892  20.233  14.358
21987W        W81083   1.259  14.672   1.905
21988W        W81084  30.581  16.123  12.355
21989W        W81085   2.830  30.562  14.937
21990W        W81086  25.617  16.255   2.399
21991W        W81087  23.532  40.903   4.818
21992W        W81088  20.581  42.474  12.864
21993W        W81089  12.854   7.813  14.853
21994W        W81090   3.859  39.438  12.845
21995W        W81091  43.302   7.274   0.380
21996W        W81092   1.338  44.284  14.935
21997W        W81093   7.333  24.994   1.879
21998W        W81094   0.372  29.480  10.973
21999W        W81095  13.253  33.941   2.342
22000W        W81096  11.764  24.692   0.822
22001W        W81097  38.418   3.824   0.370
22002W        W81098  23.091   5.388  13.331
22003W        W81099  37.018  43.474  10.950
22004W        W81100  44.874  16.736  10.627
22005W        W81101   0.308  36.974   0.759
22006W        W81102  43.006  41.400   3.822
22007W        W81103   5.321   7.901   4.757
22008W        W81104  31.624  44.348  11.069
22009W        W81105  16.107  21.158  11.014
22010W        W81106  24.102  10.170  14.854
22011W        W81107   5.899  36.925   2.824
22012W        W81108  36.502  26.656  13.860
22013W        W81109   7.802  27.496  11.872
22014W        W81110  41.817  13.698   4.669
22015W        W81111  37.530  31.948  11.537
22016W        W81112   7.278  33.590   4.818
22017W        W81113  40.315  16.657  14.441
22018W        W81114  30.143   2.301  13.420
22019W        W81115   3.867  38.027   2.185
22020W        W81116  14.601   5.276   3.353
22021W        W81117  39.545   2.457  14.294
22022W        W81118  12.842  39.545   1.897
22023W        W81119   1.788  26.593   3.382
22024W        W81120   6.896  23.093  14.358
22025W        W81121   8.279   3.268   3.783
22026W        W81122  40.312  27.044  14.373
22027W        W81123  38.026  19.678   1.934
22028W        W81124   0.386   0.841   2.814
22029W        W81125  11.299  16.590  13.533
22030W        W81126  11.258   4.312  13.911
22031W        W81127  38.885  10.672   1.401
22032W        W81128  18.153  23.103   3.795
22033W        W81129  17.271  34.440   1.322
22034W        W81130  34.542  43.465  13.370
22035W        W81131  23.730  16.235  12.043
22036W        W81132  11.789  19.129   1.264
22037W        W81133  17.688  24.520  14.467
22038W        W81134  37.917  29.039   4.707
22039W        W81135  30.013  13.258   1.347
22040W        W81136  26.479   1.858  12.396
22041W        W81137  28.972  42.849  13.881
22042W        W81138   4.701  16.255   1.297
22043W        W81139  33.917   9.857  12.439
22044W        W81140  35.375  38.466  11.939
22045W        W81141  17.077  15.804   4.681
22046W        W81142  22.064  36.400   0.845
22047W        W81143  19.281   4.809  14.503
22048W        W81144  44.396   9.216  13.409
22049W        W81145  18.670   4.939  13.505
22050W        W81146  37.438  42.897  13.839
22051W        W81147  37.944  16.752   0.363
22052W        W81148  43.326  33.569   0.874
22053W        W81149  33.514  40.403   0.376
22054W        W81150  10.786  41.366   1.812
22055W        W81151  33.002  43.013   0.810
22056W        W81152  14.246  34.092  12.943
22057W        W81153  43.955  14.185   3.711
22058W        W81154  36.964   3.340  10.522
22059W        W81155  21.080  36.453  14.881
22060W        W81156   2.728  39.000  12.967
22061W        W81157  38.845  42.829  11.443
22062W        W81158   0.961  42.021  10.916
22063W        W81159   3.320  40.989   1.264
22064W        W81160  30.623  43.778  14.433
22065W        W81161  26.026   2.866   2.891
22066W        W81162  14.609  31.126   2.373
22067W        W81163  17.062  29.146   2.782
22068W        W81164  26.151   5.394   4.324
22069W        W81165  30.100  41.412   2.716
22070W        W81166  40.977  25.183   4.346
22071W        W81167  15.245  18.110   9.568
22072W        W81168  25.484  36.513   0.425
22073W        W81169  20.734   3.920  12.429
22074W        W81170  32.916  38.894  14.911
22075W        W81171  15.603  11.692  12.914
22076W        W81172  37.477  17.712   3.825
22077W        W81173  30.068  14.633   1.903
22078W        W81174  28.067  30.523   2.711
22079W        W81175  22.107   2.737  11.512
22080W        W81176   6.729  19.041   4.146
22081W        W81177  27.595   4.890  11.042
22082W        W81178   7.676  11.711  14.339
22083W        W81179  22.104  42.441  10.479
22084W        W81180  15.301  38.040  11.036
22085W        W81181  14.208  16.096  14.490
22086W        W81182  16.603   7.181  10.924
22087W        W81183  18.072  42.977  14.385
22088W        W81184  13.733  41.526   1.323
22089W        W81185  18.295  25.712  11.469
22090W        W81186  19.640  11.247  12.367
22091W        W81187  36.468  44.782  14.317
22092W        W81188   6.225   2.283   3.214
22093W        W81189  41.402  21.150   2.232
22094W        W81190  27.667  39.422  12.067
22095W        W81191  43.845  15.662  12.964
22096W        W81192   5.281  19.713  12.891
22097W        W81193  23.716   4.341  10.644
22098W        W81194  29.591   5.754   2.338
22099W        W81195  18.246  25.074   1.886
22100W        W81196  16.615   2.724   1.297
22101W        W81197  15.650  22.510   3.692
22102W        W81198  24.010   1.787  11.995
22103W        W81199   8.738  11.670   3.795
22104W        W81200  20.139  32.493  12.384
22105W        W81201   6.256  44.913   0.376
22106W        W81202  38.379  28.548   3.642
22107W        W81203  41.531  20.062   4.690
22108W        W81204   4.802  31.090   0.442
22109W        W81205  28.161   7.382  13.877
22110W        W81206  40.942   5.845   2.885
22111W        W81207   3.928  19.137   3.235
22112W        W81208  35.596   5.904  12.006
22113W        W81209  38.009  22.148   1.698
22114W        W81210  28.501  30.526   2.330
22115W        W81211   3.910  36.871  10.425
22116W        W81212  21.069  43.905  10.498
22117W        W81213  14.149  28.504  13.348
22118W        W81214   4.430  27.115  14.949
22119W        W81215  21.558  24.132   3.280
22120W        W81216  31.986  38.381  14.289
22121W        W81217  17.718  23.672   2.760
22122W        W81218  24.511   5.363   1.226
22123W        W81219  13.768  21.046   2.357
22124W        W81220  22.643  29.540  12.503
22125W        W81221  27.635   7.787   0.757
22126W        W81222  15.269  44.265   3.698
22127W        W81223  38.414  27.522   3.151
22128W        W81224   9.763  39.050  14.408
22129W        W81225  13.292  11.198   4.258
22130W        W81226  35.958  44.338  12.988
22131W        W81227  24.144  36.881   0.866
22132W        W81228  19.535  38.351  10.888
22133W        W81229  39.386  40.856   0.818
22134W        W81230  43.847  11.232  13.836
22135W        W81231  14.643  39.928   1.449
22136W        W81232   1.318  39.507   2.254
22137W        W81233  17.266  13.745  14.918
22138W        W81234  41.367  40.411   2.365
22139W        W81235  14.667   9.196  11.041
22140W        W81236  17.712   9.864  14.870
22141W        W81237   8.778   3.431  13.874
22142W        W81238  17.231  18.584  10.436
22143W        W81239  13.273  31.015  13.490
22144W        W81240  44.952  40.437   1.848
22145W        W81241  29.930  27.071   0.833
22146W        W81242  34.384  24.141  13.972
22147W        W81243  16.136   1.280   0.473
22148W        W81244   8.703   5.335  14.813
22149W        W81245  39.349  42.007   2.284
22150W        W81246   2.874   7.805  14.985
22151W        W81247   1.745  29.577   0.270
22152W        W81248   2.909   6.716   3.150
22153W        W81249  31.035   5.208  13.927
22154W        W81250  16.571  38.882   2.300
22155W        W81251  16.124  37.511  10.409
22156W        W81252  32.937   1.280  11.040
22157W        W81253  36.868   5.387   0.865
22158W        W81254   2.347   9.321   1.758
22159W        W81255   6.858  22.649   0.360
22160W        W81256  16.752  25.075   4.621
22161W        W81257  32.103  31.075   1.732
22162W        W81258  29.488   0.306   3.291
22163W        W81259   4.446  33.945   1.319
22164W        W81260  12.205  13.176   1.405
22165W        W81261  20.622  44.936  11.545
22166W        W81262  17.756  23.131  12.541
22167W        W81263  10.752  28.459   3.174
22168W        W81264   0.815  30.909  11.883
22169W        W81265  27.964  37.382   4.821
22170W        W81266  34.537  27.546  11.426
22171W        W81267  19.086   2.372   0.411
22172W        W81268  37.939  37.359  10.607
22173W        W81269  15.277  17.667  10.499
22174W        W81270  30.064  37.566  13.440
22175W        W81271  10.649  32.009   0.481
22176W        W81272   9.168  25.113  14.915
22177W        W81273   4.315  30.922  12.877
22178W        W81274  18.757  19.104  14.950
22179W        W81275  24.478  17.697   3.856
22180W        W81276  33.015   9.246   4.172
22181W        W81277  21.561  23.493   2.416
22182W        W81278  10.668   3.877  12.373
22183W        W81279   3.730  31.512  12.567
22184W        W81280  36.352   7.242  10.996
22185W        W81281  24.196  37.029   3.740
22186W        W81282  24.023  31.602  10.444
22187W        W81283  13.307  37.977  13.431
22188W        W81284  35.576  44.407   1.313
22189W        W81285   1.356  26.003   1.414
22190W        W81286   3.938   8.790  11.906
22191W        W81287  34.501   8.401   2.382
22192W        W81288  39.894  19.582   3.285
22193W        W81289   0.375  32.101   0.253
22194W        W81290  34.372  14.702  13.397
22195W        W81291  29.462  30.986   2.324
22196W        W81292  34.514  43.990   0.269
22197W        W81293  23.668  21.691   0.432
22198W        W81294   6.769   8.218  12.428
22199W        W81295   8.197  26.181   1.414
22200W        W81296  29.943   0.976   0.780
22201W        W81297  31.096   4.774  12.491
22202W        W81298  12.617  44.448  14.421
22203W        W81299   6.404  14.632   2.286
22204W        W81300  36.467   7.717   0.931
22205W        W81301  40.496  16.730   3.825
22206W        W81302   8.346  28.641   4.236
22207W        W81303  41.403   6.266   3.667
22208W        W81304  28.632   8.197   3.717
22209W        W81305  19.152   2.374   1.906
22210W        W81306  13.292  42.888   4.752
22211W        W81307   6.410  19.703  11.109
22212W        W81308   0.983  21.563   2.200
22213W        W81309  20.651  17.777  14.767
22214W        W81310  43.481  34.101  12.049
22215W        W81311   6.249  44.271   3.192
22216W        W81312  36.898   9.825   3.338
22217W        W81313  15.820   5.852   3.206
22218W        W81314   2.728  19.263   4.799
22219W        W81315  21.204  30.526   0.445
22220W        W81316  22.625  28.062   3.854
22221W        W81317  16.751   3.843   3.280
22222W        W81318   7.353  37.338  12.005
22223W        W81319  23.094  35.381   3.275
22224W        W81320  32.434  38.350   3.360
22225W        W81321  25.609   2.835   4.195
22226W        W81322  25.513   0.879  10.535
22227W        W81323  13.648  23.503  13.468
22228W        W81324  31.118  24.142   1.304
22229W        W81325   2.942   4.705  11.440
22230W        W81326  28.977  25.687  13.833
22231W        W81327  22.515  16.296  10.442
22232W        W81328  39.932   5.840   0.243
22233W        W81329  43.807  34.912  12.532
22234W        W81330  33.597  15.810   0.730
22235W        W81331  32.417  22.575   3.739
22236W        W81332   2.858  11.760  13.313
22237W        W81333   2.813  31.415  11.076
22238W        W81334  38.035  12.720   5.249
22239W        W81335  22.583  12.634  14.516
22240W        W81336  26.991  11.165  13.347
22241W        W81337  30.644   1.260   0.922
22242W        W81338  29.473  30.988   0.732
22243W        W81339  20.259  40.805   1.815
22244W        W81340  15.306  23.639   0.347
22245W        W81341  43.876   5.702   0.845
22246W        W81342  12.126   6.396  12.421
22247W        W81343  26.479   2.882  10.553
22248W        W81344  14.594  35.911  13.855
22249W        W81345  19.267  39.363   2.794
22250W        W81346  38.423  17.244  10.935
22251W        W81347  20.076   5.315  13.020
22252W        W81348  37.842  23.184   1.259
22253W        W81349  28.060  30.549  11.459
22254W        W81350   4.406  13.266  14.995
22255W        W81351  37.377  12.807   1.763
22256W        W81352  20.748   8.226  12.373
22257W        W81353  42.418   7.868   1.381
22258W        W81354   7.746  29.637  14.387
22259W        W81355  25.576  32.898   4.167
22260W        W81356   3.782  31.624  11.924
22261W        W81357   8.654  31.060   4.689
22262W        W81358  14.242  14.613   2.730
22263W        W81359  26.505   2.780   1.801
22264W        W81360  27.102  15.106   0.362
22265W        W81361  22.216   3.739   3.261
22266W        W81362   7.907  32.917   4.192
22267W        W81363  12.305  34.578   2.700
22268W        W81364  43.012  14.771   2.318
22269W        W81365  36.352  32.890  13.981
22270W        W81366  11.814   7.389  11.576
22271W        W81367  41.296  26.649   1.826
22272W        W81368  42.444  20.644  13.998
22273W        W81369   0.798  21.682   0.460
22274W        W81370   6.763  18.713  13.410
22275W        W81371  30.426  35.861   2.750
22276W        W81372  39.830  33.404   1.425
22277W        W81373  40.521  43.312   4.731
22278W        W81374   0.983   1.743   3.658
22279W        W81375  44.370  12.802   4.839
22280W        W81376  22.504  21.648   4.124
22281W        W81377  12.854  25.652  10.491
22282W        W81378  10.827  39.045   0.419
22283W        W81379  17.789  24.574   4.308
22284W        W81380  42.891  38.425   3.672
22285W        W81381  11.722  33.967   4.791
22286W        W81382   3.871  25.162  11.999
22287W        W81383   9.351  39.314  12.476
22288W        W81384   8.762  29.602  14.451
22289W        W81385  23.109   6.192   2.716
22290W        W81386  39.939   3.720  14.957
22291W        W81387   5.731  18.055  11.925
22292W        W81388  31.981  22.525   0.787
22293W        W81389  25.152  11.751   0.942
22294W        W81390   7.812  22.618   3.289
22295W        W81391  27.666  29.046   0.921
22296W        W81392  19.651  30.554   0.930
22297W        W81393  15.794  29.575   5.258
22298W        W81394   2.732  36.355  14.338
22299W        W81395  43.283  13.183   1.777
22300W        W81396  18.174  23.027  11.582
22301W        W81397  41.972  35.007  13.846
22302W        W81398  43.326  43.403  12.865
22303W        W81399  16.650   3.956  14.313
22304W        W81400   5.253  28.561  13.873
22305W        W81401  38.910  26.463   3.844
22306W        W81402  39.455   1.918  10.429
22307W        W81403  33.087  16.757   3.209
22308W        W81404  13.192   0.460   0.299
22309W        W81405   3.453  40.460  14.005
22310W        W81406   7.907  23.117   2.785
22311W        W81407  32.456   6.212   4.633
22312W        W81408  31.980  10.641  10.409
22313W        W81409   4.321  36.478  10.902
22314W        W81410  31.422  43.869  12.939
22315W        W81411  44.352  44.472   0.916
22316W        W81412  37.554  15.169  12.514
22317W        W81413  33.090  16.760   3.662
22318W        W81414   1.313  16.094   4.692
22319W        W81415  35.587  23.204  12.905
22320W        W81416  32.519  24.116   2.873
22321W        W81417  29.584  20.154   1.341
22322W        W81418  13.308  14.588  14.896
22323W        W81419  10.240   6.354  14.963
22324W        W81420  29.597  38.924  10.157
22325W        W81421  11.863  36.532  10.495
22326W        W81422  26.644  10.819   0.943
22327W        W81423  26.008  22.095   5.130
22328W        W81424   6.774  34.049   3.245
22329W        W81425  18.574  38.035   5.286
22330W        W81426  14.745   2.317   1.371
22331W        W81427  13.710  39.502  13.851
22332W        W81428  13.300  15.698  13.944
22333W        W81429  29.506   4.775   5.216
22334W        W81430  16.627  26.558  11.938
22335W        W81431  31.142  17.651   0.439
22336W        W81432  30.970   0.309  10.629
22337W        W81433  39.521   2.420   0.302
22338W        W81434  23.001   6.240   1.385
22339W        W81435  34.528   6.690   3.178
22340W        W81436  26.027  39.007  12.029
22341W        W81437  34.583  41.496  10.991
22342W        W81438  32.541  41.833   2.765
22343W        W81439  15.261  18.295  10.449
22344W        W81440  34.068  21.708  14.996
22345W        W81441  11.863  28.439  13.964
22346W        W81442   9.290  29.013  14.796
22347W        W81443  20.209  38.474  13.801
22348W        W81444  31.039  25.037  10.528
22349W        W81445  10.167  40.961  12.571
22350W        W81446   0.398  13.223   2.243
22351W        W81447  10.367  14.246   0.438
22352W        W81448  25.559  37.501   4.293
22353W        W81449   6.736   1.846  14.780
22354W        W81450   6.378  10.231   4.243
22355W        W81451  37.881  16.677  13.969
22356W        W81452  36.388  44.361  11.479
22357W        W81453  23.513  42.346  12.832
22358W        W81454  16.772  29.490  12.862
22359W        W81455   1.247  26.680   1.880
22360W        W81456   0.866  44.888   0.388
22361W        W81457   6.428  23.735  12.986
22362W        W81458  13.734  24.662  13.012
22363W        W81459  32.003   8.769  12.864
22364W        W81460  36.993   6.418   2.250
22365W        W81461  38.919  40.014  11.415
22366W        W81462  44.291   8.660  14.383
22367W        W81463  18.296  12.752  10.517
22368W        W81464  15.650  34.609  12.033
22369W        W81465  43.933   9.247   3.823
22370W        W81466  29.921  34.592   5.120
22371W        W81467  14.809  44.808   1.413
22372W        W81468   0.461  24.687  13.462
22373W        W81469   0.250  39.552  12.492
22374W        W81470  11.373   9.729  14.787
22375W        W81471  26.537  40.966   2.722
22376W        W81472  37.343  20.150  14.783
22377W        W81473  11.189  41.868   2.275
22378W        W81474  14.624  24.066   4.235
22379W        W81475  33.565  40.431   1.701
22380W        W81476   8.799  44.453   0.458
22381W        W81477  27.078  28.660  13.995
22382W        W81478  41.353  19.126  14.890
22383W        W81479  44.385  10.179  13.030
22384W        W81480  39.979   0.867  10.596
22385W        W81481   1.749  16.739  10.924
22386W        W81482  20.630  16.712  14.868
22387W        W81483  31.009  38.410  14.350
22388W        W81484  43.363   3.226  14.380
22389W        W81485   6.247   8.794  13.953
22390W        W81486  32.951  34.037  12.381
22391W        W81487  31.047  43.889   4.738
22392W        W81488  16.718  15.162  11.906
22393W        W81489  22.648   2.783   4.648
22394W        W81490  13.296  39.816  13.812
22395W        W81491  11.370   4.784  14.879
22396W        W81492  25.700  35.864  13.928
22397W        W81493  44.354  14.261   1.722
22398W        W81494  30.532  21.607   1.406
22399W        W81495  38.383  25.976  13.427
22400W        W81496  13.794  22.007  10.966
22401W        W81497  14.601  42.807  14.465
22402W        W81498  28.987  15.796   2.368
22403W        W81499   4.278  27.509  13.392
22404W        W81500  23.028   8.756   4.782
22405W        W81501  24.131  18.562   0.255
22406W        W81502  18.058   1.387  13.053
22407W        W81503  26.123  10.721  14.884
22408W        W81504  36.863  39.365   4.133
22409W        W81505  33.067   5.267   4.812
22410W        W81506  31.143  36.902   4.701
22411W        W81507  36.386   7.680   3.862
22412W        W81508  40.484   7.890   4.246
22413W        W81509  17.769  11.658   4.757
22414W        W81510  38.446  19.145  10.588
22415W        W81511  43.982   2.825  13.427
22416W        W81512  31.982  40.435   0.889
22417W        W81513   0.469  38.379  12.842
22418W        W81514  40.424  11.637   1.369
22419W        W81515  29.450  21.171  13.844
22420W        W81516   3.243   6.782  13.309
22421W        W81517  12.665  18.702   3.859
22422W        W81518  10.663  14.164   9.984
22423W        W81519  14.323  20.068  12.028
22424W        W81520  33.625  11.163   1.720
22425W        W81521  12.781  14.308  11.553
22426W        W81522  13.153   7.256  10.135
22427W        W81523  44.376  11.225  12.990
22428W        W81524  37.050  14.760  12.430
22429W        W81525   9.222   5.756   4.114
22430W        W81526   1.324  16.787   2.393
22431W        W81527  19.589  25.060   1.342
22432W        W81528  20.174  40.860  13.336
22433W        W81529   9.315  27.157  14.858
22434W        W81530  43.409  36.572  11.023
22435W        W81531   7.217  43.458  10.634
22436W        W81532  34.020  19.109   0.732
22437W        W81533  34.391  33.073  13.471
22438W        W81534   4.403  13.843   4.286
22439W        W81535  44.776  30.115   1.720
22440W        W81536  13.236  39.385  11.604
22441W        W81537  35.509  30.640   1.883
22442W        W81538  16.712  19.757  13.457
22443W        W81539  29.070  31.539   3.275
22444W        W81540  22.680  43.280   4.632
22445W        W81541  21.077  39.375  11.018
22446W        W81542  30.045  21.081  11.475
22447W        W81543   8.777  30.969  10.512
22448W        W81544   7.806  10.357   5.246
22449W        W81545  13.193  20.148  14.454
22450W        W81546  14.126  33.067   2.205
22451W        W81547   8.245  20.168  14.498
22452W        W81548   9.256  44.297  11.373
22453W        W81549  27.982   3.396  10.911
22454W        W81550  21.713  14.700  11.916
22455W        W81551   2.331   0.901   5.220
22456W        W81552  36.845   1.828  13.886
22457W        W81553  35.517   4.402   3.332
22458W        W81554  10.324  40.990  13.794
22459W        W81555  44.788   7.806  11.416
22460W        W81556  27.117  22.630  14.360
22461W        W81557  16.241  29.945   3.341
22462W        W81558  10.323  11.245  14.499
22463W        W81559  12.648  32.428  12.349
22464W        W81560  33.601  14.276   3.227
22465W        W81561  37.428  24.190   3.320
22466W        W81562   9.764  31.447  11.957
22467W        W81563  17.693  29.450   0.927
22468W        W81564   8.308  16.639   3.666
22469W        W81565  19.101  39.509  12.560
22470W        W81566  31.981  31.040   2.200
22471W        W81567   2.967  29.628  13.538
22472W        W81568  32.036  40.847   1.276
22473W        W81569  21.531  33.980  12.891
22474W        W81570   5.691  37.994   4.141
22475W        W81571  42.020  10.879  11.379
22476W        W81572  37.974  34.542   3.347
22477W        W81573  44.320  19.105   3.731
22478W        W81574  32.605  31.992   0.884
22479W        W81575  22.644   5.281  13.855
22480W        W81576  20.718  31.032   2.203
22481W        W81577  32.607  25.677   0.330
22482W        W81578  17.221  22.509   2.381
22483W        W81579  34.088   8.171  12.531
22484W        W81580  25.682  27.491  10.598
22485W        W81581  44.784  41.872   3.676
22486W        W81582  37.942  28.649  11.000
22487W        W81583  29.468  41.033  12.398
22488W        W81584  36.907  22.239   0.375
22489W        W81585  15.265  44.453   3.247
22490W        W81586  36.047   9.369  11.106
22491W        W81587  11.643   5.260  14.428
22492W        W81588  40.334  31.093   2.349
22493W        W81589   3.801  16.604   2.688
22494W        W81590  31.927  11.132   0.749
22495W        W81591   3.759  13.801  10.615
22496W        W81592  26.096  15.249   3.324
22497W        W81593   5.852   8.266  13.819
22498W        W81594  10.204  43.806  12.514
22499W        W81595  36.515  29.983   3.223
22500W        W81596  20.089  13.718  12.835
22501W        W81597   6.312  17.222  14.979
22502W        W81598  20.699   3.449   4.229
22503W        W81599  38.529  28.961  12.906
22504W        W81600  30.928  22.555  11.373
22505W        W81601  10.230  31.956  14.321
22506W        W81602  37.943  15.676   3.669
22507W        W81603  39.482  11.306   3.754
22508W        W81604  19.758  30.120   4.236
22509W        W81605  37.515  22.611   4.232
22510W        W81606  32.414  29.605  12.953
22511W        W81607  19.558  22.701   0.455
22512W        W81608  39.486  21.092  12.959
22513W        W81609  41.323  23.023  12.455
22514W        W81610  40.489  35.901  12.513
22515W        W81611  14.123  14.239   1.751
22516W        W81612  28.599  10.248   2.693
22517W        W81613  11.138  26.965  11.390
22518W        W81614  31.574  37.938  12.354
22519W        W81615  42.870  40.979   1.343
22520W        W81616   0.825  27.572   4.155
22521W        W81617  14.193  41.929  14.827
22522W        W81618   1.336   7.378  13.970
22523W        W81619   6.351   0.353  12.090
22524W        W81620  35.469  23.202  13.473
22525W        W81621  25.090  16.243  12.415
22526W        W81622  32.526  29.450   2.870
22527W        W81623   2.813   4.411   4.296
22528W        W81624   5.860  14.757   3.659
22529W        W81625  25.699  38.486  11.532
22530W        W81626  14.297  15.604  11.125
22531W        W81627  10.254   8.758  10.524
22532W        W81628  27.953  21.116  10.996
22533W        W81629  31.111   4.857   2.750
22534W        W81630   2.231  16.250   1.335
22535W        W81631  36.387  10.681  14.365
22536W        W81632  24.623   9.649   3.297
22537W        W81633   6.332  30.639   1.420
22538W        W81634   6.788  43.977  12.915
22539W        W81635  26.113   6.827   4.633
22540W        W81636  10.878  21.038   3.793
22541W        W81637  18.177  12.252  13.989
22542W        W81638   2.401  35.875   0.258
22543W        W81639  40.521  17.659   0.787
22544W        W81640  18.687  33.121   3.367
22545W        W81641  34.565  14.303  14.833
22546W        W81642  30.620  25.099   5.679
22547W        W81643   7.321  19.611  13.889
22548W        W81644  44.964  16.087  14.959
22549W        W81645  16.760  38.555   2.314
22550W        W81646  29.494  39.884  11.538
22551W        W81647  20.766  43.979  13.389
22552W        W81648   6.695  13.184   0.960
22553W        W81649  25.654  21.215   3.761
22554W        W81650  18.569   8.862  10.907
22555W        W81651  17.648   2.929   0.734
22556W        W81652  27.991  27.684  14.916
22557W        W81653  34.476  34.571   2.296
22558W        W81654  15.677  22.669  10.042
22559W        W81655  14.687  26.080   1.275
22560W        W81656  10.173  15.201   0.730
22561W        W81657  21.631  35.088  14.873
22562W        W81658   4.214  43.421   4.128
22563W        W81659  34.872  28.437  14.026
22564W        W81660  31.520  43.456  10.971
22565W        W81661  35.528  19.163  11.129
22566W        W81662  41.517  38.490   1.294
22567W        W81663  23.611  13.726   3.219
22568W        W81664  42.840  35.853  12.355
22569W        W81665  15.184   9.735   1.306
22570W        W81666  29.955   5.313   4.792
22571W        W81667  26.986  35.550   3.863
22572W        W81668  41.459  15.712  11.924
22573W        W81669  31.936  37.570  10.908
22574W        W81670  36.416  40.490   3.155
22575W        W81671  10.755   9.236   1.317
22576W        W81672  10.721  17.583  10.460
22577W        W81673   4.247  31.630  12.824
22578W        W81674   8.792  38.868   0.471
22579W        W81675  42.314  10.233  14.479
22580W        W81676   4.255  40.364  14.406
22581W        W81677  44.819  35.922  14.002
22582W        W81678  37.494  10.176   4.745
22583W        W81679   5.283   2.353  15.000
22584W        W81680  21.179  12.659  13.041
22585W        W81681  10.197  42.448   2.249
22586W        W81682   3.740   0.471   0.364
22587W        W81683  24.619  22.187  12.907
22588W        W81684  35.365  35.360  12.979
22589W        W81685  27.631  44.814   4.339
22590W        W81686  44.438  16.763   0.312
22591W        W81687   7.795  22.630  11.121
22592W        W81688   7.722  34.580   4.263
22593W        W81689   5.921   6.723  10.486
22594W        W81690  36.387  34.595  10.901
22595W        W81691  42.430  14.654   4.834
22596W        W81692  25.207  25.691   2.213
22597W        W81693   3.721  22.696  11.443
22598W        W81694  11.765  20.719  10.023
22599W        W81695  13.171  30.039   9.531
22600W        W81696   9.855   5.762  12.834
22601W        W81697  28.113  44.483  10.641
22602W        W81698  43.321   3.801  13.345
22603W        W81699  39.960  10.877  13.501
22604W        W81700  38.357  16.307   3.636
22605W        W81701  39.317   2.941   0.389
22606W        W81702  34.400  15.276   4.741
22607W        W81703  12.358  16.317  12.891
22608W        W81704  13.729  43.278  11.554
22609W        W81705   6.887  33.425   1.227
22610W        W81706   3.948  15.165   3.765
22611W        W81707  37.336  31.151  11.456
22612W        W81708  13.287  22.158   0.259
22613W        W81709  12.210   7.264  13.503
22614W        W81710  43.380   3.440  12.410
22615W        W81711  11.791  22.053  12.965
22616W        W81712  18.629  33.956   3.385
22617W        W81713   9.872  19.682   0.348
22618W        W81714   8.368   9.307  10.480
22619W        W81715   6.208   5.304   0.463
22620W        W81716  44.981  37.482  12.576
22621W        W81717  44.489  14.773  13.034
22622W        W81718  15.660   7.173  11.518
22623W        W81719  27.188  16.638   0.838
22624W        W81720  28.471  21.065  11.503
22625W        W81721   0.983  24.170  12.345
22626W        W81722  43.016  18.730   4.741
22627W        W81723  35.523  18.709   2.873
22628W        W81724  31.638  23.521   1.759
22629W        W81725  35.910  13.780  14.298
22630W        W81726   8.292  28.937  13.802
22631W        W81727  12.268  25.022   0.820
22632W        W81728  32.424  37.414  13.490
22633W        W81729  32.030   3.939  14.374
22634W        W81730  10.806  38.945   3.838
22635W        W81731  25.001  27.160   1.875
22636W        W81732  27.153  26.110  10.573
22637W        W81733  31.579  12.264  12.857
22638W        W81734  41.885  41.982  11.924
22639W        W81735   1.337   1.855  12.399
22640W        W81736  13.830  17.590  11.927
22641W        W81737  20.226  36.443  13.513
22642W        W81738   9.863  27.159  11.491
22643W        W81739   3.817  41.398   0.934
22644W        W81740   0.261   4.771  13.508
22645W        W81741  23.090  25.062   2.382
22646W        W81742  31.108  37.473   2.239
22647W        W81743  20.680  18.087   3.658
22648W        W81744   1.762  40.034  13.048
22649W        W81745  24.637  38.881   4.792
22650W        W81746  34.910  38.392   3.382
22651W        W81747   7.321   3.281   5.280
22652W        W81748  34.479  19.145  12.873
22653W        W81749  30.617  28.614  13.932
22654W        W81750   5.349  21.191   0.477
22655W        W81751  41.977  37.366  14.963
22656W        W81752  44.877  15.699   0.368
22657W        W81753  30.550  26.006  12.387
22658W        W81754   3.720  24.625   3.805
22659W        W81755   1.917  19.732   4.315
22660W        W81756  40.516  26.576   4.610
22661W        W81757  12.205  25.001   3.843
22662W        W81758  12.730  20.140  13.390
22663W        W81759   2.773  32.078   2.710
22664W        W81760  18.266  38.334   3.798
22665W        W81761   5.407  14.674  10.452
22666W        W81762  14.599  43.017  11.556
22667W        W81763  32.612  27.949   4.223
22668W        W81764  25.213   3.406   1.841
22669W        W81765   5.351   6.870  13.502
22670W        W81766   4.315  24.158   3.327
22671W        W81767  37.578  22.143   4.650
22672W        W81768  30.415  42.341   4.809
22673W        W81769  17.157  17.224  11.029
22674W        W81770  38.060  44.922   2.260
22675W        W81771  17.125   1.866   3.200
22676W        W81772  26.643  30.045  12.049
22677W        W81773  22.648  27.028  12.364
22678W        W81774  38.511  38.060  13.323
22679W        W81775  37.575  40.371  10.474
22680W        W81776  34.100  37.070  13.513
22681W        W81777   8.321  31.078  12.041
22682W        W81778  24.179  13.179   4.220
22683W        W81779   4.800  33.033  12.054
22684W        W81780  15.790  22.090  11.502
22685W        W81781  23.685  34.021   4.792
22686W        W81782  43.399   0.894  14.363
22687W        W81783  12.748   4.306  11.415
22688W        W81784   2.871  22.649   2.320
22689W        W81785   8.746  13.802  10.145
22690W        W81786  30.164  44.958  10.641
22691W        W81787  36.084  29.484   4.627
22692W        W81788  14.156  36.515  14.876
22693W        W81789  19.683  13.191  13.449
22694W        W81790   1.313   9.375   0.303
22695W        W81791  26.961  30.990   1.342
22696W        W81792  43.500  33.010  10.563
22697W        W81793  42.822  20.708   2.277
22698W        W81794  13.758  17.559   1.925
22699W        W81795  21.655  30.469  11.536
22700W        W81796  39.439  23.656   3.804
22701W        W81797   9.214  31.110  11.601
22702W        W81798  26.014  10.240  10.543
22703W        W81799  42.471  18.684  11.604
22704W        W81800  31.940  25.569   1.747
22705W        W81801   0.946  32.960  13.984
22706W        W81802  34.001  21.560  10.537
22707W        W81803  37.048  17.562   2.673
22708W        W81804  21.699  35.857   9.978
22709W        W81805  39.839  39.968  11.523
22710W        W81806  11.239  30.593  13.421
22711W        W81807   8.231  20.612   4.333
22712W        W81808   2.875   1.319   2.273
22713W        W81809   1.835  28.015   1.337
22714W        W81810  19.730   5.857   4.753
22715W        W81811   7.326  34.524   0.477
22716W        W81812  33.410  25.677  12.894
22717W        W81813  11.804  16.649   4.299
22718W        W81814  41.443  28.541   3.665
22719W        W81815  34.443  14.707  12.961
22720W        W81816   6.224  27.988   1.707
22721W        W81817   7.278  15.172  11.861
22722W        W81818   8.866  13.271   5.187
22723W        W81819  37.917  29.154   1.424
22724W        W81820  29.577   2.858  11.867
22725W        W81821   0.491  15.694   3.347
22726W        W81822  13.766   6.854   1.320
22727W        W81823  23.725  20.570  10.421
22728W        W81824  37.908  37.337   2.829
22729W        W81825   3.730   4.709   3.732
22730W        W81826  40.900  43.828  12.566
22731W        W81827  26.506  20.704  12.859
22732W        W81828  32.998   3.245   1.863
22733W        W81829  22.161  17.696   0.781
22734W        W81830  13.269   7.183  12.957
22735W        W81831  18.590  19.121  13.339
22736W        W81832   8.802  32.531   4.150
22737W        W81833  26.489  21.698   1.840
22738W        W81834  34.420   2.813  11.972
22739W        W81835  31.073  42.294   3.636
22740W        W81836  26.630  22.109  11.963
22741W        W81837  18.594  19.592   1.395
22742W        W81838   6.335  17.303   4.748
22743W        W81839  34.453  38.453  11.894
22744W        W81840   1.246   7.269   1.838
22745W        W81841  14.773  36.842   4.247
22746W        W81842  11.363  13.714  12.930
22747W        W81843   5.415  13.748  12.058
22748W        W81844  28.604  22.529   4.347
22749W        W81845  38.563   5.424   2.836
22750W        W81846  13.692  26.133  11.943
22751W        W81847  13.153  26.968  10.482
22752W        W81848  31.445  20.698   0.802
22753W        W81849  17.655   3.450  12.575
22754W        W81850   8.398  37.479   3.147
22755W        W81851  14.737  30.007   1.406
22756W        W81852  32.596  38.849  12.010
22757W        W81853  28.059  19.123   1.788
22758W        W81854  37.375  16.124  14.883
22759W        W81855   8.214  20.565  12.069
22760W        W81856   3.260  17.567   3.345
22761W        W81857  42.389  28.521   4.339
22762W        W81858   0.486  16.704  14.315
22763W        W81859  13.238  37.514   0.414
22764W        W81860   4.340  29.667  11.043
22765W        W81861  12.820   3.726   0.344
22766W        W81862   9.859   0.881  12.931
22767W        W81863   6.773  27.116   5.110
22768W        W81864  18.617  35.370   4.230
22769W        W81865  34.920  39.524   0.838
22770W        W81866  33.578   8.240  13.905
22771W        W81867  25.209   5.400  12.467
22772W        W81868  42.926   3.882   4.693
22773W        W81869  25.519   0.426  11.535
22774W        W81870  20.214  34.569  10.439
22775W        W81871   9.864  23.058  14.902
22776W        W81872   9.761  21.145   4.816
22777W        W81873  37.086   3.270  12.435
22778W        W81874   9.737  42.898  13.433
22779W        W81875   9.389  21.576   3.749
22780W        W81876  14.759   5.239   4.341
22781W        W81877  41.824  44.356  13.541
22782W        W81878   8.804   9.831   4.784
22783W        W81879  31.455  21.696  14.996
22784W        W81880  35.558  22.228   2.352
22785W        W81881  21.046  37.526   3.634
22786W        W81882  18.776  16.112   2.373
22787W        W81883   4.701  38.052  14.806
22788W        W81884  43.981  16.799   0.808
22789W        W81885  31.148  18.722  13.827
22790W        W81886  16.192   2.457   2.774
22791W        W81887   6.901  27.989  13.953
22792W        W81888  21.203   5.874   5.246
22793W        W81889  44.397   5.382  11.011
22794W        W81890   6.847  41.819  13.320
22795W        W81891  35.522   5.206  12.525
22796W        W81892  34.938   8.283  14.812
22797W        W81893  38.847  12.783  10.915
22798W        W81894  44.281  30.966   2.265
22799W        W81895   8.404  32.970   3.217
22800W        W81896   8.845  43.296  12.891
22801W        W81897  31.645  40.003   1.727
22802W        W81898   5.764  40.351   3.232
22803W        W81899  23.681  44.970   0.418
22804W        W81900  28.036  12.666   4.124
22805W        W81901  34.922  23.592  13.542
22806W        W81902  43.897  21.225   4.677
22807W        W81903  44.389  13.693   1.439
22808W        W81904   6.860  11.332   3.323
22809W        W81905  17.671  33.016  11.479
22810W        W81906  29.453  30.001  10.521
22811W        W81907  41.496  39.346  11.120
22812W        W81908  40.005   2.873   4.136
22813W        W81909  21.530   9.187   3.192
22814W        W81910   0.878  38.996   1.835
22815W        W81911  34.409  32.900   4.274
22816W        W81912  32.139  19.215  12.863
22817W        W81913  10.264  44.302   5.084
22818W        W81914  27.610  39.398  10.529
22819W        W81915  38.445   6.677  13.443
22820W        W81916  25.556  37.908  12.882
22821W        W81917  20.108   5.710   1.837
22822W        W81918   7.347  29.925  14.992
22823W        W81919  29.589  30.656   9.952
22824W        W81920  15.187  40.474  14.289
22825W        W81921  16.289  43.779   2.306
22826W        W81922  19.613  31.514   3.671
22827W        W81923   4.910  44.979   1.847
22828W        W81924  30.519  39.488  10.904
22829W        W81925  42.500  43.865  14.790
22830W        W81926  25.136  29.156  12.856
22831W        W81927  32.894  25.985  10.465
22832W        W81928   4.361  22.110  10.427
22833W        W81929  27.456  13.730  14.030
22834W        W81930  39.854  24.640   0.881
22835W        W81931  19.701  19.643  10.541
22836W        W81932  34.095  40.893  14.766
22837W        W81933  32.576  22.177  11.928
22838W        W81934  42.508  24.037  10.420
22839W        W81935  38.076   7.241  13.347
22840W        W81936  10.678  25.701  13.913
22841W        W81937  31.899  18.661   0.244
22842W        W81938  17.210  11.823  13.049
22843W        W81939  21.694  33.409  11.982
22844W        W81940  14.703  10.717   1.715
22845W        W81941  16.245  17.756  10.958
22846W        W81942  44.894  17.141   0.329
22847W        W81943   1.789  13.285   1.377
22848W        W81944  21.058   9.683  10.943
22849W        W81945  42.520  28.107  11.511
22850W        W81946  34.097  43.806  11.115
22851W        W81947  43.877   2.434   1.876
22852W        W81948   2.852  38.534  12.531
22853W        W81949  37.376   5.422   2.746
22854W        W81950  39.381  39.960  11.102
22855W        W81951  44.318  13.690  10.971
22856W        W81952  31.066  35.360   3.293
22857W        W81953  44.426  25.639   5.131
22858W        W81954  19.592   5.426  12.451
22859W        W81955   2.247  12.126   1.858
22860W        W81956  35.986  25.969  12.922
22861W        W81957  19.738  35.559  13.986
22862W        W81958  29.559  39.013   0.883
22863W        W81959  41.856  18.153  12.006
22864W        W81960   5.207   3.719   1.810
22865W        W81961   5.420  26.093   4.677
22866W        W81962  36.015  12.764  14.990
22867W        W81963   0.293  19.732   3.314
22868W        W81964  44.791  33.535   0.363
22869W        W81965  20.046  27.111  11.022
22870W        W81966  13.618  30.919   4.207
22871W        W81967  43.899  30.491  14.899
22872W        W81968  33.498  40.317  10.487
22873W        W81969  26.599  40.424   0.898
22874W        W81970  16.227   3.941  12.987
22875W        W81971  18.724  31.032   1.841
22876W        W81972  26.076  23.221   4.311
22877W        W81973  37.363  19.704  13.967
22878W        W81974  17.797  18.268   1.923
22879W        W81975  30.463  31.949  13.987
22880W        W81976   2.881  33.888   4.316
22881W        W81977  18.616   3.774  12.016
22882W        W81978  24.691   3.421  10.960
22883W        W81979  44.818  42.901  12.088
22884W        W81980  20.764  39.439  11.446
22885W        W81981  16.705  32.898   2.731
22886W        W81982  27.964  34.988  12.420
22887W        W81983   8.162  26.659   2.813
22888W        W81984  30.124  15.116  13.461
22889W        W81985  36.027  35.421  11.439
22890W        W81986  33.503  14.650   3.369
22891W        W81987  27.019   1.481   1.702
22892W        W81988  39.385   9.315   4.616
22893W        W81989  36.855   9.751  14.849
22894W        W81990  44.809  30.964   0.403
22895W        W81991   6.747  38.447  12.387
22896W        W81992  31.542   9.357   1.905
22897W        W81993  31.631  13.190   0.894
22898W        W81994   3.457  19.201  11.920
22899W        W81995   0.431  33.050  14.487
22900W        W81996  38.005  17.154  13.960
22901W        W81997  40.920  31.502   1.218
22902W        W81998   1.394  23.103  10.445
22903W        W81999  19.125   5.431  11.602
22904W        W82000  25.080  15.187  12.457
22905W        W82001  23.034  16.114   4.156
22906W        W82002  24.125  40.395  11.994
22907W        W82003   8.895  20.130  11.558
22908W        W82004  43.765  22.628   2.678
22909W        W82005  32.608  34.921   4.132
22910W        W82006  14.833  35.492  13.464
22911W        W82007  27.492  24.656  11.391
22912W        W82008  31.934  11.854   4.603
22913W        W82009   4.367  15.184  11.096
22914W        W82010   9.871  40.836   2.403
22915W        W82011  29.543  35.094   1.898
22916W        W82012  11.261   7.693   2.212
22917W        W82013  24.131  21.695   0.445
22918W        W82014  18.169  23.005   1.902
22919W        W82015  33.073  34.371  12.909
22920W        W82016   9.324  15.659   2.212
22921W        W82017  20.241  39.539   3.871
22922W        W82018  41.452   6.887   4.233
22923W        W82019  29.612  15.127   2.361
22924W        W82020  21.084  27.647   2.724
22925W        W82021   1.376  40.868   2.322
22926W        W82022  20.707  38.855  12.001
22927W        W82023  28.089   6.237  13.449
22928W        W82024  17.619   6.773  14.334
22929W        W82025  18.177  32.917   1.886
22930W        W82026  16.689   0.766   2.684
22931W        W82027  21.674  14.137  12.502
22932W        W82028  13.764  31.436  14.814
22933W        W82029  42.443  10.191  11.910
22934W        W82030  28.546  23.626  10.576
22935W        W82031  26.052   0.285   1.373
22936W        W82032  25.632  12.708  12.502
22937W        W82033  42.352  10.815  11.484
22938W        W82034  33.118   4.911   2.404
22939W        W82035  26.485  11.682   0.818
22940W        W82036  22.027  11.332  12.087
22941W        W82037  41.433  13.676   4.619
22942W        W82038  21.204  20.194  12.032
22943W        W82039  16.791  17.633  12.884
22944W        W82040  27.993  18.727  13.805
22945W        W82041  42.419  28.131   4.791
22946W        W82042  19.217  31.019   4.776
22947W        W82043  37.569  17.228   4.799
22948W        W82044  33.567  13.138  13.895
22949W        W82045   7.174  35.997  14.370
22950W        W82046  10.713  40.304  13.473
22951W        W82047  21.528  44.451  11.408
22952W        W82048  42.829  33.402  10.491
22953W        W82049  16.709  18.253  10.610
22954W        W82050   6.421  41.466  10.014
22955W        W82051  24.542  24.050  11.951
22956W        W82052  41.869  24.481   2.753
22957W        W82053  22.709  40.933   4.313
22958W        W82054  25.630   2.300   3.279
22959W        W82055  29.654  17.686   1.449
22960W        W82056   3.728  37.078   0.896
22961W        W82057  24.668  14.771   3.184
22962W        W82058  39.560  29.473   2.725
22963W        W82059  20.696  13.797  14.399
22964W        W82060  23.511  26.021   4.726
22965W        W82061   0.900  13.746  13.475
22966W        W82062  17.792   5.212   3.808
22967W        W82063  39.456  29.532  10.517
22968W        W82064  43.923  43.918   1.760
22969W        W82065  23.734  42.810   4.182
22970W        W82066  32.067  36.347  11.036
22971W        W82067  33.033   0.981   3.821
22972W        W82068   4.785  25.038  13.339
22973W        W82069   6.876   7.717  13.314
22974W        W82070  13.180  13.281   0.959
22975W        W82071  18.278   8.862  11.516
22976W        W82072  31.572  18.246  13.330
22977W        W82073  18.550  14.811   2.202
22978W        W82074  37.392  31.563  14.966
22979W        W82075  37.026  39.511   1.739
22980W        W82076  40.990  25.099   1.441
22981W        W82077   9.751  36.924   2.847
22982W        W82078  18.175  34.513  11.410
22983W        W82079  13.643  29.603   0.756
22984W        W82080  40.961  35.937  13.045
22985W        W82081  41.507  30.070   4.600
22986W        W82082  16.756   6.268   2.761
22987W        W82083  25.023  14.616   0.320
22988W        W82084  40.026  42.465   0.859
22989W        W82085  28.146  41.961   0.824
22990W        W82086   8.185   6.370  13.314
22991W        W82087  22.136  31.464   0.737
22992W        W82088  40.463  39.369  11.919
22993W        W82089  40.331  23.230  13.058
22994W        W82090  30.507   9.735   3.297
22995W        W82091   3.379   3.363  12.436
22996W        W82092  16.292  22.081   2.293
22997W        W82093  10.376  44.882   1.823
22998W        W82094  17.797  42.363   4.354
22999W        W82095   4.443   6.697  14.944
23000W        W82096  14.611  35.400  10.407
23001W        W82097  29.067  34.442   9.947
23002W        W82098  40.323   5.240   1.228
23003W        W82099  19.612   5.811  13.857
23004W        W82100  36.941  17.790   4.230
23005W        W82101  11.785   1.748   3.649
23006W        W82102  21.733  42.993  12.993
23007W        W82103   4.816  34.568   0.801
23008W        W82104  36.521  25.091  12.432
23009W        W82105  39.932  30.949   2.744
23010W        W82106  26.495  22.158   1.931
23011W        W82107   2.902   4.418  10.600
23012W        W82108  32.912  17.641   0.243
23013W        W82109   1.314  27.000  12.826
23014W        W82110  18.202  25.026   5.129
23015W        W82111  35.491  41.019   1.222
23016W        W82112  32.002  38.996  10.623
23017W        W82113  18.629  33.500  10.107
23018W        W82114  20.132  17.097   3.669
23019W        W82115  28.632   7.400   3.183
23020W        W82116  15.185  22.216  14.400
23021W        W82117  26.124  41.355   3.676
23022W        W82118  37.916  23.672  10.946
23023W        W82119   4.299  32.602  13.803
23024W        W82120  17.688  12.339   1.726
23025W        W82121  17.608  40.517  11.553
23026W        W82122  39.340   5.203  10.952
23027W        W82123  22.647  36.560  12.353
23028W        W82124  39.373  32.111   4.813
23029W        W82125  25.701  36.966   0.784
23030W        W82126  28.122  13.236  14.955
23031W        W82127  23.079  15.186   3.219
23032W        W82128  22.553  30.093  14.998
23033W        W82129   5.387   4.801  11.418
23034W        W82130  19.731  10.821  14.842
23035W        W82131  17.618  30.019  11.528
23036W        W82132  10.156  31.962   0.917
23037W        W82133  43.897  41.526  14.912
23038W        W82134  27.965  37.439  12.047
23039W        W82135   7.204   1.867  13.892
23040W        W82136  12.341   4.296   2.191
23041W        W82137  28.660  25.691  12.367
23042W        W82138  43.438   8.381  12.981
23043W        W82139  35.545  41.019   2.405
23044W        W82140  38.930  44.298   0.950
23045W        W82141  21.698  42.961  10.903
23046W        W82142  34.453  10.803   0.869
23047W        W82143  23.239  26.653  11.532
23048W        W82144  44.858  33.419   2.204
23049W        W82145   7.670  44.915   2.244
23050W        W82146  35.549  15.177   4.271
23051W        W82147  27.572   9.204   3.145
23052W        W82148  44.269  36.943   0.845
23053W        W82149  29.654  44.812  12.411
23054W        W82150  21.061   9.241  11.439
23055W        W82151  17.636  24.228  10.908
23056W        W82152  18.288  44.358   0.823
23057W        W82153  32.577  38.822  12.886
23058W        W82154  28.952  24.528  11.415
23059W        W82155   9.305  38.974   3.244
23060W        W82156  26.967   1.445  12.568
23061W        W82157   4.209  35.976   1.299
23062W        W82158  31.997  14.695  13.401
23063W        W82159  44.480  39.480   5.260
23064W        W82160  16.311  13.345   4.649
23065W        W82161  22.230  20.072  12.385
23066W        W82162  23.619  38.850   4.739
23067W        W82163  43.425   3.791   1.856
23068W        W82164  15.655  28.040   2.858
23069W        W82165  34.941   0.391  11.002
23070W        W82166  31.612   6.885   1.250
23071W        W82167  13.121  29.580   2.830
23072W        W82168   5.865   0.345   3.724
23073W        W82169  38.023  16.084  11.522
23074W        W82170   0.792  32.414  10.510
23075W        W82171  42.964  13.132   3.821
23076W        W82172  41.989  44.330  12.488
23077W        W82173  42.791  31.545  14.479
23078W        W82174  34.519  12.681  11.007
23079W        W82175   2.226  14.142  10.020
23080W        W82176  13.331  13.754   1.886
23081W        W82177  21.230  24.487   2.793
23082W        W82178  32.117   3.813  14.871
23083W        W82179  37.432  33.574   5.114
23084W        W82180  23.617   9.740   0.812
23085W        W82181  10.748  44.426   4.203
23086W        W82182  24.002   5.268  12.004
23087W        W82183  22.525  43.480  11.052
23088W        W82184  19.259  34.039  14.831
23089W        W82185  20.233  34.557   0.432
23090W        W82186  30.068   1.954   2.807
23091W        W82187   2.269  20.144  13.861
23092W        W82188  28.619   4.306  10.965
23093W        W82189   8.795   1.247   3.696
23094W        W82190  13.342  44.880  12.535
23095W        W82191  35.426   4.751  10.507
23096W        W82192   1.284  42.388   4.158
23097W        W82193  14.682  32.071   2.389
23098W        W82194  30.078  13.609   1.394
23099W        W82195  22.100  32.067   2.678
23100W        W82196  37.049  34.465   0.788
23101W        W82197  32.548   8.671  14.995
23102W        W82198  16.673  41.953   0.893
23103W        W82199  16.212   7.700   4.649
23104W        W82200   0.984  17.179   5.156
23105W        W82201   0.978  26.512   1.387
23106W        W82202  40.835   0.962  14.836
23107W        W82203   0.967  39.555   4.255
23108W        W82204   6.205  12.133  13.999
23109W        W82205  44.962  38.389   0.918
23110W        W82206  25.009  38.939   3.647
23111W        W82207  39.044  18.649   2.739
23112W        W82208  40.852  34.531  10.511
23113W        W82209  30.481  19.628   2.770
23114W        W82210  38.004  20.232  11.946
23115W        W82211  22.644   2.373  10.481
23116W        W82212  33.036   6.878  14.503
23117W        W82213  24.091  19.139  12.009
23118W        W82214  35.428  34.564   0.454
23119W        W82215  11.244  43.962   0.404
23120W        W82216  42.416  10.826  12.392
23121W        W82217  38.329  22.205  14.913
23122W        W82218   4.891  10.794  13.498
23123W        W82219   5.740  31.579   0.437
23124W        W82220  14.126  35.036   0.253
23125W        W82221  26.970  44.296  11.084
23126W        W82222   5.843  14.773   4.648
23127W        W82223  12.849  38.872   4.782
23128W        W82224  24.175  37.571   3.300
23129W        W82225  16.150   1.838  14.867
23130W        W82226  10.688   2.765  12.017
23131W        W82227   8.856  26.987   1.697
23132W        W82228  33.065  40.013   1.806
23133W        W82229   6.399  25.482  12.453
23134W        W82230  40.799   0.814  11.441
23135W        W82231   7.684  29.033  14.882
23136W        W82232  21.239  36.055  14.508
23137W        W82233  33.394  31.923   3.190
23138W        W82234  30.604  22.719   4.171
23139W        W82235   0.862   3.316   0.357
23140W        W82236  18.162   6.228   4.232
23141W        W82237   1.361  29.956  11.917
23142W        W82238  32.435   3.423   0.336
23143W        W82239  27.604  12.347  14.505
23144W        W82240  23.214  17.233  13.972
23145W        W82241  20.572  15.632   3.865
23146W        W82242  12.269  13.219  13.027
23147W        W82243  30.422  18.571   1.434
23148W        W82244   2.883  24.565   2.769
23149W        W82245  24.194   8.273   3.230
23150W        W82246  42.966   9.825   1.375
23151W        W82247  40.045  41.915   3.816
23152W        W82248   3.813   3.446   4.791
23153W        W82249   8.169  24.713  12.086
23154W        W82250  40.533   2.963  11.449
23155W        W82251  38.967   1.397   0.408
23156W        W82252   0.799  12.184  13.516
23157W        W82253  36.950  18.688  12.540
23158W        W82254  13.227   6.906  14.866
23159W        W82255  40.544  18.277  12.086
23160W        W82256  14.748  21.169   9.990
23161W        W82257  35.564   3.841  10.446
23162W        W82258   1.759  42.876  11.877
23163W        W82259   2.278  27.647   4.234
23164W        W82260   9.251   3.396  14.782
23165W        W82261  17.622  18.687   4.700
23166W        W82262  29.012  30.566  12.044
23167W        W82263   6.274  14.630   0.917
23168W        W82264   7.249  26.583  13.360
23169W        W82265  43.512  11.853   1.915
23170W        W82266   8.735  34.445   4.343
23171W        W82267  33.561  43.921  11.003
23172W        W82268  35.563  29.027  11.391
23173W        W82269   2.927  23.052  13.470
23174W        W82270   1.465   5.235   0.340
23175W        W82271  29.608  25.470   2.714
23176W        W82272  17.203   1.926  10.047
23177W        W82273  42.452  32.422   3.702
23178W        W82274  19.704  23.534  11.894
23179W        W82275  31.967  12.360  14.824
23180W        W82276  32.051   7.702   0.290
23181W        W82277  43.463  19.258   2.320
23182W        W82278   4.842  20.617  10.622
23183W        W82279   0.811  17.264   3.641
23184W        W82280  26.516  15.193  13.025
23185W        W82281  19.066  21.102  10.459
23186W        W82282  12.677  33.067  11.047
23187W        W82283  43.808  26.606  12.040
23188W        W82284  28.613   7.182   0.270
23189W        W82285  16.779  29.171  11.857
23190W        W82286   4.269  12.188   0.740
23191W        W82287  39.995   8.784   1.807
23192W        W82288  16.294  24.639   2.888
23193W        W82289  36.020  29.647  11.402
23194W        W82290  25.659   4.412  11.956
23195W        W82291  20.252   9.164  13.526
23196W        W82292  26.151   6.877   3.673
23197W        W82293   1.740  30.500  14.912
23198W        W82294   8.332  18.654   3.298
23199W        W82295  29.036  20.580   0.311
23200W        W82296  25.985  37.352  12.879
23201W        W82297  12.139   8.896   2.337
23202W        W82298  11.770  17.183   1.302
23203W        W82299  43.487  33.096  12.060
23204W        W82300  22.081  27.940   4.260
23205W        W82301   3.893   3.785  14.395
23206W        W82302  40.395  43.829  11.396
23207W        W82303  30.533  20.172   0.941
23208W        W82304  11.360   1.388   2.324
23209W        W82305  21.219  21.020   4.813
23210W        W82306   5.834  26.587   3.737
23211W        W82307   3.930  21.244   1.838
23212W        W82308   8.390   3.824   4.697
23213W        W82309  42.292  30.054   3.304
23214W        W82310  23.132  29.969   3.699
23215W        W82311  31.106  14.694  14.883
23216W        W82312  13.253  40.543   3.243
23217W        W82313   9.204   3.334  12.514
23218W        W82314   2.370  39.823  13.473
23219W        W82315   4.447  35.019   0.472
23220W        W82316   0.852   9.660   0.287
23221W        W82317  36.075  16.223  14.947
23222W        W82318  16.272   5.887   2.259
23223W        W82319  42.291  12.712  10.538
23224W        W82320  26.522  40.929  11.592
23225W        W82321  37.484   4.837  14.901
23226W        W82322   8.892   9.833   3.794
23227W        W82323  19.203   2.967   0.395
23228W        W82324  35.004  33.410  12.967
23229W        W82325   3.307  44.469  12.533
23230W        W82326  18.286  18.063   0.809
23231W        W82327   0.767   9.824   2.688
23232W        W82328  20.761  39.407   2.795
23233W        W82329   4.239  29.056   1.758
23234W        W82330  39.456   8.172   4.228
23235W        W82331  37.058  37.987   4.304
23236W        W82332  35.956  29.496   2.319
23237W        W82333  43.516  10.825  10.518
23238W        W82334  41.905  33.910   0.468
23239W        W82335  37.482  44.260  13.848
23240W        W82336  19.170  28.504   1.871
23241W        W82337  13.768  34.107   1.808
23242W        W82338  15.087  39.960  13.059
23243W        W82339  32.142   3.279   2.828
23244W        W82340  39.456  22.034  13.840
23245W        W82341  40.868  22.507  12.502
23246W        W82342  33.885  12.262  12.561
23247W        W82343  21.524  33.562  13.812
23248W        W82344   4.850  37.873   0.816
23249W        W82345  38.033  40.405   3.282
23250W        W82346   3.375  30.999   3.686
23251W        W82347  24.218  32.451  13.419
23252W        W82348   4.278  22.111  14.853
23253W        W82349  33.427  35.408  12.341
23254W        W82350  17.691  24.497  10.453
23255W        W82351  26.986  30.932   3.153
23256W        W82352  22.072  26.576  11.573
23257W        W82353  19.662  18.759   4.821
23258W        W82354  37.486   1.293   2.212
23259W        W82355  24.044  36.532   2.709
23260W        W82356  12.769  12.261  13.801
23261W        W82357  21.167  42.892  12.374
23262W        W82358  31.999  35.599  12.961
23263W        W82359  10.783   2.762   3.713
23264W        W82360  29.945  13.651   4.255
23265W        W82361  32.918  28.503   4.613
23266W        W82362   1.313  38.425  14.909
23267W        W82363   9.260   1.753  10.642
23268W        W82364  27.044  13.178   2.796
23269W        W82365  24.514  10.258   2.729
23270W        W82366   5.928  36.040  14.876
23271W        W82367  30.501  24.661   1.391
23272W        W82368  31.082  38.870   4.337
23273W        W82369  22.515  40.364  13.330
23274W        W82370   0.815  27.642   2.324
23275W        W82371  12.142  30.482  14.347
23276W        W82372  26.466  29.088   2.705
23277W        W82373  15.637  27.131  10.998
23278W        W82374  18.112   4.816  12.947
23279W        W82375  31.128  34.506   4.658
23280W        W82376  42.894  40.411   2.222
23281W        W82377  22.135  24.164   2.383
23282W        W82378  36.436  42.486   2.283
23283W        W82379  29.090  28.543   1.923
23284W        W82380   0.388  10.805  14.909
23285W        W82381  35.971  17.129   3.309
23286W        W82382  39.457   3.252  11.977
23287W        W82383  43.408   1.261  11.948
23288W        W82384  35.597   1.801  11.916
23289W        W82385  19.686  44.845   2.350
23290W        W82386  33.516  24.719  13.448
23291W        W82387  13.803  24.600   0.428
23292W        W82388  26.976   9.228   0.891
23293W        W82389   5.234  28.442   0.330
23294W        W82390  34.049  12.346  13.426
23295W        W82391  25.028  33.054   3.768
23296W        W82392  20.268   3.271   3.384
23297W        W82393  29.480   3.256  14.007
23298W        W82394  19.158  11.190  14.504
23299W        W82395  19.588  41.521  13.804
23300W        W82396  19.190   0.380   3.354
23301W        W82397  28.448   3.714   3.242
23302W        W82398  12.134  22.223   1.810
23303W        W82399  14.146  10.790   0.800
23304W        W82400  41.372  33.116   4.779
23305W        W82401  23.156  12.738  14.404
23306W        W82402   5.788  13.122  12.082
23307W        W82403  10.240  11.193  12.965
23308W        W82404  24.123  32.519   1.217
23309W        W82405   4.219  24.717   2.755
23310W        W82406   0.387  33.011   3.231
23311W        W82407  43.492   4.342   2.895
23312W        W82408  39.055  14.817  13.481
23313W        W82409  12.216  19.764  14.856
23314W        W82410   6.752   6.809  14.965
23315W        W82411  35.047   8.259  13.926
23316W        W82412  24.006  39.346  10.479
23317W        W82413  16.793  14.738   1.736
23318W        W82414  22.066  38.878  14.842
23319W        W82415   5.908  42.839   3.376
23320W        W82416  29.099  27.521   1.722
23321W        W82417  17.214  44.390   1.927
23322W        W82418  43.010  39.526   1.436
23323W        W82419  17.713  26.168   1.694
23324W        W82420  39.975  22.011  10.551
23325W        W82421  37.358  22.574  12.055
23326W        W82422  24.641  40.812   3.241
23327W        W82423  14.592   9.650   1.289
23328W        W82424  24.573  25.490  11.396
23329W        W82425  13.286  10.334  11.032
23330W        W82426  44.376  15.116  12.953
23331W        W82427  26.578  18.720   2.722
23332W        W82428  38.353  35.931   4.325
23333W        W82429  12.773  22.595  10.947
23334W        W82430  16.799  41.304   4.736
23335W        W82431  38.389  38.033  11.450
23336W        W82432  30.531  22.608   0.370
23337W        W82433  29.449  16.213   4.790
23338W        W82434  36.043  10.143  14.483
23339W        W82435  13.185  17.726  13.891
23340W        W82436  20.035   0.829  11.449
23341W        W82437  12.277   3.821  11.907
23342W        W82438  10.777  21.580  12.441
23343W        W82439   6.886  11.791  10.488
23344W        W82440   1.975  37.357  10.453
23345W        W82441  12.773  29.540   3.835
23346W        W82442  44.264  38.838   4.599
23347W        W82443  39.896   2.442  12.055
23348W        W82444  34.496  32.007   3.198
23349W        W82445  32.579  33.918   0.805
23350W        W82446  11.758   1.891  11.454
23351W        W82447  15.144  21.563  11.375
23352W        W82448   7.261  18.258  13.458
23353W        W82449  14.788   4.376  12.358
23354W        W82450   1.455  25.164  11.459
23355W        W82451  12.328  34.502   4.711
23356W        W82452  39.411  27.035   3.346
23357W        W82453  19.574   1.791  13.484
23358W        W82454  29.646  43.334  13.809
23359W        W82455  28.049  10.265   1.354
23360W        W82456  33.109  10.315   1.365
23361W        W82457  37.472  15.823   0.372
23362W        W82458  41.320  27.535   0.953
23363W        W82459  17.150   8.256  11.033
23364W        W82460   0.338   9.752  11.024
23365W        W82461  12.630   4.350  14.468
23366W        W82462  24.152  20.651   1.365
23367W        W82463  16.184  28.169  14.378
23368W        W82464   2.926  35.431   4.323
23369W        W82465  29.613   8.839   5.293
23370W        W82466  31.044   8.749  10.010
23371W        W82467   8.742   6.386   4.614
23372W        W82468   3.940  26.640  10.453
23373W        W82469  34.055  26.541  11.574
23374W        W82470  42.988  25.042  12.376
23375W        W82471  36.393   7.208   3.265
23376W        W82472  21.663  10.813   0.419
23377W        W82473  18.630   9.279  13.941
23378W        W82474  33.612  42.997   3.356
23379W        W82475  41.013  41.021   0.917
23380W        W82476   5.817  33.959  10.619
23381W        W82477  11.713   0.809   2.357
23382W        W82478   8.663  23.673  10.605
23383W        W82479  24.551  28.048   4.215
23384W        W82480  38.027  27.571  10.422
23385W        W82481  23.078  20.522  12.392
23386W        W82482  35.540  35.872   0.374
23387W        W82483  38.962  43.959  10.544
23388W        W82484  38.043  31.002   0.739
23389W        W82485  31.521  21.198  14.481
23390W        W82486  25.584  10.715   3.675
23391W        W82487  12.836   7.368   3.245
23392W        W82488  10.336  10.849  12.413
23393W        W82489  44.337  42.319  10.511
23394W        W82490  32.106  31.486   1.819
23395W        W82491  38.499  15.173   3.820
23396W        W82492   0.477  44.954  13.791
23397W        W82493  31.988  40.540   0.424
23398W        W82494   6.333   2.295   4.163
23399W        W82495   1.259  30.036   2.778
23400W        W82496  15.285  43.381  12.543
23401W        W82497  41.847  33.011   2.275
23402W        W82498  10.839  27.516  12.464
23403W        W82499  44.008  21.513   1.216
23404W        W82500   1.288  10.744  13.798
23405W        W82501  26.954  27.686  14.024
23406W        W82502  16.311  28.947  11.586
23407W        W82503  11.160  34.935   3.834
23408W        W82504  19.099  42.021  11.873
23409W        W82505  11.722  15.111   5.204
23410W        W82506  36.419  32.926  12.441
23411W        W82507  43.808  33.446   3.697
23412W        W82508  28.620  39.964  11.421
23413W        W82509  41.296  37.339   2.875
23414W        W82510  43.346  23.202  12.011
23415W        W82511  17.118   2.926   1.916
23416W        W82512  38.903  20.060  13.365
23417W        W82513  29.090  12.245  11.869
23418W        W82514  24.567  41.815  11.557
23419W        W82515  20.117  44.262   2.769
23420W        W82516   0.808  19.117   1.278
23421W        W82517  12.311  35.524  10.979
23422W        W82518  18.282  41.850   1.309
23423W        W82519   8.194   7.379  11.073
23424W        W82520  23.155  22.605   2.319
23425W        W82521  15.123  36.890  14.284
23426W        W82522   5.742   0.868   2.382
23427W        W82523  40.496  40.041   1.385
23428W        W82524  30.643   4.816  11.935
23429W        W82525   5.278  40.850   1.429
23430W        W82526  36.555  19.194  12.086
23431W        W82527  24.112   6.372  13.333
23432W        W82528  36.471  17.662   3.677
23433W        W82529  26.567  44.325   0.387
23434W        W82530  15.089  37.970   0.952
23435W        W82531  37.496  15.112   5.569
23436W        W82532  44.282  34.074  11.959
23437W        W82533  20.146  24.979  11.859
23438W        W82534  32.121  38.484  12.357
23439W        W82535   5.236  16.801  12.507
23440W        W82536  10.702  37.016   4.657
23441W        W82537  12.747  31.955   3.853
23442W        W82538  40.415   8.882   0.338
23443W        W82539   6.270  13.305   2.330
23444W        W82540  38.419  39.411   4.153
23445W        W82541  34.947  21.537   4.704
23446W        W82542  42.382  35.431  14.027
23447W        W82543  34.424  28.039  12.985
23448W        W82544  40.800  33.891   0.252
23449W        W82545  39.976  24.545  13.529
23450W        W82546  16.732  24.631   0.416
23451W        W82547  41.435  33.875  14.000
23452W        W82548  13.601   1.413  11.447
23453W        W82549  14.220  14.288  14.450
23454W        W82550  41.016  31.625  11.542
23455W        W82551  43.487  41.332   0.791
23456W        W82552  21.204  11.641   1.766
23457W        W82553  41.453  38.400  11.439
23458W        W82554  43.470  12.165  13.381
23459W        W82555  26.555  40.981  10.935
23460W        W82556  39.887  30.476  10.987
23461W        W82557  16.662  25.478  13.839
23462W        W82558  12.264  21.114   0.851
23463W        W82559  43.484  16.153  14.005
23464W        W82560  13.274  33.443   4.721
23465W        W82561  35.977  24.074   1.339
23466W        W82562  24.706   5.360  14.417
23467W        W82563  40.904  35.990   4.801
23468W        W82564   5.220  43.420  13.365
23469W        W82565  27.981  15.587  14.860
23470W        W82566  15.321  15.200   9.933
23471W        W82567  35.524  28.612  14.929
23472W        W82568   0.888   2.445  14.820
23473W        W82569   9.889   3.744  11.524
23474W        W82570  24.228  27.046  11.445
23475W        W82571  35.054   9.876  14.769
23476W        W82572  16.203  26.137   3.652
23477W        W82573  15.606  11.281   0.938
23478W        W82574  16.136  34.418   2.683
23479W        W82575  43.789   7.405  14.018
23480W        W82576   0.313  36.373  14.370
23481W        W82577   2.274  19.580   1.229
23482W        W82578   8.226   2.443   4.310
23483W        W82579  36.419  20.037   1.699
23484W        W82580  20.112   2.425  11.418
23485W        W82581  37.406  31.092  14.919
23486W        W82582  31.060  36.529  14.925
23487W        W82583  29.438  28.501   3.850
23488W        W82584  37.858  35.555  14.326
23489W        W82585  19.738  25.966  13.866
23490W        W82586   0.970  35.418  11.600
23491W        W82587  35.054  23.500   0.829
23492W        W82588  20.654   4.336   0.734
23493W        W82589  42.420  20.181   1.392
23494W        W82590  10.309   3.752  13.453
23495W        W82591   5.303  38.389   4.164
23496W        W82592   3.955  20.075  11.097
23497W        W82593  38.513  43.938   2.821
23498W        W82594  43.817  44.329   3.793
23499W        W82595   1.832  12.172  13.982
23500W        W82596  33.099  26.187   0.834
23501W        W82597   2.426  29.121  12.397
23502W        W82598  24.097  32.111  13.350
23503W        W82599  42.796  19.103  13.405
23504W        W82600  29.609   7.889  12.438
23505W        W82601  42.303   4.743   4.642
23506W        W82602  16.785  34.521   9.987
23507W        W82603   4.922  24.230  12.380
23508W        W82604  34.562  21.632   1.438
23509W        W82605  27.587   0.422   2.383
23510W        W82606  23.985  25.632   2.831
23511W        W82607  34.006   6.738   3.656
23512W        W82608   4.838  33.462   0.421
23513W        W82609   6.830  26.556   4.335
23514W        W82610  21.595  34.917  12.858
23515W        W82611  24.711   8.767   3.386
23516W        W82612  35.101  23.221  10.411
23517W        W82613   9.254  31.905  11.051
23518W        W82614  25.132  30.449   3.185
23519W        W82615  23.002  36.456   0.944
23520W        W82616  27.643  44.976   2.678
23521W        W82617  44.966  27.543   0.870
23522W        W82618  15.776  33.109   2.178
23523W        W82619  28.599  27.584   3.737
23524W        W82620  18.623  19.610  12.032
23525W        W82621  39.961  35.971   3.262
23526W        W82622  41.817  19.243   2.822
23527W        W82623  37.942   1.437   0.480
23528W        W82624  25.004   2.432  14.314
23529W        W82625  24.136  10.748   1.212
23530W        W82626  10.170  38.851  12.447
23531W        W82627  16.739  44.456   3.340
23532W        W82628  12.817  28.502  14.961
23533W        W82629  39.376  40.883   0.322
23534W        W82630   6.279   1.246  10.567
23535W        W82631  36.885  38.519   0.355
23536W        W82632  43.470  30.415   4.605
23537W        W82633   3.842   4.829  13.411
23538W        W82634  12.683  37.376   2.860
23539W        W82635  38.925  13.798  14.007
23540W        W82636   4.323  33.056  14.953
23541W        W82637   5.689  26.199   1.248
23542W        W82638  35.420   4.289   4.701
23543W        W82639  25.697  10.873  12.342
23544W        W82640   3.834   8.657   5.294
23545W        W82641   0.968   1.963   4.801
23546W        W82642  30.020  30.077   0.385
23547W        W82643  16.593  23.087  13.794
23548W        W82644  26.160  32.032  10.921
23549W        W82645  11.301  32.947  13.458
23550W        W82646  33.512   6.746  12.425
23551W        W82647  36.040  42.428   3.730
23552W        W82648   4.316   0.362  14.850
23553W        W82649   1.766  26.636   0.733
23554W        W82650  22.637   2.257  11.100
23555W        W82651  35.417  42.946   4.739
23556W        W82652  43.398  31.149   4.611
23557W        W82653  17.252  33.441   3.682
23558W        W82654  26.649   1.331  11.591
23559W        W82655   1.361  44.337  12.961
23560W        W82656   7.330  34.482  13.491
23561W        W82657  37.915  26.168  10.512
23562W        W82658  14.200  14.151  11.871
23563W        W82659  19.704  21.685   3.340
23564W        W82660  30.013  43.804  13.438
23565W        W82661   2.734   2.394  14.341
23566W        W82662  37.952  26.973   2.325
23567W        W82663  37.466  32.474  14.439
23568W        W82664  30.010  35.374   3.161
23569W        W82665  25.184   3.362   0.481
23570W        W82666  11.657  10.677   0.327
23571W        W82667  36.043  43.819  13.003
23572W        W82668  13.277  17.224   0.784
23573W        W82669   5.867  35.559  12.447
23574W        W82670  43.350   2.816  14.956
23575W        W82671  21.532   0.783   1.450
23576W        W82672  39.530  17.755  11.955
23577W        W82673  23.537  26.951  13.965
23578W        W82674  17.634  36.396   1.404
23579W        W82675  18.700  38.972   0.353
23580W        W82676  29.940  16.617   0.919
23581W        W82677  23.095  27.590   4.787
23582W        W82678  22.692  12.298   3.214
23583W        W82679  42.353  27.093   4.200
23584W        W82680  21.209  10.740   2.350
23585W        W82681  14.110  24.657   2.862
23586W        W82682  38.554  20.197  14.343
23587W        W82683   4.251  39.045  11.961
23588W        W82684  21.120  37.476  13.971
23589W        W82685  23.681  11.367   0.760
23590W        W82686   7.237  20.177  12.978
23591W        W82687  37.990  15.790  10.422
23592W        W82688  22.056  17.213  13.395
23593W        W82689  13.829  28.661  11.936
23594W        W82690  44.933  26.561  13.340
23595W        W82691  11.231  27.635  12.842
23596W        W82692  24.546  26.060   0.459
23597W        W82693  26.163  21.706  14.508
23598W        W82694  40.913  44.875  14.915
23599W        W82695  10.719  20.572  13.472
23600W        W82696  34.609  16.600   1.931
23601W        W82697  26.093  28.491  11.428
23602W        W82698  32.439  10.200  14.880
23603W        W82699  41.399  13.812   0.363
23604W        W82700  38.901   6.310   1.716
23605W        W82701  28.478   0.879   0.373
23606W        W82702  30.038  39.926   1.863
23607W        W82703  36.363   1.421  14.824
23608W        W82704   2.269  42.964   5.163
23609W        W82705  17.171  29.637  14.858
23610W        W82706  42.788  39.060   4.267
23611W        W82707   5.419  10.777  14.353
23612W        W82708  13.611  33.620  11.960
23613W        W82709  35.373  26.680   1.340
23614W        W82710  33.005  35.459   1.449
23615W        W82711  12.334  11.273   1.241
23616W        W82712   8.850   4.273  11.505
23617W        W82713  39.998  37.041   3.810
23618W        W82714  44.459  27.024   1.450
23619W        W82715  26.094  32.888   1.741
23620W        W82716  13.827   6.778  14.420
23621W        W82717  42.877   6.293   0.253
23622W        W82718  18.570  43.451   1.326
23623W        W82719  42.416  14.831  13.853
23624W        W82720  30.164  25.612   5.686
23625W        W82721  18.179  41.304  10.943
23626W        W82722  15.328  32.537   2.790
23627W        W82723   8.693  28.527   4.277
23628W        W82724  27.649  41.037   4.156
23629W        W82725  26.202  28.937   2.394
23630W        W82726  41.392  27.447  14.006
23631W        W82727  41.331  40.369  11.101
23632W        W82728   7.251  39.988   4.821
23633W        W82729  44.449  38.998   0.919
23634W        W82730   4.208  44.376   2.210
23635W        W82731  40.484  30.015   0.809
23636W        W82732   8.312  18.589  10.430
23637W        W82733  17.653  40.949  14.494
23638W        W82734   5.344  40.908   2.375
23639W        W82735  33.544  38.914  13.804
23640W        W82736  25.220  25.998  13.875
23641W        W82737  33.426  28.572  12.361
23642W        W82738  36.482  35.013  10.452
23643W        W82739  31.916  35.395   2.880
23644W        W82740   2.856  30.522   4.127
23645W        W82741  12.193   5.281  11.996
23646W        W82742  20.554  23.097  14.847
23647W        W82743  25.536  30.587  10.540
23648W        W82744  24.526  20.094   1.402
23649W        W82745   1.293  37.576   0.253
23650W        W82746  18.268  34.919   2.769
23651W        W82747  22.142  10.877   0.753
23652W        W82748  30.530  20.169   3.238
23653W        W82749   2.754  43.378  10.412
23654W        W82750  21.656  14.262   0.752
23655W        W82751   7.792  32.439   3.844
23656W        W82752  38.826   0.385   0.426
23657W        W82753   7.256  15.131   4.218
23658W        W82754  12.819   9.210   3.814
23659W        W82755   0.875  12.301  13.802
23660W        W82756  44.387  16.652  10.026
23661W        W82757  20.571  22.171  13.388
23662W        W82758  28.166  31.110  10.042
23663W        W82759  38.495  43.883  11.928
23664W        W82760  23.568   6.383   2.377
23665W        W82761  39.445  11.321   2.360
23666W        W82762  25.081   6.226   2.756
23667W        W82763  21.577  41.006  14.925
23668W        W82764  37.365   0.289  13.325
23669W        W82765  19.552   1.446  13.013
23670W        W82766  35.479  34.585   4.293
23671W        W82767  42.884  35.037   0.340
23672W        W82768  23.630  36.367  13.830
23673W        W82769  31.900   1.380   4.147
23674W        W82770  22.033   7.253  14.326
23675W        W82771  30.504  15.221  10.922
23676W        W82772  12.305  36.392   0.821
23677W        W82773  34.963  20.708  11.926
23678W        W82774  39.423  14.792  12.462
23679W        W82775  41.502  38.017  12.446
23680W        W82776  28.584  34.388  12.555
23681W        W82777  42.868   7.396   4.219
23682W        W82778  24.182  17.801  12.400
23683W        W82779   9.234   5.881   2.269
23684W        W82780  42.367  22.235   4.735
23685W        W82781   0.800   8.824  14.015
23686W        W82782  36.515  20.602  13.012
23687W        W82783  13.306  26.152  10.888
23688W        W82784   2.382  16.117   3.685
23689W        W82785  44.380  23.545  12.574
23690W        W82786  32.049  28.992  10.056
23691W        W82787  31.109  14.820   2.377
23692W        W82788  36.845  43.333   4.666
23693W        W82789   0.313  44.388  14.345
23694W        W82790  39.053  39.557  10.968
23695W        W82791  19.547  36.445  12.517
23696W        W82792  28.543   6.725   1.787
23697W        W82793  41.330  19.775  10.896
23698W        W82794  25.546   6.262   3.377
23699W        W82795   4.704  28.497   1.326
23700W        W82796  32.606   5.208  12.551
23701W        W82797  23.005  42.784  10.597
23702W        W82798  30.599  22.522   2.198
23703W        W82799  22.088  32.047   3.192
23704W        W82800  37.875  17.622  14.961
23705W        W82801  33.919  24.655   0.434
23706W        W82802  16.134  38.465  12.990
23707W        W82803   5.763  17.723   2.258
23708W        W82804  19.096  14.276   3.262
23709W        W82805  12.225  20.178  11.919
23710W        W82806  36.991  16.725   9.495
23711W        W82807  37.002  20.100   1.898
23712W        W82808   9.219  16.227  13.008
23713W        W82809  32.458  42.372   3.354
23714W        W82810  19.590  23.180  13.343
23715W        W82811   8.668   0.892  14.389
23716W        W82812  21.189  29.175   3.661
23717W        W82813   3.358   6.368  13.885
23718W        W82814  40.871   9.155   3.841
23719W        W82815  41.473  18.235   2.327
23720W        W82816  28.121  27.477   3.649
23721W        W82817  20.041  12.800  14.977
23722W        W82818  33.511  15.735  12.979
23723W        W82819  34.924   9.269   0.922
23724W        W82820   3.843   8.848   1.874
23725W        W82821  25.049  19.199   1.438
23726W        W82822   8.206  25.062   0.748
23727W        W82823   5.868  39.473  14.453
23728W        W82824   5.699  36.575   4.182
23729W        W82825  32.398   9.785   4.164
23730W        W82826   1.965  37.408  13.480
23731W        W82827   1.253  36.484   3.356
23732W        W82828  11.836  11.330   1.210
23733W        W82829  15.688   8.210  10.584
23734W        W82830   1.821  24.585   2.871
23735W        W82831  16.247  34.585   0.894
23736W        W82832   5.353  29.008   4.815
23737W        W82833   9.723  33.056   2.374
23738W        W82834   5.773   7.342  12.344
23739W        W82835   6.296  23.074   2.345
23740W        W82836   2.439   6.862   2.378
23741W        W82837  43.784  32.135   1.829
23742W        W82838   4.873  32.575  12.015
23743W        W82839  39.466  17.679  12.846
23744W        W82840  13.742  10.794   0.283
23745W        W82841  12.644  21.712  14.832
23746W        W82842  12.122  38.942   2.379
23747W        W82843  39.912  42.982  11.965
23748W        W82844  19.064  16.099   3.215
23749W        W82845  24.638  26.114   1.833
23750W        W82846  22.201  36.469  12.887
23751W        W82847  25.172  16.721  12.521
23752W        W82848  13.796   5.230   4.334
23753W        W82849   0.771  42.521   0.945
23754W        W82850  38.019  20.038   2.231
23755W        W82851  31.020  44.004   1.837
23756W        W82852   4.821  36.966   1.934
23757W        W82853  43.385  32.610   3.231
23758W        W82854  39.848  27.032   0.918
23759W        W82855   6.334   3.240   4.268
23760W        W82856  43.852  43.932  11.077
23761W        W82857  36.984  42.340  13.831
23762W        W82858   7.733  44.328  10.404
23763W        W82859  39.361  42.321  11.523
23764W        W82860  24.983  22.037  11.988
23765W        W82861   0.386  13.602  11.531
23766W        W82862  22.608  32.531  12.502
23767W        W82863   3.934  15.706   4.153
23768W        W82864  24.981  10.693   1.845
23769W        W82865  20.712  21.551   4.830
23770W        W82866   9.867  12.121   0.312
23771W        W82867   5.728   5.770  14.794
23772W        W82868  32.046  15.819   0.864
23773W        W82869   2.849   7.281   3.220
23774W        W82870  27.513  32.543  14.929
23775W        W82871  38.447  29.978   4.287
23776W        W82872  40.502  14.242  12.036
23777W        W82873  34.890  21.159  14.779
23778W        W82874  28.176  16.796  12.084
23779W        W82875  23.694  31.965   3.348
23780W        W82876   6.898  27.526   1.893
23781W        W82877   6.889  33.429  13.531
23782W        W82878  28.084  37.452   0.828
23783W        W82879  38.895  18.750   1.781
23784W        W82880  18.753   8.301  12.945
23785W        W82881   8.850  33.082  11.566
23786W        W82882  41.438  35.948  12.845
23787W        W82883   9.804  11.182   0.818
23788W        W82884   3.381  30.624   0.412
23789W        W82885   7.398  14.705  10.576
23790W        W82886  28.942  15.587   0.399
23791W        W82887  44.411  18.579   0.882
23792W        W82888  27.521   5.901   3.331
23793W        W82889  30.586  22.185  11.603
23794W        W82890  44.391   9.845   2.336
23795W        W82891  34.077  26.625  12.358
23796W        W82892  40.437  42.874   3.703
23797W        W82893  28.456   5.878   2.713
23798W        W82894  40.941  11.729   5.788
23799W        W82895  21.581  11.325   0.900
23800W        W82896  43.008  29.997   2.813
23801W        W82897  30.521  31.949   1.712
23802W        W82898  42.932  19.552   1.850
23803W        W82899   4.776  44.415   2.271
23804W        W82900  18.117  35.926   2.834
23805W        W82901  25.666  16.788   2.847
23806W        W82902  12.178  13.840   1.893
23807W        W82903  40.987  11.195  13.542
23808W        W82904  39.428  40.915  12.875
23809W        W82905  32.496  30.651  11.546
23810W        W82906  29.071  39.054   1.425
23811W        W82907  42.283  35.500  12.050
23812W        W82908  34.397  20.163   2.385
23813W        W82909   8.171  44.979  10.928
23814W        W82910   9.201  28.006  10.087
23815W        W82911  16.566  25.472  14.792
23816W        W82912  43.428  43.300   3.840
23817W        W82913  28.113   9.661  13.940
23818W        W82914  36.459  10.367   3.310
23819W        W82915   8.243  24.229  10.595
23820W        W82916  33.579  31.079  14.854
23821W        W82917  21.217  19.111  14.454
23822W        W82918  29.954  34.512  14.283
23823W        W82919  35.470  44.325   3.729
23824W        W82920  20.740  22.094   1.759
23825W        W82921   8.354  12.821   2.415
23826W        W82922  17.792  38.364  14.974
23827W        W82923  29.448  30.019  10.952
23828W        W82924  23.191  43.894   0.461
23829W        W82925  21.549  26.621  10.488
23830W        W82926  37.489   7.242   0.760
23831W        W82927  37.852  12.361   3.655
23832W        W82928   8.748  37.969   2.308
23833W        W82929  43.344  11.160  12.453
23834W        W82930  32.934   8.295  14.010
23835W        W82931   0.769  24.584   2.304
23836W        W82932  38.925  17.720  12.832
23837W        W82933   7.366   8.233  11.959
23838W        W82934  11.295  42.963  10.902
23839W        W82935   2.251  16.643   4.745
23840W        W82936  36.955  18.681   1.904
23841W        W82937  33.529  35.904   2.346
23842W        W82938  32.460  19.579  10.889
23843W        W82939   4.718   8.214  12.504
23844W        W82940  16.152  36.916   1.336
23845W        W82941  38.328  33.474   4.159
23846W        W82942  23.610  16.283   2.398
23847W        W82943  35.885  24.556  12.024
23848W        W82944  39.417  15.705  12.564
23849W        W82945   0.357   7.219  14.295
23850W        W82946  12.137   7.719   3.209
23851W        W82947   0.949  32.908   1.302
23852W        W82948  11.623  14.210   5.601
23853W        W82949  38.835  34.013  12.014
23854W        W82950  21.244  27.022  14.875
23855W        W82951  40.898  35.446  10.531
23856W        W82952   2.237  37.430   4.645
23857W        W82953  12.158  42.839  13.006
23858W        W82954  24.705   0.436   2.742
23859W        W82955  32.968  13.688  13.805
23860W        W82956  21.653  13.257   9.605
23861W        W82957   0.984  36.430   0.819
23862W        W82958  11.828  20.767   0.931
23863W        W82959  30.461  20.029   4.323
23864W        W82960  34.994  34.474   2.353
23865W        W82961  32.921  37.033  14.353
23866W        W82962  14.308   8.769  14.899
23867W        W82963  30.433  42.021   1.737
23868W        W82964  13.187  34.905  14.286
23869W        W82965  27.592  16.575   4.326
23870W        W82966  32.118   0.787   3.253
23871W        W82967  37.034  18.229   1.377
23872W        W82968  24.520   4.438  10.509
23873W        W82969   7.713   0.409  13.026
23874W        W82970  26.669  18.649   1.298
23875W        W82971  41.456  27.514  10.983
23876W        W82972  26.490   3.765  10.444
23877W        W82973  25.531  23.011   1.785
23878W        W82974  28.034   6.703   2.184
23879W        W82975  40.343  10.355  11.609
23880W        W82976  18.183   9.383  13.001
23881W        W82977   4.286  41.381  14.482
23882W        W82978  36.482  39.854  12.881
23883W        W82979  19.263   0.773   0.289
23884W        W82980   2.830  43.893   2.344
23885W        W82981   3.304  31.481  12.446
23886W        W82982   9.254  22.059  11.027
23887W        W82983   8.799  24.500  12.491
23888W        W82984  16.650  13.691  10.426
23889W        W82985  34.412   4.903  11.948
23890W        W82986  42.400  33.486   3.854
23891W        W82987  32.471  29.940   2.357
23892W        W82988   0.371  25.210   4.305
23893W        W82989  29.080  20.213  11.593
23894W        W82990  26.628  35.065   2.684
23895W        W82991   3.459   8.868   3.671
23896W        W82992   1.367  43.830   2.372
23897W        W82993  13.175  27.603  11.979
23898W        W82994  39.505  28.173   1.440
23899W        W82995  30.013  40.447  12.406
23900W        W82996  37.537  36.991  10.433
23901W        W82997  29.444  21.527   0.250
23902W        W82998  27.119  11.835   1.262
23903W        W82999   7.297  28.933   0.856
23904W        W83000  19.745  36.872  14.956
23905W        W83001  17.711  18.152   4.645
23906W        W83002  32.036  38.829   4.649
23907W        W83003  41.864  18.595  14.292
23908W        W83004  44.502  43.502   2.392
23909W        W83005  41.351   5.304  12.932
23910W        W83006  21.712  34.535   4.115
23911W        W83007  20.635  12.143   3.730
23912W        W83008  35.103  30.001   0.470
23913W        W83009  31.955  10.841   2.710
23914W        W83010  41.819   5.404   0.909
23915W        W83011  36.923  15.650   5.247
23916W        W83012  33.585  25.599  14.428
23917W        W83013  40.974  10.698  13.373
23918W        W83014  27.086  12.774  14.987
23919W        W83015  24.144   1.786   0.436
23920W        W83016  39.862  17.673   4.709
23921W        W83017  14.162   1.760   3.328
23922W        W83018   2.837  40.442  13.382
23923W        W83019  14.724  42.406  12.558
23924W        W83020  27.494  24.574  14.876
23925W        W83021  19.220  10.673  13.021
23926W        W83022  41.014   4.245   3.252
23927W        W83023  11.622   1.819   5.159
23928W        W83024  25.084   9.394   3.206
23929W        W83025  17.175  21.740   1.755
23930W        W83026  25.505  41.320   0.470
23931W        W83027  12.263  31.463   2.235
23932W        W83028  34.417  29.504   1.821
23933W        W83029  19.690  14.601  14.851
23934W        W83030  17.746   5.779  13.967
23935W        W83031  31.068  10.158  13.998
23936W        W83032  29.963   1.407  12.096
23937W        W83033  12.784   2.790   2.393
23938W        W83034  13.819  11.281   4.205
23939W        W83035  12.701  41.036  11.111
23940W        W83036  34.445  19.102  12.014
23941W        W83037  30.035  35.983   3.798
23942W        W83038  14.293  14.806   2.205
23943W        W83039  27.996  24.716  11.488
23944W        W83040  18.768   0.988   0.408
23945W        W83041  37.441   3.732  14.373
23946W        W83042  24.646   2.957   2.405
23947W        W83043  15.677   4.717  10.594
23948W        W83044  30.040  15.767   2.382
23949W        W83045   2.845   0.286   2.372
23950W        W83046  38.384   0.281   0.283
23951W        W83047   3.854   4.386   3.646
23952W        W83048   7.394  30.635   4.309
23953W        W83049  14.237  23.118  14.860
23954W        W83050  17.169  12.244   4.342
23955W        W83051  26.191   4.876  12.401
23956W        W83052  26.076  36.842  14.462
23957W        W83053  13.270  32.510  11.935
23958W        W83054  10.855  39.917  12.886
23959W        W83055  30.998  42.498   4.671
23960W        W83056  36.385  36.521  11.447
23961W        W83057  34.936  29.631   1.319
23962W        W83058   0.266  20.558  14.949
23963W        W83059  26.004  33.550   4.822
23964W        W83060  36.374  29.966   4.606
23965W        W83061  10.783  30.151   9.624
23966W        W83062  37.356  40.922  13.828
23967W        W83063   8.799   2.877  14.015
23968W        W83064  17.745  41.324   1.737
23969W        W83065  28.027  44.323   3.818
23970W        W83066  13.674  17.197  12.847
23971W        W83067  43.934  24.229   3.757
23972W        W83068   5.766  44.893   0.261
23973W        W83069  40.920  16.606  12.869
23974W        W83070  20.556  15.725  14.340
23975W        W83071  29.478  20.040   3.765
23976W        W83072  32.556  13.831  13.351
23977W        W83073  31.604   8.204  10.611
23978W        W83074  15.744  44.355   4.327
23979W        W83075  12.649  38.448   3.736
23980W        W83076  43.450  16.608  13.422
23981W        W83077  30.144  10.371  12.091
23982W        W83078   5.301   1.854   3.676
23983W        W83079  26.158  18.684  12.420
23984W        W83080  12.745  32.461   5.154
23985W        W83081  29.078  10.750  13.906
23986W        W83082  43.333   1.251  14.359
23987W        W83083  12.132  39.408  13.517
23988W        W83084  29.990   9.794  10.581
23989W        W83085  20.684  34.403  10.105
23990W        W83086  31.606  35.511   2.310
23991W        W83087  12.774  35.002   2.871
23992W        W83088  20.124  11.160   2.733
23993W        W83089  31.937   4.726  10.485
23994W        W83090   2.851  24.526   5.667
23995W        W83091  12.622  13.613   2.298
23996W        W83092  40.394  19.153  13.450
23997W        W83093   5.913  23.558  11.077
23998W        W83094  19.666  24.579   4.241
23999W        W83095  27.488  42.894  14.466
24000W        W83096   4.898   3.364   0.856
24001W        W83097  17.671  17.270   0.887
24002W        W83098  21.601  24.078   0.777
24003W        W83099  33.014  40.945   0.940
24004W        W83100  11.152   5.720  11.522
24005W        W83101  19.612  11.136  11.978
24006W        W83102  19.556  41.788  11.573
24007W        W83103  43.969  17.754   2.367
24008W        W83104  16.238  41.943   3.674
24009W        W83105  17.266  38.338   0.335
24010W        W83106  19.667  13.683  10.565
24011W        W83107  42.414  35.480   1.405
24012W        W83108  34.612  13.685  10.945
24013W        W83109   5.414  26.667  14.793
24014W        W83110   6.718  21.579   0.393
24015W        W83111  28.453   0.956   2.215
24016W        W83112  36.925  34.529  11.983
24017W        W83113  38.504  17.765  13.990
24018W        W83114  39.883  19.173  14.872
24019W        W83115  40.975  15.639  14.500
24020W        W83116  22.522  31.053  13.846
24021W        W83117   8.670  29.607   0.253
24022W        W83118  10.818  15.709  14.960
24023W        W83119  41.872  30.428   2.750
24024W        W83120   5.700  23.036  12.921
24025W        W83121  36.939  15.132  14.284
24026W        W83122  28.639  30.473  14.802
24027W        W83123  15.773  31.136   1.417
24028W        W83124  34.928  34.985   3.681
24029W        W83125  25.494  19.625   2.393
24030W        W83126  36.019   4.851  10.528
24031W        W83127   4.326  14.228   4.777
24032W        W83128  28.932  38.382  13.499
24033W        W83129   9.835  13.772  11.545
24034W        W83130   9.241  14.728   3.243
24035W        W83131  19.691  25.163   4.798
24036W        W83132  19.079  16.578  14.950
24037W        W83133  37.003  31.608   3.756
24038W        W83134  31.132  39.520   1.814
24039W        W83135  44.810   3.282   3.235
24040W        W83136  42.358  37.061  13.923
24041W        W83137  11.784  43.859  12.352
24042W        W83138  32.574  12.610  13.816
24043W        W83139   0.763  18.191  13.526
24044W        W83140  11.374  13.221  11.593
24045W        W83141  29.449  23.511  11.510
24046W        W83142  36.010  23.633   5.291
24047W        W83143  14.683  21.585  10.555
24048W        W83144   1.328  28.518  10.572
24049W        W83145  29.144  44.970  12.377
24050W        W83146  13.670  10.195   3.844
24051W        W83147   4.385  14.660  11.572
24052W        W83148  26.116  10.164  11.954
24053W        W83149  39.971  25.137  11.005
24054W        W83150   3.952  26.578  13.483
24055W        W83151  15.692   6.750  13.015
24056W        W83152  10.279  13.182   4.630
24057W        W83153  34.475  42.975  13.358
24058W        W83154  17.593   1.739   3.828
24059W        W83155   8.751  10.246  13.446
24060W        W83156  15.146   7.759  10.558
24061W        W83157  25.070  41.858   4.134
24062W        W83158  38.460  21.082   1.913
24063W        W83159  31.066  29.018  12.920
24064W        W83160  32.553  37.520   1.923
24065W        W83161   0.985  29.008  13.944
24066W        W83162  21.734   3.452   0.729
24067W        W83163  33.013  33.470  14.848
24068W        W83164   7.317  42.486   3.799
24069W        W83165  30.540  12.853  12.886
24070W        W83166  33.412  11.339  11.907
24071W        W83167   2.386  24.649   4.660
24072W        W83168   4.892   5.698  11.515
24073W        W83169  19.206  39.816   5.249
24074W        W83170  34.430   5.278   0.851
24075W        W83171  24.538  21.600  12.992
24076W        W83172   6.346  22.062   0.279
24077W        W83173  27.476  35.445  14.505
24078W        W83174  23.685  32.537  10.960
24079W        W83175  20.183  11.344  13.368
24080W        W83176  20.592  20.622  14.904
24081W        W83177  31.131  32.063   5.180
24082W        W83178   7.905   4.743  12.046
24083W        W83179   1.836  41.971   3.716
24084W        W83180  25.196  20.638   2.195
24085W        W83181  19.215   2.788   1.896
24086W        W83182   8.296  27.188   2.804
24087W        W83183   3.843  23.186   2.781
24088W        W83184  42.451   7.863   0.846
24089W        W83185   5.714  22.236  10.419
24090W        W83186  43.461   6.411  11.882
24091W        W83187  10.715   3.341  10.642
24092W        W83188  21.197  31.540  14.465
24093W        W83189  28.563  26.205  12.830
24094W        W83190  44.338   2.406   0.378
24095W        W83191  22.095  21.739  14.900
24096W        W83192  30.552  19.219  12.358
24097W        W83193  33.060  37.982  13.943
24098W        W83194  33.546  14.267   0.429
24099W        W83195  30.465  25.627  13.341
24100W        W83196  12.238  30.586   2.814
24101W        W83197  26.696  10.365  11.519
24102W        W83198   9.286  35.108  13.520
24103W        W83199  33.106  25.082   0.438
24104W        W83200  36.570  36.517   1.812
24105W        W83201  42.283  42.345   3.195
24106W        W83202  25.556  29.514  11.901
24107W        W83203  19.229   8.841   3.289
24108W        W83204  28.981   3.716   3.641
24109W        W83205  12.665  36.852  14.854
24110W        W83206  23.054  11.750   2.799
24111W        W83207   1.251  15.592  12.038
24112W        W83208  17.137  21.611  11.541
24113W        W83209   9.344  36.358  14.803
24114W        W83210   0.930  38.426   0.398
24115W        W83211  17.276  14.768   3.188
24116W        W83212  36.377  13.276  10.974
24117W        W83213  38.364  10.737  10.615
24118W        W83214  25.563  17.778  11.916
24119W        W83215  44.965  40.358   2.902
24120W        W83216  19.554   7.710   2.821
24121W        W83217  27.645  43.900   4.698
24122W        W83218   4.364  34.479   3.300
24123W        W83219  26.686  27.461  13.038
24124W        W83220  34.527  36.585   0.893
24125W        W83221  36.424   1.889   1.906
24126W        W83222  21.618  43.294   0.863
24127W        W83223   3.265  11.284  13.363
24128W        W83224  24.119  44.387  12.476
24129W        W83225  41.933  23.023  12.369
24130W        W83226   7.393  24.214  13.414
24131W        W83227  36.974   3.238   4.313
24132W        W83228  32.458  33.585  14.762
24133W        W83229  28.484  38.077  14.308
24134W        W83230  13.808  38.950   0.838
24135W        W83231  31.419  36.482  13.475
24136W        W83232  32.988  36.533  10.964
24137W        W83233  33.536  27.576  10.933
24138W        W83234  13.248  32.466   4.597
24139W        W83235   1.320  32.011   4.653
24140W        W83236  29.156  23.520  14.953
24141W        W83237   8.655   0.858   4.330
24142W        W83238  22.082  31.639  11.873
24143W        W83239  20.055  32.937   1.432
24144W        W83240   5.292   7.750  11.425
24145W        W83241  24.578   9.261   0.927
24146W        W83242  44.978  40.976  14.509
24147W        W83243  17.662  22.531  10.479
24148W        W83244  37.957   8.239   4.349
24149W        W83245   2.401  23.161  10.548
24150W        W83246  31.051  18.571   4.172
24151W        W83247  19.137  36.873  13.519
24152W        W83248  38.485  23.694  11.858
24153W        W83249  22.595   0.253   3.270
24154W        W83250  12.189  30.109   0.420
24155W        W83251  19.759  32.604   4.794
24156W        W83252  29.163  16.739   2.271
24157W        W83253   7.712  27.462   1.927
24158W        W83254  36.863   1.420   4.649
24159W        W83255  42.843   7.822   5.288
24160W        W83256  40.829  30.637  13.970
24161W        W83257  37.563  42.392   0.733
24162W        W83258   9.817   6.859   4.249
24163W        W83259   4.708  27.606  14.990
24164W        W83260  37.083  17.141   5.093
24165W        W83261  16.099  26.461  13.918
24166W        W83262  13.334  34.546   2.357
24167W        W83263   4.396  19.580   4.298
24168W        W83264  36.079   0.889   5.173
24169W        W83265  40.348  30.963  10.501
24170W        W83266  18.711   9.690   0.469
24171W        W83267  23.118  32.948  12.561
24172W        W83268  24.994  17.593  14.388
24173W        W83269  37.438  28.954  13.021
24174W        W83270  43.509  43.933  11.437
24175W        W83271  27.955   3.254  12.931
24176W        W83272  21.149  29.603   5.191
24177W        W83273  17.591  15.596   3.354
24178W        W83274   4.423  16.732  14.488
24179W        W83275  38.859  36.551   4.169
24180W        W83276  12.291  10.815   4.253
24181W        W83277  23.224  11.219   2.289
24182W        W83278  38.943  36.547  12.533
24183W        W83279  31.456  11.855   1.311
24184W        W83280  13.151  35.905   4.246
24185W        W83281  36.473   9.688  11.871
24186W        W83282  42.793  22.048   0.914
24187W        W83283  32.037  14.162  12.379
24188W        W83284  32.445  18.606  12.934
24189W        W83285  22.583  28.440  14.945
24190W        W83286   1.757  20.649  11.984
24191W        W83287  33.109  22.626   0.374
24192W        W83288   5.689  40.313   2.668
24193W        W83289  37.958  13.297  11.110
24194W        W83290  44.888  11.637   3.767
24195W        W83291  18.138  36.367   0.800
24196W        W83292  30.918  31.036  10.935
24197W        W83293   7.174  20.151   0.851
24198W        W83294  27.110  35.016  14.764
24199W        W83295  37.573  26.064   4.192
24200W        W83296  10.313   4.861  11.907
24201W        W83297  29.145  32.477  12.553
24202W        W83298   9.687  35.951  12.349
24203W        W83299  27.150   3.747   0.808
24204W        W83300  22.209  31.069  12.899
24205W        W83301  17.798   7.273  12.353
24206W        W83302  10.865  33.621  10.907
24207W        W83303  16.238   6.297   1.920
24208W        W83304  14.589  15.707  12.342
24209W        W83305  28.104  18.182  10.948
24210W        W83306  28.677  24.605   3.683
24211W        W83307  44.845  30.634  11.418
24212W        W83308  38.487  30.079   3.193
24213W        W83309   0.253   7.799   0.284
24214W        W83310  18.209  43.356  14.489
24215W        W83311  34.477  31.493   1.696
24216W        W83312  11.816  31.636   3.190
24217W        W83313  43.948   1.929   2.768
24218W        W83314  42.397   7.773  13.342
24219W        W83315  30.597  30.059  10.900
24220W        W83316  34.060  30.043   3.337
24221W        W83317  32.445  26.142   3.846
24222W        W83318  28.974   3.866  13.438
24223W        W83319  36.533   6.388  13.013
24224W        W83320  27.616  37.960   4.640
24225W        W83321  42.830  22.058  11.085
24226W        W83322  41.975   0.819   4.780
24227W        W83323  42.854   4.794   2.688
24228W        W83324  41.841  30.474  12.353
24229W        W83325   4.370  35.556   0.359
24230W        W83326  42.483  36.485   4.327
24231W        W83327   3.386  26.105   2.295
24232W        W83328  40.927  28.500  14.280
24233W        W83329  14.788  43.902   3.169
24234W        W83330  32.896  11.728  11.022
24235W        W83331  36.862   3.440  11.896
24236W        W83332  32.110  22.612   5.623
24237W        W83333   6.257  18.169  12.055
24238W        W83334  30.557   6.819  12.421
24239W        W83335  40.048  44.399  11.917
24240W        W83336  41.850  31.499  10.485
24241W        W83337  22.632  42.811   0.299
24242W        W83338  33.913  39.054  11.604
24243W        W83339  42.351  20.673   1.830
24244W        W83340  41.435  15.322   2.231
24245W        W83341  33.119  39.466   0.478
24246W        W83342  11.308  21.700   1.809
24247W        W83343   0.477  21.643   1.694
24248W        W83344  14.236  31.106  13.868
24249W        W83345  41.902  14.164  14.962
24250W        W83346  43.364  34.038  10.601
24251W        W83347  23.703  22.134   0.793
24252W        W83348  14.700  42.281   1.449
24253W        W83349  41.458  15.261  11.372
24254W        W83350   1.371  22.010   2.715
24255W        W83351   3.273  42.389  12.394
24256W        W83352   3.237  24.710   3.167
24257W        W83353   0.489   9.242  14.762
24258W        W83354  34.024   9.787   2.271
24259W        W83355  43.894  37.458  12.922
24260W        W83356   7.400   6.221  10.409
24261W        W83357  29.465  44.485   4.290
24262W        W83358  38.460   1.459  13.969
24263W        W83359   4.784   5.231   3.342
24264W        W83360  35.921   0.419  12.061
24265W        W83361  27.982  20.104  13.482
24266W        W83362   6.689   4.755   0.266
24267W        W83363  16.216  14.291   0.764
24268W        W83364  14.324  23.623   1.335
24269W        W83365  32.140  35.047   1.744
24270W        W83366   8.372  41.308   3.372
24271W        W83367  23.513   4.282  11.513
24272W        W83368  22.159  40.405  11.914
24273W        W83369  41.520  20.055  11.574
24274W        W83370   9.874  20.116  14.275
24275W        W83371  17.604  34.943   3.780
24276W        W83372  30.960   1.813   2.705
24277W        W83373  40.805  33.470  12.548
24278W        W83374  44.345  37.848   1.727
24279W        W83375  18.089  22.605   1.829
24280W        W83376  30.617  22.017   0.836
24281W        W83377  14.187  22.529  10.632
24282W        W83378   2.742   7.406  10.961
24283W        W83379  23.992   6.407  13.915
24284W        W83380   8.306  15.595  10.128
24285W        W83381  25.621  24.201  11.551
24286W        W83382   9.788  40.480  13.809
24287W        W83383  11.258  38.912  11.499
24288W        W83384  38.032  34.885   1.898
24289W        W83385  23.658   0.779  14.500
24290W        W83386   2.357   3.712  12.447
24291W        W83387  10.810   2.461  11.435
24292W        W83388  16.664  44.760   1.833
24293W        W83389  15.811  30.649   2.388
24294W        W83390   0.853  16.292   3.785
24295W        W83391  32.007  29.486  11.946
24296W        W83392  29.467  23.096   3.264
24297W        W83393  38.568  18.749   1.296
24298W        W83394  12.625  38.507   4.724
24299W        W83395  37.057   7.665   9.986
24300W        W83396  25.490  30.111  12.050
24301W        W83397   5.403  32.402   4.150
24302W        W83398  33.887  15.253  14.374
24303W        W83399  43.426  29.453   1.353
24304W        W83400  44.475  28.498  10.607
24305W        W83401   6.688  30.083   2.412
24306W        W83402  21.187   1.395  11.998
24307W        W83403  23.021   8.334   2.237
24308W        W83404   3.742  22.735  10.069
24309W        W83405  19.189   9.337   3.793
24310W        W83406  40.519  39.507   0.907
24311W        W83407  20.264  21.600   0.965
24312W        W83408  23.237  20.242   0.328
24313W        W83409  12.782  25.659  12.043
24314W        W83410   7.771  29.666   1.924
24315W        W83411  43.767  21.225  10.415
24316W        W83412  43.282  24.975  14.952
24317W        W83413  41.485  25.977   3.687
24318W        W83414   2.919   4.213   0.461
24319W        W83415  40.902   8.236  12.036
24320W        W83416  24.061  24.689   1.385
24321W        W83417  15.788  42.443   2.771
24322W        W83418   5.788  19.588   5.239
24323W        W83419   9.707  39.960  10.636
24324W        W83420   6.715   2.786   2.188
24325W        W83421  10.703  10.319   2.742
24326W        W83422  20.103  43.871   4.833
24327W        W83423   6.235  19.155   1.875
24328W        W83424  11.347  34.050  12.512
24329W        W83425  27.611  16.159  10.411
24330W        W83426   1.329   3.786   4.178
24331W        W83427  24.502  43.316   1.924
24332W        W83428  15.704  18.166  13.902
24333W        W83429  19.594   5.861   3.659
24334W        W83430  28.957  25.687  11.541
24335W        W83431  24.211  22.148   4.196
24336W        W83432  40.847   5.303   2.267
24337W        W83433  23.612   6.719   3.717
24338W        W83434  13.258   7.747  11.394
24339W        W83435  42.304  16.209  11.022
24340W        W83436   0.475  27.032   4.606
24341W        W83437   4.873   2.311  14.442
24342W        W83438  10.870  18.583  14.311
24343W        W83439   5.202  25.691   1.912
24344W        W83440  25.600  37.874   1.920
24345W        W83441  31.565  16.135   0.305
24346W        W83442  37.386   7.295   4.701
24347W        W83443  28.517  30.916   2.415
24348W        W83444  22.157  16.128  12.833
24349W        W83445  39.472  25.171   4.614
24350W        W83446  30.556  13.822  10.458
24351W        W83447   4.896   8.852  10.989
24352W        W83448   8.881  15.327   4.319
24353W        W83449   8.220   8.201   1.253
24354W        W83450  33.604  31.068  13.858
24355W        W83451  43.346  44.386   0.954
24356W        W83452  25.069   4.838   2.678
24357W        W83453  15.748  27.160  14.490
24358W        W83454  42.440   0.366   0.744
24359W        W83455  22.735  36.514   1.707
24360W        W83456   4.886  19.622  11.890
24361W        W83457  20.109   5.798  11.905
24362W        W83458  12.226   1.335   1.711
24363W        W83459  25.003  42.454   3.261
24364W        W83460  12.774  25.042   0.841
24365W        W83461   4.333  29.132  11.596
24366W        W83462  16.105  21.248   1.704
24367W        W83463   4.285  19.725   4.621
24368W        W83464  39.894  32.071  12.869
24369W        W83465   9.686   4.333   2.368
24370W        W83466  16.740  13.674   1.895
24371W        W83467   0.439  15.729   4.612
24372W        W83468   5.913  36.432  12.048
24373W        W83469  39.487  25.530   1.293
24374W        W83470  28.633  22.206   4.723
24375W        W83471  24.108  17.121   4.318
24376W        W83472  31.975  12.703   4.668
24377W        W83473  10.217  29.486   3.316
24378W        W83474   3.880   0.378  11.388
24379W        W83475  25.087   3.364   2.884
24380W        W83476  20.741  44.813  13.033
24381W        W83477  40.834  30.065   4.259
24382W        W83478  28.481  35.598   2.210
24383W        W83479  33.097  33.521   0.802
24384W        W83480  40.304   7.307  10.523
24385W        W83481  24.153  31.599   4.143
24386W        W83482  35.940  18.148   3.365
24387W        W83483  36.936  33.597   3.809
24388W        W83484   5.690  25.105  13.983
24389W        W83485  42.982   1.452   0.379
24390W        W83486   4.880  41.326   0.282
24391W        W83487  44.388  17.210   0.912
24392W        W83488  19.270   3.364  10.568
24393W        W83489  30.436  34.955   2.399
24394W        W83490  44.864  15.162  14.505
24395W        W83491  34.041  36.908  11.570
24396W        W83492  15.713  31.546  14.987
24397W        W83493   9.354  43.879   2.762
24398W        W83494   9.836  31.519   9.575
24399W        W83495  44.278   2.469  10.431
24400W        W83496  39.937  37.072  10.958
24401W        W83497  33.499  14.271   4.261
24402W        W83498   5.377   9.775   3.351
24403W        W83499  21.028  18.707  11.518
24404W        W83500  37.427  24.017   3.803
24405W        W83501  26.601  35.527   1.284
24406W        W83502   6.802  29.143  10.632
24407W        W83503  23.108  29.094  10.419
24408W        W83504  14.267  43.794   3.732
24409W        W83505   0.861  32.917  13.483
24410W        W83506   0.984   3.829  13.317
24411W        W83507  39.890  17.719   0.794
24412W        W83508  13.794  25.543  11.064
24413W        W83509   0.289   0.834  13.346
24414W        W83510  35.602  17.241   0.946
24415W        W83511  30.597  41.788  11.920
24416W        W83512  30.589   4.324   2.881
24417W        W83513  38.423  12.277   5.198
24418W        W83514  15.677  18.054  10.070
24419W        W83515  43.877  13.169  14.320
24420W        W83516  35.917  29.944   2.678
24421W        W83517  12.241  13.295  12.503
24422W        W83518  20.041   1.261   0.306
24423W        W83519  23.698  14.241   4.608
24424W        W83520   7.866  16.578  10.480
24425W        W83521  10.330  28.178   2.726
24426W        W83522  38.422  10.643   0.872
24427W        W83523  33.420  22.647  11.483
24428W        W83524  14.245  37.906  12.476
24429W        W83525  10.376   2.409   1.919
24430W        W83526  21.144  42.996  14.500
24431W        W83527  17.598  13.267  13.862
24432W        W83528   0.884  29.047   4.822
24433W        W83529   4.236  13.120   3.300
24434W        W83530   0.907  20.055   4.305
24435W        W83531  22.042   2.723   4.721
24436W        W83532  14.682  41.335  14.926
24437W        W83533  27.524  12.807  14.016
24438W        W83534  39.994  44.794   4.627
24439W        W83535  28.076   1.250  12.539
24440W        W83536   5.276  32.905  14.906
24441W        W83537  30.434  19.193   4.697
24442W        W83538  36.481   3.302  13.873
24443W        W83539  17.711  15.793  13.388
24444W        W83540  27.176  29.089  13.846
24445W        W83541  33.013  11.200   0.789
24446W        W83542  13.632  32.945  12.959
24447W        W83543  31.467  36.035   4.768
24448W        W83544  39.530  40.462  10.583
24449W        W83545  39.539   3.255   0.930
24450W        W83546  15.086   7.397  13.936
24451W        W83547  30.928  43.354  14.764
24452W        W83548   5.846   6.871  11.476
24453W        W83549   5.738  26.144   0.823
24454W        W83550  18.233  27.562   1.341
24455W        W83551  36.354   2.368   0.926
24456W        W83552  33.584  31.516   0.462
24457W        W83553  37.958  24.506   1.734
24458W        W83554  21.594  28.148   1.917
24459W        W83555   1.286  23.054   2.220
24460W        W83556  10.280  27.126  13.930
24461W        W83557  17.671  26.166   1.274
24462W        W83558  24.148  42.281   1.241
24463W        W83559  21.121  26.457  10.427
24464W        W83560  26.478  31.001  14.356
24465W        W83561  27.660  23.580  14.840
24466W        W83562  44.319  31.974   4.186
24467W        W83563   2.788  21.215   0.269
24468W        W83564   9.343  44.870  14.849
24469W        W83565   5.408  16.638  13.320
24470W        W83566  11.797  36.906  14.355
24471W        W83567   6.195  23.735   2.307
24472W        W83568  16.677   2.227  12.424
24473W        W83569  40.332  33.398  13.874
24474W        W83570  30.127  38.046  14.504
24475W        W83571  31.936  22.065  12.935
24476W        W83572  30.052   3.240  12.483
24477W        W83573  44.760  37.076   4.630
24478W        W83574  30.009  36.918  12.971
24479W        W83575   4.323   7.868   2.819
24480W        W83576  35.095  36.398   1.835
24481W        W83577  22.221  34.097  12.340
24482W        W83578  17.722  43.795  12.559
24483W        W83579   3.385  12.236  13.886
24484W        W83580  41.894  15.221   1.211
24485W        W83581  26.626  40.859  11.966
24486W        W83582   2.403  19.065  13.504
24487W        W83583  42.371  36.891  12.395
24488W        W83584  25.585  13.612   3.696
24489W        W83585   8.244  33.526  12.950
24490W        W83586  33.546  10.217   1.922
24491W        W83587  31.562  28.480   4.318
24492W        W83588  12.340  22.026   0.389
24493W        W83589   6.339  21.723  12.032
24494W        W83590  33.977  11.226  11.412
24495W        W83591   8.758  21.618  12.851
24496W        W83592   8.243  29.592  10.597
24497W        W83593  25.655   7.228  12.861
24498W        W83594  40.901  31.492   3.156
24499W        W83595   7.217  34.511  12.082
24500W        W83596  23.690  30.917   1.736
24501W        W83597  42.823  30.477  10.484
24502W        W83598  35.601   3.398   2.868
24503W        W83599   8.814  31.021   2.285
24504W        W83600  29.157  19.676  14.985
24505W        W83601  25.523  24.635   0.779
24506W        W83602   2.453   4.905  12.425
24507W        W83603  39.991  35.533  11.477
24508W        W83604   1.415  10.734  11.985
24509W        W83605  32.596  34.533   4.247
24510W        W83606  11.835  21.131   4.676
24511W        W83607  38.511   2.346  10.899
24512W        W83608  42.875   9.752  11.583
24513W        W83609  29.626  27.676   3.291
24514W        W83610  43.893   2.325   2.721
24515W        W83611  18.062  26.556  11.499
24516W        W83612  44.857   9.345   4.613
24517W        W83613   1.826  42.022   3.333
24518W        W83614  18.664  12.251  11.582
24519W        W83615   9.311  14.662   2.181
24520W        W83616  28.518  42.789  11.567
24521W        W83617  30.428  18.655  11.466
24522W        W83618  13.154  16.150  14.483
24523W        W83619   7.692  26.182   2.837
24524W        W83620  17.798  33.416  12.870
24525W        W83621   7.270  34.920   0.332
24526W        W83622  35.391   5.747   0.355
24527W        W83623  12.855   1.303   4.815
24528W        W83624  44.317  31.596   3.303
24529W        W83625  38.892   6.738  14.357
24530W        W83626  34.991  16.161  14.350
24531W        W83627  21.669  15.106   4.790
24532W        W83628  28.985  30.118  11.922
24533W        W83629   2.896  22.018  10.910
24534W        W83630  23.521  32.556  13.412
24535W        W83631  31.418  36.960  11.016
24536W        W83632   9.307  24.162   4.687
24537W        W83633  29.601  36.900   2.744
24538W        W83634  18.656  33.497  10.443
24539W        W83635   6.836   8.216   3.371
24540W        W83636  21.611  14.241  13.040
24541W        W83637  39.034   1.877   2.719
24542W        W83638   2.375  26.065  13.018
24543W        W83639   8.850   0.360   4.325
24544W        W83640   9.263   1.447   4.232
24545W        W83641  14.734  18.184   4.313
24546W        W83642   3.721   4.749  10.907
24547W        W83643  29.627   6.186  13.968
24548W        W83644  34.912   1.306   0.757
24549W        W83645  20.694  35.386   0.930
24550W        W83646  43.946  22.084   2.307
24551W        W83647   9.679  38.019  13.482
24552W        W83648  15.587  20.053  11.030
24553W        W83649  34.372  15.824   2.668
24554W        W83650  21.545  44.811   4.202
24555W        W83651   7.388   1.420   2.773
24556W        W83652  16.199   8.220   1.917
24557W        W83653  32.600  25.500   2.828
24558W        W83654   0.973  34.485   2.281
24559W        W83655  22.615  26.202  14.418
24560W        W83656  15.680  10.372   4.801
24561W        W83657  38.969  22.090  11.074
24562W        W83658  13.196   5.246  12.053
24563W        W83659   8.372  25.525   9.623
24564W        W83660  13.120  23.532   1.841
24565W        W83661   4.337   1.790  10.592
24566W        W83662  32.624  24.051   3.631
24567W        W83663  22.140  44.969   1.840
24568W        W83664  33.106   3.369  14.484
24569W        W83665   0.896  17.181   4.232
24570W        W83666  10.237  41.538   1.820
24571W        W83667  44.874  43.808   1.398
24572W        W83668  24.194  33.467  10.428
24573W        W83669  13.675  31.011   4.651
24574W        W83670  14.804  11.838   2.377
24575W        W83671   2.298   5.776   1.900
24576W        W83672  41.318  27.960   1.405
24577W        W83673  10.309   3.283   2.832
24578W        W83674  24.570  44.905  12.929
24579W        W83675   5.810  16.135   1.217
24580W        W83676  39.918  36.878   0.828
24581W        W83677  23.189  28.944  13.799
24582W        W83678  33.901  43.402  10.564
24583W        W83679  32.025  41.805   2.346
24584W        W83680  32.430  23.652  12.842
24585W        W83681  16.579  20.582   0.820
24586W        W83682  27.940  34.449   2.235
24587W        W83683  33.424  31.584  11.566
24588W        W83684  38.858  18.749  13.537
24589W        W83685  24.485   5.713   3.681
24590W        W83686   6.744  16.154   0.456
24591W        W83687  19.182  34.546  12.950
24592W        W83688  10.336  34.441  12.895
24593W        W83689  26.506  13.842   0.897
24594W        W83690  15.239   2.916  11.084
24595W        W83691  40.959   2.400   4.169
24596W        W83692  21.714   3.322  13.843
24597W        W83693   3.848  11.361  11.508
24598W        W83694  25.173  18.667   3.690
24599W        W83695  30.490  16.277   4.143
24600W        W83696  43.955  41.385  14.384
24601W        W83697  33.067   8.326  12.949
24602W        W83698   3.788  30.040   3.314
24603W        W83699  19.159  26.972   1.414
24604W        W83700  34.086  31.044  13.928
24605W        W83701  24.200   4.813   1.809
24606W        W83702   0.926  27.143   0.293
24607W        W83703  40.797  30.100   4.794
24608W        W83704  35.924  40.976   4.239
24609W        W83705   2.361  20.159   2.403
24610W        W83706   5.430  15.636   1.332
24611W        W83707  31.426  39.476  12.576
24612W        W83708   2.452   6.852   4.286
24613W        W83709  27.075   2.946   3.720
24614W        W83710  40.532  22.110   4.342
24615W        W83711  21.192  25.086   3.809
24616W        W83712   5.332  43.854  14.309
24617W        W83713  39.867  11.743  11.532
24618W        W83714  22.738   0.446   2.205
24619W        W83715  42.004  34.097  12.508
24620W        W83716  28.658  10.151  13.950
24621W        W83717  29.495  10.681  12.545
24622W        W83718   8.835  34.113  13.525
24623W        W83719   4.737  21.580  10.890
24624W        W83720  11.695  43.863  11.374
24625W        W83721  41.940  24.095   4.649
24626W        W83722  26.539  38.926  10.462
24627W        W83723  33.104  31.898   2.242
24628W        W83724   3.929   8.208  13.827
24629W        W83725  18.069  19.774  10.493
24630W        W83726   0.959   4.856   4.695
24631W        W83727  30.610  37.522  12.519
24632W        W83728   1.731  22.128  14.368
24633W        W83729  40.472   1.290   0.802
24634W        W83730  33.558  20.714   3.673
24635W        W83731  13.180  32.967   3.651
24636W        W83732  28.185  42.864   3.293
24637W        W83733  43.982   8.210   1.395
24638W        W83734   1.850  24.054  11.073
24639W        W83735  31.113  25.138   4.681
24640W        W83736  27.141  28.516  11.532
24641W        W83737  28.111  41.938   1.805
24642W        W83738  33.510   5.234  11.042
24643W        W83739  38.884  42.437  10.927
24644W        W83740  25.096  29.649   2.314
24645W        W83741  29.458  40.953  13.877
24646W        W83742   4.327  26.630   3.176
24647W        W83743  16.306   6.239  14.287
24648W        W83744  38.953  16.270   4.227
24649W        W83745  14.827  43.455  14.373
24650W        W83746   1.258   5.799   0.268
24651W        W83747  12.650  33.491  12.425
24652W        W83748  31.612  29.041  12.977
24653W        W83749  41.359  16.621   0.835
24654W        W83750   9.849  34.030   2.357
24655W        W83751  21.540  29.116  14.915
24656W        W83752   5.828  36.861   2.381
24657W        W83753   9.241   2.896  13.939
24658W        W83754  21.153  14.703   2.414
24659W        W83755   5.796  17.732   2.865
24660W        W83756  10.730  15.291  12.347
24661W        W83757   1.773  39.993  12.547
24662W        W83758  15.100   4.446  11.576
24663W        W83759  18.063  10.360  13.528
24664W        W83760  11.687  42.379  10.508
24665W        W83761  34.380  16.120   1.351
24666W        W83762  27.601  21.551   1.840
24667W        W83763   9.821  16.267   3.215
24668W        W83764   5.352  25.182  13.361
24669W        W83765  32.952  20.560   5.774
24670W        W83766  27.497  14.127   1.801
24671W        W83767   7.215  28.446  13.355
24672W        W83768  35.942   0.315   0.440
24673W        W83769  38.008  14.745   0.248
24674W        W83770  29.165   7.754   4.642
24675W        W83771  39.481  12.731   2.415
24676W        W83772  10.220  15.622  14.321
24677W        W83773  41.890   4.310  13.343
24678W        W83774   1.848  34.110  12.872
24679W        W83775  41.965   7.735   0.767
24680W        W83776  14.664  14.726   0.847
24681W        W83777  35.970   0.958  14.442
24682W        W83778   2.265  22.617  14.500
24683W        W83779   8.739   1.826  11.530
24684W        W83780  19.584  16.197  14.762
24685W        W83781   6.222  11.710  10.626
24686W        W83782   5.396  11.752  14.839
24687W        W83783  13.699   0.252   1.780
24688W        W83784  22.740  27.652   1.736
24689W        W83785  14.231  28.527  11.586
24690W        W83786  44.763  28.114  14.414
24691W        W83787  25.140  35.031  13.354
24692W        W83788  22.206  29.647   2.676
24693W        W83789  13.778  21.250   3.825
24694W        W83790   8.884  41.538  14.356
24695W        W83791  21.149  43.925  14.468
24696W        W83792  30.431  29.975  12.514
24697W        W83793  12.265   9.672  11.979
24698W        W83794   3.752  18.136  12.950
24699W        W83795  23.009  29.513  13.874
24700W        W83796  32.636  15.768   2.686
24701W        W83797  21.557  42.416   2.701
24702W        W83798  32.552  27.498  12.345
24703W        W83799  21.076  29.619  11.605
24704W        W83800  35.584  42.956  10.016
24705W        W83801  21.707  35.044  14.295
24706W        W83802  43.770  20.728   0.364
24707W        W83803  13.178  28.576  10.984
24708W        W83804  16.236  43.986  12.827
24709W        W83805  17.098  29.669  14.316
24710W        W83806   4.232   3.431  11.423
24711W        W83807  23.728  39.508   3.204
24712W        W83808   3.421  25.211  14.807
24713W        W83809  32.060  19.678  11.906
24714W        W83810  36.398  40.821   0.767
24715W        W83811  44.810  14.162   5.250
24716W        W83812  29.643  11.177  14.404
24717W        W83813  12.799   3.756   3.686
24718W        W83814   7.834  15.735   3.831
24719W        W83815  21.599  19.207   2.399
24720W        W83816  15.665  17.641   2.390
24721W        W83817  29.522  13.661   2.384
24722W        W83818  42.485  44.929   0.362
24723W        W83819  29.013  29.981   3.769
24724W        W83820  13.637  44.835  11.471
24725W        W83821   1.804  43.337   4.280
24726W        W83822   5.261  32.040   2.766
24727W        W83823  27.172  33.988  11.945
24728W        W83824  12.262  20.750   3.710
24729W        W83825  35.065  26.019  11.489
24730W        W83826  10.824  28.627  14.506
24731W        W83827  34.518  14.330   5.159
24732W        W83828  40.896  35.372   0.797
24733W        W83829  40.370  13.744   1.239
24734W        W83830  19.734  29.453  14.356
24735W        W83831  14.167   9.255   0.447
24736W        W83832  42.824  44.350  10.433
24737W        W83833   7.254  37.905  13.818
24738W        W83834  12.338  17.301  14.467
24739W        W83835  35.517  13.836   1.307
24740W        W83836  11.254  43.939  12.564
24741W        W83837  29.021  16.760  13.045
24742W        W83838  13.815  31.000   0.423
24743W        W83839   4.434  24.140  12.036
24744W        W83840   5.209   0.795  13.021
24745W        W83841  35.543  38.828  11.413
24746W        W83842   7.409   2.356  12.031
24747W        W83843  20.127  32.030   0.947
24748W        W83844  34.564  16.163  14.838
24749W        W83845  23.714  41.979  13.524
24750W        W83846  30.035  27.166  11.910
24751W        W83847  28.073  28.553   3.327
24752W        W83848   6.333   5.777  10.525
24753W        W83849  44.809   2.432   2.283
24754W        W83850  32.459  23.061   5.644
24755W        W83851  21.053  11.754   2.399
24756W        W83852  29.156  25.600   0.818
24757W        W83853   5.800   4.775   2.249
24758W        W83854  31.417   9.379  10.900
24759W        W83855  37.010  30.490  12.578
24760W        W83856  23.592  34.922  14.950
24761W        W83857  36.995  21.728   4.753
24762W        W83858  44.266  31.499  14.510
24763W        W83859  28.138  29.979  10.912
24764W        W83860  23.036  17.751   9.978
24765W        W83861   2.408  39.893   1.926
24766W        W83862  34.968  15.236  13.808
24767W        W83863  39.906  42.936  14.314
24768W        W83864  30.585   4.364  13.879
24769W        W83865  15.106  30.104  14.759
24770W        W83866   1.909  19.602  10.535
24771W        W83867  25.182   2.839  11.416
24772W        W83868  14.337  36.413  10.555
24773W        W83869  35.486   3.328  12.445
24774W        W83870  28.115  36.995   4.708
24775W        W83871  11.865  22.615   2.265
24776W        W83872  26.107   5.255  11.876
24777W        W83873  44.488  10.714   4.670
24778W        W83874  43.485  14.759   4.829
24779W        W83875  29.961  24.103  10.575
24780W        W83876  13.134  31.463   4.211
24781W        W83877  20.530  12.686  13.466
24782W        W83878   3.426  10.687  12.445
24783W        W83879  40.876   6.740   3.753
24784W        W83880  29.964   7.850  10.428
24785W        W83881  37.498   8.807   5.802
24786W        W83882  12.235  12.218   2.863
24787W        W83883  13.726  33.558   4.322
24788W        W83884  24.613  36.549  11.395
24789W        W83885  33.000  24.712   5.086
24790W        W83886  17.091   3.729   0.361
24791W        W83887  27.685  18.570   0.964
24792W        W83888  25.555  38.837  13.545
24793W        W83889  38.948  38.554   2.813
24794W        W83890  20.577  17.246  11.948
24795W        W83891  15.163  37.985  14.486
24796W        W83892  40.998  32.113  11.068
24797W        W83893  25.185  44.447  13.312
24798W        W83894  40.391  27.630   3.806
24799W        W83895  10.142  16.764   2.350
24800W        W83896  44.838  32.538   1.406
24801W        W83897  19.160  22.102   0.886
24802W        W83898  23.009  21.714  13.533
24803W        W83899  36.425  36.082  14.316
24804W        W83900   8.168  30.413  11.493
24805W        W83901  31.501  40.038  12.401
24806W        W83902  41.415  15.681   3.174
24807W        W83903  12.167  15.233  11.595
24808W        W83904  42.893  17.566  14.424
24809W        W83905  25.595  12.236   2.763
24810W        W83906   6.857  33.044   1.298
24811W        W83907  38.933  10.304  11.929
24812W        W83908   2.357  34.919  12.440
24813W        W83909  44.900  35.966  11.011
24814W        W83910  18.085  11.681   2.255
24815W        W83911  29.578  18.584   2.400
24816W        W83912  32.015   1.292   4.716
24817W        W83913  38.036   1.341   3.292
24818W        W83914  41.889  28.453   3.189
24819W        W83915  34.871   1.444   3.343
24820W        W83916  41.326  21.046   5.295
24821W        W83917  22.168  39.330   4.598
24822W        W83918   0.411  11.817   1.338
24823W        W83919   7.358   1.899  12.525
24824W        W83920   7.851   8.831  14.995
24825W        W83921  32.433   5.765   4.619
24826W        W83922  17.232  10.378  11.880
24827W        W83923  33.498   3.304   4.177
24828W        W83924   9.674  14.177  12.531
24829W        W83925  43.509  29.932  12.351
24830W        W83926  16.581  34.978   4.806
24831W        W83927  32.127  37.953  13.047
24832W        W83928  29.162   9.154  14.494
24833W        W83929  40.853  18.595  14.393
24834W        W83930  21.737  28.674  12.864
24835W        W83931  28.182  43.801  12.979
24836W        W83932  32.932   0.463  13.047
24837W        W83933  17.287   5.857  13.930
24838W        W83934  27.551  33.440   0.884
24839W        W83935  13.128   9.753   1.444
24840W        W83936  40.044  10.272   1.321
24841W        W83937  31.426   4.922   3.254
24842W        W83938  34.089  19.539  12.504
24843W        W83939  40.303  19.230   1.840
24844W        W83940   6.895  13.733   3.782
24845W        W83941  10.165  13.647   1.741
24846W        W83942  34.894   3.220   1.341
24847W        W83943  33.411  24.121   2.873
24848W        W83944  28.992  14.724   4.184
24849W        W83945  20.573  24.676   3.318
24850W        W83946  38.341  12.145   0.961
24851W        W83947  20.146   0.367  10.142
24852W        W83948  10.671  16.082   0.729
24853W        W83949   7.782  37.047  12.062
24854W        W83950  44.937  26.457   0.337
24855W        W83951  16.681   0.355   3.719
24856W        W83952   9.260  26.984  11.528
24857W        W83953  30.010   7.257  11.880
24858W        W83954   6.704  37.443  13.407
24859W        W83955   4.366   6.344  14.809
24860W        W83956  23.236   1.758  11.434
24861W        W83957  16.306  17.298   2.309
24862W        W83958  16.646  12.616   4.295
24863W        W83959   6.770  38.924   2.678
24864W        W83960  29.581  23.172  12.404
24865W        W83961  19.056  38.459  10.590
24866W        W83962  16.760  35.096  12.871
24867W        W83963  25.542  23.652   0.952
24868W        W83964  21.745   8.764   2.693
24869W        W83965  19.189  33.051   3.217
24870W        W83966  31.538   5.770   1.862
24871W        W83967  23.237  10.734  14.936
24872W        W83968  12.683  14.764   2.887
24873W        W83969  28.660  25.577  14.881
24874W        W83970  35.438   7.366   1.830
24875W        W83971  28.954   1.937   1.911
24876W        W83972  16.298  15.296   2.363
24877W        W83973  41.833   8.731  14.444
24878W        W83974  24.619  39.966   2.291
24879W        W83975   0.251  33.509  10.490
24880W        W83976  44.298  24.633  13.519
24881W        W83977  15.650  12.170   3.387
24882W        W83978  14.310  12.135  11.907
24883W        W83979  23.207  41.376   1.905
24884W        W83980   6.397  22.659  13.805
24885W        W83981  42.873  29.117   2.666
24886W        W83982  35.089   5.826   4.671
24887W        W83983  34.459  27.574   2.187
24888W        W83984   2.439  29.030   3.716
24889W        W83985   1.400   3.809  13.006
24890W        W83986   8.388   6.426   4.312
24891W        W83987  23.504  29.588  11.087
24892W        W83988  29.970  43.383   0.279
24893W        W83989  17.802   0.986  13.793
24894W        W83990   3.425  25.212   5.213
24895W        W83991   2.902   0.913   4.258
24896W        W83992   4.283  22.704  12.357
24897W        W83993  29.941  21.752   0.384
24898W        W83994  37.974  13.718   1.859
24899W        W83995  43.775  14.284  11.078
24900W        W83996  43.361  21.087  14.281
24901W        W83997  38.560  28.047   0.348
24902W        W83998  17.632  27.167  14.769
24903W        W83999  34.509  31.492   3.211
24904W        W84000   5.755  18.723   3.262
24905W        W84001  28.584   5.237   4.321
24906W        W84002  28.998  21.104  12.933
24907W        W84003   2.728  23.680   0.833
24908W        W84004  20.648  14.669  12.412
24909W        W84005  24.502  10.663   4.214
24910W        W84006   9.675  29.601   2.757
24911W        W84007  28.012  41.903  12.849
24912W        W84008  23.597  29.976   1.800
24913W        W84009  19.140  22.736  13.887
24914W        W84010  37.422  28.962   3.678
24915W        W84011   4.883  19.684  11.585
24916W        W84012  33.008  25.494   1.766
24917W        W84013  20.736   6.724  11.418
24918W        W84014  41.021  30.053  12.375
24919W        W84015  13.275  14.241   4.259
24920W        W84016  32.596  35.905   1.768
24921W        W84017  15.183  43.303  10.898
24922W        W84018   2.377   8.321   4.165
24923W        W84019  33.894  43.911   4.604
24924W        W84020  22.229  38.484   1.351
24925W        W84021   3.349  39.871   3.250
24926W        W84022  24.210  35.589   5.708
24927W        W84023  39.888  23.651   4.209
24928W        W84024   6.848   2.375  14.964
24929W        W84025  39.411   9.388   0.871
24930W        W84026  44.441  32.454   1.282
24931W        W84027  28.468  32.525  12.360
24932W        W84028  36.055  25.150  11.038
24933W        W84029  29.543  36.881  12.035
24934W        W84030  23.240  37.015   1.420
24935W        W84031   5.779  16.140  12.946
24936W        W84032   9.827   6.815   0.759
24937W        W84033  21.610  13.142  14.933
24938W        W84034  17.604   7.839   4.135
24939W        W84035  34.974  11.624  14.858
24940W        W84036   0.788  12.256   4.761
24941W        W84037  35.371  17.167  11.397
24942W        W84038   2.866   2.404   3.165
24943W        W84039  18.288   4.390   2.833
24944W        W84040  13.230  44.451  13.862
24945W        W84041  17.286  40.407  13.328
24946W        W84042  14.759  35.003   2.863
24947W        W84043  10.330  38.908  12.004
24948W        W84044  25.188  13.599  14.882
24949W        W84045  11.794   4.217   0.340
24950W        W84046   5.835  35.015  13.063
24951W        W84047  36.845  20.600   4.143
24952W        W84048  44.307  26.597   0.358
24953W        W84049  19.259  12.724  14.865
24954W        W84050   3.296   3.421   3.864
24955W        W84051  39.378   8.877   3.251
24956W        W84052  19.753  35.448  13.455
24957W        W84053   3.261  16.096  11.375
24958W        W84054  29.546  21.175  14.346
24959W        W84055  17.747  28.998   3.242
24960W        W84056  33.389  27.022  14.869
24961W        W84057  11.312   5.764   4.306
24962W        W84058  44.318  12.828  10.995
24963W        W84059  13.634  44.446   0.316
24964W        W84060  31.007  39.887  11.440
24965W        W84061  30.128  27.197   2.811
24966W        W84062  16.199  44.917   2.746
24967W        W84063  30.553  20.274   4.784
24968W        W84064  32.053  18.554  12.417
24969W        W84065   0.376   6.826  13.991
24970W        W84066  41.795  29.037  12.984
24971W        W84067  30.572  29.125  14.837
24972W        W84068  13.688  43.020   3.350
24973W        W84069   2.328   6.751  13.526
24974W        W84070  34.103  40.801   2.230
24975W        W84071  16.267  22.009   1.338
24976W        W84072   1.268  31.963   4.268
24977W        W84073  13.812  40.435  11.978
24978W        W84074   1.735  33.572  10.611
24979W        W84075  23.192  36.958  10.907
24980W        W84076  39.032  31.904  13.994
24981W        W84077  34.436  28.666  11.863
24982W        W84078  37.466  23.234   2.864
24983W        W84079  35.975  35.044   3.844
24984W        W84080   3.849  26.160  10.120
24985W        W84081  23.592  21.749  14.374
24986W        W84082  30.412  37.082  12.067
24987W        W84083  43.890   7.821   0.856
24988W        W84084  18.297  25.979   0.744
24989W        W84085  19.254  20.128   1.435
24990W        W84086  38.883  26.678   3.328
24991W        W84087   3.351  10.244  12.012
24992W        W84088  31.078   3.275  11.571
24993W        W84089   2.848  25.673   4.215
24994W        W84090  17.648  36.455   4.600
24995W        W84091  24.710  21.262  13.958
24996W        W84092   8.336  23.565   4.634
24997W        W84093  36.001   9.266   1.312
24998W        W84094  27.082  26.155   3.195
24999W        W84095  17.723  39.534   1.894
25000W        W84096   1.963  34.019   4.726
25001W        W84097  19.772  10.199   0.918
25002W        W84098  42.975  29.613   3.827
25003W        W84099  11.326  31.003  11.102
25004W        W84100  20.529  16.684   0.399
25005W        W84101  34.047   8.193  14.983
25006W        W84102  22.706   0.815  11.589
25007W        W84103  17.074  26.633   2.876
25008W        W84104  32.460  37.850   2.873
25009W        W84105  27.596  24.479   1.838
25010W        W84106  11.865  21.092   3.770
25011W        W84107  41.418  32.956   1.928
25012W        W84108  18.071   3.242  14.954
25013W        W84109  39.377   6.202  11.943
25014W        W84110  36.998  13.300   0.284
25015W        W84111  29.547  35.011  10.458
25016W        W84112   8.813  15.768   5.285
25017W        W84113   7.287   1.396  14.889
25018W        W84114   3.230  16.753   4.252
25019W        W84115  14.297  36.922  14.327
25020W        W84116  14.236  13.199  13.334
25021W        W84117  15.128  21.246   1.699
25022W        W84118  32.020  41.838  13.433
25023W        W84119  11.745  20.528   2.373
25024W        W84120  23.569   5.210  12.892
25025W        W84121  21.664  28.971   2.701
25026W        W84122  24.113  14.222   4.255
25027W        W84123  20.153  39.903  11.966
25028W        W84124  21.540   3.766   3.728
25029W        W84125  34.938  41.326   3.843
25030W        W84126  42.521   6.324  10.565
25031W        W84127  26.975  11.196  13.842
25032W        W84128  29.573  10.677  11.608
25033W        W84129  34.559  15.203   0.273
25034W        W84130  36.878  24.020  14.954
25035W        W84131  18.086  13.610   4.332
25036W        W84132  17.287  44.313  12.381
25037W        W84133  32.598  10.725   3.709
25038W        W84134  37.476  38.403  12.958
25039W        W84135   0.768   6.812   4.615
25040W        W84136  43.909  32.012  13.491
25041W        W84137   1.952   5.354   3.789
25042W        W84138  25.186  40.491  14.358
25043W        W84139   9.847  24.677  13.995
25044W        W84140  24.480  24.074   1.802
25045W        W84141  12.294  43.407   2.381
25046W        W84142   6.836  40.019  13.927
25047W        W84143  36.846  12.612  14.027
25048W        W84144  25.501  27.611  14.877
25049W        W84145  20.586   4.922   0.890
25050W        W84146  44.480  11.224  10.444
25051W        W84147   6.376  20.232  11.031
25052W        W84148  25.014  16.287   2.731
25053W        W84149  29.459  35.383  14.857
25054W        W84150  14.141  14.277  13.447
25055W        W84151  27.481  35.583   0.478
25056W        W84152  38.892  31.024   4.649
25057W        W84153  32.459  10.772   0.304
25058W        W84154  10.711  39.903   0.396
25059W        W84155  41.954  19.647  10.153
25060W        W84156  24.227  35.913   0.747
25061W        W84157  29.486   9.206  12.847
25062W        W84158  24.037   1.245   4.652
25063W        W84159  43.775  35.961  12.982
25064W        W84160  20.588   8.674   1.749
25065W        W84161  12.726   4.445  10.405
25066W        W84162  30.439   3.315  14.495
25067W        W84163  37.015  14.137   1.761
25068W        W84164   4.931   4.719   2.408
25069W        W84165  13.260  36.931  13.371
25070W        W84166  11.719  33.948   0.882
25071W        W84167  29.937  42.360   1.282
25072W        W84168  15.083  40.445   4.304
25073W        W84169  19.616  15.127   3.308
25074W        W84170  18.651   4.335  11.582
25075W        W84171  12.160  44.493  14.500
25076W        W84172  30.465   3.363   2.417
25077W        W84173  42.395  22.161  12.460
25078W        W84174  38.887  26.090   1.297
25079W        W84175   5.829  41.879   0.877
25080W        W84176  17.624  22.568  11.042
25081W        W84177  22.707  19.116   5.606
25082W        W84178  28.562  23.728  12.007
25083W        W84179  32.486  28.043   0.253
25084W        W84180  44.452  42.400   9.933
25085W        W84181   7.727   5.250   0.913
25086W        W84182  15.799  10.769  12.507
25087W        W84183  27.950  43.486   2.316
25088W        W84184  35.382   1.759   0.846
25089W        W84185  14.601   1.798   0.941
25090W        W84186  29.500   6.766  13.316
25091W        W84187  34.602  28.060  14.841
25092W        W84188   3.242  18.548   4.719
25093W        W84189  38.932  13.206   5.235
25094W        W84190  38.409  43.305   2.223
25095W        W84191  12.772   6.856  12.035
25096W        W84192  14.662   5.759  13.905
25097W        W84193   0.961  23.714   1.739
25098W        W84194  32.528  20.623  11.451
25099W        W84195  18.578  11.662  11.976
25100W        W84196   8.283  16.742  10.583
25101W        W84197   6.679  23.573   1.324
25102W        W84198  10.350  41.457  10.019
25103W        W84199  35.417  22.170   1.872
25104W        W84200  38.339  27.476  11.091
25105W        W84201  31.003  23.189   2.276
25106W        W84202  30.580   6.247   4.705
25107W        W84203  35.854  34.574   2.811
25108W        W84204  30.042   3.764   3.267
25109W        W84205  29.036  42.402   3.658
25110W        W84206  17.198  37.356  14.806
25111W        W84207  13.746  18.162   9.639
25112W        W84208  33.025  27.986  11.552
25113W        W84209  41.346  16.659  12.958
25114W        W84210  28.627   6.328  13.421
25115W        W84211  32.609  17.678  13.506
25116W        W84212   4.714  29.149  14.287
25117W        W84213   8.780  36.568  10.471
25118W        W84214   1.398   4.864   1.715
25119W        W84215  36.535   9.874   1.316
25120W        W84216  37.859  38.975  11.466
25121W        W84217  29.642  38.414  10.068
25122W        W84218  27.525  29.166   2.305
25123W        W84219  10.342  24.644   2.291
25124W        W84220   9.358  38.361   1.703
25125W        W84221   3.235  30.616   3.710
25126W        W84222  43.299  42.968   0.799
25127W        W84223   3.728  39.883   3.268
25128W        W84224  25.975  20.652   2.670
25129W        W84225  35.518   2.427  11.099
25130W        W84226  31.032  25.995  13.467
25131W        W84227  18.691  25.551   1.222
25132W        W84228  32.575   0.823   0.738
25133W        W84229  27.029   2.324  12.044
25134W        W84230  27.119   6.395   4.314
25135W        W84231  22.121  26.494  13.009
25136W        W84232  11.306  18.255  10.579
25137W        W84233  34.396  44.795  12.941
25138W        W84234  23.541  39.939   2.398
25139W        W84235  22.104  14.642  13.314
25140W        W84236  38.928  24.103   1.729
25141W        W84237  15.196   2.339  14.464
25142W        W84238  26.509  41.471   0.772
25143W        W84239   3.738  37.856   1.367
25144W        W84240  23.564  22.113   0.404
25145W        W84241  17.130  28.107  13.938
25146W        W84242  30.103  35.039   1.858
25147W        W84243  41.805  27.035  11.560
25148W        W84244  25.696  33.618  12.514
25149W        W84245  41.829  41.043  10.572
25150W        W84246   7.721  35.579   4.293
25151W        W84247   3.239  11.355   2.244
25152W        W84248   4.385  17.760   0.952
25153W        W84249  14.268  19.762   0.895
25154W        W84250  40.854  11.303   3.857
25155W        W84251  26.586  42.472  13.476
25156W        W84252  40.823   9.696  11.069
25157W        W84253  23.628   0.492  14.451
25158W        W84254  39.904   2.256   0.887
25159W        W84255  13.264  23.026   4.615
25160W        W84256   7.250  35.906   3.258
25161W        W84257  42.846  36.427  11.875
25162W        W84258  37.357  11.145   3.815
25163W        W84259  24.082  34.992  11.535
25164W        W84260   6.730  36.446  12.069
25165W        W84261   9.834  34.956   4.324
25166W        W84262  29.438  19.103  11.995
25167W        W84263   4.212  34.559  10.928
25168W        W84264  24.064   8.713   4.726
25169W        W84265   8.329  35.054   1.920
25170W        W84266   4.934  17.106   1.733
25171W        W84267  32.967  26.619  11.915
25172W        W84268  12.171  38.976   4.662
25173W        W84269  26.469  28.559   0.460
25174W        W84270  22.622  42.298  10.480
25175W        W84271  26.560  23.690  14.903
25176W        W84272   0.283  33.449   0.826
25177W        W84273  13.291  21.142  14.304
25178W        W84274  32.499   7.719  11.100
25179W        W84275  27.019   2.236  14.449
25180W        W84276  31.935  39.008  10.947
25181W        W84277  19.648   2.817  14.794
25182W        W84278  42.955   4.903   4.816
25183W        W84279  25.059  19.224   2.257
25184W        W84280  25.473  33.110  10.924
25185W        W84281  32.510  27.453  10.901
25186W        W84282  38.828  19.268  12.478
25187W        W84283  36.477  42.815  11.584
25188W        W84284  18.587   2.304  10.577
25189W        W84285  28.039  39.336  10.526
25190W        W84286  31.521  19.104  10.629
25191W        W84287  13.325  27.136   4.134
25192W        W84288  21.691  24.679  10.950
25193W        W84289  28.490  41.433   3.653
25194W        W84290  10.239  38.384   1.375
25195W        W84291  38.484  20.617  13.465
25196W        W84292   0.324  35.391   4.683
25197W        W84293  44.955   1.307  11.382
25198W        W84294  11.198  15.601   1.841
25199W        W84295   6.688  42.296  13.371
25200W        W84296  14.638  19.226   2.243
25201W        W84297  20.093  27.644   1.441
25202W        W84298  11.244   8.688   2.343
25203W        W84299   7.382  20.028  14.399
25204W        W84300  22.234   9.202   0.941
25205W        W84301  25.523  41.464  14.369
25206W        W84302   1.911  33.917   0.820
25207W        W84303  38.923   4.391   3.848
25208W        W84304  25.527   6.339  11.397
25209W        W84305  28.070  34.438   0.795
25210W        W84306  17.212  40.019  10.154
25211W        W84307  38.007  14.826  12.910
25212W        W84308  24.032  24.981   0.445
25213W        W84309  27.149  30.017  11.504
25214W        W84310   6.186  16.683  11.871
25215W        W84311   6.855  18.086  12.044
25216W        W84312  39.964  20.568   2.703
25217W        W84313  29.532  31.646  13.856
25218W        W84314  44.268  22.513   0.919
25219W        W84315  33.387  31.040   2.193
25220W        W84316   8.836  15.762   0.886
25221W        W84317  17.712  43.859   1.213
25222W        W84318  29.964  23.142   3.765
25223W        W84319   9.830   0.818   1.279
25224W        W84320  32.064  38.402  13.548
25225W        W84321  40.355   5.199  12.012
25226W        W84322  25.641  33.616  12.022
25227W        W84323  30.084  28.460   4.611
25228W        W84324  14.596  41.936   3.344
25229W        W84325   7.818   9.260   2.798
25230W        W84326  24.004  10.178   3.644
25231W        W84327  34.582  19.738   4.662
25232W        W84328  44.402  25.501  14.450
25233W        W84329  33.029  28.036   2.281
25234W        W84330   4.357   4.296   4.326
25235W        W84331  16.108  28.949  10.986
25236W        W84332  15.323  18.103   3.850
25237W        W84333   5.720  12.340  10.571
25238W        W84334  14.112  13.305  13.029
25239W        W84335  23.987  25.079   4.323
25240W        W84336   2.408   1.259  14.846
25241W        W84337  33.389  19.676   1.325
25242W        W84338   8.755  29.488  10.101
25243W        W84339  10.197  37.892  13.847
25244W        W84340   0.929   9.882   3.295
25245W        W84341  32.986  22.513  11.605
25246W        W84342   5.407  16.077  13.480
25247W        W84343  31.506  25.588  12.888
25248W        W84344   4.733   3.284   1.394
25249W        W84345  32.930   9.150   3.704
25250W        W84346  16.683  38.359  13.830
25251W        W84347  38.982  22.721  13.914
25252W        W84348  16.706  42.929   1.856
25253W        W84349  30.494  21.225  10.484
25254W        W84350  11.231  40.022   4.777
25255W        W84351  29.153  20.096  14.833
25256W        W84352   8.825  30.087   2.678
25257W        W84353  12.342  40.990  10.404
25258W        W84354   2.337  15.314   4.301
25259W        W84355  13.128  29.600  14.414
25260W        W84356  35.584   6.768  14.837
25261W        W84357   7.189  37.899   2.335
25262W        W84358  26.979  30.522  14.957
25263W        W84359   8.294  18.675   0.731
25264W        W84360  31.016  12.764  12.438
25265W        W84361  39.913  25.691  13.839
25266W        W84362  40.348  25.015  12.844
25267W        W84363  37.888  30.943  13.010
25268W        W84364  13.244  38.571   3.828
25269W        W84365   4.799   7.352   0.894
25270W        W84366   6.331  20.560   4.600
25271W        W84367  42.878   0.400   1.773
25272W        W84368   9.776  25.012   4.809
25273W        W84369  40.476  10.255   3.297
25274W        W84370  42.988  34.969  14.480
25275W        W84371  40.853  41.476   2.410
25276W        W84372  23.993  34.400  11.562
25277W        W84373  28.953   8.857   0.269
25278W        W84374  27.035   8.732  14.393
25279W        W84375  27.100  37.061  10.606
25280W        W84376  13.796  44.486  13.465
25281W        W84377  12.134  34.456   1.698
25282W        W84378   1.925  33.459  12.994
25283W        W84379   2.762  42.815  10.488
25284W        W84380   3.931  15.280   2.385
25285W        W84381  11.763  13.748  14.806
25286W        W84382  23.044  34.601  13.821
25287W        W84383  28.674  41.893   4.682
25288W        W84384  31.627  38.974  14.458
25289W        W84385  43.975  26.479  14.408
25290W        W84386  13.167  25.196  15.000
25291W        W84387  10.286  12.800   0.811
25292W        W84388   6.766  35.887   2.356
25293W        W84389  23.605  11.168   3.249
25294W        W84390  29.156  39.400   1.277
25295W        W84391  20.133  34.106   1.900
25296W        W84392  13.776  31.585   5.739
25297W        W84393  25.974  11.729  14.872
25298W        W84394   2.808  38.990   3.168
25299W        W84395  42.028   1.294   3.679
25300W        W84396  39.056  21.248  12.055
25301W        W84397  36.925  33.903   0.266
25302W        W84398  26.138  24.554  10.404
25303W        W84399  39.892  16.089  10.443
25304W        W84400  40.388  43.515  11.531
25305W        W84401  39.906   7.868  11.069
25306W        W84402  36.587  21.724  10.958
25307W        W84403   9.214  26.124   1.426
25308W        W84404  28.067  29.516  14.414
25309W        W84405  24.714  38.902  12.000
25310W        W84406  16.297   5.339   1.426
25311W        W84407   1.815  38.413   3.812
25312W        W84408  34.068  17.774  13.965
25313W        W84409  32.939  38.915  11.003
25314W        W84410  26.586  40.971  13.938
25315W        W84411  32.444  33.015   0.269
25316W        W84412  20.107  33.052  12.376
25317W        W84413  43.799  19.554  12.917
25318W        W84414   6.277  13.696   3.194
25319W        W84415  28.159   0.974   1.718
25320W        W84416  37.857  40.541   3.756
25321W        W84417   1.962  24.692  14.389
25322W        W84418  27.691  21.714   3.862
25323W        W84419  43.990  22.213   0.835
25324W        W84420  42.363   4.267   3.692
25325W        W84421  31.412  30.479  14.989
25326W        W84422   5.252  33.514   2.733
25327W        W84423   0.832   8.362   1.304
25328W        W84424   3.428  42.377  11.901
25329W        W84425  32.067  24.229   1.713
25330W        W84426  30.084  35.899  12.893
25331W        W84427   5.860  36.376   4.632
25332W        W84428  12.258  32.614  10.973
25333W        W84429  26.486  36.850   4.630
25334W        W84430   7.848  42.477  12.889
25335W        W84431   0.876   5.825   4.630
25336W        W84432  16.102  14.659  12.982
25337W        W84433  30.510  29.062   2.336
25338W        W84434  13.123  42.288   2.869
25339W        W84435  29.017  24.707   4.293
25340W        W84436  34.898  16.773  14.385
25341W        W84437  40.335  35.588  11.044
25342W        W84438   6.343  20.248   2.688
25343W        W84439   0.371  30.972   1.412
25344W        W84440  40.860   0.457  10.577
25345W        W84441   4.377  30.149   0.743
25346W        W84442  38.353  21.068  11.416
25347W        W84443   0.763  35.367   2.391
25348W        W84444   1.247   3.447   0.246
25349W        W84445  20.030  37.897  10.475
25350W        W84446   1.424   2.312  14.388
25351W        W84447  30.484  23.643   0.819
25352W        W84448  39.854  37.035  11.388
25353W        W84449  30.555  43.489   1.234
25354W        W84450  24.500  15.648  12.093
25355W        W84451   2.472  12.345  14.357
25356W        W84452  17.071   0.940  10.486
25357W        W84453  37.012   3.942  14.454
25358W        W84454   6.756  11.635  11.085
25359W        W84455  36.073  27.947  11.931
25360W        W84456  35.386  35.566  12.414
25361W        W84457  43.492  32.526   2.861
25362W        W84458  12.347  12.270   1.764
25363W        W84459  22.598  35.049   3.633
25364W        W84460  40.446  40.889  11.093
25365W        W84461  25.030  18.681  11.550
25366W        W84462  14.653  11.730   3.305
25367W        W84463  42.974  10.289  14.812
25368W        W84464  25.191  21.073   0.463
25369W        W84465  11.826  43.997   0.415
25370W        W84466   5.317  29.145   1.214
25371W        W84467  44.342   9.380  11.462
25372W        W84468   7.694  21.133   3.846
25373W        W84469   1.428  25.487  13.332
25374W        W84470  20.247  24.139  12.568
25375W        W84471  40.907  12.348  11.008
25376W        W84472  12.781  15.711  11.886
25377W        W84473   1.392  11.128   1.223
25378W        W84474  19.085  32.444   3.814
25379W        W84475  28.652  21.611  12.359
25380W        W84476  21.065  27.632  13.837
25381W        W84477   6.769  10.264  13.336
25382W        W84478  23.533  19.672  12.091
25383W        W84479  23.144   6.687   3.785
25384W        W84480   8.756  19.278   4.625
25385W        W84481   0.799  23.685  10.972
25386W        W84482  20.042   9.701   1.802
25387W        W84483   0.355   9.339  11.059
25388W        W84484  11.679  10.179   3.758
25389W        W84485  18.700  35.961  12.495
25390W        W84486  37.061  29.970  10.586
25391W        W84487  19.551  29.963  10.897
25392W        W84488  20.140  39.403   1.824
25393W        W84489  11.218  11.727   4.312
25394W        W84490  15.188  19.665  11.921
25395W        W84491   4.729  40.993  11.941
25396W        W84492   2.255  32.035   2.735
25397W        W84493   0.804  17.306   0.470
25398W        W84494  39.977   6.681  10.619
25399W        W84495  11.190  10.185  11.869
25400W        W84496   6.328  18.639   2.675
25401W        W84497   2.391  28.132   3.374
25402W        W84498   9.193  20.267  10.431
25403W        W84499   9.713  18.247  12.536
25404W        W84500  18.664  36.841  12.963
25405W        W84501  17.777  15.638   3.661
25406W        W84502  38.058   0.330  12.069
25407W        W84503  26.082  33.953  13.906
25408W        W84504  42.839  21.123  14.317
25409W        W84505  21.188   9.158   0.821
25410W        W84506  14.197  35.531  10.426
25411W        W84507   5.322  21.185  11.907
25412W        W84508  21.086  28.000   2.724
25413W        W84509   0.973  21.200  14.420
25414W        W84510  37.498  32.504  12.422
25415W        W84511  15.596  44.984   1.858
25416W        W84512  14.156  39.903   4.148
25417W        W84513  26.624  16.088   0.412
25418W        W84514   3.311  24.574  14.374
25419W        W84515  28.555  30.441   5.190
25420W        W84516  17.615  19.557   1.904
25421W        W84517  33.885  39.427   0.954
25422W        W84518   1.907  42.805   1.416
25423W        W84519   9.229  43.407   0.298
25424W        W84520  26.575  28.948   2.226
25425W        W84521   2.441  10.139  13.027
25426W        W84522  35.374   6.276  10.970
25427W        W84523  13.783  24.133   3.216
25428W        W84524  19.748  23.147  11.483
25429W        W84525  31.066  26.521  14.432
25430W        W84526  32.983   1.892  10.584
25431W        W84527  22.070  31.570   4.605
25432W        W84528  17.249  26.619  13.925
25433W        W84529  30.084  39.444   1.834
25434W        W84530  10.230  37.984   3.794
25435W        W84531  16.584   7.737  11.060
25436W        W84532   9.356  33.405   1.895
25437W        W84533  42.886  27.982   2.865
25438W        W84534  41.970   0.337   3.864
25439W        W84535  11.651  35.448  10.533
25440W        W84536  37.540  21.616  12.489
25441W        W84537  39.383  39.972   2.302
25442W        W84538  27.689  19.632  13.862
25443W        W84539  21.235  35.086   2.821
25444W        W84540   7.777  39.812   3.331
25445W        W84541  26.134  41.502  14.889
25446W        W84542  41.933   1.898   3.664
25447W        W84543  17.631  16.805  12.933
25448W        W84544  26.981  25.011  12.002
25449W        W84545  25.098  30.599  13.838
25450W        W84546  44.422  21.615   2.411
25451W        W84547   5.334  20.262  10.917
25452W        W84548  43.896  10.801   0.439
25453W        W84549  16.690  33.051   4.122
25454W        W84550  36.847  26.519  10.491
25455W        W84551   5.272   0.464  13.043
25456W        W84552  14.737  18.685  13.410
25457W        W84553  33.479  30.419   0.874
25458W        W84554  44.857  31.464  13.019
25459W        W84555  10.271  38.982   2.410
25460W        W84556   9.382  39.361   2.323
25461W        W84557  10.661   1.436   0.757
25462W        W84558  31.469   4.743  13.415
25463W        W84559  37.537  18.296  12.440
25464W        W84560   5.701  13.679   2.239
25465W        W84561   0.951  32.429  13.476
25466W        W84562   7.304  28.485  11.938
25467W        W84563   4.710  14.190   4.273
25468W        W84564  23.591  11.158   4.659
25469W        W84565  32.132  18.596  11.091
25470W        W84566  43.314  10.231  13.352
25471W        W84567  16.663   3.421  11.124
25472W        W84568  19.615   4.444   0.363
25473W        W84569   2.858  42.304   2.331
25474W        W84570  35.431  44.268   4.718
25475W        W84571  36.889  23.090  12.966
25476W        W84572  20.029  42.964   4.678
25477W        W84573  17.797  22.027  14.514
25478W        W84574  39.509   5.431  11.883
25479W        W84575  30.970  19.613  14.376
25480W        W84576   1.876  33.384  14.840
25481W        W84577  19.768  28.971  13.409
25482W        W84578   4.890  18.233   4.683
25483W        W84579  34.562  38.500   1.390
25484W        W84580   8.744   6.715   1.699
25485W        W84581  23.062  28.967  12.971
25486W        W84582  30.526  13.688   2.845
25487W        W84583  13.122  41.910   0.750
25488W        W84584  34.389   7.781   0.367
25489W        W84585  15.142  42.900  10.568
25490W        W84586  43.941  41.376  11.446
25491W        W84587   9.356  27.945  11.412
25492W        W84588  40.848  34.415   0.357
25493W        W84589  22.189  11.632   0.474
25494W        W84590  35.561  14.193  12.885
25495W        W84591  25.002  29.450  12.837
25496W        W84592  10.840  38.936   2.399
25497W        W84593   8.337  11.155  13.836
25498W        W84594  20.238   3.359  12.407
25499W        W84595  31.548  28.138   4.766
25500W        W84596  10.709   7.886  13.503
25501W        W84597  29.582  15.811  14.340
25502W        W84598  27.456   6.894  13.472
25503W        W84599  34.895  27.188   0.464
25504W        W84600  44.815  25.013   0.361
25505W        W84601  32.475   5.825   3.701
25506W        W84602  35.411  12.665   0.843
25507W        W84603  26.038  34.096   2.380
25508W        W84604  36.927  38.904   0.763
25509W        W84605  35.032  18.782   1.890
25510W        W84606  28.069  14.339  14.855
25511W        W84607   2.729   0.826   3.681
25512W        W84608   1.905  38.555   0.248
25513W        W84609  12.652  16.607  10.595
25514W        W84610  42.344  44.923  14.491
25515W        W84611   1.810  20.162   3.680
25516W        W84612  36.079  29.016   3.359
25517W        W84613  13.256  29.999   0.818
25518W        W84614   6.827  23.202   2.348
25519W        W84615  42.486  30.142  13.413
25520W        W84616   6.811  37.993  12.003
25521W        W84617  41.956  19.594  13.967
25522W        W84618  18.731  17.092  12.355
25523W        W84619   5.345  37.500  14.019
25524W        W84620  35.551  33.466   0.807
25525W        W84621  23.141  34.001  13.054
25526W        W84622  37.847  37.971   1.905
25527W        W84623  42.007  20.685  10.540
25528W        W84624  28.491   5.406  14.287
25529W        W84625  32.491  31.909  11.982
25530W        W84626  39.467  31.140   0.275
25531W        W84627   5.837  13.657   2.903
25532W        W84628  26.076  22.057  13.935
25533W        W84629  12.201  31.925   1.709
25534W        W84630  32.404  40.980  13.825
25535W        W84631   6.298  11.637   3.699
25536W        W84632  23.011  37.488   2.258
25537W        W84633  30.136  15.128  11.403
25538W        W84634  26.660  34.595   2.186
25539W        W84635  32.449  26.170  13.817
25540W        W84636  31.555  43.899   3.285
25541W        W84637  40.979  42.980  11.574
25542W        W84638  43.292   6.185  10.486
25543W        W84639  19.106  32.078   2.795
25544W        W84640  38.881  22.690  14.299
25545W        W84641  24.548  17.745  11.493
25546W        W84642  20.595  20.549  12.898
25547W        W84643  17.171   7.734   4.624
25548W        W84644  34.909  13.769  11.503
25549W        W84645  22.146   1.917  12.356
25550W        W84646  16.648  37.451  14.992
25551W        W84647  35.883  44.297   2.318
25552W        W84648  32.494   7.203  13.487
25553W        W84649  16.281   0.377   3.869
25554W        W84650  13.791   8.714  12.962
25555W        W84651  39.381  38.525   0.885
25556W        W84652  39.031  16.592  11.375
25557W        W84653  26.166   7.202  14.889
25558W        W84654  16.118   8.164   1.358
25559W        W84655   7.351   6.769   1.742
25560W        W84656  29.087  25.990  12.028
25561W        W84657  40.875  42.852   4.677
25562W        W84658  39.841  11.246   4.179
25563W        W84659   7.333  17.678  14.410
25564W        W84660  24.153  33.539  14.512
25565W        W84661  27.089   6.842   3.674
25566W        W84662  19.127   3.420   1.398
25567W        W84663   8.756  27.619   1.803
25568W        W84664  37.080  25.111   4.248
25569W        W84665  30.054  41.476  12.928
25570W        W84666   2.935   5.226  13.342
25571W        W84667  20.653  11.345  14.321
25572W        W84668  24.705  17.176  12.956
25573W        W84669  18.778  27.624   3.729
25574W        W84670  38.070   8.781  13.427
25575W        W84671  39.921  27.147  13.315
25576W        W84672   8.870  16.142  13.315
25577W        W84673  40.878   5.435   3.695
25578W        W84674  30.096  40.910  12.431
25579W        W84675  21.756  10.276  13.468
25580W        W84676  41.498  11.806   3.770
25581W        W84677  36.517  34.495   4.228
25582W        W84678  35.930  12.852   0.755
25583W        W84679  31.562  42.452   1.710
25584W        W84680  39.963  13.271  11.384
25585W        W84681  42.365  33.936  13.485
25586W        W84682  26.696  22.723   1.696
25587W        W84683  36.577   6.861  12.930
25588W        W84684   8.817  15.275   1.407
25589W        W84685   3.832  23.112  14.351
25590W        W84686  33.564   3.920  13.039
25591W        W84687  39.402  27.039  13.990
25592W        W84688  23.567  34.534   3.739
25593W        W84689  44.274  33.005  11.978
25594W        W84690  38.988  37.519   1.216
25595W        W84691  19.714   7.316  10.051
25596W        W84692  25.069  36.553  13.430
25597W        W84693  19.618  31.088   1.418
25598W        W84694   6.838  21.144  10.584
25599W        W84695  11.637  26.634   2.720
25600W        W84696   9.172   6.782   4.252
25601W        W84697   3.405  27.509   0.756
25602W        W84698  27.555  11.329   1.309
25603W        W84699  42.865   1.750  14.348
25604W        W84700   4.767  27.121  11.547
25605W        W84701  23.219  33.490  11.909
25606W        W84702  28.128  44.008  14.445
25607W        W84703  25.974   2.436   1.744
25608W        W84704  39.031   9.223  13.346
25609W        W84705  41.476   4.438  14.292
25610W        W84706   9.166  19.670  13.035
25611W        W84707  39.852  20.562   1.844
25612W        W84708   3.227  26.624  11.394
25613W        W84709  38.414   7.262  13.335
25614W        W84710  20.687  35.468   3.770
25615W        W84711  19.706   6.917   0.870
25616W        W84712  23.172  24.489   2.704
25617W        W84713  30.164   1.276   1.708
25618W        W84714  22.646  36.847   0.735
25619W        W84715  29.975  27.502  11.449
25620W        W84716  23.154  15.660  14.328
25621W        W84717  11.257  35.878   2.802
25622W        W84718   6.274  10.828  10.617
25623W        W84719   2.434  13.672   1.756
25624W        W84720  31.948   7.894   3.823
25625W        W84721  39.488   4.431   0.843
25626W        W84722  39.322  14.622   0.438
25627W        W84723  13.769  18.750  12.064
25628W        W84724   4.366   6.727  12.479
25629W        W84725  26.637  14.107   1.226
25630W        W84726   8.211  17.222  13.400
25631W        W84727  42.936  27.506  11.460
25632W        W84728  32.591  11.861   4.277
25633W        W84729  22.057   3.730   1.435
25634W        W84730   4.834  44.303  11.579
25635W        W84731  16.597   5.264  10.496
25636W        W84732  19.080  18.674  14.320
25637W        W84733  29.585  13.754  13.532
25638W        W84734   3.254   6.376  11.043
25639W        W84735  36.543  27.457   1.240
25640W        W84736  20.537  18.158   0.819
25641W        W84737  12.735  39.857   4.274
25642W        W84738  40.517  18.128   4.263
25643W        W84739   8.260  19.123  11.611
25644W        W84740  13.757  27.013  14.412
25645W        W84741  41.405  43.950   3.794
25646W        W84742  12.774  20.641   1.843
25647W        W84743  19.613  40.936   2.801
25648W        W84744  35.939  41.416  11.931
25649W        W84745   6.703  17.099   0.308
25650W        W84746  11.734  37.551   5.148
25651W        W84747  10.853  14.147  14.394
25652W        W84748  22.010  38.911   3.772
25653W        W84749  26.611   8.393   0.902
25654W        W84750  13.187  27.683  13.809
25655W        W84751  13.124  37.348  13.505
25656W        W84752  21.546  32.443  10.489
25657W        W84753  38.389  40.041   1.435
25658W        W84754  37.477  15.662   5.278
25659W        W84755  23.588  21.245   4.809
25660W        W84756  14.824   8.784   3.658
25661W        W84757   2.759  40.478   0.299
25662W        W84758  12.349  11.293  12.041
25663W        W84759  15.580   4.908   9.991
25664W        W84760   1.336  39.530   1.698
25665W        W84761  27.533  34.104   0.905
25666W        W84762  15.770  19.748   5.280
25667W        W84763  30.592  28.175  13.912
25668W        W84764  33.000  10.852   0.808
25669W        W84765  25.111  31.098  12.408
25670W        W84766  36.451  28.434  10.414
25671W        W84767  11.252  15.763  10.545
25672W        W84768   5.363  12.187  10.985
25673W        W84769  23.651  35.589  14.511
25674W        W84770  17.204  11.365  10.936
25675W        W84771   9.239  29.046  14.442
25676W        W84772  23.688  22.607   0.733
25677W        W84773  24.700  42.936   0.264
25678W        W84774  22.069  30.450   0.775
25679W        W84775  38.929   9.358  12.997
25680W        W84776  10.283  32.914  10.570
25681W        W84777  29.637   5.274  13.407
25682W        W84778  12.130   5.879  12.527
25683W        W84779  31.924  36.390   3.201
25684W        W84780  41.993  11.215   2.216
25685W        W84781  16.744  34.060  12.563
25686W        W84782   9.318  25.494  12.439
25687W        W84783  14.225  32.892   0.796
25688W        W84784  15.734  26.662   1.925
25689W        W84785  39.834  36.011   4.201
25690W        W84786   6.306  20.084  12.454
25691W        W84787   4.397  27.597   0.919
25692W        W84788  38.504  40.381   2.766
25693W        W84789   7.268   6.418  12.067
25694W        W84790   7.204  23.234  12.458
25695W        W84791   6.217  25.050  12.400
25696W        W84792  27.691  32.431  10.100
25697W        W84793  35.103  23.700   1.230
25698W        W84794  43.419  18.715   4.157
25699W        W84795  30.463  36.928  13.059
25700W        W84796   3.228   4.418   0.427
25701W        W84797  32.955  18.629  10.993
25702W        W84798  15.669  35.913   4.173
25703W        W84799  26.575   9.253   0.320
25704W        W84800   1.897  20.692   4.326
25705W        W84801   3.408  28.033   0.890
25706W        W84802  30.643  37.952   2.665
25707W        W84803  37.421  11.622  13.996
25708W        W84804  15.622  29.154  13.873
25709W        W84805  42.944  17.148  11.396
25710W        W84806   7.268   1.451  14.427
25711W        W84807  36.951  39.992  13.352
25712W        W84808  26.662  30.974  10.891
25713W        W84809  10.752  32.563   1.700
25714W        W84810  35.595  40.438  14.422
25715W        W84811  26.517  22.530  11.577
25716W        W84812  16.130  24.658   0.347
25717W        W84813  21.661  11.276   5.647
25718W        W84814  32.050  16.770   0.385
25719W        W84815   8.685   3.734   4.783
25720W        W84816   3.765  25.657   3.156
25721W        W84817  19.586  21.690   0.961
25722W        W84818  17.772  25.977  14.921
25723W        W84819  15.205  16.750  11.583
25724W        W84820  16.758   4.264  10.555
25725W        W84821  13.210   2.470   0.923
25726W        W84822  35.061   8.679  12.419
25727W        W84823  24.214  43.290   3.732
25728W        W84824  42.809  14.107   1.259
25729W        W84825   2.234  44.898   4.696
25730W        W84826   8.800   6.379  11.458
25731W        W84827  11.149  17.702   1.875
25732W        W84828  31.403  41.298   3.707
25733W        W84829  37.532   2.470  13.025
25734W        W84830  35.860   5.382   4.720
25735W        W84831  32.010  37.854  11.975
25736W        W84832  35.576   9.883  14.947
25737W        W84833  15.085  29.607  10.001
25738W        W84834  13.323  12.646  14.479
25739W        W84835   5.424  38.921   2.396
25740W        W84836  35.516  34.411  13.387
25741W        W84837  24.712  33.107  13.037
25742W        W84838  27.020  18.563  13.040
25743W        W84839  15.297  40.855   1.825
25744W        W84840  28.949  43.892  11.867
25745W        W84841  11.709  31.411   1.426
25746W        W84842   2.465  42.795  12.867
25747W        W84843  14.699   1.947  14.474
25748W        W84844   4.281  26.601   0.943
25749W        W84845  42.287   0.360  12.414
25750W        W84846  11.292  38.549   2.394
25751W        W84847  35.498  16.672  13.397
25752W        W84848  26.602  36.462  10.566
25753W        W84849  29.027   6.837   2.370
25754W        W84850  32.920  41.800   4.286
25755W        W84851  35.499  40.995   4.780
25756W        W84852   7.846   3.444   1.230
25757W        W84853  34.106  44.352   3.179
25758W        W84854  15.254  17.713   4.214
25759W        W84855  37.492  11.794  10.461
25760W        W84856  13.122  39.045  12.569
25761W        W84857  23.709   6.319  11.595
25762W        W84858  23.677   9.752  11.585
25763W        W84859   4.833  16.672   1.869
25764W        W84860   2.739  20.113  12.873
25765W        W84861  26.553  32.910   2.894
25766W        W84862  38.418  40.020  11.447
25767W        W84863   1.750   3.720  11.459
25768W        W84864  34.920  26.133  14.304
25769W        W84865  20.244  26.962  11.494
25770W        W84866  19.694  11.780   4.231
25771W        W84867   7.348  16.719  12.978
25772W        W84868   7.674  21.137   0.463
25773W        W84869  43.995  27.564   1.846
25774W        W84870  18.165  30.948  11.094
25775W        W84871  37.982   9.388  12.918
25776W        W84872  40.979  25.603   2.739
25777W        W84873  15.692  44.758  10.948
25778W        W84874   5.811  33.441  11.561
25779W        W84875  41.871  11.202   3.634
25780W        W84876   0.883   4.769  11.974
25781W        W84877  23.986  33.066   4.720
25782W        W84878  14.617  43.278   2.838
25783W        W84879  40.991   2.363  13.415
25784W        W84880  17.680  33.436   0.410
25785W        W84881  17.686  44.282   4.748
25786W        W84882   7.862  14.782  14.461
25787W        W84883  43.872  34.603  11.590
25788W        W84884  38.558  10.246   1.372
25789W        W84885  20.607  16.200  13.001
25790W        W84886  16.628  29.517   5.105
25791W        W84887  18.649  23.222   3.359
25792W        W84888  26.004  15.108  12.936
25793W        W84889  36.851  31.131   1.932
25794W        W84890  21.208  11.855  14.953
25795W        W84891  41.908  15.590  10.432
25796W        W84892   8.664  42.805  10.467
25797W        W84893  44.765  32.533   1.719
25798W        W84894  15.105  11.307  13.023
25799W        W84895  18.100  28.034   4.129
25800W        W84896  40.375   6.841  13.478
25801W        W84897  18.674  42.806   0.744
25802W        W84898  41.927   4.931   0.864
25803W        W84899  39.362   8.268   2.900
25804W        W84900  33.453  21.577  14.433
25805W        W84901  14.622  31.011  13.532
25806W        W84902  17.581  25.496  10.409
25807W        W84903  18.173  21.530  11.568
25808W        W84904  28.554  24.499  11.572
25809W        W84905   3.744  35.438  13.414
25810W        W84906   1.918  16.802   0.807
25811W        W84907  31.498  43.859  10.626
25812W        W84908  30.519  31.914  12.515
25813W        W84909  40.321   1.454  13.853
25814W        W84910  40.483  23.140   4.337
25815W        W84911  33.396  10.202  12.966
25816W        W84912  14.302  10.305   3.746
25817W        W84913  33.075  20.629   3.676
25818W        W84914   6.737   0.284   1.345
25819W        W84915  41.301  29.531  14.376
25820W        W84916  35.931  15.798   2.864
25821W        W84917  15.597  22.117  12.872
25822W        W84918  15.264  42.342  11.907
25823W        W84919  26.989  32.457   0.393
25824W        W84920  17.560  39.362  14.334
25825W        W84921  37.451  24.559   3.703
25826W        W84922  28.075   9.740   0.374
25827W        W84923  32.514   3.844   2.228
25828W        W84924  25.117  36.977  14.424
25829W        W84925   8.820  39.416   2.748
25830W        W84926   9.178  39.847   4.170
25831W        W84927  26.158  22.601  12.445
25832W        W84928  38.947  35.502  12.029
25833W        W84929   6.428  22.552  10.940
25834W        W84930   2.326  41.497  10.533
25835W        W84931  41.792  38.941  12.058
25836W        W84932  33.977  40.428  12.373
25837W        W84933  22.651  40.965   1.844
25838W        W84934  39.032  34.023   0.353
25839W        W84935  38.913  24.222   4.802
25840W        W84936  40.875  32.447  10.484
25841W        W84937  39.314  39.924   1.893
25842W        W84938  42.848  33.053  12.078
25843W        W84939  38.902   6.721  12.416
25844W        W84940  36.969  14.679  12.964
25845W        W84941   9.281  24.643  10.091
25846W        W84942  15.302  30.094  14.006
25847W        W84943  18.554  40.455   2.393
25848W        W84944  35.857  42.984  12.945
25849W        W84945  29.954  25.521   5.318
25850W        W84946   0.308  43.942  13.497
25851W        W84947  38.354  31.922   0.375
25852W        W84948  44.489  28.082   2.190
25853W        W84949  11.750  41.989   4.688
25854W        W84950  14.804   1.402   1.284
25855W        W84951  27.984  33.901  14.351
25856W        W84952  44.807  29.537   0.468
25857W        W84953   3.346   9.643   0.341
25858W        W84954   1.830  32.536   2.316
25859W        W84955   3.864   4.926   1.309
25860W        W84956  37.027  27.649   1.244
25861W        W84957  38.003  23.598  10.570
25862W        W84958  22.234   1.794   1.833
25863W        W84959  41.982  27.581   3.638
25864W        W84960  20.060  26.603   3.726
25865W        W84961  16.805  29.542  12.558
25866W        W84962  15.676  24.543   1.245
25867W        W84963  32.593  22.096  11.597
25868W        W84964  12.343  44.376   0.468
25869W        W84965  18.610  20.660   2.220
25870W        W84966   5.811  38.874  14.783
25871W        W84967   0.419  40.392   0.912
25872W        W84968   3.917  22.522  10.969
25873W        W84969  37.533   5.761   4.740
25874W        W84970  22.079  15.793  14.899
25875W        W84971  38.067  29.457   3.360
25876W        W84972  43.315  37.011  13.053
25877W        W84973  18.120  21.629   1.271
25878W        W84974  35.980  19.226   1.875
25879W        W84975  32.115  42.332  11.859
25880W        W84976  40.529  35.880   3.637
25881W        W84977  30.989   1.449   1.724
25882W        W84978  16.627   9.314   1.341
25883W        W84979  35.433  38.419   0.931
25884W        W84980  19.274   6.796   4.734
25885W        W84981   5.327  20.107   4.606
25886W        W84982   5.240  31.607  10.502
25887W        W84983  32.125  38.968  12.486
25888W        W84984  27.985  14.690  10.478
25889W        W84985  23.232  11.297   1.833
25890W        W84986  10.203   9.793  12.463
25891W        W84987  13.342  21.230   4.202
25892W        W84988  19.666  32.996   2.694
25893W        W84989  37.011  24.582  11.984
25894W        W84990   6.350  34.091  13.965
25895W        W84991   1.854   8.199  12.976
25896W        W84992  44.780   3.416   1.225
25897W        W84993   9.238  33.557   1.283
25898W        W84994  29.561  40.363  13.792
25899W        W84995  39.916  23.538   3.252
25900W        W84996  31.039  22.050   3.169
25901W        W84997  29.131  23.223  10.936
25902W        W84998  12.613  25.486  12.547
25903W        W84999  40.400  44.376   5.126
25904W        W85000  20.597  37.506   2.701
25905W        W85001  42.372  14.240   2.862
25906W        W85002  37.375  27.490  10.941
25907W        W85003  25.077  23.218  13.513
25908W        W85004   4.798  35.030   5.229
25909W        W85005  10.665   6.246  13.340
25910W        W85006  27.085  27.974   1.364
25911W        W85007   0.398  39.013  10.951
25912W        W85008  20.070   3.854   3.859
25913W        W85009   2.400   0.828  11.559
25914W        W85010  34.464   9.704   3.708
25915W        W85011  20.107   6.782   1.399
25916W        W85012  23.709  20.266  13.899
25917W        W85013  36.520   3.422  14.356
25918W        W85014   7.251   1.823   3.319
25919W        W85015  21.024   7.352   4.792
25920W        W85016  39.410  31.976   1.807
25921W        W85017  14.671  29.128   2.291
25922W        W85018  42.404  37.863   2.354
25923W        W85019   2.429  23.226   0.798
25924W        W85020  25.552  22.031   2.330
25925W        W85021  32.929  21.067  14.904
25926W        W85022  26.622  39.450  11.610
25927W        W85023   7.270  13.643   0.475
25928W        W85024  22.577  22.118   2.672
25929W        W85025   9.859  36.021  10.975
25930W        W85026  16.798  34.398  12.825
25931W        W85027  21.192   3.893   4.699
25932W        W85028   2.772  24.059   3.859
25933W        W85029  19.070  27.557   0.731
25934W        W85030  22.604  38.982   4.661
25935W        W85031  33.040  44.492  12.961
25936W        W85032  44.914  28.503   3.280
25937W        W85033   6.412   5.269   4.770
25938W        W85034   2.442  23.014   2.754
25939W        W85035  15.140  32.597  14.368
25940W        W85036  30.447  38.043  11.077
25941W        W85037   5.432  16.609   1.438
25942W        W85038  11.752  27.069   4.248
25943W        W85039  30.046  31.401  13.349
25944W        W85040  21.702  36.514  10.533
25945W        W85041  11.253  40.974   3.283
25946W        W85042  16.643  23.552   4.244
25947W        W85043  40.471  33.086   3.714
25948W        W85044  16.143  15.774   3.871
25949W        W85045  27.595  38.337   4.635
25950W        W85046   1.921  22.051   0.444
25951W        W85047   0.742  37.936   4.226
25952W        W85048  41.478   8.753   3.176
25953W        W85049  30.502  36.026  14.428
25954W        W85050   2.947  27.482   3.833
25955W        W85051   9.708  27.962  10.440
25956W        W85052   1.869  25.108   4.318
25957W        W85053  32.519  13.608  14.416
25958W        W85054  25.993  13.169  14.336
25959W        W85055  33.588  44.402  12.910
25960W        W85056   4.318  25.512   2.291
25961W        W85057  17.200  10.785   4.260
25962W        W85058  41.299   1.426  12.846
25963W        W85059   2.883  38.842   2.721
25964W        W85060  28.085   3.361   3.188
25965W        W85061  36.843  14.243   0.736
25966W        W85062   8.185   1.285  10.912
25967W        W85063  24.031  11.681  13.848
25968W        W85064  23.585  39.351   3.789
25969W        W85065  22.096  32.921   0.361
25970W        W85066  18.236  18.789   3.787
25971W        W85067  21.256   6.826  12.842
25972W        W85068  35.575  32.611  13.393
25973W        W85069  40.860  24.502   4.271
25974W        W85070   8.825  19.636   2.293
25975W        W85071  31.106   8.729   3.213
25976W        W85072   6.355  34.543   1.888
25977W        W85073  33.520  32.511  14.428
25978W        W85074  29.452  26.126  10.060
25979W        W85075  18.247  27.637  10.519
25980W        W85076  31.527  38.921  11.578
25981W        W85077  43.869  14.607  12.381
25982W        W85078  28.969  40.823  13.992
25983W        W85079  29.515  28.134  11.103
25984W        W85080  19.678  14.659   4.116
25985W        W85081  11.130  27.063  12.377
25986W        W85082  42.831  33.474  10.907
25987W        W85083  41.958  38.481   3.174
25988W        W85084  13.121   8.402   2.322
25989W        W85085  15.648  11.732  14.410
25990W        W85086  10.824  27.078   4.139
25991W        W85087  15.733  36.368   3.647
25992W        W85088  21.739  23.529   1.293
25993W        W85089  11.133  23.619  12.504
25994W        W85090  11.847  39.009  13.527
25995W        W85091   6.789  19.546   1.837
25996W        W85092   5.755  37.872   1.914
25997W        W85093   1.870  11.216   4.683
25998W        W85094  11.818  21.037  12.999
25999W        W85095   4.748   6.197  12.014
26000W        W85096  41.367   0.779   1.415
26001W        W85097  14.812  16.308   0.405
26002W        W85098  22.734  28.522  13.508
26003W        W85099  28.101  16.742   2.732
26004W        W85100  19.158   4.413  11.406
26005W        W85101  31.474  27.985   3.773
26006W        W85102   0.852  22.742   3.644
26007W        W85103  26.630  11.248  13.924
26008W        W85104   9.387  18.778  10.083
26009W        W85105  37.577  28.509  13.426
26010W        W85106  27.064  44.857   0.482
26011W        W85107  40.516  12.616  12.865
26012W        W85108   5.910  23.064  14.333
26013W        W85109  13.324  13.166  10.553
26014W        W85110  28.111  17.167  11.975
26015W        W85111   4.883  28.067  13.814
26016W        W85112  43.412  15.664  11.982
26017W        W85113  25.526  23.204   2.313
26018W        W85114   7.412  23.037   1.427
26019W        W85115  32.943  23.575   3.249
26020W        W85116   5.882  23.613   0.833
26021W        W85117  29.591   7.195   0.889
26022W        W85118   0.984  25.573   3.242
26023W        W85119  38.354   3.745   2.229
26024W        W85120  43.329  35.499  14.769
26025W        W85121  16.806   0.770  11.949
26026W        W85122  38.441   7.719  11.585
26027W        W85123  27.469   3.770  14.780
26028W        W85124   9.394   7.322  11.571
26029W        W85125  28.182  36.028  10.954
26030W        W85126   1.246  11.712  12.993
26031W        W85127  35.894  27.018   4.776
26032W        W85128  37.005  39.353   3.737
26033W        W85129   9.244  35.107  14.404
26034W        W85130  41.029  22.544   4.279
26035W        W85131  24.134   6.802  12.839
26036W        W85132   3.221  28.499   0.834
26037W        W85133  35.433  24.572  14.298
26038W        W85134   3.759  26.074  10.975
26039W        W85135  39.538  38.332  13.316
26040W        W85136   8.849  24.041  12.459
26041W        W85137  42.849  39.818  12.455
26042W        W85138  43.363   6.420  11.455
26043W        W85139  23.190  25.991  12.367
26044W        W85140   4.865  38.946   0.477
26045W        W85141  39.430  18.200  10.903
26046W        W85142  41.366   5.420  11.581
26047W        W85143  17.702  25.539  13.532
26048W        W85144   2.441  31.608   2.872
26049W        W85145  43.845   9.214   4.749
26050W        W85146  42.797  41.861   0.313
26051W        W85147  34.032  21.070   0.790
26052W        W85148   0.937  36.403   3.707
26053W        W85149  44.391  35.859  12.830
26054W        W85150   3.393  17.680  12.908
26055W        W85151  16.590  35.060   0.390
26056W        W85152  37.344   3.268  12.530
26057W        W85153   1.760  16.233  12.004
26058W        W85154   9.743  39.364   4.605
26059W        W85155   2.793  41.008  11.957
26060W        W85156   6.385  42.784   3.860
26061W        W85157   9.198  41.364   3.381
26062W        W85158  35.010  14.294  11.531
26063W        W85159  25.207  13.174   4.835
26064W        W85160   6.720   2.732  11.028
26065W        W85161   5.359  14.612   0.775
26066W        W85162  44.834  29.038   1.755
26067W        W85163  36.487  32.134   0.388
26068W        W85164   2.809  13.110  13.881
26069W        W85165   8.333   8.714  13.991
26070W        W85166   5.899  30.487   3.816
26071W        W85167   4.929   8.815  14.345
26072W        W85168  36.528   6.842  11.372
26073W        W85169  32.487   4.763   2.735
26074W        W85170  32.021  17.153  13.876
26075W        W85171  28.448  23.592  12.510
26076W        W85172  44.815   6.342  14.364
26077W        W85173  30.435  40.531   0.812
26078W        W85174  18.574  14.588   3.290
26079W        W85175   5.205  44.938  12.001
26080W        W85176  17.598   5.821   3.805
26081W        W85177  40.812  19.610   2.799
26082W        W85178  29.163  23.180  14.024
26083W        W85179  10.256  10.287   2.316
26084W        W85180  18.114   9.736   1.357
26085W        W85181  31.541  23.610  12.967
26086W        W85182  24.550   9.213   3.360
26087W        W85183   0.936  33.879   1.299
26088W        W85184  16.786  24.054   3.692
26089W        W85185  40.901   7.749   4.727
26090W        W85186  13.718  38.014   0.815
26091W        W85187  29.982  27.033  14.357
26092W        W85188  40.450  11.335  12.556
26093W        W85189  27.519  42.503   2.848
26094W        W85190  14.633  19.585  11.925
26095W        W85191  42.369   9.768   2.340
26096W        W85192  43.806  34.011  13.908
26097W        W85193  22.601  27.057   0.965
26098W        W85194  13.758  20.563   2.674
26099W        W85195  28.528  14.673   3.175
26100W        W85196  32.482  19.695   4.210
26101W        W85197  25.117  41.479  13.385
26102W        W85198  27.640  32.485   0.275
26103W        W85199  28.512  33.517  13.940
26104W        W85200  22.664  25.088   4.327
26105W        W85201  41.936  35.858   4.699
26106W        W85202  37.529  17.642   5.743
26107W        W85203  43.841  34.979  12.959
26108W        W85204  40.836  21.613  11.380
26109W        W85205  29.058   6.247  13.025
26110W        W85206  17.079  42.839  13.849
26111W        W85207  21.651  36.976   2.378
26112W        W85208  30.570  43.298   1.833
26113W        W85209  37.088   2.830  13.919
26114W        W85210  31.535   8.344   3.191
26115W        W85211  24.479   0.774   1.903
26116W        W85212   6.191  29.989  13.436
26117W        W85213  11.651  14.832   3.755
26118W        W85214  43.895  10.261  12.998
26119W        W85215  15.218   9.649   1.718
26120W        W85216  20.529   7.778  14.858
26121W        W85217  43.790  33.402   4.137
26122W        W85218  15.818  27.657   9.954
26123W        W85219  21.754  30.523  10.977
26124W        W85220  42.943  34.553   1.427
26125W        W85221  14.614  42.290  13.375
26126W        W85222  37.527  25.705   4.669
26127W        W85223   3.807  24.047   4.146
26128W        W85224  27.481   5.197   2.896
26129W        W85225  17.716  19.764   2.238
26130W        W85226  39.865  25.119  14.481
26131W        W85227  35.446  25.161   2.312
26132W        W85228  33.401  44.916  10.507
26133W        W85229  17.585  10.217   4.341
26134W        W85230  17.801  26.120  14.027
26135W        W85231   4.788   5.360  12.028
26136W        W85232  40.924  37.408  14.997
26137W        W85233  11.348   7.877   1.324
26138W        W85234  15.724  25.692   5.109
26139W        W85235  20.219  25.128  14.026
26140W        W85236  25.152  17.696   0.950
26141W        W85237   2.824  11.286   3.740
26142W        W85238  24.673   8.206   1.924
26143W        W85239   9.725  31.503   1.414
26144W        W85240  36.523  17.558  12.504
26145W        W85241  33.953   7.335  14.892
26146W        W85242  37.394   1.445   3.201
26147W        W85243  42.497  39.438   2.392
26148W        W85244   5.423   1.479   2.349
26149W        W85245  19.048  27.529  11.941
26150W        W85246   6.918  22.243   3.742
26151W        W85247  33.075  44.826  12.997
26152W        W85248  26.515   1.410  10.592
26153W        W85249  30.020   5.303   2.821
26154W        W85250  29.446  29.452   1.698
26155W        W85251  38.507   8.323  10.484
26156W        W85252  43.383  42.477   2.848
26157W        W85253   1.746   1.832  11.100
26158W        W85254   1.906  10.735  10.532
26159W        W85255  11.250  28.090  13.503
26160W        W85256  37.550   4.859   0.415
26161W        W85257   9.197  24.599  13.449
26162W        W85258  44.269  28.494  13.333
26163W        W85259  11.146  26.203  10.592
26164W        W85260  34.452  15.628   0.252
26165W        W85261  44.755  40.440  13.469
26166W        W85262  38.010  14.125   3.824
26167W        W85263  40.806  13.293  12.412
26168W        W85264  30.600  24.066   4.707
26169W        W85265  30.071  36.844   0.270
26170W        W85266   5.276  34.006   0.760
26171W        W85267  42.777   2.902   0.291
26172W        W85268  23.163   3.266   2.791
26173W        W85269  26.693  33.455  12.042
26174W        W85270  35.417   2.783   2.342
26175W        W85271  13.219   6.259  10.046
26176W        W85272   0.432  43.822   3.258
26177W        W85273  29.998  39.872  12.979
26178W        W85274   2.724  16.226   3.852
26179W        W85275  23.080  44.861   4.732
26180W        W85276  16.683   5.217  13.457
26181W        W85277  43.828  16.254   3.644
26182W        W85278  43.441  33.926  13.401
26183W        W85279  21.109  22.543  14.012
26184W        W85280  34.607  21.027   0.361
26185W        W85281  29.065   1.976  10.984
26186W        W85282  38.823  36.852  11.008
26187W        W85283  25.624  31.010   0.904
26188W        W85284  22.147  22.532   3.847
26189W        W85285  16.093   5.913   1.707
26190W        W85286  12.129   8.739   3.752
26191W        W85287  26.053  43.399   2.689
26192W        W85288  26.013  41.968   1.698
26193W        W85289   1.378  39.492  13.353
26194W        W85290  30.115  12.770   3.858
26195W        W85291  15.248  43.501   0.934
26196W        W85292   9.182  25.710  14.866
26197W        W85293  41.891  16.317   3.669
26198W        W85294  35.060  29.005  11.565
26199W        W85295  10.688   6.898  10.450
26200W        W85296   8.799  20.238   0.399
26201W        W85297  26.531  32.561   3.722
26202W        W85298   7.316  24.105   0.937
26203W        W85299  11.678  23.161   0.374
26204W        W85300  40.941   3.370  14.317
26205W        W85301  42.319  40.814   3.385
26206W        W85302   1.349  33.468   3.866
26207W        W85303  38.884  28.026  13.320
26208W        W85304  21.118   5.239  10.541
26209W        W85305  32.425  13.119   2.757
26210W        W85306  43.864  30.120  14.398
26211W        W85307  25.132  22.729   3.225
26212W        W85308  19.151  36.061   5.153
26213W        W85309   8.881  44.954   0.288
26214W        W85310   1.837   5.803  14.032
26215W        W85311  16.781   7.769  13.309
26216W        W85312  14.149  18.786   4.687
26217W        W85313  42.341  42.461   3.796
26218W        W85314  12.669  13.130  11.927
26219W        W85315  17.686  44.347  10.977
26220W        W85316   5.390  34.387   0.929
26221W        W85317  26.058  25.211  10.583
26222W        W85318   5.847   5.252   0.855
26223W        W85319   3.279  12.342   2.766
26224W        W85320  34.052   3.844   4.727
26225W        W85321  14.803  20.093  12.035
26226W        W85322  27.666  16.605  13.895
26227W        W85323  29.997  41.329  11.561
26228W        W85324  30.963   4.862  14.489
26229W        W85325  40.374  43.989   3.771
26230W        W85326   2.265  40.419   2.388
26231W        W85327  41.382   4.350   2.762
26232W        W85328  43.323  19.190   1.840
26233W        W85329  21.122  42.986  11.489
26234W        W85330  34.450  38.038   2.371
26235W        W85331  32.020  27.593   0.438
26236W        W85332  15.619  13.693   0.449
26237W        W85333  25.542  27.195  13.404
26238W        W85334  29.662  11.269  13.404
26239W        W85335   8.787   3.955  11.572
26240W        W85336   1.435  34.874  13.334
26241W        W85337  44.821  23.626  13.321
26242W        W85338   5.900   7.375  14.941
26243W        W85339  14.152   2.398   2.354
26244W        W85340  40.966  42.480   4.806
26245W        W85341  30.605   3.791   4.313
26246W        W85342  13.718   5.851   3.715
26247W        W85343  29.558  36.438   2.839
26248W        W85344  41.303  42.291   3.292
26249W        W85345   6.845  22.033  14.384
26250W        W85346   9.155   6.718   3.261
26251W        W85347  14.168  31.985  14.017
26252W        W85348   5.896  11.718  11.506
26253W        W85349  21.258   8.232  12.838
26254W        W85350  31.049  14.595  11.512
26255W        W85351   8.741  43.332   1.307
26256W        W85352  34.456  17.785   0.899
26257W        W85353  35.067  20.029  13.051
26258W        W85354  20.138  38.056  14.438
26259W        W85355  17.657  33.950   1.861
26260W        W85356  26.547  41.329   0.381
26261W        W85357  25.482  24.185   0.875
26262W        W85358  19.723  20.731  13.321
26263W        W85359  43.516  16.785   1.742
26264W        W85360  26.666  44.505   2.707
26265W        W85361  19.660   8.893  12.393
26266W        W85362  43.445  23.680  13.464
26267W        W85363  10.144  32.075  11.548
26268W        W85364   5.228  19.113   0.352
26269W        W85365   5.354  34.908   1.850
26270W        W85366  25.667  29.093   0.746
26271W        W85367  17.731  21.514  10.970
26272W        W85368  38.447  38.956  10.582
26273W        W85369  26.660  42.929   1.846
26274W        W85370  37.425  16.216  11.905
26275W        W85371  36.426  17.568  12.842
26276W        W85372  26.530  38.515   3.314
26277W        W85373   6.379  22.062  13.946
26278W        W85374  25.551  12.254  14.784
26279W        W85375  36.854   9.888   2.400
26280W        W85376   6.292  35.864   1.774
26281W        W85377   5.759  41.310   1.330
26282W        W85378   4.728  41.374   0.773
26283W        W85379  11.323  15.680   2.766
26284W        W85380  22.546  24.489  13.546
26285W        W85381   6.801  16.657   0.281
26286W        W85382  23.524   8.306  11.448
26287W        W85383  20.099  22.588  13.839
26288W        W85384   2.955  11.647   0.751
26289W        W85385  12.220  20.107   9.567
26290W        W85386  17.229   6.203  12.440
26291W        W85387   5.247  44.830   2.882
26292W        W85388  22.620  15.157  14.416
26293W        W85389  30.434  16.804   4.603
26294W        W85390   6.344  34.094   0.402
26295W        W85391  42.000  42.797   1.258
26296W        W85392   1.449  31.486   0.958
26297W        W85393  21.605  33.483  12.543
26298W        W85394  11.359  33.461   0.877
26299W        W85395  21.119  32.005  14.506
26300W        W85396  43.308  23.052   3.260
26301W        W85397  25.004   5.707  11.024
26302W        W85398  36.445   5.343   0.308
26303W        W85399  41.796  41.364   2.748
26304W        W85400  21.681  20.208   2.720
26305W        W85401  40.328   5.862  10.464
26306W        W85402  35.962  37.838   2.226
26307W        W85403  39.971  32.952  10.456
26308W        W85404  12.154  43.934   3.804
26309W        W85405   6.220  40.404  10.492
26310W        W85406  12.135  23.174  14.394
26311W        W85407  22.579  43.424  12.880
26312W        W85408  39.980  40.486   3.767
26313W        W85409  35.564  20.213   3.810
26314W        W85410  18.098  34.045  10.938
26315W        W85411  36.883  36.453  13.002
26316W        W85412   4.217   3.787  11.558
26317W        W85413   3.300  11.796   1.910
26318W        W85414  37.977  43.307  13.471
26319W        W85415  17.107  43.337  11.872
26320W        W85416  33.434   3.316   0.785
26321W        W85417  25.983  16.218  13.456
26322W        W85418  36.967  42.475   1.895
26323W        W85419  18.704  24.040   3.180
26324W        W85420  28.508  39.882  13.496
26325W        W85421  32.113  43.767  13.970
26326W        W85422  33.387  37.896   4.243
26327W        W85423  37.398  11.655  10.015
26328W        W85424  19.612  33.583   1.212
26329W        W85425   3.367  22.041   3.326
26330W        W85426  17.132  18.201   1.317
26331W        W85427  29.547   4.784   0.393
26332W        W85428  16.286   2.967  11.896
26333W        W85429  23.174  10.197   3.731
26334W        W85430   0.767  32.392   1.370
26335W        W85431   2.308  44.010   1.303
26336W        W85432   6.342  36.083  10.410
26337W        W85433  15.634  18.653   2.712
26338W        W85434  34.407  24.508  12.413
26339W        W85435  13.757   2.802  11.382
26340W        W85436   8.797  19.743  10.024
26341W        W85437  29.588  21.535  11.458
26342W        W85438  38.835   8.806  12.402
26343W        W85439   7.765   4.276   3.747
26344W        W85440  15.175  27.025   1.918
26345W        W85441  33.404  29.056   2.810
26346W        W85442   4.235  40.887   0.403
26347W        W85443  17.781  13.106   4.738
26348W        W85444  22.233  11.356  12.399
26349W        W85445  13.193  24.101   5.276
26350W        W85446  30.917  40.309   0.751
26351W        W85447  12.812  39.058  11.398
26352W        W85448  19.737  22.574  10.466
26353W        W85449  14.753  29.594  14.883
26354W        W85450  10.870  11.799  11.579
26355W        W85451   0.276   0.389   1.804
26356W        W85452   0.261  14.309   3.169
26357W        W85453   4.778   5.884   2.803
26358W        W85454  20.598  34.053   2.824
26359W        W85455  24.561  32.070   1.737
26360W        W85456   6.222  26.499  12.891
26361W        W85457  34.480  18.280  12.082
26362W        W85458  14.273  35.984  11.586
26363W        W85459  18.730  22.098   0.780
26364W        W85460   3.300  26.080  13.541
26365W        W85461  37.499  17.696   1.808
26366W        W85462   6.703  21.154   4.649
26367W        W85463  30.058   4.392   2.276
26368W        W85464  31.490  31.409   4.335
26369W        W85465  41.919  30.563   1.236
26370W        W85466  23.718   8.216   1.414
26371W        W85467  13.256  36.895  12.975
26372W        W85468  30.630  39.921   4.722
26373W        W85469   9.821  38.374  10.495
26374W        W85470  20.149  16.100   1.794
26375W        W85471  18.223  21.103  12.565
26376W        W85472  13.247  19.766   2.377
26377W        W85473  35.073   3.754  11.897
26378W        W85474  26.124  18.744   2.744
26379W        W85475  12.835   4.815  12.898
26380W        W85476  36.415  13.134  14.464
26381W        W85477   9.186  10.216   3.749
26382W        W85478  40.976  30.436  11.463
26383W        W85479   9.370   7.218  12.091
26384W        W85480  29.050   8.341  14.447
26385W        W85481  27.446  37.419  14.390
26386W        W85482  12.836  16.703  11.451
26387W        W85483  19.611  17.151  13.851
26388W        W85484  17.230  13.325   3.823
26389W        W85485  41.416  19.233   4.770
26390W        W85486   8.713  16.656  14.443
26391W        W85487  29.460  17.773  14.884
26392W        W85488  13.127  23.209   0.966
26393W        W85489  28.981  39.953  12.376
26394W        W85490  24.066  30.147  14.935
26395W        W85491  12.202  38.821   3.230
26396W        W85492   2.356  20.768   2.700
26397W        W85493   3.931  44.870  12.013
26398W        W85494  18.786  17.070   2.874
26399W        W85495  34.074  27.584  10.644
26400W        W85496  20.742  15.709  11.857
26401W        W85497  16.629  25.990  13.345
26402W        W85498  17.132  44.773   2.870
26403W        W85499  27.079  21.213   4.117
26404W        W85500  36.074  11.630   4.802
26405W        W85501  38.401  44.828  14.942
26406W        W85502   6.755  27.143  14.823
26407W        W85503  11.661  17.100   0.913
26408W        W85504  42.850  24.083  12.423
26409W        W85505  14.591  34.118  11.034
26410W        W85506  27.450  18.215   3.147
26411W        W85507  36.501  10.845  10.023
26412W        W85508  22.104  43.864   0.755
26413W        W85509  30.923  36.558   4.759
26414W        W85510  21.618  29.533   0.472
26415W        W85511   1.886  31.990   4.140
26416W        W85512  21.554  33.501  11.011
26417W        W85513  39.040  31.008  12.974
26418W        W85514  30.646  12.311  13.458
26419W        W85515   0.278   3.828   2.241
26420W        W85516  26.186  39.377  14.776
26421W        W85517  20.668  14.337   4.683
26422W        W85518   8.162   9.693   3.318
26423W        W85519   3.274  19.173   3.358
26424W        W85520  19.629  39.832   2.191
26425W        W85521  35.983  12.698   0.398
26426W        W85522  32.494  36.905  14.769
26427W        W85523  41.817  42.402   2.373
26428W        W85524   8.184  26.057  13.415
26429W        W85525  13.200  15.770   0.862
26430W        W85526   9.665   8.825  12.571
26431W        W85527  24.997  19.720  13.544
26432W        W85528  22.204  32.919  14.442
26433W        W85529  30.912  26.700   9.944
26434W        W85530  33.385  20.563  10.073
26435W        W85531   3.949  41.320   0.436
26436W        W85532  41.329  43.474  12.370
26437W        W85533   8.692  42.990  11.971
26438W        W85534  41.347  28.159   2.409
26439W        W85535  40.460  34.538   3.683
26440W        W85536  17.296  40.312  11.607
26441W        W85537  13.733  19.747  14.801
26442W        W85538  16.716  23.514   2.829
26443W        W85539  10.381   5.320  10.407
26444W        W85540  27.078  41.456   3.635
26445W        W85541  23.499  14.144  11.905
26446W        W85542  36.939  22.133  14.795
26447W        W85543  21.096  17.100   3.743
26448W        W85544  34.455  29.586   2.703
26449W        W85545  24.118   6.186   1.829
26450W        W85546  35.914  27.184   2.249
26451W        W85547  44.285  23.657   1.259
26452W        W85548  28.028  28.959   3.379
26453W        W85549  22.686   0.333  12.830
26454W        W85550  29.423  26.563   4.830
26455W        W85551  40.823  17.622  14.854
26456W        W85552   5.909   7.350   4.181
26457W        W85553  30.631  40.534  11.107
26458W        W85554  38.051   6.840   3.291
26459W        W85555  19.242  10.698  13.811
26460W        W85556  41.318   4.751   2.243
26461W        W85557  32.016  30.974  14.775
26462W        W85558  15.808   1.366   1.828
26463W        W85559  31.032  35.575  10.625
26464W        W85560  43.807  11.129  11.419
26465W        W85561  33.042  32.507   1.701
26466W        W85562  37.889  18.088  12.045
26467W        W85563   0.457  40.361  11.066
26468W        W85564   0.318  13.838  11.870
26469W        W85565  23.588  39.045  12.039
26470W        W85566   6.206  42.023  10.982
26471W        W85567  16.157  27.485  11.987
26472W        W85568   6.817  34.614   4.258
26473W        W85569  29.598   4.795   9.924
26474W        W85570  15.159  27.176   2.216
26475W        W85571  25.529  33.580  11.431
26476W        W85572  32.028  28.434   4.225
26477W        W85573   0.986   1.866  12.087
26478W        W85574  33.563  26.101   0.388
26479W        W85575  35.025  24.999   4.726
26480W        W85576  42.857  31.420   1.217
26481W        W85577  38.978   9.742   2.891
26482W        W85578  10.222  26.679  14.005
26483W        W85579  26.171  12.310   2.296
26484W        W85580  26.629   1.777   4.244
26485W        W85581   8.326  36.467  13.469
26486W        W85582  40.827  33.471   3.161
26487W        W85583   7.861  43.272  11.561
26488W        W85584  18.235   1.295   0.448
26489W        W85585  19.602  29.069  14.021
26490W        W85586   0.770   2.386   3.676
26491W        W85587  35.002   0.351   4.253
26492W        W85588  39.434   9.293  11.888
26493W        W85589  34.514  21.197  13.863
26494W        W85590   1.905  25.991   3.849
26495W        W85591  40.499  37.019   4.321
26496W        W85592   9.781  20.164  12.498
26497W        W85593   2.303  36.090   3.313
26498W        W85594  30.638  21.052  13.864
26499W        W85595  24.549  19.638  13.795
26500W        W85596  25.016  37.562   1.245
26501W        W85597  20.557  23.160  10.404
26502W        W85598   9.249  19.090  11.943
26503W        W85599  23.988  30.523   1.888
26504W        W85600  40.046  38.072  14.870
26505W        W85601  34.990   0.771   4.777
26506W        W85602  16.162  12.181   0.480
26507W        W85603  39.552  35.430   1.271
26508W        W85604  18.171  21.641  11.086
26509W        W85605  10.379   2.939  11.968
26510W        W85606  25.197  27.994   4.822
26511W        W85607  38.565   4.348  13.499
26512W        W85608  15.730   9.723   1.752
26513W        W85609   0.272  10.759   4.135
26514W        W85610  39.323  28.077  10.912
26515W        W85611  22.142  22.600   3.204
26516W        W85612  10.148  42.937   1.353
26517W        W85613  28.443   4.375   2.834
26518W        W85614  41.428  23.128   2.821
26519W        W85615  10.796  12.810   2.204
26520W        W85616  27.036  12.745   3.188
26521W        W85617  11.292   2.306   2.679
26522W        W85618  42.292  31.530   0.285
26523W        W85619  13.721   2.441   3.816
26524W        W85620   7.783  25.581  12.994
26525W        W85621  19.211  26.104   2.889
26526W        W85622  42.986  18.227  14.929
26527W        W85623   7.258   2.908  12.434
26528W        W85624  25.000  22.187   3.376
26529W        W85625   8.864  41.890   5.271
26530W        W85626  29.583   0.938  13.004
26531W        W85627  28.180  26.563   1.300
26532W        W85628  43.320  16.140   1.875
26533W        W85629  32.064  10.154   4.777
26534W        W85630   1.798  42.370   0.389
26535W        W85631  26.071  25.131   4.285
26536W        W85632  39.990   1.919  12.068
26537W        W85633  41.451  18.653   2.811
26538W        W85634  30.111  40.305   4.628
26539W        W85635  26.207   4.811  13.945
26540W        W85636  23.489   1.745  13.999
26541W        W85637  37.076   6.887   2.362
26542W        W85638   5.199  42.780   3.720
26543W        W85639  22.240  26.473  13.931
26544W        W85640   5.364  25.158  11.899
26545W        W85641  43.804  40.312   1.808
26546W        W85642   8.691  32.048   3.855
26547W        W85643  21.652   1.826   0.728
26548W        W85644  14.239  29.651  14.774
26549W        W85645  28.619  42.956   4.157
26550W        W85646  26.177   3.461   0.840
26551W        W85647   4.716  11.129   2.416
26552W        W85648  17.167  25.674  13.843
26553W        W85649  44.803   5.357   1.320
26554W        W85650  19.158  39.979   0.454
26555W        W85651  35.030   5.402  12.432
26556W        W85652   4.292  38.031  12.001
26557W        W85653  20.093  41.335   4.179
26558W        W85654  31.596  35.443   1.879
26559W        W85655  25.059  18.233   5.212
26560W        W85656   8.261  41.963   2.306
26561W        W85657   7.365  34.501  13.898
26562W        W85658  11.176  30.097   0.755
26563W        W85659  27.167   8.732   2.405
26564W        W85660  29.097   6.378   3.230
26565W        W85661   2.248  24.105   4.672
26566W        W85662  15.310  18.101   0.915
26567W        W85663  10.672   2.742   4.825
26568W        W85664   0.924  14.105   2.375
26569W        W85665  29.144   6.901   1.214
26570W        W85666  23.985  14.741  13.495
26571W        W85667   4.354  22.151   3.317
26572W        W85668  44.774  36.423   0.433
26573W        W85669  29.570   0.912  13.826
26574W        W85670   1.840  22.600   3.260
26575W        W85671  11.736   6.364  12.556
26576W        W85672   3.315   1.944   1.253
26577W        W85673  36.954  26.672   0.387
26578W        W85674   6.795  23.731   3.214
26579W        W85675  33.068  10.840   1.254
26580W        W85676  42.420   1.284  14.495
26581W        W85677  41.306   8.201   1.254
26582W        W85678  27.584  44.260  10.887
26583W        W85679  28.968  35.996  13.987
26584W        W85680  19.595  11.130   1.422
26585W        W85681  18.568  32.919  13.884
26586W        W85682   0.335  12.848   4.255
26587W        W85683  40.812  27.973  14.877
26588W        W85684   6.914  10.249  13.040
26589W        W85685  14.696  26.061  13.959
26590W        W85686  37.477  16.793   1.695
26591W        W85687  24.226  11.129   2.221
26592W        W85688  14.755  11.147  14.402
26593W        W85689  44.766  26.196  10.477
26594W        W85690  18.619  32.111   3.383
26595W        W85691   2.255   8.199   2.800
26596W        W85692   6.887  23.168  11.586
26597W        W85693  39.945  35.388  12.916
26598W        W85694  20.742  12.768   0.363
26599W        W85695   0.771   0.927  12.398
26600W        W85696  37.082  24.106  10.956
26601W        W85697   5.731  31.080   4.278
26602W        W85698  38.430  41.456   4.220
26603W        W85699  14.614  43.483   4.202
26604W        W85700  26.137   0.781  11.490
26605W        W85701  39.060  23.096  14.865
26606W        W85702  26.527  12.667  10.616
26607W        W85703  29.573  23.222   4.321
26608W        W85704   4.210  41.954   4.221
26609W        W85705  44.948  38.029  13.448
26610W        W85706  41.830  38.841  12.561
26611W        W85707  42.920  41.949   0.728
26612W        W85708  40.471   7.865   3.702
26613W        W85709  19.724  37.348   2.355
26614W        W85710  20.578  38.345  13.840
26615W        W85711  30.455  24.187   9.942
26616W        W85712  38.972  38.982   9.925
26617W        W85713  11.147   3.842   2.838
26618W        W85714  28.484  34.567   4.341
26619W        W85715  24.676  28.062  13.876
26620W        W85716   7.348  10.713  10.542
26621W        W85717  29.536  21.731  13.898
26622W        W85718   9.786  30.964   4.777
26623W        W85719  38.555  20.181  12.391
26624W        W85720   6.702  24.554  12.515
26625W        W85721   9.778   7.760  14.916
26626W        W85722  42.898   8.677  10.890
26627W        W85723  26.070  39.976   0.958
26628W        W85724   5.334  23.640   2.403
26629W        W85725   0.912  34.001  14.855
26630W        W85726  26.489  37.449  10.607
26631W        W85727  36.359   9.344  14.288
26632W        W85728   3.339  18.138   2.851
26633W        W85729  28.976  16.225   4.725
26634W        W85730  16.728  44.892   2.836
26635W        W85731  16.741  18.665   1.436
26636W        W85732  18.616  30.421   1.931
26637W        W85733  36.360  20.656   0.745
26638W        W85734  17.223  41.483  12.915
26639W        W85735  21.587  43.878   1.283
26640W        W85736   0.911  21.629   4.830
26641W        W85737  24.222  44.490  11.380
26642W        W85738  14.813  16.114   2.253
26643W        W85739  30.501  26.009  11.862
26644W        W85740  11.851   3.423  10.495
26645W        W85741   8.398  35.520   0.817
26646W        W85742  12.700  24.543  14.951
26647W        W85743  16.119   0.351  13.441
26648W        W85744   1.250  40.379   2.789
26649W        W85745  21.133   6.338   9.955
26650W        W85746  11.356  32.451   2.385
26651W        W85747  14.671  40.915  12.361
26652W        W85748  44.474  39.914  11.598
26653W        W85749   8.660   7.177  10.546
26654W        W85750  44.432  32.597  12.016
26655W        W85751  16.161  42.320  11.498
26656W        W85752  18.639  28.463  14.993
26657W        W85753  20.029  44.270   3.669
26658W        W85754  11.249  22.140  14.847
26659W        W85755  40.539  39.857   3.790
26660W        W85756  39.477  19.687  10.947
26661W        W85757  14.592  40.545   9.923
26662W        W85758  25.672   1.813  11.441
26663W        W85759  33.957  27.457  14.856
26664W        W85760   0.479   6.804   4.299
26665W        W85761  20.696   0.767   1.786
26666W        W85762   0.766   4.794   4.194
26667W        W85763  12.804  39.053  13.336
26668W        W85764  36.845  40.917   2.753
26669W        W85765   7.412  20.748   4.265
26670W        W85766  12.275   8.685   3.208
26671W        W85767   2.758  43.997   4.774
26672W        W85768  11.661  41.517   0.390
26673W        W85769  25.122   5.831  10.433
26674W        W85770  36.553   6.240   3.735
26675W        W85771  33.613  15.328   0.434
26676W        W85772  29.567  18.287  13.919
26677W        W85773  38.381  40.816   0.263
26678W        W85774   6.843  16.799   3.275
26679W        W85775   2.252  32.030   0.393
26680W        W85776  18.291   3.929  10.955
26681W        W85777  43.000  15.745  14.993
26682W        W85778  34.062  35.494  12.949
26683W        W85779  31.532  38.915   0.350
26684W        W85780  41.999   7.239   5.198
26685W        W85781  24.508  23.588   1.835
26686W        W85782  21.116  15.694  14.883
26687W        W85783  25.083  20.733  12.053
26688W        W85784   0.471  15.128  10.502
26689W        W85785  33.912  10.200   4.731
26690W        W85786  11.750  19.535   4.612
26691W        W85787   0.317  18.666  12.912
26692W        W85788  15.319   2.808   3.644
26693W        W85789  37.338  24.097   1.741
26694W        W85790  15.625  32.636   2.805
26695W        W85791   8.866  19.215  13.375
26696W        W85792  22.730  40.902   0.428
26697W        W85793  24.065  32.458   4.216
26698W        W85794   7.392   6.685   0.954
26699W        W85795  28.151  11.653   0.967
26700W        W85796  31.611  14.179  10.922
26701W        W85797  35.954  16.081  11.386
26702W        W85798  42.024  34.976   5.164
26703W        W85799  17.139  12.625  12.836
26704W        W85800  24.133  44.835  14.306
26705W        W85801  40.054  30.003   1.257
26706W        W85802   2.784  14.292   3.749
26707W        W85803   2.852  44.986  14.461
26708W        W85804  28.670  16.723  13.023
26709W        W85805  18.686  28.929  14.290
26710W        W85806   4.732  36.504  11.577
26711W        W85807  30.964  41.852   0.456
26712W        W85808  22.585   3.763  11.973
26713W        W85809  14.619  43.470   1.812
26714W        W85810  16.234  15.714   3.366
26715W        W85811  41.880  18.260   1.287
26716W        W85812  17.243  20.120   1.346
26717W        W85813  14.705   8.297   4.168
26718W        W85814   8.722  29.926   4.679
26719W        W85815  28.621  18.105  14.300
26720W        W85816  35.436  28.488   1.751
26721W        W85817   0.438  30.632  11.441
26722W        W85818   4.301   2.961   3.149
26723W        W85819   9.151  28.934  11.985
26724W        W85820  32.077  38.947  13.346
26725W        W85821  42.309  40.800   1.374
26726W        W85822  11.817  41.333   0.807
26727W        W85823  40.818  19.750  13.908
26728W        W85824  43.335  24.073   3.809
26729W        W85825  37.439  18.264   2.670
26730W        W85826   8.389   1.479   1.716
26731W        W85827  15.721  29.011   4.157
26732W        W85828  43.947  10.193  13.497
26733W        W85829  33.899  10.792   4.131
26734W        W85830  17.712  29.003   1.897
26735W        W85831  36.892  42.449  14.789
26736W        W85832   0.956  17.600   4.782
26737W        W85833  32.567   1.388  11.953
26738W        W85834   2.335  21.629  11.988
26739W        W85835  19.277  33.505  14.790
26740W        W85836   8.744   7.189  14.792
26741W        W85837  28.157   3.911  12.040
26742W        W85838  21.125  41.963  13.823
26743W        W85839  22.664  22.541  13.336
26744W        W85840  44.278  29.087  11.406
26745W        W85841  22.109  15.263  12.039
26746W        W85842  25.186  24.573  12.571
26747W        W85843  17.703  23.995  13.791
26748W        W85844  39.882  36.906   2.783
26749W        W85845  20.727  41.475  14.800
26750W        W85846  32.948  31.082  12.032
26751W        W85847  14.188  16.129   3.364
26752W        W85848  31.505  39.037  14.809
26753W        W85849  37.478  29.160   0.840
26754W        W85850  31.438  26.634   3.251
26755W        W85851  20.660  38.392  12.486
26756W        W85852  20.274  23.618  11.040
26757W        W85853  40.945  43.779   1.836
26758W        W85854  36.504  20.056  10.515
26759W        W85855  13.213  31.113   4.642
26760W        W85856  36.987  32.955   2.880
26761W        W85857   5.756  40.535  12.915
26762W        W85858  41.846   7.874  11.955
26763W        W85859  24.108  11.132  10.028
26764W        W85860  21.698  20.264   1.283
26765W        W85861  37.376  27.601   1.802
26766W        W85862  26.638  38.068   9.595
26767W        W85863  20.674  11.161  11.116
26768W        W85864  11.631  29.576  13.845
26769W        W85865  25.146  21.725  14.362
26770W        W85866  39.957  33.532  13.996
26771W        W85867   8.202  13.750  14.282
26772W        W85868  24.512  12.827  11.890
26773W        W85869  42.793  42.949  10.155
26774W        W85870  44.871   5.276   2.699
26775W        W85871  41.407  20.754   1.385
26776W        W85872  33.493  38.829   3.237
26777W        W85873   9.653  13.267   2.302
26778W        W85874   7.384  40.837   4.226
26779W        W85875  18.245  23.666   0.342
26780W        W85876  13.216  12.228   2.782
26781W        W85877  37.032  13.170  12.078
26782W        W85878  12.126  18.669  12.401
26783W        W85879  37.356  36.910   3.159
26784W        W85880   8.664  42.317  11.127
26785W        W85881  18.653  18.219   1.783
26786W        W85882  15.637  11.692   1.831
26787W        W85883  20.655   6.260  13.453
26788W        W85884  26.996  12.171   3.707
26789W        W85885  31.406  28.496   4.745
26790W        W85886  31.094  31.139   1.435
26791W        W85887  30.421  33.056  14.803
26792W        W85888  17.101  30.584  10.045
26793W        W85889  13.603  42.801   2.394
26794W        W85890  22.562   2.890  11.896
26795W        W85891   5.368   1.269  10.419
26796W        W85892  11.331  20.576   2.867
26797W        W85893  15.222   3.748  13.969
26798W        W85894  29.096  30.137  14.312
26799W        W85895  36.075   3.369   0.859
26800W        W85896  23.162  36.421  14.797
26801W        W85897  37.055  29.985   0.414
26802W        W85898   0.253  28.046   3.699
26803W        W85899   5.327  33.122   0.254
26804W        W85900  28.470  21.219   2.338
26805W        W85901  28.457  23.588   3.751
26806W        W85902  37.086  44.787  12.499
26807W        W85903  33.588  11.128   0.774
26808W        W85904  40.324   4.396   1.281
26809W        W85905  21.730  13.760  11.054
26810W        W85906  32.039   8.182   3.779
26811W        W85907  17.688   1.400  10.434
26812W        W85908   2.948  26.565   3.736
26813W        W85909  35.528   6.733   4.693
26814W        W85910  36.379   5.722   2.847
26815W        W85911  40.418  21.113  10.079
26816W        W85912  42.462  12.771  14.853
26817W        W85913  29.018  20.527   5.170
26818W        W85914  29.924  24.486   9.656
26819W        W85915   0.365  30.993  11.519
26820W        W85916  31.614  12.304   4.180
26821W        W85917  44.830  26.612   2.269
26822W        W85918   6.199   1.260  11.600
26823W        W85919  17.212  16.265  12.572
26824W        W85920  44.355  41.792  13.424
26825W        W85921  39.341  40.522  10.901
26826W        W85922   6.232  31.117  10.411
26827W        W85923   7.797  38.999   3.300
26828W        W85924  31.554  35.542  13.012
26829W        W85925  39.024  24.498   3.269
26830W        W85926  15.732   3.908  13.869
26831W        W85927  25.535  18.056  14.784
26832W        W85928  41.913  19.773   3.749
26833W        W85929   8.885  16.117   0.409
26834W        W85930  26.186  39.812  11.564
26835W        W85931  22.197   9.823   3.341
26836W        W85932  31.447  35.001   2.794
26837W        W85933   4.943  17.618  11.539
26838W        W85934  33.476  16.772  14.297
26839W        W85935  29.100   2.433  12.937
26840W        W85936  44.399   8.212  13.936
26841W        W85937   6.402  18.599   1.402
26842W        W85938  28.510  36.847   3.695
26843W        W85939   5.436  33.463   2.327
26844W        W85940  24.005  42.022  14.371
26845W        W85941  44.319   1.976   0.339
26846W        W85942  39.484  30.161   3.157
26847W        W85943  26.633   9.380   4.682
26848W        W85944  10.797  37.381   4.147
26849W        W85945  13.266  16.630  13.930
26850W        W85946  29.585  19.218  12.516
26851W        W85947  10.295  42.814  13.486
26852W        W85948   8.209  33.403  13.907
26853W        W85949   0.872  43.869   0.860
26854W        W85950  14.760   3.857  11.873
26855W        W85951  27.535  25.991   3.856
26856W        W85952  11.634  13.740  10.074
26857W        W85953   3.871  32.564   4.308
26858W        W85954  18.103  14.658  11.025
26859W        W85955  22.092  13.845   3.870
26860W        W85956  44.962  26.583   1.761
26861W        W85957  44.387  25.543  12.040
26862W        W85958  12.811  10.175   2.887
26863W        W85959  29.939  10.868  14.775
26864W        W85960  40.372  15.766  11.481
26865W        W85961   5.791  43.999  10.563
26866W        W85962  20.222   9.842  11.896
26867W        W85963  36.896  23.065   4.637
26868W        W85964  19.775  15.682   3.650
26869W        W85965  10.722   0.407  10.919
26870W        W85966   6.206  21.044  13.479
26871W        W85967   0.284  13.146  10.411
26872W        W85968  40.496  13.753  12.444
26873W        W85969  34.425  40.994  12.993
26874W        W85970  17.591  34.078  11.957
26875W        W85971  31.462  38.949  11.912
26876W        W85972  17.071  18.070   2.774
26877W        W85973  16.117   9.844   2.741
26878W        W85974  32.973  25.021   3.657
26879W        W85975   7.747  25.206   0.838
26880W        W85976  30.433  36.020   0.467
26881W        W85977  40.342  30.428  10.119
26882W        W85978   3.886  39.861   4.332
26883W        W85979  44.279  26.459  12.359
26884W        W85980  36.474   4.839  14.918
26885W        W85981  16.159   1.341  10.911
26886W        W85982  32.438  24.013  12.061
26887W        W85983  15.800  35.009  14.913
26888W        W85984  20.549   0.935   1.262
26889W        W85985  14.300  18.624  13.998
26890W        W85986  18.204  36.453  14.515
26891W        W85987  37.392  34.562   0.436
26892W        W85988  38.945  30.483  13.803
26893W        W85989  16.314  27.451   0.791
26894W        W85990   8.232  21.233   4.639
26895W        W85991  24.113  21.576  11.867
26896W        W85992  11.213  16.239  14.878
26897W        W85993  21.048  29.152   3.149
26898W        W85994  23.122   7.270  12.937
26899W        W85995  12.648  28.165   0.373
26900W        W85996  20.227  43.887   4.229
26901W        W85997  43.371  24.171   1.413
26902W        W85998  26.617  31.644  10.917
26903W        W85999  15.739  13.836   4.197
26904W        W86000  43.461  42.308   0.932
26905W        W86001  19.651  22.528   3.344
26906W        W86002  42.491   2.260   4.665
26907W        W86003  14.769  40.421   3.727
26908W        W86004  34.993  35.929   3.292
26909W        W86005  30.625  24.510  12.558
26910W        W86006   6.687   9.149   4.180
26911W        W86007  37.425  17.696   2.319
26912W        W86008  10.158  24.646   1.224
26913W        W86009   9.886  39.453  14.498
26914W        W86010  25.594   1.750  14.372
26915W        W86011  33.959  41.853  11.492
26916W        W86012  28.090   8.320  14.995
26917W        W86013  31.996  32.390  12.825
26918W        W86014  30.483  39.903  12.411
26919W        W86015  37.919   6.878  13.796
26920W        W86016  23.191  26.973  11.933
26921W        W86017  11.700   2.260  12.502
26922W        W86018  15.821  17.216   1.378
26923W        W86019  39.514  14.159  12.847
26924W        W86020  35.088  27.456  13.983
26925W        W86021  38.446  40.320   1.798
26926W        W86022  12.179  34.372  11.561
26927W        W86023  11.806   5.775   3.782
26928W        W86024   8.871  20.203   2.227
26929W        W86025   8.313  44.761   3.856
26930W        W86026  15.083  22.532   1.323
26931W        W86027   4.379   0.359   1.800
26932W        W86028  21.738  31.934   4.121
26933W        W86029  21.059  25.985   4.700
26934W        W86030  27.562  27.601  14.909
26935W        W86031   2.233   7.177   0.422
26936W        W86032  10.270  21.622   0.739
26937W        W86033  22.099   5.722  13.942
26938W        W86034   0.843  36.408  11.877
26939W        W86035  15.298  36.558  12.460
26940W        W86036  21.096  25.673   1.765
26941W        W86037  38.516  43.316  14.892
26942W        W86038  40.940  22.539   0.482
26943W        W86039   6.326  29.950  13.849
26944W        W86040  27.104  44.857   3.649
26945W        W86041  17.654  11.751   1.417
26946W        W86042  35.883  19.173   2.731
26947W        W86043  41.361   4.767  13.398
26948W        W86044  11.763  39.906   1.859
26949W        W86045   4.257   6.896   3.843
26950W        W86046  37.438   7.211   2.250
26951W        W86047  42.965  24.580   4.176
26952W        W86048  27.602  27.009   0.816
26953W        W86049  43.496  34.099  12.987
26954W        W86050  22.245  41.338  12.369
26955W        W86051  44.927  19.154  11.861
26956W        W86052  40.027  18.172  14.840
26957W        W86053  42.806  17.103   1.745
26958W        W86054  24.479  39.061  12.883
26959W        W86055   0.481   7.737  13.994
26960W        W86056  26.138   0.474  13.422
26961W        W86057  43.516  13.107  13.372
26962W        W86058  39.429  28.456  10.563
26963W        W86059  36.447  13.686  13.526
26964W        W86060  41.984  24.596  12.447
26965W        W86061  40.334  29.473   3.800
26966W        W86062  26.688  11.310   3.859
26967W        W86063  24.484   4.806   2.797
26968W        W86064  37.911  44.412  14.376
26969W        W86065  31.501  31.470  11.606
26970W        W86066   9.747  20.644  11.947
26971W        W86067  35.554   0.281   0.302
26972W        W86068  44.399  18.166  12.437
26973W        W86069   0.824  10.844  12.393
26974W        W86070  24.167   1.460  12.011
26975W        W86071  19.285  43.367   2.293
26976W        W86072  13.758  37.421   2.741
26977W        W86073  22.548  35.927   3.803
26978W        W86074  40.871  15.207   2.820
26979W        W86075   2.923  21.659  12.404
26980W        W86076  27.586  12.139  14.850
26981W        W86077  34.565   5.852   0.243
26982W        W86078  27.021  29.644   2.741
26983W        W86079  29.117  37.891  12.498
26984W        W86080   6.847  44.771  11.116
26985W        W86081  12.342  15.736   3.281
26986W        W86082   5.236  16.141  13.870
26987W        W86083  23.725  14.134  11.574
26988W        W86084  36.388  31.913   0.748
26989W        W86085  38.495  19.044  12.391
26990W        W86086  17.771   3.448  13.037
26991W        W86087  21.627  15.619   2.390
26992W        W86088  40.797  42.319   0.441
26993W        W86089  23.733  32.070   0.271
26994W        W86090  36.887  37.889  13.794
26995W        W86091  16.680   2.390   2.231
26996W        W86092  30.125  42.410   3.807
26997W        W86093  17.073  36.967  14.934
26998W        W86094  22.194   4.863   3.633
26999W        W86095  34.002  39.867   1.394
27000W        W86096   3.396   9.650   1.402
27001W        W86097  36.930  24.213  11.385
27002W        W86098   2.232   5.214  13.354
27003W        W86099   6.854  19.157  11.118
27004W        W86100   5.713  31.513   4.215
27005W        W86101  15.191  20.184  11.857
27006W        W86102  32.600   1.319  10.573
27007W        W86103  24.175   0.476   2.899
27008W        W86104   9.191  30.139  12.954
27009W        W86105  14.606   3.408  13.394
27010W        W86106  37.367  39.903   1.330
27011W        W86107   0.845  36.984  12.436
27012W        W86108  15.219  25.018  14.909
27013W        W86109  24.570  30.583   0.360
27014W        W86110  17.579  24.642  13.059
27015W        W86111  14.304  18.076  14.809
27016W        W86112  42.781  11.236  13.356
27017W        W86113  26.607  12.176   1.341
27018W        W86114  19.656  39.051   1.353
27019W        W86115  26.512   6.425   4.724
27020W        W86116   3.288  24.044   1.369
27021W        W86117  24.221   9.149   4.347
27022W        W86118  20.244  18.717   3.671
27023W        W86119   5.407   8.728   0.354
27024W        W86120  31.986   2.463   3.851
27025W        W86121  13.124  43.394  13.935
27026W        W86122  19.251  41.965   0.339
27027W        W86123  17.065  25.634  11.888
27028W        W86124  10.681   7.257  14.312
27029W        W86125  41.389  16.098   2.726
27030W        W86126   7.751  25.527   9.983
27031W        W86127  43.349  33.018  10.970
27032W        W86128   6.763  18.215  13.055
27033W        W86129   7.813  15.138   9.504
27034W        W86130  11.358  24.530   2.704
27035W        W86131   9.729  37.084  12.843
27036W        W86132  27.666   4.812   3.166
27037W        W86133   2.907  32.914   4.280
27038W        W86134  12.649  32.012  10.425
27039W        W86135  30.503  32.533  14.969
27040W        W86136   2.358  21.114   5.181
27041W        W86137   9.840  22.246   0.738
27042W        W86138  19.727  37.871  11.378
27043W        W86139  30.978  12.140   1.892
27044W        W86140  17.769  23.056   0.418
27045W        W86141  17.277   1.311  13.831
27046W        W86142   6.704   7.687   2.180
27047W        W86143  36.550  21.130  12.069
27048W        W86144  18.076  25.663   3.691
27049W        W86145  20.097  41.793  14.473
27050W        W86146   2.822  27.470   0.302
27051W        W86147  44.476  31.627   4.651
27052W        W86148  22.154  15.190  11.472
27053W        W86149  36.407  14.761  12.389
27054W        W86150  37.976   1.967  11.973
27055W        W86151  17.773  13.278   1.409
27056W        W86152  11.796  22.217  10.042
27057W        W86153  21.095  38.862   1.737
27058W        W86154  25.683  42.467   3.279
27059W        W86155  41.532   1.316  11.914
27060W        W86156  44.471   5.377  10.507
27061W        W86157  13.285  35.872   2.414
27062W        W86158  23.998  27.197   3.162
27063W        W86159   7.220  15.306  13.413
27064W        W86160   0.430  32.468  13.519
27065W        W86161  33.930  14.753  13.879
27066W        W86162  23.028   4.933  10.071
27067W        W86163   5.758  44.372  14.858
27068W        W86164  18.091  33.552  12.955
27069W        W86165  41.501  31.056   3.346
27070W        W86166   0.839  37.431   3.202
27071W        W86167  15.745  40.404  14.421
27072W        W86168  15.321   3.731   4.278
27073W        W86169  42.469   0.764  11.496
27074W        W86170  23.693  33.610   4.608
27075W        W86171  44.914  40.987  11.053
27076W        W86172  29.569   7.173  12.390
27077W        W86173  15.281   0.335   4.740
27078W        W86174  19.241  25.216  12.355
27079W        W86175  38.866   8.759  14.442
27080W        W86176  22.042  33.031  12.372
27081W        W86177  28.058   6.782   1.821
27082W        W86178   1.877  11.157  12.959
27083W        W86179  35.466   8.259   1.917
27084W        W86180  10.799   6.296   1.382
27085W        W86181  21.211  43.334  13.396
27086W        W86182  13.339  19.701  13.032
27087W        W86183  44.954  41.305  11.105
27088W        W86184  24.505  37.999  12.392
27089W        W86185  32.090  34.948   4.133
27090W        W86186   3.940  33.029  14.481
27091W        W86187   6.265  13.224  14.847
27092W        W86188  16.295  44.857   4.277
27093W        W86189  40.802  12.738  11.531
27094W        W86190  16.230  41.898   3.254
27095W        W86191   6.348   7.852   3.308
27096W        W86192  16.638  17.153  14.920
27097W        W86193  29.948  24.192   9.582
27098W        W86194  44.398  24.673   0.475
27099W        W86195   3.443  25.123  11.595
27100W        W86196  37.580  35.583   0.278
27101W        W86197  14.709  10.308  14.976
27102W        W86198  32.558  14.654   0.354
27103W        W86199  25.667  13.188  14.961
27104W        W86200  41.387  26.155  10.624
27105W        W86201  19.693  21.524  10.604
27106W        W86202   6.823  35.600   2.230
27107W        W86203  25.135  40.808   4.615
27108W        W86204  30.009  17.105   4.345
27109W        W86205  26.703   7.718  14.770
27110W        W86206  28.062   8.746   2.263
27111W        W86207  39.452  42.947  10.900
27112W        W86208   4.708   0.336  14.861
27113W        W86209  30.973  21.619  11.034
27114W        W86210  12.726  28.967  13.961
27115W        W86211  10.752   4.750  10.601
27116W        W86212   5.733  40.833  14.850
27117W        W86213   6.373  22.251  13.539
27118W        W86214  35.467   2.263  10.501
27119W        W86215  33.011  15.263  13.379
27120W        W86216  18.233  44.949   3.374
27121W        W86217  29.995   5.893  12.000
27122W        W86218  24.541  11.837   3.678
27123W        W86219  16.250  19.631  14.001
27124W        W86220   0.972  17.740  14.299
27125W        W86221   9.168   4.389   1.235
27126W        W86222  44.863  20.143  11.049
27127W        W86223  33.916  37.040  13.888
27128W        W86224  10.740   2.285  11.023
27129W        W86225  18.163  35.086   4.719
27130W        W86226   1.364  39.378  12.959
27131W        W86227   6.182  15.192   3.764
27132W        W86228  33.555  32.103   1.827
27133W        W86229  27.633   1.298   1.763
27134W        W86230   2.745  12.180  13.943
27135W        W86231  32.484  14.105   2.835
27136W        W86232  39.319  14.776  14.032
27137W        W86233  10.252  27.473   5.203
27138W        W86234   8.881  28.059   5.213
27139W        W86235  27.446  19.045   9.498
27140W        W86236  27.120   7.724  14.322
27141W        W86237  30.908   9.206  11.590
27142W        W86238  31.407  31.453   2.683
27143W        W86239   4.341   0.393   3.299
27144W        W86240  29.545  27.569  14.928
27145W        W86241  34.017   0.852  10.040
27146W        W86242  44.810   0.275  13.822
27147W        W86243  36.488  37.448   4.638
27148W        W86244   1.343  36.965  13.921
27149W        W86245  39.434   3.723  12.919
27150W        W86246  41.917  40.949  13.030
27151W        W86247  37.000  36.914   0.933
27152W        W86248  13.822  35.417   2.676
27153W        W86249  43.821  32.139  12.490
27154W        W86250  32.408  32.595   3.864
27155W        W86251  41.459   0.325   0.407
27156W        W86252  37.868  44.477   2.250
27157W        W86253  43.407  28.467   3.194
27158W        W86254   5.756   6.765  14.883
27159W        W86255  17.283  30.546  11.599
27160W        W86256  23.598  23.128   3.263
27161W        W86257   3.715  28.574  11.455
27162W        W86258  40.307  29.108  13.381
27163W        W86259  19.736  16.083   3.795
27164W        W86260  10.334  21.227  12.986
27165W        W86261  35.067  41.304  10.499
27166W        W86262   1.964  15.207  13.798
27167W        W86263  38.346  31.981   4.727
27168W        W86264  10.270  23.183   2.752
27169W        W86265  41.798  32.494  14.496
27170W        W86266   7.306  22.600  11.098
27171W        W86267  29.530  19.654  14.346
27172W        W86268  20.028  43.864  13.905
27173W        W86269  26.652  33.517   3.232
27174W        W86270  10.183  13.138  13.425
27175W        W86271  24.581  27.652   4.692
27176W        W86272  36.378  42.775  14.515
27177W        W86273  25.964  34.055  11.386
27178W        W86274  30.132  29.131   0.883
27179W        W86275  28.650  37.920   0.806
27180W        W86276  13.262  22.064  10.490
27181W        W86277  44.396  28.652   1.779
27182W        W86278  12.320  12.849  13.884
27183W        W86279  29.932  26.494   1.360
27184W        W86280   9.346  41.319  13.392
27185W        W86281  18.604  40.001   5.206
27186W        W86282  27.520  19.184   5.759
27187W        W86283  35.558  35.037  13.042
27188W        W86284  41.405   2.294   2.885
27189W        W86285  41.375  19.174  13.450
27190W        W86286   7.777  44.301  14.375
27191W        W86287  29.439  13.706   3.383
27192W        W86288  15.289   2.371  14.820
27193W        W86289  23.543  18.105  12.918
27194W        W86290  33.447  13.219  11.908
27195W        W86291  40.013  15.785   2.395
27196W        W86292  30.997   4.394   3.656
27197W        W86293  24.515   8.215   3.315
27198W        W86294  21.679  44.490   1.370
27199W        W86295  27.636   8.862   1.710
27200W        W86296  23.686  27.582   1.235
27201W        W86297  15.670  34.603  13.482
27202W        W86298   0.928   3.920   2.180
27203W        W86299  14.634  29.154   5.227
27204W        W86300  28.464  39.815  10.563
27205W        W86301   7.324  40.476  11.899
27206W        W86302   0.472  16.782  10.539
27207W        W86303  38.513   8.757   1.734
27208W        W86304  40.869  39.367  10.545
27209W        W86305  15.696  38.960   1.430
27210W        W86306  15.636  14.301   5.295
27211W        W86307   5.772  43.448   1.933
27212W        W86308   3.233  15.326  14.485
27213W        W86309  38.411  16.307  10.479
27214W        W86310   7.214  19.129   0.431
27215W        W86311  29.426  31.638   1.261
27216W        W86312  33.080  14.150   2.715
27217W        W86313  39.816  13.175   3.371
27218W        W86314   4.843  18.106  12.380
27219W        W86315   1.851  23.615  12.056
27220W        W86316  22.616   3.883  13.924
27221W        W86317  38.024  24.600  14.436
27222W        W86318   9.807   7.305  11.608
27223W        W86319  24.575  33.544  11.946
27224W        W86320  37.341  21.088   1.220
27225W        W86321  18.544   2.814  12.921
27226W        W86322  16.248  43.436  11.570
27227W        W86323  20.621  21.055   3.813
27228W        W86324  38.479   9.817  12.867
27229W        W86325  44.317  38.399  14.366
27230W        W86326   7.865  38.861  11.509
27231W        W86327   4.746  44.973  13.527
27232W        W86328  18.094   6.760  14.800
27233W        W86329  24.056  10.144   4.352
27234W        W86330  34.898  39.443  13.049
27235W        W86331  44.410  37.864   0.269
27236W        W86332  32.918  18.279  11.585
27237W        W86333  23.542  26.602   4.272
27238W        W86334  30.922   1.476   2.716
27239W        W86335  41.380  39.915   1.329
27240W        W86336   1.976  34.029   2.301
27241W        W86337  29.611  44.398  13.545
27242W        W86338   0.955  27.052  13.501
27243W        W86339  15.231  37.032   4.693
27244W        W86340  23.527   8.769  14.378
27245W        W86341  35.382  39.422   0.326
27246W        W86342  33.025  39.992   4.248
27247W        W86343  18.288  27.137  11.425
27248W        W86344  37.044  23.686   1.358
27249W        W86345  35.041  33.521  11.430
27250W        W86346  37.539  28.553   3.774
27251W        W86347   6.779  18.604   1.833
27252W        W86348   7.401  24.042   2.202
27253W        W86349  31.430  39.932   0.739
27254W        W86350  28.981   9.390   1.810
27255W        W86351  27.965  17.126   5.285
27256W        W86352  29.460  37.932  12.508
27257W        W86353  32.921  25.974   2.306
27258W        W86354  21.733  42.030   4.791
27259W        W86355  26.204  28.976  11.118
27260W        W86356  39.498  19.722   2.414
27261W        W86357  21.598  25.185   0.313
27262W        W86358  15.587  17.557   0.250
27263W        W86359   3.222  41.537  14.500
27264W        W86360  36.589  24.504  13.467
27265W        W86361  40.482  11.333   4.298
27266W        W86362  30.520  38.828  13.871
27267W        W86363  18.189  23.541  10.923
27268W        W86364  33.945  36.350   0.853
27269W        W86365  37.409  18.722   1.709
27270W        W86366  37.018   4.860   2.297
27271W        W86367  40.890   3.357   1.773
27272W        W86368  38.505  19.622   2.181
27273W        W86369  43.969   4.296  10.577
27274W        W86370  38.556   3.352  14.365
27275W        W86371  29.172  21.160   0.781
27276W        W86372  24.492  10.840  11.477
27277W        W86373  43.813  17.177   0.878
27278W        W86374  25.594  42.939   2.362
27279W        W86375   0.879   6.294   2.407
27280W        W86376   3.944  34.043   2.881
27281W        W86377  25.655  10.855   3.199
27282W        W86378  41.489  29.451  12.833
27283W        W86379  44.407   7.342   5.163
27284W        W86380  40.053  28.509   0.934
27285W        W86381  31.587   4.207   0.290
27286W        W86382  21.094   7.666  13.448
27287W        W86383  10.211  43.894   2.685
27288W        W86384  44.359   4.927   3.212
27289W        W86385  15.116   9.749   4.149
27290W        W86386  13.765  25.057  14.455
27291W        W86387  11.748  26.504  12.078
27292W        W86388  23.733  15.282  14.323
27293W        W86389  34.079  41.362  11.499
27294W        W86390  25.040  44.776  13.518
27295W        W86391  25.525   8.375  14.823
27296W        W86392  13.684  19.134  13.335
27297W        W86393   5.905   8.676  11.074
27298W        W86394   5.835  11.202  11.553
27299W        W86395  28.161   3.350   3.669
27300W        W86396  37.034  39.891   4.279
27301W        W86397  11.864  19.558  10.966
27302W        W86398  28.158  39.933  12.097
27303W        W86399   4.780  16.596   4.273
27304W        W86400  16.781  31.053  14.366
27305W        W86401  18.781  10.696   3.703
27306W        W86402  19.222  31.426   4.254
27307W        W86403   9.175   9.364  13.478
27308W        W86404  39.435  38.368   4.328
27309W        W86405  39.856  18.175  12.352
27310W        W86406  31.603  27.119  14.999
27311W        W86407  15.780  20.596  13.803
27312W        W86408  20.762   4.231  14.793
27313W        W86409  33.592  10.246   2.237
27314W        W86410  15.184   6.826   1.765
27315W        W86411  18.069  14.149  13.476
27316W        W86412  43.955  37.940   1.699
27317W        W86413  23.522   5.365   2.278
27318W        W86414  22.612   8.681   1.296
27319W        W86415  42.859  35.108  13.971
27320W        W86416   4.332   7.279   2.229
27321W        W86417  38.516  31.599  14.468
27322W        W86418   8.811  26.576  14.987
27323W        W86419   9.873  22.074   4.141
27324W        W86420  39.380  17.154   2.807
27325W        W86421  43.440   1.380  14.782
27326W        W86422  10.878   8.199   4.709
27327W        W86423  27.516  30.454  11.889
27328W        W86424   3.932  21.627  11.085
27329W        W86425  14.732   8.263  11.955
27330W        W86426   0.329   8.883   4.693
27331W        W86427  19.778  19.761   3.197
27332W        W86428   7.203  24.490  14.921
27333W        W86429   3.853  15.774  10.904
27334W        W86430  28.049  20.255   0.789
27335W        W86431  13.755  23.092   0.289
27336W        W86432  29.055  34.930   3.365
27337W        W86433  41.415  36.911   4.297
27338W        W86434  24.650   5.343   1.779
27339W        W86435  18.560  22.708   0.790
27340W        W86436  10.838  38.825  11.536
27341W        W86437  10.847  32.120   4.279
27342W        W86438   2.351  10.340  10.979
27343W        W86439   1.936  36.376   3.741
27344W        W86440  30.507  21.717  10.426
27345W        W86441  24.506  38.050  13.878
27346W        W86442  24.093  41.032  13.468
27347W        W86443  13.295  13.218  11.913
27348W        W86444  34.510  40.377  14.019
27349W        W86445  17.558   1.372  14.358
27350W        W86446   0.297  37.424  10.585
27351W        W86447   2.851  24.547  14.923
27352W        W86448   5.720  16.277  11.118
27353W        W86449   1.773  11.148   1.409
27354W        W86450  39.422  14.183  13.961
27355W        W86451  22.524  33.924   3.322
27356W        W86452  20.553  17.638   3.168
27357W        W86453   0.852   1.889  11.612
27358W        W86454   3.318  23.108   4.682
27359W        W86455   9.751  32.917  13.314
27360W        W86456  19.584  24.660   1.343
27361W        W86457  19.560  40.950   4.286
27362W        W86458  40.034  27.000   3.193
27363W        W86459   7.217  27.079  13.039
27364W        W86460  37.940  14.136   0.895
27365W        W86461  31.898  22.663   5.137
27366W        W86462  32.099  18.690   5.284
27367W        W86463  33.567  18.175  13.001
27368W        W86464  19.702  10.761   1.308
27369W        W86465   9.783  19.708  13.928
27370W        W86466  15.727   3.264  14.844
27371W        W86467  44.325  18.773  14.871
27372W        W86468   3.876   7.176  14.375
27373W        W86469   2.268  34.052  13.017
27374W        W86470  17.794   5.845   3.323
27375W        W86471  38.873   6.360   5.145
27376W        W86472  24.566  24.219   2.856
27377W        W86473   9.334  34.002   3.181
27378W        W86474   4.841  10.328  14.960
27379W        W86475  38.339  28.107   1.234
27380W        W86476   4.366  26.028   1.927
27381W        W86477   3.221   4.940  11.507
27382W        W86478  14.282  23.512  14.927
27383W        W86479   3.273  32.558   1.279
27384W        W86480  39.816  44.477   3.646
27385W        W86481  21.727  17.163   9.996
27386W        W86482   0.847  27.102  13.024
27387W        W86483   6.783  17.773   3.815
27388W        W86484  33.387  41.518  10.549
27389W        W86485  39.316  22.097  10.628
27390W        W86486  39.425   2.848   4.818
27391W        W86487  44.472  13.244   3.345
27392W        W86488  44.260  14.817  13.373
27393W        W86489  11.301   0.757  11.418
27394W        W86490   6.305  44.451  11.419
27395W        W86491  23.105  15.661  13.367
27396W        W86492  11.248  18.782   3.808
27397W        W86493   2.916  20.174  14.506
27398W        W86494  18.130  17.260   1.277
27399W        W86495  22.117  32.446   3.202
27400W        W86496  42.341   3.349   3.305
27401W        W86497  13.335  21.686   3.382
27402W        W86498  15.214   0.975   0.325
27403W        W86499  17.301   8.702  11.083
27404W        W86500  44.453  35.383  12.545
27405W        W86501  26.976  20.687   0.769
27406W        W86502  15.585   3.762   3.303
27407W        W86503   8.666  10.799   4.637
27408W        W86504  20.208   6.205   4.113
27409W        W86505  21.630  25.500  11.056
27410W        W86506   8.329   7.401  14.438
27411W        W86507  12.245   4.442  12.972
27412W        W86508  42.020  38.034  11.057
27413W        W86509  26.087   8.686  14.500
27414W        W86510  19.219  38.484   0.906
27415W        W86511   2.428  34.957   2.708
27416W        W86512   6.357  40.867   3.637
27417W        W86513   4.346  22.695   3.178
27418W        W86514  22.615   1.309  11.476
27419W        W86515   0.484  10.154   4.244
27420W        W86516   2.932  26.582  10.009
27421W        W86517  24.181  17.275  11.535
27422W        W86518  16.171  32.548   4.229
27423W        W86519   4.767   1.741  14.779
27424W        W86520  27.033   9.822  12.059
27425W        W86521  44.356  11.206  14.935
27426W        W86522  23.643  27.075   1.912
27427W        W86523   2.758  24.088  14.380
27428W        W86524  22.232  21.219   3.299
27429W        W86525  14.216  31.003   1.245
27430W        W86526  39.929  15.106  13.934
27431W        W86527  24.157   8.755   0.379
27432W        W86528  37.528   7.307  10.411
27433W        W86529  24.545  36.587   4.655
27434W        W86530  18.647  44.261  13.508
27435W        W86531  35.903  12.242   4.714
27436W        W86532  13.286  44.340  12.346
27437W        W86533  11.686   5.910  13.384
27438W        W86534   7.690  43.993   2.258
27439W        W86535  17.791  42.893   0.267
27440W        W86536  20.100  39.062  11.437
27441W        W86537  26.516  28.490  14.499
27442W        W86538   9.234  17.801   1.347
27443W        W86539   9.332  26.549   3.753
27444W        W86540  14.234  15.128   4.816
27445W        W86541  36.576  37.000   3.296
27446W        W86542  38.927  33.895   1.242
27447W        W86543  11.223  25.211  10.427
27448W        W86544  36.499  19.555  11.587
27449W        W86545  32.575  24.987  14.853
27450W        W86546  43.789  10.253   1.356
27451W        W86547  31.415  21.059   4.727
27452W        W86548  16.285  21.647   1.767
27453W        W86549  13.334   4.334   3.227
27454W        W86550  18.584   7.286  11.944
27455W        W86551  18.717   6.862  10.635
27456W        W86552  22.145  16.303  13.904
27457W        W86553  14.778  30.973  12.485
27458W        W86554  22.510   4.754   1.281
27459W        W86555  33.048   5.418  11.056
27460W        W86556  18.058  21.220   4.740
27461W        W86557  27.472  23.169  13.005
27462W        W86558  11.683  44.956   3.813
27463W        W86559  15.786   5.731  11.376
27464W        W86560   0.943   2.434   0.291
27465W        W86561  22.084  41.012   2.329
27466W        W86562  23.543  41.407   2.824
27467W        W86563  33.516  42.779  13.545
27468W        W86564  34.095  16.734  12.341
27469W        W86565   5.301   0.417  11.543
27470W        W86566   0.942   3.400  11.990
27471W        W86567   6.817  32.624   2.893
27472W        W86568  17.099  29.637   4.693
27473W        W86569   3.920  19.644   2.671
27474W        W86570  37.017  43.302  12.410
27475W        W86571  34.437   9.696   9.965
27476W        W86572   1.295  38.044  14.032
27477W        W86573  11.707  10.693  11.007
27478W        W86574  39.882  16.605  12.436
27479W        W86575   1.437  24.021   2.746
27480W        W86576  30.083  13.147   4.813
27481W        W86577  17.242  10.799   9.617
27482W        W86578   3.882   8.698   4.223
27483W        W86579  27.575   0.462   3.705
27484W        W86580  22.130   6.201  12.052
27485W        W86581  29.936  43.295  14.872
27486W        W86582  40.850  38.042   4.171
27487W        W86583  20.227  44.342  11.921
27488W        W86584  44.340  17.732  12.581
27489W        W86585  27.126   8.746  11.081
27490W        W86586  37.409  40.935  10.575
27491W        W86587  18.142  23.205  12.487
27492W        W86588  10.253   6.364   2.745
27493W        W86589  32.415  17.604   0.394
27494W        W86590   9.842  13.221  12.887
27495W        W86591  23.687  24.164  11.408
27496W        W86592  22.512  26.566   3.287
27497W        W86593  41.002  44.325  14.458
27498W        W86594   5.922  10.640   0.396
27499W        W86595  35.598  39.876  12.451
27500W        W86596  16.260  20.537   2.671
27501W        W86597  30.537   5.759  13.377
27502W        W86598  11.849  19.172  14.797
27503W        W86599   0.331  22.130   1.352
27504W        W86600   9.797  21.256   0.946
27505W        W86601  29.578   5.436   4.312
27506W        W86602  25.011  19.618  13.968
27507W        W86603  44.868   2.385  13.800
27508W        W86604   5.862   2.895  11.524
27509W        W86605  14.619  33.472   0.474
27510W        W86606  22.249   1.397  13.464
27511W        W86607  14.627  13.652   2.679
27512W        W86608  26.510   0.948   5.227
27513W        W86609  37.967   6.750  11.003
27514W        W86610   6.844   7.789  10.939
27515W        W86611  19.198   6.369  11.383
27516W        W86612  33.891   9.751  14.362
27517W        W86613   8.837  28.170   1.829
27518W        W86614  39.838   8.698   3.328
27519W        W86615  23.123  28.528   3.802
27520W        W86616   4.352  38.415   4.639
27521W        W86617  32.458  32.429   4.130
27522W        W86618  44.270  28.478  10.992
27523W        W86619  17.102  31.008  14.029
27524W        W86620  26.689  36.041  12.965
27525W        W86621  39.960  16.246  14.316
27526W        W86622  30.533   0.400   4.800
27527W        W86623  42.781  16.636  13.825
27528W        W86624   8.198  31.089   1.726
27529W        W86625  43.998  42.775   4.697
27530W        W86626   0.376  39.553  10.488
27531W        W86627  27.972  21.199  10.588
27532W        W86628  31.633  30.006   0.957
27533W        W86629   6.423  16.305   3.842
27534W        W86630   8.265  42.372   3.197
27535W        W86631  40.443  11.728  11.086
27536W        W86632  15.228   4.441   1.400
27537W        W86633   4.410   0.805   0.479
27538W        W86634  32.410  35.402  11.865
27539W        W86635   2.232  15.151  12.059
27540W        W86636  21.167  10.250   4.646
27541W        W86637  19.712  35.902   1.852
27542W        W86638  16.577  32.996  10.437
27543W        W86639   3.861  17.722   0.258
27544W        W86640  23.163  16.698   3.199
27545W        W86641  14.203  40.834   2.342
27546W        W86642  26.613  15.255  13.412
27547W        W86643  16.127   0.871  10.107
27548W        W86644  27.544  33.021   2.748
27549W        W86645  34.550  12.198   0.471
27550W        W86646   8.337   4.739   0.473
27551W        W86647  22.127  40.877  14.028
27552W        W86648  16.573  18.207   3.761
27553W        W86649  30.985  29.012   1.765
27554W        W86650  29.129  15.672   4.766
27555W        W86651  12.223  16.145  11.873
27556W        W86652  29.637  19.262  10.917
27557W        W86653   0.277  43.989   0.446
27558W        W86654  14.769  15.643   1.834
27559W        W86655   3.326  23.681   0.936
27560W        W86656  12.615  18.261   1.433
27561W        W86657  24.037  37.057   2.280
27562W        W86658  25.969  14.663   4.180
27563W        W86659  28.584  34.521   3.824
27564W        W86660   9.299  33.458  12.070
27565W        W86661  19.683  20.766   2.897
27566W        W86662  23.184  27.589   4.226
27567W        W86663  41.821   4.394  12.437
27568W        W86664  31.993  37.993   2.203
27569W        W86665  20.134  12.144   4.266
27570W        W86666  19.142   1.807  10.621
27571W        W86667   8.860  16.586   2.818
27572W        W86668  17.615   4.362  14.405
27573W        W86669   8.199   9.238   2.751
27574W        W86670  19.244  26.045   3.785
27575W        W86671   2.806  19.653   4.690
27576W        W86672  33.034  20.573   0.344
27577W        W86673  10.810  23.636  11.093
27578W        W86674  15.733   1.974  13.825
27579W        W86675  13.194  19.143  11.901
27580W        W86676  11.734  16.265  12.052
27581W        W86677  11.777  18.581  14.899
27582W        W86678   7.360  12.287  10.978
27583W        W86679  39.974  27.976  11.088
27584W        W86680   5.880   4.822   1.832
27585W        W86681  34.461   2.393   0.950
27586W        W86682  12.214  40.798   1.233
27587W        W86683   1.379  10.362  10.461
27588W        W86684  29.646  36.451  13.528
27589W        W86685  34.035  38.879   4.259
27590W        W86686   2.450  11.649  11.960
27591W        W86687  16.256   7.401  11.392
27592W        W86688  24.515  32.076  13.857
27593W        W86689  31.514  33.607  14.774
27594W        W86690   4.856  36.841  10.642
27595W        W86691  12.828   7.235   1.238
27596W        W86692  39.411  37.871  13.838
27597W        W86693  31.476  41.391   3.304
27598W        W86694  39.348   1.883   1.928
27599W        W86695  36.002  13.844   4.717
27600W        W86696  44.411  11.685  14.012
27601W        W86697  35.929  19.620   0.729
27602W        W86698  12.846   4.803  12.497
27603W        W86699  32.497  29.547  14.020
27604W        W86700  33.122  34.876  10.597
27605W        W86701   8.284  10.326   0.389
27606W        W86702  33.559  14.153  14.782
27607W        W86703   5.895  34.091   1.397
27608W        W86704  19.116   8.720   0.752
27609W        W86705  15.270  10.154   4.818
27610W        W86706  26.520  42.964  11.882
27611W        W86707   0.950  31.489   3.845
27612W        W86708  24.166  24.033   2.245
27613W        W86709   4.711  43.944   2.844
27614W        W86710  20.156  13.720   5.610
27615W        W86711   5.343  42.378   0.389
27616W        W86712  20.142  11.808  11.072
27617W        W86713  23.564  33.024  10.586
27618W        W86714  29.069  23.180  14.917
27619W        W86715  20.557  26.027   3.211
27620W        W86716  14.151   4.920  11.582
27621W        W86717  43.503  41.875   3.629
27622W        W86718   9.345  24.590   1.853
27623W        W86719   2.778   3.787   1.798
27624W        W86720   8.749   4.701   5.276
27625W        W86721  15.214  44.387  11.446
27626W        W86722  40.884  10.734  10.569
27627W        W86723  15.211  16.725  11.103
27628W        W86724  43.008  15.644   0.830
27629W        W86725  29.587   6.187   0.408
27630W        W86726  15.654   8.391  11.975
27631W        W86727   1.465  18.137  10.483
27632W        W86728  13.220  44.374   1.406
27633W        W86729  35.403  30.514   0.760
27634W        W86730  19.118   7.298   1.929
27635W        W86731   4.278  15.698  13.544
27636W        W86732  25.477   8.361  12.501
27637W        W86733   3.887  32.430  11.076
27638W        W86734  13.740  10.325   1.907
27639W        W86735   6.402   0.807  10.517
27640W        W86736  14.273  25.055  13.052
27641W        W86737  41.521  23.236   2.370
27642W        W86738  15.126  43.281  11.520
27643W        W86739  43.277  44.826   3.783
27644W        W86740   9.789  12.767  12.464
27645W        W86741   9.360  44.465   0.829
27646W        W86742   6.413  23.726  10.073
27647W        W86743   6.221  43.508  10.552
27648W        W86744  16.098  34.597   3.789
27649W        W86745  41.826   0.339   0.758
27650W        W86746   4.330  26.136   3.165
27651W        W86747  34.554  16.230   1.898
27652W        W86748  21.066  13.800   1.392
27653W        W86749  43.894  30.164  12.376
27654W        W86750  40.909  44.817   1.401
27655W        W86751   7.377  33.036   4.744
27656W        W86752  13.783   6.402  12.866
27657W        W86753  11.166  40.920   4.746
27658W        W86754  10.321  26.029   4.823
27659W        W86755   8.355  13.311  11.962
27660W        W86756  42.341   4.342   0.355
27661W        W86757   0.800  18.075  12.980
27662W        W86758   8.744  17.574  13.444
27663W        W86759  13.329   5.741  14.437
27664W        W86760   8.677   8.807  10.951
27665W        W86761   0.765  34.099   0.816
27666W        W86762  21.134  23.236   4.763
27667W        W86763  36.882  30.636  14.905
27668W        W86764  29.575  43.775  12.537
27669W        W86765  21.177  42.908   3.251
27670W        W86766  22.623  10.756  12.046
27671W        W86767  36.937  26.568   4.323
27672W        W86768  30.631   7.786   0.844
27673W        W86769   5.893   5.377  11.582
27674W        W86770  14.833  19.146   2.852
27675W        W86771  41.521   8.854  10.989
27676W        W86772  28.935  36.348   3.677
27677W        W86773  19.759  14.311  11.054
27678W        W86774  20.049  33.433  14.384
27679W        W86775   6.874  36.972  13.985
27680W        W86776  31.538  41.003  12.524
27681W        W86777  39.466  30.089  14.319
27682W        W86778  26.999  29.084   4.312
27683W        W86779  27.576  42.492   1.859
27684W        W86780  42.022  34.091   2.857
27685W        W86781   4.436  29.078   4.140
27686W        W86782  26.100  22.149  14.773
27687W        W86783  42.015  29.081  12.388
27688W        W86784   5.716  24.216   9.982
27689W        W86785  30.536   5.309  14.003
27690W        W86786  18.245  35.520   1.845
27691W        W86787   2.393  34.474   2.664
27692W        W86788  15.687  33.533  11.589
27693W        W86789  10.278   9.786  14.887
27694W        W86790   0.313  22.104  12.986
27695W        W86791  33.395  19.252   2.267
27696W        W86792  37.350   5.267   0.406
27697W        W86793   0.445  34.570  12.401
27698W        W86794  13.180  34.381  14.902
27699W        W86795  36.593  13.343   3.350
27700W        W86796  27.505   6.197   0.287
27701W        W86797  20.191  42.331   1.854
27702W        W86798  26.695   0.946   2.690
27703W        W86799   7.873  11.370   1.329
27704W        W86800   0.277  25.973   2.197
27705W        W86801  30.561  34.494  12.972
27706W        W86802  29.955  18.214  13.473
27707W        W86803  23.497   9.274  13.424
27708W        W86804   2.847  34.085  14.009
27709W        W86805  38.485  44.294  12.824
27710W        W86806   6.359   7.816  14.005
27711W        W86807   7.901   5.331  14.889
27712W        W86808   5.422  32.073   3.330
27713W        W86809  12.208  36.059   0.740
27714W        W86810  12.196   0.305  13.323
27715W        W86811  11.326  16.796  12.010
27716W        W86812  38.376  16.281  13.883
27717W        W86813  22.150  36.999   1.929
27718W        W86814   6.732  41.431  11.930
27719W        W86815  26.206   7.766   4.813
27720W        W86816  32.409  32.096   3.251
27721W        W86817  44.492  24.152  14.419
27722W        W86818   3.885  13.836   4.320
27723W        W86819  11.747   2.273   4.679
27724W        W86820   0.451  21.703  10.425
27725W        W86821   8.177   3.751   3.189
27726W        W86822  36.525  20.704  10.525
27727W        W86823   9.271   8.763  10.966
27728W        W86824  32.595  27.968  13.865
27729W        W86825   0.860  39.970   0.795
27730W        W86826  13.760  27.676   3.202
27731W        W86827   9.255  28.034  12.352
27732W        W86828  29.947  27.496  14.278
27733W        W86829  36.859  11.193   3.326
27734W        W86830  26.650  20.061   2.677
27735W        W86831  10.185  41.360  11.576
27736W        W86832   8.387  13.688  13.900
27737W        W86833  29.585  20.265  11.109
27738W        W86834   7.403   1.321   4.703
27739W        W86835  22.636   8.362   0.462
27740W        W86836   7.740  43.445  12.378
27741W        W86837  13.186  38.962  10.488
27742W        W86838  14.169  37.385  11.549
27743W        W86839   4.328   0.787   1.777
27744W        W86840  12.192  33.960   4.259
27745W        W86841  25.202  27.023   3.630
27746W        W86842   2.243   5.272   4.211
27747W        W86843  32.886   9.172   2.184
27748W        W86844   1.859   0.478  14.472
27749W        W86845  30.550  22.239  13.463
27750W        W86846  27.184  42.988   2.803
27751W        W86847  24.547   3.758  13.392
27752W        W86848  41.434  12.828   0.883
27753W        W86849  14.331   7.718   4.226
27754W        W86850   7.691  35.937  14.368
27755W        W86851  37.501  18.260  14.790
27756W        W86852   2.428  21.745  11.535
27757W        W86853  41.016   4.749  12.506
27758W        W86854  19.078  35.485  10.913
27759W        W86855   2.880  35.038  13.488
27760W        W86856  11.136  25.172   0.459
27761W        W86857  23.640   7.885   0.297
27762W        W86858  23.599  23.043   1.324
27763W        W86859  17.273  44.790   1.751
27764W        W86860   1.906  41.849  13.445
27765W        W86861  29.604  41.471  12.938
27766W        W86862   8.694  28.127  14.354
27767W        W86863  10.240  21.236  10.544
27768W        W86864  42.913  18.131   3.669
27769W        W86865   2.720  43.987  13.307
27770W        W86866  15.734   3.456   0.950
27771W        W86867  39.390  12.838  14.961
27772W        W86868  24.644   1.448  10.639
27773W        W86869  23.571   9.827  10.928
27774W        W86870  11.859  35.909   3.203
27775W        W86871  26.204   5.406   2.394
27776W        W86872  35.382   5.895  10.405
27777W        W86873   9.341   3.458   2.416
27778W        W86874  30.642  15.609   9.530
27779W        W86875  31.570  44.411  11.571
27780W        W86876   9.282  10.829   1.887
27781W        W86877  34.602  37.892  10.893
27782W        W86878   5.687  18.250   3.731
27783W        W86879   4.800  31.418  12.003
27784W        W86880  14.607  41.858   1.697
27785W        W86881   8.879  13.822   1.327
27786W        W86882  40.398  24.705   2.296
27787W        W86883  10.720  21.218  12.374
27788W        W86884  41.416  24.595   3.348
27789W        W86885   4.320  27.106   3.661
27790W        W86886   5.752  17.073   4.162
27791W        W86887   4.272   5.394   0.771
27792W        W86888  24.213  16.694   1.434
27793W        W86889  22.016  32.101  10.610
27794W        W86890  21.580   3.428  12.944
27795W        W86891   5.872  11.850   4.700
27796W        W86892  25.703  40.541   5.296
27797W        W86893  37.931   5.760   0.319
27798W        W86894  20.052   1.399  11.031
27799W        W86895  15.779  24.499   0.331
27800W        W86896  14.106  24.495   0.895
27801W        W86897   5.878   6.272   0.414
27802W        W86898  13.270  41.307   4.727
27803W        W86899  21.699  42.961  14.776
27804W        W86900  32.529  44.308  10.093
27805W        W86901  33.437  43.487   3.794
27806W        W86902  26.605   1.949   0.354
27807W        W86903   7.792  17.787   9.622
27808W        W86904  17.703  42.341  12.396
27809W        W86905  33.046   1.454   3.353
27810W        W86906  42.376   0.951  10.956
27811W        W86907   7.266  29.157  12.349
27812W        W86908   7.819  39.465  14.960
27813W        W86909  38.483  44.331  12.371
27814W        W86910   5.370  42.323   2.710
27815W        W86911  14.689  27.959  11.469
27816W        W86912  41.416  28.467   1.757
27817W        W86913  24.138  36.903  10.429
27818W        W86914  42.958  21.242   2.190
27819W        W86915   8.830  20.584   4.759
27820W        W86916  36.519  39.454  13.032
27821W        W86917  39.350   0.398  14.455
27822W        W86918  20.031   2.321   2.298
27823W        W86919   9.820   1.804  10.630
27824W        W86920   0.383  38.457   0.964
27825W        W86921  34.487  40.035  13.063
27826W        W86922  41.424  25.066   4.280
27827W        W86923  25.069  39.973  14.940
27828W        W86924  27.618  29.002   4.349
27829W        W86925  18.708  20.183   1.797
27830W        W86926  13.646  18.635   0.929
27831W        W86927  10.351  34.098  11.523
27832W        W86928  32.441  29.455   4.711
27833W        W86929  24.555  15.147  12.061
27834W        W86930  37.550  25.070   0.441
27835W        W86931  37.975  39.052  10.099
27836W        W86932  16.265  32.619   0.451
27837W        W86933   7.736  34.418  13.849
27838W        W86934  13.118  17.725   1.265
27839W        W86935  39.333  15.183  12.016
27840W        W86936   1.327   5.771  10.960
27841W        W86937  35.081  35.547   2.299
27842W        W86938   0.285  25.128   2.348
27843W        W86939   1.848  44.927  14.935
27844W        W86940  35.886  39.875   4.784
27845W        W86941  11.305  10.752   1.232
27846W        W86942   3.889  11.141  11.881
27847W        W86943  33.008  26.653   1.878
27848W        W86944   7.908  24.654  12.985
27849W        W86945  18.295   4.917  10.921
27850W        W86946  21.160   0.418   1.226
27851W        W86947  43.318   4.714  14.809
27852W        W86948  21.207  35.473   0.437
27853W        W86949   9.856  24.634   1.810
27854W        W86950  12.203  13.351   1.824
27855W        W86951   6.182  43.292   4.340
27856W        W86952  12.327   1.767  13.845
27857W        W86953  40.913  33.508   4.259
27858W        W86954   5.195  37.438   0.743
27859W        W86955  25.088  23.508  12.548
27860W        W86956  20.096  14.615   0.868
27861W        W86957  14.108   8.319   3.318
27862W        W86958  24.097  16.770  14.953
27863W        W86959  33.012  11.662  13.360
27864W        W86960  44.402  34.017   4.320
27865W        W86961  15.170  44.996  14.309
27866W        W86962   6.757  12.317   3.843
27867W        W86963  16.802   6.801  13.484
27868W        W86964  21.095  22.596  13.371
27869W        W86965  10.706  10.775   2.667
27870W        W86966  40.396  20.594   3.845
27871W        W86967  21.708   2.882  14.895
27872W        W86968  19.634   1.408  12.558
27873W        W86969  28.477  10.205  13.370
27874W        W86970   6.231   6.847   4.276
27875W        W86971  25.158  40.476  14.956
27876W        W86972  36.500  27.586  13.947
27877W        W86973  23.547   5.894   2.740
27878W        W86974  16.136  29.447  13.381
27879W        W86975  42.452   0.388   2.392
27880W        W86976  30.065   3.711   0.295
27881W        W86977   6.200  20.168  12.979
27882W        W86978   2.892   0.280  12.449
27883W        W86979  41.401  29.556  11.952
27884W        W86980  10.668   0.413  12.017
27885W        W86981  30.959  15.161  14.807
27886W        W86982  43.983  25.085   2.773
27887W        W86983   4.360  10.878   1.271
27888W        W86984   4.204   2.842  11.567
27889W        W86985  35.081   1.837  13.804
27890W        W86986   2.313  22.065   2.818
27891W        W86987  29.012  19.237   1.225
27892W        W86988   6.381  21.185  11.932
27893W        W86989  32.506   0.457   3.200
27894W        W86990  14.686  15.577  14.768
27895W        W86991   6.802  11.731  14.759
27896W        W86992  12.182  41.362  11.115
27897W        W86993  10.754   7.801   4.788
27898W        W86994  18.151  37.003  10.951
27899W        W86995  41.826  26.487   1.776
27900W        W86996  23.660  17.100  10.475
27901W        W86997  36.448  29.669   1.211
27902W        W86998  27.958  33.407   1.236
27903W        W86999   2.320  11.209   4.809
27904W        W87000  15.148   4.930  10.149
27905W        W87001   8.399  26.996  14.796
27906W        W87002   0.890  25.012   9.971
27907W        W87003  13.204  15.777   3.171
27908W        W87004   5.868  12.646   1.887
27909W        W87005  32.023  25.992   2.314
27910W        W87006  13.262  18.590  14.892
27911W        W87007   2.472  31.618  14.301
27912W        W87008  32.514  37.085  12.930
27913W        W87009  21.207   8.197  14.279
27914W        W87010  14.688  25.612  12.912
27915W        W87011  31.454  30.046  12.906
27916W        W87012  28.557   3.380   2.298
27917W        W87013  12.245  26.074  11.392
27918W        W87014  31.593  25.100  14.315
27919W        W87015   9.833  31.117  13.416
27920W        W87016  31.603  44.469  14.855
27921W        W87017  27.682  21.177   1.300
27922W        W87018  30.442  25.027   2.180
27923W        W87019  21.754  35.470  13.003
27924W        W87020  30.993   6.270  11.050
27925W        W87021  44.912  21.209  13.437
27926W        W87022  22.085  35.580   2.296
27927W        W87023  37.531  23.669   1.791
27928W        W87024   3.923   5.916  11.487
27929W        W87025  16.270   9.750  14.347
27930W        W87026  33.908  22.587  12.449
27931W        W87027  13.187  33.558  13.062
27932W        W87028  28.954   7.897  11.979
27933W        W87029  41.920  24.107  10.637
27934W        W87030  16.153  22.071  12.347
27935W        W87031  41.425  28.950  11.078
27936W        W87032  19.053  13.810  13.401
27937W        W87033  14.171  30.124   3.679
27938W        W87034  27.084  40.859  14.830
27939W        W87035  26.633   9.161  10.549
27940W        W87036  15.313  20.723  10.527
27941W        W87037  30.908  43.917   3.185
27942W        W87038  37.562   8.256   2.721
27943W        W87039  19.567  14.254  14.947
27944W        W87040  11.723  30.958  12.959
27945W        W87041  10.380  13.209   3.219
27946W        W87042   3.268  21.227  14.409
27947W        W87043  43.374  44.316  12.967
27948W        W87044  13.709  24.025   0.746
27949W        W87045  14.128   6.309  14.482
27950W        W87046  33.115   5.722   0.361
27951W        W87047  18.749   3.421   4.153
27952W        W87048  38.036  17.137   0.956
27953W        W87049  18.050   7.361  10.959
27954W        W87050   3.916  27.619   0.291
27955W        W87051  16.655  29.552   1.307
27956W        W87052  38.995  21.664   3.155
27957W        W87053  12.664   3.732   3.385
27958W        W87054  23.568  16.674  12.413
27959W        W87055   3.279  15.625   5.123
27960W        W87056  15.819  18.655   2.389
27961W        W87057  11.274  33.557   0.449
27962W        W87058  12.231  27.600   5.644
27963W        W87059   5.321  21.533   5.680
27964W        W87060  24.692   5.203   4.705
27965W        W87061  33.014  34.443  14.475
27966W        W87062  16.195   2.449   1.853
27967W        W87063  14.178  33.017   4.770
27968W        W87064   8.838   0.861   1.225
27969W        W87065  39.059   1.851  12.946
27970W        W87066  25.557   1.325  13.050
27971W        W87067  39.966  33.875   0.428
27972W        W87068  15.106  39.410  10.504
27973W        W87069  16.149  27.619  13.957
27974W        W87070  18.787  16.716   2.305
27975W        W87071  21.668  26.002  12.908
27976W        W87072  13.241  11.671   3.339
27977W        W87073   0.421   2.786  10.904
27978W        W87074  13.662  32.008   4.248
27979W        W87075  10.161   5.281  11.526
27980W        W87076  16.109  13.324   1.730
27981W        W87077  28.068  31.592  10.611
27982W        W87078  38.055  16.731  13.437
27983W        W87079  39.531  32.508  14.005
27984W        W87080   1.911  23.639  14.019
27985W        W87081  44.970  27.143  10.473
27986W        W87082  18.688  20.543  13.030
27987W        W87083  34.503  22.176  11.867
27988W        W87084  20.662  31.433  14.830
27989W        W87085  12.834   0.265  12.358
27990W        W87086  24.673  44.803  11.612
27991W        W87087  24.486  18.728   3.774
27992W        W87088  42.436  44.958   4.670
27993W        W87089  43.863  25.099   0.327
27994W        W87090   3.431  44.818  11.494
27995W        W87091  34.981  23.209   0.248
27996W        W87092  29.076  25.064   0.743
27997W        W87093  19.653  20.198  11.994
27998W        W87094  23.189   2.967  10.474
27999W        W87095  38.057  43.994   4.159
28000W        W87096  43.350   0.785  12.361
28001W        W87097  23.578  26.200   3.830
28002W        W87098   2.842  34.396   0.750
28003W        W87099  43.279  12.245  12.449
28004W        W87100  21.058  43.924   0.743
28005W        W87101  14.333  18.269   0.834
28006W        W87102  20.166  16.233   0.834
28007W        W87103   9.660  39.470  13.849
28008W        W87104  35.389  37.970  12.938
28009W        W87105  10.834  12.206   4.246
28010W        W87106  26.161   5.252  13.334
28011W        W87107   3.762  29.980   3.640
28012W        W87108  39.372  32.510   3.790
28013W        W87109  32.930  39.518  12.029
28014W        W87110  27.978  44.870  10.945
28015W        W87111  26.627   1.405  13.863
28016W        W87112  14.696  33.932  11.408
28017W        W87113  12.121  40.934   4.194
28018W        W87114   3.876  28.616  14.883
28019W        W87115  33.380   4.909  14.451
28020W        W87116   7.181  22.561   3.853
28021W        W87117   4.287   8.707   2.819
28022W        W87118  41.305  31.966   1.325
28023W        W87119  22.053   8.337  14.902
28024W        W87120  39.051  22.142  13.323
28025W        W87121  22.673   4.224  13.381
28026W        W87122   8.776   3.907   1.254
28027W        W87123  32.542  23.090  14.933
28028W        W87124   8.293  44.969   2.873
28029W        W87125   9.182  39.329   1.927
28030W        W87126  44.987  21.075  14.885
28031W        W87127   7.217  43.482  13.539
28032W        W87128   7.177  32.494   1.411
28033W        W87129  42.812  24.205  14.314
28034W        W87130   0.768  23.988  12.968
28035W        W87131   1.348   1.358  11.927
28036W        W87132  23.621  36.884   9.671
28037W        W87133   4.306  30.160   4.134
28038W        W87134  30.938  25.606   3.358
28039W        W87135   3.789  19.080  11.472
28040W        W87136  12.696  30.499  14.955
28041W        W87137   2.405  13.793   3.863
28042W        W87138  14.718   1.337  13.511
28043W        W87139  19.048  41.006  13.363
28044W        W87140  13.280  38.863   2.370
28045W        W87141  10.363   6.309  10.440
28046W        W87142  25.699  22.078  10.893
28047W        W87143  17.724  24.168  13.335
28048W        W87144  29.145  16.728   4.160
28049W        W87145  44.816  30.568  14.468
28050W        W87146  21.074  27.189  10.519
28051W        W87147  43.839   0.857   0.467
28052W        W87148  39.559  32.992   3.711
28053W        W87149  42.465  24.192  13.858
28054W        W87150  15.586  25.549  14.357
28055W        W87151  13.718  36.487   1.857
28056W        W87152  22.728  39.016  10.594
28057W        W87153   0.301   3.309  11.984
28058W        W87154  28.133  23.675   2.747
28059W        W87155  30.157   3.924   2.357
28060W        W87156  41.037  39.486  14.934
28061W        W87157  35.524   9.391   9.967
28062W        W87158   8.899  37.515  12.544
28063W        W87159  21.232   2.244   4.797
28064W        W87160   7.313  27.515  11.909
28065W        W87161  28.018  29.642  13.927
28066W        W87162   9.791  23.619   2.665
28067W        W87163  31.009  24.127   2.712
28068W        W87164  25.499  22.550   0.913
28069W        W87165  34.908   8.787  11.549
28070W        W87166  27.605  37.435   4.608
28071W        W87167   8.224  29.597   3.192
28072W        W87168  16.208  16.165  13.922
28073W        W87169  10.873   5.410  11.047
28074W        W87170  27.129  26.093  14.782
28075W        W87171  32.401  37.498   0.386
28076W        W87172  19.190  33.391   3.652
28077W        W87173   7.716  11.707  12.929
28078W        W87174  25.012  44.458   3.364
28079W        W87175   6.679  27.024  12.060
28080W        W87176  23.494  10.178   1.446
28081W        W87177  26.558  28.564   3.219
28082W        W87178  16.213  21.681   4.337
28083W        W87179   9.204  34.000  13.991
28084W        W87180  30.039  22.649  11.515
28085W        W87181  11.800  42.445  12.395
28086W        W87182  25.102  42.525  13.323
28087W        W87183   9.208  14.733   4.159
28088W        W87184  32.071  16.124   2.206
28089W        W87185  25.502   3.455   4.625
28090W        W87186  22.503  25.646  12.469
28091W        W87187   5.429  21.090  11.054
28092W        W87188  43.439  36.028   0.268
28093W        W87189  21.238  11.702   0.775
28094W        W87190  18.665  40.473  14.430
28095W        W87191  35.429   7.839  14.016
28096W        W87192  31.596  29.439   4.349
28097W        W87193  15.089  15.127   3.379
28098W        W87194   0.751  22.176   1.347
28099W        W87195   7.708  34.475   1.433
28100W        W87196  17.093  33.946  13.482
28101W        W87197  17.717   2.390  13.954
28102W        W87198  13.181  22.241   3.269
28103W        W87199  15.814  22.716   1.435
28104W        W87200  32.425  26.952  12.979
28105W        W87201  17.597   8.711  10.017
28106W        W87202  25.706   2.724   0.288
28107W        W87203  39.532   2.471   4.300
28108W        W87204  31.939   6.425   1.267
28109W        W87205  29.669  10.297   2.818
28110W        W87206  44.884  18.784   0.296
28111W        W87207   4.387  17.163  10.531
28112W        W87208  17.697  32.441  11.021
28113W        W87209  39.827  22.514  11.044
28114W        W87210  40.922  42.498  11.115
28115W        W87211  40.332  15.284  10.579
28116W        W87212  17.146  32.491   0.760
28117W        W87213  44.487   9.866  14.436
28118W        W87214   2.785  43.358   4.677
28119W        W87215  24.002  43.858   3.363
28120W        W87216  31.513  36.967  10.631
28121W        W87217   0.895  34.013  12.354
28122W        W87218  31.595  32.604  14.862
28123W        W87219  20.196  22.670   0.357
28124W        W87220  41.843  34.430   2.719
28125W        W87221  20.075  21.187   2.400
28126W        W87222  20.184  38.868  12.080
28127W        W87223   1.392  31.096   0.288
28128W        W87224  40.811   7.393  12.927
28129W        W87225   9.840   2.248  10.416
28130W        W87226  37.059  28.109  11.971
28131W        W87227  24.664  19.096   0.823
28132W        W87228  23.565  22.530  14.964
28133W        W87229  34.547  26.487   1.324
28134W        W87230  27.681  29.485   2.869
28135W        W87231  11.183   2.366  13.384
28136W        W87232  24.164   2.855  10.484
28137W        W87233  40.877  17.587  14.274
28138W        W87234  39.029  43.314   4.739
28139W        W87235   6.745  21.705  13.990
28140W        W87236  25.654  10.234   5.082
28141W        W87237   3.797  31.025  11.484
28142W        W87238   6.691   8.191   0.450
28143W        W87239  16.301   0.260  10.457
28144W        W87240  30.584  22.147   4.343
28145W        W87241  18.576  44.367   9.929
28146W        W87242  19.537  44.812   1.916
28147W        W87243  25.006  10.343   3.333
28148W        W87244  40.466   6.889   2.293
28149W        W87245  26.147  44.942  11.420
28150W        W87246  32.455  39.889   1.222
28151W        W87247   4.836  19.700   2.329
28152W        W87248  37.509   9.837  11.443
28153W        W87249  41.823  15.101  13.532
28154W        W87250   3.385  20.088   1.218
28155W        W87251   1.381  26.695  11.421
28156W        W87252  25.126   3.303  11.104
28157W        W87253  42.880   3.790   1.255
28158W        W87254  19.206  25.468  13.496
28159W        W87255  19.666  30.555   3.353
28160W        W87256  38.402  18.280  13.937
28161W        W87257  41.394  13.291  12.574
28162W        W87258  36.054   1.826  13.408
28163W        W87259   2.448  14.293  14.801
28164W        W87260   2.796   7.717   1.864
28165W        W87261   5.815   7.896   3.338
28166W        W87262   3.728  11.760   0.265
28167W        W87263  43.916   0.300  10.478
28168W        W87264  30.464  19.182   4.148
28169W        W87265  21.199  33.984   1.750
28170W        W87266   0.299  34.570   3.260
28171W        W87267  32.936   8.359   1.761
28172W        W87268  36.866  16.708   5.230
28173W        W87269   2.813  37.997   0.967
28174W        W87270  31.932  33.995  14.986
28175W        W87271  20.654  16.218  13.387
28176W        W87272  41.953   4.207  11.416
28177W        W87273  35.527   6.341   2.846
28178W        W87274  26.128   3.718   3.808
28179W        W87275  16.675  17.092  12.834
28180W        W87276  43.820   6.867   2.774
28181W        W87277   9.280   4.403  14.915
28182W        W87278  39.439  17.587  13.914
28183W        W87279   1.973  32.485   3.348
28184W        W87280  19.124  33.952  11.905
28185W        W87281  33.468   1.784  12.056
28186W        W87282   0.262  17.178  10.487
28187W        W87283  40.541  13.298   0.378
28188W        W87284  30.589  29.572   5.246
28189W        W87285  20.122   7.899  12.362
28190W        W87286  41.991  28.515   1.367
28191W        W87287  23.623  28.178  13.379
28192W        W87288   7.699  40.825  12.376
28193W        W87289  35.932   4.727  11.952
28194W        W87290   7.780   1.316   1.227
28195W        W87291  18.191  24.606   3.357
28196W        W87292  29.589  17.559  12.449
28197W        W87293   1.892  22.684  13.051
28198W        W87294   6.684  30.118   4.266
28199W        W87295  11.135  36.357   3.844
28200W        W87296  39.059  26.139  12.092
28201W        W87297  32.597  28.546  14.307
28202W        W87298  23.213  28.561   3.174
28203W        W87299   8.702  24.550   5.665
28204W        W87300  31.949  19.571   0.408
28205W        W87301  37.397  38.523   2.235
28206W        W87302  43.787  14.222  13.972
28207W        W87303  34.972   5.326   0.806
28208W        W87304   0.892   0.857   0.271
28209W        W87305  21.055  16.073  12.358
28210W        W87306  41.873  32.599   1.302
28211W        W87307   2.343  14.333  11.077
28212W        W87308   8.213  43.882   1.813
28213W        W87309  19.233  40.515  11.926
28214W        W87310  22.509  24.122  10.944
28215W        W87311  42.804  20.225   3.280
28216W        W87312  22.586   8.747   4.293
28217W        W87313  32.983  23.232   1.764
28218W        W87314  36.381  19.202   5.107
28219W        W87315  33.519  10.796  14.760
28220W        W87316  41.407   6.845   3.285
28221W        W87317  26.476  12.206  13.545
28222W        W87318  30.647  26.152   0.896
28223W        W87319  34.594  12.786   3.698
28224W        W87320  21.129  29.158   0.954
28225W        W87321  34.976  30.947   4.355
28226W        W87322  40.011   5.784   0.938
28227W        W87323   8.850  26.612   1.253
28228W        W87324   6.688  23.522   4.633
28229W        W87325  12.342  22.073  14.784
28230W        W87326   7.806  33.428  11.563
28231W        W87327  42.954   1.947   1.262
28232W        W87328  16.112   3.433   2.226
28233W        W87329  11.298  40.928   2.842
28234W        W87330  14.674   3.812  11.461
28235W        W87331  40.927   2.464   2.859
28236W        W87332   9.767   0.342  13.938
28237W        W87333  44.344  32.432   1.704
28238W        W87334  21.557  32.906  11.608
28239W        W87335  35.430  42.001   3.236
28240W        W87336  28.627  24.509  13.815
28241W        W87337  16.758  31.065  14.856
28242W        W87338  36.362   9.354  13.926
28243W        W87339  25.553   4.406   2.341
28244W        W87340  32.141  19.677   0.959
28245W        W87341  23.525  23.638  10.954
28246W        W87342  12.176   0.303  14.477
28247W        W87343  39.508  37.519  12.540
28248W        W87344  43.821  31.528  12.941
28249W        W87345  34.450  32.609   3.859
28250W        W87346  31.031  21.543   1.760
28251W        W87347   5.813  18.243  10.462
28252W        W87348  25.493  34.493   9.942
28253W        W87349   9.178  14.328  10.963
28254W        W87350  25.643   8.694   1.717
28255W        W87351  39.043  21.747  11.998
28256W        W87352  28.948  40.822   1.726
28257W        W87353  42.400  20.588   4.777
28258W        W87354   7.813  30.556   2.265
28259W        W87355  23.033  33.425   1.904
28260W        W87356   4.300  36.440   1.906
28261W        W87357   5.699  37.524  11.101
28262W        W87358   8.728  39.908  11.371
28263W        W87359  24.226  18.132   4.218
28264W        W87360  37.375  38.830   1.747
28265W        W87361  39.341  37.438   1.908
28266W        W87362  30.439  15.699  10.550
28267W        W87363  24.209  41.421  14.871
28268W        W87364  25.527   3.729  12.354
28269W        W87365  43.411   5.768  10.494
28270W        W87366  39.809  20.610   1.232
28271W        W87367  21.592  42.843   0.314
28272W        W87368  33.105  39.012  14.345
28273W        W87369   9.166  19.139  10.601
28274W        W87370  37.466  42.884  11.871
28275W        W87371  29.148  21.178  10.414
28276W        W87372  13.633  21.255   0.299
28277W        W87373  22.195   2.753  11.963
28278W        W87374   9.357  24.134   9.463
28279W        W87375  15.761  14.739   1.897
28280W        W87376  36.348  29.471   0.446
28281W        W87377  22.015  13.247   3.314
28282W        W87378  15.633  30.543  10.623
28283W        W87379   9.371  41.995  10.452
28284W        W87380  28.490  36.457  13.382
28285W        W87381  39.944  36.854   0.307
28286W        W87382  38.512   1.364   3.679
28287W        W87383  42.963  28.147   0.361
28288W        W87384   1.364   6.801   1.926
28289W        W87385  13.242   5.337  11.413
28290W        W87386  39.973  18.652  14.897
28291W        W87387  31.060   0.313  14.463
28292W        W87388  42.305   0.868   0.751
28293W        W87389   0.415  11.169   4.267
28294W        W87390  11.821  36.563  11.877
28295W        W87391  17.568  26.465  13.509
28296W        W87392   1.326  11.155  12.027
28297W        W87393   6.850   3.803  11.918
28298W        W87394  34.581   2.849  12.417
28299W        W87395  27.073  19.054  13.392
28300W        W87396   7.211  13.619   2.706
28301W        W87397  23.049  14.135  13.973
28302W        W87398  42.856   9.819   2.709
28303W        W87399  41.444  20.744  14.410
28304W        W87400   4.256   8.391  13.855
28305W        W87401  10.718  37.434   0.839
28306W        W87402  42.479  12.325  11.865
28307W        W87403  28.548  35.502   0.373
28308W        W87404   5.267   8.237  11.051
28309W        W87405   9.193  19.126  12.533
28310W        W87406  19.749  20.047   3.386
28311W        W87407  30.093  24.654   0.799
28312W        W87408  35.103   1.852   2.348
28313W        W87409   4.924  12.678  13.902
28314W        W87410   0.322  43.303  13.952
28315W        W87411  40.321  32.922  10.523
28316W        W87412  27.991   4.927   3.636
28317W        W87413  28.963  41.862  13.017
28318W        W87414  34.911  41.033   1.876
28319W        W87415  34.517  31.958  13.369
28320W        W87416  30.079  31.960   2.680
28321W        W87417   1.242  35.868   3.170
28322W        W87418   8.778  15.290  13.851
28323W        W87419   2.905  33.955  14.404
28324W        W87420  25.975   4.357  13.462
28325W        W87421  33.098  39.542  12.866
28326W        W87422   8.381  39.455   4.159
28327W        W87423  33.032   6.338   1.241
28328W        W87424  26.684  22.104   4.629
28329W        W87425  39.977   9.279   1.300
28330W        W87426  44.913  23.677   2.244
28331W        W87427   8.750  37.928  13.042
28332W        W87428  18.065   9.781  13.479
28333W        W87429  11.788  39.456   0.248
28334W        W87430  39.341  13.610  11.496
28335W        W87431  30.092  24.096   0.336
28336W        W87432  27.167   7.895   1.867
28337W        W87433  36.439  44.837  14.028
28338W        W87434  43.302  22.569  11.027
28339W        W87435  36.097  17.608   0.370
28340W        W87436  28.961  35.070  11.917
28341W        W87437  34.025  22.243   0.449
28342W        W87438   7.387  21.715  13.451
28343W        W87439  20.611   2.953   0.880
28344W        W87440   0.348  28.098   1.373
28345W        W87441  32.974  30.432  10.908
28346W        W87442  15.185   6.753  14.311
28347W        W87443  30.540   6.806   0.807
28348W        W87444  32.999  33.918  10.632
28349W        W87445  19.274  42.446  10.414
28350W        W87446  34.434   7.212   3.254
28351W        W87447  44.292  16.785  13.308
28352W        W87448  43.946  15.086  10.962
28353W        W87449  13.720  39.036  13.867
28354W        W87450  23.060  17.757  11.429
28355W        W87451   8.893  26.481   0.318
28356W        W87452  24.599  13.120  11.376
28357W        W87453  44.311  41.928  11.997
28358W        W87454   2.440  21.176  13.517
28359W        W87455  37.390  15.100  14.304
28360W        W87456  31.430  14.653   3.813
28361W        W87457   2.326  12.171  14.965
28362W        W87458  17.613  28.445  11.085
28363W        W87459  41.445  42.955   0.405
28364W        W87460  21.658  19.120  13.350
28365W        W87461  27.951  39.319  13.867
28366W        W87462   4.318   5.747   1.243
28367W        W87463  40.467   0.840   0.920
28368W        W87464  20.262  22.143  14.021
28369W        W87465  25.607  15.150   2.816
28370W        W87466  33.047   2.750   2.390
28371W        W87467  13.277  21.060   4.627
28372W        W87468  24.636  28.461   4.117
28373W        W87469  20.585  33.593   4.246
28374W        W87470  23.027   0.471  14.293
28375W        W87471  31.523   3.814   3.706
28376W        W87472  31.996   1.323  10.558
28377W        W87473  25.045  21.707   1.312
28378W        W87474  15.145  38.942   1.728
28379W        W87475  15.120   1.936  10.482
28380W        W87476   8.178  14.592   3.767
28381W        W87477  32.531  24.657  12.565
28382W        W87478  12.662  12.283   0.476
28383W        W87479   7.873   2.943   1.260
28384W        W87480   5.863  28.956   2.256
28385W        W87481  17.292  44.914  14.810
28386W        W87482  37.913  35.512  12.973
28387W        W87483  10.780  12.171  10.972
28388W        W87484  18.160  15.654   4.271
28389W        W87485  14.598  19.045  12.871
28390W        W87486  19.561  38.031   2.828
28391W        W87487   8.336   8.698  10.922
28392W        W87488  28.512   1.957  12.972
28393W        W87489   4.290  16.277   2.366
28394W        W87490  26.984  24.712  14.924
28395W        W87491  39.414  15.283  14.842
28396W        W87492  12.269  10.685   3.338
28397W        W87493  40.843   8.721  11.479
28398W        W87494   8.825   3.439  10.412
28399W        W87495  13.768  21.017  14.413
28400W        W87496  24.489  34.384  12.493
28401W        W87497  33.585   8.180  10.628
28402W        W87498  32.438  28.997  13.973
28403W        W87499   1.840  25.526   4.128
28404W        W87500  27.529  26.459   4.695
28405W        W87501  14.324  43.348   2.716
28406W        W87502   2.904  10.749   4.289
28407W        W87503   4.906  43.991  14.019
28408W        W87504   7.386  13.779  12.075
28409W        W87505  26.004  25.653   4.667
28410W        W87506  30.653   8.259  12.482
28411W        W87507  16.202  13.268  12.347
28412W        W87508  41.907  10.761  10.467
28413W        W87509  27.597  34.418   0.432
28414W        W87510  36.079  40.542   3.261
28415W        W87511   7.737   7.908  13.061
28416W        W87512  36.067  23.671  12.833
28417W        W87513   2.742  18.652   2.184
28418W        W87514  22.238  39.341   3.199
28419W        W87515  15.281  26.005   1.716
28420W        W87516  37.510  27.187   1.319
28421W        W87517  20.082  11.253  12.941
28422W        W87518   0.840  28.667  12.825
28423W        W87519  10.746   8.664   0.912
28424W        W87520  13.233  14.623   4.680
28425W        W87521   5.897  36.488  14.427
28426W        W87522  27.534  21.175  11.545
28427W        W87523  18.144  29.522   2.705
28428W        W87524  32.575   1.246  12.410
28429W        W87525  10.869  21.087  10.518
28430W        W87526  25.628  35.410  14.858
28431W        W87527  28.573   4.382   4.194
28432W        W87528  37.369  27.031  13.967
28433W        W87529   9.190   7.884  12.471
28434W        W87530  43.358  22.527   0.912
28435W        W87531  18.761   8.817  13.879
28436W        W87532  41.409  10.224  14.279
28437W        W87533  17.065  23.004   2.319
28438W        W87534  22.627  28.514  10.423
28439W        W87535  19.584   5.307  12.906
28440W        W87536   6.731   5.929   2.846
28441W        W87537  35.368  11.643   4.337
28442W        W87538  18.155  16.187  12.354
28443W        W87539  37.524   0.856   1.742
28444W        W87540  42.483  10.708  14.914
28445W        W87541   1.271  25.712   3.637
28446W        W87542  21.609  15.112  11.868
28447W        W87543  15.220   4.878  11.102
28448W        W87544  10.375  32.539   1.405
28449W        W87545  14.641  17.671   3.206
28450W        W87546   7.326   0.900   0.411
28451W        W87547  43.325  13.832  12.446
28452W        W87548  11.858  19.541  14.012
28453W        W87549  12.753  30.118  12.876
28454W        W87550  16.620  37.896   3.235
28455W        W87551  30.463  33.499  12.557
28456W        W87552  39.818   8.398  13.482
28457W        W87553  20.604  28.619   3.314
28458W        W87554  24.571  34.372  13.980
28459W        W87555  26.654  43.403   2.371
28460W        W87556  12.613  26.669  10.501
28461W        W87557  33.016  35.402  13.966
28462W        W87558  30.934  10.813   1.333
28463W        W87559   8.675  42.024   2.670
28464W        W87560  25.968  40.999  10.515
28465W        W87561   7.710  21.037   9.940
28466W        W87562  43.296   8.875  11.389
28467W        W87563  25.032  28.592   1.875
28468W        W87564  31.046  13.778   1.289
28469W        W87565  35.985   5.409  12.545
28470W        W87566   6.755  42.847  13.400
28471W        W87567  32.481   1.404  13.963
28472W        W87568  41.806  40.855   0.758
28473W        W87569  44.305   3.919  10.517
28474W        W87570   4.351  24.139  14.962
28475W        W87571  41.518  15.650   4.618
28476W        W87572  27.675   3.236   0.366
28477W        W87573  44.365  22.227   3.723
28478W        W87574   5.212  42.333   2.203
28479W        W87575  10.384   4.834   1.411
28480W        W87576  15.685  43.978  12.542
28481W        W87577   6.885  26.535   0.327
28482W        W87578   5.415  30.009   3.819
28483W        W87579   6.307  10.327   3.640
28484W        W87580  10.341   4.310  14.460
28485W        W87581  41.806  15.273   4.322
28486W        W87582  26.188   4.320   2.681
28487W        W87583  20.721  22.715   4.127
28488W        W87584  11.681  23.990   0.787
28489W        W87585  27.105  24.045  14.818
28490W        W87586  35.396  23.135   4.166
28491W        W87587  10.766  32.112   2.205
28492W        W87588   6.246  32.978  13.055
28493W        W87589  22.159  26.531   0.424
28494W        W87590   6.706  23.086  11.967
28495W        W87591  16.195  30.963   4.826
28496W        W87592  18.290  32.612   3.727
28497W        W87593  13.727  19.116   1.423
28498W        W87594  14.289  24.996   2.208
28499W        W87595  35.952  26.010   3.790
28500W        W87596   2.894  30.155   0.426
28501W        W87597  22.612  10.253  11.420
28502W        W87598  31.123  43.992   2.325
28503W        W87599  44.291   3.318  14.772
28504W        W87600  25.537  39.882  10.433
28505W        W87601   4.351   8.385   2.340
28506W        W87602   6.842  27.050  13.374
28507W        W87603  28.948  27.598   4.272
28508W        W87604  15.810   5.821   0.871
28509W        W87605  26.164  11.768  13.483
28510W        W87606  15.241   8.692  12.362
28511W        W87607  26.083  29.932   3.262
28512W        W87608  35.053  31.964  13.837
28513W        W87609  41.379  28.584   3.351
28514W        W87610  21.640   3.286  12.358
28515W        W87611  26.651  11.690   2.785
28516W        W87612   2.798   7.278  11.516
28517W        W87613   2.870   4.943   4.667
28518W        W87614  26.097   6.340  13.423
28519W        W87615  24.514  42.301  10.601
28520W        W87616  25.692  41.811   2.222
28521W        W87617  33.988  39.931   4.273
28522W        W87618   3.866  22.565  13.345
28523W        W87619  32.037   2.256  14.327
28524W        W87620  27.150  32.066  13.442
28525W        W87621   1.424   6.280  13.507
28526W        W87622  28.553  39.950  13.055
28527W        W87623  43.985  12.186  12.003
28528W        W87624  34.429   6.408   4.305
28529W        W87625  33.060  38.566   1.292
28530W        W87626  34.007  19.150   1.365
28531W        W87627  32.436  27.681   0.433
28532W        W87628  17.748  16.145   4.726
28533W        W87629  36.558  15.304   3.647
28534W        W87630  14.697   1.333   2.389
28535W        W87631   8.269  37.947   4.241
28536W        W87632  21.719  25.091  11.387
28537W        W87633   3.848  16.165   1.373
28538W        W87634   0.249  18.773  13.380
28539W        W87635  23.501  43.365  10.641
28540W        W87636   3.811  37.379   3.810
28541W        W87637   2.754   0.265  10.604
28542W        W87638  20.131  27.077  10.544
28543W        W87639  27.587  25.993  14.986
28544W        W87640  13.151  35.103   3.254
28545W        W87641   5.357  17.110  11.054
28546W        W87642   3.270  27.632   2.817
28547W        W87643  42.330  44.757   0.956
28548W        W87644  39.427  42.911  11.530
28549W        W87645   6.726  25.488  10.506
28550W        W87646  10.201   3.369   3.200
28551W        W87647  18.118  20.668   1.437
28552W        W87648  37.916  35.403  11.514
28553W        W87649   1.857  34.389   0.793
28554W        W87650  34.474   7.238  12.978
28555W        W87651   3.895  19.643  14.500
28556W        W87652  25.480  16.117  12.382
28557W        W87653  12.260   4.797  14.438
28558W        W87654  30.921  20.600  14.334
28559W        W87655  24.030  33.434   2.311
28560W        W87656  34.034  22.999   0.305
28561W        W87657  34.573  12.787   1.919
28562W        W87658  39.832  37.537  14.502
28563W        W87659   1.739  35.490  14.406
28564W        W87660  13.132  35.884   3.719
28565W        W87661   3.854  10.730  14.305
28566W        W87662  10.276   5.418  12.364
28567W        W87663  25.641  30.143  14.426
28568W        W87664   3.750  38.525  13.361
28569W        W87665  16.143  19.660   4.699
28570W        W87666  33.425  41.798   1.229
28571W        W87667  22.636   1.285   2.349
28572W        W87668  26.523  12.626   2.196
28573W        W87669  14.150  12.287  12.492
28574W        W87670   1.732   8.901   2.699
28575W        W87671  27.959   2.341   0.354
28576W        W87672  30.582  18.561  13.409
28577W        W87673  36.570  12.330   1.428
28578W        W87674  24.553  10.710   3.850
28579W        W87675  13.254  30.422   5.232
28580W        W87676  15.256  42.976   2.268
28581W        W87677  17.792  36.347  13.483
28582W        W87678  42.807  40.432   0.390
28583W        W87679  25.045  28.050  13.491
28584W        W87680  36.446  24.227  10.492
28585W        W87681  38.520   9.304   2.693
28586W        W87682  38.981   7.242   3.639
28587W        W87683  44.423  17.618   1.877
28588W        W87684  39.018  18.275  12.003
28589W        W87685   3.307  30.518  13.064
28590W        W87686   6.810  17.703   0.745
28591W        W87687  20.240  26.967   1.930
28592W        W87688   6.213   4.784   3.362
28593W        W87689  40.307   7.250  11.572
28594W        W87690  29.029  39.883   1.722
28595W        W87691  35.881   6.201   1.850
28596W        W87692  11.287  32.034   3.694
28597W        W87693  22.690   3.945   1.750
28598W        W87694  28.035  40.455  10.022
28599W        W87695  21.744  20.720  12.392
28600W        W87696  41.422  14.259  12.070
28601W        W87697  32.086  13.275   0.839
28602W        W87698  43.309  20.572  13.483
28603W        W87699  23.619   0.410   2.789
28604W        W87700  42.433  31.129  10.519
28605W        W87701  18.144  24.083   2.360
28606W        W87702  16.078  42.984  10.572
28607W        W87703  37.956   9.709   1.730
28608W        W87704  34.567   8.214  12.917
28609W        W87705  14.730  16.146   4.822
28610W        W87706  44.435  15.779   5.290
28611W        W87707   5.381   8.836  14.333
28612W        W87708  42.793  25.628   2.748
28613W        W87709  22.733  40.456  10.583
28614W        W87710  24.023  15.245   1.859
28615W        W87711  22.252  24.569   1.247
28616W        W87712  29.950  12.707  11.596
28617W        W87713   3.272  30.510   1.801
28618W        W87714   2.232  26.487  13.457
28619W        W87715  20.052  31.629   4.618
28620W        W87716  36.860  31.084  10.915
28621W        W87717  18.772  27.020   4.329
28622W        W87718  32.082  30.986  10.946
28623W        W87719   5.298  22.178  13.418
28624W        W87720  36.876  41.928  10.994
28625W        W87721  16.182   4.782  13.827
28626W        W87722  39.378   5.208   1.248
28627W        W87723  35.361  20.736   0.916
28628W        W87724   5.220   2.941  14.812
28629W        W87725  22.685  12.675  12.094
28630W        W87726  11.696  29.145   5.796
28631W        W87727  43.017  35.880   1.862
28632W        W87728  17.080  26.648  14.977
28633W        W87729  27.098   5.214  13.347
28634W        W87730  10.289  44.502   3.735
28635W        W87731  26.017  32.053   0.471
28636W        W87732  43.789   0.261   1.384
28637W        W87733   3.454  42.362   1.701
28638W        W87734  27.141   0.275   3.714
28639W        W87735  41.463   5.388   2.404
28640W        W87736  19.107  35.597   1.899
28641W        W87737  44.271  35.558  14.969
28642W        W87738   2.319  32.143   9.951
28643W        W87739  37.547  28.150   3.761
28644W        W87740  30.503  29.649  14.369
28645W        W87741  27.589  27.137  14.464
28646W        W87742  24.499  24.994  13.331
28647W        W87743  43.818  40.912   0.872
28648W        W87744  38.568   3.898   4.690
28649W        W87745  34.511  34.095   3.241
28650W        W87746  27.956   7.393   2.295
28651W        W87747  44.446  35.472  10.937
28652W        W87748  34.962  14.620  10.932
28653W        W87749  28.145  28.491   0.908
28654W        W87750  25.160  17.249   0.774
28655W        W87751  13.802  25.530   4.679
28656W        W87752  33.036  38.959  11.493
28657W        W87753  37.030  22.664  12.481
28658W        W87754   1.937  32.541   1.275
28659W        W87755  41.381  25.062   0.787
28660W        W87756   1.260  41.882   0.373
28661W        W87757   6.345   8.677  14.950
28662W        W87758  28.041  36.390  14.323
28663W        W87759   2.865  23.054  12.525
28664W        W87760  33.438  14.148   1.718
28665W        W87761  28.488  17.684   0.267
28666W        W87762  30.427  16.592  14.012
28667W        W87763   7.828  14.128   4.650
28668W        W87764   2.250  21.167   2.309
28669W        W87765  40.458  34.901   3.265
28670W        W87766  35.091  17.142   0.352
28671W        W87767  27.071  23.131   4.161
28672W        W87768  43.271  26.688  10.502
28673W        W87769  44.362  24.083   1.299
28674W        W87770  31.503  36.010   4.251
28675W        W87771  31.439  29.160   0.435
28676W        W87772  37.542   7.394   0.470
28677W        W87773   8.863  16.756   4.827
28678W        W87774  23.992   2.956  14.384
28679W        W87775  19.701  12.301  11.579
28680W        W87776  13.339  27.989   2.712
28681W        W87777  44.338  10.806   2.265
28682W        W87778  35.531  40.411  12.482
28683W        W87779   7.361  29.560   0.304
28684W        W87780  25.526  39.985   3.762
28685W        W87781   2.460  42.776   3.868
28686W        W87782   7.343  34.928  14.875
28687W        W87783  41.303   9.168  13.957
28688W        W87784  25.665  33.944  13.999
28689W        W87785  30.937  36.364   3.798
28690W        W87786  40.923  26.150   3.324
28691W        W87787  23.604  14.127   4.320
28692W        W87788  37.337  19.118   4.145
28693W        W87789   5.932  43.505   0.322
28694W        W87790  16.757  25.486  12.009
28695W        W87791  38.496  31.983  14.825
28696W        W87792  44.901  15.297  12.528
28697W        W87793  43.319  31.631  13.028
28698W        W87794  14.337  17.115   3.859
28699W        W87795  34.544  27.605  10.480
28700W        W87796  43.389  20.126   4.239
28701W        W87797   2.908   3.309   3.286
28702W        W87798  22.152   1.846  12.083
28703W        W87799  32.555  11.830   1.234
28704W        W87800  27.962  27.492  14.297
28705W        W87801  34.467  15.813  14.435
28706W        W87802  38.870  37.537   3.347
28707W        W87803  10.349  25.115   3.647
28708W        W87804  13.232  20.099  10.631
28709W        W87805   0.337  27.150  11.541
28710W        W87806   8.184  31.496  13.348
28711W        W87807  32.501  21.654   3.750
28712W        W87808  40.981  24.024   0.423
28713W        W87809  34.907  42.284  10.550
28714W        W87810  39.395  39.547  11.898
28715W        W87811  18.749  10.680  13.006
28716W        W87812  43.880  19.557   4.603
28717W        W87813  28.670  25.184   2.315
28718W        W87814   3.939   8.814  14.514
28719W        W87815  39.048  41.921   4.352
28720W        W87816   8.854  20.118   4.835
28721W        W87817  17.231  41.461  12.090
28722W        W87818  17.583  20.732  10.407
28723W        W87819  42.963  35.890  11.942
28724W        W87820   8.863   5.207  14.001
28725W        W87821  10.633  16.256  13.893
28726W        W87822   3.891  24.135   1.879
28727W        W87823  36.428  42.973   3.859
28728W        W87824  11.685  40.957   4.797
28729W        W87825   8.878  10.264   1.820
28730W        W87826  40.846  14.136  14.843
28731W        W87827  11.192  27.059  14.773
28732W        W87828   7.281  40.332  13.832
28733W        W87829  10.804   6.408  14.414
28734W        W87830  41.442  24.117  12.844
28735W        W87831   2.892  15.163  14.316
28736W        W87832   8.293  11.145   0.357
28737W        W87833  21.106   4.363  13.026
28738W        W87834   5.914  42.906   1.927
28739W        W87835   8.235  26.160   0.331
28740W        W87836  36.530  23.069   3.175
28741W        W87837  11.286  44.004  11.405
28742W        W87838  20.588   3.309  14.807
28743W        W87839  31.620   9.838  13.539
28744W        W87840  30.467   9.177  14.289
28745W        W87841  12.714  38.873   0.726
28746W        W87842  21.616  22.580  11.953
28747W        W87843  41.340  11.834  12.993
28748W        W87844  41.383  26.168  12.055
28749W        W87845  32.096   2.325   2.740
28750W        W87846  15.137  23.169   4.120
28751W        W87847   9.880  28.439  10.591
28752W        W87848  44.303   8.334  14.465
28753W        W87849   2.960  36.520   2.342
28754W        W87850  39.333  40.413  14.359
28755W        W87851  31.433  26.667   0.965
28756W        W87852  19.268  43.826  13.330
28757W        W87853  22.614  11.667   2.392
28758W        W87854   7.764   4.865   1.291
28759W        W87855  43.981  13.308  14.845
28760W        W87856  39.450  33.578   3.197
28761W        W87857  12.311  16.581   9.579
28762W        W87858  19.091  15.263   1.396
28763W        W87859  13.325   5.750  10.984
28764W        W87860  27.535   9.664  14.456
28765W        W87861   3.906  22.007   4.728
28766W        W87862  25.984  40.359   2.358
28767W        W87863  41.961  24.688   3.708
28768W        W87864  37.060  17.716  11.603
28769W        W87865  40.891   1.380   1.404
28770W        W87866  21.257  24.019   2.193
28771W        W87867  25.692  44.291   1.832
28772W        W87868   8.665  34.885   3.835
28773W        W87869   6.827  25.191  14.003
28774W        W87870  10.181  18.270  13.838
28775W        W87871  44.011  44.955  10.498
28776W        W87872  38.966   8.753   2.820
28777W        W87873  39.949  32.566  12.433
28778W        W87874  15.208  36.078  13.959
28779W        W87875  41.423  42.405   4.669
28780W        W87876  32.572  15.591  12.469
28781W        W87877  35.989   9.272   0.293
28782W        W87878  41.407  30.153  11.545
28783W        W87879  34.090   8.732  11.585
28784W        W87880  38.995  44.922  11.008
28785W        W87881  17.089  34.395   2.390
28786W        W87882  13.318  44.955   3.236
28787W        W87883  43.004  34.996   3.870
28788W        W87884  19.602  41.406  11.412
28789W        W87885   9.678  29.975  11.516
28790W        W87886  38.821  39.898  13.372
28791W        W87887   4.913   3.329   2.321
28792W        W87888  25.114  38.382   0.294
28793W        W87889  26.703   9.150   3.223
28794W        W87890  12.299  37.561  10.601
28795W        W87891  31.010  37.514  12.470
28796W        W87892  23.512  10.675  10.553
28797W        W87893   1.412  43.830  11.434
28798W        W87894  34.025   5.289  12.075
28799W        W87895  34.117  32.094   4.778
28800W        W87896  16.732  15.173   2.806
28801W        W87897  26.541  40.495   5.224
28802W        W87898   1.280  26.959  13.523
28803W        W87899  17.102  24.991   0.328
28804W        W87900   6.377  37.360   0.914
28805W        W87901  39.857  18.664  13.501
28806W        W87902  11.291  11.137  14.275
28807W        W87903   6.909   2.389  13.477
28808W        W87904  18.663  27.038   4.785
28809W        W87905  13.729   9.350   2.781
28810W        W87906  34.039  31.574  14.817
28811W        W87907  24.076  21.181  10.589
28812W        W87908   8.874  44.912   4.305
28813W        W87909  43.331  16.745   3.347
28814W        W87910  19.571  24.167   4.252
28815W        W87911   9.198   7.206   4.605
28816W        W87912  33.459  41.805   0.820
28817W        W87913  24.065  13.115  12.413
28818W        W87914   2.842  41.801  13.541
28819W        W87915  25.106  40.938   3.292
28820W        W87916  29.996  34.108   2.803
28821W        W87917  34.421  16.700   2.323
28822W        W87918  38.962   2.375  11.979
28823W        W87919  13.766  34.032  14.423
28824W        W87920  32.044  25.628  13.519
28825W        W87921  11.650  40.844   1.440
28826W        W87922  33.548  34.085   3.293
28827W        W87923   7.705  40.815  14.327
28828W        W87924  35.575  41.032   2.729
28829W        W87925   0.419  27.953  10.569
28830W        W87926  44.450  31.916   1.240
28831W        W87927  13.344  20.249  13.434
28832W        W87928  32.400   4.807   1.223
28833W        W87929  29.522  31.103   4.607
28834W        W87930  44.905  38.066   3.149
28835W        W87931   3.414  13.725   3.274
28836W        W87932  22.217  44.474   4.253
28837W        W87933  42.336  23.673  11.377
28838W        W87934  29.145   3.393   0.964
28839W        W87935  38.879  37.013   2.247
28840W        W87936  17.654  33.049  13.394
28841W        W87937  38.922   6.862  14.856
28842W        W87938   0.345   1.358  12.926
28843W        W87939  15.139  34.073   3.680
28844W        W87940   5.865  42.801   1.427
28845W        W87941  16.087   8.698   4.614
28846W        W87942  20.135  28.610   2.834
28847W        W87943  33.094  22.101   4.132
28848W        W87944  23.612   3.949   4.758
28849W        W87945  29.128  31.647   0.437
28850W        W87946  21.637  29.621   3.305
28851W        W87947  23.055  36.974   9.969
28852W        W87948  22.613  23.514  12.050
28853W        W87949  41.318  23.193   1.857
28854W        W87950  39.834  42.481   3.149
28855W        W87951  18.760   1.840  13.043
28856W        W87952  44.812  16.166   2.698
28857W        W87953   3.891   5.382   3.863
28858W        W87954   7.371  24.141  11.863
28859W        W87955  35.107  32.482  14.301
28860W        W87956  27.060  36.438  12.564
28861W        W87957  44.382  24.666   1.767
28862W        W87958  25.687  44.935   3.289
28863W        W87959  36.999  40.884  12.939
28864W        W87960  35.566   1.297   1.883
28865W        W87961  26.106  42.935   5.256
28866W        W87962  19.246  14.607  12.882
28867W        W87963  32.539  36.387  14.282
28868W        W87964  12.716   2.290   4.243
28869W        W87965   3.401   1.357   0.888
28870W        W87966  23.029  29.638   3.748
28871W        W87967  33.880  34.578   4.225
28872W        W87968  24.022   4.810   3.752
28873W        W87969   9.844  30.002   1.298
28874W        W87970  41.482  34.000   4.621
28875W        W87971  29.130  38.349   2.181
28876W        W87972  34.441  28.955  13.970
28877W        W87973  23.163  12.287  10.476
28878W        W87974  24.631  17.655   0.834
28879W        W87975  26.590  32.081  13.376
28880W        W87976  36.508   7.193  13.476
28881W        W87977   1.791   4.252   0.461
28882W        W87978   5.905  23.144   0.926
28883W        W87979  25.481  32.517  11.027
28884W        W87980  42.817  44.820  14.959
28885W        W87981  37.530  35.063  14.782
28886W        W87982  41.501  10.359  13.934
28887W        W87983  18.197  20.159   1.890
28888W        W87984  20.137  13.757   3.656
28889W        W87985  44.311  19.260  10.947
28890W        W87986  11.145  33.438  11.017
28891W        W87987  14.289  21.689  11.897
28892W        W87988  21.241   7.413   4.193
28893W        W87989  33.529   4.311   0.433
28894W        W87990  37.542  21.189  14.416
28895W        W87991  20.050  25.977   1.317
28896W        W87992  11.668   0.284   1.436
28897W        W87993  15.731  42.907   4.695
28898W        W87994   2.849  39.820  11.118
28899W        W87995  32.511  14.719   2.895
28900W        W87996  41.446  30.485   2.355
28901W        W87997  31.512   7.377   4.285
28902W        W87998   5.875   3.379   2.863
28903W        W87999  15.121  39.347   1.355
28904W        W88000  39.363   7.854   2.733
28905W        W88001  12.656  11.271   4.275
28906W        W88002  38.454  37.021   4.296
28907W        W88003   3.914   4.246   0.736
28908W        W88004  41.378  17.638  10.573
28909W        W88005  36.966   4.802  11.450
28910W        W88006   0.854  44.786  10.917
28911W        W88007  34.050  34.003   1.297
28912W        W88008  42.327  26.113   1.866
28913W        W88009  34.448  32.907  13.972
28914W        W88010  26.469  22.711  10.493
28915W        W88011  18.284  28.607   0.289
28916W        W88012  12.643  29.942  13.401
28917W        W88013   3.322  31.959  11.498
28918W        W88014  30.137  34.884   4.293
28919W        W88015  36.058   5.763  10.969
28920W        W88016   6.893  43.317  14.430
28921W        W88017  16.105  34.085  14.366
28922W        W88018   3.255  17.745  13.427
28923W        W88019  30.625  35.388  14.943
28924W        W88020  42.912  30.496   0.767
28925W        W88021  19.063  15.776  13.008
28926W        W88022  21.579  23.024   2.417
28927W        W88023  44.418  16.299  13.525
28928W        W88024  13.659  23.168   0.781
28929W        W88025  10.774  32.547  10.981
28930W        W88026   1.472  14.787   2.418
28931W        W88027  16.140  35.520  13.936
28932W        W88028   6.415  15.089   1.290
28933W        W88029  26.653  32.557  10.946
28934W        W88030  35.937  33.506  12.878
28935W        W88031  13.298   5.428   2.688
28936W        W88032   4.446   3.825  11.115
28937W        W88033   5.904  31.070   0.856
28938W        W88034  23.105   1.893   1.894
28939W        W88035  22.009  16.650   1.342
28940W        W88036   0.330  24.211   2.882
28941W        W88037  16.745   5.387   0.904
28942W        W88038  39.341  16.289   2.716
28943W        W88039   8.719  29.977  12.923
28944W        W88040   0.746   4.382   1.934
28945W        W88041  10.353  31.014  11.556
28946W        W88042   1.839  13.762  12.857
28947W        W88043   0.253  36.909  13.326
28948W        W88044  37.909  22.219   1.418
28949W        W88045  20.036   8.281  12.443
28950W        W88046  29.429  30.013  11.373
28951W        W88047  31.073  19.759   4.825
28952W        W88048  35.409  25.181   3.258
28953W        W88049  27.068  33.622   3.842
28954W        W88050   0.287   7.902   3.280
28955W        W88051  33.452  29.471   3.220
28956W        W88052  24.507  43.340  11.543
28957W        W88053  36.363  19.564  14.348
28958W        W88054  10.861  27.014  13.332
28959W        W88055   1.811   7.753   2.406
28960W        W88056  27.952  12.142  14.766
28961W        W88057  21.518  14.247   3.320
28962W        W88058  38.544   7.356  10.620
28963W        W88059   6.345  26.477   1.930
28964W        W88060   5.882  31.135  14.296
28965W        W88061   8.335   8.298  13.819
28966W        W88062  44.864   1.384   4.353
28967W        W88063  25.064  26.532   2.676
28968W        W88064  36.493  30.566   1.254
28969W        W88065  19.692  35.434  11.385
28970W        W88066  35.941  16.087  13.324
28971W        W88067  13.700  33.043   2.319
28972W        W88068  18.559  22.672   3.766
28973W        W88069  25.143  25.032   0.857
28974W        W88070  34.863  29.436   0.249
28975W        W88071   5.867  36.457  13.828
28976W        W88072  34.874  11.743  14.434
28977W        W88073  28.528  33.983  13.020
28978W        W88074   2.378  25.203   5.314
28979W        W88075  42.336  40.033   0.909
28980W        W88076  31.605  30.050  12.013
28981W        W88077  24.713   8.689  14.898
28982W        W88078  25.991  37.415   2.758
28983W        W88079  22.525  26.519   1.847
28984W        W88080  42.369  37.553  13.326
28985W        W88081  38.050  34.961  12.489
28986W        W88082  25.089  44.884  11.537
28987W        W88083  23.534  14.154   3.734
28988W        W88084  22.168  10.778   4.270
28989W        W88085  22.019  22.189  11.934
28990W        W88086   4.443  43.831   0.460
28991W        W88087  39.374  11.867   1.934
28992W        W88088  23.079  35.432   1.300
28993W        W88089   5.203  36.441   2.238
28994W        W88090  31.610   0.850   4.773
28995W        W88091  43.817  27.458  12.488
28996W        W88092   4.940  33.564  12.949
28997W        W88093  44.421  36.860   3.748
28998W        W88094  29.055  43.465   4.832
28999W        W88095   5.880  21.041   0.955
29000W        W88096  21.068   4.748  11.410
29001W        W88097  41.797   3.445  12.940
29002W        W88098   3.945  33.988  13.444
29003W        W88099  43.321  13.232  14.805
29004W        W88100  18.547  30.979   3.732
29005W        W88101  35.023   2.768  12.060
29006W        W88102  19.169  29.611   0.272
29007W        W88103  16.778  30.620  13.364
29008W        W88104  40.045  18.156   0.927
29009W        W88105  29.012   1.483  13.922
29010W        W88106  25.169  23.008  14.896
29011W        W88107  27.038  33.891   2.771
29012W        W88108   3.927   6.856  12.959
29013W        W88109  31.146   8.272  11.521
29014W        W88110   8.841  16.268   2.237
29015W        W88111  19.696  15.188  11.498
29016W        W88112  14.589   4.848  14.274
29017W        W88113  39.448  22.196  12.436
29018W        W88114   1.847  15.256  14.888
29019W        W88115  14.831   4.835   0.305
29020W        W88116  11.827   1.431   1.723
29021W        W88117  21.042  11.224   1.383
29022W        W88118  35.370   3.955  11.421
29023W        W88119   8.828   7.345  12.546
29024W        W88120  24.677  14.621   4.757
29025W        W88121  22.531  10.278   0.825
29026W        W88122  22.197  37.464   2.819
29027W        W88123  39.355  11.368   1.387
29028W        W88124  12.272  44.455   2.221
29029W        W88125  41.480  43.764   4.289
29030W        W88126  21.687  35.426   4.276
29031W        W88127  34.594  19.759  11.945
29032W        W88128  23.530  39.524   0.824
29033W        W88129  31.456  41.885  10.992
29034W        W88130  44.406  42.437  12.524
29035W        W88131  32.484  36.096   2.282
29036W        W88132  38.854  42.876   5.290
29037W        W88133  11.685  21.543  14.291
29038W        W88134   7.245  26.479  13.924
29039W        W88135  15.597  29.037   3.255
29040W        W88136  26.647  34.395   5.231
29041W        W88137  25.085   2.227  11.026
29042W        W88138  27.448  32.423   2.257
29043W        W88139  13.309  30.491   4.784
29044W        W88140  35.864  23.534   9.635
29045W        W88141  37.045  24.050   1.731
29046W        W88142   2.942  39.957  12.399
29047W        W88143   4.862  35.488  10.908
29048W        W88144  14.275  21.715  11.569
29049W        W88145  36.961  32.592  12.893
29050W        W88146  10.332  24.609   1.929
29051W        W88147  32.532  34.387   1.451
29052W        W88148   4.410  40.469  10.546
29053W        W88149  35.053   6.789   4.609
29054W        W88150   1.906   4.713  10.982
29055W        W88151   4.249  14.151  13.014
29056W        W88152  14.675   6.850   3.688
29057W        W88153   9.270   8.232   3.344
29058W        W88154  13.812  26.525   1.924
29059W        W88155  35.091  12.670   9.617
29060W        W88156  38.840   0.490  14.880
29061W        W88157  32.589  15.723  10.143
29062W        W88158   5.379  16.792   3.164
29063W        W88159  41.867   1.237  12.863
29064W        W88160   5.278  16.678   4.687
29065W        W88161  32.024   6.236  10.563
29066W        W88162  44.886  14.666   3.261
29067W        W88163   5.422  39.054   2.669
29068W        W88164  39.538  13.182  12.545
29069W        W88165  38.522  36.446   4.125
29070W        W88166   9.196  20.762  14.469
29071W        W88167  36.004  39.992  14.873
29072W        W88168  32.919   5.845   4.170
29073W        W88169  33.573   3.399  10.125
29074W        W88170  20.580   4.323  11.067
29075W        W88171  16.704   1.336   2.790
29076W        W88172  33.947   2.845   4.711
29077W        W88173  27.445   9.321   1.383
29078W        W88174   3.246  30.909  12.893
29079W        W88175   5.837  38.555   0.330
29080W        W88176   0.465  17.075   3.258
29081W        W88177  12.760  21.748  12.021
29082W        W88178  38.023  20.744  13.345
29083W        W88179  29.452  34.920   4.718
29084W        W88180  42.374  27.614  11.588
29085W        W88181  34.464   1.283  14.930
29086W        W88182  13.787   6.188  14.371
29087W        W88183  39.327   8.901   0.832
29088W        W88184  41.798  29.961   2.403
29089W        W88185   6.863  14.720   3.833
29090W        W88186  27.125  14.668  13.813
29091W        W88187  21.635  38.504  14.347
29092W        W88188   2.793  30.935   1.365
29093W        W88189  17.568  24.112   4.124
29094W        W88190  41.822   4.217   0.478
29095W        W88191  32.429  12.243  11.079
29096W        W88192   2.750  28.577   1.354
29097W        W88193   9.884  36.878   0.479
29098W        W88194  25.214  20.253  13.368
29099W        W88195  31.012  23.554  11.495
29100W        W88196  42.452  28.076  14.851
29101W        W88197  43.294  19.094  14.936
29102W        W88198  38.865  41.455   4.303
29103W        W88199   3.881  11.680   2.766
29104W        W88200  39.378  40.476   1.411
29105W        W88201  21.545   4.275   1.900
29106W        W88202  30.045  33.551  12.055
29107W        W88203  25.991   5.261   1.304
29108W        W88204  23.718  40.880   1.835
29109W        W88205  43.359   0.884  11.981
29110W        W88206   0.810  35.922  11.452
29111W        W88207  21.651  25.632  12.021
29112W        W88208  24.035  19.582   2.301
29113W        W88209  24.096  11.191  12.542
29114W        W88210  41.944  37.883  11.483
29115W        W88211  36.946  32.450   4.260
29116W        W88212  14.745  11.133   0.824
29117W        W88213   5.291  11.336  14.391
29118W        W88214  36.098  37.523   0.436
29119W        W88215  43.486   9.307  10.597
29120W        W88216  12.634  32.484  14.867
29121W        W88217  13.256  40.820  11.608
29122W        W88218  38.829  29.581  10.943
29123W        W88219  31.991  18.169   3.758
29124W        W88220  29.589   8.336  13.325
29125W        W88221   5.424  32.096  12.045
29126W        W88222  35.018  14.826   4.292
29127W        W88223  20.532  29.493  14.414
29128W        W88224  19.047  16.589   3.373
29129W        W88225  44.007  35.395  13.862
29130W        W88226  43.406  39.440   4.708
29131W        W88227  39.518  36.551   0.772
29132W        W88228  44.909   4.366   3.832
29133W        W88229   6.423   6.853   3.212
29134W        W88230  37.900  37.970   2.690
29135W        W88231  34.510  30.103   2.238
29136W        W88232   3.349  22.096  11.483
29137W        W88233  22.226   4.306   2.396
29138W        W88234  11.174   3.381  11.463
29139W        W88235  44.390  21.229   2.256
29140W        W88236  21.746  10.643  13.989
29141W        W88237  13.137   9.795   1.921
29142W        W88238  17.174  10.780  10.905
29143W        W88239   1.296  34.455   0.868
29144W        W88240  24.061   1.734  12.376
29145W        W88241  27.000   9.842  13.459
29146W        W88242  23.641   3.328  12.524
29147W        W88243  18.239  15.660  10.555
29148W        W88244  37.566  37.479  11.980
29149W        W88245   4.706  34.596  10.099
29150W        W88246  26.054  37.834   1.334
29151W        W88247  27.521  17.757  14.315
29152W        W88248  39.013   4.864   0.372
29153W        W88249   7.878  21.225   5.099
29154W        W88250  26.016  18.681   2.287
29155W        W88251  10.206  30.160   3.808
29156W        W88252   1.375  13.110   3.156
29157W        W88253  43.767  27.119   1.233
29158W        W88254  15.308  19.774   2.258
29159W        W88255  44.862   5.313   0.292
29160W        W88256  18.103  15.810   4.769
29161W        W88257   6.745   6.848   1.399
29162W        W88258  43.898  22.231  10.458
29163W        W88259  37.418  38.055   4.230
29164W        W88260  27.996  21.099  13.313
29165W        W88261  43.894   9.651   0.825
29166W        W88262  31.110  26.562   4.343
29167W        W88263  15.730  39.395   1.816
29168W        W88264  23.058   4.744  12.423
29169W        W88265   3.846  34.874   0.901
29170W        W88266  20.695  16.703   2.827
29171W        W88267  23.594  43.281  14.027
29172W        W88268  38.933  22.233   0.269
29173W        W88269  12.258  20.736   1.292
29174W        W88270  34.057  28.567  13.311
29175W        W88271   3.945  19.569  10.441
29176W        W88272  35.427  15.146  10.449
29177W        W88273  22.682  21.116  13.042
29178W        W88274  24.136  32.900  14.471
29179W        W88275   2.315  31.968  14.878
29180W        W88276  17.644  27.129  14.008
29181W        W88277   1.313  36.532   0.433
29182W        W88278  25.188  38.848   2.343
29183W        W88279  25.621  20.547  10.611
29184W        W88280  14.130  16.244  13.007
29185W        W88281   4.893   6.206  13.930
29186W        W88282  12.848  27.004  12.942
29187W        W88283  38.917  18.728  12.977
29188W        W88284  41.919  22.608  12.962
29189W        W88285   5.697  33.887   2.189
29190W        W88286  16.638  33.486   0.483
29191W        W88287  15.102  18.103   3.214
29192W        W88288   7.867   1.347  13.389
29193W        W88289  20.099  23.098   4.341
29194W        W88290  22.731  12.795  14.847
29195W        W88291   3.369  36.974  13.959
29196W        W88292  17.633  31.438  11.068
29197W        W88293  31.104  40.876  11.460
29198W        W88294  36.042  12.180   1.278
29199W        W88295   5.296  32.614  12.478
29200W        W88296  23.661  42.316  10.424
29201W        W88297  20.038  26.199  11.590
29202W        W88298  28.075  23.178   1.245
29203W        W88299  22.076   3.899   2.332
29204W        W88300   7.238  38.880  13.479
29205W        W88301   4.787   3.444   2.866
29206W        W88302  17.126   3.901   3.185
29207W        W88303  34.523   5.217   1.286
29208W        W88304   5.351   3.943  10.580
29209W        W88305   9.212  14.807  11.942
29210W        W88306   0.751  40.357  13.885
29211W        W88307  37.360  23.566   4.274
29212W        W88308  12.344   8.805   1.265
29213W        W88309  42.493  41.792   0.917
29214W        W88310  31.987  41.932   5.229
29215W        W88311  21.655  28.479   1.711
29216W        W88312   6.226   2.874  10.549
29217W        W88313  11.638  10.655  12.991
29218W        W88314  42.796  23.208  12.574
29219W        W88315  15.699  16.644  14.766
29220W        W88316  27.650  33.122  12.416
29221W        W88317  13.162  15.292   4.147
29222W        W88318  14.164   3.713  12.029
29223W        W88319   6.359  30.425   4.736
29224W        W88320  22.581  19.671   9.438
29225W        W88321  23.524  20.055  12.347
29226W        W88322  11.192  29.514   0.783
29227W        W88323  30.112  27.980   3.261
29228W        W88324  23.557   0.368  14.933
29229W        W88325  26.067  26.167  13.805
29230W        W88326  27.944  17.569   5.204
29231W        W88327  19.681  20.597  10.642
29232W        W88328  18.744  44.299  12.560
29233W        W88329  17.142  32.482  14.006
29234W        W88330  29.068  30.573  13.884
29235W        W88331   7.259  33.916  13.509
29236W        W88332  22.046  29.457  14.852
29237W        W88333  40.333  38.450   0.307
29238W        W88334  10.336  10.788   0.946
29239W        W88335  30.422   1.428  10.955
29240W        W88336  43.985  36.514   1.932
29241W        W88337  43.803  21.683  12.434
29242W        W88338  12.784  13.713   3.785
29243W        W88339  34.923   7.398   4.352
29244W        W88340  23.595  33.005   2.397
29245W        W88341  42.397  44.286   2.891
29246W        W88342  31.115  27.656  11.570
29247W        W88343   3.879  10.308   0.472
29248W        W88344  18.262  21.529   4.727
29249W        W88345   7.376  34.453   1.807
29250W        W88346  36.981  16.253  14.786
29251W        W88347   4.301  32.521   2.793
29252W        W88348  39.043  19.177  14.459
29253W        W88349  22.735  40.516   0.809
29254W        W88350  13.350   8.707   0.893
29255W        W88351  31.537  19.183  13.466
29256W        W88352   2.406  28.529  11.095
29257W        W88353  25.166  21.059  11.591
29258W        W88354  16.312  22.188   0.805
29259W        W88355  22.029  19.535  13.824
29260W        W88356  21.080  18.562  10.971
29261W        W88357  16.274  17.648  12.577
29262W        W88358  17.565  20.092  13.315
29263W        W88359  10.164  43.350  14.928
29264W        W88360  37.562   5.908  13.954
29265W        W88361  32.565  17.699   1.774
29266W        W88362  31.927   3.424  10.008
29267W        W88363  33.469  33.502  10.894
29268W        W88364  33.578  25.559  12.365
29269W        W88365  25.479   0.347   0.747
29270W        W88366   3.443   6.288   1.314
29271W        W88367  21.129  26.607   2.347
29272W        W88368  43.991  13.280  12.987
29273W        W88369   1.736  26.570   1.722
29274W        W88370  40.900  39.838  13.450
29275W        W88371  23.234  27.098  13.870
29276W        W88372  35.590  40.499  12.960
29277W        W88373  44.863   1.319  12.061
29278W        W88374  30.990  23.546  11.051
29279W        W88375  28.674   0.883  10.512
29280W        W88376  30.153  17.254  10.933
29281W        W88377  44.474   4.341  12.414
29282W        W88378  42.900  36.545   0.869
29283W        W88379  15.695  34.965  14.385
29284W        W88380   7.378  18.562   3.809
29285W        W88381   3.917  19.217   1.928
29286W        W88382  42.896  14.277   0.753
29287W        W88383  30.468   6.707  14.980
29288W        W88384  13.620   7.737  14.488
29289W        W88385   4.814  24.011   2.219
29290W        W88386  10.302  25.582  11.898
29291W        W88387  28.169   9.277  12.386
29292W        W88388   3.257  40.898  11.062
29293W        W88389  16.212  12.723   1.873
29294W        W88390  34.114  29.978   1.315
29295W        W88391  20.652  37.554   3.765
29296W        W88392  18.166  29.622   3.333
29297W        W88393  24.667   8.845   2.193
29298W        W88394  30.057  20.108   4.674
29299W        W88395  36.911  40.832  12.013
29300W        W88396  34.874  12.281  14.359
29301W        W88397  36.030   8.344   1.427
29302W        W88398   0.251  27.674   1.792
29303W        W88399  28.979  21.720  13.038
29304W        W88400  37.007  15.823  13.009
29305W        W88401  34.429   1.460  12.995
29306W        W88402   6.380  42.309   2.822
29307W        W88403  37.411  20.545  14.799
29308W        W88404  42.970  21.737  14.874
29309W        W88405  33.388  17.666  12.084
29310W        W88406  31.948  23.115  12.933
29311W        W88407  29.044  24.211  11.412
29312W        W88408  22.216   0.333   1.906
29313W        W88409  37.372   5.282   3.762
29314W        W88410  27.542  22.727   1.805
29315W        W88411  23.073  17.614  10.972
29316W        W88412   5.383  31.557  11.379
29317W        W88413  26.083   7.846  10.571
29318W        W88414  24.028  41.789  13.484
29319W        W88415  24.503  38.981  14.839
29320W        W88416   1.783  13.273  14.759
29321W        W88417   0.950  22.244  13.910
29322W        W88418   1.832  13.246   0.300
29323W        W88419  30.921  23.024   3.653
29324W        W88420  28.170   9.239  12.950
29325W        W88421  28.959  36.997  12.547
29326W        W88422   3.373  33.527   1.819
29327W        W88423  35.488  41.377   4.824
29328W        W88424   4.329  28.085  13.325
29329W        W88425  19.076  35.093  14.348
29330W        W88426  39.521   2.324   1.345
29331W        W88427  44.883  37.509  13.866
29332W        W88428  40.367   6.193   2.831
29333W        W88429   9.708   7.668   3.664
29334W        W88430   8.673  35.055   0.249
29335W        W88431  25.490   2.328   0.356
29336W        W88432  11.645  33.112   2.700
29337W        W88433  17.160  17.201  13.850
29338W        W88434  36.068   3.422  13.854
29339W        W88435  42.839  34.066   4.146
29340W        W88436  40.884  16.158   3.642
29341W        W88437  16.801  29.468   1.910
29342W        W88438   5.924  26.011   3.250
29343W        W88439  15.202   3.454   1.700
29344W        W88440  29.491   0.862   4.221
29345W        W88441  12.732  14.136   2.678
29346W        W88442  14.621  22.667  13.994
29347W        W88443  42.030  41.861   3.353
29348W        W88444  21.223  41.842   0.961
29349W        W88445  32.577  28.166   1.210
29350W        W88446   8.849  13.624  12.828
29351W        W88447  20.265   7.245   4.270
29352W        W88448  10.820   2.797   0.319
29353W        W88449  31.998  38.328   0.443
29354W        W88450  33.109  19.676  14.327
29355W        W88451  35.543  26.557  11.092
29356W        W88452  19.722  38.507  12.372
29357W        W88453   8.398  19.130  13.814
29358W        W88454  42.998  33.453   1.811
29359W        W88455  25.629  41.505  14.993
29360W        W88456  30.989  27.141  13.996
29361W        W88457   6.822  17.067   2.199
29362W        W88458  29.444  39.046  14.764
29363W        W88459  39.821  17.142  12.403
29364W        W88460  31.993  41.384  11.902
29365W        W88461  23.525  37.963  12.933
29366W        W88462  43.352  13.683   2.206
29367W        W88463   6.901  42.993  11.523
29368W        W88464  16.703  33.896  14.761
29369W        W88465  39.935  21.171  11.458
29370W        W88466  30.959  35.019  11.098
29371W        W88467  24.693  38.561   0.831
29372W        W88468  10.691   2.247   3.680
29373W        W88469  31.444   3.312   2.324
29374W        W88470  37.903  33.893   2.376
29375W        W88471   7.414   6.867   2.378
29376W        W88472  26.196  32.536  11.880
29377W        W88473  42.432   5.226  11.056
29378W        W88474   3.847  44.263   3.235
29379W        W88475   2.279  31.011  12.941
29380W        W88476  35.853  18.656  11.091
29381W        W88477  35.503  13.664  14.350
29382W        W88478  39.994  27.515  13.043
29383W        W88479  13.175  22.059  13.948
29384W        W88480  32.946  23.490  14.402
29385W        W88481  15.775  12.666   2.735
29386W        W88482   4.205  14.237   4.213
29387W        W88483  12.151  17.263  13.334
29388W        W88484  21.210   5.244   4.740
29389W        W88485  24.487  16.104   4.305
29390W        W88486  18.748  26.058   3.684
29391W        W88487  14.170   9.321   4.339
29392W        W88488   1.885  20.656   0.308
29393W        W88489  23.991  22.094  10.966
29394W        W88490  38.433  43.458   2.710
29395W        W88491  14.731  41.410  13.908
29396W        W88492  18.221  18.736   1.917
29397W        W88493  14.210  38.903   4.749
29398W        W88494  27.624  34.583   1.713
29399W        W88495  11.316  14.697  14.288
29400W        W88496  31.564  40.439   4.306
29401W        W88497  29.165  11.306   0.960
29402W        W88498  22.069  24.125  14.846
29403W        W88499  44.838  15.753  12.397
29404W        W88500   5.233  36.504   0.464
29405W        W88501  11.193  21.100   4.184
29406W        W88502  29.587  26.169  14.794
29407W        W88503  28.654   8.791  14.857
29408W        W88504  15.628  40.939  11.041
29409W        W88505  38.934  28.453   3.668
29410W        W88506  30.938  18.091   3.218
29411W        W88507  37.341  29.570  11.597
29412W        W88508  39.398  42.513  13.339
29413W        W88509  24.226  42.361   4.198
29414W        W88510  37.905  31.968   0.278
29415W        W88511  29.501  14.141   4.817
29416W        W88512  21.603  21.082   9.997
29417W        W88513   0.275  40.899   2.703
29418W        W88514  31.134  21.623   0.759
29419W        W88515  44.299  42.332   5.228
29420W        W88516  41.842  33.076   0.367
29421W        W88517  42.823   5.825  12.508
29422W        W88518   5.402  26.522  11.596
29423W        W88519  19.606  13.293  13.955
29424W        W88520  15.812   0.269  10.902
29425W        W88521  33.544  31.026  12.556
29426W        W88522   8.359  23.694  13.009
29427W        W88523  11.327  40.311   4.289
29428W        W88524  25.010   1.288  14.353
29429W        W88525  12.258   6.887  13.852
29430W        W88526   8.355  43.370  14.420
29431W        W88527  24.719   5.412  12.467
29432W        W88528  29.484  36.516   1.398
29433W        W88529  25.652  14.679  11.396
29434W        W88530  17.800  38.829  13.850
29435W        W88531  41.905  33.380  13.307
29436W        W88532  33.903  30.479   0.387
29437W        W88533  31.965   8.729   4.773
29438W        W88534   4.799  44.877   3.278
29439W        W88535  36.470  43.401  14.832
29440W        W88536  25.152  23.220  10.503
29441W        W88537  22.561  21.053  14.793
29442W        W88538  34.009  12.747   2.719
29443W        W88539  37.954  20.190   1.223
29444W        W88540   0.816  34.552   3.203
29445W        W88541   3.722  26.627   2.897
29446W        W88542  23.998   3.377   5.319
29447W        W88543  39.901  35.055  14.965
29448W        W88544  14.820   6.796   4.770
29449W        W88545  42.840  21.226   1.906
29450W        W88546  44.938  39.997  11.967
29451W        W88547  30.161  29.976  13.495
29452W        W88548  33.535  13.333   1.364
29453W        W88549   8.673   3.785  13.012
29454W        W88550   9.878  32.088   9.475
29455W        W88551  16.128  23.685   3.758
29456W        W88552  25.547  32.435  14.491
29457W        W88553  20.568  31.558   2.742
29458W        W88554  38.468  21.578  14.925
29459W        W88555  38.850  41.299   4.767
29460W        W88556  21.036  16.757  14.947
29461W        W88557  37.931  34.031   1.766
29462W        W88558   4.942  34.938  12.475
29463W        W88559  24.552   3.215   1.788
29464W        W88560   0.940   7.831   2.700
29465W        W88561  14.238  22.152   0.928
29466W        W88562  31.949  17.591   4.317
29467W        W88563   4.441   6.766  12.053
29468W        W88564   7.365  26.034   2.807
29469W        W88565  41.413   7.862  12.476
29470W        W88566  30.976   4.837  11.483
29471W        W88567  27.665  42.422   2.269
29472W        W88568  17.773  16.075  12.966
29473W        W88569  32.096  33.015  11.539
29474W        W88570  23.721   4.242   0.943
29475W        W88571  26.991  19.250   9.569
29476W        W88572  32.053  43.362  12.927
29477W        W88573  24.575  28.650  14.506
29478W        W88574   7.741   5.400  11.108
29479W        W88575  23.677  17.300   2.231
29480W        W88576  26.093   7.763   4.138
29481W        W88577  29.546  17.152  14.029
29482W        W88578   1.941  27.013  11.003
29483W        W88579  33.957  29.946  14.446
29484W        W88580   9.222  26.972   4.756
29485W        W88581  28.067  44.273   2.224
29486W        W88582  41.482  14.257  13.542
29487W        W88583  29.612  40.837  14.871
29488W        W88584  41.380  37.076   3.291
29489W        W88585  20.558  36.530   9.579
29490W        W88586   9.292   8.667   4.206
29491W        W88587   1.344  23.551  14.443
29492W        W88588  26.974  19.242   2.325
29493W        W88589  36.551  11.815  12.428
29494W        W88590   8.725  44.811  11.433
29495W        W88591  18.590  15.106   2.401
29496W        W88592  42.986   6.862   2.861
29497W        W88593  22.716  20.681   0.812
29498W        W88594  27.558  25.470  13.322
29499W        W88595  43.359  20.703   4.143
29500W        W88596  33.019   0.381   3.805
29501W        W88597  10.796   4.871  13.383
29502W        W88598  36.032  19.083   1.348
29503W        W88599  17.199  44.936   3.673
29504W        W88600  20.579  14.306  12.386
29505W        W88601  24.535   1.259  11.584
29506W        W88602  32.513   0.973  14.484
29507W        W88603   6.236  17.180  14.464
29508W        W88604  37.072   9.303  14.780
29509W        W88605  13.343  32.138   1.385
29510W        W88606  23.197  27.689   3.668
29511W        W88607  39.008   8.331   2.685
29512W        W88608  13.217  15.195  14.366
29513W        W88609   8.754   8.734   4.774
29514W        W88610  32.941  24.571   2.215
29515W        W88611  13.295   2.921  14.427
29516W        W88612   3.257   4.712   0.937
29517W        W88613  40.007  16.659   0.768
29518W        W88614  24.022  24.114  10.937
29519W        W88615  24.117  26.955  13.052
29520W        W88616  29.050  21.050  10.065
29521W        W88617  27.010   5.740  14.837
29522W        W88618  11.168   1.837  12.528
29523W        W88619  19.268  23.128   0.307
29524W        W88620  17.599  10.257  11.936
29525W        W88621  41.410  33.973  11.572
29526W        W88622  20.060  25.054   1.260
29527W        W88623  11.258  34.966  13.314
29528W        W88624  11.195  15.113   1.698
29529W        W88625  18.742  15.714  10.957
29530W        W88626  41.859   7.724  10.431
29531W        W88627  24.697  38.820  13.451
29532W        W88628  40.507  36.425   0.847
29533W        W88629  29.162  14.730  10.429
29534W        W88630   5.858  28.020  11.975
29535W        W88631  33.505  17.591  11.075
29536W        W88632  38.866  34.872  11.375
29537W        W88633  26.195   4.712  11.894
29538W        W88634  16.317  35.011   4.328
29539W        W88635  17.660  15.674  10.912
29540W        W88636  12.744  30.597   0.336
29541W        W88637  16.580  23.711  14.978
29542W        W88638  15.736  41.482   4.680
29543W        W88639   1.773  21.641  10.492
29544W        W88640   6.184  37.533   2.844
29545W        W88641  40.902  26.070   4.710
29546W        W88642  41.893  32.616   0.908
29547W        W88643  41.950  29.028   3.766
29548W        W88644  44.840  27.614  14.418
29549W        W88645  34.931  11.134   2.345
29550W        W88646  32.585   8.162  12.527
29551W        W88647  44.002  25.208  11.079
29552W        W88648  11.349   5.322   1.218
29553W        W88649  10.728  14.751  14.956
29554W        W88650  17.236   8.860  11.921
29555W        W88651  16.807  41.303   3.350
29556W        W88652  37.397  31.955  13.989
29557W        W88653  13.680  40.469  14.278
29558W        W88654  13.273  29.018   3.332
29559W        W88655   6.718  27.058  10.571
29560W        W88656  16.654  11.143  13.961
29561W        W88657  33.569  29.469  14.334
29562W        W88658   9.285   7.670   1.708
29563W        W88659  28.117   2.906   4.680
29564W        W88660  36.505  22.112  11.977
29565W        W88661  10.188  34.012   3.829
29566W        W88662  22.201   5.303  14.805
29567W        W88663  22.022   3.809  10.893
29568W        W88664  38.483  23.075   1.256
29569W        W88665  17.652  12.238   0.789
29570W        W88666  16.709  28.566   2.232
29571W        W88667  44.472  39.959  12.976
29572W        W88668  39.501   7.767   0.733
29573W        W88669  20.083   7.173  12.967
29574W        W88670  20.066  34.568   3.309
29575W        W88671  31.581  16.624  13.964
29576W        W88672   4.860  33.893  12.411
29577W        W88673  13.776  19.238  10.963
29578W        W88674  44.934   1.742  13.024
29579W        W88675   7.247  26.970   3.166
29580W        W88676  30.562  33.880   0.342
29581W        W88677  26.522  19.121  11.951
29582W        W88678  18.053  42.025   3.374
29583W        W88679  32.957  23.550  13.878
29584W        W88680  43.779  20.059  14.416
29585W        W88681  10.858   0.975   0.260
29586W        W88682  10.810  29.428   9.590
29587W        W88683  26.093  25.678   3.249
29588W        W88684  31.092   0.770   1.869
29589W        W88685  20.667  22.203  10.919
29590W        W88686  41.890  21.184  11.125
29591W        W88687  35.444  39.950   0.791
29592W        W88688  42.389  17.138   1.855
29593W        W88689  12.197  29.491   2.699
29594W        W88690  30.018  36.030  11.957
29595W        W88691   8.250  34.946  14.795
29596W        W88692  31.912  20.550   4.238
29597W        W88693  32.505   0.438  12.969
29598W        W88694   0.462  24.174   0.370
29599W        W88695   4.803  40.801   0.766
29600W        W88696  15.773  23.559  10.920
29601W        W88697  12.355  28.157  11.608
29602W        W88698   8.891   7.819  11.389
29603W        W88699  20.117  11.725   0.346
29604W        W88700   9.778  15.781  12.469
29605W        W88701  18.715  20.691   0.282
29606W        W88702  18.210  21.231   1.931
29607W        W88703   8.886  24.008  13.955
29608W        W88704  29.426  20.076   0.398
29609W        W88705  27.162  15.649   2.267
29610W        W88706  41.530  38.002   1.843
29611W        W88707  26.137   9.816   2.668
29612W        W88708  37.857   9.796   2.817
29613W        W88709   1.949  21.753   2.863
29614W        W88710  40.527  13.242  12.905
29615W        W88711  24.627  39.897   0.841
29616W        W88712  44.303  34.564  10.980
29617W        W88713  24.094  28.129   1.368
29618W        W88714  16.265  44.504   0.758
29619W        W88715  12.183   0.892   1.731
29620W        W88716  38.327  43.937   3.708
29621W        W88717   8.190  11.732   1.802
29622W        W88718  18.580  27.480  13.832
29623W        W88719  21.651   3.732  12.344
29624W        W88720  31.091  20.674  10.976
29625W        W88721  42.808   3.452   2.740
29626W        W88722  19.583  38.510  11.427
29627W        W88723  40.486   7.297   3.788
29628W        W88724  38.022  23.029   2.903
29629W        W88725  30.038  44.494  13.988
29630W        W88726  20.709  27.975   3.838
29631W        W88727  35.072  25.578   2.852
29632W        W88728  22.167  14.761  14.389
29633W        W88729   7.743  34.107   0.363
29634W        W88730   3.737   0.957   4.310
29635W        W88731  19.774   2.458   1.891
29636W        W88732  19.194  35.532   1.450
29637W        W88733  18.608  20.627  12.410
29638W        W88734  11.256  36.478  12.865
29639W        W88735  13.108  28.033   1.314
29640W        W88736  22.101   0.801   1.354
29641W        W88737  32.917  30.624   4.203
29642W        W88738   1.468  44.311   3.740
29643W        W88739  43.324  26.001   3.859
29644W        W88740  27.531  18.768  12.557
29645W        W88741  31.424  13.789   1.851
29646W        W88742  37.359  36.033  13.855
29647W        W88743  30.443  32.442   3.153
29648W        W88744  27.550   8.705   5.158
29649W        W88745  13.798  36.592  14.381
29650W        W88746  21.623  43.766  11.959
29651W        W88747  42.800  21.587   4.603
29652W        W88748   7.405  10.251  11.593
29653W        W88749   3.874   4.895  13.913
29654W        W88750  44.939  24.521  12.030
29655W        W88751  33.988  40.447  10.551
29656W        W88752  11.247  10.673   2.322
29657W        W88753  43.995   7.703   4.632
29658W        W88754  31.477  18.632   3.810
29659W        W88755  13.790  24.505   4.699
29660W        W88756  30.527  10.307   1.261
29661W        W88757  12.748  34.461  14.795
29662W        W88758  31.932  43.337   2.712
29663W        W88759   8.228  36.854  14.486
29664W        W88760  15.173  22.511   4.749
29665W        W88761  10.849  14.143   4.755
29666W        W88762  35.578  21.167   3.704
29667W        W88763  17.619   2.472   3.210
29668W        W88764  36.058  11.191   4.802
29669W        W88765  21.576   6.809   3.663
29670W        W88766  13.257  10.329  11.929
29671W        W88767  17.184  17.786  12.946
29672W        W88768  19.729   0.358   3.149
29673W        W88769  33.973  10.829   2.903
29674W        W88770  28.166  26.082  13.356
29675W        W88771  12.273  13.241   2.409
29676W        W88772   8.218  28.016  13.968
29677W        W88773  32.930  26.464  11.436
29678W        W88774  14.592  41.330  10.624
29679W        W88775  19.673  40.482   3.303
29680W        W88776  18.753  40.364  13.864
29681W        W88777  15.701  36.423  11.417
29682W        W88778  37.967  22.232  13.908
29683W        W88779   9.693   1.409   0.784
29684W        W88780  44.000  27.564  14.407
29685W        W88781  30.139   9.201  12.917
29686W        W88782  15.738  26.154   3.185
29687W        W88783  18.753  26.111   1.357
29688W        W88784   3.831  41.020   2.205
29689W        W88785  20.170  24.985  12.831
29690W        W88786  14.706  17.589   4.142
29691W        W88787  41.037  26.012  13.310
29692W        W88788   9.715  10.278   3.168
29693W        W88789  27.182  13.253   4.682
29694W        W88790  10.693  11.361   2.300
29695W        W88791  21.047  35.504  11.009
29696W        W88792  35.973  31.582  14.312
29697W        W88793  41.411   9.256  14.291
29698W        W88794  36.072  19.686   3.293
29699W        W88795   8.874  15.259  13.521
29700W        W88796  16.258  33.895   3.860
29701W        W88797  38.845  22.732   9.956
29702W        W88798  33.966  24.188   2.261
29703W        W88799  23.621  43.959  11.861
29704W        W88800  32.403  23.201  10.988
29705W        W88801  33.057  15.324  14.490
29706W        W88802  20.089  11.257  11.570
29707W        W88803  11.777   9.648  11.074
29708W        W88804  39.933  18.588   1.800
29709W        W88805  17.716  10.863  11.049
29710W        W88806   8.178   1.353   2.219
29711W        W88807  21.239  42.951   3.700
29712W        W88808  19.702  30.496  14.882
29713W        W88809  20.114  30.087   4.274
29714W        W88810  28.984  40.956   0.354
29715W        W88811  28.508  23.549   1.822
29716W        W88812  13.202  25.622  11.881
29717W        W88813  43.434   1.745  12.517
29718W        W88814  25.606  39.342   0.783
29719W        W88815  22.538   7.813  10.645
29720W        W88816   7.302  19.766  14.327
29721W        W88817  27.179   0.283  14.788
29722W        W88818   7.696  30.913  11.084
29723W        W88819  23.567  32.122  13.383
29724W        W88820  16.182   9.207   0.391
29725W        W88821  10.324   8.862  13.956
29726W        W88822  38.870  18.102   4.185
29727W        W88823  44.762  38.349   2.705
29728W        W88824  11.307  16.720  11.421
29729W        W88825  22.587  31.115  11.543
29730W        W88826   5.928  16.585  11.995
29731W        W88827  26.983   0.968  12.953
29732W        W88828  17.591   8.397  14.515
29733W        W88829  44.890  12.679  11.572
29734W        W88830  25.590  16.653   0.816
29735W        W88831  33.538  28.638   2.181
29736W        W88832  33.524  21.047   4.194
29737W        W88833  21.721  30.051   0.321
29738W        W88834   1.787  26.665  14.428
29739W        W88835  39.335  31.595   0.921
29740W        W88836  44.497  15.223   0.331
29741W        W88837  38.551  29.554  11.942
29742W        W88838  42.503  18.281  14.018
29743W        W88839   2.854   4.243  12.482
29744W        W88840  30.019  14.282   3.193
29745W        W88841  44.333  21.226  13.916
29746W        W88842  26.673  32.024  11.586
29747W        W88843  38.558  16.137   1.913
29748W        W88844  13.725  29.451  12.838
29749W        W88845  22.013  16.573   4.122
29750W        W88846  29.524  25.082  11.596
29751W        W88847  16.176  18.057  11.967
29752W        W88848  29.043   5.311  14.387
29753W        W88849   1.756  30.438   3.674
29754W        W88850  32.452   8.243   3.777
29755W        W88851  28.600  38.437   3.745
29756W        W88852  17.748   6.373  13.795
29757W        W88853   1.378  15.788   5.285
29758W        W88854  42.346  20.584  14.416
29759W        W88855  42.968  10.677   4.159
29760W        W88856   3.732  24.559   1.706
29761W        W88857  17.067  28.092  14.275
29762W        W88858  17.691  40.898   5.592
29763W        W88859  43.869  24.646   2.861
29764W        W88860  22.618  20.712  14.913
29765W        W88861  21.105  25.681   2.198
29766W        W88862  21.075  21.036   4.240
29767W        W88863  16.737  15.604  11.388
29768W        W88864  28.133  27.045  11.371
29769W        W88865  31.124  11.640   3.237
29770W        W88866  42.024   0.423  13.458
29771W        W88867  41.852  21.636  14.458
29772W        W88868  22.012  41.938   1.437
29773W        W88869  34.569  35.510   0.936
29774W        W88870   1.809  22.714  12.526
29775W        W88871  14.686  22.136   3.279
29776W        W88872   6.281  20.168   2.351
29777W        W88873   3.887  38.998   2.878
29778W        W88874  44.280  18.553   1.790
29779W        W88875  42.895  25.093   0.847
29780W        W88876  23.127  43.894  12.364
29781W        W88877  23.658  16.687   2.264
29782W        W88878  13.179   0.448  13.343
29783W        W88879  13.278  41.841  11.908
29784W        W88880  31.498  43.324  11.909
29785W        W88881  32.455  41.819   1.254
29786W        W88882  27.663  15.312   1.284
29787W        W88883   9.782  27.061  13.383
29788W        W88884   9.787  19.245   2.347
29789W        W88885  33.517  15.136   9.946
29790W        W88886   2.237  18.692  11.991
29791W        W88887  12.850  20.696  14.781
29792W        W88888  11.274  36.441   1.385
29793W        W88889  27.534   8.704   0.338
29794W        W88890  20.676  26.014  13.339
29795W        W88891  23.532  14.809  13.821
29796W        W88892  28.461  43.424  12.896
29797W        W88893  22.509  17.090   5.081
29798W        W88894   1.944  14.141  12.531
29799W        W88895  41.497   5.732  13.034
29800W        W88896  35.088  28.546  10.426
29801W        W88897   1.974  33.494  13.525
29802W        W88898   7.731  29.641   4.785
29803W        W88899   4.231  41.514   0.917
29804W        W88900  14.643   3.816  12.996
29805W        W88901  43.488  11.768  14.325
29806W        W88902  14.311   3.325  14.032
29807W        W88903  15.137  17.134   1.834
29808W        W88904   6.279  42.816  13.904
29809W        W88905  43.499  13.712  14.421
29810W        W88906  40.521   1.880  13.813
29811W        W88907  18.093  17.152   4.327
29812W        W88908   4.248  34.514  13.056
29813W        W88909  25.139  39.336   2.306
29814W        W88910   8.807  42.867   0.368
29815W        W88911  11.739  12.200   0.824
29816W        W88912  33.387  16.668   1.330
29817W        W88913  22.086  29.608  13.876
29818W        W88914   6.893   0.376   2.715
29819W        W88915  12.133  11.185   0.420
29820W        W88916  16.107  34.994  11.509
29821W        W88917   4.709  30.917   1.755
29822W        W88918  24.103  36.912  12.533
29823W        W88919   2.867  34.013  13.429
29824W        W88920  18.175  39.830   1.920
29825W        W88921  36.398  28.677  12.915
29826W        W88922   5.764   5.694   4.138
29827W        W88923  29.591   4.300   2.748
29828W        W88924  21.562  31.632  11.591
29829W        W88925   0.433  28.598   0.880
29830W        W88926  41.013  27.458  10.518
29831W        W88927  17.591  31.078  12.521
29832W        W88928  11.860   1.858  12.897
29833W        W88929  23.113  34.967   3.783
29834W        W88930  40.365  25.075   3.214
29835W        W88931  22.636  19.765   5.661
29836W        W88932   3.870  35.907   1.268
29837W        W88933  20.702   8.380   9.654
29838W        W88934   4.937  41.805   3.222
29839W        W88935  43.440  41.373  13.940
29840W        W88936  40.999  29.446  10.636
29841W        W88937  23.005  19.752  14.373
29842W        W88938  30.473  44.795  14.839
29843W        W88939   3.938  12.794   1.231
29844W        W88940  21.614  23.634   2.714
29845W        W88941   6.712  19.659   5.086
29846W        W88942   2.793  19.742   2.198
29847W        W88943  12.743  43.913   4.174
29848W        W88944   5.274  33.017  11.561
29849W        W88945   2.387  14.693  14.368
29850W        W88946  33.986   8.348   2.264
29851W        W88947  22.532  39.450  12.362
29852W        W88948  25.566  14.222   1.702
29853W        W88949   7.704  18.097   4.709
29854W        W88950  37.845  27.046   3.239
29855W        W88951   6.778  33.010   3.187
29856W        W88952  38.981  35.964  11.443
29857W        W88953  14.323  28.633   1.263
29858W        W88954  44.267  27.942  12.070
29859W        W88955  10.736  11.203   0.422
29860W        W88956  36.521  19.076   1.733
29861W        W88957  42.285  24.501  13.024
29862W        W88958   1.347  12.729  10.466
29863W        W88959   3.948   4.799  14.470
29864W        W88960  11.622  41.917  12.475
29865W        W88961  16.755  25.628  12.984
29866W        W88962  43.510  18.144   2.259
29867W        W88963  13.790   9.692  10.447
29868W        W88964  25.560  14.207   1.213
29869W        W88965  24.541  44.391   3.276
29870W        W88966  41.429  19.219   1.266
29871W        W88967   6.404   3.852   4.736
29872W        W88968   8.229  31.553   1.835
29873W        W88969  31.099  43.992   1.336
29874W        W88970   8.896   9.339   2.335
29875W        W88971  17.572  40.807  12.512
29876W        W88972  15.134  27.513  10.991
29877W        W88973  15.291  19.615  13.821
29878W        W88974  35.997   5.811   0.366
29879W        W88975   6.679  32.595   1.911
29880W        W88976  24.023  16.219   1.353
29881W        W88977  14.139   7.675   0.308
29882W        W88978  30.005  36.012   4.620
29883W        W88979   0.418  15.763   2.323
29884W        W88980   5.357  37.947  11.086
29885W        W88981   6.200  26.093  11.934
29886W        W88982  13.162  19.127  14.430
29887W        W88983  44.854  14.242  13.021
29888W        W88984  14.186  23.137   1.897
29889W        W88985  17.278  38.515   2.885
29890W        W88986  28.943  20.096   4.185
29891W        W88987  12.129  33.876  13.993
29892W        W88988   0.477  30.015   2.368
29893W        W88989   9.171  40.949   0.729
29894W        W88990  15.685  13.663  10.998
29895W        W88991  38.520  11.734  11.935
29896W        W88992  43.982  38.432  12.866
29897W        W88993  16.659  43.829  12.932
29898W        W88994  26.116   5.777  12.873
29899W        W88995   4.866  38.898   1.753
29900W        W88996  15.696  26.174   2.854
29901W        W88997   9.303  30.591   1.410
29902W        W88998   3.241  11.204  12.561
29903W        W88999  34.395  36.869   1.296
29904W        W89000  11.765   4.430  13.967
29905W        W89001  19.075  10.309  13.060
29906W        W89002  27.570  14.281  14.384
29907W        W89003  16.162  35.587  10.979
29908W        W89004  44.988  10.191  13.801
29909W        W89005  34.407  20.601   3.765
29910W        W89006  41.494  28.641  14.994
29911W        W89007  28.617  17.129  13.482
29912W        W89008  11.781  19.743  14.467
29913W        W89009   5.779  32.629   1.397
29914W        W89010  29.462   1.741  10.513
29915W        W89011  38.372  13.271   2.198
29916W        W89012  38.916  28.932  11.008
29917W        W89013   6.764  40.433  14.986
29918W        W89014   9.369  15.267  11.978
29919W        W89015   3.821  35.598   3.268
29920W        W89016  11.362  44.895   1.440
29921W        W89017  35.998  39.045  13.321
29922W        W89018  18.288  37.866   2.832
29923W        W89019  35.553  29.614  14.300
29924W        W89020   8.301   8.820   2.859
29925W        W89021  20.072  36.849  12.967
29926W        W89022  24.715  11.164  12.924
29927W        W89023  23.558  11.134  12.936
29928W        W89024  16.626  16.254   1.342
29929W        W89025  35.929  31.427   0.395
29930W        W89026  17.133  14.785   1.401
29931W        W89027  42.519  35.081   3.209
29932W        W89028  38.438  21.686  12.542
29933W        W89029  35.920  13.284  13.800
29934W        W89030  44.861  27.187   4.339
29935W        W89031  41.408  10.829   0.399
29936W        W89032  12.216  37.062  11.866
29937W        W89033  11.763   2.339  10.966
29938W        W89034  43.394  17.296   4.286
29939W        W89035  17.643   7.849  11.097
29940W        W89036  15.101  33.042   3.778
29941W        W89037  44.923  31.073  10.407
29942W        W89038  42.883   7.877   3.153
29943W        W89039   9.880   4.417  12.893
29944W        W89040  41.336  17.801   3.186
29945W        W89041  23.221  27.046  12.949
29946W        W89042  44.899  36.425  12.482
29947W        W89043  23.576  16.756   4.737
29948W        W89044   5.852  19.652   0.823
29949W        W89045  39.439  29.129  10.954
29950W        W89046  37.998  20.615   1.449
29951W        W89047  44.922   1.871   5.227
29952W        W89048   2.834  37.917   4.336
29953W        W89049  37.563  31.491  13.344
29954W        W89050   7.368  14.134  12.872
29955W        W89051  29.638   0.807   4.744
29956W        W89052  27.565  20.656   4.206
29957W        W89053   6.810  14.327  13.864
29958W        W89054   4.885  26.102   5.317
29959W        W89055  13.176  35.568  11.074
29960W        W89056  16.699  15.750  10.567
29961W        W89057  33.501  36.020   1.420
29962W        W89058  11.693   7.188  13.904
29963W        W89059  35.476  30.540  13.417
29964W        W89060  32.009   5.824  14.943
29965W        W89061   4.703   4.846   0.852
29966W        W89062  24.085  15.785   1.921
29967W        W89063   8.391  43.341   4.135
29968W        W89064  12.706  24.680   0.876
29969W        W89065   9.799  14.266   2.193
29970W        W89066  38.908  10.801  13.528
29971W        W89067  30.978  24.112   0.271
29972W        W89068  23.998   1.884  10.612
29973W        W89069  23.669   2.241  13.925
29974W        W89070  30.990  12.752   2.756
29975W        W89071   6.833  13.631  14.886
29976W        W89072   2.280  10.259  12.565
29977W        W89073  22.660  26.571  11.996
29978W        W89074  34.447  16.741  13.819
29979W        W89075  14.232  14.694  14.009
29980W        W89076  32.560   9.394   4.772
29981W        W89077   2.810  32.096   0.428
29982W        W89078  41.942  17.266  11.104
29983W        W89079  35.000  44.413  11.069
29984W        W89080  28.644  35.420   2.853
29985W        W89081   8.765  33.423   5.264
29986W        W89082  25.141  38.939  12.071
29987W        W89083  20.088   3.885   4.781
29988W        W89084  13.303  10.241  11.445
29989W        W89085  12.804  27.117  12.523
29990W        W89086  24.028   1.733   1.797
29991W        W89087  20.576  15.196  13.809
29992W        W89088  28.665  18.101   1.880
29993W        W89089  16.308  33.396  14.378
29994W        W89090   1.777  38.955  11.583
29995W        W89091  23.009  40.831  13.825
29996W        W89092  17.302  39.935  12.401
29997W        W89093  18.682  19.108  12.987
29998W        W89094   2.922  44.861   3.282
29999W        W89095  36.953  33.977  10.549
30000W        W89096  21.558  43.414  13.019
30001W        W89097  27.618   6.873   0.246
30002W        W89098  17.200  28.164  12.011
30003W        W89099  42.502  32.123   4.218
30004W        W89100   5.744  32.978  12.035
30005W        W89101  37.945  37.832  13.887
30006W        W89102  33.035   0.401   3.332
30007W        W89103   5.274  40.829   4.235
30008W        W89104  30.556  39.005  11.078
30009W        W89105  31.014  12.644  13.533
30010W        W89106  20.054   2.353  13.858
30011W        W89107  38.886  32.585   0.740
30012W        W89108  18.207  38.871  11.997
30013W        W89109  15.215  44.279  10.964
30014W        W89110  17.292  32.909   1.862
30015W        W89111   8.737  27.075   2.326
30016W        W89112   6.218  44.931  13.500
30017W        W89113   6.187  22.574  10.563
30018W        W89114  35.042  26.994  13.040
30019W        W89115  29.581  13.316   2.873
30020W        W89116  25.617  44.890  14.789
30021W        W89117  25.674   1.382   0.263
30022W        W89118  33.920  40.467   2.768
30023W        W89119  26.086  21.045  13.915
30024W        W89120  35.095  34.951  14.814
30025W        W89121   2.822  13.159  11.410
30026W        W89122  17.187  40.325   0.392
30027W        W89123  44.443  39.996  14.458
30028W        W89124   3.936   0.936   1.334
30029W        W89125  27.587   8.406   4.800
30030W        W89126  16.679  11.817  10.442
30031W        W89127  40.511  32.065  14.797
30032W        W89128  43.495  28.950   4.603
30033W        W89129  14.247  40.364   4.679
30034W        W89130  19.068  40.323  11.063
30035W        W89131  35.080   9.826  10.136
30036W        W89132  39.360  22.068  14.798
30037W        W89133  42.497  36.923   3.256
30038W        W89134  15.758   0.875   5.202
30039W        W89135  25.519  31.918   3.165
30040W        W89136  15.621  19.613   4.809
30041W        W89137  17.299  25.524  13.513
30042W        W89138  27.013   3.824   4.151
30043W        W89139  18.155  15.098   2.842
30044W        W89140  31.475  31.519   1.898
30045W        W89141  16.293  20.737  11.573
30046W        W89142  22.730  26.188   0.755
30047W        W89143  29.166  27.982   4.803
30048W        W89144  43.317  44.377   1.890
30049W        W89145  32.043   7.280   0.867
30050W        W89146  43.912  33.887   1.374
30051W        W89147  15.196  37.838   2.897
30052W        W89148   1.330  13.336   2.292
30053W        W89149  33.390  22.212   4.269
30054W        W89150   6.801   8.309  13.420
30055W        W89151  41.400  26.565  12.446
30056W        W89152   1.972  20.258   3.149
30057W        W89153  26.119   5.798  14.778
30058W        W89154   3.859  36.940   0.428
30059W        W89155   7.293  32.004   1.721
30060W        W89156  43.952  11.358   1.398
30061W        W89157   9.197  43.883  10.636
30062W        W89158  35.016  18.180   0.291
30063W        W89159  14.272  39.905   3.312
30064W        W89160  38.887  29.975  10.927
30065W        W89161  42.356   6.736   0.962
30066W        W89162  17.148   1.478   0.745
30067W        W89163  30.142  37.919   2.271
30068W        W89164   4.229  32.514   1.788
30069W        W89165  26.958  10.781  10.997
30070W        W89166  20.112  44.797   0.876
30071W        W89167  41.968   3.805  12.466
30072W        W89168  40.962   8.166  11.498
30073W        W89169   7.722  37.425   0.450
30074W        W89170  28.668   6.880  13.532
30075W        W89171   8.251  22.559  12.061
30076W        W89172  11.790  11.186   0.274
30077W        W89173  25.996  43.961   2.387
30078W        W89174  21.092  33.551   4.177
30079W        W89175  14.749  40.848   1.218
30080W        W89176  40.842   7.721  12.899
30081W        W89177  18.776  35.379  13.499
30082W        W89178   9.741  34.895  12.573
30083W        W89179  16.627  29.547  11.967
30084W        W89180  21.637  10.830  14.987
30085W        W89181  38.389  39.556  14.798
30086W        W89182  44.381  24.079  13.341
30087W        W89183  34.100  31.152   3.668
30088W        W89184  27.075  38.991   1.900
30089W        W89185   1.886   8.222  12.066
30090W        W89186  10.711  17.167   2.183
30091W        W89187  13.833   6.312  10.597
30092W        W89188  22.708  15.751  14.895
30093W        W89189  22.549  22.743  11.532
30094W        W89190  28.133   5.392   4.659
30095W        W89191  11.864   3.307   4.277
30096W        W89192  31.609  19.115   3.808
30097W        W89193  28.647   2.754   1.258
30098W        W89194  29.639  26.601  11.089
30099W        W89195  38.356  31.409   0.827
30100W        W89196  30.416  16.719  12.551
30101W        W89197   7.417  20.569  13.910
30102W        W89198  36.012   3.373   4.624
30103W        W89199  18.255  15.265  13.862
30104W        W89200  15.315   8.381   4.251
30105W        W89201  42.406  41.367  12.831
30106W        W89202   9.880  39.056  11.543
30107W        W89203  22.197  15.579  11.593
30108W        W89204  18.242   5.845   2.181
30109W        W89205  38.329  27.151  14.319
30110W        W89206  13.615  43.865  11.965
30111W        W89207  18.628  24.558   2.769
30112W        W89208   6.860  22.200  11.448
30113W        W89209  37.543  27.540   3.777
30114W        W89210  29.574  36.028   2.278
30115W        W89211  14.813  40.833  11.584
30116W        W89212   0.270   4.446  11.896
30117W        W89213  40.528  21.634  13.421
30118W        W89214  13.759  15.317  10.578
30119W        W89215  30.089  41.449  12.527
30120W        W89216  37.891   7.861  13.816
30121W        W89217  31.075  38.973   1.280
30122W        W89218  10.223  17.208   3.295
30123W        W89219  22.724  18.168   4.663
30124W        W89220  31.968  13.765   3.233
30125W        W89221  27.528  34.118   1.791
30126W        W89222  28.495   9.846  12.839
30127W        W89223   5.702  14.713  12.006
30128W        W89224  30.940  29.590  12.404
30129W        W89225  42.478  39.978  11.526
30130W        W89226   4.759   2.324   2.331
30131W        W89227  12.632  15.247  12.941
30132W        W89228  29.136  34.379   4.812
30133W        W89229  43.998  25.186  12.511
30134W        W89230  36.486  14.166   2.300
30135W        W89231  35.957  15.723   4.710
30136W        W89232   9.377  26.656  11.890
30137W        W89233  17.246   4.766  12.061
30138W        W89234  15.631   4.796   1.407
30139W        W89235  18.169  44.309  11.869
30140W        W89236  39.982  21.577  14.915
30141W        W89237  23.236  38.391   3.225
30142W        W89238  16.596  26.040   0.421
30143W        W89239  18.088  39.334   4.721
30144W        W89240  28.492   8.796   5.315
30145W        W89241  23.500  41.943  14.880
30146W        W89242  15.735  33.503  12.347
30147W        W89243  30.093   2.278  11.922
30148W        W89244  31.514  28.612   3.830
30149W        W89245  15.315  35.601  12.870
30150W        W89246  33.615   9.862   4.213
30151W        W89247   9.833  38.075   4.655
30152W        W89248  29.143  39.949  10.576
30153W        W89249  15.115  39.900  14.388
30154W        W89250  12.236  27.540   0.743
30155W        W89251  24.191   6.319   1.263
30156W        W89252  28.499  31.095   0.875
30157W        W89253  12.791   6.191  12.059
30158W        W89254  27.968  43.978   2.750
30159W        W89255  43.479  18.677   1.400
30160W        W89256  17.240   3.870   3.843
30161W        W89257  32.494   5.829   2.898
30162W        W89258  12.808  29.566  14.933
30163W        W89259  19.053  28.152  11.026
30164W        W89260  36.992   2.770   3.652
30165W        W89261  40.492  26.622  13.415
30166W        W89262  12.633  40.943  12.503
30167W        W89263  19.608   7.343   1.235
30168W        W89264  13.110  23.684  13.475
30169W        W89265  20.130  11.837   4.720
30170W        W89266  38.024   9.211   2.669
30171W        W89267  33.101   7.214   4.231
30172W        W89268   2.813  31.069   0.812
30173W        W89269  19.096   3.952   1.315
30174W        W89270  27.117   3.850   2.277
30175W        W89271  41.963  14.771  12.422
30176W        W89272  41.351  35.098  12.938
30177W        W89273  29.506  34.509  12.413
30178W        W89274   0.487   9.383   2.868
30179W        W89275   4.767   7.295   2.845
30180W        W89276  27.653  30.928  11.561
30181W        W89277  23.635  25.083   3.341
30182W        W89278  25.119  31.923  13.331
30183W        W89279  34.105   4.418   3.348
30184W        W89280  33.514  38.515  14.441
30185W        W89281   3.306  32.465   3.182
30186W        W89282   6.261  10.376   1.697
30187W        W89283  42.847  10.856   3.865
30188W        W89284  29.647  31.939  12.531
30189W        W89285  38.053  37.998  10.556
30190W        W89286  10.854   8.815   1.351
30191W        W89287  36.489  25.147  11.900
30192W        W89288  17.755  36.970  13.314
30193W        W89289  24.104   9.793  14.375
30194W        W89290  31.954  14.252   0.938
30195W        W89291  20.733   5.710   3.220
30196W        W89292  31.112  12.198  11.472
30197W        W89293  37.880  41.314   4.621
30198W        W89294   1.768  21.173   2.351
30199W        W89295  38.447  31.114  12.404
30200W        W89296  25.604  41.003   3.323
30201W        W89297  31.130  42.010   4.616
30202W        W89298  37.918  37.067  12.995
30203W        W89299   8.728  23.179   0.823
30204W        W89300  21.027  38.823   2.346
30205W        W89301  39.022  32.481   0.406
30206W        W89302  38.456  17.262   3.726
30207W        W89303  44.844  17.275  10.953
30208W        W89304  26.079  20.687   1.932
30209W        W89305  20.630  29.003   4.183
30210W        W89306  20.252  10.818   4.732
30211W        W89307  34.514  21.639   0.907
30212W        W89308   3.311  35.538  13.466
30213W        W89309  37.448  28.131  14.002
30214W        W89310  15.116   2.448   0.449
30215W        W89311  23.501  19.621   1.417
30216W        W89312  20.527  19.053   0.396
30217W        W89313   4.343  24.708  11.120
30218W        W89314  36.062  13.243   0.322
30219W        W89315   6.836  13.640   1.338
30220W        W89316  26.462  17.732  12.858
30221W        W89317  17.080  38.970  12.535
30222W        W89318   6.359  29.435  13.539
30223W        W89319  16.182  15.172   2.774
30224W        W89320  44.932  32.466  11.571
30225W        W89321   1.291  34.946  12.033
30226W        W89322  15.745  30.049  13.430
30227W        W89323  16.572  14.108   2.760
30228W        W89324   5.723   1.748  13.031
30229W        W89325   6.828  28.574  11.061
30230W        W89326   3.361  28.991   4.269
30231W        W89327  42.424   3.719   1.793
30232W        W89328   3.805  16.765  12.425
30233W        W89329  13.225  25.212   0.424
30234W        W89330   5.298  26.952  13.494
30235W        W89331  43.287  43.463   2.779
30236W        W89332  33.895  44.993  13.366
30237W        W89333  35.973  23.643   2.199
30238W        W89334  32.904  28.633  11.454
30239W        W89335  14.700  17.267  14.281
30240W        W89336   4.279  12.795  12.845
30241W        W89337  16.215  21.582  13.807
30242W        W89338   8.338  18.094  10.988
30243W        W89339   5.742   0.988  10.967
30244W        W89340  14.608   6.738  14.858
30245W        W89341  19.180  11.238  12.876
30246W        W89342  27.172  36.392  13.467
30247W        W89343  15.725  13.333  14.433
30248W        W89344   0.837   4.712   1.819
30249W        W89345  21.079  19.636  14.854
30250W        W89346   9.790  27.665   1.865
30251W        W89347   0.947  33.521  10.923
30252W        W89348  35.460  12.704   3.661
30253W        W89349   0.892   1.899  13.855
30254W        W89350  44.849  12.690  13.958
30255W        W89351  20.037  34.888   3.180
30256W        W89352  32.928  22.131   5.788
30257W        W89353   3.745  15.692   1.248
30258W        W89354  28.638   4.775  11.417
30259W        W89355   3.330  36.976   3.233
30260W        W89356   9.775  42.939   0.406
30261W        W89357   2.288  36.522   1.769
30262W        W89358  14.724  36.437   3.178
30263W        W89359   2.887  17.238   2.317
30264W        W89360   1.845  42.435   4.284
30265W        W89361   0.313  19.052   3.789
30266W        W89362   9.745  15.308   4.190
30267W        W89363  40.892   8.838   2.288
30268W        W89364  14.262  14.816   4.793
30269W        W89365   8.264  21.649   3.784
30270W        W89366  24.081  19.691   1.376
30271W        W89367  21.134  18.217  12.433
30272W        W89368  22.565  33.561  10.952
30273W        W89369  27.950  44.494  11.904
30274W        W89370  20.756  19.744  12.446
30275W        W89371  38.383  23.500  13.466
30276W        W89372  19.057   3.713  13.864
30277W        W89373  17.680   1.966  13.045
30278W        W89374   0.251  22.243  13.446
30279W        W89375  15.104  30.466   3.187
30280W        W89376   4.722  17.098   4.116
30281W        W89377  27.565  22.538   0.479
30282W        W89378  40.990   5.369   4.635
30283W        W89379  20.233   1.433   2.715
30284W        W89380   1.929  16.602   4.748
30285W        W89381  11.233  28.969  13.820
30286W        W89382   8.326   8.363   2.720
30287W        W89383  22.530  11.693  11.377
30288W        W89384  40.385   0.971  12.011
30289W        W89385  33.450  11.149  13.503
30290W        W89386  38.486  24.605   1.709
30291W        W89387   2.799  15.722   4.253
30292W        W89388   4.364  40.812  14.919
30293W        W89389  12.248  11.287   1.795
30294W        W89390  10.196  39.030  14.001
30295W        W89391  33.433  10.826  13.398
30296W        W89392  44.770  44.505   0.940
30297W        W89393  12.292  23.716  11.507
30298W        W89394  18.623   6.402  12.432
30299W        W89395  27.167  11.730  12.565
30300W        W89396   8.229  18.585  13.960
30301W        W89397   2.451  14.742   2.877
30302W        W89398  41.006   1.971   1.862
30303W        W89399   1.798  40.821  13.792
30304W        W89400  15.783  19.657  11.081
30305W        W89401  26.968  39.466  13.473
30306W        W89402  28.509  28.057   1.771
30307W        W89403  10.774  21.261  11.081
30308W        W89404   3.225   2.967  12.844
30309W        W89405  42.908  42.465   0.871
30310W        W89406  30.068  23.133  11.070
30311W        W89407   0.836  20.575   2.784
30312W        W89408  37.489  26.193  12.039
30313W        W89409  13.212  12.839  11.874
30314W        W89410  14.247  16.647  13.918
30315W        W89411  22.524  38.561  10.470
30316W        W89412  44.486   7.828  14.980
30317W        W89413  11.232  11.723   1.312
30318W        W89414  21.242  31.418  11.908
30319W        W89415   2.790  23.081   0.756
30320W        W89416  25.153   1.886  11.105
30321W        W89417  18.190  35.571  11.956
30322W        W89418  15.610  11.138  13.432
30323W        W89419  18.203  31.058   3.219
30324W        W89420  27.149  31.415  13.828
30325W        W89421   2.430  22.581   3.301
30326W        W89422   9.726   3.737  14.828
30327W        W89423  16.675  29.500   4.301
30328W        W89424  22.040  16.711  13.042
30329W        W89425   9.833  14.792   0.267
30330W        W89426  10.658  18.136  12.389
30331W        W89427  41.030  43.959  11.918
30332W        W89428  41.999  14.713   2.238
30333W        W89429  44.001  29.118  13.447
30334W        W89430  35.019   5.754   0.399
30335W        W89431  15.693  10.724  12.913
30336W        W89432   2.886  33.110  10.473
30337W        W89433  13.154   5.744   3.345
30338W        W89434   1.757   9.202  11.560
30339W        W89435  10.183  33.977  12.496
30340W        W89436   6.691  41.310   4.289
30341W        W89437  17.710  37.509  13.915
30342W        W89438  10.284  32.424   0.296
30343W        W89439  26.107   5.823   1.919
30344W        W89440  30.008   0.884   3.328
30345W        W89441  39.371  44.822   2.290
30346W        W89442   9.353   8.667  12.852
30347W        W89443  19.661   8.335  14.000
30348W        W89444  16.681   4.801   0.944
30349W        W89445   3.789   7.170  12.849
30350W        W89446  11.250  42.788   5.157
30351W        W89447  43.270  43.845   2.391
30352W        W89448  27.041  30.609   2.882
30353W        W89449  27.106  31.955  12.931
30354W        W89450  34.600  27.517   3.817
30355W        W89451  41.908  26.140   3.327
30356W        W89452   3.753  10.171  13.996
30357W        W89453   9.233  24.172  11.424
30358W        W89454  32.594  34.882  10.937
30359W        W89455  37.876  41.484   3.762
30360W        W89456  37.513  25.975  12.988
30361W        W89457   8.184  19.212  12.893
30362W        W89458  27.981  40.932   3.254
30363W        W89459  38.929  42.798  13.421
30364W        W89460  44.385   0.268  11.981
30365W        W89461  24.094  27.512   4.259
30366W        W89462  33.073  43.875   4.189
30367W        W89463  34.547  24.490   1.290
30368W        W89464   6.258  17.269   4.163
30369W        W89465   1.895  30.955  14.936
30370W        W89466   3.732   0.841   2.680
30371W        W89467  24.652  44.268  13.337
30372W        W89468   0.454   9.320  12.439
30373W        W89469  17.731  10.798   2.872
30374W        W89470  37.523   3.806  13.949
30375W        W89471   4.710  19.205  12.961
30376W        W89472  36.046  14.688   2.362
30377W        W89473   0.913   0.481  11.076
30378W        W89474   4.775  44.398   9.928
30379W        W89475  19.606  23.559  10.953
30380W        W89476  10.178  28.934  12.084
30381W        W89477  14.317  24.027   3.194
30382W        W89478  29.580  29.510   4.246
30383W        W89479   3.782  20.723  10.404
30384W        W89480   1.479  25.549  11.065
30385W        W89481  31.899  40.493   5.306
30386W        W89482  43.984  11.151   1.761
30387W        W89483  14.736   9.790  12.901
30388W        W89484  25.714  23.706  14.386
30389W        W89485  35.890  19.658   2.841
30390W        W89486   7.189  36.576   3.809
30391W        W89487   1.947  26.694   2.823
30392W        W89488  31.498  17.281  11.869
30393W        W89489  21.740   1.785  13.318
30394W        W89490   4.755  12.254  14.968
30395W        W89491   9.347  12.743   1.289
30396W        W89492   2.463   9.244   0.917
30397W        W89493   6.208  31.933  13.005
30398W        W89494  44.292  20.045   0.955
30399W        W89495  41.923  34.022   3.380
30400W        W89496  43.798  29.526   3.670
30401W        W89497   6.838  39.045   1.382
30402W        W89498  29.529  34.915   2.413
30403W        W89499  31.514   4.415  13.905
30404W        W89500  37.020  13.263   4.333
30405W        W89501   8.243  39.360   3.377
30406W        W89502  24.187  28.937  10.526
30407W        W89503  35.562   5.226  13.445
30408W        W89504   3.401  29.985  12.019
30409W        W89505  42.821   5.236  10.568
30410W        W89506   9.745  13.211  13.507
30411W        W89507  43.331  17.199  12.409
30412W        W89508  25.679  39.978   2.410
30413W        W89509  27.591   2.912  14.387
30414W        W89510  42.923  23.145   2.247
30415W        W89511   9.337  40.915  13.007
30416W        W89512  26.206  16.677   5.792
30417W        W89513   1.312  13.294   0.909
30418W        W89514  22.043  10.690  10.563
30419W        W89515  38.326   5.703  14.980
30420W        W89516  14.162  32.412  11.012
30421W        W89517  13.343  35.070  14.880
30422W        W89518  22.121   1.748  13.954
30423W        W89519   0.292  37.353  13.464
30424W        W89520   6.720  19.261   3.803
30425W        W89521  16.647  16.795   0.957
30426W        W89522   5.746   1.751  13.407
30427W        W89523  39.878  44.959  11.564
30428W        W89524  21.166   2.827  14.307
30429W        W89525  32.013  30.081  11.871
30430W        W89526  24.702  18.722   9.635
30431W        W89527   4.444  17.077  13.420
30432W        W89528  34.542  10.835  12.388
30433W        W89529  22.094   8.739   0.749
30434W        W89530  33.476   2.727   3.815
30435W        W89531  37.408   4.809  13.325
30436W        W89532   3.392  25.089   2.876
30437W        W89533  28.557  24.193   3.691
30438W        W89534  31.935  42.968   0.342
30439W        W89535   4.291  16.640  14.996
30440W        W89536   8.711  39.521   1.420
30441W        W89537   2.766  12.205  12.406
30442W        W89538   1.474  35.413   0.310
30443W        W89539  18.705  25.165   3.319
30444W        W89540   3.925  39.374   3.721
30445W        W89541   3.367  27.590   1.441
30446W        W89542  25.625  17.151   4.343
30447W        W89543  33.037   6.831  10.437
30448W        W89544   5.825  12.167   2.763
30449W        W89545  41.974   5.776  14.393
30450W        W89546  42.860   3.377   1.716
30451W        W89547  35.100  43.363  13.797
30452W        W89548  29.429  31.971  14.422
30453W        W89549  23.147   9.882   2.292
30454W        W89550  28.671  29.990  14.450
30455W        W89551  39.009  34.422  12.024
30456W        W89552  18.176  22.059  12.360
30457W        W89553   8.731  10.857   0.323
30458W        W89554   1.469  41.510  10.491
30459W        W89555  30.020  42.965   0.321
30460W        W89556  18.585  11.686   4.292
30461W        W89557  44.962  42.422   4.757
30462W        W89558  18.159  28.512   0.751
30463W        W89559   7.910   2.900   1.763
30464W        W89560  31.005  36.869  12.023
30465W        W89561   2.378  43.366   2.862
30466W        W89562  33.887  33.970   2.180
30467W        W89563  42.416   4.807   2.220
30468W        W89564  30.910  34.525  13.452
30469W        W89565  32.038  18.143  12.033
30470W        W89566  33.127  22.071  14.303
30471W        W89567  37.539  17.235  12.481
30472W        W89568  26.475  34.464  12.484
30473W        W89569  23.078  19.285   3.794
30474W        W89570  15.224  17.078  13.360
30475W        W89571  26.506  21.731  12.028
30476W        W89572   8.365  27.073  12.360
30477W        W89573   6.403  11.773   4.128
30478W        W89574  24.567  43.943  11.541
30479W        W89575  24.705   2.439  14.839
30480W        W89576  11.822  19.246  13.931
30481W        W89577  11.734  16.733  14.950
30482W        W89578  28.663  36.462   2.285
30483W        W89579  40.849   5.212  14.484
30484W        W89580  32.418  27.031  12.422
30485W        W89581  16.718  12.786   1.450
30486W        W89582  10.182  42.874  13.843
30487W        W89583  44.494  15.627  10.638
30488W        W89584  32.507  26.629   4.614
30489W        W89585  42.884  10.774   0.937
30490W        W89586   3.353  17.106   3.869
30491W        W89587  42.016  38.336  14.380
30492W        W89588   2.922  40.355   0.857
30493W        W89589  41.877  23.035   0.269
30494W        W89590  11.863   1.359   2.867
30495W        W89591  40.495  30.595  13.329
30496W        W89592  34.918  44.478   3.717
30497W        W89593  19.728  39.948   4.834
30498W        W89594  24.004  14.245   0.924
30499W        W89595   0.387  31.148   1.769
30500W        W89596   0.397  39.022   3.817
30501W        W89597  11.724  42.307  13.307
30502W        W89598   3.215  19.188  11.398
30503W        W89599  11.733  34.104   3.216
30504W        W89600  40.849  38.020   1.717
30505W        W89601  38.944   3.840  12.038
30506W        W89602   9.167  13.119   3.305
30507W        W89603  33.384  17.112  14.360
30508W        W89604  35.044  14.708   2.280
30509W        W89605  29.168  26.459   5.223
30510W        W89606   5.775  18.758  14.029
30511W        W89607  26.639  15.088   9.934
30512W        W89608  40.487   8.343   2.750
30513W        W89609   7.361  14.796  12.029
30514W        W89610   4.821   6.817  14.818
30515W        W89611  13.731  12.694  13.333
30516W        W89612  35.036  43.774   3.199
30517W        W89613   1.427  31.415  13.315
30518W        W89614  44.455   5.750  14.514
30519W        W89615  43.879   3.882   2.891
30520W        W89616   2.893  44.847  14.939
30521W        W89617  24.005  42.834   3.818
30522W        W89618  19.600   6.838   1.921
30523W        W89619  40.977  38.506  14.292
30524W        W89620  44.962  37.338  12.001
30525W        W89621  38.520  22.027   3.179
30526W        W89622   8.211  36.588   3.316
30527W        W89623  16.763  36.446  14.908
30528W        W89624   4.793  21.215  14.929
30529W        W89625   4.233  43.272  14.458
30530W        W89626  17.189  33.892  11.486
30531W        W89627  10.710  16.151  14.920
30532W        W89628  35.550  24.009  10.557
30533W        W89629  14.832  26.985  13.921
30534W        W89630  26.138  28.610   1.723
30535W        W89631  10.377  29.494  13.533
30536W        W89632  13.338  12.795  13.852
30537W        W89633  10.648  18.073  13.937
30538W        W89634  23.116  31.639   1.216
30539W        W89635  36.564  44.432   2.896
30540W        W89636  23.192  28.017   2.290
30541W        W89637   3.306   1.359   2.755
30542W        W89638   6.305  13.688  13.826
30543W        W89639   4.862  16.760   9.938
30544W        W89640  27.152  39.052   2.663
30545W        W89641  30.515  39.881  14.310
30546W        W89642  41.358   1.469  14.488
30547W        W89643  29.975  13.641   3.724
30548W        W89644  35.500  17.666   3.634
30549W        W89645   3.436  17.229  12.563
30550W        W89646  39.904   1.770   4.206
30551W        W89647   2.354  27.659  14.503
30552W        W89648  28.664  44.428   3.781
30553W        W89649   6.889   5.202  12.983
30554W        W89650  44.943  20.700  11.524
30555W        W89651  30.572  35.573   1.841
30556W        W89652  44.372  22.192   3.290
30557W        W89653  36.437  39.420   3.871
30558W        W89654  34.587  17.095  12.839
30559W        W89655  23.714   6.244  11.096
30560W        W89656   1.319  10.867  14.431
30561W        W89657  30.986  39.854  13.343
30562W        W89658   1.803  40.442  11.378
30563W        W89659  32.035   8.189  12.507
30564W        W89660  42.803  13.615   3.745
30565W        W89661  37.372  13.725  13.421
30566W        W89662  28.670  38.531   0.277
30567W        W89663   5.701   4.264   3.348
30568W        W89664  12.181   9.798   1.299
30569W        W89665  14.324  39.024   3.223
30570W        W89666  36.548  26.966  12.827
30571W        W89667   3.719  41.974  11.998
30572W        W89668  36.455  32.059   1.827
30573W        W89669  10.270  21.091  11.518
30574W        W89670   3.912  14.232   3.153
30575W        W89671   5.895  28.567   1.714
30576W        W89672  21.657   8.271  14.416
30577W        W89673  28.534  20.712   5.122
30578W        W89674  36.484  33.117  14.841
30579W        W89675   9.383  22.248   2.886
30580W        W89676  17.191  21.683   3.302
30581W        W89677  40.347   2.312   4.319
30582W        W89678  32.133  23.127   3.754
30583W        W89679  30.495  34.464   0.314
30584W        W89680   2.355   6.866  13.860
30585W        W89681   0.818   9.761   4.626
30586W        W89682  23.502  29.537   1.805
30587W        W89683  17.271  11.133  11.950
30588W        W89684  13.259   8.320  11.423
30589W        W89685   1.443  30.426  14.845
30590W        W89686  18.629  32.515   2.754
30591W        W89687   0.255  10.369   2.283
30592W        W89688  20.759  17.650  14.440
30593W        W89689  21.673  40.503  13.899
30594W        W89690  44.910  29.569  11.888
30595W        W89691  15.626  38.498   2.708
30596W        W89692  33.129  37.444   4.207
30597W        W89693  33.042   9.161  14.404
30598W        W89694   3.257   6.185   4.189
30599W        W89695  33.500  30.998  13.438
30600W        W89696  33.985  21.154  13.331
30601W        W89697  36.447  30.143  12.026
30602W        W89698  33.619   9.878  13.998
30603W        W89699  12.217  26.092  10.531
30604W        W89700   4.369  32.927   2.788
30605W        W89701  38.498  37.834  14.307
30606W        W89702  37.571  44.977  11.884
30607W        W89703  38.403  23.984   0.333
30608W        W89704  37.369   7.823  11.446
30609W        W89705  16.711  39.887   1.299
30610W        W89706   5.842  31.620   2.320
30611W        W89707  15.327  44.993  14.030
30612W        W89708  20.673   3.926  14.424
30613W        W89709  36.543  18.148   0.727
30614W        W89710  36.365  16.623  13.447
30615W        W89711  41.973  18.654  13.311
30616W        W89712  29.034  29.034  10.571
30617W        W89713  27.035  40.033   2.402
30618W        W89714  33.600   7.881  14.898
30619W        W89715  30.644  37.083  14.877
30620W        W89716  14.127  29.554   2.246
30621W        W89717  42.957  34.911  13.357
30622W        W89718  33.596  25.970   1.808
30623W        W89719  36.852  27.673  10.923
30624W        W89720  40.991  12.165   9.633
30625W        W89721  18.674  25.028   3.867
30626W        W89722  21.726  19.765  12.904
30627W        W89723   2.457  17.236  10.942
30628W        W89724   3.939  18.294  11.441
30629W        W89725  29.583  10.257   3.190
30630W        W89726  12.647  29.956   0.917
30631W        W89727  10.168   0.917   1.396
30632W        W89728  26.042  18.681  12.991
30633W        W89729   8.836  15.193  12.490
30634W        W89730  42.841  39.458   4.176
30635W        W89731  30.607  13.282  14.354
30636W        W89732  14.186   7.261   2.791
30637W        W89733  14.827  33.056   2.763
30638W        W89734  25.508  35.903  14.995
30639W        W89735   2.738   8.400   1.707
30640W        W89736  29.919  33.557  10.525
30641W        W89737  43.297  31.489   0.282
30642W        W89738  43.816   4.731  11.034
30643W        W89739  37.390  33.939  14.026
30644W        W89740  17.240   2.793   4.269
30645W        W89741  17.106   4.401  11.371
30646W        W89742  20.659  28.984   4.658
30647W        W89743  24.981  44.877   3.768
30648W        W89744  29.603  15.297   4.183
30649W        W89745   5.233   8.310  13.507
30650W        W89746  44.852  20.553   1.277
30651W        W89747  22.574  25.524   3.382
30652W        W89748  43.920  28.176  14.384
30653W        W89749   0.780  27.484  14.967
30654W        W89750  13.638  23.231  10.911
30655W        W89751  36.024   4.414  10.637
30656W        W89752  22.239  21.086  14.866
30657W        W89753  28.656  29.522   0.276
30658W        W89754  37.936  18.646  13.007
30659W        W89755  25.186  18.156   5.736
30660W        W89756  18.566  38.994  10.024
30661W        W89757  42.449  36.919  13.508
30662W        W89758  43.946   2.301   2.193
30663W        W89759  41.389  44.903   4.234
30664W        W89760  42.977   7.719  10.456
30665W        W89761   7.775  25.128   1.420
30666W        W89762  13.343  25.573   2.800
30667W        W89763  24.724  25.534   4.627
30668W        W89764  30.616  21.153  12.838
30669W        W89765  38.522  40.044  14.908
30670W        W89766  21.232   6.692  11.465
30671W        W89767  16.688  35.086  13.967
30672W        W89768  17.786  28.630   4.264
30673W        W89769  12.246  11.146  10.938
30674W        W89770   7.690  36.430  11.973
30675W        W89771   2.281  20.557  12.561
30676W        W89772  16.227  16.589   4.803
30677W        W89773  15.742  40.440   2.669
30678W        W89774   0.408  22.575  12.930
30679W        W89775  21.606  32.401  12.420
30680W        W89776   6.876  30.139  13.488
30681W        W89777   4.869  31.026  11.430
30682W        W89778   1.364   6.848  10.542
30683W        W89779  41.373  14.290  10.522
30684W        W89780  24.576   3.246   1.422
30685W        W89781  23.558  17.308  12.580
30686W        W89782  38.325  31.005   2.273
30687W        W89783   3.905  38.978   3.710
30688W        W89784  43.773   1.361  14.997
30689W        W89785  17.140  19.138   4.284
30690W        W89786  28.174   5.312  12.058
30691W        W89787  24.500   5.829   4.172
30692W        W89788   1.291  34.018  11.109
30693W        W89789  18.774  22.180   3.755
30694W        W89790  21.690  28.473  12.516
30695W        W89791   6.400  18.083   4.221
30696W        W89792  24.042  15.323  12.874
30697W        W89793  16.176  23.674  14.959
30698W        W89794   1.260   2.791   1.327
30699W        W89795  39.458  31.076  13.319
30700W        W89796  26.496   6.267   3.332
30701W        W89797  35.929  16.810   1.833
30702W        W89798  24.491  13.328  11.059
30703W        W89799  35.055  38.837  13.937
30704W        W89800  11.213   1.955  12.000
30705W        W89801  24.079   9.333  11.954
30706W        W89802  43.301  36.009  12.371
30707W        W89803  31.992   8.880   0.308
30708W        W89804   6.286  36.546   4.265
30709W        W89805  32.390  43.910  14.337
30710W        W89806   2.909   8.679  12.010
30711W        W89807   0.323  17.117   2.230
30712W        W89808  29.536  28.523  13.505
30713W        W89809  27.543  10.876   4.673
30714W        W89810  41.921  26.587   3.854
30715W        W89811  14.099  26.134  11.378
30716W        W89812  19.600  12.787  10.523
30717W        W89813  43.773  33.061  14.870
30718W        W89814  35.067  42.831   0.456
30719W        W89815   4.938  40.883  12.572
30720W        W89816  30.539   1.789  10.938
30721W        W89817   7.238   4.405  13.440
30722W        W89818  32.056  33.551   4.827
30723W        W89819   2.382  44.816   1.288
30724W        W89820  42.848  43.506   2.755
30725W        W89821  36.549   7.188  14.380
30726W        W89822  38.891  29.451  11.935
30727W        W89823  26.054  27.629  11.883
30728W        W89824  23.153  17.291  11.106
30729W        W89825  32.111  30.018   1.322
30730W        W89826   5.865  39.470  13.487
30731W        W89827  18.116  13.796   0.871
30732W        W89828   1.976  10.803   3.866
30733W        W89829  29.137  23.039   4.270
30734W        W89830  39.004  31.095  14.885
30735W        W89831  33.876  38.334   1.852
30736W        W89832   9.223  37.850  14.407
30737W        W89833   9.805  24.544   5.302
30738W        W89834  23.227   0.966   0.762
30739W        W89835  11.713  24.515  13.413
30740W        W89836  12.714  38.901   2.744
30741W        W89837  25.479  12.618  11.077
30742W        W89838   4.876  13.274   5.223
30743W        W89839  32.518   2.350  14.798
30744W        W89840  16.809   7.683   3.193
30745W        W89841  28.493  13.267   3.176
30746W        W89842  28.611  18.624   1.768
30747W        W89843  31.572  25.673  10.620
30748W        W89844  44.829  13.626   2.327
30749W        W89845  32.619   8.795  11.483
30750W        W89846   8.176  23.037   3.269
30751W        W89847  35.093  37.582   3.682
30752W        W89848  23.084  28.970  12.535
30753W        W89849  34.890  13.113  10.934
30754W        W89850  43.274  25.490   1.908
30755W        W89851  19.715  11.707   3.791
30756W        W89852   6.796  22.241   1.903
30757W        W89853  21.678   4.742  12.909
30758W        W89854  33.065  22.250  10.106
30759W        W89855  40.313  21.103   1.309
30760W        W89856   9.770   5.195   1.434
30761W        W89857  28.083  37.349   9.976
30762W        W89858  41.988  24.518  14.761
30763W        W89859  14.835  34.520   0.297
30764W        W89860  34.494  13.165   3.258
30765W        W89861   3.419  11.280   4.323
30766W        W89862  43.510  24.989   5.236
30767W        W89863  38.069   9.205  10.500
30768W        W89864  40.382  32.513  11.373
30769W        W89865   2.771  33.112   2.228
30770W        W89866  14.263  40.807  13.435
30771W        W89867  32.468   4.294  10.516
30772W        W89868  21.631  42.513   0.403
30773W        W89869  41.382  43.790   3.262
30774W        W89870  37.897   7.811  14.930
30775W        W89871  34.073  22.216  12.488
30776W        W89872  29.462   5.276  14.968
30777W        W89873   7.264  16.798  14.993
30778W        W89874  16.590  25.196   4.333
30779W        W89875  38.966  28.145  14.831
30780W        W89876  15.114   1.480   0.930
30781W        W89877  28.951  32.110  14.833
30782W        W89878  16.678   9.189   5.670
30783W        W89879  39.361  37.410  14.792
30784W        W89880   6.267  21.164   0.379
30785W        W89881   2.462  13.344   2.688
30786W        W89882   0.885  32.627  13.801
30787W        W89883  31.509   9.859  11.562
30788W        W89884   7.201  24.665   3.259
30789W        W89885  16.662  36.865   1.808
30790W        W89886  18.232  19.579   4.747
30791W        W89887  40.398  39.509  10.937
30792W        W89888  36.022  15.159  12.530
30793W        W89889  37.898   2.802   1.726
30794W        W89890  28.557  13.685   0.408
30795W        W89891   7.696  19.091   4.275
30796W        W89892  16.125   7.309   2.894
30797W        W89893  19.657   7.268  12.378
30798W        W89894  28.445  36.933  12.884
30799W        W89895  27.114  38.465   0.836
30800W        W89896  40.328   6.700  10.993
30801W        W89897   2.779  16.182   0.456
30802W        W89898  38.490  21.547  13.814
30803W        W89899  34.385   7.737   4.144
30804W        W89900  35.462  11.785   3.739
30805W        W89901  13.784  32.577   0.447
30806W        W89902  33.493   3.834   2.877
30807W        W89903   8.719  18.755   3.759
30808W        W89904  36.369  25.111  14.398
30809W        W89905  42.017  10.871  14.911
30810W        W89906  38.382  16.232   0.955
30811W        W89907  13.620  19.176   3.818
30812W        W89908  30.088  11.748  12.511
30813W        W89909  24.069   0.487  10.473
30814W        W89910  38.529  19.607   3.760
30815W        W89911  27.624  37.057   0.826
30816W        W89912  27.500  24.026   3.263
30817W        W89913  41.034  37.531  13.468
30818W        W89914  19.140   1.477   4.157
30819W        W89915  28.604  42.841   3.729
30820W        W89916   0.781  23.076  13.442
30821W        W89917  25.211   7.694  14.274
30822W        W89918  24.037   5.401   0.361
30823W        W89919  35.072  10.154  12.373
30824W        W89920  17.157   5.431   4.819
30825W        W89921  33.508  27.128  13.995
30826W        W89922  10.206   3.294  12.431
30827W        W89923  11.768  23.716   4.153
30828W        W89924  44.465  36.375  12.056
30829W        W89925  25.076  21.578   4.312
30830W        W89926  30.649  20.047   0.359
30831W        W89927  34.002  19.684  10.592
30832W        W89928  17.677  17.204   3.237
30833W        W89929  41.309  43.296  10.586
30834W        W89930  16.173  24.118  13.035
30835W        W89931  40.996  27.940  12.510
30836W        W89932  28.120   0.746  14.393
30837W        W89933   3.927  32.001   3.337
30838W        W89934  13.177  38.427  10.944
30839W        W89935  28.525  42.952   2.306
30840W        W89936  16.147  13.666  13.043
30841W        W89937  21.696  30.132  10.985
30842W        W89938  44.369   2.337   1.795
30843W        W89939  39.015  27.051  13.021
30844W        W89940  19.092   8.280   3.816
30845W        W89941  44.870  24.503   2.795
30846W        W89942  19.152  29.041  13.930
30847W        W89943  39.333  20.589   1.798
30848W        W89944  15.171  36.983   1.321
30849W        W89945   5.223  13.295   2.409
30850W        W89946  35.451  15.097  10.033
30851W        W89947  12.664  44.375  13.308
30852W        W89948  20.085   8.816  14.317
30853W        W89949  11.134  37.409   3.869
30854W        W89950  36.548  38.046  10.888
30855W        W89951  31.641  19.603  13.397
30856W        W89952  25.540  13.693  11.061
30857W        W89953  10.249  28.552   3.688
30858W        W89954  37.990  21.066  13.900
30859W        W89955  18.180  36.031  12.509
30860W        W89956  21.661   0.845  13.983
30861W        W89957  26.071   6.842   0.833
30862W        W89958  36.998   4.246  10.914
30863W        W89959  14.158  13.703  11.928
30864W        W89960   4.392  37.996  10.408
30865W        W89961  29.617  32.473  10.888
30866W        W89962  14.662   1.291  11.434
30867W        W89963  36.875   7.296  12.056
30868W        W89964  14.768   6.744  13.516
30869W        W89965   3.429   7.346  14.296
30870W        W89966   2.840  34.402  12.891
30871W        W89967  35.985   9.738  12.353
30872W        W89968  40.888  35.577   4.239
30873W        W89969  36.481  25.076   1.744
30874W        W89970   8.315  21.738  11.594
30875W        W89971  17.237   1.481   3.670
30876W        W89972  19.244  27.190   2.373
30877W        W89973  31.492   8.753   3.803
30878W        W89974  21.054  11.170   0.781
30879W        W89975  20.129  33.590   2.369
30880W        W89976  34.069  36.885   2.268
30881W        W89977   6.922  34.532  12.448
30882W        W89978  33.919   9.359  12.055
30883W        W89979  29.933   7.790  14.833
30884W        W89980  34.015  30.433  13.535
30885W        W89981   8.246   9.701  11.564
30886W        W89982  17.628   2.826  14.503
30887W        W89983  43.430  38.836   4.175
30888W        W89984   4.886  38.386  10.913
30889W        W89985  24.214  10.168  14.463
30890W        W89986   3.814  24.685   1.221
30891W        W89987   3.405  32.493  11.087
30892W        W89988  13.702  20.683  13.452
30893W        W89989  18.079  17.663   3.248
30894W        W89990  41.511  22.708   1.852
30895W        W89991   1.774  41.320   3.206
30896W        W89992  42.495  39.829   1.413
30897W        W89993  24.194  43.979  10.500
30898W        W89994  39.333  14.277  12.531
30899W        W89995   2.789  23.050  14.938
30900W        W89996  33.500  28.481   1.877
30901W        W89997  28.131  20.136  14.869
30902W        W89998  36.372   2.455   3.168
30903W        W89999  32.607  40.019   3.837
30904W        W90000  31.454   6.249  11.375
30905W        W90001   4.384  18.194   0.813
30906W        W90002   0.772  32.540   2.267
30907W        W90003  18.184  11.691   1.710
30908W        W90004  28.067   4.373   2.815
30909W        W90005  32.575  20.174  12.874
30910W        W90006  12.319  32.517  11.524
30911W        W90007  34.551  17.068  10.940
30912W        W90008  35.868  39.421  12.486
30913W        W90009  33.466   9.811  14.357
30914W        W90010   5.817  40.430   4.734
30915W        W90011   5.781  15.757  10.603
30916W        W90012   4.940  10.382  11.484
30917W        W90013  18.573  42.969  11.989
30918W        W90014   4.363  32.090  13.456
30919W        W90015   7.666  11.359  13.464
30920W        W90016  34.544   8.892   4.655
30921W        W90017  12.254  43.769  14.970
30922W        W90018   1.816  22.131   3.782
30923W        W90019  20.533  33.986   0.939
30924W        W90020   1.369  32.985   2.355
30925W        W90021  44.389   0.470   4.123
30926W        W90022  31.919  42.429  14.824
30927W        W90023  20.218  14.829   1.731
30928W        W90024  10.792  11.657  11.047
30929W        W90025  31.525  15.141   4.648
30930W        W90026  20.542  34.006   4.136
30931W        W90027  10.256  30.416   2.692
30932W        W90028   7.253  27.107   5.675
30933W        W90029  11.626  10.783   2.748
30934W        W90030  30.594  14.726   2.355
30935W        W90031  14.771  35.544   3.834
30936W        W90032   1.857  44.502   4.669
30937W        W90033  23.029  30.077   1.844
30938W        W90034   9.202  20.761   4.619
30939W        W90035  16.160  35.401   1.751
30940W        W90036   9.212  38.002  14.859
30941W        W90037   0.459  35.934   3.834
30942W        W90038  23.612  10.713  11.089
30943W        W90039  33.616  27.970  14.473
30944W        W90040  34.066  24.042  14.803
30945W        W90041  31.025  36.538   2.685
30946W        W90042   9.721  33.398   4.683
30947W        W90043   6.828  34.998  14.812
30948W        W90044   5.221   9.381   3.677
30949W        W90045   2.942  23.028  10.897
30950W        W90046  13.806  34.516  14.927
30951W        W90047  16.601  19.760  12.473
30952W        W90048   7.170  15.584  10.962
30953W        W90049  11.213  41.857   3.341
30954W        W90050  14.177   3.730   3.357
30955W        W90051  37.488  17.191   1.311
30956W        W90052  33.542  28.571   0.300
30957W        W90053  30.114  34.895  11.099
30958W        W90054  18.164  16.792  12.525
30959W        W90055  36.965  25.704  13.865
30960W        W90056  42.357  27.130  12.368
30961W        W90057  36.957  15.190  12.001
30962W        W90058  41.850  28.140  11.548
30963W        W90059  38.921  44.782   2.396
30964W        W90060  14.167  11.686   2.689
30965W        W90061   3.347  42.316  13.486
30966W        W90062  34.110  32.997  13.515
30967W        W90063  38.525  35.403  12.391
30968W        W90064   5.795  32.595  12.860
30969W        W90065  12.261  12.831   2.887
30970W        W90066  19.118  31.501  12.913
30971W        W90067  25.976  21.536  14.866
30972W        W90068  22.721  33.039   4.161
30973W        W90069  34.432  44.449   0.354
30974W        W90070  19.594   8.251  14.353
30975W        W90071  39.485  15.259   3.253
30976W        W90072  18.124  42.364   4.128
30977W        W90073  11.863  16.186  11.531
30978W        W90074  26.163  28.931   3.284
30979W        W90075   3.371  43.984   3.660
30980W        W90076   8.263  37.860   1.764
30981W        W90077  43.815  22.082  13.024
30982W        W90078  43.496  19.558   3.322
30983W        W90079  22.221  12.237  12.020
30984W        W90080  17.065  20.064   0.361
30985W        W90081  32.022  15.191  14.861
30986W        W90082  35.856  26.630   9.625
30987W        W90083  30.416  30.527  12.053
30988W        W90084   5.705   2.464   0.768
30989W        W90085  23.123  20.691   5.692
30990W        W90086  41.306  18.297  11.601
30991W        W90087  12.635   5.885  11.862
30992W        W90088  30.113  26.108  13.886
30993W        W90089  20.141  31.503   1.694
30994W        W90090  22.733  30.011  14.317
30995W        W90091  14.321  27.518  13.814
30996W        W90092  17.090  23.985  13.050
30997W        W90093   3.245  41.420  12.371
30998W        W90094   1.416   0.864   3.679
30999W        W90095  44.323  13.699   3.256
31000W        W90096  44.434  39.983   5.119
31001W        W90097   4.718  23.196  12.384
31002W        W90098  13.717  44.484   1.451
31003W        W90099  10.860  15.705  13.396
31004W        W90100  39.884  44.329   1.342
31005W        W90101  30.657  14.748  12.030
31006W        W90102  37.477  25.000   4.805
31007W        W90103  18.083   5.326   2.664
31008W        W90104  26.173  27.175  12.526
31009W        W90105  20.185   5.295  10.595
31010W        W90106  28.048  34.404  12.036
31011W        W90107   1.926  23.060  12.087
31012W        W90108  24.626  23.524   4.673
31013W        W90109  37.352  41.365   4.664
31014W        W90110  20.694   1.288   4.294
31015W        W90111  22.650  19.764   1.935
31016W        W90112   9.247  23.734   3.729
31017W        W90113   6.303  26.541  11.423
31018W        W90114   3.847  20.031  11.415
31019W        W90115  36.461   4.213   1.776
31020W        W90116   0.392  23.228  11.550
31021W        W90117  35.391   9.303  13.886
31022W        W90118  37.935  43.768  10.425
31023W        W90119   7.909  44.841   4.634
31024W        W90120  12.668   7.200  13.800
31025W        W90121  20.679   5.830  12.398
31026W        W90122  11.734  22.174   4.622
31027W        W90123  43.466  10.347   3.367
31028W        W90124  41.323   2.314   0.828
31029W        W90125  44.362  26.550   2.853
31030W        W90126  20.177  37.437  14.427
31031W        W90127  30.085   2.769   4.838
31032W        W90128   7.875  35.094   2.761
31033W        W90129  26.593  12.773   3.211
31034W        W90130  13.130  18.081   0.783
31035W        W90131  18.126  36.556   2.240
31036W        W90132  22.691  39.974   2.412
31037W        W90133  16.172  42.349   4.254
31038W        W90134  29.922  38.385  12.962
31039W        W90135  14.184  34.527   2.848
31040W        W90136  32.990  21.578  12.002
31041W        W90137  12.809  28.483   5.152
31042W        W90138  20.526  31.902  11.406
31043W        W90139  21.744   8.350   2.348
31044W        W90140  44.935  35.576   3.643
31045W        W90141  23.170  41.899  14.456
31046W        W90142  10.353  42.815  12.047
31047W        W90143  43.776  36.919  13.052
31048W        W90144  39.046  33.417  13.029
31049W        W90145   4.814   9.802   1.400
31050W        W90146  35.412  14.828   2.752
31051W        W90147  10.360  21.746   1.214
31052W        W90148   8.752  33.996   2.406
31053W        W90149  42.308  29.143  12.874
31054W        W90150   2.230   3.741   4.688
31055W        W90151   3.843  38.535   0.729
31056W        W90152   9.727  18.750   1.308
31057W        W90153  36.375   9.231  13.539
31058W        W90154   8.291  22.163  10.406
31059W        W90155   8.899  25.495   5.271
31060W        W90156  24.016  13.294  13.474
31061W        W90157  22.642  39.834   1.297
31062W        W90158  19.760   6.378   5.161
31063W        W90159  18.096  18.601   0.325
31064W        W90160  43.294  38.386   0.898
31065W        W90161  39.351  39.053  13.533
31066W        W90162  12.741  41.926  13.547
31067W        W90163  28.996  18.664  10.439
31068W        W90164  21.684  39.064  10.978
31069W        W90165  26.986  14.700   1.866
31070W        W90166  22.585  22.695   0.955
31071W        W90167  20.674  19.212   4.802
31072W        W90168  12.249  44.446   3.266
31073W        W90169  38.030   3.820   2.375
31074W        W90170  13.252  23.159   0.407
31075W        W90171  26.180  31.054   3.356
31076W        W90172  24.596  14.323  10.916
31077W        W90173  39.371  26.604  12.400
31078W        W90174   7.753  14.096   2.279
31079W        W90175  34.575  30.474   3.714
31080W        W90176   1.756  42.865  14.902
31081W        W90177  42.850  17.729  11.488
31082W        W90178  41.435   9.816  11.378
31083W        W90179   1.965  29.074   1.813
31084W        W90180  23.704  41.887   4.135
31085W        W90181   8.899   0.264   1.334
31086W        W90182  15.216  39.927   3.279
31087W        W90183  24.513  16.772  10.939
31088W        W90184  37.898  36.950   0.831
31089W        W90185  31.112  26.964  10.908
31090W        W90186  29.005  34.559  13.846
31091W        W90187   4.868  40.536   3.208
31092W        W90188  10.186   9.250  13.891
31093W        W90189  44.493  10.255   1.410
31094W        W90190  39.323  22.081  14.417
31095W        W90191  12.116  26.088   5.685
31096W        W90192   2.270  29.644   1.789
31097W        W90193  36.361   8.759   4.679
31098W        W90194   2.766   5.307  10.530
31099W        W90195  37.936  19.763   3.775
31100W        W90196  30.959  12.771   1.420
31101W        W90197  21.650  25.505   4.738
31102W        W90198   3.366  35.010   0.844
31103W        W90199  29.172   0.844   4.324
31104W        W90200  20.184  42.940   2.744
31105W        W90201  16.173   0.314  12.353
31106W        W90202  43.790  39.514   2.677
31107W        W90203  15.139  13.703  11.931
31108W        W90204  41.495  36.095   0.463
31109W        W90205  33.575  36.535  14.833
31110W        W90206  30.090  41.968   3.172
31111W        W90207  40.479  13.826   2.179
31112W        W90208  32.588  23.089   1.399
31113W        W90209  40.948   7.406   0.456
31114W        W90210  15.795  32.474   2.277
31115W        W90211  22.074  26.105   3.324
31116W        W90212  40.386  39.360   0.289
31117W        W90213  18.690  21.512  13.355
31118W        W90214  28.173   2.768   2.777
31119W        W90215  40.938  13.248   0.252
31120W        W90216  44.951  36.052   1.716
31121W        W90217  19.094  29.998  12.865
31122W        W90218   4.755  12.307   4.740
31123W        W90219  23.643  39.028   1.806
31124W        W90220  20.089  19.284  14.503
31125W        W90221  18.119  21.684  11.906
31126W        W90222  35.049  44.808   0.819
31127W        W90223  16.688  16.115   2.318
31128W        W90224   7.263  18.790   1.713
31129W        W90225  16.620  33.578  11.483
31130W        W90226   9.157  37.924  11.388
31131W        W90227  18.564  39.003   9.672
31132W        W90228  16.183   0.940   4.815
31133W        W90229  29.550  16.733   2.829
31134W        W90230  19.732  37.998   3.685
31135W        W90231  11.701   7.285   3.183
31136W        W90232   8.751   5.803  11.575
31137W        W90233  33.613  26.078   1.275
31138W        W90234   2.784  26.591  13.018
31139W        W90235  22.632  28.968   1.351
31140W        W90236  12.290  29.652   0.786
31141W        W90237  30.043  17.260  13.875
31142W        W90238  28.963  26.135  10.110
31143W        W90239  13.633  11.814   1.342
31144W        W90240  43.877  23.533  14.940
31145W        W90241  16.126  23.668  14.329
31146W        W90242   8.189  44.291   2.265
31147W        W90243  12.117  41.980  10.493
31148W        W90244  30.907  20.263   4.334
31149W        W90245  13.321  28.179   0.813
31150W        W90246   9.672  16.777   1.758
31151W        W90247  26.587   7.762  11.460
31152W        W90248  30.141  37.524   1.703
31153W        W90249   0.918  16.104  10.595
31154W        W90250  22.117   1.416   0.390
31155W        W90251  44.944  35.037  11.587
31156W        W90252   4.860   3.322   1.928
31157W        W90253  19.090  18.630  13.452
31158W        W90254  38.568  21.687   2.669
31159W        W90255  11.789  23.524   3.149
31160W        W90256   7.871  29.003   1.758
31161W        W90257  12.150  16.165  13.344
31162W        W90258  14.799   4.773   3.752
31163W        W90259  32.046  17.129  13.324
31164W        W90260  43.363  35.444   0.950
31165W        W90261  28.102  14.201  10.991
31166W        W90262  26.640  39.834  11.379
31167W        W90263   1.937  19.681   3.148
31168W        W90264  35.990  27.533  12.038
31169W        W90265  19.579   6.253   9.979
31170W        W90266  43.778  13.252   2.785
31171W        W90267  22.532  39.330   0.453
31172W        W90268  42.875  31.562  12.031
31173W        W90269  11.193  43.333   4.215
31174W        W90270  38.351  11.739   2.749
31175W        W90271  42.843  11.205  11.440
31176W        W90272  30.042  38.950  10.147
31177W        W90273   8.243  20.160  12.562
31178W        W90274   1.855   5.235  14.344
31179W        W90275   9.304   8.721  10.087
31180W        W90276  11.201  23.546  13.967
31181W        W90277   1.741   3.746   0.797
31182W        W90278  21.710  15.775  11.573
31183W        W90279  22.007  14.721  14.956
31184W        W90280   5.298  36.856  11.424
31185W        W90281  39.828  10.811   5.762
31186W        W90282  12.683  44.938  12.850
31187W        W90283   3.258  24.580   5.086
31188W        W90284  42.016  13.232   1.216
31189W        W90285  40.522  24.091  13.032
31190W        W90286   9.241  26.631   0.851
31191W        W90287   2.817   0.395  11.041
31192W        W90288  41.923  20.714   1.889
31193W        W90289  33.626  36.905  13.956
31194W        W90290  26.597   3.219   1.926
31195W        W90291  20.160  34.438   4.233
31196W        W90292  34.471   0.988  11.425
31197W        W90293   4.858  38.373  11.554
31198W        W90294  36.440  20.593  13.970
31199W        W90295  34.577  17.594  14.782
31200W        W90296  23.203  14.216   2.784
31201W        W90297   3.780  28.545  14.281
31202W        W90298   2.429  43.308  12.427
31203W        W90299  17.745  34.487   3.167
31204W        W90300  24.043   6.266  14.874
31205W        W90301  39.818  18.762   4.296
31206W        W90302  41.013  10.214   3.314
31207W        W90303   4.378  19.151  13.956
31208W        W90304  43.342  42.018   2.902
31209W        W90305  13.272   1.260   0.784
31210W        W90306  20.736   9.296  11.435
31211W        W90307  29.596  11.238   2.780
31212W        W90308   2.453  21.650   4.644
31213W        W90309   8.897  27.611  11.535
31214W        W90310  30.162  43.884   3.183
31215W        W90311  29.978  24.676  12.558
31216W        W90312  18.778  26.496  12.019
31217W        W90313  30.931  26.128  11.497
31218W        W90314  39.388  24.651  12.418
31219W        W90315  12.161  35.107   1.864
31220W        W90316  10.852  22.736  13.455
31221W        W90317   8.267  14.142  14.311
31222W        W90318  41.850  30.110  12.375
31223W        W90319  23.063  34.886  14.494
31224W        W90320  22.042  24.720   4.689
31225W        W90321   9.192  38.971   4.803
31226W        W90322   6.843  37.385  11.046
31227W        W90323   7.825   9.643  11.521
31228W        W90324  13.741  39.422   1.296
31229W        W90325  33.092  21.704  13.985
31230W        W90326  17.116   1.760   4.275
31231W        W90327  32.051  34.024   0.787
31232W        W90328  29.149  33.463  12.827
31233W        W90329  26.549  29.556  13.484
31234W        W90330  33.065  17.749   5.239
31235W        W90331  28.440  23.734   3.237
31236W        W90332  17.704  28.503  14.860
31237W        W90333   6.833  25.612   0.894
31238W        W90334  20.702  19.255   3.642
31239W        W90335  44.991  39.840  11.076
31240W        W90336  29.426  39.008   3.257
31241W        W90337  20.251   1.867   3.762
31242W        W90338  44.370   7.413   0.954
31243W        W90339  30.633   8.274  13.896
31244W        W90340  21.728  27.963   0.479
31245W        W90341   0.480   6.753  10.485
31246W        W90342  34.378  42.906  12.481
31247W        W90343  20.646  33.128   4.684
31248W        W90344  33.934  26.125  12.530
31249W        W90345   2.236   8.203   1.862
31250W        W90346  44.427   5.820   0.276
31251W        W90347  34.115  36.497   2.385
31252W        W90348  32.565  30.575  14.022
31253W        W90349  33.538  11.832   1.817
31254W        W90350  12.293  24.567  13.548
31255W        W90351  19.249   2.799   2.378
31256W        W90352  32.421  14.770   4.205
31257W        W90353   0.985   2.945  11.588
31258W        W90354  18.233  26.091   3.831
31259W        W90355  44.381  17.774   0.769
31260W        W90356  34.882  20.573  13.021
31261W        W90357  15.306  28.579   0.260
31262W        W90358  28.455  44.832   0.285
31263W        W90359  41.343   3.312   4.161
31264W        W90360  30.548  27.460  14.999
31265W        W90361   4.814  36.080  12.340
31266W        W90362  44.311   3.457   3.778
31267W        W90363  32.407   0.800  13.342
31268W        W90364  11.813  23.192  14.888
31269W        W90365  19.683  43.352  14.940
31270W        W90366   7.178  12.755  12.940
31271W        W90367  17.255   9.679   1.388
31272W        W90368   2.351  34.577  13.516
31273W        W90369  25.517  41.326   1.732
31274W        W90370  27.075  37.038   9.967
31275W        W90371  43.280  31.411  14.378
31276W        W90372  22.202  30.013  12.434
31277W        W90373   9.710   9.867   4.832
31278W        W90374  26.552  30.005   2.331
31279W        W90375  23.659  34.390   1.248
31280W        W90376  20.233  20.555   0.476
31281W        W90377  38.067  28.933  14.431
31282W        W90378   2.259  20.649  13.956
31283W        W90379  21.692   1.402   4.286
31284W        W90380  15.315  33.081   5.149
31285W        W90381  42.526  13.815   4.679
31286W        W90382  30.584  43.320   0.254
31287W        W90383  26.522  39.493   2.697
31288W        W90384  17.185  15.125   3.692
31289W        W90385  44.492  26.495  14.848
31290W        W90386  16.230  44.335   2.836
31291W        W90387  26.112  22.510  11.992
31292W        W90388  16.791  33.577  13.435
31293W        W90389  38.570  17.293   1.377
31294W        W90390  10.256  30.611   3.732
31295W        W90391  43.771  34.565  11.929
31296W        W90392  31.997   2.433   3.255
31297W        W90393   3.341  23.646   4.604
31298W        W90394  20.258  20.731   1.234
31299W        W90395  33.978  18.598  12.840
31300W        W90396  27.188  24.176   1.317
31301W        W90397  17.209   9.206  13.320
31302W        W90398  22.204  43.778   2.188
31303W        W90399  22.723  27.527  13.468
31304W        W90400  27.647  36.028  10.009
31305W        W90401   1.787   4.739   0.268
31306W        W90402  10.367  27.128  12.044
31307W        W90403  18.056   1.427   2.713
31308W        W90404   4.863  44.331  11.070
31309W        W90405  17.302  27.042  14.901
31310W        W90406  26.481   7.300  12.897
31311W        W90407  16.150   5.399  11.478
31312W        W90408  35.385  34.061  10.895
31313W        W90409  20.221  37.892   1.800
31314W        W90410  41.535  11.334  14.023
31315W        W90411   8.211  19.183  13.435
31316W        W90412  34.009  19.658   2.347
31317W        W90413  30.089  29.032   3.383
31318W        W90414  14.673   1.797  10.952
31319W        W90415  15.796  22.089  12.436
31320W        W90416  11.270  42.028  13.890
31321W        W90417  27.149  32.983  10.132
31322W        W90418   0.389   0.374  12.982
31323W        W90419  15.667  31.951   1.419
31324W        W90420  36.431   7.320   1.411
31325W        W90421  31.563  10.322  13.420
31326W        W90422  17.301   7.352   4.658
31327W        W90423  19.262   4.920  12.516
31328W        W90424  24.147  38.899  11.527
31329W        W90425  27.099  35.945  13.355
31330W        W90426  37.982  19.077   1.869
31331W        W90427  19.537  44.471  13.335
31332W        W90428   5.307  39.880   2.895
31333W        W90429   9.811  44.814  13.426
31334W        W90430   7.736  25.699   3.196
31335W        W90431  17.080  20.662  11.895
31336W        W90432  13.836  34.977  10.904
31337W        W90433  28.501   3.729   3.826
31338W        W90434  36.575   4.344  14.340
31339W        W90435  40.928  21.102   3.266
31340W        W90436  16.160  43.909   1.810
31341W        W90437  15.124  27.484   5.289
31342W        W90438  36.565  20.089   1.377
31343W        W90439  20.219  13.149   1.698
31344W        W90440   8.682   9.706   4.305
31345W        W90441  16.612  18.722  12.996
31346W        W90442  24.223   3.294  13.997
31347W        W90443  41.880  36.587  14.460
31348W        W90444  40.981   6.270   4.720
31349W        W90445  16.751  13.239   2.264
31350W        W90446   3.805   7.787   2.718
31351W        W90447   7.704  27.651   2.901
31352W        W90448  18.212  25.672   1.889
31353W        W90449  17.705  22.558   4.782
31354W        W90450  41.990  22.633  14.370
31355W        W90451  19.283   4.363   4.825
31356W        W90452  17.642   7.720   3.343
31357W        W90453  31.405  30.143   4.325
31358W        W90454   4.239   6.362  12.450
31359W        W90455  31.510  22.125   1.832
31360W        W90456   6.740  18.552  12.086
31361W        W90457  13.194  28.538  10.433
31362W        W90458   3.281  32.584  11.520
31363W        W90459  14.330   6.406   0.776
31364W        W90460  10.830  33.449   3.223
31365W        W90461  32.927   4.857   3.241
31366W        W90462  38.434   3.268  14.932
31367W        W90463  29.650  22.144  12.877
31368W        W90464   3.273  41.844   2.872
31369W        W90465  13.821  43.439   2.878
31370W        W90466  43.767  15.782   1.844
31371W        W90467   5.363  26.509   3.697
31372W        W90468   8.231   6.269   1.742
31373W        W90469  26.605  37.402   2.895
31374W        W90470  22.128  29.065  11.373
31375W        W90471  31.455   7.685  11.401
31376W        W90472  30.962  34.072  12.381
31377W        W90473  14.766  25.036  10.120
31378W        W90474  41.458  37.854   0.311
31379W        W90475  43.794  31.619  13.533
31380W        W90476   1.305  44.993  12.417
31381W        W90477  25.484  32.992   4.697
31382W        W90478  39.465   9.194   2.311
31383W        W90479  14.177  28.990  14.332
31384W        W90480  29.525  42.315  12.572
31385W        W90481  26.563  20.269   3.328
31386W        W90482  39.396  11.128  12.857
31387W        W90483  21.704  18.160  11.878
31388W        W90484  25.499   2.807  11.388
31389W        W90485  32.426  25.148  12.532
31390W        W90486  34.607  41.470  13.001
31391W        W90487   6.728  39.841  10.993
31392W        W90488   9.684   9.748   0.796
31393W        W90489   5.410  17.556  12.861
31394W        W90490  10.213  14.705   1.848
31395W        W90491  44.421   5.427  14.996
31396W        W90492   9.250  23.547   1.715
31397W        W90493  34.504   0.923  14.480
31398W        W90494  38.942  39.986  13.866
31399W        W90495   5.356  35.462   2.380
31400W        W90496  23.103  17.598   4.282
31401W        W90497  25.691  27.970   3.341
31402W        W90498  30.109   4.781  13.042
31403W        W90499  14.299  11.329  14.795
31404W        W90500  35.890  38.026   2.813
31405W        W90501  12.718   6.335   0.906
31406W        W90502  21.606  21.559  11.865
31407W        W90503  11.821  43.341   9.982
31408W        W90504  21.070  36.419   1.235
31409W        W90505  15.126  32.977  12.551
31410W        W90506  38.953  29.099  13.328
31411W        W90507  27.156   3.263  13.316
31412W        W90508  24.073   8.876  10.887
31413W        W90509   1.909   6.352   2.865
31414W        W90510   4.349  15.586   2.415
31415W        W90511  33.881  44.470  10.444
31416W        W90512   6.379  12.293   0.943
31417W        W90513   5.394  21.046  10.110
31418W        W90514  27.957   3.232   0.335
31419W        W90515   2.354  33.970   0.244
31420W        W90516   4.420  38.439   0.773
31421W        W90517  23.086  39.004  14.344
31422W        W90518  21.086  40.855   1.347
31423W        W90519  27.635   4.711   0.362
31424W        W90520   9.722  36.581   2.261
31425W        W90521  13.213  33.419   2.682
31426W        W90522  38.331  35.402   0.355
31427W        W90523  22.620  15.800   1.887
31428W        W90524  34.399  22.648  13.001
31429W        W90525  35.482  22.018   9.996
31430W        W90526  10.296   3.306  14.894
31431W        W90527  42.985  12.807   2.401
31432W        W90528  11.672   4.731   5.265
31433W        W90529  21.741  28.484   1.369
31434W        W90530  37.011   2.826   2.385
31435W        W90531   0.361  21.667  13.048
31436W        W90532  34.901  14.311  12.017
31437W        W90533  21.223  32.080   5.213
31438W        W90534  14.795  41.966   1.215
31439W        W90535   6.901  22.039   1.338
31440W        W90536  10.699  11.306  13.929
31441W        W90537  35.978   0.782   2.399
31442W        W90538  11.334  25.174  11.602
31443W        W90539   3.264   9.858   1.759
31444W        W90540  19.738  14.299  10.636
31445W        W90541  17.094   4.443  13.367
31446W        W90542  19.576  20.205   0.478
31447W        W90543  26.500   1.386   2.268
31448W        W90544  11.852  15.303  14.387
31449W        W90545  19.254   1.430   3.246
31450W        W90546  34.117  29.099   2.704
31451W        W90547  21.161   6.836  14.334
31452W        W90548  22.666  31.013   1.290
31453W        W90549  39.064  27.478  10.029
31454W        W90550  18.743  13.667   0.426
31455W        W90551   5.196  43.335   3.834
31456W        W90552  24.539   6.248   4.683
31457W        W90553  40.845   2.883   3.342
31458W        W90554  19.636  19.185  11.116
31459W        W90555  23.731  10.753   0.781
31460W        W90556  21.590  13.810   3.753
31461W        W90557  34.492  43.775  11.941
31462W        W90558   9.195  11.179   3.678
31463W        W90559  18.558   4.885  14.900
31464W        W90560  23.039  18.735   1.752
31465W        W90561  25.126  37.991  12.912
31466W        W90562  43.793  34.017   2.835
31467W        W90563  40.508  24.576   4.229
31468W        W90564  42.373  40.527  14.871
31469W        W90565  43.890  15.144   2.204
31470W        W90566   8.798  31.601   3.795
31471W        W90567  31.480  28.611  13.897
31472W        W90568  19.560  11.318   0.732
31473W        W90569   6.842  20.750   0.798
31474W        W90570  10.353  10.375  10.439
31475W        W90571  40.376  23.096   0.935
31476W        W90572  13.209  36.048  11.045
31477W        W90573  13.144   6.399   3.344
31478W        W90574  41.336  34.078   3.758
31479W        W90575   1.938  44.498   2.768
31480W        W90576   1.445  21.612   3.754
31481W        W90577  36.887  11.852  13.509
31482W        W90578  40.917  43.348  14.853
31483W        W90579  31.514  33.041  12.836
31484W        W90580   1.301  19.196   2.250
31485W        W90581  40.818   1.267  13.966
31486W        W90582  42.517  18.640  14.000
31487W        W90583   3.342  10.634  11.598
31488W        W90584  17.129  15.638  13.496
31489W        W90585  17.256  42.305  12.936
31490W        W90586   2.272  10.868   2.890
31491W        W90587  25.530  40.825  11.049
31492W        W90588  27.651  43.942   1.737
31493W        W90589  38.534  11.736   4.289
31494W        W90590   1.935  35.927  13.324
31495W        W90591  33.057  22.040  10.514
31496W        W90592   2.825  29.074  13.792
31497W        W90593  19.724  16.641  10.921
31498W        W90594  34.932   9.850   1.744
31499W        W90595  40.512  25.653  14.763
31500W        W90596  11.825  36.589   0.912
31501W        W90597  30.568  31.593   0.961
31502W        W90598  29.447  43.500   4.230
31503W        W90599  15.611  15.329  10.443
31504W        W90600  26.634  13.723  14.485
31505W        W90601   9.394   0.926   2.675
31506W        W90602   5.295  40.818  13.961
31507W        W90603  21.248   6.217  10.996
31508W        W90604  40.866  28.653  12.449
31509W        W90605  11.202  30.154  14.004
31510W        W90606  16.147  35.981   0.358
31511W        W90607  32.053  25.682   1.295
31512W        W90608   8.799  10.756  11.567
31513W        W90609   0.759   8.741  12.534
31514W        W90610   9.771  28.049   4.156
31515W        W90611  20.710  17.691   2.245
31516W        W90612   3.829  38.944   5.266
31517W        W90613   1.911   7.203  10.552
31518W        W90614   6.761   3.767   2.350
31519W        W90615  25.039  22.612  13.060
31520W        W90616  18.631  18.170   0.328
31521W        W90617  36.075  22.743   1.359
31522W        W90618  18.246  35.890   1.747
31523W        W90619  15.268  20.175   1.421
31524W        W90620  28.952  19.641   2.231
31525W        W90621  44.888  39.397  12.413
31526W        W90622   5.379  44.368  13.482
31527W        W90623  23.031  14.690   3.749
31528W        W90624  31.009  30.591  13.867
31529W        W90625  36.468   2.341  13.928
31530W        W90626   1.458  39.512  11.000
31531W        W90627  20.192   0.980  12.354
31532W        W90628  10.682  35.856   2.281
31533W        W90629   0.958   9.739   4.353
31534W        W90630  19.570  26.642   0.789
31535W        W90631  32.592  19.756   1.250
31536W        W90632  30.993  41.529   2.290
31537W        W90633   7.387  26.605   2.255
31538W        W90634  23.504  26.671  13.499
31539W        W90635  14.597  10.799   4.284
31540W        W90636  15.749  26.509  11.557
31541W        W90637  44.366   3.440  11.987
31542W        W90638  23.996  43.016   2.790
31543W        W90639  19.740  14.639  14.496
31544W        W90640  30.052  19.078   0.943
31545W        W90641  13.613  30.967   3.352
31546W        W90642  21.170   2.963   0.926
31547W        W90643  21.613  27.162  13.822
31548W        W90644  42.937  14.144  11.979
31549W        W90645   8.335  33.540   2.858
31550W        W90646  27.042   0.254  12.975
31551W        W90647  35.937   6.739  14.359
31552W        W90648   3.381  43.401  11.415
31553W        W90649   6.415  27.676   2.352
31554W        W90650  26.699  35.107   1.931
31555W        W90651  19.612  13.341   2.290
31556W        W90652  39.506  37.501   3.273
31557W        W90653  11.843  17.112  13.505
31558W        W90654  44.384  18.224   4.633
31559W        W90655  16.692  30.160  12.090
31560W        W90656  22.644  36.846  10.954
31561W        W90657  29.073  25.624  14.987
31562W        W90658  13.169  24.979  11.527
31563W        W90659  39.916  39.340  10.915
31564W        W90660   6.745  27.502  14.887
31565W        W90661   5.293  33.497   3.817
31566W        W90662  16.155  20.245  14.312
31567W        W90663  34.893   8.835  13.975
31568W        W90664  43.804  40.935   4.323
31569W        W90665  17.632  36.899  12.862
31570W        W90666  22.194  30.121   0.870
31571W        W90667  21.630  21.573   5.640
31572W        W90668   3.354  35.397   4.760
31573W        W90669  41.323  30.071   2.323
31574W        W90670  39.427  27.602  11.973
31575W        W90671  10.800  32.957   3.737
31576W        W90672  43.812  20.029   2.341
31577W        W90673  18.748   8.272  12.038
31578W        W90674  34.876  35.868   3.869
31579W        W90675   9.319   3.714   1.412
31580W        W90676  19.729   7.287  12.922
31581W        W90677  43.016  24.136   3.723
31582W        W90678   7.825   3.396   4.252
31583W        W90679  31.986  35.362   4.790
31584W        W90680   4.295  15.281  12.909
31585W        W90681  27.186  11.812   2.740
31586W        W90682   4.400   5.327   4.306
31587W        W90683  28.063   5.421  12.419
31588W        W90684   5.392  11.341  13.837
31589W        W90685  26.969  44.398   1.719
31590W        W90686  30.608  10.292   0.482
31591W        W90687  44.434  40.880   3.293
31592W        W90688   9.395  33.405   2.329
31593W        W90689  23.176  18.181   4.273
31594W        W90690   4.829  34.022  13.459
31595W        W90691  29.053  18.617  13.336
31596W        W90692  26.984  20.166   5.786
31597W        W90693  39.487  21.209  13.840
31598W        W90694  20.721  18.282   3.339
31599W        W90695  43.480  44.947  13.362
31600W        W90696   8.309  30.624  12.981
31601W        W90697  43.336  25.002   0.896
31602W        W90698  11.151  34.912  14.825
31603W        W90699   3.842  15.327  13.436
31604W        W90700  31.465  17.638  11.878
31605W        W90701  42.503  14.117   4.319
31606W        W90702  11.261  13.637  10.893
31607W        W90703  33.529  17.690  14.782
31608W        W90704  42.471   4.937   3.254
31609W        W90705   3.806  32.408   2.751
31610W        W90706  29.021  25.106  13.370
31611W        W90707  40.303  23.209  14.777
31612W        W90708   9.238  42.967   5.205
31613W        W90709   4.350   2.359  11.447
31614W        W90710   3.263   5.848   0.410
31615W        W90711  15.280   5.312  12.538
31616W        W90712  24.181   9.888  14.885
31617W        W90713  13.670  28.057  12.961
31618W        W90714   6.358  16.774   0.850
31619W        W90715  41.834   2.756   4.175
31620W        W90716   3.433  15.176   0.865
31621W        W90717  15.759  18.271   0.924
31622W        W90718  37.408  24.514  11.890
31623W        W90719   3.253  15.577  10.472
31624W        W90720  37.348  42.836  14.859
31625W        W90721  31.144   6.762   4.708
31626W        W90722  20.685   2.949   4.783
31627W        W90723  16.799  27.522   3.282
31628W        W90724  41.788  22.088  11.386
31629W        W90725  21.586  12.683   1.732
31630W        W90726  40.011  36.846  13.455
31631W        W90727  24.012  26.627   9.975
31632W        W90728  10.803  21.690  11.529
31633W        W90729   0.789  37.977  14.448
31634W        W90730  34.538  30.037   0.805
31635W        W90731  37.030   6.754  14.450
31636W        W90732  16.590  35.086   1.717
31637W        W90733  42.461  30.474  12.968
31638W        W90734   5.751  33.449   2.877
31639W        W90735  10.668  17.741  14.315
31640W        W90736   9.385  17.219  13.879
31641W        W90737   6.243   3.399   3.263
31642W        W90738  21.072  44.499  10.962
31643W        W90739  33.394  15.150  11.017
31644W        W90740  14.749   1.270   4.140
31645W        W90741  39.527  40.827  10.460
31646W        W90742  39.410  26.171  11.891
31647W        W90743  19.273  38.965  14.762
31648W        W90744   4.374   0.487  13.923
31649W        W90745  21.092  19.778   2.725
31650W        W90746   5.745  35.060  10.603
31651W        W90747  16.585  21.100  12.541
31652W        W90748  11.770  23.518   4.834
31653W        W90749   3.871  25.194   3.302
31654W        W90750  21.192  25.544   4.615
31655W        W90751   5.908  43.950   3.239
31656W        W90752  23.166  39.010  14.788
31657W        W90753   1.268  18.725  12.344
31658W        W90754  43.311  44.336  13.812
31659W        W90755  40.403  19.586   2.861
31660W        W90756  31.090   8.174  12.830
31661W        W90757  19.569  41.837   4.233
31662W        W90758  10.175  27.690  11.003
31663W        W90759   7.406  28.175  11.086
31664W        W90760   2.798  19.752  13.440
31665W        W90761   7.213  20.689   4.800
31666W        W90762  35.391  44.949   2.285
31667W        W90763  27.525  22.531  14.926
31668W        W90764  30.155  34.885  12.960
31669W        W90765  39.559  12.682   3.238
31670W        W90766  30.090   4.862   1.357
31671W        W90767  29.987  18.242   0.454
31672W        W90768  29.514  39.834   1.825
31673W        W90769  36.068  10.374  11.605
31674W        W90770  27.620   8.782  11.926
31675W        W90771   1.423   2.806  12.979
31676W        W90772  38.369  29.579   3.361
31677W        W90773  38.992  33.504   0.242
31678W        W90774  38.882  30.095  11.424
31679W        W90775  30.078   9.359   0.258
31680W        W90776  14.670   4.721  11.397
31681W        W90777  34.375   0.315   3.866
31682W        W90778  26.634  40.446   1.724
31683W        W90779  16.244  11.644   2.334
31684W        W90780  12.649  35.890   4.681
31685W        W90781  42.421   8.263   0.849
31686W        W90782   0.382  36.351  14.778
31687W        W90783  31.931  41.974   0.962
31688W        W90784  35.506  36.014  12.542
31689W        W90785  24.564  13.837  11.372
31690W        W90786   4.874   4.232   4.261
31691W        W90787   6.714   9.828  12.409
31692W        W90788  11.843  35.590  10.100
31693W        W90789  26.978  44.820  13.423
31694W        W90790  11.251  27.955  11.456
31695W        W90791  28.608  14.114  12.023
31696W        W90792  11.648   1.342  12.851
31697W        W90793  14.682   1.918   1.868
31698W        W90794  10.145  27.493  10.527
31699W        W90795   3.720  38.394   4.293
31700W        W90796  21.697  23.562  10.956
31701W        W90797  41.980  20.696  13.307
31702W        W90798  35.537  10.210  12.484
31703W        W90799  18.655  36.369  12.008
31704W        W90800  12.152  21.714  14.846
31705W        W90801  21.043  12.799  11.109
31706W        W90802   6.424  18.650  14.762
31707W        W90803  12.799  26.680   2.717
31708W        W90804  44.425  23.634  13.028
31709W        W90805   6.801  39.341   4.736
31710W        W90806  26.456   1.882  10.564
31711W        W90807  21.086  23.240  12.039
31712W        W90808  21.072   8.203   1.886
31713W        W90809  28.574  42.398   4.187
31714W        W90810  34.479  40.446  13.485
31715W        W90811  40.799   3.936  12.571
31716W        W90812  33.475  27.637   2.415
31717W        W90813  27.131  42.819   3.262
31718W        W90814   6.910  42.946  14.862
31719W        W90815  29.505   5.321   1.860
31720W        W90816   2.465  32.019   1.327
31721W        W90817  37.990  29.501   4.779
31722W        W90818  14.161   5.342  14.922
31723W        W90819  11.146  26.973  14.504
31724W        W90820  38.537   1.353  13.531
31725W        W90821   5.248  37.833  14.981
31726W        W90822  32.519  16.790  12.896
31727W        W90823  28.666  12.162   1.438
31728W        W90824  12.813  31.528  13.538
31729W        W90825  42.407  33.570   1.897
31730W        W90826   9.662  27.980  10.948
31731W        W90827  13.217   8.292  12.382
31732W        W90828  29.490   1.742   0.371
31733W        W90829  31.502   2.905   4.174
31734W        W90830  36.887  18.773  14.005
31735W        W90831   2.887  20.063   2.270
31736W        W90832   4.333  17.065   2.178
31737W        W90833  24.660  14.341  12.051
31738W        W90834  18.228  14.781   1.729
31739W        W90835  31.473   9.325  14.984
31740W        W90836   4.894  35.893  11.954
31741W        W90837  39.985  16.148  13.807
31742W        W90838  42.847   3.891  12.467
31743W        W90839  12.848  44.337  10.043
31744W        W90840  30.943  19.600  11.048
31745W        W90841   1.314  32.982  10.897
31746W        W90842  24.683  27.149   4.324
31747W        W90843  20.730   3.415   0.736
31748W        W90844  22.544   6.408   4.727
31749W        W90845  31.456  17.088   1.916
31750W        W90846   1.972  37.376   0.454
31751W        W90847  38.399  25.510  14.333
31752W        W90848  29.173  15.608  13.479
31753W        W90849  39.830  23.021   0.384
31754W        W90850   1.792  27.462  14.951
31755W        W90851  12.840   1.386  12.085
31756W        W90852   6.417  33.071  13.829
31757W        W90853  20.577  22.649   1.877
31758W        W90854   5.783  35.038   1.888
31759W        W90855  44.789  24.215  11.119
31760W        W90856  36.431  38.901  13.490
31761W        W90857   6.378  23.588  11.967
31762W        W90858  38.962  27.580  12.025
31763W        W90859  31.517  41.857  11.924
31764W        W90860  41.487  17.577  13.810
31765W        W90861  37.957  29.602   9.998
31766W        W90862  28.186  25.999  10.544
31767W        W90863  26.093   1.746   1.451
31768W        W90864  37.909  32.570  14.407
31769W        W90865   6.415   0.773   4.173
31770W        W90866  13.809   4.222  12.925
31771W        W90867   3.305  34.004  14.330
31772W        W90868  20.197  23.163   3.766
31773W        W90869   8.732   9.341  13.060
31774W        W90870  36.990   0.936   2.781
31775W        W90871  23.556  31.959   3.833
31776W        W90872  39.415  14.783   3.761
31777W        W90873  17.186  10.298  11.504
31778W        W90874  34.487  44.409  10.048
31779W        W90875  32.969  40.829   2.711
31780W        W90876  24.516   2.783  13.011
31781W        W90877  37.948  41.344   0.750
31782W        W90878  13.299  21.119   5.134
31783W        W90879  21.612  29.570  14.937
31784W        W90880  18.287   7.224  13.521
31785W        W90881  44.789  24.005   4.836
31786W        W90882  20.206  36.051   2.670
31787W        W90883   2.239  16.601  11.996
31788W        W90884  23.173  43.855  11.870
31789W        W90885   7.272  38.065  11.890
31790W        W90886   7.238  10.329   1.728
31791W        W90887   2.882  41.006   3.212
31792W        W90888  13.264  20.588   4.625
31793W        W90889  38.563  12.251   4.808
31794W        W90890  41.366  43.328  12.083
31795W        W90891   7.263  14.790  10.959
31796W        W90892  38.002  22.121   2.314
31797W        W90893   1.831  14.301   4.764
31798W        W90894   0.977  44.927   1.427
31799W        W90895  22.594  31.574  13.416
31800W        W90896   5.271  17.266  14.934
31801W        W90897  23.565  37.427   3.195
31802W        W90898  13.666   2.795   0.831
31803W        W90899  41.347  38.338   4.305
31804W        W90900  35.485  43.017   3.284
31805W        W90901  42.438  40.350   4.672
31806W        W90902  42.922  22.539   4.668
31807W        W90903  10.653   8.251   1.777
31808W        W90904   4.414  44.944   2.691
31809W        W90905  37.559  32.632   3.220
31810W        W90906  24.040  22.245   1.799
31811W        W90907  44.334   5.763   0.763
31812W        W90908  41.798  44.799  13.791
31813W        W90909   9.161   0.775   2.294
31814W        W90910   0.454  29.963  13.951
31815W        W90911  42.390   8.363   1.315
31816W        W90912  31.552  23.526  13.942
31817W        W90913  43.839  39.327  13.346
31818W        W90914  11.760  44.461   2.854
31819W        W90915  15.652  22.187  10.110
31820W        W90916  20.730  40.011   3.687
31821W        W90917  13.114  24.076   0.421
31822W        W90918  15.723   3.355  12.843
31823W        W90919  25.103  23.652  13.063
31824W        W90920  26.178  36.510   5.168
31825W        W90921  22.684  24.142  13.949
31826W        W90922   4.921  26.668   3.327
31827W        W90923  20.168  30.446   4.763
31828W        W90924   6.189  11.653  11.489
31829W        W90925   8.400  28.581  11.912
31830W        W90926   8.846  44.455   2.725
31831W        W90927  23.123   3.776   3.316
31832W        W90928  37.862  17.074   2.705
31833W        W90929  40.487   7.884  14.833
31834W        W90930  26.983  25.027   1.908
31835W        W90931  19.755  42.510  12.055
31836W        W90932  14.112  38.926   1.771
31837W        W90933  23.636  34.017   4.232
31838W        W90934  39.402  42.289  12.873
31839W        W90935  11.290  36.453   2.185
31840W        W90936  37.572  20.246   3.681
31841W        W90937   6.911  32.599  13.343
31842W        W90938  10.700  13.641  12.828
31843W        W90939  30.535  36.894  13.548
31844W        W90940   6.360  35.357   0.248
31845W        W90941  31.935   5.725  12.049
31846W        W90942  29.663  11.636   3.333
31847W        W90943  19.109   9.249   1.348
31848W        W90944  19.135   0.287   1.892
31849W        W90945  23.114   1.443  10.474
31850W        W90946  14.739  40.893   2.221
31851W        W90947   5.256   9.157   4.657
31852W        W90948  13.828  40.926  13.015
31853W        W90949  25.170  34.418  10.415
31854W        W90950  25.042  27.592  10.127
31855W        W90951  29.050  29.442  10.900
31856W        W90952  35.360   8.703  12.385
31857W        W90953  13.312  35.020   0.367
31858W        W90954  34.102  15.719   1.397
31859W        W90955  37.479   2.937  13.038
31860W        W90956  14.105   1.773  11.500
31861W        W90957  35.565  15.122  14.379
31862W        W90958  12.152   2.423  14.973
31863W        W90959  18.645   0.814   4.778
31864W        W90960  20.582   8.210   3.359
31865W        W90961  29.552  17.164  12.557
31866W        W90962  13.350  38.992   1.432
31867W        W90963   0.369  25.563   3.250
31868W        W90964  36.982  20.535   2.690
31869W        W90965  44.502  34.920   1.320
31870W        W90966  33.031  21.126  14.442
31871W        W90967  27.471  29.586  11.391
31872W        W90968  26.156  13.792  12.486
31873W        W90969   1.856  25.177  12.405
31874W        W90970   5.406  11.285  11.914
31875W        W90971   6.215   1.861   0.791
31876W        W90972  34.934   0.962   2.890
31877W        W90973   1.348   2.342  13.049
31878W        W90974  44.864  40.932   0.803
31879W        W90975   7.300  21.523   3.148
31880W        W90976   4.405  22.135  13.928
31881W        W90977  12.799  34.493   0.253
31882W        W90978  35.529  36.399   3.842
31883W        W90979  42.427  26.038  12.579
31884W        W90980  22.176  19.147   5.122
31885W        W90981  15.123  36.055  14.324
31886W        W90982   5.324  41.817   1.881
31887W        W90983  43.974  30.554   1.872
31888W        W90984  40.985  37.346  11.536
31889W        W90985  19.629  30.456  11.564
31890W        W90986   3.851  19.167  13.856
31891W        W90987  41.473   7.813   0.334
31892W        W90988  43.355  14.729   1.821
31893W        W90989  16.168  11.722   0.744
31894W        W90990   3.939  28.091  11.430
31895W        W90991  44.841  38.883   0.307
31896W        W90992  19.644  34.410  13.543
31897W        W90993  14.163  14.268   2.707
31898W        W90994   1.911  40.917  10.913
31899W        W90995   8.172  28.015   2.243
31900W        W90996   6.404  12.798  11.447
31901W        W90997   3.270  32.569   4.336
31902W        W90998   4.433  10.192   1.371
31903W        W90999  30.578   1.744   0.917
31904W        W91000  23.680  15.731   0.308
31905W        W91001  35.569  31.086   3.376
31906W        W91002  26.203  36.091  14.839
31907W        W91003  33.940  20.091  12.442
31908W        W91004   2.825  35.454  13.052
31909W        W91005  15.297  12.311  12.567
31910W        W91006  25.036  24.061   2.856
31911W        W91007  36.504  16.078   2.708
31912W        W91008  17.578  19.729   3.751
31913W        W91009  25.665   7.864   0.428
31914W        W91010   4.835  44.916  13.859
31915W        W91011  36.463  29.599  12.995
31916W        W91012  24.722  13.146  10.499
31917W        W91013   5.403  34.036  12.488
31918W        W91014   3.749  41.353  10.613
31919W        W91015  39.452  15.295  13.996
31920W        W91016  42.847  36.449  10.948
31921W        W91017  15.167  44.853   0.780
31922W        W91018  41.427  38.994  10.946
31923W        W91019  39.502  26.664   4.350
31924W        W91020  32.442  31.614   0.329
31925W        W91021  25.174  42.835   0.922
31926W        W91022  27.153  18.156  13.054
31927W        W91023  27.661  12.143   3.284
31928W        W91024   0.755  27.160   3.825
31929W        W91025  40.530   0.815   3.779
31930W        W91026   7.682   2.815  11.454
31931W        W91027  19.143  11.665   4.129
31932W        W91028  24.074  12.807   1.721
31933W        W91029   8.656  40.351  11.031
31934W        W91030  13.640   5.301  14.772
31935W        W91031   9.837  40.480  10.890
31936W        W91032  13.168  27.548   5.139
31937W        W91033  13.686  39.892   2.407
31938W        W91034  38.019  21.115   1.315
31939W        W91035  18.274  33.552  14.889
31940W        W91036  26.998   6.796   1.854
31941W        W91037   3.400   8.272  11.886
31942W        W91038  30.958  24.693  13.843
31943W        W91039   8.662  25.975  14.482
31944W        W91040  27.605   2.825  10.516
31945W        W91041   0.491  31.035  11.858
31946W        W91042  37.438  41.939   0.462
31947W        W91043  24.984   2.316  13.026
31948W        W91044  33.499  17.752   3.361
31949W        W91045   3.312   9.260   0.437
31950W        W91046  23.070   4.434  12.440
31951W        W91047  20.161   6.326  12.914
31952W        W91048  27.188  16.608   1.406
31953W        W91049   6.721   5.849  11.901
31954W        W91050  27.196  36.489   4.683
31955W        W91051  23.112  22.670  10.446
31956W        W91052  36.350   4.235   3.744
31957W        W91053  33.399   5.223   4.126
31958W        W91054  33.396  12.761   4.192
31959W        W91055  40.315  34.991   2.244
31960W        W91056  18.779   3.897   1.694
31961W        W91057  12.654  20.548   4.830
31962W        W91058   4.389  25.551  14.389
31963W        W91059   2.797  35.017  10.429
31964W        W91060  28.098   0.859  10.575
31965W        W91061  25.002  18.558  13.945
31966W        W91062  34.465  10.201   1.834
31967W        W91063  18.122  30.152  11.104
31968W        W91064   2.885  36.501   2.775
31969W        W91065  19.645  43.922   3.257
31970W        W91066  28.486  17.162   0.732
31971W        W91067  34.585  22.138   1.894
31972W        W91068  42.851  40.022   4.606
31973W        W91069   7.410   0.976  11.980
31974W        W91070  29.486   1.786   4.212
31975W        W91071  27.058  35.933  10.074
31976W        W91072  18.769  28.567   4.133
31977W        W91073  12.675   4.277   0.471
31978W        W91074  32.520  36.432  14.897
31979W        W91075  42.342  33.411   3.326
31980W        W91076  15.601  33.975  12.870
31981W        W91077   7.747  25.539   2.184
31982W        W91078  24.153  31.144   4.611
31983W        W91079  24.006  37.035   3.175
31984W        W91080  39.842  11.241   2.301
31985W        W91081  32.953   8.283  13.442
31986W        W91082   7.774  26.673   0.928
31987W        W91083  24.124  36.058  11.585
31988W        W91084  42.512   9.367  13.992
31989W        W91085  24.005   7.780  12.087
31990W        W91086   4.925  14.595   3.836
31991W        W91087  26.955   3.811  14.888
31992W        W91088  14.235  20.587   4.341
31993W        W91089  11.862  38.486  14.861
31994W        W91090   6.310  25.650   4.695
31995W        W91091  13.631  10.748   1.264
31996W        W91092  22.687  13.155   2.816
31997W        W91093  35.977   6.185   0.271
31998W        W91094  30.161  21.708   4.747
31999W        W91095  26.587   9.373   0.828
32000W        W91096  36.995  25.561   4.681
32001W        W91097  44.446  25.603  10.441
32002W        W91098  23.551  17.662  12.504
32003W        W91099  20.048  39.885   3.344
32004W        W91100  14.773   8.859   2.356
32005W        W91101   2.255  34.484   2.322
32006W        W91102  32.434  36.851  13.392
32007W        W91103  44.498  30.933  13.453
32008W        W91104  15.783  44.430  11.519
32009W        W91105  21.524  23.123   2.812
32010W        W91106  33.006  39.930   4.838
32011W        W91107  11.288  24.542   4.195
32012W        W91108  16.280  37.046  13.878
32013W        W91109  38.422  42.833   4.113
32014W        W91110  10.208  33.436   4.354
32015W        W91111  11.357  43.516  11.432
32016W        W91112  43.768  42.005  13.434
32017W        W91113  22.716  44.754   0.286
32018W        W91114  26.649  22.689  14.353
32019W        W91115   6.378  20.151   4.187
32020W        W91116  29.117  25.097  11.592
32021W        W91117   5.346  12.695  10.451
32022W        W91118  44.497  35.983  10.030
32023W        W91119  24.025   3.449   2.694
32024W        W91120  19.675  16.795  10.512
32025W        W91121  29.167  33.621  11.567
32026W        W91122  16.673  13.232  14.971
32027W        W91123  33.076  12.708   0.830
32028W        W91124  11.758  23.171   1.731
32029W        W91125   3.420  30.472  14.866
32030W        W91126  44.341  15.163   3.215
32031W        W91127  36.947   0.793  12.364
32032W        W91128  41.959   0.848   3.284
32033W        W91129   1.430  31.518  11.917
32034W        W91130  28.677  15.286   1.766
32035W        W91131   6.425   9.745   0.384
32036W        W91132  42.866  23.000   2.715
32037W        W91133  19.774   6.300   3.835
32038W        W91134  25.697  16.710  11.878
32039W        W91135  25.679  33.903  10.589
32040W        W91136  24.491  16.721  13.426
32041W        W91137  26.483  14.319   4.292
32042W        W91138  15.810  42.805   4.208
32043W        W91139   8.680  13.718   3.789
32044W        W91140  39.992  22.099   2.342
32045W        W91141   6.323   7.902   1.919
32046W        W91142  29.963  33.465  13.990
32047W        W91143  11.140   1.446   0.451
32048W        W91144  44.471   9.722  12.981
32049W        W91145  41.873  25.009  11.008
32050W        W91146  12.692  23.664  11.965
32051W        W91147   9.172  21.171   1.858
32052W        W91148  29.163  17.150   0.256
32053W        W91149  35.064   5.745   1.857
32054W        W91150  13.678  39.334   4.180
32055W        W91151  27.007   3.834  10.562
32056W        W91152  14.705  36.973  11.071
32057W        W91153  12.146   3.447   2.900
32058W        W91154  12.707   8.854  12.520
32059W        W91155  10.215  31.153   3.248
32060W        W91156  19.615   7.888  13.308
32061W        W91157  12.808   2.459  12.548
32062W        W91158  17.272   1.406   2.222
32063W        W91159  42.794  13.342  14.973
32064W        W91160  43.896  15.819   2.190
32065W        W91161  15.175  20.764  12.431
32066W        W91162  42.395  31.041  13.385
32067W        W91163  19.719  43.848   3.749
32068W        W91164  40.538  15.232  10.967
32069W        W91165   7.774  29.086   2.272
32070W        W91166  22.526  20.705  13.510
32071W        W91167  39.944  20.758   3.198
32072W        W91168   0.816  10.180   4.672
32073W        W91169  28.596   4.381   1.888
32074W        W91170   8.269   9.801   2.754
32075W        W91171   1.466  35.024   2.902
32076W        W91172  25.534  37.500  14.894
32077W        W91173   6.220   7.814  11.415
32078W        W91174  17.690  38.518   9.964
32079W        W91175  40.474  32.054   4.126
32080W        W91176  41.825  20.545   0.267
32081W        W91177  24.175  23.541   2.679
32082W        W91178  29.103  43.471   0.916
32083W        W91179  23.112  32.128   3.755
32084W        W91180  27.055  19.623   0.279
32085W        W91181  20.609  32.945   1.248
32086W        W91182   6.684  43.357   1.428
32087W        W91183   2.269   6.749  12.070
32088W        W91184   2.765  37.878  12.954
32089W        W91185  34.988  29.455   3.326
32090W        W91186  26.526   7.899   1.226
32091W        W91187   7.315  32.888   4.270
32092W        W91188  19.576   5.877  10.987
32093W        W91189  30.527   6.197   0.948
32094W        W91190  39.368  18.566   0.790
32095W        W91191   8.254  26.178   9.999
32096W        W91192  25.188  12.154  10.905
32097W        W91193  22.728   3.432   0.874
32098W        W91194  36.513   3.293   0.337
32099W        W91195   6.717  11.856  13.884
32100W        W91196  28.160  15.271  12.551
32101W        W91197  31.482  13.129   3.357
32102W        W91198  33.001  13.231  13.534
32103W        W91199   3.883  28.464   2.845
32104W        W91200  43.385  21.564   2.267
32105W        W91201  20.755   7.829  12.352
32106W        W91202  39.333  32.031   3.375
32107W        W91203  11.249  22.708  11.915
32108W        W91204  15.108  12.355  10.975
32109W        W91205  22.590  32.137   2.775
32110W        W91206  27.105  44.331   2.311
32111W        W91207  34.446   6.768  14.758
32112W        W91208  28.125  20.715   3.729
32113W        W91209  11.315  39.943   3.850
32114W        W91210  21.214   5.434  13.440
32115W        W91211  43.964  36.024   2.706
32116W        W91212  39.382  44.988  12.077
32117W        W91213  10.381  29.961  14.895
32118W        W91214  22.723  24.227   4.639
32119W        W91215   1.259  30.451   1.811
32120W        W91216  27.078  17.743  10.916
32121W        W91217  13.256   0.298   1.889
32122W        W91218  21.663  24.695   4.797
32123W        W91219   9.339  28.622  13.343
32124W        W91220  34.919  16.796   2.834
32125W        W91221  16.698   6.711  12.483
32126W        W91222  41.522  31.922  13.047
32127W        W91223  41.836  37.507   1.788
32128W        W91224  36.400  12.764  14.839
32129W        W91225  15.291   7.389  14.303
32130W        W91226  28.487   2.868   2.672
32131W        W91227  37.943  36.841  10.618
32132W        W91228   3.372  22.111   4.796
32133W        W91229  21.539   0.278   3.726
32134W        W91230  33.420  15.198   5.160
32135W        W91231  17.166  35.382   2.343
32136W        W91232  16.778  25.665   4.163
32137W        W91233  43.849   9.238  11.573
32138W        W91234   1.968   5.740   3.149
32139W        W91235  34.885  43.292  10.513
32140W        W91236  35.590  15.329   2.759
32141W        W91237  18.660  13.797   4.623
32142W        W91238  35.574  38.385  10.979
32143W        W91239   9.733  44.315   2.672
32144W        W91240  35.394   7.371   3.218
32145W        W91241   2.858  26.038   0.338
32146W        W91242  21.139  41.373   3.252
32147W        W91243  35.040   9.165   2.222
32148W        W91244  12.827  34.099   1.215
32149W        W91245  11.807  32.945  12.494
32150W        W91246  31.908  36.082  14.875
32151W        W91247  37.398  38.877  14.334
32152W        W91248  12.768   2.269  13.928
32153W        W91249  26.557  26.155   1.829
32154W        W91250  24.683  24.654   2.709
32155W        W91251   2.258  16.714  11.079
32156W        W91252  30.493  38.073   0.811
32157W        W91253  21.226  41.827   2.188
32158W        W91254  31.644  34.565   1.371
32159W        W91255  15.231  17.178   1.335
32160W        W91256   7.845   0.915   4.648
32161W        W91257   8.202   4.807  14.391
32162W        W91258  29.957  19.184  13.338
32163W        W91259  24.025  13.641  10.925
32164W        W91260  37.927   9.342   4.636
32165W        W91261   3.301   9.858  11.042
32166W        W91262  44.403  34.510   1.354
32167W        W91263  32.110  43.806  11.081
32168W        W91264  30.480  42.393   3.369
32169W        W91265  17.267  11.677  13.479
32170W        W91266  26.457  17.070  13.980
32171W        W91267   3.311  20.708  10.645
32172W        W91268  10.813  25.104  11.408
32173W        W91269  15.662   0.959  12.926
32174W        W91270  23.630   6.329   1.762
32175W        W91271  42.001  17.239  12.935
32176W        W91272   6.319  17.172   9.961
32177W        W91273  21.697  40.310   0.317
32178W        W91274  20.044  38.842   3.151
32179W        W91275  43.403  38.463  12.082
32180W        W91276   4.252   2.337   1.236
32181W        W91277  40.977   8.333   4.713
32182W        W91278  22.718  35.999   0.300
32183W        W91279  12.306  17.573   2.325
32184W        W91280  15.598  25.098  12.976
32185W        W91281  27.146  38.373  13.962
32186W        W91282  22.033  43.838   2.840
32187W        W91283  20.686  25.983   4.269
32188W        W91284   4.904  29.471  11.490
32189W        W91285   1.860  20.647  13.988
32190W        W91286   6.694  41.340  12.450
32191W        W91287  35.571  33.446   4.639
32192W        W91288  42.298  33.100  10.479
32193W        W91289   8.672  25.096  14.422
32194W        W91290  11.685  42.777   2.268
32195W        W91291  44.301  20.186   0.457
32196W        W91292  21.171   5.773  11.065
32197W        W91293  32.571  31.899   2.813
32198W        W91294   0.931   7.768  12.043
32199W        W91295  20.570  35.009   0.438
32200W        W91296  37.395   5.798  11.092
32201W        W91297  25.538  18.637  10.035
32202W        W91298  14.631  19.188   1.256
32203W        W91299  18.655  35.444  13.027
32204W        W91300  25.615  22.739   1.765
32205W        W91301  43.779  35.588   3.205
32206W        W91302   7.715  41.538   0.355
32207W        W91303  13.171   5.336   4.132
32208W        W91304  43.826  37.880   4.627
32209W        W91305  36.077  42.019   3.835
32210W        W91306   3.297  41.887   2.216
32211W        W91307  14.631  25.634   4.721
32212W        W91308  33.938  16.757  14.341
32213W        W91309  35.077  38.059   4.207
32214W        W91310  19.760  24.558   1.922
32215W        W91311  12.153  37.347  14.889
32216W        W91312  17.793  34.924  11.013
32217W        W91313  24.039  35.005  14.761
32218W        W91314  20.192  11.667   1.723
32219W        W91315  36.584  17.743   4.131
32220W        W91316   0.264   4.316  12.519
32221W        W91317  11.832   5.914  12.554
32222W        W91318   7.330  17.672   4.705
32223W        W91319  19.581  12.659   0.819
32224W        W91320  37.942  20.640  10.532
32225W        W91321  32.046  28.107   4.642
32226W        W91322  32.944   7.346  12.505
32227W        W91323  27.641  12.676  12.551
32228W        W91324  40.886  38.378  13.043
32229W        W91325   1.385  30.075   1.356
32230W        W91326  19.196  33.057   4.838
32231W        W91327  23.147  40.480  11.118
32232W        W91328  16.257  24.593  13.436
32233W        W91329  44.405  33.521  12.071
32234W        W91330   1.805  20.186  10.491
32235W        W91331  43.880  16.715  14.816
32236W        W91332  20.591   8.180   2.230
32237W        W91333  24.672  31.058  10.533
32238W        W91334  40.423  33.028  13.955
32239W        W91335  22.646  24.636   3.265
32240W        W91336  24.612  44.860   3.165
32241W        W91337  38.540   3.756  13.320
32242W        W91338   4.357  34.892  11.605
32243W        W91339  17.705  13.282   1.832
32244W        W91340  12.339  23.650  14.775
32245W        W91341  44.858   1.375  12.573
32246W        W91342  29.032  38.933  12.841
32247W        W91343  40.022  32.907  11.407
32248W        W91344   1.790  14.139   2.370
32249W        W91345  33.940  31.146   2.398
32250W        W91346  22.606  34.932  10.034
32251W        W91347  23.608  39.461   4.733
32252W        W91348  35.086  31.592   0.897
32253W        W91349   8.283  41.329  11.375
32254W        W91350  24.581  28.656   3.354
32255W        W91351  37.356  41.975  13.544
32256W        W91352  39.858  33.506  11.589
32257W        W91353  14.657  32.408   3.738
32258W        W91354  27.055   1.272   2.381
32259W        W91355   6.229   1.269   0.373
32260W        W91356   2.896  36.559   1.899
32261W        W91357  15.740  29.526  12.867
32262W        W91358  37.086  27.680  12.572
32263W        W91359   7.412  36.951   3.336
32264W        W91360  23.155  18.174   1.430
32265W        W91361  30.953   0.828  14.942
32266W        W91362   7.374  33.108  12.016
32267W        W91363   8.162  13.825   0.758
32268W        W91364  12.788  29.506   1.221
32269W        W91365  15.773  19.683   4.116
32270W        W91366  43.339   5.208  11.973
32271W        W91367   8.742   6.342   3.659
32272W        W91368  12.268   7.232   2.196
32273W        W91369   8.308   4.306   4.233
32274W        W91370  25.167   5.713   2.194
32275W        W91371  36.360  29.465  11.945
32276W        W91372  19.683  37.384  12.957
32277W        W91373  34.062   0.811   3.855
32278W        W91374  35.489  26.156  12.458
32279W        W91375  33.459  13.202  13.380
32280W        W91376  40.413   9.869  12.973
32281W        W91377  25.093  13.651   3.853
32282W        W91378  33.903  28.460   5.664
32283W        W91379   7.737  19.640  10.624
32284W        W91380  18.276   4.350   3.193
32285W        W91381  13.155  24.090   2.719
32286W        W91382   0.462   2.744   3.347
32287W        W91383  32.487  38.431   1.334
32288W        W91384   3.223  31.939   1.439
32289W        W91385   3.300  43.364   3.163
32290W        W91386  43.288  28.611  10.623
32291W        W91387  10.786  35.459   1.839
32292W        W91388  13.183  18.650  11.386
32293W        W91389   7.720  25.156   3.170
32294W        W91390  34.384  39.870   1.451
32295W        W91391  26.991  19.084   4.835
32296W        W91392  40.496   9.317   0.269
32297W        W91393  36.575  28.970   1.831
32298W        W91394  36.501   0.459   5.237
32299W        W91395  34.405  33.056  11.073
32300W        W91396   4.743  17.734   4.141
32301W        W91397  10.195   8.205   0.349
32302W        W91398  22.045  21.670   5.760
32303W        W91399  15.635  30.143   3.164
32304W        W91400  31.557  32.995  14.371
32305W        W91401  22.599  15.780  10.943
32306W        W91402   1.413  35.500   4.220
32307W        W91403  18.731  12.805  10.593
32308W        W91404  28.507  12.851   0.430
32309W        W91405  32.954  25.077   4.800
32310W        W91406   3.709   9.254   2.845
32311W        W91407   2.890  28.016   4.256
32312W        W91408  37.358   9.738   3.296
32313W        W91409  33.947  27.086  10.039
32314W        W91410  26.061  24.068  13.314
32315W        W91411  35.096  43.998  13.329
32316W        W91412  19.591   8.759  13.957
32317W        W91413  19.048  17.775  10.981
32318W        W91414  41.475  16.206  13.468
32319W        W91415  13.185  27.977   3.238
32320W        W91416   5.701  19.061  11.093
32321W        W91417   7.760   9.674   1.261
32322W        W91418  18.620  39.945   1.716
32323W        W91419  28.990  19.247   2.809
32324W        W91420  17.287  25.648   4.789
32325W        W91421  37.956  39.429  14.013
32326W        W91422  44.302  19.116   1.415
32327W        W91423  38.912   1.938  10.032
32328W        W91424  12.267  26.111  12.366
32329W        W91425  42.925  21.686   2.342
32330W        W91426   2.304  35.004  13.424
32331W        W91427  17.735  30.020   3.297
32332W        W91428  36.400  21.608  11.605
32333W        W91429   2.864   6.683  13.982
32334W        W91430  31.921  44.928   3.870
32335W        W91431  19.706  11.205  12.839
32336W        W91432  21.074  27.991  13.515
32337W        W91433  39.364   5.711   2.417
32338W        W91434  29.989  44.325   1.774
32339W        W91435  14.748  34.444   4.348
32340W        W91436  10.776  19.667  14.785
32341W        W91437   4.407  25.106   9.536
32342W        W91438  27.604  18.127   2.204
32343W        W91439   1.344  29.953   0.902
32344W        W91440  35.596  36.351  11.105
32345W        W91441  14.719  40.026   2.280
32346W        W91442   2.282   7.752   1.867
32347W        W91443  36.938  39.461  11.122
32348W        W91444  17.583  23.599   3.276
32349W        W91445  31.547  27.498   2.203
32350W        W91446  29.648  11.211   4.226
32351W        W91447  14.261  41.444   0.954
32352W        W91448  33.586  28.058   1.234
32353W        W91449  40.490   2.316  13.352
32354W        W91450  40.533  36.583  10.905
32355W        W91451  43.775  10.667   2.842
32356W        W91452  32.416  14.716  12.866
32357W        W91453   9.776  22.157  12.402
32358W        W91454   6.912  15.773  12.913
32359W        W91455  39.387  32.938   0.442
32360W        W91456  30.588   2.814  13.952
32361W        W91457  31.592  20.098  14.017
32362W        W91458  20.762  35.939  10.099
32363W        W91459   5.801  44.866   2.308
32364W        W91460  37.040  24.701   2.302
32365W        W91461  21.756  27.611  12.556
32366W        W91462  44.799  15.273   0.903
32367W        W91463  23.079  17.776   4.649
32368W        W91464  19.225  43.986  14.496
32369W        W91465   5.739  43.884  14.325
32370W        W91466  26.568  17.270   0.308
32371W        W91467  38.915   0.876   1.744
32372W        W91468  28.037  12.755   3.239
32373W        W91469   1.909  25.963  11.115
32374W        W91470  19.072  30.930  13.320
32375W        W91471  36.501  18.073  11.898
32376W        W91472  22.647   9.661  11.940
32377W        W91473  29.021  37.353  13.022
32378W        W91474  29.958  14.149   2.731
32379W        W91475   0.425  41.857  12.971
32380W        W91476  35.379  38.427   1.307
32381W        W91477  35.040  17.247  10.430
32382W        W91478  41.796   0.319  11.884
32383W        W91479  28.590  28.576   0.366
32384W        W91480   2.809  17.283   1.832
32385W        W91481  12.345  19.104   2.211
32386W        W91482   3.304  43.370  14.467
32387W        W91483  25.029  35.562   0.437
32388W        W91484  42.019  37.522   4.763
32389W        W91485  36.429  18.292   3.252
32390W        W91486   3.222  41.885   1.440
32391W        W91487  39.886   0.488   3.227
32392W        W91488   1.466  28.033   1.794
32393W        W91489  43.835  17.118   4.788
32394W        W91490  43.347  30.479   1.326
32395W        W91491   9.163  24.664   2.200
32396W        W91492  35.969  17.564  13.881
32397W        W91493  22.651  20.238   4.778
32398W        W91494  15.691  21.201  12.956
32399W        W91495  17.127   8.741  12.445
32400W        W91496   3.785  21.183   3.257
32401W        W91497  13.801   3.229   2.274
32402W        W91498  16.722  40.801   4.174
32403W        W91499  28.170  29.057  12.369
32404W        W91500  26.091  41.518   4.149
32405W        W91501  23.574   9.367  10.996
32406W        W91502  32.526  27.997  14.473
32407W        W91503  41.867  20.614   3.858
32408W        W91504  15.813  42.329  10.489
32409W        W91505  25.578  31.932  10.549
32410W        W91506   9.275   8.690   2.268
32411W        W91507  38.928  16.131   0.883
32412W        W91508  36.527  38.450   4.798
32413W        W91509  18.623   3.833   1.283
32414W        W91510  20.532  14.639  13.832
32415W        W91511  42.458  38.826  11.014
32416W        W91512  26.605  28.029   0.245
32417W        W91513  19.771  22.184  11.506
32418W        W91514  30.577  43.968  12.356
32419W        W91515  33.960  32.073   5.257
32420W        W91516  25.016  40.049   0.945
32421W        W91517   4.373  22.565  14.914
32422W        W91518   1.390  44.999  13.824
32423W        W91519  33.948   6.229  12.536
32424W        W91520  13.782  15.626  10.639
32425W        W91521  14.630  37.348   0.284
32426W        W91522  17.220   1.297   3.284
32427W        W91523   3.437  23.663   3.741
32428W        W91524  21.548   1.736  13.822
32429W        W91525  12.750   0.862  14.018
32430W        W91526  28.990  30.463   0.908
32431W        W91527  40.990   9.372  13.990
32432W        W91528  10.376  36.443   3.246
32433W        W91529   7.852   3.943  10.529
32434W        W91530  13.319  12.358  12.852
32435W        W91531   2.371   2.407  12.846
32436W        W91532  40.021  28.153  14.488
32437W        W91533  29.921  33.029   4.806
32438W        W91534  20.726  40.019   0.452
32439W        W91535   3.752   2.824  11.572
32440W        W91536  24.587   9.231  14.823
32441W        W91537  12.788  33.122  11.893
32442W        W91538  41.473  29.436  10.612
32443W        W91539   0.889   6.401  10.515
32444W        W91540  17.659  30.567  13.452
32445W        W91541   6.317  15.229   0.895
32446W        W91542  29.081  41.477  11.474
32447W        W91543  23.574  41.934   3.794
32448W        W91544   5.756  28.680  11.890
32449W        W91545  12.159   6.216  14.978
32450W        W91546  11.625  14.165  13.475
32451W        W91547  24.231  32.480  11.863
32452W        W91548   6.281  20.088   0.250
32453W        W91549  16.663  32.109  11.544
32454W        W91550   4.345  14.810  12.891
32455W        W91551   2.437  14.175  11.968
32456W        W91552  10.304  41.497   3.232
32457W        W91553  18.153   8.736  13.460
32458W        W91554  43.272  33.989  13.982
32459W        W91555  23.023  22.151   0.964
32460W        W91556  32.589  19.565   3.724
32461W        W91557  43.489  31.523  11.448
32462W        W91558  26.464  24.650  14.005
32463W        W91559  14.832  15.090  14.908
32464W        W91560  35.925   6.368   4.169
32465W        W91561   7.398   9.277   3.168
32466W        W91562  17.777  41.001   3.802
32467W        W91563   6.749  28.043   1.695
32468W        W91564  29.519  19.671   1.284
32469W        W91565   6.907  33.624   1.697
32470W        W91566  11.660  30.034   0.374
32471W        W91567  19.221  37.365   5.241
32472W        W91568  16.712  33.051  12.974
32473W        W91569   6.195  24.705   1.732
32474W        W91570  17.230   0.479  14.430
32475W        W91571  25.475   8.176   3.351
32476W        W91572  19.272   0.886  11.120
32477W        W91573  17.082   7.294  12.390
32478W        W91574  21.605   4.925  12.479
32479W        W91575  24.023  29.657   2.679
32480W        W91576  30.921  15.121  13.401
32481W        W91577   4.761  43.428   4.151
32482W        W91578  37.968  18.697   3.822
32483W        W91579  12.649  32.396   3.357
32484W        W91580  11.760  21.657   1.931
32485W        W91581   3.316  30.947   0.294
32486W        W91582  31.084   6.225  10.428
32487W        W91583   9.245   9.360  12.485
32488W        W91584   1.298   2.824  13.992
32489W        W91585  29.087  20.680  11.018
32490W        W91586  28.635   6.689  12.831
32491W        W91587  42.425  44.482   0.838
32492W        W91588   1.479  17.754   2.240
32493W        W91589   9.290  39.011   1.246
32494W        W91590  23.045  15.579  13.861
32495W        W91591  29.101  40.424  11.433
32496W        W91592   7.386  27.941   5.161
32497W        W91593  15.104  15.746  11.460
32498W        W91594   5.849  22.648  11.090
32499W        W91595  20.182  29.490  13.903
32500W        W91596  24.143  34.888  13.852
32501W        W91597   6.274  15.132  13.991
32502W        W91598  37.368  39.441  12.963
32503W        W91599  29.517  34.012  10.972
32504W        W91600  10.310   9.680  11.493
32505W        W91601  38.472  28.948  12.505
32506W        W91602  11.790  32.919  14.292
32507W        W91603  12.309   9.826   2.749
32508W        W91604  29.995  40.929  12.920
32509W        W91605  11.166  12.786  10.933
32510W        W91606  36.422  25.592  12.517
32511W        W91607  26.602  13.194  12.456
32512W        W91608  30.613   9.649   3.827
32513W        W91609  14.673  12.715   4.673
32514W        W91610  14.676  44.404   2.348
32515W        W91611  35.944  40.319   2.289
32516W        W91612  14.293  18.212   0.305
32517W        W91613  14.734  34.982  12.038
32518W        W91614  39.518  10.694  14.286
32519W        W91615  32.103  10.686  13.018
32520W        W91616   0.356  31.971   1.915
32521W        W91617  16.187  31.039   1.384
32522W        W91618  11.710   8.399   0.339
32523W        W91619  26.684  43.300  14.493
32524W        W91620  20.234  39.389  13.535
32525W        W91621   9.743   7.350  13.911
32526W        W91622  23.114  25.698   1.818
32527W        W91623  44.482  22.502   3.223
32528W        W91624  38.332  41.949   1.439
32529W        W91625  14.286   5.719  14.979
32530W        W91626  37.547  42.481   2.343
32531W        W91627  31.132  11.274   1.347
32532W        W91628   4.810  30.086   1.247
32533W        W91629  18.691   0.333  11.870
32534W        W91630  19.549   7.289   1.767
32535W        W91631  40.805  31.978   3.638
32536W        W91632  21.096  40.349  14.458
32537W        W91633   9.324   4.318  13.397
32538W        W91634   6.187  17.684   1.804
32539W        W91635  24.164  18.274  11.890
32540W        W91636  29.978   6.849  14.992
32541W        W91637  22.566  37.033  10.011
32542W        W91638  24.077  31.082   3.334
32543W        W91639   1.290   5.270  11.612
32544W        W91640  11.235  14.792   1.837
32545W        W91641  44.861  36.860  14.832
32546W        W91642   9.218  44.881  13.020
32547W        W91643  27.145  37.520   2.185
32548W        W91644  27.092  16.249  10.443
32549W        W91645  17.230   5.429  14.969
32550W        W91646  27.948  37.941   1.277
32551W        W91647   2.420  36.496  14.450
32552W        W91648   1.780   7.414  11.965
32553W        W91649  40.347   8.186  10.100
32554W        W91650   5.256  21.556   1.723
32555W        W91651  23.036  22.221  12.066
32556W        W91652  34.941  44.807  13.522
32557W        W91653  34.878  28.489  13.449
32558W        W91654  39.907  34.038   3.280
32559W        W91655   6.769  19.167  13.360
32560W        W91656  42.338  39.888  14.331
32561W        W91657  16.098  41.330  13.951
32562W        W91658  39.923  12.315   2.783
32563W        W91659  40.839  34.940  14.885
32564W        W91660  30.643  15.654   4.295
32565W        W91661  24.654   6.412  12.386
32566W        W91662  44.926  10.356  14.844
32567W        W91663  21.228  17.083  14.314
32568W        W91664  11.833   2.960  14.369
32569W        W91665   8.680  29.454  12.941
32570W        W91666  19.724   5.340  14.496
32571W        W91667  17.212  24.108   2.376
32572W        W91668  41.969  40.930  12.447
32573W        W91669  21.164  27.046  14.416
32574W        W91670  28.455  10.652  11.544
32575W        W91671  31.973  42.884  12.998
32576W        W91672  30.537  18.625   4.770
32577W        W91673   1.768  24.070   1.446
32578W        W91674  36.062   0.957  10.434
32579W        W91675  34.053   5.922  12.986
32580W        W91676  12.681  15.787   1.386
32581W        W91677  39.914  42.805   1.403
32582W        W91678  33.004  13.173  12.485
32583W        W91679  10.258   3.780   2.856
32584W        W91680  11.811   5.415  10.159
32585W        W91681  11.764  36.039   0.818
32586W        W91682   5.766  20.592  14.029
32587W        W91683   1.441  21.130  11.128
32588W        W91684  17.641  15.767   1.711
32589W        W91685  41.038  20.239  14.023
32590W        W91686  12.194  40.430  13.951
32591W        W91687  25.511   9.153  14.479
32592W        W91688  29.032  39.952   2.774
32593W        W91689  28.680  40.361   2.251
32594W        W91690  22.034  15.669  11.116
32595W        W91691  41.449  44.759  14.279
32596W        W91692  27.038  36.500  11.580
32597W        W91693  38.901  41.389  14.358
32598W        W91694  25.541  34.957  12.009
32599W        W91695  28.160  17.077   3.652
32600W        W91696  18.714  37.517  14.904
32601W        W91697   1.736  20.743   4.785
32602W        W91698  13.677  34.070   4.300
32603W        W91699  14.657  13.127  11.603
32604W        W91700   1.841  20.728  12.946
32605W        W91701  33.497  35.972   3.349
32606W        W91702  15.241  19.159   2.410
32607W        W91703  36.986  44.438  14.810
32608W        W91704  38.537  24.485  12.068
32609W        W91705  36.474  20.717   4.113
32610W        W91706  25.122  11.722  12.971
32611W        W91707  38.391  29.517   2.693
32612W        W91708  35.098  14.286   2.247
32613W        W91709  21.652  31.042   4.643
32614W        W91710   8.245  30.123  12.505
32615W        W91711  23.041  21.152  14.405
32616W        W91712   5.267   3.773   0.246
32617W        W91713  14.600  23.701  11.075
32618W        W91714  26.703  38.454   4.668
32619W        W91715  40.392  22.141  12.847
32620W        W91716  12.290  24.081   0.846
32621W        W91717  16.784   4.896  14.297
32622W        W91718   6.681  26.574  13.524
32623W        W91719   4.867  24.651  12.496
32624W        W91720  39.514  41.502   1.912
32625W        W91721  23.610  10.269  12.438
32626W        W91722  18.758  41.385   1.911
32627W        W91723  40.886  25.672   1.424
32628W        W91724  13.133  39.827  12.939
32629W        W91725  10.797  38.933  10.943
32630W        W91726  36.014  25.519   2.859
32631W        W91727   5.318  35.104  10.002
32632W        W91728   9.745  32.997   0.471
32633W        W91729  14.778  17.667   1.900
32634W        W91730   7.384  44.293  14.347
32635W        W91731   3.429  41.931   1.847
32636W        W91732  26.048  10.242   4.793
32637W        W91733  25.985  30.475   0.843
32638W        W91734  39.344  34.962  12.462
32639W        W91735   6.213  39.434   4.119
32640W        W91736  38.026   3.347   3.773
32641W        W91737  20.745  26.667   0.428
32642W        W91738  39.355  13.250  11.522
32643W        W91739  16.719   2.727  10.559
32644W        W91740   4.878   3.753   0.252
32645W        W91741  42.521  44.827  12.346
32646W        W91742  40.356  18.623  10.589
32647W        W91743  38.372   1.240   4.755
32648W        W91744  21.099  19.207  13.805
32649W        W91745  43.494   0.355  12.433
32650W        W91746  14.674   0.883   0.344
32651W        W91747   0.459  27.595  13.929
32652W        W91748   3.293  44.853   3.752
32653W        W91749  40.387  37.839   2.716
32654W        W91750  13.114  44.406   0.359
32655W        W91751  19.584  29.430   4.658
32656W        W91752  35.929  38.076   0.749
32657W        W91753  20.697  22.041  10.508
32658W        W91754  34.896  31.425   3.237
32659W        W91755  43.422  23.735  14.345
32660W        W91756   2.930  41.376  13.811
32661W        W91757  43.447   5.439  13.910
32662W        W91758  30.984   7.338   2.701
32663W        W91759  11.185   9.209  13.962
32664W        W91760  21.568   8.353   1.746
32665W        W91761  39.542  15.184  12.886
32666W        W91762  38.043  16.680   1.933
32667W        W91763  28.480  33.095  13.958
32668W        W91764  19.723  29.944  10.517
32669W        W91765  33.504  14.602   1.293
32670W        W91766   0.975  29.080  12.834
32671W        W91767  15.316  25.106  11.020
32672W        W91768  35.985  38.911   3.659
32673W        W91769   9.764  36.881   1.816
32674W        W91770  37.854   4.301  14.391
32675W        W91771  23.220  37.993   4.644
32676W        W91772  40.939  28.018   0.450
32677W        W91773  30.067  44.911   2.231
32678W        W91774  20.697   9.333   2.711
32679W        W91775   4.791  37.451   0.456
32680W        W91776  22.714  13.204   2.399
32681W        W91777  14.634  30.470   0.379
32682W        W91778  33.894   8.300  13.866
32683W        W91779  29.608  31.619  13.320
32684W        W91780  14.164  17.161  13.540
32685W        W91781  31.532   2.950   2.381
32686W        W91782  26.134  12.333   4.171
32687W        W91783  15.280  34.870   1.352
32688W        W91784  42.379   6.876   3.708
32689W        W91785   8.701  27.051   3.857
32690W        W91786  14.129  14.329  13.021
32691W        W91787  35.488   1.899  13.871
32692W        W91788  43.478   5.877  13.419
32693W        W91789  44.782  41.428   0.412
32694W        W91790  37.894  19.067   0.326
32695W        W91791  40.409   6.749  14.967
32696W        W91792   1.285  43.453   4.639
32697W        W91793  34.563  19.281   4.346
32698W        W91794  43.431   1.385  11.526
32699W        W91795   4.916  14.600  11.566
32700W        W91796   9.741  27.051   1.786
32701W        W91797  16.207   3.393   3.800
32702W        W91798   6.383  21.597   0.428
32703W        W91799  23.239   9.350  11.934
32704W        W91800  10.279  23.619   0.888
32705W        W91801   3.443   6.724  14.282
32706W        W91802  26.115  13.779  11.861
32707W        W91803   4.883  13.829   4.693
32708W        W91804   7.871  24.504  12.065
32709W        W91805   1.744  10.264  11.899
32710W        W91806  13.231  36.564   2.388
32711W        W91807  40.536  18.601   0.918
32712W        W91808  38.438  17.775   2.391
32713W        W91809  22.075  18.614   1.873
32714W        W91810  10.636  30.562   2.200
32715W        W91811  34.030  24.653  13.979
32716W        W91812  16.585  25.065  14.850
32717W        W91813  20.175  32.474   1.450
32718W        W91814  40.000  17.647   3.252
32719W        W91815   2.744  33.614   4.750
32720W        W91816  16.175   1.960  11.520
32721W        W91817   6.372  32.450   0.449
32722W        W91818  29.974  16.077   1.704
32723W        W91819  21.051   6.758   0.865
32724W        W91820  30.497  40.022  14.804
32725W        W91821  43.473  18.270  13.945
32726W        W91822   8.212  15.309   4.808
32727W        W91823   8.350  13.323   2.899
32728W        W91824  29.081  32.428  13.866
32729W        W91825  24.179  26.695   0.336
32730W        W91826  32.064  11.215   0.262
32731W        W91827  15.269  11.288   3.865
32732W        W91828  44.768  33.066  12.994
32733W        W91829   7.674  19.741  13.307
32734W        W91830  25.102  27.627  13.366
32735W        W91831  35.082  12.757  13.352
32736W        W91832  31.008  17.263   2.360
32737W        W91833  18.178  36.502   0.344
32738W        W91834  13.641  18.176   3.192
32739W        W91835  37.516  25.616   2.331
32740W        W91836  28.474  31.954  14.443
32741W        W91837  40.052  30.052   2.861
32742W        W91838  15.689  14.115  14.476
32743W        W91839  37.017   5.223   1.279
32744W        W91840  30.496  18.258  14.800
32745W        W91841  24.651  15.101  14.960
32746W        W91842  25.015  19.041  12.506
32747W        W91843   7.346  33.410   1.935
32748W        W91844  28.959  36.882  13.378
32749W        W91845  16.812   2.366   3.869
32750W        W91846  30.143  41.026  13.389
32751W        W91847  37.951  10.189  11.870
32752W        W91848  42.331  36.007  14.764
32753W        W91849  11.786   9.832   0.364
32754W        W91850  26.066  44.415   4.663
32755W        W91851  28.995   7.248  14.322
32756W        W91852   5.912  15.628  11.933
32757W        W91853  22.583   5.832  13.025
32758W        W91854   0.779  33.022  14.799
32759W        W91855  37.377  21.251  10.506
32760W        W91856   8.379   0.808   2.195
32761W        W91857  25.618  27.666   1.342
32762W        W91858  23.024  29.504  12.991
32763W        W91859  11.721  16.794  11.094
32764W        W91860   0.904  27.629  11.443
32765W        W91861  28.114  22.996   4.599
32766W        W91862  22.559  25.621  10.574
32767W        W91863  40.305  26.143  14.416
32768W        W91864  11.731   5.391   0.276
32769W        W91865  26.202  18.243  11.001
32770W        W91866  30.513  23.232  11.109
32771W        W91867   3.405  19.770  14.014
32772W        W91868   5.214  11.262   2.400
32773W        W91869   4.844  30.955   3.698
32774W        W91870  15.795  41.892  10.633
32775W        W91871  14.823   9.770  11.453
32776W        W91872   8.763  25.994  14.871
32777W        W91873   3.278  35.069  13.844
32778W        W91874  13.276  15.664   1.894
32779W        W91875   9.366  38.953  10.073
32780W        W91876   7.718   0.980  10.600
32781W        W91877  34.984  17.640   1.274
32782W        W91878  11.814  20.718  14.026
32783W        W91879  13.186   1.461   1.256
32784W        W91880  16.278   0.253   1.721
32785W        W91881  28.448   6.885   4.120
32786W        W91882   9.733  10.176  12.415
32787W        W91883  43.475   6.230   4.209
32788W        W91884  22.158   5.768  11.484
32789W        W91885  41.392   9.781   0.931
32790W        W91886  32.975  32.100  14.511
32791W        W91887  17.182  22.512   4.819
32792W        W91888  17.158  33.037   0.434
32793W        W91889  29.018  38.919   2.760
32794W        W91890  14.764   0.770   1.231
32795W        W91891  32.031  11.295  14.346
32796W        W91892  38.358  15.628  13.923
32797W        W91893  41.456  16.073   4.211
32798W        W91894  16.214   9.748  13.842
32799W        W91895  33.502  12.300  11.549
32800W        W91896  15.669  17.688   2.785
32801W        W91897   7.723  41.478  14.295
32802W        W91898  12.359  28.951  14.784
32803W        W91899  31.100  21.162   3.645
32804W        W91900   2.944   7.723  12.547
32805W        W91901   7.255   0.881   3.286
32806W        W91902   2.823   6.299   4.629
32807W        W91903  43.485  35.097  10.973
32808W        W91904  22.034  39.378   2.384
32809W        W91905   6.906  21.666   2.704
32810W        W91906  38.980  18.672   0.950
32811W        W91907  27.094  30.435   1.444
32812W        W91908   0.846  39.881  10.516
32813W        W91909  20.588   0.280   4.130
32814W        W91910   2.954   5.908   0.471
32815W        W91911  41.796   6.386   3.210
32816W        W91912  35.588  19.246   2.876
32817W        W91913   3.854  39.928  10.890
32818W        W91914  31.111  32.934   4.118
32819W        W91915  23.578  34.446   0.468
32820W        W91916  28.171   4.738   2.202
32821W        W91917  10.847  36.513   1.361
32822W        W91918  25.598  17.268  14.817
32823W        W91919  36.867   3.360  13.855
32824W        W91920  32.406  11.253   3.155
32825W        W91921   4.890   5.744  10.619
32826W        W91922  22.218  40.467   2.363
32827W        W91923   5.415   5.697   2.900
32828W        W91924  15.141   6.692   3.753
32829W        W91925   5.860  33.528   3.345
32830W        W91926  12.799  16.258  12.461
32831W        W91927  13.180  27.979  11.067
32832W        W91928  18.640   1.858  11.122
32833W        W91929  17.124  40.830   0.434
32834W        W91930  44.846  37.558   2.245
32835W        W91931  42.954   4.788   3.678
32836W        W91932  12.828  29.035   1.269
32837W        W91933  21.611  40.943   0.731
32838W        W91934  36.040  24.977   9.615
32839W        W91935  28.672  13.731  14.513
32840W        W91936  19.205   5.710  14.837
32841W        W91937   4.724   4.867  10.924
32842W        W91938  34.577  29.649  11.372
32843W        W91939  35.880   6.378   2.419
32844W        W91940  10.141  22.603  11.568
32845W        W91941   7.266  33.421   0.733
32846W        W91942  16.111  19.714   0.376
32847W        W91943   9.286  16.582  12.400
32848W        W91944  38.885  28.063  13.861
32849W        W91945  10.755  33.587  11.865
32850W        W91946  41.887  41.325   3.252
32851W        W91947  37.880   6.197   3.656
32852W        W91948  23.633  35.889  13.807
32853W        W91949  34.087  33.464   1.797
32854W        W91950  16.652  29.003   4.741
32855W        W91951  27.110  41.340   4.746
32856W        W91952  39.057  16.259  13.837
32857W        W91953  35.370  32.427  12.460
32858W        W91954  29.649  10.141   3.863
32859W        W91955  29.492  21.639   0.870
32860W        W91956   6.383  39.047   4.754
32861W        W91957  29.055  24.987  14.008
32862W        W91958  20.044  25.684   1.357
32863W        W91959  17.689  36.357  12.953
32864W        W91960  22.184  29.149  13.479
32865W        W91961  16.187  17.140  14.945
32866W        W91962   1.901   8.375  10.644
32867W        W91963   1.436  22.739   4.285
32868W        W91964  37.374   2.451   0.962
32869W        W91965  23.121   3.411   3.185
32870W        W91966  14.108   0.277   1.867
32871W        W91967  33.390  31.999   2.322
32872W        W91968  18.100  26.463   2.664
32873W        W91969  37.487  36.476   0.861
32874W        W91970  31.983  34.866  14.357
32875W        W91971  30.018  36.498  10.554
32876W        W91972   6.771   4.875   1.300
32877W        W91973  36.993  12.137   4.244
32878W        W91974  39.048   8.770  11.032
32879W        W91975  13.271  38.880   3.800
32880W        W91976  13.196  38.337   4.698
32881W        W91977  31.452  18.083  13.907
32882W        W91978   3.436  43.902  14.962
32883W        W91979  33.037  20.105  14.985
32884W        W91980  28.547  17.763   4.304
32885W        W91981  18.728  41.024  13.381
32886W        W91982  33.587  19.694  12.553
32887W        W91983  42.442  22.688   0.307
32888W        W91984  37.347  14.305  12.989
32889W        W91985  23.605  35.872   1.241
32890W        W91986  41.827  44.493   9.958
32891W        W91987   1.293   4.838   4.696
32892W        W91988  17.640  25.064  14.504
32893W        W91989   3.718  21.063  13.509
32894W        W91990  28.024  13.664   3.231
32895W        W91991  26.069   5.239  14.296
32896W        W91992  35.559  13.614   3.657
32897W        W91993  44.988  30.909   4.317
32898W        W91994   7.840   3.408   0.921
32899W        W91995  30.969  27.675  13.868
32900W        W91996  44.492  40.030  14.949
32901W        W91997   7.692  20.637  13.547
32902W        W91998  29.453  14.825   4.231
32903W        W91999  30.497  18.565  14.393
32904W        W92000   1.962  36.448   5.161
32905W        W92001  10.316  42.392   1.796
32906W        W92002   6.804  26.602  12.576
32907W        W92003  40.405  16.774  13.981
32908W        W92004  38.957  29.641   4.647
32909W        W92005   0.294  41.318  11.013
32910W        W92006   5.731  42.392  10.643
32911W        W92007  21.614  27.002   4.236
32912W        W92008   1.784  27.051   2.847
32913W        W92009  38.445  20.551   4.155
32914W        W92010  19.047  41.949   3.301
32915W        W92011   2.466  19.557   5.255
32916W        W92012  42.359   1.871  13.364
32917W        W92013  11.828  25.663  10.456
32918W        W92014  28.082  23.200  10.499
32919W        W92015  30.507  29.650  13.058
32920W        W92016  42.297  37.476   1.714
32921W        W92017   2.858  42.826  13.823
32922W        W92018  42.789  40.504  13.803
32923W        W92019  14.605  38.558  10.961
32924W        W92020   4.271  44.960   1.724
32925W        W92021  12.254   9.711   0.343
32926W        W92022  28.016  12.783  14.418
32927W        W92023  44.997  35.435   3.244
32928W        W92024   1.959  37.567  14.276
32929W        W92025  39.503   6.777  14.820
32930W        W92026  42.351  18.069   2.894
32931W        W92027  11.357  23.715   2.239
32932W        W92028  44.272  36.018  11.398
32933W        W92029   8.184  23.221   0.965
32934W        W92030   3.248  11.625  10.929
32935W        W92031   8.392  41.378  13.935
32936W        W92032  41.441  44.807   1.792
32937W        W92033  44.459  30.521   2.261
32938W        W92034  26.015  11.856   4.689
32939W        W92035   0.959  19.058   3.803
32940W        W92036  14.616  25.541   3.208
32941W        W92037  17.129  24.501  14.817
32942W        W92038   8.406  16.136  13.032
32943W        W92039  41.347  32.600  10.536
32944W        W92040  16.656  26.695   2.344
32945W        W92041   9.302  28.454   3.660
32946W        W92042  20.610  14.177  14.344
32947W        W92043  10.197  42.353  13.479
32948W        W92044  13.788  39.508  10.513
32949W        W92045  31.964  39.319   2.694
32950W        W92046  38.489   5.889  11.903
32951W        W92047  41.988   0.865  10.435
32952W        W92048   0.831  22.027  10.130
32953W        W92049  24.663  17.202   4.671
32954W        W92050  20.216  30.453  12.921
32955W        W92051   9.348  22.639  12.486
32956W        W92052  24.060  32.061   5.255
32957W        W92053  37.434   0.280   3.811
32958W        W92054  33.930  33.488   2.764
32959W        W92055  21.701  12.252   2.771
32960W        W92056  44.898  20.248   3.243
32961W        W92057  14.279  28.101   0.757
32962W        W92058  22.206  28.932   2.897
32963W        W92059  12.124  37.873   1.352
32964W        W92060  43.826   5.211  11.504
32965W        W92061  17.562  31.985  10.951
32966W        W92062  42.385  21.142  13.434
32967W        W92063  35.077  32.581   2.187
32968W        W92064   1.309  32.579   2.880
32969W        W92065   0.462  31.547   1.736
32970W        W92066  24.578  30.052   0.438
32971W        W92067  36.546   0.308  10.615
32972W        W92068  41.303   5.249   4.329
32973W        W92069  25.524  36.019   5.641
32974W        W92070  40.901  35.080   0.249
32975W        W92071  34.443   2.260  14.829
32976W        W92072  10.277  12.798  14.344
32977W        W92073  12.117  43.917   4.215
32978W        W92074  32.944  36.935   0.462
32979W        W92075  23.509  35.444   4.691
32980W        W92076  14.119  34.412  11.388
32981W        W92077  13.771  34.061  10.993
32982W        W92078   4.324  10.193   3.808
32983W        W92079   4.943  21.258   3.681
32984W        W92080  18.280  34.526   9.963
32985W        W92081  14.659  20.585  13.995
32986W        W92082  26.071  27.185   3.324
32987W        W92083  14.333   9.869   4.292
32988W        W92084  38.333   5.764   1.797
32989W        W92085  21.073   5.859  12.970
32990W        W92086  17.696  20.700   2.358
32991W        W92087   4.281  32.971   1.341
32992W        W92088   6.754  35.952   0.809
32993W        W92089  34.109  22.591   4.231
32994W        W92090  33.545  18.654  14.859
32995W        W92091  16.685   0.299   2.250
32996W        W92092  26.955   2.422   4.164
32997W        W92093  32.060  17.669  10.511
32998W        W92094  31.515  23.631  12.578
32999W        W92095  28.180  28.121  12.088
33000W        W92096  37.353   1.459   4.622
33001W        W92097  40.967  28.563   0.962
33002W        W92098  37.373   9.788   0.785
33003W        W92099  38.370  10.659  13.817
33004W        W92100  34.492  32.140  14.286
33005W        W92101  22.225  13.603   1.813
33006W        W92102  36.069  16.650  13.539
33007W        W92103  33.566  42.311   2.417
33008W        W92104  30.417  25.205  14.393
33009W        W92105   1.738  20.707   3.768
33010W        W92106  14.682  12.749  11.010
33011W        W92107  15.775  11.232  13.951
33012W        W92108   2.389  17.563   3.320
33013W        W92109  33.062  35.947  13.449
33014W        W92110  22.724  24.112   1.805
33015W        W92111   2.408  33.513   2.291
33016W        W92112  27.176  18.612   1.399
33017W        W92113  28.982  12.289   0.416
33018W        W92114  13.794   7.335   1.909
33019W        W92115  10.860  10.863  10.536
33020W        W92116  11.856  39.451  14.450
33021W        W92117  32.550  37.544   9.925
33022W        W92118  22.101  22.108  12.846
33023W        W92119   3.265  34.453  13.803
33024W        W92120  15.114  12.827   1.826
33025W        W92121  42.471  33.993   1.714
33026W        W92122  24.721  18.296   4.204
33027W        W92123  21.151   1.867   3.284
33028W        W92124  25.209  44.387   4.811
33029W        W92125  38.390  20.688   4.835
33030W        W92126  36.043   9.664  14.395
33031W        W92127  26.692  31.564  14.858
33032W        W92128  17.749  39.316  13.517
33033W        W92129  34.873  24.637  12.946
33034W        W92130  15.729  14.664   1.259
33035W        W92131   8.398  26.185   0.941
33036W        W92132  41.006  40.421   3.759
33037W        W92133  22.132   1.307  11.550
33038W        W92134  41.864  41.846   0.873
33039W        W92135   7.221  35.391   4.603
33040W        W92136   2.455  35.565   1.221
33041W        W92137  29.666  11.708   0.457
33042W        W92138   9.728  44.898  14.905
33043W        W92139  14.804  16.195  11.552
33044W        W92140  32.890  30.061  10.937
33045W        W92141  17.165  29.667   9.992
33046W        W92142  14.210  25.076   3.237
33047W        W92143  17.775  26.131   4.270
33048W        W92144  17.751  44.795   1.804
33049W        W92145   4.252  17.627   3.816
33050W        W92146  16.271   2.867   1.849
33051W        W92147  41.890  30.505   2.401
33052W        W92148  32.035   3.786  10.924
33053W        W92149  37.997   8.744   5.118
33054W        W92150  36.347  37.054  13.036
33055W        W92151  31.430  24.987   2.196
33056W        W92152  27.689  27.445  11.577
33057W        W92153  34.054   9.371  11.487
33058W        W92154  22.038  33.509   0.784
33059W        W92155  33.904  16.738   1.711
33060W        W92156  34.001  31.641   4.739
33061W        W92157   4.336  20.607   2.788
33062W        W92158  26.470   5.910  11.604
33063W        W92159  30.981  44.400  12.433
33064W        W92160  34.992  39.819   4.700
33065W        W92161   5.853   3.232   1.763
33066W        W92162  41.884  43.412  12.086
33067W        W92163  34.483   0.772  11.999
33068W        W92164  13.617   9.769   1.266
33069W        W92165  25.151  43.354  12.559
33070W        W92166  36.413  43.958  13.044
33071W        W92167  25.168  17.078   3.799
33072W        W92168  25.045  18.226   0.338
33073W        W92169   7.756  11.289   3.225
33074W        W92170  22.169  41.514  10.986
33075W        W92171  33.519  15.690   1.244
33076W        W92172  25.617   5.886   1.779
33077W        W92173  16.318  33.072  12.857
33078W        W92174   8.303   6.197   4.826
33079W        W92175  32.093  23.519  12.824
33080W        W92176  20.764   5.767  11.436
33081W        W92177  36.554  39.497   1.818
33082W        W92178  42.805   8.741   4.296
33083W        W92179  11.289  39.514   4.599
33084W        W92180  27.601   6.352   2.825
33085W        W92181  14.179   0.306  14.784
33086W        W92182  33.585  25.114   2.682
33087W        W92183   5.295  15.236  14.424
33088W        W92184  21.262  29.983   1.246
33089W        W92185  43.810  18.690  12.368
33090W        W92186  39.536  39.978  14.853
33091W        W92187  19.569  29.461   1.715
33092W        W92188   8.194  15.646   1.340
33093W        W92189  29.953  28.607  13.368
33094W        W92190  30.001   8.260  10.507
33095W        W92191   1.399   9.773  13.987
33096W        W92192   5.333   0.979  11.065
33097W        W92193   6.198  16.742   4.279
33098W        W92194  11.779   1.292   4.710
33099W        W92195  27.035  44.483  11.900
33100W        W92196  32.006  39.827  14.322
33101W        W92197   3.332  19.174  14.876
33102W        W92198  14.777  30.134   2.745
33103W        W92199  44.420  28.057   0.903
33104W        W92200  23.088   4.718   0.903
33105W        W92201  23.029  44.392   1.855
33106W        W92202  28.508  13.724   0.727
33107W        W92203  39.859  40.797   2.231
33108W        W92204  36.497  24.153   0.470
33109W        W92205   4.738   8.245   3.339
33110W        W92206  39.928  39.829  14.400
33111W        W92207  34.030  17.180  11.999
33112W        W92208  28.507  26.002   1.290
33113W        W92209   8.211   5.745   3.269
33114W        W92210  12.300   7.758  14.909
33115W        W92211  19.651  22.676  11.492
33116W        W92212  22.671  16.290  11.910
33117W        W92213  13.627  38.371   3.344
33118W        W92214  44.962  22.632  12.378
33119W        W92215   4.387   7.356   3.382
33120W        W92216  29.576   5.832  10.022
33121W        W92217  23.521  30.427  11.429
33122W        W92218  43.409   5.849  12.850
33123W        W92219  19.694   5.723   2.877
33124W        W92220  14.268  39.933  12.999
33125W        W92221  24.041  38.570   3.314
33126W        W92222  25.970  37.840   3.802
33127W        W92223   0.939  24.660   4.707
33128W        W92224  12.360  27.075  10.017
33129W        W92225   0.315  36.550  11.371
33130W        W92226  44.426  41.514  14.906
33131W        W92227  41.373   8.873  14.998
33132W        W92228  32.553   0.366  10.892
33133W        W92229   7.324  16.600   0.758
33134W        W92230  44.350  12.330   4.745
33135W        W92231  27.533  42.855   4.743
33136W        W92232  40.006  27.629   1.441
33137W        W92233  40.036   2.289  10.437
33138W        W92234   9.276  10.287  14.423
33139W        W92235  22.570  42.846   4.202
33140W        W92236  23.622  22.203  11.103
33141W        W92237  40.468  14.340  12.876
33142W        W92238  28.609  40.851   0.902
33143W        W92239  20.079  18.740  14.289
33144W        W92240   2.441  41.379   2.395
33145W        W92241  16.088  16.740   2.269
33146W        W92242  29.431  23.059  14.762
33147W        W92243  26.993  16.184  10.987
33148W        W92244  27.671  18.128   1.927
33149W        W92245  30.090  10.845   1.864
33150W        W92246  29.554  26.611  10.123
33151W        W92247   2.864  41.795  12.381
33152W        W92248   5.433  22.194   3.307
33153W        W92249  10.775   3.325   4.656
33154W        W92250  14.167  24.095  12.052
33155W        W92251  42.801  18.770  14.839
33156W        W92252  32.076   2.780  13.387
33157W        W92253  15.789   1.275  14.761
33158W        W92254   3.862  21.730   0.421
33159W        W92255   9.793  35.440  11.001
33160W        W92256   5.279  13.754   3.845
33161W        W92257  43.376  10.765   0.436
33162W        W92258   7.214  24.179   1.446
33163W        W92259  43.886  42.372   1.795
33164W        W92260  26.600  10.269  10.408
33165W        W92261  37.486  28.968  12.455
33166W        W92262  42.886  42.356  14.778
33167W        W92263  35.434  19.170   1.923
33168W        W92264  43.773  30.622  12.852
33169W        W92265  13.645  36.385  14.941
33170W        W92266  10.802  20.742  12.949
33171W        W92267  16.729  44.878   0.298
33172W        W92268  27.449  41.425  12.570
33173W        W92269  20.033  22.191  12.555
33174W        W92270  16.168  38.514   1.792
33175W        W92271  24.577   8.371  10.529
33176W        W92272  35.482  31.946  11.933
33177W        W92273  23.986  13.263  10.551
33178W        W92274   2.364  33.469  12.570
33179W        W92275   0.896   0.988  13.515
33180W        W92276  10.279   7.314  13.910
33181W        W92277  44.883   7.892   4.798
33182W        W92278  35.469  44.378  14.467
33183W        W92279  10.691  29.127   4.154
33184W        W92280  43.440   4.777   1.819
33185W        W92281  34.464  12.826  11.443
33186W        W92282  31.056  43.271  12.920
33187W        W92283  40.353  42.816  12.052
33188W        W92284   3.396  38.530   3.279
33189W        W92285  39.448  22.056   0.396
33190W        W92286   2.776   3.427   2.822
33191W        W92287  23.103  34.387  12.921
33192W        W92288  27.187  41.829  13.041
33193W        W92289  33.909  29.014  14.859
33194W        W92290  24.563  41.417   4.297
33195W        W92291   0.296  38.862  14.398
33196W        W92292  19.635  12.654  13.847
33197W        W92293  23.092   3.905  14.913
33198W        W92294  29.993  31.594  11.547
33199W        W92295  32.473  37.004   0.891
33200W        W92296   4.876  37.853  11.563
33201W        W92297  12.360   9.355  12.070
33202W        W92298  17.095   0.330   4.251
33203W        W92299   6.360  26.683   1.430
33204W        W92300  33.086  24.661   1.720
33205W        W92301   5.217  35.381   4.253
33206W        W92302  21.256  37.068  11.474
33207W        W92303  17.762  40.354   3.632
33208W        W92304  29.605   5.349   0.952
33209W        W92305  37.991  21.251  14.328
33210W        W92306  41.956  40.499   2.408
33211W        W92307  43.282  15.121  14.832
33212W        W92308  44.788  11.748   4.819
33213W        W92309  41.868  28.145  13.385
33214W        W92310  13.666  40.004  10.947
33215W        W92311   6.685  22.594  11.914
33216W        W92312   6.303   6.244  11.397
33217W        W92313   9.849  19.117   2.882
33218W        W92314  41.883  27.036  12.472
33219W        W92315  27.584  38.555   0.376
33220W        W92316   6.334  25.176   1.839
33221W        W92317  19.560  40.983  13.006
33222W        W92318  13.265  24.085  12.361
33223W        W92319  41.853  17.731  10.576
33224W        W92320  31.608  40.940  12.945
33225W        W92321  16.163  25.661  11.938
33226W        W92322  14.278  13.141   1.878
33227W        W92323  42.948   6.275   1.414
33228W        W92324  28.580  44.908  11.544
33229W        W92325  11.808  18.195  10.161
33230W        W92326  40.049  40.880   0.284
33231W        W92327  20.616  39.327  13.352
33232W        W92328  33.395   6.768   2.393
33233W        W92329   7.235  19.209  13.337
33234W        W92330   1.762  30.078  11.417
33235W        W92331  40.860  25.965  10.974
33236W        W92332   2.778  20.735  12.457
33237W        W92333  22.672  41.523   3.684
33238W        W92334  23.686   3.836   0.775
33239W        W92335  38.493   1.413  14.975
33240W        W92336   5.818  35.475  12.011
33241W        W92337  41.934   0.842   0.877
33242W        W92338  23.547  40.372  10.432
33243W        W92339  18.062  30.603   2.742
33244W        W92340  34.065  12.645   1.783
33245W        W92341  13.287  35.002  12.377
33246W        W92342   0.376   1.239  12.429
33247W        W92343  14.300  19.625   2.867
33248W        W92344  30.040  12.778   2.730
33249W        W92345  28.146   4.207   4.260
33250W        W92346   5.838  37.842  12.385
33251W        W92347  27.057  19.224   3.827
33252W        W92348   8.284  16.788  14.914
33253W        W92349  40.526  29.561  13.946
33254W        W92350  13.220  38.932   2.822
33255W        W92351   8.656  44.862  11.904
33256W        W92352  39.000  41.447   1.919
33257W        W92353  20.693  21.246   1.426
33258W        W92354   9.756  17.664   3.802
33259W        W92355  34.373  30.957   3.236
33260W        W92356  32.050  31.575   3.190
33261W        W92357  41.367  32.405   0.801
33262W        W92358  12.694   3.344  14.949
33263W        W92359  38.069  44.813   2.672
33264W        W92360  15.677   4.337   4.192
33265W        W92361  34.021   9.780  10.086
33266W        W92362  10.845  23.223  10.571
33267W        W92363  22.177  37.500  13.049
33268W        W92364  24.496  26.498   1.856
33269W        W92365  29.597   4.799   0.919
33270W        W92366   1.303  13.231   1.760
33271W        W92367  22.067  22.138   2.884
33272W        W92368  34.527   3.339  10.086
33273W        W92369  36.978  28.455  13.926
33274W        W92370  23.239  31.450  13.423
33275W        W92371   8.390  21.262   2.846
33276W        W92372   1.390  15.219  14.412
33277W        W92373  28.063   4.239   5.234
33278W        W92374  29.636  33.556  12.942
33279W        W92375  42.873   2.301  11.858
33280W        W92376  13.615   7.762   3.709
33281W        W92377  43.465  36.492  10.617
33282W        W92378  28.125  27.038   0.924
33283W        W92379  28.073  15.707   5.240
33284W        W92380  19.621  43.485   0.345
33285W        W92381  24.179  23.124  11.543
33286W        W92382   7.685  11.724   4.799
33287W        W92383  17.752   4.922   3.191
33288W        W92384  25.556   1.971   1.695
33289W        W92385  10.334  22.619  14.798
33290W        W92386  28.052  22.693  13.520
33291W        W92387   0.332  41.336  14.348
33292W        W92388  23.239   1.826  13.351
33293W        W92389   7.287  32.588  12.548
33294W        W92390   5.222   7.802   2.306
33295W        W92391  19.049  32.633   0.294
33296W        W92392  14.164   1.247  10.964
33297W        W92393  27.455   7.309   1.365
33298W        W92394  13.663  12.141   1.829
33299W        W92395  21.642  44.854   0.361
33300W        W92396  23.026  34.471   5.124
33301W        W92397  12.691  18.170   3.264
33302W        W92398  27.142  28.152   2.835
33303W        W92399  27.180   2.444  10.998
33304W        W92400   7.232   4.210   0.441
33305W        W92401  42.991  26.026   0.755
33306W        W92402   2.797  10.342   0.373
33307W        W92403  35.033  13.119  11.551
33308W        W92404  34.450   3.418  10.628
33309W        W92405  41.366  39.062  12.405
33310W        W92406  33.473  27.035  11.553
33311W        W92407  31.140   9.806  11.492
33312W        W92408  13.760  35.929  11.058
33313W        W92409  14.833  36.444  13.795
33314W        W92410  30.023  26.602   9.443
33315W        W92411   4.770  31.633  10.561
33316W        W92412  16.241  32.480  14.774
33317W        W92413  33.915  36.347  13.928
33318W        W92414  41.891  28.010   2.339
33319W        W92415   3.741  33.564   2.356
33320W        W92416  20.747  36.091   3.725
33321W        W92417  38.368   8.877  14.279
33322W        W92418  37.857   4.852  12.980
33323W        W92419  20.076  19.662   2.891
33324W        W92420  39.412  21.032  11.523
33325W        W92421  38.881  21.576   3.745
33326W        W92422  35.076  37.427  14.498
33327W        W92423  32.599  44.859   4.626
33328W        W92424   1.737  24.506   2.353
33329W        W92425  19.249  13.320   3.268
33330W        W92426  20.579  21.649   4.179
33331W        W92427  32.466  24.112  13.880
33332W        W92428  34.011  11.367  12.503
33333W        W92429  39.001  17.704   2.270
33334W        W92430  13.728  23.108   3.282
33335W        W92431   1.775   0.949  13.019
33336W        W92432  28.052  18.568   0.800
33337W        W92433   4.276  40.484  13.020
33338W        W92434  25.024  40.330   3.728
33339W        W92435   3.830   8.660   3.320
33340W        W92436  42.381  29.135  14.796
33341W        W92437  19.278  29.925  13.438
33342W        W92438  24.564  17.718  13.943
33343W        W92439  26.642  10.822   1.248
33344W        W92440  42.336  39.546   3.250
33345W        W92441  43.831  11.805   3.705
33346W        W92442  44.901  23.567  13.964
33347W        W92443   7.316  36.567   0.290
33348W        W92444  23.492  21.219   3.832
33349W        W92445  26.676  10.206   1.735
33350W        W92446  38.993  31.423  12.991
33351W        W92447  30.079  21.092  13.529
33352W        W92448  43.424   0.787   3.360
33353W        W92449   5.828  13.159  11.027
33354W        W92450  28.058   6.256  12.375
33355W        W92451  41.810  42.514  10.542
33356W        W92452   3.255  33.547  12.494
33357W        W92453  12.198   3.246  11.479
33358W        W92454  38.537  42.320  10.488
33359W        W92455  13.186   9.281  10.947
33360W        W92456   7.884  31.628  11.473
33361W        W92457  30.059  23.030   2.768
33362W        W92458  12.622  27.447   0.819
33363W        W92459  41.893  22.579  11.449
33364W        W92460   6.831  19.640   3.278
33365W        W92461  27.635  15.275   0.301
33366W        W92462  20.270   4.356   1.393
33367W        W92463  22.640  41.470   1.360
33368W        W92464  19.731  34.597  14.418
33369W        W92465  16.657  39.918  14.295
33370W        W92466  11.670  27.137   1.697
33371W        W92467  37.882   5.864   1.830
33372W        W92468   9.178  37.390  13.875
33373W        W92469  40.491  30.951  12.372
33374W        W92470  31.954  31.054   1.417
33375W        W92471  29.990  27.036   4.187
33376W        W92472  21.178  14.281  10.490
33377W        W92473  37.512  20.182  11.573
33378W        W92474  16.134   1.918  12.540
33379W        W92475   0.821   1.936  10.515
33380W        W92476   0.268  37.853  13.436
33381W        W92477  39.884   2.934  10.489
33382W        W92478  21.697  20.199  11.896
33383W        W92479  44.979  23.029   4.770
33384W        W92480  15.736  21.746  10.971
33385W        W92481  43.914   4.843   3.803
33386W        W92482  39.347  33.494  13.519
33387W        W92483  30.577  30.554   0.828
33388W        W92484  36.088  39.359   1.304
33389W        W92485   9.219  33.623   0.758
33390W        W92486  34.486  26.096   3.754
33391W        W92487  23.666   6.898  12.043
33392W        W92488  13.754   3.230  12.088
33393W        W92489   4.223  20.668  13.411
33394W        W92490  33.041   6.333  11.493
33395W        W92491   8.815  12.224  13.366
33396W        W92492   0.906   8.828   0.874
33397W        W92493   6.300  10.322  12.044
33398W        W92494  24.623  42.521   3.291
33399W        W92495  26.080  27.482   0.360
33400W        W92496  20.721  19.283  10.425
33401W        W92497  37.515  15.234   2.668
33402W        W92498   3.259  35.872   4.264
33403W        W92499   5.418   7.826   1.788
33404W        W92500  13.262  19.589   4.767
33405W        W92501  30.115  15.787   0.275
33406W        W92502   5.422  38.014   1.733
33407W        W92503  43.318  26.566  14.495
33408W        W92504   6.899  32.636   4.824
33409W        W92505  21.531  40.351  14.279
33410W        W92506  33.107   2.963   4.726
33411W        W92507  25.581   4.389   3.215
33412W        W92508  25.117  25.967  10.920
33413W        W92509  43.390   0.893   1.818
33414W        W92510  10.262  22.101   2.890
33415W        W92511  10.337   4.209   1.925
33416W        W92512  14.747  20.658   2.798
33417W        W92513  27.608  27.120  13.868
33418W        W92514  38.522   3.265  11.609
33419W        W92515  29.455  44.403  10.565
33420W        W92516   5.220  37.973   3.199
33421W        W92517  22.589  24.033   0.729
33422W        W92518  23.627  13.177   0.937
33423W        W92519  43.998   1.892   4.218
33424W        W92520   0.472  33.047   2.263
33425W        W92521  37.087  10.271  12.549
33426W        W92522  14.700  28.185   1.889
33427W        W92523  40.876  36.920   2.750
33428W        W92524  32.117   9.693  12.085
33429W        W92525   6.415   9.381   2.664
33430W        W92526   8.345  17.236  14.374
33431W        W92527   1.464  26.533  13.835
33432W        W92528  28.536  12.118   0.407
33433W        W92529  22.219  25.211  14.830
33434W        W92530  25.604  37.573   3.308
33435W        W92531  22.559  21.706  13.445
33436W        W92532  21.743   4.817  14.486
33437W        W92533  37.359  20.692   3.677
33438W        W92534  32.443  19.215   3.686
33439W        W92535  28.460   8.815   4.663
33440W        W92536  22.644  35.545   4.275
33441W        W92537  33.912  38.863  10.584
33442W        W92538  35.988  15.177  13.895
33443W        W92539   8.728   7.830  13.817
33444W        W92540   3.764  42.358  10.469
33445W        W92541  41.443  16.118   3.669
33446W        W92542  29.594  39.390   2.711
33447W        W92543   7.390  29.058  11.997
33448W        W92544  27.074   5.263  11.594
33449W        W92545  10.702  23.201  12.052
33450W        W92546  30.965  39.005  13.975
33451W        W92547   9.311  20.160   3.864
33452W        W92548  27.132  10.634  12.057
33453W        W92549  12.120  18.056  13.818
33454W        W92550  15.242  39.502  10.962
33455W        W92551  13.271  18.559  10.900
33456W        W92552  15.651   8.333   1.908
33457W        W92553  36.059  40.527  12.035
33458W        W92554  28.014  24.512   1.215
33459W        W92555  16.088  31.543   4.295
33460W        W92556  42.510  41.034   4.142
33461W        W92557   2.260  40.492   3.186
33462W        W92558  26.548   2.733   2.863
33463W        W92559  43.513  38.388  13.375
33464W        W92560   5.763  31.647  12.944
33465W        W92561  35.956  41.944   0.257
33466W        W92562  37.901   5.370   3.779
33467W        W92563  41.337  27.996   3.195
33468W        W92564  21.182  26.664  14.924
33469W        W92565  32.502  18.689  12.044
33470W        W92566  26.699  33.440   2.220
33471W        W92567  35.470  26.674  13.473
33472W        W92568  29.021  16.722  11.103
33473W        W92569  21.211  17.783   2.783
33474W        W92570  11.704  35.600   3.250
33475W        W92571   5.334  19.144   3.789
33476W        W92572  21.590  37.419  14.800
33477W        W92573  24.208  40.324   0.956
33478W        W92574  13.684  25.093  13.315
33479W        W92575  12.360  20.101  12.887
33480W        W92576  22.596  44.304   0.469
33481W        W92577  25.153   5.827   0.812
33482W        W92578  17.179  38.532  10.898
33483W        W92579  18.698  33.502  11.004
33484W        W92580   4.324   4.715  14.927
33485W        W92581  24.977  41.310   0.888
33486W        W92582  26.992  24.548  10.467
33487W        W92583  20.073  18.778  12.457
33488W        W92584   6.682  20.754  13.005
33489W        W92585  40.052   4.223  12.824
33490W        W92586  30.019  39.448   4.825
33491W        W92587  22.703   9.163  12.520
33492W        W92588  25.963   6.891   1.895
33493W        W92589  24.215  34.887   2.731
33494W        W92590  22.234  34.449   0.263
33495W        W92591  38.561  12.637  10.039
33496W        W92592  37.582  15.252   0.453
33497W        W92593  32.040   5.220  12.968
33498W        W92594  22.655  12.734  10.977
33499W        W92595   4.379  25.587   5.706
33500W        W92596  22.039  43.478   4.155
33501W        W92597  29.645  20.053  12.507
33502W        W92598  25.531   2.783   3.732
33503W        W92599   1.465   4.884   0.943
33504W        W92600  37.962  44.813  13.017
33505W        W92601  34.107  18.187   4.263
33506W        W92602  32.436  19.233   1.708
33507W        W92603  15.197  32.995   0.343
33508W        W92604  16.713  28.659   4.303
33509W        W92605  37.346  21.162  14.885
33510W        W92606  39.512  17.226  12.503
33511W        W92607  10.788  19.177  13.454
33512W        W92608   1.852  23.206  13.908
33513W        W92609   7.836  25.594   1.433
33514W        W92610   6.392   2.758   4.758
33515W        W92611  22.042  33.876   4.836
33516W        W92612  38.852   4.907   2.232
33517W        W92613   7.778  43.281  14.866
33518W        W92614  23.619  40.799  12.903
33519W        W92615  40.324  44.283  13.978
33520W        W92616   3.421   2.379  12.467
33521W        W92617  23.658  43.376  12.911
33522W        W92618   4.776  41.985   2.413
33523W        W92619  26.109  33.128  12.396
33524W        W92620  22.170  37.058  12.381
33525W        W92621   2.866   3.453  11.555
33526W        W92622  40.313   1.820   0.271
33527W        W92623   9.704  40.458  14.493
33528W        W92624  25.645  14.638  13.946
33529W        W92625   9.678  39.943  13.882
33530W        W92626  34.065  14.641   4.656
33531W        W92627  38.490   4.370   4.195
33532W        W92628  33.875  33.472  11.388
33533W        W92629  29.596   5.314   1.329
33534W        W92630  30.036   3.800  10.542
33535W        W92631  23.606  16.263  14.391
33536W        W92632   3.753  20.594  14.965
33537W        W92633  11.328  42.870   0.902
33538W        W92634  33.923  12.336  11.552
33539W        W92635  12.854  40.455  11.012
33540W        W92636  15.623  23.188  14.871
33541W        W92637  14.335  12.628  10.567
33542W        W92638  24.004  31.114  13.492
33543W        W92639  33.465  40.915   2.227
33544W        W92640  22.128  35.542   3.864
33545W        W92641  27.622  30.071   0.946
33546W        W92642  20.073  25.151  10.454
33547W        W92643  30.589  23.201  14.436
33548W        W92644   6.341  27.651   0.794
33549W        W92645  15.727  31.460   3.244
33550W        W92646  13.129  23.601   2.290
33551W        W92647  40.347  35.955  10.460
33552W        W92648  21.522  25.675   2.184
33553W        W92649  28.130  26.538  11.445
33554W        W92650  42.354  20.072   4.327
33555W        W92651  13.242  37.842  14.453
33556W        W92652   4.253  23.170  13.015
33557W        W92653  27.995  15.232  10.572
33558W        W92654  29.956  43.875   0.299
33559W        W92655  22.696  28.529   0.321
33560W        W92656  16.621  11.318   1.431
33561W        W92657  16.103  31.997  10.976
33562W        W92658   0.893   0.367   4.822
33563W        W92659  37.999  39.313   1.215
33564W        W92660  40.927  29.644  12.449
33565W        W92661  29.149  27.019   2.232
33566W        W92662  38.564  38.021   0.832
33567W        W92663  24.482  44.831   2.872
33568W        W92664  33.940  42.928  10.523
33569W        W92665  19.086  39.913  13.911
33570W        W92666  17.290   0.765   2.417
33571W        W92667  13.222  32.549   3.846
33572W        W92668  40.409   7.747   9.971
33573W        W92669  39.332  41.041  14.298
33574W        W92670  24.047  42.884   4.333
33575W        W92671  43.982  32.946  12.532
33576W        W92672  41.010  22.684  13.420
33577W        W92673  33.974   8.679   1.929
33578W        W92674  13.806  39.011   3.256
33579W        W92675  29.605  13.744  11.061
33580W        W92676  36.532  34.467   1.775
33581W        W92677  27.192  42.886  13.932
33582W        W92678  43.339  29.092   4.248
33583W        W92679  22.026  29.053   3.846
33584W        W92680  37.574  30.014  14.027
33585W        W92681  41.434  41.321   4.128
33586W        W92682  11.632  18.763  12.357
33587W        W92683   8.402   3.325  12.412
33588W        W92684  28.088  36.068  13.418
33589W        W92685  36.868   6.266  14.348
33590W        W92686   4.222  31.944   3.807
33591W        W92687  34.441  30.104  11.919
33592W        W92688  17.628  44.837  12.359
33593W        W92689   5.279  39.481  13.898
33594W        W92690  36.380   1.754   3.851
33595W        W92691  25.214   8.277  12.392
33596W        W92692  16.303  27.448   2.388
33597W        W92693  35.579  13.164   1.320
33598W        W92694   0.952  42.425   1.849
33599W        W92695  29.137  17.566  12.071
33600W        W92696   3.774  13.161   0.743
33601W        W92697  37.552  19.044   2.766
33602W        W92698  38.995  20.047   2.293
33603W        W92699  30.108  12.751   0.443
33604W        W92700  14.324  42.340  12.003
33605W        W92701  25.041  24.679  10.577
33606W        W92702  37.419  10.381   1.912
33607W        W92703   4.851  37.993   2.821
33608W        W92704  10.242  27.944  13.518
33609W        W92705   7.723  37.537   2.404
33610W        W92706  38.882   3.388  12.364
33611W        W92707  15.104  41.413   4.614
33612W        W92708  33.415  29.519   4.792
33613W        W92709  42.018  42.455   1.917
33614W        W92710  32.626  23.996   1.736
33615W        W92711  35.968   9.757   1.259
33616W        W92712  41.947  34.073  13.468
33617W        W92713  32.026   9.239  11.455
33618W        W92714  13.796   5.254   3.783
33619W        W92715  26.991   7.404  11.117
33620W        W92716  10.226  22.530   5.294
33621W        W92717  15.813   6.694  13.444
33622W        W92718  43.370   3.857   2.353
33623W        W92719  19.609   4.398   3.326
33624W        W92720  31.005   1.272   4.252
33625W        W92721  18.677  10.234  11.472
33626W        W92722  10.855  21.588  13.842
33627W        W92723  41.479  28.036   2.803
33628W        W92724  39.910  43.358   3.650
33629W        W92725  16.807  33.475  10.095
33630W        W92726  38.842  36.388   1.275
33631W        W92727   8.825  30.122   3.239
33632W        W92728  18.658  14.275  10.889
33633W        W92729  22.100  21.706   2.742
33634W        W92730  22.042  35.080   1.761
33635W        W92731  35.991   3.881  12.477
33636W        W92732  32.001   3.285  13.325
33637W        W92733  36.375  38.961  10.467
33638W        W92734  36.085   7.716  11.992
33639W        W92735   0.842  29.057  11.405
33640W        W92736  20.064  35.584   1.247
33641W        W92737  12.758  29.961   1.439
33642W        W92738  30.985  22.046   0.311
33643W        W92739  17.631  35.884   5.143
33644W        W92740  16.674  33.471  12.994
33645W        W92741  37.369   6.862   2.708
33646W        W92742  13.763   7.728   4.677
33647W        W92743  33.443  19.575   1.769
33648W        W92744  37.338  35.493   1.799
33649W        W92745   3.329  44.366  12.964
33650W        W92746  10.257  39.546   3.644
33651W        W92747   1.244  41.442   4.127
33652W        W92748  17.702   3.830  12.579
33653W        W92749  29.122  41.437   4.322
33654W        W92750  29.073  22.602   3.188
33655W        W92751  37.343  34.975  11.456
33656W        W92752  11.637  22.553   1.329
33657W        W92753  11.861  39.938  12.457
33658W        W92754  17.141  15.322   2.812
33659W        W92755  22.102  26.107   1.788
33660W        W92756   0.743  32.987  13.043
33661W        W92757  10.369  36.370   1.739
33662W        W92758  24.714  26.669   4.669
33663W        W92759  21.554  21.164   1.346
33664W        W92760  20.037   8.326   2.780
33665W        W92761  37.353  15.309   3.385
33666W        W92762  31.536  17.708  12.963
33667W        W92763  32.395  17.249  11.935
33668W        W92764  33.067  36.457   0.257
33669W        W92765  38.383   4.204  12.545
33670W        W92766  26.156  29.643  10.441
33671W        W92767   2.938   8.781   1.296
33672W        W92768  37.340  26.645   1.223
33673W        W92769  14.115  20.214   1.827
33674W        W92770   9.667   9.189   3.661
33675W        W92771   2.822   1.765   1.898
33676W        W92772  11.161  44.425   2.346
33677W        W92773  41.009   5.751   3.716
33678W        W92774   9.764  20.743  11.498
33679W        W92775  44.798  43.844  13.989
33680W        W92776   8.716   4.936   4.812
33681W        W92777  33.381  38.057   2.738
33682W        W92778   2.412  30.128   3.180
33683W        W92779  41.385  33.609  10.547
33684W        W92780  20.706  20.739   3.203
33685W        W92781  43.975  43.837   1.408
33686W        W92782   1.452  29.472   2.833
33687W        W92783  44.940  22.729  11.407
33688W        W92784   5.324   0.365  12.521
33689W        W92785  10.799  22.581  10.971
33690W        W92786  18.176   4.448   0.364
33691W        W92787  41.388  44.879   3.772
33692W        W92788  15.590  26.593   0.760
33693W        W92789  22.998  23.715   3.387
33694W        W92790  15.304  33.475  11.531
33695W        W92791  41.400  15.311  12.959
33696W        W92792  39.849   4.328  11.029
33697W        W92793   9.736  29.072   5.741
33698W        W92794   3.405  15.100   2.304
33699W        W92795  41.395  20.051  14.929
33700W        W92796  41.824  44.861   0.383
33701W        W92797  29.025   0.483  10.959
33702W        W92798   8.159   4.910  10.437
33703W        W92799   5.809   7.268   2.798
33704W        W92800  25.512  23.631   2.267
33705W        W92801  10.776  28.021   5.137
33706W        W92802  26.988  10.789  12.537
33707W        W92803  25.158   9.785   1.408
33708W        W92804  27.089  41.820   2.779
33709W        W92805  35.574  14.217  11.083
33710W        W92806  42.851  33.401  13.501
33711W        W92807  32.632  11.232  13.494
33712W        W92808  29.640  16.077   1.267
33713W        W92809  21.724  25.676   1.767
33714W        W92810   8.661  37.012  11.044
33715W        W92811  35.870  11.238  12.429
33716W        W92812  20.707   9.733   3.755
33717W        W92813  12.760  34.992   1.868
33718W        W92814  19.636   4.887   1.715
33719W        W92815   7.756   9.317   4.646
33720W        W92816  29.006   6.823   2.710
33721W        W92817   5.816  44.853  11.546
33722W        W92818  18.122   5.262  11.593
33723W        W92819   5.892  28.047  14.340
33724W        W92820   4.755  24.110   4.796
33725W        W92821   5.317  19.601   1.919
33726W        W92822  10.814  12.346  14.028
33727W        W92823   7.813  23.187   4.167
33728W        W92824  15.818  35.007   0.409
33729W        W92825   5.197  13.675  14.403
33730W        W92826  23.193   3.792   1.328
33731W        W92827  30.099  15.320  10.614
33732W        W92828  37.998   3.736   4.231
33733W        W92829  21.262   5.752   2.794
33734W        W92830   4.750  44.860   2.740
33735W        W92831  29.113  36.383   4.785
33736W        W92832   7.815  34.442   0.414
33737W        W92833  14.659  38.898  11.122
33738W        W92834  32.956  31.132   2.331
33739W        W92835   4.845  26.493   4.658
33740W        W92836  11.651  24.151  14.492
33741W        W92837  22.608   8.327  11.584
33742W        W92838  15.221   3.712  10.909
33743W        W92839  36.406  17.631  10.579
33744W        W92840  25.974  24.017  14.483
33745W        W92841   9.739  16.799  11.532
33746W        W92842   1.760   1.876  14.333
33747W        W92843   0.978   3.456   3.859
33748W        W92844  33.400  32.440  14.004
33749W        W92845  41.824  32.053   3.223
33750W        W92846  36.026  22.100   1.894
33751W        W92847  16.248   0.457  13.999
33752W        W92848   2.464  21.740  13.486
33753W        W92849  28.669   0.432   1.893
33754W        W92850  38.947  14.153  10.511
33755W        W92851  40.957  23.116  14.963
33756W        W92852   7.681  32.409   2.403
33757W        W92853  11.161  33.042   4.635
33758W        W92854  13.621  13.826   3.195
33759W        W92855   4.286  36.407  11.541
33760W        W92856  40.490  41.848  11.045
33761W        W92857  34.005  40.841   4.194
33762W        W92858   8.178   1.750  14.393
33763W        W92859  36.895  21.029  11.435
33764W        W92860  32.058  29.631   5.229
33765W        W92861  36.984  31.636   1.405
33766W        W92862   7.851  39.371   4.267
33767W        W92863   1.450  22.596   4.604
33768W        W92864  23.003  15.676  10.147
33769W        W92865  34.507  12.613  14.374
33770W        W92866  10.866  40.526  14.777
33771W        W92867  34.931  15.243   0.406
33772W        W92868   9.198   8.375   2.307
33773W        W92869  36.923   4.408   1.920
33774W        W92870  36.969  37.872   0.872
33775W        W92871  16.795  38.036  13.972
33776W        W92872  29.490  38.565  14.856
33777W        W92873  18.254   1.851   0.927
33778W        W92874  15.319  30.433   3.759
33779W        W92875   1.812  42.508  10.616
33780W        W92876  18.721  15.258   1.274
33781W        W92877  34.894  14.729   3.270
33782W        W92878  39.355  35.369  12.022
33783W        W92879  36.083  34.566   3.239
33784W        W92880  16.763  26.641  11.493
33785W        W92881  12.234  37.040   3.338
33786W        W92882  22.210  43.955  14.956
33787W        W92883  28.070  23.097  14.875
33788W        W92884  22.682   5.866   2.392
33789W        W92885  36.970  23.498   3.187
33790W        W92886  14.793  26.593  12.373
33791W        W92887  12.321  36.022  13.370
33792W        W92888  35.066  28.123  11.557
33793W        W92889  36.530  14.340   1.761
33794W        W92890  27.666   1.905  11.063
33795W        W92891  12.169  30.914  10.898
33796W        W92892  37.980  41.342   1.741
33797W        W92893  10.789   3.814  12.007
33798W        W92894   2.235  42.479   4.698
33799W        W92895  13.624   3.784  12.465
33800W        W92896  44.336  19.644   1.370
33801W        W92897  19.630   1.461   1.244
33802W        W92898  40.464  37.431   4.597
33803W        W92899  40.877   1.464   4.202
33804W        W92900  13.844  26.663  12.091
33805W        W92901   0.413   7.323   1.890
33806W        W92902  31.124  31.970   2.278
33807W        W92903  24.164   8.763  14.422
33808W        W92904  16.188  29.926   4.795
33809W        W92905  32.053   1.958   4.827
33810W        W92906  19.255  15.283   2.397
33811W        W92907  38.032   9.868   0.454
33812W        W92908   7.725  34.010  14.412
33813W        W92909  16.638  42.363  10.423
33814W        W92910   6.199   0.771   2.685
33815W        W92911  10.779  19.087  12.033
33816W        W92912  44.977   6.249   3.650
33817W        W92913  13.248  38.446   0.472
33818W        W92914  40.527   2.364   3.324
33819W        W92915  18.592  12.727   9.934
33820W        W92916  37.502  44.822   4.644
33821W        W92917  31.559   8.385  14.298
33822W        W92918  35.410  42.408  14.322
33823W        W92919   3.441   2.748   3.345
33824W        W92920  34.489  43.882  11.103
33825W        W92921   2.753  20.097   4.731
33826W        W92922  17.663  12.830   0.919
33827W        W92923  32.914  11.722  14.886
33828W        W92924  28.520   3.895   1.396
33829W        W92925  38.333   5.241   4.619
33830W        W92926  21.749  34.611   1.819
33831W        W92927  23.613   6.702  10.438
33832W        W92928  36.918  28.001  14.809
33833W        W92929  35.414  28.027   4.784
33834W        W92930  18.608  20.577   1.776
33835W        W92931  32.118  13.293  11.113
33836W        W92932  27.512  43.863  11.380
33837W        W92933  26.059  37.393  13.442
33838W        W92934  21.199  24.530   0.875
33839W        W92935  14.212  39.944  14.027
33840W        W92936  12.658  12.308  12.018
33841W        W92937  40.498   2.822  12.469
33842W        W92938  35.376  33.532  13.542
33843W        W92939  12.336  24.193   1.806
33844W        W92940  11.161  38.942   2.872
33845W        W92941  40.988   2.226  12.870
33846W        W92942  22.028   2.292  11.982
33847W        W92943  17.115  15.708   2.329
33848W        W92944  10.313  20.629   3.180
33849W        W92945  43.503  17.306   3.225
33850W        W92946  20.161  21.125   3.707
33851W        W92947  23.232  13.345   4.742
33852W        W92948   3.901  12.127   0.904
33853W        W92949  16.184  18.137   2.298
33854W        W92950  16.307   6.213  13.856
33855W        W92951  19.575  23.181  12.398
33856W        W92952  32.992  14.174  10.015
33857W        W92953   1.473  34.468  10.523
33858W        W92954  39.391   8.784  12.531
33859W        W92955   6.413   3.240  13.911
33860W        W92956  22.670   0.828  13.961
33861W        W92957  26.568  18.292   3.290
33862W        W92958  42.944  37.370   4.669
33863W        W92959  31.527   2.233   0.298
33864W        W92960  40.385   6.761  12.031
33865W        W92961   7.324   3.849  12.864
33866W        W92962  40.828   8.828   4.286
33867W        W92963  17.073  24.515  12.067
33868W        W92964  40.055  12.654  13.795
33869W        W92965   4.358  20.736   0.753
33870W        W92966  26.159  43.843  10.546
33871W        W92967   8.853   1.433  10.506
33872W        W92968  25.165  35.508   1.832
33873W        W92969  36.904  21.116   4.774
33874W        W92970   3.877  33.547  10.609
33875W        W92971  37.954  23.221   3.673
33876W        W92972   1.914  14.618  14.818
33877W        W92973  17.211  33.456  12.567
33878W        W92974  35.567  14.723   0.927
33879W        W92975  38.468  15.173   4.203
33880W        W92976  35.099  11.274   3.239
33881W        W92977  39.052  22.217   3.251
33882W        W92978  44.962   8.838   4.657
33883W        W92979  23.228  19.713  11.901
33884W        W92980   6.829  42.281  11.861
33885W        W92981  42.923   9.875  11.124
33886W        W92982  13.646  14.261   2.673
33887W        W92983  42.826   2.399  12.857
33888W        W92984  33.033  24.125   1.892
33889W        W92985  18.591   8.872   1.789
33890W        W92986  35.520  18.129  14.389
33891W        W92987  25.028  24.507  11.580
33892W        W92988  36.403  44.842  10.496
33893W        W92989  34.549  11.333   2.683
33894W        W92990  34.922  26.511   2.693
33895W        W92991  19.727  36.517   2.190
33896W        W92992  23.241   4.904  10.544
33897W        W92993  25.024  29.090  13.411
33898W        W92994  24.223  30.934  12.859
33899W        W92995  35.902  18.698  12.894
33900W        W92996   5.744  26.141  10.025
33901W        W92997   3.914  19.617   3.726
33902W        W92998  16.801  40.497  11.981
33903W        W92999  25.192  14.835  14.374
33904W        W93000  14.248  43.946  12.979
33905W        W93001  26.625   7.761   2.330
33906W        W93002  24.223  41.891   1.257
33907W        W93003  14.649  31.124  11.984
33908W        W93004  34.864  38.880  12.878
33909W        W93005  25.658  44.353  11.065
33910W        W93006   4.214  24.020   9.985
33911W        W93007  27.673  30.641  14.998
33912W        W93008  23.653   0.953   4.206
33913W        W93009  32.033  32.917  13.436
33914W        W93010  34.097   2.782   3.387
33915W        W93011  20.138   0.875  10.542
33916W        W93012  41.965   5.748  10.541
33917W        W93013   9.276  21.573  13.413
33918W        W93014  31.476  16.645  12.405
33919W        W93015  44.879  43.927  14.874
33920W        W93016   9.185  30.481  11.918
33921W        W93017  16.267   7.252  10.439
33922W        W93018  38.029  31.147  12.078
33923W        W93019  40.432  19.266   3.190
33924W        W93020  20.189  16.799   0.440
33925W        W93021  42.476  40.834  13.902
33926W        W93022   5.788  31.039  11.020
33927W        W93023  44.283   2.936   2.843
33928W        W93024  32.487  25.551  12.974
33929W        W93025   4.777   0.887   3.247
33930W        W93026  31.896  12.245  11.464
33931W        W93027  28.494  39.395   1.350
33932W        W93028  36.498  15.774  14.474
33933W        W93029  21.619   1.407  13.033
33934W        W93030   5.819  35.407   0.466
33935W        W93031  41.883  37.476  13.951
33936W        W93032  33.386  26.113   3.303
33937W        W93033  15.730  31.418   2.323
33938W        W93034  14.630  21.072  11.922
33939W        W93035  29.060  20.582   3.780
33940W        W93036  39.412  13.703  13.809
33941W        W93037  38.406  33.466  11.923
33942W        W93038  42.795  30.589   2.851
33943W        W93039  24.602  34.372   0.475
33944W        W93040  22.595  28.473  12.025
33945W        W93041   9.816  11.160  12.378
33946W        W93042  17.189  18.179  10.985
33947W        W93043  23.710  15.618   0.753
33948W        W93044  43.895  21.144   3.169
33949W        W93045  10.166  16.619  13.548
33950W        W93046  40.009  36.952  14.982
33951W        W93047  25.066  17.769  13.868
33952W        W93048  28.155   9.837   3.377
33953W        W93049  16.298  41.395   1.809
33954W        W93050   9.227   6.220   0.427
33955W        W93051  25.665  42.423  13.872
33956W        W93052  28.146   1.379   0.747
33957W        W93053  23.629   1.949  11.129
33958W        W93054  44.360  38.348  10.611
33959W        W93055  31.102  31.525   4.695
33960W        W93056   6.305  44.439   3.827
33961W        W93057  29.647  26.118  13.055
33962W        W93058  30.619   3.891  11.423
33963W        W93059  25.562  22.171   5.260
33964W        W93060  24.653   7.193   2.312
33965W        W93061  18.746   3.872  12.416
33966W        W93062  29.607  14.224  14.903
33967W        W93063   3.329  13.146   4.302
33968W        W93064   9.317  34.877   2.364
33969W        W93065  37.503  14.268   1.315
33970W        W93066  12.660  12.273   1.243
33971W        W93067  33.505  35.540   4.144
33972W        W93068  40.403  19.604  11.447
33973W        W93069  41.913  38.909  11.395
33974W        W93070  28.013  36.446  14.017
33975W        W93071  31.514  17.585   2.283
33976W        W93072  41.523  39.499  14.277
33977W        W93073  20.552  16.681   4.599
33978W        W93074   7.218  11.278  11.514
33979W        W93075  42.908   4.699  10.417
33980W        W93076  14.709  17.156  13.410
33981W        W93077  29.500  24.622  14.826
33982W        W93078  15.271  11.773  12.892
33983W        W93079  23.725  43.769   0.940
33984W        W93080  37.969  17.214  13.344
33985W        W93081  37.920  30.091   0.751
33986W        W93082  31.946  32.003   2.368
33987W        W93083   7.355  20.164  13.933
33988W        W93084  41.398   7.304   2.281
33989W        W93085   3.787  11.145  12.930
33990W        W93086  25.162   8.881  13.313
33991W        W93087  36.572  33.990   2.317
33992W        W93088  16.148   0.765   3.151
33993W        W93089   8.278  21.207   4.185
33994W        W93090  27.125  17.651   2.879
33995W        W93091  36.891  39.836   3.226
33996W        W93092  29.661  15.749   1.920
33997W        W93093  22.019  24.484   3.238
33998W        W93094  17.254  41.469  14.825
33999W        W93095  18.178   6.237   3.360
34000W        W93096  24.035  40.915   0.313
34001W        W93097   8.789  23.091  10.415
34002W        W93098   9.327  13.841  12.971
34003W        W93099  35.597  33.605   2.681
34004W        W93100  23.135  44.995  10.902
34005W        W93101   1.240  19.071  11.505
34006W        W93102  42.516  17.783   3.862
34007W        W93103  39.904  29.487   3.864
34008W        W93104  12.736  13.176   4.224
34009W        W93105  36.966  26.187  14.819
34010W        W93106  29.163   4.732   0.910
34011W        W93107   0.254  43.431  11.429
34012W        W93108  19.594  13.614  14.447
34013W        W93109   8.255  14.810   2.842
34014W        W93110   6.227  12.766  10.630
34015W        W93111  30.912  14.214   0.361
34016W        W93112   2.316   4.745   1.814
34017W        W93113  13.179   0.362  11.509
34018W        W93114   8.307  33.926  12.847
34019W        W93115  28.675  36.040   3.292
34020W        W93116   0.867  41.342  14.931
34021W        W93117  18.726  28.138  14.424
34022W        W93118  18.776   7.891   4.838
34023W        W93119  32.969  32.954  11.545
34024W        W93120  18.100  15.109   0.341
34025W        W93121  13.727   4.448   4.333
34026W        W93122   8.848  14.794  10.946
34027W        W93123  18.219  38.975  13.403
34028W        W93124  38.521  18.787  12.849
34029W        W93125   1.873  32.077   1.856
34030W        W93126   0.913  13.141  11.527
34031W        W93127   1.404  29.113  11.961
34032W        W93128  37.931  23.186   2.306
34033W        W93129  10.302  26.529   4.197
34034W        W93130  11.659   3.401  10.942
34035W        W93131  24.143   9.868   1.828
34036W        W93132   2.846  41.533  13.051
34037W        W93133   3.806  21.205  14.308
34038W        W93134  41.447  35.058   2.326
34039W        W93135  27.487  20.051  13.059
34040W        W93136   0.945  44.754  14.894
34041W        W93137  17.757  37.855   2.246
34042W        W93138   9.657  19.743  10.641
34043W        W93139  12.268  11.742   2.378
34044W        W93140  11.641  20.208  10.522
34045W        W93141  22.711  41.309   5.280
34046W        W93142  11.812   3.907  13.932
34047W        W93143   5.776  20.700   0.345
34048W        W93144  23.708  29.051  12.841
34049W        W93145  13.300  14.636   1.906
34050W        W93146  32.538  40.889  10.620
34051W        W93147  44.806  35.983   4.138
34052W        W93148  40.515  13.203   3.195
34053W        W93149  43.901  17.583  14.815
34054W        W93150  29.605  43.868   4.798
34055W        W93151  19.735  13.162   0.729
34056W        W93152   4.934   3.792   1.318
34057W        W93153  42.388  16.076  13.907
34058W        W93154  10.834  36.962  14.806
34059W        W93155  19.634  20.028   0.781
34060W        W93156  43.271  32.892  12.513
34061W        W93157  23.718   2.440   0.834
34062W        W93158   1.429  31.426  11.415
34063W        W93159  20.722   2.817   2.733
34064W        W93160   5.394  40.481  11.548
34065W        W93161  31.646  15.174  11.452
34066W        W93162  42.319  28.498   2.882
34067W        W93163   6.206   5.365   0.914
34068W        W93164  29.470   9.875  13.429
34069W        W93165  41.832  30.551   4.123
34070W        W93166  19.239  27.975  10.585
34071W        W93167  24.479  23.710  12.992
34072W        W93168   5.762  39.874  11.888
34073W        W93169  42.330  23.499   2.709
34074W        W93170  35.071  21.208  14.287
34075W        W93171  27.598  43.362  11.481
34076W        W93172  36.917  34.908   3.332
34077W        W93173   8.340   3.844  13.063
34078W        W93174  29.027  21.159   4.294
34079W        W93175  29.670  18.744  12.572
34080W        W93176  23.037  20.594   5.244
34081W        W93177  25.698  44.967  14.473
34082W        W93178  22.111  16.779  12.074
34083W        W93179   5.390  26.644  14.025
34084W        W93180   0.324   2.806   0.265
34085W        W93181   9.251  26.129  11.064
34086W        W93182  29.644  43.303   3.374
34087W        W93183   8.241  34.043   3.649
34088W        W93184   4.440  40.520   0.385
34089W        W93185  17.753  20.100   1.856
34090W        W93186  16.712   8.307  13.901
34091W        W93187  39.942  31.511   1.331
34092W        W93188  35.373  11.859  12.363
34093W        W93189   8.203  27.512   0.317
34094W        W93190  10.147  18.065  12.917
34095W        W93191  33.963  12.267   3.173
34096W        W93192  18.663  24.548  10.593
34097W        W93193   6.311  38.053   4.599
34098W        W93194  20.154   0.840   2.230
34099W        W93195  15.728  39.006   0.909
34100W        W93196  41.343   4.422  12.495
34101W        W93197  25.526  12.281   1.811
34102W        W93198  41.519  34.611  12.345
34103W        W93199  14.175  18.197  11.414
34104W        W93200  25.974  27.974   4.288
34105W        W93201  24.685  22.044   3.657
34106W        W93202  30.492  17.249   3.272
34107W        W93203  34.555  34.386  14.395
34108W        W93204  22.112  31.026   2.229
34109W        W93205  25.202  16.658   1.411
34110W        W93206  16.278  27.082   2.223
34111W        W93207   0.983  23.651   3.222
34112W        W93208   1.899   3.243   4.134
34113W        W93209  33.547   0.464   4.619
34114W        W93210  21.638  39.026   2.768
34115W        W93211   6.306  39.559  13.488
34116W        W93212  33.970  38.403  14.336
34117W        W93213   5.832  17.768   0.243
34118W        W93214  20.673  27.969  14.408
34119W        W93215   1.438  25.118   1.927
34120W        W93216  37.948  12.252  12.412
34121W        W93217  33.415  12.327   2.735
34122W        W93218  43.792  17.161  14.431
34123W        W93219  44.793  42.792   1.720
34124W        W93220  16.578  32.428   2.687
34125W        W93221  22.594  34.529  10.938
34126W        W93222   4.869   6.338  12.575
34127W        W93223  43.941  34.929   2.749
34128W        W93224  18.778  37.859  13.062
34129W        W93225  35.100  21.575   3.667
34130W        W93226   5.857  24.590   1.239
34131W        W93227  15.611  12.821  13.802
34132W        W93228  17.716  39.467  12.834
34133W        W93229  28.980   4.256   3.837
34134W        W93230  11.316  31.548   0.403
34135W        W93231  26.558   0.281  10.120
34136W        W93232  19.680  19.595   0.910
34137W        W93233  23.717  44.260  14.349
34138W        W93234   3.908  33.582  13.012
34139W        W93235  20.264   9.197  13.872
34140W        W93236   5.796  19.574  10.930
34141W        W93237   3.409  17.730   2.764
34142W        W93238  39.524   5.703  10.537
34143W        W93239  33.523  23.221  10.541
34144W        W93240  19.118  26.087  13.378
34145W        W93241  26.963   4.856  13.325
34146W        W93242  35.016  36.065   0.760
34147W        W93243  18.071   2.331  11.516
34148W        W93244   4.826  29.114  13.969
34149W        W93245  37.075  24.546  13.869
34150W        W93246  43.791  17.722  13.956
34151W        W93247  18.630   0.348   4.780
34152W        W93248  44.274  38.987   1.446
34153W        W93249  25.987  25.078  14.415
34154W        W93250  24.538  11.781   4.232
34155W        W93251  14.684   2.247   0.394
34156W        W93252   1.281  30.993   4.652
34157W        W93253   4.840  32.060   5.246
34158W        W93254  31.635  36.013  11.117
34159W        W93255  38.441   6.768   1.257
34160W        W93256   1.293  14.099   2.862
34161W        W93257  42.456   9.241   3.166
34162W        W93258  37.860   1.388  11.059
34163W        W93259   1.803  27.535  12.971
34164W        W93260  18.188  26.514  12.052
34165W        W93261   8.247  21.141  14.909
34166W        W93262  39.531   8.896   1.836
34167W        W93263  19.181  18.713   3.342
34168W        W93264   9.237  18.121  14.500
34169W        W93265  34.012  11.322   1.932
34170W        W93266   2.370  29.056  13.487
34171W        W93267  29.477  42.490  12.021
34172W        W93268  12.159  17.085   5.685
34173W        W93269  22.134  10.725   0.422
34174W        W93270  20.696  40.432   4.123
34175W        W93271  44.394  44.942   1.776
34176W        W93272  11.206  36.472  13.538
34177W        W93273   7.409  41.336   3.685
34178W        W93274  10.231  28.119  12.995
34179W        W93275  36.890   4.896   1.748
34180W        W93276  36.917   8.383   2.797
34181W        W93277  14.160  32.080  12.006
34182W        W93278  31.023  16.707  13.385
34183W        W93279  13.701  10.869  10.480
34184W        W93280  10.342  27.052  11.547
34185W        W93281  27.535  29.566  13.341
34186W        W93282  15.172  28.476  12.900
34187W        W93283  36.032   9.780  13.972
34188W        W93284  26.675  44.908  14.839
34189W        W93285   1.933  13.256   2.393
34190W        W93286   5.895  38.885  14.279
34191W        W93287  35.358  30.428   2.867
34192W        W93288  25.572  34.605   3.209
34193W        W93289  18.192  33.569   3.173
34194W        W93290  15.208  39.005  11.991
34195W        W93291  42.923  30.512   2.311
34196W        W93292  40.833  16.675  11.531
34197W        W93293  38.970  26.961  11.994
34198W        W93294  33.888   6.851  11.552
34199W        W93295  27.979  39.848   3.255
34200W        W93296  43.353  16.232  11.110
34201W        W93297  34.497  13.282   1.915
34202W        W93298  24.108  33.418  10.924
34203W        W93299   9.852  27.038   0.852
34204W        W93300  14.717  31.433  12.427
34205W        W93301   6.185  21.124  11.591
34206W        W93302  26.084  34.922  14.006
34207W        W93303  13.187   2.767   0.909
34208W        W93304  22.694   7.203   2.344
34209W        W93305  19.715  21.199  14.881
34210W        W93306  18.641  27.656  14.476
34211W        W93307  21.544  19.761   3.237
34212W        W93308   6.277  32.994   4.653
34213W        W93309   5.430  25.548  13.404
34214W        W93310  26.649   4.379   1.898
34215W        W93311  29.552  17.112  11.875
34216W        W93312   6.758  30.938  11.103
34217W        W93313  31.406  14.707   1.338
34218W        W93314  28.128  18.096   4.274
34219W        W93315  13.314  22.664  14.995
34220W        W93316   1.465  12.793   3.378
34221W        W93317  26.545   3.860   3.758
34222W        W93318  23.110  32.614   2.219
34223W        W93319  10.706  10.677   4.683
34224W        W93320   2.755  42.306  12.561
34225W        W93321  35.987   2.470   3.334
34226W        W93322  28.115  39.432  11.983
34227W        W93323  29.539  10.712   4.739
34228W        W93324  32.067  35.886   3.251
34229W        W93325  14.323  43.400  13.814
34230W        W93326  43.481  23.989  10.483
34231W        W93327  34.456  19.198  10.615
34232W        W93328  36.028  38.043  12.568
34233W        W93329   1.948  15.260  13.047
34234W        W93330   9.195  29.589   2.848
34235W        W93331  30.151   5.392  14.911
34236W        W93332   9.249   0.257   3.683
34237W        W93333  34.577  43.362  11.932
34238W        W93334  13.113  10.833   1.870
34239W        W93335   0.858  27.572  13.509
34240W        W93336  17.697  12.643  11.598
34241W        W93337  35.949  27.455   0.264
34242W        W93338  16.786  20.265  14.441
34243W        W93339  22.526  33.876   2.347
34244W        W93340  42.364  29.480  14.322
34245W        W93341   8.666  35.492  13.944
34246W        W93342  15.615   9.277  14.858
34247W        W93343  14.646  32.961  10.897
34248W        W93344  30.934  29.579  11.003
34249W        W93345  23.050   3.728  12.066
34250W        W93346  32.564   7.256  11.607
34251W        W93347  40.316  24.539  14.447
34252W        W93348  34.546   3.907  11.402
34253W        W93349   7.209  43.431  11.521
34254W        W93350  18.216  32.108  14.022
34255W        W93351  20.609  24.652   3.743
34256W        W93352  13.218  33.963  13.860
34257W        W93353  27.169  23.216  11.951
34258W        W93354   9.833  29.946  14.810
34259W        W93355  18.093  13.833  14.839
34260W        W93356  29.569  22.032  10.105
34261W        W93357  40.497   0.432   4.287
34262W        W93358  24.590   2.915  12.471
34263W        W93359  34.906  44.864  13.055
34264W        W93360  23.584  21.240  11.875
34265W        W93361  31.076  38.560  12.458
34266W        W93362  13.141  34.948   1.400
34267W        W93363  44.858  35.063  11.110
34268W        W93364  15.275  39.979  12.010
34269W        W93365   7.350  22.201  13.508
34270W        W93366  42.998  29.657   2.283
34271W        W93367   0.742  36.489  13.030
34272W        W93368  29.627  14.154   0.314
34273W        W93369  17.194   2.898   3.756
34274W        W93370  35.366  21.691   1.335
34275W        W93371  44.864  32.500   4.649
34276W        W93372   7.748  42.872   2.821
34277W        W93373  32.116  15.800   1.285
34278W        W93374  19.130  22.085   2.184
34279W        W93375  11.367  10.179  11.042
34280W        W93376  30.560  26.690  14.026
34281W        W93377   7.908  36.967  11.004
34282W        W93378   5.794   3.320   5.241
34283W        W93379  16.170  29.118   2.760
34284W        W93380  11.741   5.202   4.804
34285W        W93381  34.526   1.399  12.500
34286W        W93382  34.980   5.779  10.918
34287W        W93383  36.470   9.384   0.956
34288W        W93384   8.751  24.189  11.007
34289W        W93385  31.443  11.680  11.129
34290W        W93386  17.794  21.109   0.265
34291W        W93387  16.226  28.019  12.900
34292W        W93388  43.806  31.596  10.440
34293W        W93389  33.387  15.236  10.606
34294W        W93390   5.819  40.964  13.949
34295W        W93391  12.228  43.823  11.508
34296W        W93392  36.945   5.399  13.930
34297W        W93393  22.597  40.885   2.711
34298W        W93394  21.657  28.123  11.491
34299W        W93395  23.214  39.822  10.909
34300W        W93396  22.028  30.045   4.211
34301W        W93397  11.632   3.404  14.429
34302W        W93398  39.911   5.324   1.271
34303W        W93399  15.313  19.605   1.254
34304W        W93400  33.887   8.868   2.318
34305W        W93401  35.383  24.119   1.232
34306W        W93402  20.038  44.915   2.400
34307W        W93403  42.285   0.323   2.848
34308W        W93404  33.519  35.557   2.794
34309W        W93405  17.659  13.166  12.532
34310W        W93406  14.627   3.315   0.339
34311W        W93407  15.642  16.603  10.518
34312W        W93408  28.472   8.244  11.122
34313W        W93409  36.356  43.412   0.881
34314W        W93410   2.419  33.047  11.901
34315W        W93411  19.749  16.099  12.028
34316W        W93412  42.469  15.813   4.125
34317W        W93413  34.590   1.415  11.524
34318W        W93414  22.110  39.044  12.341
34319W        W93415  23.511  39.550   4.169
34320W        W93416  25.213  26.691  13.806
34321W        W93417  41.365  32.626   2.397
34322W        W93418  30.975  44.772   0.322
34323W        W93419  44.269  35.377   0.949
34324W        W93420   9.234   4.393  11.517
34325W        W93421  19.195   9.157  12.022
34326W        W93422  41.974  24.702  11.891
34327W        W93423  10.715  23.490   0.943
34328W        W93424  36.588  11.312  13.795
34329W        W93425  36.098  12.287   0.835
34330W        W93426  15.750  22.711  13.888
34331W        W93427  10.674  25.521   4.121
34332W        W93428  34.451   4.860  13.391
34333W        W93429   3.849  36.881   4.700
34334W        W93430  40.015  28.585  11.591
34335W        W93431  35.401   7.389   4.606
34336W        W93432  39.544  43.775  11.979
34337W        W93433  23.237  42.357   1.428
34338W        W93434  39.345  41.299   3.246
34339W        W93435  14.789   9.196  13.503
34340W        W93436  38.553  26.549  12.396
34341W        W93437  12.256   6.757  10.897
34342W        W93438   9.377  35.061   0.390
34343W        W93439  36.843  23.040  14.000
34344W        W93440  42.778  10.204  10.143
34345W        W93441  33.900  28.453  13.833
34346W        W93442  36.347  15.210   0.328
34347W        W93443  44.407  31.436  11.096
34348W        W93444  14.313  15.175   1.729
34349W        W93445   9.707  27.561  11.592
34350W        W93446   8.787   8.357  11.089
34351W        W93447   1.315  35.419  12.034
34352W        W93448  44.007  25.145   4.711
34353W        W93449  38.886  38.041  14.942
34354W        W93450  35.557  25.988   0.939
34355W        W93451  18.731  37.845   1.292
34356W        W93452  29.052   0.457   1.706
34357W        W93453  34.432  32.441   3.204
34358W        W93454  17.640  23.575  13.023
34359W        W93455  43.346  43.288   1.212
34360W        W93456  13.300   3.254  14.013
34361W        W93457  22.585   5.325  12.891
34362W        W93458   0.291  14.731  10.984
34363W        W93459   3.309  30.525  14.352
34364W        W93460  26.649  25.016  11.506
34365W        W93461   5.435  36.512  13.800
34366W        W93462  23.102  17.660  14.911
34367W        W93463  44.776  40.849  12.489
34368W        W93464  37.383   5.884   3.683
34369W        W93465   5.866  24.663  13.374
34370W        W93466   8.709  22.123  10.063
34371W        W93467  32.542  43.775  13.923
34372W        W93468  34.888   1.906  11.109
34373W        W93469  32.615   8.195  14.876
34374W        W93470  11.858  34.564   0.851
34375W        W93471  10.874  26.189   2.276
34376W        W93472  28.016  19.637   0.885
34377W        W93473  16.582  38.856  13.030
34378W        W93474  34.555   9.849   1.223
34379W        W93475  18.072   9.745   0.369
34380W        W93476  43.310  41.977  13.365
34381W        W93477  27.560   7.712   2.374
34382W        W93478  16.318   6.691  13.466
34383W        W93479  36.484   3.383  12.971
34384W        W93480  44.396  12.330   2.755
34385W        W93481  39.827   3.230   3.345
34386W        W93482  33.582  29.948  10.630
34387W        W93483  25.592  19.276  13.422
34388W        W93484   2.336  30.090  14.356
34389W        W93485  30.524   0.816  11.911
34390W        W93486   8.168   1.319  12.363
34391W        W93487  26.562  34.120  10.091
34392W        W93488   8.263  15.749   4.350
34393W        W93489  41.011  12.146  14.782
34394W        W93490  24.621  32.490   0.926
34395W        W93491   6.922  29.528  10.898
34396W        W93492  24.061  15.725   4.794
34397W        W93493  30.633  39.489   4.312
34398W        W93494  14.682  22.622  11.056
34399W        W93495   7.878  32.002   0.887
34400W        W93496   0.908  19.041   2.901
34401W        W93497  27.945   1.354   3.752
34402W        W93498   6.264  12.734   4.335
34403W        W93499  38.061  37.930  12.468
34404W        W93500  28.644  31.065  13.882
34405W        W93501  34.492  20.557   1.297
34406W        W93502   5.346  17.230   1.424
34407W        W93503  11.854  10.356   1.351
34408W        W93504  18.111   0.306  14.781
34409W        W93505  15.207  40.341  13.964
34410W        W93506  15.252  10.727  10.969
34411W        W93507   9.262  40.443   1.376
34412W        W93508  26.505  34.956  12.577
34413W        W93509   0.314  36.513  12.077
34414W        W93510  40.994  42.898  10.631
34415W        W93511  28.059  32.481   2.349
34416W        W93512   5.359  22.608  14.367
34417W        W93513  22.031   6.306   4.713
34418W        W93514  34.109  15.608  13.531
34419W        W93515  19.610  19.066   1.297
34420W        W93516   6.907  24.658  13.815
34421W        W93517  30.561  26.970  11.556
34422W        W93518  43.811  12.325   1.215
34423W        W93519  41.802  33.019  11.074
34424W        W93520  17.061   1.836  14.341
34425W        W93521  10.239  14.731  13.403
34426W        W93522  23.032  19.177   9.493
34427W        W93523  18.761  21.202  12.009
34428W        W93524  40.002  29.499  13.064
34429W        W93525  38.491  30.513   1.703
34430W        W93526  22.661   5.327  14.489
34431W        W93527  26.638  43.346   3.241
34432W        W93528  12.311   2.878   3.343
34433W        W93529  23.617  19.100   5.588
34434W        W93530  16.223  14.779  10.937
34435W        W93531   1.931  34.949  13.998
34436W        W93532  22.240  28.669  14.868
34437W        W93533  13.306  10.717   0.801
34438W        W93534  30.070  39.527   2.838
34439W        W93535  13.620  39.345  12.043
34440W        W93536  27.687  31.952  10.061
34441W        W93537   7.783  22.725   2.801
34442W        W93538  35.359  35.495   2.282
34443W        W93539  38.881  38.869  13.944
34444W        W93540  41.337  34.041  14.826
34445W        W93541  40.343  26.141   4.264
34446W        W93542   8.386  31.516   3.818
34447W        W93543   5.311  10.366  13.795
34448W        W93544  11.764  32.113  12.885
34449W        W93545  32.404  27.047   4.150
34450W        W93546   7.292   1.291  13.050
34451W        W93547  44.862  34.464  10.584
34452W        W93548  18.117  14.618   3.821
34453W        W93549  21.611  16.661   3.853
34454W        W93550  13.113  10.375   3.189
34455W        W93551   4.911  18.200  13.459
34456W        W93552  23.499   1.739  11.933
34457W        W93553   8.869  18.166   0.445
34458W        W93554   4.442  38.897  11.129
34459W        W93555   4.893  38.918   0.805
34460W        W93556  13.713  29.495  14.833
34461W        W93557  29.010  13.222  10.643
34462W        W93558  34.426  21.700  13.465
34463W        W93559  34.888  37.441  12.990
34464W        W93560  25.108  44.276  11.095
34465W        W93561  33.457  11.837  13.823
34466W        W93562  35.088  12.272  11.942
34467W        W93563   7.386   7.910  14.824
34468W        W93564  21.109   5.406  11.473
34469W        W93565  41.985  38.561  13.906
34470W        W93566  44.956  32.401  14.865
34471W        W93567   8.280  14.822  14.417
34472W        W93568  19.576  13.321   5.268
34473W        W93569  28.001  32.962  12.843
34474W        W93570  24.197  13.635   3.278
34475W        W93571  28.110  39.530  10.924
34476W        W93572   9.198  26.554  14.342
34477W        W93573  20.643   0.446   0.760
34478W        W93574  21.021  41.885  12.839
34479W        W93575  10.335  11.181   2.881
34480W        W93576  30.144  37.336   0.313
34481W        W93577  35.475   1.413  12.886
34482W        W93578  10.861  18.166  13.500
34483W        W93579  29.497  14.793  12.978
34484W        W93580  38.906  16.613   0.310
34485W        W93581  16.757  11.314  11.546
34486W        W93582  28.013  27.058   0.291
34487W        W93583  16.678   7.874  12.038
34488W        W93584   8.168  10.192   4.685
34489W        W93585  30.911  18.612  12.874
34490W        W93586  21.667  32.407   1.316
34491W        W93587  43.930   6.249   2.291
34492W        W93588  36.410  23.551   3.818
34493W        W93589  28.993  18.552   4.265
34494W        W93590   0.903  17.257   2.788
34495W        W93591  13.126   6.840   3.763
34496W        W93592  29.437   1.766   1.879
34497W        W93593  14.263  30.061   1.758
34498W        W93594  35.423  20.563  14.025
34499W        W93595   7.172  23.114  11.448
34500W        W93596  19.766  12.130  11.021
34501W        W93597   5.438  34.956  12.382
34502W        W93598  35.594  12.166  14.970
34503W        W93599  31.463  24.516   4.353
34504W        W93600  39.935  28.486   3.340
34505W        W93601  34.076  22.057   3.825
34506W        W93602  14.748   3.771   1.932
34507W        W93603  21.080  43.322  11.009
34508W        W93604   3.788  19.640   0.395
34509W        W93605  27.069  18.188  12.011
34510W        W93606  18.183  36.479   1.308
34511W        W93607  26.188  22.141  13.323
34512W        W93608  29.040  38.880  11.037
34513W        W93609  19.772  20.225   4.714
34514W        W93610  33.093  29.011  12.871
34515W        W93611  20.738  22.115   0.421
34516W        W93612  12.291  39.986   2.826
34517W        W93613   0.940  41.999   2.291
34518W        W93614  25.533  37.448  13.886
34519W        W93615   0.904  44.845   0.741
34520W        W93616  21.038   6.213   5.666
34521W        W93617  38.877  25.038  13.329
34522W        W93618  31.153  24.070   0.762
34523W        W93619  41.441  14.163  14.356
34524W        W93620   2.270  25.639  12.972
34525W        W93621   6.427  13.164   4.639
34526W        W93622  10.759   2.870  13.833
34527W        W93623  37.974   2.447   1.215
34528W        W93624   0.309  19.215   2.753
34529W        W93625   1.385  23.208  14.392
34530W        W93626  11.351  20.102   3.292
34531W        W93627  23.234  34.915  10.089
34532W        W93628  34.976  34.003  11.084
34533W        W93629  37.952  20.169   1.887
34534W        W93630  34.991   1.303  11.033
34535W        W93631  18.547  44.322   3.212
34536W        W93632  21.244  32.972  13.988
34537W        W93633   0.928  38.930  11.556
34538W        W93634   5.351   0.476  12.085
34539W        W93635  43.513  38.515   3.867
34540W        W93636   0.487   7.811   1.801
34541W        W93637  44.369   6.426   5.222
34542W        W93638  28.147  16.186   4.696
34543W        W93639  34.048  33.380   0.245
34544W        W93640  34.907  33.967  12.455
34545W        W93641  38.992  24.190   0.750
34546W        W93642  40.852  11.807  12.902
34547W        W93643  20.726   6.743  14.335
34548W        W93644  27.447  44.403   3.669
34549W        W93645   5.245  44.348  10.443
34550W        W93646   4.378  18.205  11.111
34551W        W93647  33.966  31.592  12.479
34552W        W93648  38.488  13.192   4.136
34553W        W93649  29.174  19.197  12.080
34554W        W93650   0.393  22.178   2.201
34555W        W93651  43.311  38.563   4.834
34556W        W93652   1.310   3.272   1.716
34557W        W93653  30.578   8.733  14.325
34558W        W93654  17.107  41.920   1.224
34559W        W93655   8.175  32.108  13.535
34560W        W93656   2.966  25.031  12.560
34561W        W93657   3.725   5.411   0.264
34562W        W93658  12.716  43.354   2.206
34563W        W93659  18.544   6.193  14.485
34564W        W93660  27.103  25.203  10.447
34565W        W93661  18.626   6.852   4.609
34566W        W93662  19.615  21.211  13.493
34567W        W93663  34.086  34.483  12.026
34568W        W93664   4.871  27.646  14.473
34569W        W93665  12.208   0.446  11.963
34570W        W93666  26.123  20.585   5.637
34571W        W93667   7.397   2.799   0.478
34572W        W93668  24.103   4.338   2.282
34573W        W93669  12.721  40.039   4.624
34574W        W93670  31.453  20.592  14.877
34575W        W93671   3.888  12.659   3.651
34576W        W93672  21.262  35.397   2.825
34577W        W93673   7.751  38.468   2.772
34578W        W93674  17.773  12.207   2.800
34579W        W93675  17.625  43.903  10.499
34580W        W93676  20.160  39.333  12.824
34581W        W93677  35.996   9.757   0.884
34582W        W93678   1.880   2.373   0.312
34583W        W93679  12.796  35.568   0.280
34584W        W93680  37.554  21.193  10.995
34585W        W93681   0.309  32.924   1.340
34586W        W93682  15.709   6.193  10.610
34587W        W93683   0.417  30.995  12.861
34588W        W93684   4.823  24.000   1.344
34589W        W93685  21.062  35.427  14.285
34590W        W93686  44.431  37.483   2.847
34591W        W93687  27.582  44.427   0.243
34592W        W93688  38.934  36.882  11.964
34593W        W93689  28.178  26.627   4.624
34594W        W93690   0.922   4.356  10.645
34595W        W93691  16.126   8.169   0.912
34596W        W93692  40.306  34.041   0.788
34597W        W93693  23.086  34.610  12.082
34598W        W93694  42.359  19.132   3.276
34599W        W93695   9.720  24.696  12.029
34600W        W93696  43.830   6.717   4.268
34601W        W93697  37.508  26.477  11.391
34602W        W93698  42.281  34.012  14.366
34603W        W93699  17.679  29.633   4.133
34604W        W93700   5.804  38.975   1.716
34605W        W93701  39.961  34.587   0.869
34606W        W93702   0.754  33.541  14.857
34607W        W93703  11.627   1.426  10.631
34608W        W93704  36.349   0.290  11.958
34609W        W93705  24.046  25.196  12.848
34610W        W93706  23.022  25.027  11.402
34611W        W93707  31.118   6.789  13.525
34612W        W93708  37.566  43.359   1.254
34613W        W93709   9.821  29.952   1.826
34614W        W93710  44.855  10.150   4.335
34615W        W93711  41.487  16.679   4.805
34616W        W93712  26.999  25.619   3.253
34617W        W93713  44.867   4.720  10.621
34618W        W93714  31.016  33.515   0.854
34619W        W93715  10.843  16.709  14.007
34620W        W93716  33.405   8.815   2.281
34621W        W93717   6.773  37.895  14.881
34622W        W93718  21.597  26.480  12.418
34623W        W93719  22.516  23.209   3.774
34624W        W93720   6.330  35.397  13.456
34625W        W93721   6.407   2.785   3.269
34626W        W93722   9.170  39.874  14.970
34627W        W93723   7.769  27.450  12.435
34628W        W93724  42.445  26.698   0.784
34629W        W93725  22.223  21.188  12.075
34630W        W93726   4.327  12.330  10.555
34631W        W93727  39.444  29.029  12.947
34632W        W93728  41.945   9.651   5.177
34633W        W93729  17.621  32.095  11.481
34634W        W93730   2.914  10.875  14.372
34635W        W93731   0.345   6.319   4.706
34636W        W93732  17.288   8.172  14.306
34637W        W93733  25.109  43.507   0.306
34638W        W93734  16.104   8.868   1.729
34639W        W93735  26.519  25.658  10.411
34640W        W93736  20.642  15.790   3.180
34641W        W93737  44.777   6.353  14.998
34642W        W93738  18.104  22.204   1.914
34643W        W93739   6.387  28.017   4.680
34644W        W93740  17.768  12.731   4.704
34645W        W93741  21.606  13.809   0.247
34646W        W93742  35.987  32.549  12.995
34647W        W93743  31.626  44.827  10.605
34648W        W93744   8.167  30.040  14.978
34649W        W93745   0.270   0.770  10.495
34650W        W93746  23.677  17.247  13.336
34651W        W93747  24.723   2.727  14.340
34652W        W93748  23.081  23.148  12.566
34653W        W93749  29.583  26.113   1.392
34654W        W93750  31.624  29.987  14.318
34655W        W93751  40.981  43.926   4.743
34656W        W93752  27.537  16.123   4.759
34657W        W93753  38.389   3.314  12.036
34658W        W93754   4.240  30.049  12.376
34659W        W93755  20.616   2.451  11.015
34660W        W93756  16.751  17.649  11.501
34661W        W93757  34.570  44.007   1.719
34662W        W93758  43.497  40.934  11.569
34663W        W93759  25.068  40.941  10.986
34664W        W93760  16.124  19.106  13.452
34665W        W93761  23.610  19.562   9.576
34666W        W93762  37.038   8.301  13.436
34667W        W93763  35.524  39.353  12.852
34668W        W93764  18.081   3.914   2.820
34669W        W93765  18.777  16.691  14.861
34670W        W93766  25.527  34.006   2.839
34671W        W93767  40.965  41.872  13.945
34672W        W93768  21.210  37.455  14.858
34673W        W93769  32.489  15.768   9.483
34674W        W93770  38.886  30.628  13.454
34675W        W93771   7.180  43.987  12.411
34676W        W93772  27.511   9.343  10.928
34677W        W93773   7.254  29.928  13.369
34678W        W93774  36.469   4.712  12.433
34679W        W93775  19.187  33.615  11.379
34680W        W93776  26.961  37.354   3.280
34681W        W93777  42.921   9.375  12.045
34682W        W93778  16.285  34.905  14.851
34683W        W93779  29.607  17.069   0.373
34684W        W93780  43.934  16.808  10.617
34685W        W93781  42.436   0.402  13.974
34686W        W93782  42.283  11.220  13.051
34687W        W93783   0.842  34.596  11.468
34688W        W93784  22.062  20.748  12.402
34689W        W93785   4.223  32.123  12.885
34690W        W93786  20.549  28.547  14.806
34691W        W93787  31.111   2.904  14.919
34692W        W93788  37.022  31.074   4.660
34693W        W93789   7.872  22.735   4.130
34694W        W93790  28.500  26.141  13.326
34695W        W93791  29.553  41.457  12.077
34696W        W93792  17.678  28.117   2.788
34697W        W93793  31.467  19.540   2.344
34698W        W93794  17.762  19.221  13.389
34699W        W93795  12.818   3.713  11.097
34700W        W93796  13.148  37.041  14.280
34701W        W93797  21.686  28.495  13.541
34702W        W93798  13.791   0.943  13.875
34703W        W93799  43.368  39.064   3.744
34704W        W93800  41.454  34.399   0.426
34705W        W93801  33.874   0.308  14.295
34706W        W93802  33.065  22.035  10.892
34707W        W93803  30.969  42.820   0.281
34708W        W93804  34.974  44.401  13.946
34709W        W93805  15.230  44.259  14.965
34710W        W93806   9.239   7.223   3.301
34711W        W93807   4.857  40.478  11.544
34712W        W93808  24.216   5.222   4.658
34713W        W93809  17.133  11.274   4.178
34714W        W93810  24.057  20.574   4.705
34715W        W93811  13.249  27.010   9.936
34716W        W93812  43.331  27.627  12.064
34717W        W93813  27.029  14.696  14.471
34718W        W93814  35.009  18.204  11.931
34719W        W93815   1.919   1.277  13.444
34720W        W93816  39.899  20.163   1.883
34721W        W93817  37.552  23.607  13.531
34722W        W93818  34.907  27.621   2.223
34723W        W93819   6.910   8.224   1.373
34724W        W93820  43.011  42.472  13.865
34725W        W93821   0.837  15.191   4.285
34726W        W93822  28.574  26.638   4.697
34727W        W93823  31.645  29.646  10.993
34728W        W93824  38.068  12.119  14.761
34729W        W93825  21.525  10.277  12.473
34730W        W93826  14.788  42.816   3.267
34731W        W93827  41.398   1.378  11.470
34732W        W93828  38.942  27.642   1.787
34733W        W93829  37.064  29.989   0.804
34734W        W93830  26.616  10.294  14.279
34735W        W93831  39.519  17.609   3.171
34736W        W93832  21.589  16.656   1.275
34737W        W93833  37.405   9.254  14.982
34738W        W93834  28.972   5.819   2.753
34739W        W93835  12.133  43.992  13.470
34740W        W93836  42.831  15.764  10.478
34741W        W93837  34.484  37.892   0.903
34742W        W93838  41.829  14.333  13.869
34743W        W93839   8.292  22.019   1.220
34744W        W93840  26.597  39.816  14.837
34745W        W93841  27.543   3.788  11.534
34746W        W93842  13.696  27.045  10.972
34747W        W93843  33.408  16.593   1.923
34748W        W93844  12.827  13.315  14.432
34749W        W93845  21.527  24.101  10.482
34750W        W93846   3.858  33.111   2.862
34751W        W93847  28.985  33.057  13.411
34752W        W93848   3.327  43.998  14.401
34753W        W93849  35.571   1.904   4.795
34754W        W93850  30.007  25.560  13.947
34755W        W93851  12.627  13.796   1.365
34756W        W93852  21.547  23.056  12.541
34757W        W93853  43.321  33.539   2.398
34758W        W93854  14.289  37.534   4.260
34759W        W93855  38.407  16.727   4.184
34760W        W93856  24.184  20.259  12.384
34761W        W93857   8.863  19.724  10.411
34762W        W93858  19.630   4.708   0.856
34763W        W93859   3.457  26.081  10.405
34764W        W93860  30.487   7.813   3.361
34765W        W93861  11.866  41.952   4.141
34766W        W93862  25.672  26.042  11.586
34767W        W93863  21.593  15.245  11.539
34768W        W93864  26.082  40.339  11.563
34769W        W93865  35.424  35.437  14.381
34770W        W93866  24.120  42.889  11.077
34771W        W93867  16.228  24.546   4.161
34772W        W93868  14.614   2.920   3.870
34773W        W93869  21.523   8.705  13.342
34774W        W93870   0.259   1.384  14.972
34775W        W93871  40.456  17.303   2.386
34776W        W93872  10.368  23.505   2.303
34777W        W93873   6.273   0.907   1.330
34778W        W93874  42.800  20.740   4.139
34779W        W93875  13.267  34.540  12.472
34780W        W93876  15.788   8.877  14.412
34781W        W93877  33.464  40.830  12.503
34782W        W93878  25.518  36.440   0.731
34783W        W93879  22.239  16.210  14.401
34784W        W93880  12.162  27.166   1.910
34785W        W93881   2.789  15.142  12.005
34786W        W93882   9.725  42.344  12.947
34787W        W93883  27.134  26.602   1.216
34788W        W93884  10.738  30.438  10.070
34789W        W93885  44.261  28.498   3.732
34790W        W93886  21.248  33.002   0.903
34791W        W93887   0.450  30.013  10.495
34792W        W93888  14.264  42.524   0.770
34793W        W93889  28.179  43.304   0.276
34794W        W93890  41.378  38.012  14.421
34795W        W93891  39.423  28.008   0.355
34796W        W93892  37.443  26.045  10.601
34797W        W93893   5.305   8.167  10.637
34798W        W93894  34.461  12.349  14.895
34799W        W93895  28.081  30.121  14.890
34800W        W93896  14.794  43.863  13.341
34801W        W93897  20.220  20.106   2.886
34802W        W93898  42.516  24.518   1.730
34803W        W93899  16.101  25.589  12.450
34804W        W93900  28.006  30.145  13.899
34805W        W93901   7.666  43.419  14.455
34806W        W93902  20.749  41.536   0.887
34807W        W93903  26.190  17.578  12.840
34808W        W93904   4.705  18.700   1.736
34809W        W93905  33.462  44.767  13.022
34810W        W93906  17.252  25.642   1.308
34811W        W93907   3.432  27.963  13.971
34812W        W93908  35.922   1.937   4.711
34813W        W93909  40.987  12.813   9.956
34814W        W93910  21.139  32.067  11.093
34815W        W93911  44.360  17.699  11.888
34816W        W93912  40.969  27.687   4.194
34817W        W93913  29.635  33.497   3.307
34818W        W93914  22.114  25.963  14.808
34819W        W93915   6.219  35.428   1.805
34820W        W93916  31.096  15.617  11.924
34821W        W93917  13.702  19.705   2.676
34822W        W93918  29.924  38.370  11.479
34823W        W93919  15.097  35.883   3.764
34824W        W93920  41.401  15.719   4.288
34825W        W93921  26.651  44.956   2.825
34826W        W93922  37.038  40.950   1.393
34827W        W93923  35.575  27.654   1.771
34828W        W93924  16.076  18.673  11.928
34829W        W93925  36.406   5.724   4.300
34830W        W93926  19.674  15.732   4.154
34831W        W93927   1.266  41.967   2.870
34832W        W93928  18.178  22.526   4.307
34833W        W93929  24.979  29.434  12.567
34834W        W93930   3.436  23.677   2.833
34835W        W93931  44.943  41.797  14.434
34836W        W93932  23.528  37.916  10.458
34837W        W93933   7.223  31.436  13.871
34838W        W93934  44.903  29.168  11.036
34839W        W93935   4.840  41.302   3.336
34840W        W93936  10.267   2.754  11.431
34841W        W93937   8.316  20.100  13.792
34842W        W93938  11.851   1.384   3.835
34843W        W93939  44.331  39.475  12.082
34844W        W93940  33.561  10.750  14.412
34845W        W93941  10.784   6.689   2.390
34846W        W93942  11.349  31.641   1.758
34847W        W93943  44.857  39.918   4.632
34848W        W93944   6.680  30.920   2.278
34849W        W93945  30.599  18.192  10.899
34850W        W93946  34.418  28.929  13.465
34851W        W93947  32.929   5.912  10.505
34852W        W93948  23.710  15.749   4.196
34853W        W93949   8.226  28.053   4.127
34854W        W93950   0.428  39.457   2.245
34855W        W93951   7.402  43.906   3.306
34856W        W93952  44.300  11.823   3.758
34857W        W93953   6.370  32.633   3.681
34858W        W93954  44.472  43.786  12.059
34859W        W93955  23.990  38.068   3.279
34860W        W93956   5.329  30.971  10.438
34861W        W93957  44.920  40.348  10.949
34862W        W93958   6.217  40.338   2.825
34863W        W93959  23.729  35.446   2.727
34864W        W93960  16.145   1.299  13.389
34865W        W93961  42.415   6.903  14.031
34866W        W93962   7.339  44.841  13.930
34867W        W93963  27.109  41.892   0.905
34868W        W93964  26.963   5.933   1.730
34869W        W93965   8.193  28.044   0.805
34870W        W93966  16.080  27.671   4.128
34871W        W93967  39.905  40.545  14.923
34872W        W93968  26.460  41.523  14.805
34873W        W93969   8.879  26.113   4.328
34874W        W93970  22.147  39.317  12.037
34875W        W93971   8.387   5.369  11.611
34876W        W93972  24.666   5.331  10.950
34877W        W93973  14.803  42.474   3.708
34878W        W93974  37.888  11.276  11.521
34879W        W93975  40.526  25.504  13.454
34880W        W93976   8.669  41.010  11.921
34881W        W93977  25.602  19.636  10.599
34882W        W93978   8.294  37.549   4.715
34883W        W93979   3.279  14.833   2.836
34884W        W93980  38.835  32.599  14.975
34885W        W93981   6.264  44.281   0.472
34886W        W93982   6.703  19.605   1.385
34887W        W93983  43.500  15.218  14.468
34888W        W93984  14.229   9.846  13.903
34889W        W93985   8.224  37.082   4.830
34890W        W93986   0.378  35.085   2.182
34891W        W93987  28.518  41.018  10.577
34892W        W93988  13.801  34.928  12.915
34893W        W93989  32.425   4.773  13.923
34894W        W93990  33.567  44.374   3.680
34895W        W93991  10.324   4.827  14.436
34896W        W93992  27.134   8.886  13.842
34897W        W93993   5.337   0.767  13.838
34898W        W93994  21.600  11.213   3.770
34899W        W93995  33.920  41.322  14.815
34900W        W93996   6.345  25.557  13.487
34901W        W93997  38.451  16.281   2.785
34902W        W93998  15.732  42.489  14.976
34903W        W93999  42.887  35.438  11.093
34904W        W94000  33.048  41.952   0.259
34905W        W94001  34.022  27.107  11.116
34906W        W94002  30.558  24.160   0.306
34907W        W94003  13.269   4.774   0.881
34908W        W94004  40.919  25.993   1.423
34909W        W94005  21.130  13.613   3.197
34910W        W94006  19.136  36.029  13.946
34911W        W94007  16.659  26.566   0.482
34912W        W94008   2.435  40.314   0.765
34913W        W94009  37.455  13.730  11.035
34914W        W94010  26.476  25.561   4.681
34915W        W94011  30.931  17.164   3.278
34916W        W94012   1.382  35.364  14.303
34917W        W94013  29.424  32.439   3.155
34918W        W94014   9.840  18.076  12.076
34919W        W94015   6.365  22.501   5.322
34920W        W94016  18.683  24.160  14.996
34921W        W94017   3.797   8.390   2.815
34922W        W94018  40.361  14.682   0.847
34923W        W94019  42.937  16.179  11.538
34924W        W94020   7.255  41.023  14.983
34925W        W94021  20.678   7.172   5.090
34926W        W94022  15.663  43.807   0.944
34927W        W94023  24.033  24.118  12.881
34928W        W94024  11.674  24.710  14.997
34929W        W94025   3.243   0.301   1.255
34930W        W94026  32.093  33.898  11.591
34931W        W94027  31.921  12.851   1.409
34932W        W94028   9.223  15.583   2.714
34933W        W94029  19.620  29.944   0.730
34934W        W94030  11.264  43.765  11.919
34935W        W94031  43.974  30.983  12.951
34936W        W94032   8.878  41.399  12.360
34937W        W94033  16.792  22.597   3.304
34938W        W94034  25.121  16.258  14.859
34939W        W94035   6.836   2.262   2.773
34940W        W94036   5.758   1.446   3.867
34941W        W94037  30.508  19.773   1.279
34942W        W94038  13.771  44.927   4.304
34943W        W94039  38.564  12.702   0.421
34944W        W94040  35.480  13.757  12.883
34945W        W94041  14.834  15.603   5.223
34946W        W94042  30.117   5.316   0.919
34947W        W94043   7.911  11.294   4.187
34948W        W94044  16.605   3.948   0.843
34949W        W94045   7.180  29.117   1.926
34950W        W94046  12.339  42.985   4.252
34951W        W94047  10.217  27.479   1.304
34952W        W94048  15.311  33.907  12.406
34953W        W94049   3.337  20.219   2.419
34954W        W94050  25.642  12.775  14.347
34955W        W94051  16.727  17.706   1.822
34956W        W94052  16.179  11.746  10.563
34957W        W94053  19.679  22.067  10.575
34958W        W94054  39.432  19.225   1.351
34959W        W94055  29.938   9.689   0.332
34960W        W94056  16.114   0.440   4.179
34961W        W94057  21.133  10.224  14.454
34962W        W94058  21.215  29.557  14.333
34963W        W94059   8.371  18.605  11.391
34964W        W94060  33.031  36.003  14.913
34965W        W94061  33.468  35.573  14.850
34966W        W94062  20.162  42.381   3.706
34967W        W94063   9.387  34.549  11.942
34968W        W94064  34.957  14.300  13.327
34969W        W94065  16.800  39.368   2.382
34970W        W94066  21.582  16.134  13.310
34971W        W94067   3.839  28.609  12.375
34972W        W94068  14.819  37.350  10.446
34973W        W94069   0.493   4.226  11.474
34974W        W94070  30.085  12.255  11.101
34975W        W94071   9.786  32.543   3.778
34976W        W94072  14.200  29.550   0.409
34977W        W94073  38.874  24.591  12.926
34978W        W94074  12.308  12.715   4.745
34979W        W94075  15.241  38.003   5.611
34980W        W94076   5.290  34.436  13.826
34981W        W94077   4.904  27.981   3.640
34982W        W94078  39.471  34.075  13.890
34983W        W94079  26.473  17.178   2.331
34984W        W94080  32.022  23.006  10.108
34985W        W94081  43.938   4.777   3.200
34986W        W94082  44.795  37.552  10.533
34987W        W94083  44.910  42.420  14.305
34988W        W94084  17.594   8.765  10.986
34989W        W94085   7.288  30.453  14.310
34990W        W94086   2.285  25.049  12.537
34991W        W94087   1.899  39.425  13.519
34992W        W94088   7.259  35.981   1.249
34993W        W94089   6.211  29.570   4.827
34994W        W94090   5.908  28.680  12.950
34995W        W94091  29.450  26.081   5.629
34996W        W94092  14.325  41.427  12.445
34997W        W94093  42.433   1.266  10.579
34998W        W94094  28.109   6.803  13.538
34999W        W94095   1.333   6.324   3.148
35000W        W94096  18.582  26.185  12.531
35001W        W94097  13.260  26.149   3.702
35002W        W94098  16.100  20.115   4.221
35003W        W94099  40.382   3.288   9.994
35004W        W94100  30.657  21.740  14.324
35005W        W94101  42.825  42.457  12.030
35006W        W94102  15.180  17.757  11.470
35007W        W94103  28.636  28.620  12.048
35008W        W94104  28.632  25.044   0.397
35009W        W94105   2.845  39.013  13.465
35010W        W94106  17.294   6.295  14.760
35011W        W94107  33.610  30.650   2.888
35012W        W94108  37.010  29.102   2.895
35013W        W94109   4.266  15.176  12.500
35014W        W94110   0.487  31.591  14.966
35015W        W94111  41.453   3.331   3.260
35016W        W94112   2.472   3.856  13.457
35017W        W94113  17.101  38.334   2.345
35018W        W94114  44.459  14.757  11.578
35019W        W94115  33.605  44.868  11.084
35020W        W94116  21.185  34.440   2.246
35021W        W94117  34.375  20.188  12.913
35022W        W94118  28.542  17.305   1.696
35023W        W94119  31.920  18.245   4.299
35024W        W94120  26.679   9.845   0.758
35025W        W94121   5.748  41.974  13.413
35026W        W94122  37.878  24.137   2.887
35027W        W94123  18.574  38.995  10.551
35028W        W94124  34.001  24.071  13.912
35029W        W94125   4.274  19.611   1.328
35030W        W94126   1.763  29.447   1.264
35031W        W94127  12.226  17.173   1.358
35032W        W94128  26.960  34.521  12.384
35033W        W94129  21.607  22.244  11.086
35034W        W94130   1.879  21.617   0.410
35035W        W94131  28.934  36.055   2.743
35036W        W94132  44.467  30.929   1.741
35037W        W94133  12.229   7.404   1.765
35038W        W94134  28.103   8.712   9.957
35039W        W94135   4.297   1.860   2.303
35040W        W94136  25.216  29.570   3.680
35041W        W94137  38.871  17.194  12.863
35042W        W94138  11.136  34.535   1.794
35043W        W94139   6.858   3.767   1.438
35044W        W94140  15.153  39.957   2.412
35045W        W94141  23.106  43.779   1.329
35046W        W94142   8.349  20.726  13.332
35047W        W94143  38.957  43.474   3.642
35048W        W94144  16.580  18.264  13.053
35049W        W94145  33.599   3.740  10.589
35050W        W94146  21.102   9.393  14.808
35051W        W94147  22.134   0.412   4.313
35052W        W94148   5.228  13.739   3.158
35053W        W94149  16.131  23.500   2.797
35054W        W94150  18.104   4.448   1.865
35055W        W94151   8.658   6.785   3.370
35056W        W94152  31.617  11.243  13.872
35057W        W94153  22.712  20.599  11.409
35058W        W94154  31.070  43.011  13.369
35059W        W94155   6.354  35.484   2.732
35060W        W94156  31.103  23.138  11.412
35061W        W94157   6.347  17.261   5.253
35062W        W94158  44.940  14.813   0.377
35063W        W94159  34.113  17.774   3.682
35064W        W94160   6.210  29.995   2.229
35065W        W94161   7.792  17.654  10.463
35066W        W94162  38.361  25.517  13.327
35067W        W94163  21.038  29.934   3.367
35068W        W94164  40.452   1.785  10.913
35069W        W94165  43.973  10.783  14.009
35070W        W94166   5.211  24.161  14.982
35071W        W94167   8.194  19.692   2.733
35072W        W94168  13.645  41.987  10.430
35073W        W94169  44.912  40.411  10.115
35074W        W94170  17.721   7.223  10.985
35075W        W94171  17.231  43.271   2.719
35076W        W94172  14.679  20.192   0.841
35077W        W94173   9.695  12.681  11.894
35078W        W94174  22.630  17.799   2.795
35079W        W94175  22.668   0.847   0.921
35080W        W94176   4.254  20.252  12.545
35081W        W94177  42.412  16.185   1.234
35082W        W94178   0.950  32.050   1.345
35083W        W94179  18.634  35.026  12.431
35084W        W94180  29.168  13.201   2.365
35085W        W94181  40.481   4.742   0.934
35086W        W94182   6.415  28.463   3.250
35087W        W94183  40.474  22.735  13.051
35088W        W94184  18.090  25.708   1.279
35089W        W94185  24.672   0.338   3.648
35090W        W94186   8.861   1.837  13.339
35091W        W94187  18.695  13.129  14.910
35092W        W94188  11.702  32.494  11.522
35093W        W94189   6.397  35.552  11.390
35094W        W94190  25.666  24.189  14.930
35095W        W94191  38.325  44.324   1.768
35096W        W94192  29.656  41.329   2.372
35097W        W94193  27.615  31.432   4.206
35098W        W94194  33.001   4.336   4.306
35099W        W94195  36.868  39.499  10.460
35100W        W94196  14.817  36.537  11.946
35101W        W94197  36.589  39.426   1.370
35102W        W94198   3.364  10.336  13.339
35103W        W94199  38.989  18.744  12.419
35104W        W94200  27.562  40.886   3.260
35105W        W94201  35.988  30.451  14.361
35106W        W94202  35.361  30.470   3.175
35107W        W94203  19.655  30.516   3.773
35108W        W94204   5.879  14.733  14.369
35109W        W94205  37.083  25.543   2.296
35110W        W94206  35.547  14.650   3.203
35111W        W94207  37.416  26.072  11.443
35112W        W94208   8.214  26.613  12.861
35113W        W94209  26.050  35.429  13.943
35114W        W94210  19.699  40.441  12.363
35115W        W94211  32.496  15.096   3.654
35116W        W94212   4.801  42.519   4.202
35117W        W94213   6.881  36.536  13.872
35118W        W94214  44.327  44.461  10.513
35119W        W94215  30.451  39.928  10.504
35120W        W94216  26.198  23.152   4.672
35121W        W94217  26.107  24.639  14.293
35122W        W94218  37.840  18.648  14.437
35123W        W94219   9.159  16.090   3.792
35124W        W94220  30.982  26.023  11.084
35125W        W94221   1.773  14.825  10.985
35126W        W94222  10.713  31.099  12.069
35127W        W94223  19.168  24.145  11.051
35128W        W94224  15.765  42.865  10.568
35129W        W94225  15.231  17.731  14.027
35130W        W94226   5.770  36.853  14.901
35131W        W94227  23.637  19.060   2.841
35132W        W94228  14.217  16.258   4.317
35133W        W94229  33.023  39.472   4.343
35134W        W94230  10.345  17.210  12.037
35135W        W94231  19.606  33.413   0.767
35136W        W94232  11.791  26.607   1.934
35137W        W94233   4.419   4.717  12.834
35138W        W94234  10.720  12.257   2.335
35139W        W94235  26.953  21.518  10.914
35140W        W94236   5.761   6.196  14.512
35141W        W94237  42.826  26.567   1.317
35142W        W94238  32.907  24.724  14.809
35143W        W94239   1.935  36.569  14.993
35144W        W94240   0.426  21.109  14.016
35145W        W94241  26.015  44.954   4.244
35146W        W94242   4.445  24.591   2.265
35147W        W94243  32.972  18.563  11.574
35148W        W94244  37.857  28.102  10.579
35149W        W94245  30.512  36.946   3.158
35150W        W94246  27.609  37.419  12.397
35151W        W94247  35.575  31.908  13.845
35152W        W94248  21.254   1.288   2.415
35153W        W94249  37.397  12.138   2.687
35154W        W94250   1.770  43.450  10.900
35155W        W94251  40.376   8.394   0.753
35156W        W94252  37.950  15.764  11.947
35157W        W94253  22.636   9.700   1.358
35158W        W94254   8.674  42.896  13.315
35159W        W94255  27.471   7.174  10.446
35160W        W94256   1.396  24.538  12.430
35161W        W94257  39.362  39.461   2.852
35162W        W94258  42.284  16.797  11.929
35163W        W94259   4.869  22.095   2.315
35164W        W94260   6.767  43.415  13.320
35165W        W94261   1.313   1.865  10.634
35166W        W94262  29.970  11.286  13.444
35167W        W94263   2.339  37.421   2.838
35168W        W94264  34.112  23.171   1.715
35169W        W94265  42.777  44.977   0.829
35170W        W94266  16.604  42.418  13.051
35171W        W94267  43.880  23.101  13.383
35172W        W94268  36.888  21.751  10.630
35173W        W94269  21.752  33.512  13.418
35174W        W94270  11.218  21.515  11.947
35175W        W94271  36.400  27.654   3.791
35176W        W94272  10.765  22.677   0.755
35177W        W94273  19.071   5.789   4.341
35178W        W94274   6.822  36.354  14.299
35179W        W94275  33.403  40.500  13.038
35180W        W94276  40.533  43.818   0.402
35181W        W94277   9.289  25.026  11.047
35182W        W94278  32.500  39.541   3.789
35183W        W94279  23.574  43.415   4.228
35184W        W94280  38.989  41.469  11.511
35185W        W94281   9.264  17.119  11.052
35186W        W94282  19.775  15.584   2.873
35187W        W94283  39.444  40.972  11.588
35188W        W94284  38.457  10.284  12.578
35189W        W94285  33.879  20.543   3.151
35190W        W94286  13.626  43.355  12.086
35191W        W94287  21.120   2.801  11.867
35192W        W94288  13.614  34.431   2.818
35193W        W94289  42.309  33.037   2.194
35194W        W94290   6.273   0.288  12.458
35195W        W94291   3.781  15.590   2.769
35196W        W94292  25.594  15.734   2.320
35197W        W94293   2.269  40.986  10.527
35198W        W94294  20.181  10.297   9.922
35199W        W94295  28.480  42.977   5.082
35200W        W94296  38.452   7.178  12.451
35201W        W94297  22.504   9.725  14.379
35202W        W94298   2.383  29.616   3.227
35203W        W94299   8.394  34.046  11.022
35204W        W94300  33.512  24.514  14.997
35205W        W94301  36.868  13.759  13.058
35206W        W94302   6.236  25.037  14.871
35207W        W94303   7.818   9.668   4.714
35208W        W94304  27.644  39.811   2.728
35209W        W94305   0.345  38.914   1.729
35210W        W94306  20.117   1.910   2.897
35211W        W94307   5.338   1.917   4.186
35212W        W94308   2.268  43.477  14.330
35213W        W94309  15.154  20.641   1.916
35214W        W94310  42.836   8.802   4.825
35215W        W94311  19.062  10.811   1.820
35216W        W94312  11.149   9.216   3.149
35217W        W94313   0.843   4.909   5.095
35218W        W94314   3.254  28.969   0.246
35219W        W94315  21.202  29.946   2.664
35220W        W94316   3.934  16.658  11.450
35221W        W94317  11.175  17.265  12.031
35222W        W94318  20.525  41.406  11.903
35223W        W94319  23.085  27.525  14.001
35224W        W94320   8.687  41.906  12.016
35225W        W94321  40.412  34.906  11.441
35226W        W94322  33.875  27.980  13.407
35227W        W94323  17.800  22.215  11.052
35228W        W94324  34.461  26.483   4.191
35229W        W94325  29.621  18.785  14.416
35230W        W94326  34.428  41.899  13.527
35231W        W94327  22.508  11.359  14.795
35232W        W94328  20.076  22.104  14.869
35233W        W94329   0.885   9.647   3.805
35234W        W94330  34.019  18.275   5.658
35235W        W94331  39.506  44.451  10.631
35236W        W94332   0.376  42.801  11.031
35237W        W94333  16.767  24.222   4.206
35238W        W94334  30.036  25.509   3.383
35239W        W94335  28.181  39.956  13.890
35240W        W94336  15.245  36.547  12.950
35241W        W94337  34.068  24.692   1.211
35242W        W94338   8.751  29.661   3.190
35243W        W94339  24.125  18.620   4.345
35244W        W94340  38.872   1.785   0.369
35245W        W94341  26.082  27.971  12.063
35246W        W94342   0.771  24.569   0.462
35247W        W94343  33.131  23.534   4.777
35248W        W94344  28.517   9.259   3.713
35249W        W94345   9.361  10.295  12.496
35250W        W94346  34.906  11.754   4.719
35251W        W94347  30.567  13.121   5.307
35252W        W94348  24.635  42.870  12.962
35253W        W94349  17.118  34.001   0.457
35254W        W94350  11.685  14.773   4.815
35255W        W94351  42.009  13.725  10.995
35256W        W94352  18.606  22.192   1.795
35257W        W94353   5.801  27.150   2.889
35258W        W94354   7.219  35.888   3.851
35259W        W94355  27.672  36.034   1.815
35260W        W94356   1.422  31.127  14.443
35261W        W94357  44.836   6.353  10.586
35262W        W94358  27.994  28.461  10.953
35263W        W94359  20.107  34.021  12.537
35264W        W94360  28.476  11.314   2.380
35265W        W94361  28.114  28.013  11.543
35266W        W94362  17.686  44.798  13.975
35267W        W94363  19.594  35.487  10.618
35268W        W94364   2.925  44.421   0.245
35269W        W94365  24.671  34.427  14.815
35270W        W94366  37.862  36.962   3.655
35271W        W94367  13.779  15.689   4.119
35272W        W94368  24.115   0.782   2.711
35273W        W94369   9.156   2.384   4.187
35274W        W94370  42.780  38.569   2.884
35275W        W94371   1.293  41.466  12.990
35276W        W94372  15.711  24.018   4.788
35277W        W94373  12.320  38.050  12.378
35278W        W94374  36.098  21.021  11.999
35279W        W94375  43.928  16.594   0.477
35280W        W94376  38.363   0.494   0.905
35281W        W94377   5.787   0.471  13.889
35282W        W94378  23.568  16.185   1.919
35283W        W94379  32.061  10.221  13.007
35284W        W94380  10.156   1.784  11.383
35285W        W94381  40.922  15.201   4.160
35286W        W94382  19.714  16.304  13.894
35287W        W94383   7.863  13.736   2.745
35288W        W94384  18.707  23.148   4.748
35289W        W94385  32.451  39.064   1.852
35290W        W94386  42.479   4.380  13.396
35291W        W94387  13.727  17.740   4.779
35292W        W94388   7.239   3.366  10.507
35293W        W94389  21.218  14.273  11.038
35294W        W94390   9.283  21.589   2.850
35295W        W94391  35.873  43.345  14.309
35296W        W94392  44.978  29.652  12.455
35297W        W94393  24.667   6.723  14.852
35298W        W94394  23.565  39.529  13.479
35299W        W94395  35.913  20.530   2.218
35300W        W94396   7.838  22.184  12.084
35301W        W94397  23.637   3.858  14.985
35302W        W94398  15.124  15.761  10.641
35303W        W94399  35.471  25.623  11.089
35304W        W94400   8.754  24.991   1.236
35305W        W94401  11.799   2.928  14.937
35306W        W94402   1.836  41.434  11.403
35307W        W94403  37.576  23.592  10.947
35308W        W94404  16.200  40.384  10.899
35309W        W94405  41.870   8.858   3.179
35310W        W94406   3.877  11.286   1.892
35311W        W94407  36.459  31.411  13.880
35312W        W94408  22.241  16.164   1.398
35313W        W94409  14.612  21.746   1.861
35314W        W94410   8.788  18.736   1.777
35315W        W94411  30.938  39.912   3.290
35316W        W94412  27.505   5.322  11.994
35317W        W94413   9.766  19.262  14.390
35318W        W94414  22.556  33.604   3.722
35319W        W94415  32.481  12.710   5.186
35320W        W94416  21.110  44.976  10.622
35321W        W94417  38.414  23.573   1.228
35322W        W94418  42.461  19.219   1.803
35323W        W94419   2.863  43.368  13.513
35324W        W94420  29.620  14.729   1.239
35325W        W94421  33.017  11.682   1.327
35326W        W94422  34.066   6.347  12.848
35327W        W94423  13.754  37.973   0.300
35328W        W94424  30.632  38.404  13.907
35329W        W94425  22.050  22.170   4.664
35330W        W94426  21.646  35.910   3.365
35331W        W94427  21.544  18.240   1.356
35332W        W94428  37.894  39.402   2.759
35333W        W94429  32.558  33.613   3.712
35334W        W94430  36.582  15.249   4.658
35335W        W94431  35.906  16.252   3.852
35336W        W94432   6.369  36.415   1.914
35337W        W94433  27.007  20.723  13.547
35338W        W94434  31.061   4.216  10.924
35339W        W94435   5.277  28.061   2.862
35340W        W94436   6.836  35.586  14.313
35341W        W94437  33.033  14.307  11.488
35342W        W94438  19.152  11.820  12.576
35343W        W94439  25.986  44.287   0.455
35344W        W94440  25.601   3.931   0.249
35345W        W94441   5.704  28.571   5.182
35346W        W94442   5.369  42.929   1.878
35347W        W94443  16.632  32.513  11.932
35348W        W94444  43.861   4.211  12.851
35349W        W94445   1.934   7.696   1.241
35350W        W94446  22.695   4.306  10.547
35351W        W94447  39.383  10.166   1.223
35352W        W94448   3.405  14.260   1.371
35353W        W94449  23.653  34.962   3.780
35354W        W94450   7.172  19.627  10.897
35355W        W94451  43.825  24.141   2.332
35356W        W94452  16.799   5.688   1.226
35357W        W94453  27.519  29.102   4.703
35358W        W94454  37.082  10.770  12.340
35359W        W94455  33.037  10.276  14.021
35360W        W94456  42.928  11.724  10.913
35361W        W94457  28.640  25.635  10.970
35362W        W94458  44.415  30.017   3.791
35363W        W94459  38.046  23.121  13.422
35364W        W94460  35.407   4.874  12.546
35365W        W94461  41.025  12.299   1.736
35366W        W94462  43.919  23.647   3.671
35367W        W94463  11.730   7.801   4.245
35368W        W94464  10.178  33.092   2.690
35369W        W94465  30.967  26.651   1.430
35370W        W94466  24.018  44.432   0.273
35371W        W94467   5.800  29.536  14.401
35372W        W94468   6.381  13.788  14.899
35373W        W94469  10.349  23.061  14.849
35374W        W94470  39.459  34.387   4.611
35375W        W94471  10.143  39.408  14.279
35376W        W94472   4.278   8.680  13.814
35377W        W94473  20.084  37.887  14.782
35378W        W94474  43.287  13.226  13.918
35379W        W94475  39.942  33.003  13.006
35380W        W94476  27.090  38.022  13.037
35381W        W94477  10.739  33.108   3.253
35382W        W94478  12.691  44.426  13.865
35383W        W94479   9.328   1.290  10.584
35384W        W94480  28.629  35.940  10.907
35385W        W94481  33.519  39.377   2.319
35386W        W94482  42.928  44.297  13.862
35387W        W94483  33.110  34.518   1.278
35388W        W94484  18.253  19.644  13.973
35389W        W94485   1.456  27.664   2.713
35390W        W94486  25.671  30.090   1.763
35391W        W94487  12.292  15.680   0.409
35392W        W94488  34.492  20.114   1.387
35393W        W94489  21.153  15.797  12.894
35394W        W94490  20.133  32.395  14.986
35395W        W94491  14.200  29.580  12.825
35396W        W94492   2.246  20.270   1.345
35397W        W94493  12.764   3.714  14.871
35398W        W94494  18.665  21.149  12.399
35399W        W94495  23.551  44.797   3.348
35400W        W94496  21.196  10.256   5.702
35401W        W94497  14.140   1.238   0.279
35402W        W94498   3.232  15.211  13.393
35403W        W94499  37.478  17.131  10.599
35404W        W94500   5.903  29.643  10.936
35405W        W94501  38.422  14.287  10.615
35406W        W94502  37.946  32.057  14.861
35407W        W94503  23.150  23.735   0.898
35408W        W94504   8.767  35.486  11.923
35409W        W94505  42.427  35.873  13.997
35410W        W94506  19.048  17.622  13.062
35411W        W94507   9.676  43.389  14.779
35412W        W94508   9.392  37.881   3.380
35413W        W94509  25.066  12.726   0.749
35414W        W94510  41.955  15.118   3.771
35415W        W94511   2.403   6.269  12.979
35416W        W94512  28.580   9.713   1.756
35417W        W94513  31.584  24.159  12.026
35418W        W94514  43.798  34.558  14.494
35419W        W94515  17.084  29.580  10.445
35420W        W94516  16.075  21.033   1.319
35421W        W94517  16.089   9.390  11.421
35422W        W94518  37.424  22.561   5.249
35423W        W94519  24.974   0.876  14.389
35424W        W94520  35.423   2.939  14.304
35425W        W94521  10.683   8.888  11.439
35426W        W94522  16.153  37.066  14.325
35427W        W94523   1.819  28.185  10.944
35428W        W94524  30.991   7.330   0.425
35429W        W94525  30.102  18.617  12.503
35430W        W94526  25.568   6.283  12.555
35431W        W94527   2.386  37.399  12.385
35432W        W94528  33.600  28.172  13.039
35433W        W94529   0.870  40.480   4.811
35434W        W94530  35.986  26.547  12.430
35435W        W94531   2.431   6.676  11.489
35436W        W94532  28.586  19.180  10.142
35437W        W94533  15.627  39.965   1.772
35438W        W94534  21.129   7.383   3.201
35439W        W94535   1.478  31.463  13.819
35440W        W94536  11.755   4.423   4.139
35441W        W94537  44.892  24.113   2.255
35442W        W94538  42.784  11.755  13.388
35443W        W94539  24.198   6.207   2.814
35444W        W94540  32.624   4.719   9.930
35445W        W94541   9.307  28.003   1.919
35446W        W94542  12.183   9.644  11.554
35447W        W94543  20.084  33.934  10.451
35448W        W94544   0.449  37.395  12.380
35449W        W94545  31.432  36.419   3.855
35450W        W94546  18.567  21.648   0.793
35451W        W94547  17.762  10.225  13.854
35452W        W94548   8.267  21.701   0.364
35453W        W94549  17.126   4.330   3.643
35454W        W94550  25.642  31.144  12.539
35455W        W94551  40.337  15.772  11.964
35456W        W94552  21.253  38.019   5.247
35457W        W94553  28.154   3.741   0.285
35458W        W94554   7.908  16.618  11.605
35459W        W94555  43.327  38.977   1.263
35460W        W94556  26.996  11.287   2.867
35461W        W94557   3.222  41.885   4.737
35462W        W94558  19.159  25.643  13.912
35463W        W94559  11.785   5.405   3.240
35464W        W94560  27.559  10.154  12.037
35465W        W94561  12.747  39.877   3.344
35466W        W94562   9.801  17.208  13.355
35467W        W94563  37.472  24.496  10.538
35468W        W94564  20.200  11.821  14.424
35469W        W94565  20.252  13.279  14.957
35470W        W94566  24.674  22.646   3.261
35471W        W94567  11.200   7.244   2.711
35472W        W94568  16.607  44.293  14.349
35473W        W94569   4.876  17.607   3.243
35474W        W94570   2.754  27.608   1.777
35475W        W94571  16.156  39.943   1.783
35476W        W94572  37.547  27.554  14.399
35477W        W94573  41.900  18.588  12.936
35478W        W94574  22.999   8.325   2.751
35479W        W94575   6.728  22.045  12.559
35480W        W94576  16.612  10.736   2.717
35481W        W94577  31.497  13.141   2.791
35482W        W94578  43.994  21.584   4.722
35483W        W94579   2.862   8.838   4.709
35484W        W94580  42.915  42.820   0.884
35485W        W94581  41.350  25.029  14.979
35486W        W94582  32.019  39.957   4.806
35487W        W94583  22.061   7.683  12.067
35488W        W94584  44.336  27.475  11.866
35489W        W94585   2.442  37.382  10.011
35490W        W94586  29.483   3.789   0.345
35491W        W94587   2.765   9.221   3.271
35492W        W94588  11.134   5.276  10.920
35493W        W94589  10.839  22.175   2.843
35494W        W94590  22.687  21.642   2.352
35495W        W94591  44.422   4.229  11.539
35496W        W94592   5.266  17.620  12.474
35497W        W94593  32.970   3.757   1.905
35498W        W94594  11.847  34.400   3.668
35499W        W94595  30.953  11.311  12.363
35500W        W94596  13.806  17.141   2.875
35501W        W94597  39.991  44.417   4.734
35502W        W94598  22.068  29.007   0.283
35503W        W94599  24.580  34.913   3.854
35504W        W94600  43.891  41.949  12.353
35505W        W94601   1.330  16.280  14.827
35506W        W94602  34.534  38.384   3.689
35507W        W94603  12.772  24.676   2.297
35508W        W94604  40.861  43.271   3.260
35509W        W94605  23.063  25.193   1.266
35510W        W94606  43.390  28.939  10.619
35511W        W94607  14.172  15.704  11.580
35512W        W94608  24.130  18.562   3.342
35513W        W94609  33.531  41.471  10.094
35514W        W94610   3.900  33.584   4.126
35515W        W94611  19.269  37.415   0.411
35516W        W94612  41.960  16.088  12.379
35517W        W94613  13.786   6.795   4.117
35518W        W94614  32.094  18.790  14.983
35519W        W94615  24.555  32.575   1.211
35520W        W94616  25.156   8.694  10.458
35521W        W94617  38.027  28.084   2.696
35522W        W94618  17.703  10.798   5.107
35523W        W94619   5.340  44.787   4.274
35524W        W94620  28.549  35.603  13.358
35525W        W94621  21.154   2.280  13.445
35526W        W94622   9.670   4.417  10.632
35527W        W94623  18.149  29.465   4.631
35528W        W94624  11.621  20.580  14.401
35529W        W94625   9.743   5.864   3.666
35530W        W94626  10.666  10.247   1.359
35531W        W94627   1.775   1.769  13.382
35532W        W94628  10.253  26.565   1.722
35533W        W94629  23.722   8.225  11.104
35534W        W94630   1.841  11.318   2.871
35535W        W94631  22.154  26.025   4.651
35536W        W94632   0.384  41.872  12.557
35537W        W94633  35.592  30.106   4.253
35538W        W94634  43.509  21.743  14.437
35539W        W94635  23.164  30.136   4.835
35540W        W94636  38.494  15.630  12.419
35541W        W94637  37.955   0.820   3.269
35542W        W94638  42.011  43.823  10.893
35543W        W94639  40.479  36.963   2.234
35544W        W94640  20.592   1.864   1.901
35545W        W94641  25.038  41.802   3.329
35546W        W94642  33.530  29.652   5.250
35547W        W94643  16.725   6.900  11.597
35548W        W94644   4.698  11.166   0.920
35549W        W94645   6.394  28.123   2.392
35550W        W94646  13.185  35.473   2.796
35551W        W94647  43.778  15.597  10.424
35552W        W94648  18.661  12.685  13.873
35553W        W94649  26.987  31.637   4.268
35554W        W94650   3.916  16.659   0.960
35555W        W94651  18.185  22.738  14.422
35556W        W94652   5.328   8.370  13.888
35557W        W94653  42.405   2.331   3.725
35558W        W94654  22.590  22.243   3.301
35559W        W94655  35.421  15.651  13.329
35560W        W94656  33.620  37.458   2.214
35561W        W94657  22.681  18.678  12.444
35562W        W94658  35.514  38.065   3.285
35563W        W94659  13.666  16.792  14.291
35564W        W94660  28.440  18.580  10.414
35565W        W94661  25.561  33.497   2.250
35566W        W94662   2.362  42.788  13.981
35567W        W94663   7.301   7.883   2.388
35568W        W94664  26.126  30.650  12.855
35569W        W94665  41.527   4.858  12.015
35570W        W94666  15.758   1.264  10.493
35571W        W94667  36.400  29.961   0.874
35572W        W94668  30.521  33.127  13.420
35573W        W94669  18.071   7.328   0.928
35574W        W94670  38.417   0.269  12.562
35575W        W94671   4.412  28.530   3.268
35576W        W94672  25.104  31.008  14.768
35577W        W94673   8.299   9.315  14.975
35578W        W94674  16.674  34.086   1.360
35579W        W94675   6.721   6.265  14.385
35580W        W94676  13.321   1.867  13.007
35581W        W94677  29.933   9.806  11.975
35582W        W94678   2.335  30.511  13.968
35583W        W94679  13.240  17.636   4.222
35584W        W94680  20.201  41.920  14.969
35585W        W94681  18.620  22.136  13.524
35586W        W94682  22.053  44.481  14.348
35587W        W94683  26.702  31.096   0.803
35588W        W94684   6.334   3.722  14.412
35589W        W94685   1.838  36.970   0.792
35590W        W94686  11.801  23.526   2.696
35591W        W94687  36.534  31.091  11.514
35592W        W94688  23.500  23.213   5.305
35593W        W94689  42.413  27.940  10.981
35594W        W94690  39.054  31.959   4.740
35595W        W94691  17.133  27.505   9.972
35596W        W94692  33.478   2.426  13.533
35597W        W94693   0.863  28.608  12.523
35598W        W94694  42.884   2.308   2.222
35599W        W94695   7.380  33.415  13.503
35600W        W94696  37.993  17.705  12.828
35601W        W94697  39.340  42.015   4.225
35602W        W94698  34.112  14.603  12.543
35603W        W94699  36.533  15.097  14.458
35604W        W94700   3.782  37.353  14.860
35605W        W94701  43.358  33.908  14.306
35606W        W94702   9.692  15.284  14.343
35607W        W94703  38.352  14.728   5.090
35608W        W94704  35.054  25.662  13.024
35609W        W94705   0.249   0.365  14.412
35610W        W94706  21.638  37.949   9.584
35611W        W94707  27.941  16.603   4.123
35612W        W94708   3.419  34.001  13.801
35613W        W94709  43.506   4.239   0.295
35614W        W94710  26.490  41.902   4.259
35615W        W94711  24.165  23.233  12.515
35616W        W94712   5.206   9.188   1.824
35617W        W94713  22.155  33.561  14.334
35618W        W94714  35.405  42.895  12.904
35619W        W94715  23.022   0.412   4.803
35620W        W94716  32.527  19.167  14.284
35621W        W94717   6.878  24.611  14.890
35622W        W94718  29.107  14.274  14.962
35623W        W94719  44.911  44.798  11.606
35624W        W94720  30.654  27.594   4.289
35625W        W94721  24.635  29.084   2.664
35626W        W94722   2.369  30.160   0.253
35627W        W94723   5.342  18.642   0.859
35628W        W94724  15.293  21.666   3.339
35629W        W94725  17.776  27.041  10.983
35630W        W94726   6.214  44.841   3.220
35631W        W94727  19.150   3.444  13.056
35632W        W94728  43.324  35.361   1.802
35633W        W94729   2.391   4.281  14.768
35634W        W94730  19.615  23.553   4.162
35635W        W94731  33.020  11.658   2.218
35636W        W94732  11.162   2.383  11.037
35637W        W94733  17.555  33.080   2.350
35638W        W94734  21.254  43.992   3.640
35639W        W94735   7.223  43.866   2.747
35640W        W94736   7.374  20.710  11.516
35641W        W94737  40.443  38.372  12.038
35642W        W94738  20.113   3.726  13.969
35643W        W94739   7.689  22.168  13.312
35644W        W94740  44.934  31.926   0.336
35645W        W94741   9.881  39.420   3.304
35646W        W94742  24.001   7.807  12.559
35647W        W94743  21.151  10.784   1.221
35648W        W94744  28.483  34.053  10.628
35649W        W94745  15.665  31.008  12.431
35650W        W94746  11.135  39.369   0.778
35651W        W94747  42.861  35.487   2.236
35652W        W94748  11.310   4.750  11.058
35653W        W94749  24.057  16.269  11.986
35654W        W94750  16.192  20.632  12.486
35655W        W94751  29.516  33.894   3.844
35656W        W94752  26.542  33.497   5.101
35657W        W94753  10.360  26.681  13.401
35658W        W94754  27.162  11.260   1.429
35659W        W94755   4.796  15.197   3.757
35660W        W94756   9.284  22.648   4.201
35661W        W94757  39.876  35.090  12.347
35662W        W94758   4.879  29.016  14.938
35663W        W94759   6.424   3.250   5.174
35664W        W94760   8.820  20.740   1.783
35665W        W94761  29.176  44.287  14.934
35666W        W94762  40.865  37.389   1.388
35667W        W94763  41.390   8.750  12.542
35668W        W94764   7.840  40.379  10.969
35669W        W94765  12.157  29.072   0.455
35670W        W94766  10.384  27.970  11.057
35671W        W94767  22.526  16.121  11.549
35672W        W94768   6.756  11.654  12.918
35673W        W94769  20.255  38.049  12.929
35674W        W94770  17.174  27.495   1.441
35675W        W94771  27.674   7.225   4.183
35676W        W94772  23.179  37.058   3.674
35677W        W94773  17.637  31.051  13.443
35678W        W94774   4.394  43.286   2.188
35679W        W94775  40.441  23.195  12.371
35680W        W94776  10.802  32.396  11.857
35681W        W94777   7.734  25.537   5.152
35682W        W94778  19.566   3.334   3.335
35683W        W94779  13.679  42.301  11.883
35684W        W94780  11.828  24.580   1.902
35685W        W94781   1.348  31.586  14.971
35686W        W94782  23.677  20.232   1.268
35687W        W94783  39.520  38.990   1.402
35688W        W94784   2.389  18.122   4.604
35689W        W94785   4.356  44.375  13.008
35690W        W94786  10.156  17.593  14.889
35691W        W94787  15.154  44.004  10.506
35692W        W94788  41.386  23.700  12.451
35693W        W94789  28.966   6.918   1.865
35694W        W94790  30.591  34.102   3.198
35695W        W94791  42.327  40.473   2.822
35696W        W94792   0.800  32.424  11.072
35697W        W94793  27.941  20.242  13.881
35698W        W94794  13.613  18.742   1.918
35699W        W94795   8.671  18.706  11.024
35700W        W94796  14.266  33.105  11.116
35701W        W94797  16.158  16.303  13.525
35702W        W94798  13.801  28.462  12.862
35703W        W94799  39.559  28.461   3.844
35704W        W94800  36.915   0.847   4.279
35705W        W94801  17.669   8.802  12.067
35706W        W94802  28.970  29.152   4.162
35707W        W94803  41.951  28.185  10.504
35708W        W94804  25.659  42.316  13.418
35709W        W94805  21.139  20.739   0.927
35710W        W94806  44.485  35.397   1.921
35711W        W94807  18.745   3.396   4.666
35712W        W94808   6.882  16.714  11.877
35713W        W94809  41.316  11.253   5.705
35714W        W94810   4.742   0.254   2.245
35715W        W94811   0.804  42.350  11.091
35716W        W94812   8.227   8.860   1.390
35717W        W94813   0.760   7.401  10.017
35718W        W94814   2.827  33.108  14.794
35719W        W94815  35.600  40.500   2.251
35720W        W94816  18.112  23.627   4.806
35721W        W94817  23.039  21.707   3.366
35722W        W94818  17.687  10.875  11.521
35723W        W94819  38.500  38.070   4.685
35724W        W94820   4.745  32.456  14.320
35725W        W94821  31.917   7.868   4.135
35726W        W94822   1.424  41.325  11.439
35727W        W94823  22.575  35.060   1.212
35728W        W94824   7.789  40.809  12.909
35729W        W94825  37.482  32.967   3.636
35730W        W94826  36.360  25.029   4.260
35731W        W94827  21.068  39.891   0.961
35732W        W94828  12.760  28.460   1.812
35733W        W94829  15.580  31.977  11.060
35734W        W94830  33.990  18.061   1.700
35735W        W94831  10.816  20.632   4.174
35736W        W94832  13.810   8.867   3.632
35737W        W94833  28.473  35.416   0.892
35738W        W94834   2.318   2.338   5.254
35739W        W94835   9.265  22.102   3.631
35740W        W94836  28.615   2.269   4.791
35741W        W94837  21.682  36.563  10.144
35742W        W94838  35.035  31.097  11.515
35743W        W94839   1.342  23.199   4.207
35744W        W94840  29.589  40.882   3.810
35745W        W94841  31.610  25.624  12.567
35746W        W94842  27.487  11.865   3.303
35747W        W94843   0.860  41.374  12.909
35748W        W94844  26.209   4.340   1.430
35749W        W94845  14.326  41.347   1.695
35750W        W94846  43.864  29.560   1.811
35751W        W94847  40.363  11.221  13.000
35752W        W94848   1.328  30.569  10.905
35753W        W94849  32.420  31.978   4.160
35754W        W94850  36.410   6.232   5.222
35755W        W94851  13.740  41.537  14.444
35756W        W94852  35.921  43.891  12.491
35757W        W94853   7.772  27.127  13.313
35758W        W94854  32.054  24.488  12.909
35759W        W94855   3.747  21.637  13.980
35760W        W94856  42.809  12.736   0.830
35761W        W94857  14.797  39.992  13.507
35762W        W94858  25.656  13.175   2.293
35763W        W94859  32.529  32.912   4.239
35764W        W94860  23.504  31.577   3.769
35765W        W94861  19.194  22.098   2.716
35766W        W94862   4.280  28.532  10.892
35767W        W94863  14.765  21.629  12.937
35768W        W94864   5.245  29.520  13.314
35769W        W94865  20.265  19.079   1.822
35770W        W94866  33.526  39.868  11.977
35771W        W94867  28.528  12.285  10.405
35772W        W94868  35.091  14.660   1.775
35773W        W94869  22.113  14.650  12.093
35774W        W94870   7.251  17.640  12.350
35775W        W94871   5.325   2.334  11.965
35776W        W94872  17.772  25.052  12.368
35777W        W94873  25.575  42.936   1.889
35778W        W94874  22.554  44.855   4.654
35779W        W94875  27.526  41.984   3.655
35780W        W94876  41.966  18.050  12.955
35781W        W94877   7.409  39.818  13.865
35782W        W94878   5.265  21.201  13.888
35783W        W94879   1.914  27.957  14.953
35784W        W94880  23.144   6.797   4.611
35785W        W94881  44.443   7.335   2.794
35786W        W94882  14.766  43.778   0.841
35787W        W94883  18.588  34.077  12.375
35788W        W94884  24.184  43.464  12.060
35789W        W94885  25.088  33.478   3.292
35790W        W94886  34.427  42.516   1.797
35791W        W94887  23.214  22.592   3.641
35792W        W94888  14.604   1.296   0.399
35793W        W94889  40.040  37.450   4.237
35794W        W94890  14.274   3.324   4.193
35795W        W94891  11.323  18.112   5.123
35796W        W94892   5.889  43.885  11.046
35797W        W94893  28.640  30.032  12.448
35798W        W94894  14.219  37.446   4.679
35799W        W94895   2.804  22.220  11.547
35800W        W94896  25.513   1.850   4.220
35801W        W94897  33.112  20.129   0.425
35802W        W94898   1.856  43.374   1.879
35803W        W94899   5.275  27.582  14.390
35804W        W94900  40.540  11.628   4.287
35805W        W94901   4.762  20.137  12.418
35806W        W94902  38.842  33.556  13.425
35807W        W94903   9.836  34.032   1.246
35808W        W94904  42.895  29.537  11.067
35809W        W94905   6.220   9.885   3.741
35810W        W94906   2.461  19.103  10.979
35811W        W94907  23.690  37.561  14.975
35812W        W94908  10.147  11.218   4.716
35813W        W94909  41.467  28.957   0.772
35814W        W94910   6.252   5.292  14.310
35815W        W94911  43.862  37.492  12.467
35816W        W94912   9.834   3.839   2.892
35817W        W94913   6.422   7.682   0.730
35818W        W94914  32.397  24.986  11.504
35819W        W94915  35.453  11.709  11.057
35820W        W94916  14.125   3.881  12.957
35821W        W94917  25.216  39.462   3.764
35822W        W94918  21.205  41.002   2.882
35823W        W94919  30.518  39.024  11.487
35824W        W94920  31.567  34.428  11.470
35825W        W94921  11.857  25.046   2.683
35826W        W94922  42.486   8.663  12.468
35827W        W94923   1.863  43.815  13.833
35828W        W94924  31.073  12.239  10.909
35829W        W94925  39.394  16.291   0.801
35830W        W94926  36.977  32.503   2.391
35831W        W94927   2.353   2.362  12.503
35832W        W94928  15.765   9.699   4.237
35833W        W94929  39.990  36.502   4.177
35834W        W94930   0.961  41.446   3.776
35835W        W94931   1.818  28.063   3.871
35836W        W94932   6.775  10.304   2.380
35837W        W94933  23.624  23.730  13.886
35838W        W94934  33.545  31.634  10.893
35839W        W94935  29.590  24.714  13.002
35840W        W94936  27.086  27.072  14.864
35841W        W94937   4.768   0.370  12.493
35842W        W94938  39.824  41.933   1.857
35843W        W94939  38.535  36.975   2.263
35844W        W94940  25.664  13.214  14.503
35845W        W94941   1.858   8.335   3.762
35846W        W94942   9.868  43.406   4.622
35847W        W94943   5.286  42.942  14.921
35848W        W94944  29.634  28.157   2.747
35849W        W94945   0.317  11.283  10.921
35850W        W94946   8.370   7.703  11.494
35851W        W94947  14.331  39.383   4.809
35852W        W94948  44.297   9.178   2.201
35853W        W94949  40.881   1.956   1.354
35854W        W94950   8.662  22.223  12.084
35855W        W94951  10.248  36.377   2.719
35856W        W94952   1.840   2.369  13.823
35857W        W94953  33.437  27.133   4.770
35858W        W94954  39.555  19.113  12.034
35859W        W94955   0.350  31.563   2.820
35860W        W94956   5.245  24.033  12.888
35861W        W94957   2.302   3.459  11.416
35862W        W94958  17.775  43.950   2.357
35863W        W94959  40.368   2.315   2.308
35864W        W94960  36.081   9.250   5.685
35865W        W94961  16.706   2.365  10.443
35866W        W94962  33.492  29.629   4.253
35867W        W94963  16.316  22.684  14.800
35868W        W94964   3.359  39.349   0.865
35869W        W94965  12.288   2.277   0.396
35870W        W94966  17.795  36.582  10.472
35871W        W94967  41.935  22.578  11.060
35872W        W94968   1.777   7.873   2.816
35873W        W94969  43.484  20.680   3.658
35874W        W94970  34.931  44.336   2.821
35875W        W94971   8.232  36.565  10.926
35876W        W94972  33.935   5.374   4.776
35877W        W94973  20.592  31.552   3.842
35878W        W94974   9.321   3.452   4.228
35879W        W94975  34.936   9.244  11.430
35880W        W94976  42.327  20.626   0.463
35881W        W94977  40.475  30.528   2.903
35882W        W94978   3.350   8.747   4.117
35883W        W94979  39.979  35.985   1.707
35884W        W94980  43.487   4.206  14.391
35885W        W94981  34.535  19.562  10.922
35886W        W94982  39.398  25.675   2.666
35887W        W94983  23.048  19.176   2.700
35888W        W94984  17.126   3.954  10.642
35889W        W94985   9.157  17.754   4.709
35890W        W94986  26.651  38.050   4.212
35891W        W94987  26.987  28.097  13.447
35892W        W94988   2.440   8.848  14.304
35893W        W94989  13.205  32.979  14.501
35894W        W94990  44.806  36.503  14.512
35895W        W94991  15.747  11.127  11.119
35896W        W94992  31.955  19.732   1.337
35897W        W94993   0.252  10.817   4.762
35898W        W94994  18.627  40.326   3.777
35899W        W94995   6.282  27.107  11.085
35900W        W94996  38.880   0.258   0.897
35901W        W94997  42.368  43.457   4.769
35902W        W94998  13.717  23.676   1.443
35903W        W94999  25.012  31.482  11.909
35904W        W95000  37.347  29.592  11.949
35905W        W95001  16.663  30.543  10.629
35906W        W95002  30.974  42.458   2.688
35907W        W95003  10.834  42.397   1.290
35908W        W95004  32.626   6.392   0.903
35909W        W95005  35.098   4.265   0.381
35910W        W95006  35.546  14.762   4.303
35911W        W95007  12.255  44.299   2.713
35912W        W95008  42.392  28.036  13.937
35913W        W95009   0.277  17.163  12.962
35914W        W95010  10.776   2.466   4.263
35915W        W95011  21.083  38.934  14.968
35916W        W95012  12.752  13.707  14.471
35917W        W95013   0.867  11.248   3.695
35918W        W95014  14.629  22.638  14.776
35919W        W95015   9.746  33.039   4.621
35920W        W95016  21.677  12.246   3.178
35921W        W95017   9.225   6.344   1.313
35922W        W95018  28.494   5.262  12.573
35923W        W95019  10.139   7.816   2.846
35924W        W95020  27.675  32.926   1.422
35925W        W95021  29.052   8.224   0.777
35926W        W95022  15.613  34.594   3.154
35927W        W95023   6.197  17.700  14.763
35928W        W95024   1.966  31.040  13.048
35929W        W95025  29.640  14.242  11.997
35930W        W95026  15.758  19.689  10.151
35931W        W95027  19.247  33.624  13.812
35932W        W95028  12.153  26.070   3.793
35933W        W95029  14.679  36.447  11.461
35934W        W95030  17.779  30.942   2.892
35935W        W95031  37.524  33.535   2.307
35936W        W95032  10.269  42.009  14.290
35937W        W95033  32.436  32.074  13.358
35938W        W95034  27.634  16.711   4.748
35939W        W95035  20.262  10.817   2.856
35940W        W95036  30.617  16.609  13.063
35941W        W95037  22.212  36.010  14.994
35942W        W95038  37.372  18.073  13.020
35943W        W95039  19.260   4.742   0.438
35944W        W95040  14.242  17.781  14.892
35945W        W95041   2.227  25.012   3.191
35946W        W95042  23.557  39.469  10.940
35947W        W95043  43.875  38.345   1.409
35948W        W95044  10.358  42.429  10.458
35949W        W95045  20.537   5.436  11.467
35950W        W95046  41.873  10.760   1.372
35951W        W95047   9.283  27.966  12.953
35952W        W95048  40.377  31.628  10.924
35953W        W95049  20.618   6.854   2.275
35954W        W95050  10.775  42.321  13.387
35955W        W95051  31.150  32.599  13.973
35956W        W95052  34.526  18.625   2.321
35957W        W95053  37.913  39.018  13.888
35958W        W95054  17.154  15.273   0.302
35959W        W95055  12.660  11.227  12.548
35960W        W95056   4.796  25.696  13.353
35961W        W95057   1.804  11.621   5.176
35962W        W95058   9.884  18.641   3.729
35963W        W95059  44.484   6.912   0.400
35964W        W95060   1.323  21.062  13.357
35965W        W95061  41.890  10.753  13.350
35966W        W95062  37.386  22.712   0.320
35967W        W95063  44.847  26.058  14.930
35968W        W95064   6.759   9.245   1.353
35969W        W95065  15.763  12.769  11.582
35970W        W95066  36.855   7.767   1.791
35971W        W95067  35.542  15.730  10.429
35972W        W95068  13.775  33.888   9.602
35973W        W95069  31.434   2.319  10.605
35974W        W95070  23.201  38.871  10.589
35975W        W95071  44.789  11.680   3.310
35976W        W95072  19.076  11.684  11.489
35977W        W95073  29.536   2.934  11.576
35978W        W95074   3.277  22.224  14.918
35979W        W95075  37.014  32.500  10.433
35980W        W95076  23.059  24.691   2.264
35981W        W95077   2.740  27.507  11.884
35982W        W95078  22.609  43.420   2.256
35983W        W95079   6.758  36.087  13.863
35984W        W95080   9.679  43.811   4.144
35985W        W95081  11.223  21.251   3.749
35986W        W95082  42.014  34.539   1.800
35987W        W95083  13.153  33.128   3.191
35988W        W95084  26.640  43.817  12.502
35989W        W95085  25.182  22.631   4.720
35990W        W95086  31.896  20.579  14.029
35991W        W95087   9.777   9.354  14.484
35992W        W95088  14.732  44.940  10.499
35993W        W95089   9.849   0.432  10.925
35994W        W95090  23.729  44.883  11.475
35995W        W95091  11.760  14.123   0.865
35996W        W95092  35.897   6.723   4.119
35997W        W95093  22.221  36.003   2.704
35998W        W95094  33.043   8.265   1.335
35999W        W95095  29.423  10.362  14.992
36000W        W95096  30.007   4.316  13.345
36001W        W95097  19.733  17.157  12.423
36002W        W95098  26.579  28.603   2.316
36003W        W95099  38.482  17.658  11.597
36004W        W95100  18.098  44.998  12.955
36005W        W95101  20.157  41.448  12.443
36006W        W95102   3.407  23.201   2.897
36007W        W95103  31.900  34.070   4.794
36008W        W95104  40.459  24.015   1.228
36009W        W95105  24.512  23.218   4.224
36010W        W95106  28.650  33.575  12.080
36011W        W95107  22.613  17.660  14.885
36012W        W95108  17.216  33.043   4.270
36013W        W95109  10.649  42.334  13.841
36014W        W95110  27.055  14.300   1.364
36015W        W95111   4.810  21.185   1.429
36016W        W95112  21.548   0.948   4.334
36017W        W95113  43.994  10.360  14.457
36018W        W95114   8.670  25.674  13.334
36019W        W95115  17.750   5.699   4.718
36020W        W95116  31.481  28.665  14.353
36021W        W95117  20.186  17.231  12.824
36022W        W95118  26.980  18.230   3.353
36023W        W95119   0.301  20.234  11.549
36024W        W95120  39.373  33.001  12.018
36025W        W95121  21.181  18.732  13.033
36026W        W95122  21.167  41.433  13.402
36027W        W95123  43.368  25.525  12.354
36028W        W95124   8.168  15.251  10.936
36029W        W95125  15.660  37.444   2.898
36030W        W95126   4.730  29.669  12.015
36031W        W95127  24.592  16.238  10.538
36032W        W95128  12.745  27.627   2.400
36033W        W95129  17.604  10.335   2.807
36034W        W95130  31.136   6.886   0.754
36035W        W95131  21.057  26.990   1.767
36036W        W95132  21.654   0.436  11.492
36037W        W95133  17.268  21.167  14.998
36038W        W95134   2.759  43.842   0.759
36039W        W95135  17.224   0.959  12.392
36040W        W95136  44.933  18.066   3.338
36041W        W95137  36.455  31.971   4.702
36042W        W95138  15.734  38.555  11.939
36043W        W95139  30.024  42.786   3.703
36044W        W95140  29.921  37.987   1.709
36045W        W95141   1.917  35.075   2.383
36046W        W95142  36.875  25.022   4.762
36047W        W95143  28.636   7.727   4.817
36048W        W95144  19.268   8.265   5.194
36049W        W95145   4.785  12.771  10.508
36050W        W95146   8.720  23.724  12.565
36051W        W95147   6.916   5.314   2.714
36052W        W95148  14.695   3.400  11.532
36053W        W95149  28.020  31.055  14.931
36054W        W95150  12.340   5.727   4.741
36055W        W95151   6.819  40.797  13.411
36056W        W95152  39.395  37.957  12.453
36057W        W95153  10.215  23.618  13.516
36058W        W95154   7.784  19.046   3.321
36059W        W95155  32.582  44.306  14.011
36060W        W95156  37.520  16.737  11.561
36061W        W95157   6.864  31.991  10.934
36062W        W95158  13.623  27.990  11.599
36063W        W95159  24.203   6.235   2.271
36064W        W95160   5.287   5.851  14.322
36065W        W95161  15.742  31.612   4.783
36066W        W95162  36.966  42.812  12.520
36067W        W95163   9.294  37.464   1.729
36068W        W95164   7.690   8.252  12.977
36069W        W95165  29.658  12.165  10.939
36070W        W95166  37.083  22.008   4.787
36071W        W95167  32.010  11.335   1.813
36072W        W95168  24.511  41.503   1.749
36073W        W95169  34.421  13.283  11.081
36074W        W95170   7.684  32.097  11.411
36075W        W95171  37.406  36.556   2.346
36076W        W95172  32.098   4.773  14.872
36077W        W95173  12.339  11.703   0.396
36078W        W95174  43.861  14.186   1.340
36079W        W95175  34.977   6.339  14.946
36080W        W95176  18.670  30.069  14.999
36081W        W95177   1.408  12.225  14.403
36082W        W95178  37.367  42.882   1.750
36083W        W95179   5.792  19.581  10.445
36084W        W95180  38.435  31.588  11.474
36085W        W95181  28.446  11.842  11.028
36086W        W95182  13.220  37.505   0.800
36087W        W95183  12.730  19.116  14.956
36088W        W95184   7.311  41.309   4.145
36089W        W95185  25.988   4.860   1.720
36090W        W95186  21.151  43.863   4.306
36091W        W95187  34.924  35.970   4.136
36092W        W95188  16.197  36.573   3.264
36093W        W95189  28.647   1.341  13.996
36094W        W95190  25.607  18.584   4.216
36095W        W95191  43.908  43.817  13.397
36096W        W95192  35.901  12.785   1.379
36097W        W95193  25.089   2.465  13.309
36098W        W95194  35.582  29.459  11.085
36099W        W95195  25.022  44.483  12.918
36100W        W95196   2.281   2.231  10.979
36101W        W95197   7.902  18.247  13.544
36102W        W95198  44.260  42.900  11.389
36103W        W95199   7.871  12.122   4.144
36104W        W95200  21.191  31.014   4.814
36105W        W95201  42.397  21.072  13.848
36106W        W95202  34.375  18.257  13.522
36107W        W95203  34.104  20.759  13.898
36108W        W95204  26.201  18.791   0.434
36109W        W95205  22.579  17.701   1.310
36110W        W95206  41.352  41.343   4.782
36111W        W95207  19.040  13.783  12.950
36112W        W95208  32.951  20.615   3.287
36113W        W95209  36.367  26.588  10.612
36114W        W95210  36.004  30.451   0.364
36115W        W95211  42.417  17.677  11.920
36116W        W95212  14.614   8.685  14.773
36117W        W95213  34.098  33.975  13.529
36118W        W95214   1.325  19.706  10.890
36119W        W95215  22.723  35.079  14.476
36120W        W95216   7.356   3.272  11.856
36121W        W95217   0.898  32.481   3.261
36122W        W95218  38.453  34.984  12.421
36123W        W95219  44.951   1.920  11.565
36124W        W95220  11.660  43.829  10.575
36125W        W95221  32.413  37.578   3.319
36126W        W95222   9.655   3.734  14.004
36127W        W95223  37.546  34.554   3.805
36128W        W95224  37.560  39.405  11.585
36129W        W95225  43.341  18.609  11.903
36130W        W95226  20.713  32.603  13.459
36131W        W95227  35.863  35.426   4.654
36132W        W95228   0.373  44.393  13.931
36133W        W95229  28.100   9.644   0.942
36134W        W95230  30.616   9.770  13.396
36135W        W95231  39.060  11.730   3.728
36136W        W95232  21.757   5.412   1.379
36137W        W95233  34.565  19.152   2.292
36138W        W95234  18.631  43.008  10.097
36139W        W95235  26.480  33.934   9.444
36140W        W95236   0.426  34.936   1.334
36141W        W95237  42.393  19.143  12.070
36142W        W95238   7.813  34.868  11.395
36143W        W95239  24.095  41.829   0.907
36144W        W95240   3.800  31.620   3.669
36145W        W95241  32.091  10.706  13.394
36146W        W95242  33.538  33.128  11.867
36147W        W95243   6.703  44.912   0.958
36148W        W95244  44.849   7.359   1.216
36149W        W95245   7.339  39.399  11.025
36150W        W95246  31.526   7.267  13.469
36151W        W95247  33.973   8.394  11.073
36152W        W95248  33.495  39.813   3.306
36153W        W95249  15.190  10.269  11.587
36154W        W95250   5.719  11.805  10.626
36155W        W95251   9.781  25.647  12.560
36156W        W95252  41.017  42.295  11.966
36157W        W95253  20.265  18.705   0.785
36158W        W95254  41.293  41.828  11.945
36159W        W95255  40.981  19.769  13.381
36160W        W95256  32.988  18.062   2.180
36161W        W95257  39.394  11.308  10.545
36162W        W95258  14.181  31.404  12.082
36163W        W95259  18.148  44.940   4.299
36164W        W95260  22.008  19.153   9.644
36165W        W95261  12.312  32.605  14.007
36166W        W95262  17.198   5.348  14.490
36167W        W95263  31.561   1.969  12.473
36168W        W95264  26.978   1.970   4.347
36169W        W95265  14.702  37.577   2.872
36170W        W95266  27.622  12.706   1.291
36171W        W95267  39.509   6.279  11.374
36172W        W95268   6.277  37.959  11.859
36173W        W95269  44.869  12.280   3.207
36174W        W95270  38.976  27.069   4.326
36175W        W95271  13.831   5.760   0.739
36176W        W95272  15.313  36.535   2.321
36177W        W95273  28.027   5.237   0.743
36178W        W95274  28.979  31.995  13.816
36179W        W95275   4.428  40.448   4.221
36180W        W95276  39.915   9.225  11.998
36181W        W95277  36.452  44.880   2.843
36182W        W95278  11.342  33.536  13.322
36183W        W95279  41.531  20.693   3.281
36184W        W95280  20.147   1.948   3.352
36185W        W95281  12.765  40.543   4.234
36186W        W95282  31.916  16.669   1.372
36187W        W95283  33.423  22.576   0.888
36188W        W95284  17.170   0.934   2.881
36189W        W95285  21.097  27.161  13.338
36190W        W95286  18.243  39.472  10.583
36191W        W95287   7.685  17.738   9.966
36192W        W95288  40.478  26.495  12.090
36193W        W95289  24.987  30.445  12.518
36194W        W95290  18.725  35.592   3.303
36195W        W95291   6.706  12.156   0.242
36196W        W95292  21.683   1.853  12.363
36197W        W95293  43.935  29.111   2.194
36198W        W95294  30.035  24.150  10.025
36199W        W95295  20.560   7.729   1.278
36200W        W95296  40.946  41.840  13.419
36201W        W95297   8.697   3.945  10.477
36202W        W95298  16.696  40.822   2.233
36203W        W95299  26.465  28.019  12.870
36204W        W95300  28.147  43.854   4.679
36205W        W95301  28.487  24.096  11.064
36206W        W95302  21.239  28.106   1.315
36207W        W95303   4.242   2.319  13.997
36208W        W95304  44.446  27.535   4.217
36209W        W95305  12.204  17.710   0.768
36210W        W95306  42.018  33.561   0.917
36211W        W95307  10.238   9.660  11.010
36212W        W95308  37.440  35.068  12.577
36213W        W95309  33.527   6.230   3.324
36214W        W95310  24.152  33.957  13.500
36215W        W95311  36.065  25.553   9.633
36216W        W95312  16.082  29.489   5.161
36217W        W95313  37.920  42.332   2.387
36218W        W95314  23.694  23.063   4.613
36219W        W95315  24.581  31.073   4.645
36220W        W95316  28.613   7.231  11.561
36221W        W95317   2.785  32.082   3.220
36222W        W95318   3.374  12.761   0.795
36223W        W95319  21.721   3.268   3.177
36224W        W95320   1.853  37.515  12.905
36225W        W95321  30.044   8.709   2.733
36226W        W95322   2.339  30.126  11.092
36227W        W95323  10.712  19.640  11.417
36228W        W95324  25.157  37.557   2.340
36229W        W95325   5.792   5.933   0.746
36230W        W95326  12.288  17.700   1.228
36231W        W95327  40.949  40.463   4.134
36232W        W95328  30.526  27.649  10.979
36233W        W95329  29.983  18.203   0.927
36234W        W95330  13.843  38.973   2.772
36235W        W95331  21.584  33.940   0.292
36236W        W95332  42.807  25.501  13.011
36237W        W95333  11.217  11.819  14.777
36238W        W95334  18.548  29.482  13.915
36239W        W95335  12.704  12.769   1.426
36240W        W95336  42.843   3.939   0.821
36241W        W95337  36.040  44.475  13.373
36242W        W95338  26.487  17.270  14.903
36243W        W95339  12.162  43.766   0.801
36244W        W95340   5.399  43.470  14.341
36245W        W95341  38.950  41.467   0.773
36246W        W95342  32.514   3.403   0.810
36247W        W95343  17.743  36.515  14.500
36248W        W95344  31.630   4.897  14.360
36249W        W95345  24.033  10.236   3.374
36250W        W95346  24.581  16.627   3.674
36251W        W95347   7.852  13.650  13.030
36252W        W95348   6.906  19.540  12.392
36253W        W95349  36.563  33.621   3.723
36254W        W95350  10.377  13.296  10.633
36255W        W95351   4.406  35.440   1.856
36256W        W95352  12.190  28.033   2.349
36257W        W95353   4.871  31.927  14.765
36258W        W95354  36.442  35.558   1.323
36259W        W95355  21.165  10.221   3.726
36260W        W95356  21.236  43.779   4.741
36261W        W95357  12.199  16.130   1.280
36262W        W95358  42.303  27.593   4.780
36263W        W95359  20.110  13.140   4.346
36264W        W95360  18.070  28.057   4.814
36265W        W95361  36.526  36.890  13.827
36266W        W95362  39.323  41.522  12.012
36267W        W95363   3.818  34.971  12.882
36268W        W95364  44.429  42.482  12.976
36269W        W95365  32.946  22.695   9.584
36270W        W95366  31.125  12.218  13.839
36271W        W95367  32.616   0.854  13.968
36272W        W95368   7.803  43.317  12.065
36273W        W95369   6.771  39.484  11.497
36274W        W95370  10.355  42.493  11.895
36275W        W95371   6.835   8.724  14.405
36276W        W95372  43.430  17.287  11.919
36277W        W95373  20.138  34.047   0.881
36278W        W95374  12.280  40.899   2.222
36279W        W95375  26.086  19.214   1.895
36280W        W95376  42.350   7.375   1.232
36281W        W95377   1.440  11.199   2.796
36282W        W95378   1.764   9.385  13.971
36283W        W95379  34.373  40.964   3.258
36284W        W95380  18.254   8.750  11.017
36285W        W95381  42.845   8.664   2.402
36286W        W95382  27.024  36.565   3.325
36287W        W95383  35.034  32.083  10.438
36288W        W95384  21.512  28.021   2.357
36289W        W95385   2.850  10.258  10.584
36290W        W95386  35.588  19.587  13.342
36291W        W95387  28.020  44.382   4.305
36292W        W95388  35.889  29.582  13.376
36293W        W95389   2.266  35.015   0.815
36294W        W95390  25.677  35.936  13.001
36295W        W95391  28.965  18.765   0.451
36296W        W95392  44.852  31.909   2.771
36297W        W95393  40.324   0.256   5.185
36298W        W95394  34.890  44.934   3.649
36299W        W95395  34.976  23.006   0.904
36300W        W95396  26.029  19.616   3.250
36301W        W95397   6.864  20.066  13.344
36302W        W95398  31.931  19.235   3.679
36303W        W95399  15.160  21.680   1.253
36304W        W95400  24.031   9.646  10.909
36305W        W95401  10.791  23.997   4.661
36306W        W95402   6.747   2.443   0.772
36307W        W95403  27.979  21.677  11.119
36308W        W95404   9.309  26.460  13.545
36309W        W95405  17.266   9.359  11.965
36310W        W95406  31.543  29.028   1.774
36311W        W95407   0.968  31.136  13.937
36312W        W95408  27.106   4.710   2.344
36313W        W95409  20.043  36.846  14.787
36314W        W95410   0.790   3.936   1.793
36315W        W95411  22.212  43.311  14.873
36316W        W95412  43.459  30.448   3.818
36317W        W95413  35.061  30.075  10.613
36318W        W95414  26.076  40.340   0.912
36319W        W95415  36.996  23.586   1.742
36320W        W95416  10.677  18.282   1.345
36321W        W95417  12.130  15.681  12.356
36322W        W95418  37.385  11.323  14.491
36323W        W95419  41.356  28.601  13.328
36324W        W95420  11.816  36.352   4.824
36325W        W95421   7.188  40.822  11.451
36326W        W95422  23.598  11.261   2.764
36327W        W95423   2.368  40.481  11.465
36328W        W95424   6.830  11.259  13.455
36329W        W95425  25.475  11.174  13.918
36330W        W95426   9.776  25.067  14.400
36331W        W95427  18.719  12.179  10.974
36332W        W95428  37.431  16.155   1.448
36333W        W95429  41.474  17.683  12.395
36334W        W95430   7.742   3.793   2.832
36335W        W95431   8.732  17.609   3.381
36336W        W95432  40.901  43.966   2.898
36337W        W95433   1.447   7.751  10.967
36338W        W95434  44.801   7.873   3.379
36339W        W95435   1.448   1.824  13.897
36340W        W95436   5.234  44.794   3.718
36341W        W95437  40.891  15.268  10.541
36342W        W95438  12.757  30.630   2.769
36343W        W95439  31.401  42.938  12.352
36344W        W95440  40.492   8.301   1.857
36345W        W95441  41.999  25.636   3.814
36346W        W95442  20.086  22.231   0.728
36347W        W95443  35.885  12.610  13.025
36348W        W95444   9.873  35.387   3.800
36349W        W95445  38.924  35.050   4.711
36350W        W95446  35.558  14.308   3.191
36351W        W95447  32.493  20.622  12.984
36352W        W95448  33.885  16.658   4.804
36353W        W95449  25.977  41.808   0.441
36354W        W95450   2.458   8.835  12.360
36355W        W95451  31.638   9.665  11.122
36356W        W95452  20.178   0.372  13.801
36357W        W95453  29.601  30.623   0.800
36358W        W95454  22.530  23.666  13.463
36359W        W95455  32.486   2.318  13.453
36360W        W95456  37.503  38.913   3.153
36361W        W95457  28.003   9.332  12.003
36362W        W95458   4.724  22.143  10.014
36363W        W95459  30.932  16.627  11.425
36364W        W95460  27.682  38.455  11.978
36365W        W95461  25.000  23.145   3.649
36366W        W95462  13.119  20.590  11.570
36367W        W95463   0.925  14.209   5.286
36368W        W95464  29.011  29.532  12.012
36369W        W95465   1.887   2.267   1.437
36370W        W95466  25.060  26.666   0.355
36371W        W95467  11.185  39.903   3.348
36372W        W95468  26.478  36.392  12.474
36373W        W95469  19.050  12.320   1.805
36374W        W95470  19.094  33.536   2.240
36375W        W95471  36.970  28.930  12.501
36376W        W95472  30.470  13.194  11.105
36377W        W95473   9.666  30.034  14.402
36378W        W95474   6.223  43.307  11.054
36379W        W95475  17.588  44.450  13.942
36380W        W95476   4.832  16.648  13.904
36381W        W95477   0.883  36.053   0.909
36382W        W95478  41.922  21.137  11.568
36383W        W95479  11.259   4.442   2.882
36384W        W95480  13.617  27.057   3.718
36385W        W95481  10.363   7.816   3.659
36386W        W95482  10.868  10.792  13.539
36387W        W95483  40.806  43.896  11.124
36388W        W95484  35.883  44.819  14.896
36389W        W95485   8.202  20.603  13.006
36390W        W95486   9.843  41.311  12.511
36391W        W95487  13.276   4.882   3.191
36392W        W95488  29.012  38.857  11.928
36393W        W95489   6.849  29.481  13.334
36394W        W95490  42.787  12.208   4.610
36395W        W95491  31.919  31.910  10.624
36396W        W95492   0.955  21.159   1.418
36397W        W95493  31.505  26.147   1.355
36398W        W95494  41.307   7.823   1.363
36399W        W95495  43.509  33.475  12.861
36400W        W95496  12.667   1.731  10.936
36401W        W95497  16.688  41.526  12.500
36402W        W95498   4.937  12.330  13.933
36403W        W95499  17.666  19.765   1.372
36404W        W95500  21.100  32.008   0.905
36405W        W95501  23.677   6.286  13.358
36406W        W95502  15.602  23.212   0.436
36407W        W95503  16.220  38.490   1.338
36408W        W95504  32.463  44.794  12.074
36409W        W95505   2.261  34.871  13.840
36410W        W95506   0.812  43.887  12.549
36411W        W95507  28.030  27.465  11.600
36412W        W95508   0.842  10.660  12.870
36413W        W95509  22.161   2.470   2.896
36414W        W95510  26.613   4.384   4.651
36415W        W95511  19.130   0.817  14.951
36416W        W95512  21.194   4.238  10.070
36417W        W95513  10.748  21.167  11.414
36418W        W95514  34.897  24.486  13.922
36419W        W95515   4.720   1.962   0.297
36420W        W95516   1.752  37.981  11.919
36421W        W95517  23.563  23.198  14.427
36422W        W95518   1.829  36.926  13.982
36423W        W95519  37.069  13.241   2.272
36424W        W95520   3.890   0.321   1.281
36425W        W95521  21.543   7.667  14.924
36426W        W95522   2.416  28.186   1.878
36427W        W95523  13.789   5.745   3.344
36428W        W95524  27.078  26.631   4.629
36429W        W95525  33.472  25.682   4.165
36430W        W95526  33.485  36.525  12.907
36431W        W95527  24.570  20.142   1.933
36432W        W95528   1.735   6.257   4.642
36433W        W95529  43.881   4.307  11.495
36434W        W95530  20.560  35.064  11.376
36435W        W95531   9.150   3.714  14.366
36436W        W95532  42.975  41.041   3.837
36437W        W95533  10.774   3.327   2.721
36438W        W95534  33.033  10.649  11.514
36439W        W95535  14.134  43.511  13.315
36440W        W95536  12.689  31.596   4.201
36441W        W95537   0.312   2.335   2.757
36442W        W95538   4.408  40.905   3.712
36443W        W95539  24.507  26.679  10.535
36444W        W95540   5.912  19.683   0.441
36445W        W95541  37.565  20.217  12.887
36446W        W95542  22.068  41.297   0.368
36447W        W95543  12.678  32.887   1.438
36448W        W95544  29.556  11.772   3.662
36449W        W95545   2.458  44.899  13.388
36450W        W95546  20.161   3.288  13.049
36451W        W95547  10.766  37.484   1.718
36452W        W95548  37.377  30.954  10.987
36453W        W95549  34.039  25.635   1.434
36454W        W95550  24.988  41.851   4.674
36455W        W95551  38.395  25.004   5.250
36456W        W95552  11.639   8.763  14.840
36457W        W95553  37.083  34.092   2.300
36458W        W95554  35.477  26.475   2.198
36459W        W95555  37.079  11.736   2.894
36460W        W95556  33.485  21.541   4.251
36461W        W95557   7.863  43.288   0.260
36462W        W95558  39.983  10.263   5.255
36463W        W95559  26.007  29.650   1.426
36464W        W95560  41.000  23.132  10.943
36465W        W95561  39.559   1.749  12.384
36466W        W95562   5.856   7.685  14.792
36467W        W95563   4.901   3.859  14.336
36468W        W95564  21.149  27.520  13.377
36469W        W95565  30.114  25.085  13.344
36470W        W95566  44.821  19.222  10.951
36471W        W95567  34.106   3.891   4.183
36472W        W95568  17.295   7.282  13.433
36473W        W95569   4.767  15.661   3.314
36474W        W95570   7.410  33.474   0.415
36475W        W95571  42.026  10.227   0.259
36476W        W95572  42.886  20.586   3.302
36477W        W95573   2.743  26.161   4.213
36478W        W95574  11.855  38.074  13.461
36479W        W95575  44.408  42.983  14.870
36480W        W95576  37.422  32.422   1.314
36481W        W95577   0.413  44.795  13.443
36482W        W95578  16.132  26.988   0.826
36483W        W95579  43.514  35.070  13.369
36484W        W95580  41.808  34.432   3.200
36485W        W95581  21.082   2.412   1.332
36486W        W95582  43.421  26.688  13.422
36487W        W95583  35.052  20.136  10.985
36488W        W95584  11.698  36.055   1.745
36489W        W95585   2.953  28.105   0.867
36490W        W95586   3.315   0.420  11.025
36491W        W95587   0.320  40.017   0.442
36492W        W95588  25.035   9.348  13.879
36493W        W95589  25.032  38.036   3.866
36494W        W95590  37.396  36.576  11.011
36495W        W95591  34.440   9.682   4.268
36496W        W95592  36.935  26.153   3.255
36497W        W95593   1.458  25.980   2.314
36498W        W95594  32.969  20.644  11.966
36499W        W95595  36.977  39.963  13.898
36500W        W95596  43.404   1.316  10.530
36501W        W95597  20.531  38.906   4.794
36502W        W95598  22.728  10.250  12.037
36503W        W95599   3.301  28.604   2.251
36504W        W95600  33.035  35.583   1.921
36505W        W95601  13.735  15.110   2.861
36506W        W95602   4.813  16.608   0.276
36507W        W95603   2.461   3.261  13.440
36508W        W95604  36.412   8.330   4.829
36509W        W95605  26.688  31.456  11.376
36510W        W95606  28.503  20.724  14.453
36511W        W95607   7.188  21.627   4.216
36512W        W95608  44.792  21.663  10.903
36513W        W95609  34.490  33.019   0.794
36514W        W95610  21.756  26.154  14.816
36515W        W95611  15.099  26.046   4.623
36516W        W95612   1.378  13.708   2.810
36517W        W95613  33.093  20.094  14.435
36518W        W95614  34.912  18.756  14.777
36519W        W95615   2.853  28.080   4.725
36520W        W95616   3.901  20.147   0.264
36521W        W95617   4.741  37.964  12.365
36522W        W95618  34.020  24.564  12.026
36523W        W95619  39.420   4.757   2.256
36524W        W95620  13.268  30.567   2.769
36525W        W95621  40.966  40.366   1.446
36526W        W95622  10.663   8.192   2.797
36527W        W95623  17.122  16.747   3.713
36528W        W95624  19.115  38.912  12.557
36529W        W95625  15.177  14.322  13.910
36530W        W95626  16.283  25.973  11.380
36531W        W95627   6.421  33.455  12.511
36532W        W95628   8.262  30.119  13.050
36533W        W95629  36.004  27.013  13.912
36534W        W95630  21.233  25.033  10.637
36535W        W95631  43.840   1.318   1.765
36536W        W95632  15.735  43.463   4.668
36537W        W95633  20.132   5.370   2.342
36538W        W95634  11.327  37.385   2.245
36539W        W95635  31.975  41.385  13.878
36540W        W95636  26.084  36.978  11.083
36541W        W95637  25.163  29.036  10.978
36542W        W95638  30.430  24.026  14.796
36543W        W95639  27.955   8.218   1.922
36544W        W95640  20.108  14.748  13.428
36545W        W95641  28.066  13.698   3.711
36546W        W95642  42.002  33.488   2.770
36547W        W95643  38.994  34.960  12.937
36548W        W95644  17.792  27.151  14.329
36549W        W95645  39.379  26.189  10.605
36550W        W95646  31.438  39.849  10.569
36551W        W95647  41.946  29.948   0.905
36552W        W95648  42.789  40.029  14.762
36553W        W95649  29.962   7.839  11.600
36554W        W95650   9.257  44.267   3.238
36555W        W95651  39.391  44.776  13.852
36556W        W95652  35.910  35.031   1.897
36557W        W95653  23.509  15.320  13.473
36558W        W95654  10.691  41.496  14.285
36559W        W95655  11.830  26.978  11.911
36560W        W95656  26.610  10.792   4.349
36561W        W95657   0.380  36.362  13.853
36562W        W95658  25.108   5.334  13.318
36563W        W95659  41.806  11.140   0.905
36564W        W95660  39.478  17.745   3.869
36565W        W95661  32.504   2.397  14.422
36566W        W95662  24.514  20.549  12.961
36567W        W95663  19.186  34.921   3.721
36568W        W95664   5.289  30.962   0.889
36569W        W95665   7.290  36.570  13.543
36570W        W95666  29.942  30.090   1.332
36571W        W95667  13.156  16.595  13.438
36572W        W95668  23.058  13.224   1.369
36573W        W95669  17.585   3.297  11.429
36574W        W95670  31.081  17.771   4.626
36575W        W95671  37.088   4.759  14.936
36576W        W95672   7.808  28.179  13.451
36577W        W95673  33.067  10.683   2.347
36578W        W95674  42.344  15.147  10.910
36579W        W95675  43.341  11.711  13.945
36580W        W95676  37.982  15.295  14.844
36581W        W95677   2.910   0.972  12.436
36582W        W95678  43.508  37.842  14.962
36583W        W95679  34.096  33.545  11.059
36584W        W95680  23.637  34.503  13.442
36585W        W95681  20.572  28.666  11.994
36586W        W95682  13.233  16.646   5.584
36587W        W95683  41.947  39.816   4.190
36588W        W95684  29.037  18.064  12.376
36589W        W95685  29.064   3.791  11.424
36590W        W95686  26.131  43.319  11.531
36591W        W95687  41.000   0.883   0.745
36592W        W95688  12.824  17.724   3.850
36593W        W95689  23.532  42.350  14.356
36594W        W95690  14.633  24.574   3.846
36595W        W95691  33.103   5.398   3.328
36596W        W95692   0.766  35.468  11.887
36597W        W95693  10.350  38.511  12.838
36598W        W95694  12.741   0.380  13.990
36599W        W95695  40.423  27.571  10.894
36600W        W95696  31.055  15.213  13.060
36601W        W95697  35.977  15.098   3.704
36602W        W95698   7.186  44.262   0.922
36603W        W95699  23.196  31.562  14.931
36604W        W95700   9.833   5.418  12.074
36605W        W95701  40.810  42.317   4.183
36606W        W95702   6.738  42.022  10.613
36607W        W95703  32.931  42.929  10.110
36608W        W95704   7.184  44.485   1.925
36609W        W95705  17.217   4.301  14.853
36610W        W95706  12.281  11.700  10.061
36611W        W95707  38.900  25.982  14.859
36612W        W95708  23.010  33.095  10.899
36613W        W95709  22.646  15.815   0.415
36614W        W95710  42.385   5.906   1.783
36615W        W95711  14.315   6.323   4.807
36616W        W95712  38.520  22.617  10.931
36617W        W95713  39.470  33.379   2.709
36618W        W95714   6.684   7.838   3.774
36619W        W95715  41.422  18.720   4.638
36620W        W95716  44.902  20.741   1.870
36621W        W95717   1.366  38.838  12.014
36622W        W95718  40.043  36.890   4.203
36623W        W95719  26.183  10.170   4.331
36624W        W95720  25.120   5.373   1.231
36625W        W95721  43.770   9.793   1.802
36626W        W95722  15.251  33.075  13.451
36627W        W95723  22.556  27.949   4.697
36628W        W95724  21.198   4.778  14.961
36629W        W95725   2.365  26.534   3.327
36630W        W95726  31.093  31.094   3.694
36631W        W95727  20.529   4.939  12.572
36632W        W95728  44.420  43.963  13.501
36633W        W95729  20.275  32.584  11.064
36634W        W95730   2.896  39.523   0.831
36635W        W95731  40.897  41.977  11.033
36636W        W95732   8.707  39.401  12.417
36637W        W95733   2.744  42.835   4.685
36638W        W95734   8.795  34.118   4.321
36639W        W95735  23.178  13.616  11.565
36640W        W95736  18.262   3.427  14.444
36641W        W95737  23.547   5.767   0.822
36642W        W95738  25.022  26.599  12.866
36643W        W95739  34.533  37.056   0.798
36644W        W95740  39.514  21.647  12.502
36645W        W95741  24.994  43.423  13.011
36646W        W95742  18.233  33.938   5.154
36647W        W95743  27.944  25.218   5.308
36648W        W95744  44.937  28.114   2.850
36649W        W95745  32.432  29.997   2.766
36650W        W95746  30.051   1.261   2.670
36651W        W95747   9.192  40.493   4.153
36652W        W95748  18.613  40.882  14.791
36653W        W95749  38.998   7.903  12.886
36654W        W95750  37.952  15.251  13.977
36655W        W95751   7.668  26.583  14.345
36656W        W95752  11.248  27.543  11.105
36657W        W95753  33.385  21.523   0.959
36658W        W95754  10.209  37.495   0.801
36659W        W95755  11.720  34.108   2.354
36660W        W95756  39.882  25.215  12.979
36661W        W95757  37.049   1.862  14.295
36662W        W95758  40.008  10.299  12.443
36663W        W95759   6.732  18.729  10.511
36664W        W95760  33.047  25.023  13.518
36665W        W95761  23.650  35.871  12.483
36666W        W95762  10.800   9.280   3.788
36667W        W95763  40.409  29.992  13.428
36668W        W95764  12.833  25.057   2.700
36669W        W95765  44.496  17.725  10.447
36670W        W95766  16.218  12.618  12.843
36671W        W95767   8.297  27.048  13.476
36672W        W95768  33.012  27.044   4.160
36673W        W95769  36.982  30.927   2.749
36674W        W95770  19.218  12.208   3.794
36675W        W95771  25.131   7.900  10.564
36676W        W95772  39.419  39.423  12.540
36677W        W95773  32.904  19.642  11.456
36678W        W95774  28.028  15.310  12.892
36679W        W95775  40.404  13.760   4.223
36680W        W95776  23.679  19.104  10.607
36681W        W95777   2.913  22.584  11.036
36682W        W95778   4.927  17.241  14.787
36683W        W95779  43.382  30.946  11.440
36684W        W95780  23.549  32.911   3.791
36685W        W95781  41.793  17.792  13.909
36686W        W95782  15.639  22.719   0.891
36687W        W95783  29.074   4.307   3.275
36688W        W95784  34.046  40.325   0.256
36689W        W95785  34.547  42.347  12.473
36690W        W95786  13.741  36.006  13.830
36691W        W95787  18.179  32.516   1.844
36692W        W95788  39.913  14.305   1.759
36693W        W95789  10.670  40.054  13.436
36694W        W95790   2.757  42.377  13.838
36695W        W95791  35.467  33.877  11.882
36696W        W95792   9.791   3.227   4.327
36697W        W95793  15.159  41.458  14.021
36698W        W95794   6.389  38.991   3.323
36699W        W95795  12.654   7.784   3.722
36700W        W95796   3.732  41.948   0.295
36701W        W95797  41.036   3.824   0.835
36702W        W95798  10.216  33.620  10.128
36703W        W95799  10.740   6.378   2.197
36704W        W95800  29.492  21.249  12.484
36705W        W95801  16.703  20.159   2.765
36706W        W95802  39.389  26.595   1.933
36707W        W95803  14.646  18.277   3.724
36708W        W95804  18.175  11.323   4.338
36709W        W95805  30.601   2.783  14.876
36710W        W95806   5.356  11.689   1.309
36711W        W95807  41.296   7.690   0.911
36712W        W95808   3.923  25.029  12.495
36713W        W95809  40.489  17.274   0.425
36714W        W95810  41.973  32.448  10.610
36715W        W95811  41.796  41.339  13.373
36716W        W95812  44.756  12.343  11.547
36717W        W95813   9.797   2.310   4.836
36718W        W95814  30.122  35.577   1.247
36719W        W95815  27.960  28.148  13.462
36720W        W95816  29.106   7.203   0.475
36721W        W95817  35.585  32.053  12.484
36722W        W95818   9.292  40.408   0.470
36723W        W95819   4.322  10.176  11.549
36724W        W95820  44.468   1.460   2.328
36725W        W95821  12.250  30.487   1.424
36726W        W95822  33.896  20.529  12.850
36727W        W95823  36.355  44.346   3.173
36728W        W95824   2.836  21.607   3.658
36729W        W95825  37.342   2.748   3.803
36730W        W95826  19.117   1.316  13.056
36731W        W95827  20.051  15.772  11.388
36732W        W95828  28.018   4.354   1.448
36733W        W95829  24.013   9.349   2.182
36734W        W95830  18.681  37.989  13.944
36735W        W95831  21.125  40.906  11.121
36736W        W95832  13.664  19.173   0.890
36737W        W95833  10.297  40.847  13.392
36738W        W95834  42.843  27.073   2.393
36739W        W95835  33.495   9.315  14.477
36740W        W95836  23.520  44.945  14.990
36741W        W95837  16.247  44.806   2.252
36742W        W95838  28.526  36.051  13.892
36743W        W95839   4.921   1.872  10.951
36744W        W95840  24.121  39.881   1.315
36745W        W95841  34.570  17.223   0.901
36746W        W95842  10.209  12.716  11.379
36747W        W95843  35.109   6.349   4.704
36748W        W95844   4.246  41.859  13.502
36749W        W95845  37.498  30.064   1.852
36750W        W95846   1.964  23.157  12.946
36751W        W95847   6.312  28.637  13.983
36752W        W95848  21.214   0.865  11.398
36753W        W95849  23.057  26.117   4.647
36754W        W95850  38.071  16.267  10.909
36755W        W95851  10.709  40.031  14.496
36756W        W95852   9.807  23.984  10.926
36757W        W95853  19.042  29.930   3.149
36758W        W95854  31.486  34.473   2.199
36759W        W95855  18.682  38.840   3.647
36760W        W95856  19.772  27.149   3.724
36761W        W95857  13.646  39.949   1.840
36762W        W95858  22.106   1.466   4.332
36763W        W95859  31.090  16.193   5.118
36764W        W95860  44.976  37.964  14.373
36765W        W95861   5.816  33.443   1.908
36766W        W95862  40.454  38.429   3.223
36767W        W95863   2.286  25.661   1.732
36768W        W95864  35.491  21.669  11.592
36769W        W95865  22.627  29.955   1.763
36770W        W95866  32.471   4.843  11.029
36771W        W95867  23.203  15.605   1.212
36772W        W95868  25.538  39.812   1.281
36773W        W95869  27.649  44.783  12.940
36774W        W95870  24.649  42.876  12.349
36775W        W95871  43.382  27.143   4.680
36776W        W95872  42.934  21.026  14.778
36777W        W95873   2.427  31.419  14.791
36778W        W95874  33.011  14.150   2.359
36779W        W95875  29.610  32.895   2.393
36780W        W95876  35.006   1.928   9.978
36781W        W95877  14.129   2.947   0.418
36782W        W95878  19.571  14.648   0.477
36783W        W95879  32.603  28.003  12.409
36784W        W95880  38.051  13.759  12.053
36785W        W95881  30.123  27.978   1.915
36786W        W95882   5.395  41.901   3.690
36787W        W95883  18.101  30.953  14.865
36788W        W95884   9.173  43.826   1.312
36789W        W95885  38.856  19.675  12.079
36790W        W95886   3.724  44.963   4.243
36791W        W95887  28.175  12.281   2.206
36792W        W95888   9.787  36.355   0.836
36793W        W95889   7.184  28.094   0.948
36794W        W95890  38.480  32.465   1.365
36795W        W95891  40.331   8.757   1.742
36796W        W95892  43.828  43.398   1.874
36797W        W95893  31.984  11.346   3.860
36798W        W95894   3.443  10.158   0.912
36799W        W95895  35.456  36.579  12.022
36800W        W95896  40.396   4.748  12.052
36801W        W95897  41.853  21.178   3.306
36802W        W95898  22.641  16.256   4.625
36803W        W95899  19.057  36.508  14.403
36804W        W95900  19.058   7.296  12.576
36805W        W95901  44.423   5.400  12.085
36806W        W95902   0.427  36.974  11.905
36807W        W95903  27.150   4.762  13.982
36808W        W95904  32.465  39.509   2.209
36809W        W95905   0.305  29.122  13.943
36810W        W95906  16.778   9.364   2.220
36811W        W95907  10.735  36.402  12.560
36812W        W95908  35.438  31.616   4.296
36813W        W95909  15.719   6.232  13.902
36814W        W95910  18.222  28.647  12.378
36815W        W95911  24.597  10.717  13.986
36816W        W95912  40.009   8.405   4.709
36817W        W95913  33.604  11.127   3.789
36818W        W95914  21.692  20.635  14.937
36819W        W95915  41.362  15.820   0.270
36820W        W95916   7.668  36.899   4.348
36821W        W95917   9.669  22.502   0.894
36822W        W95918  14.737  19.233  12.525
36823W        W95919  13.172  14.794   0.412
36824W        W95920  28.573  35.380  13.796
36825W        W95921  16.807  44.500  13.375
36826W        W95922  26.007  37.047   3.838
36827W        W95923  16.566  37.450   2.869
36828W        W95924  30.467  13.805  12.029
36829W        W95925  40.398  27.511  13.402
36830W        W95926  35.872  14.315  13.973
36831W        W95927  23.057  35.487  11.570
36832W        W95928  28.595  20.041   0.417
36833W        W95929  22.997  31.057   3.787
36834W        W95930  15.590  44.384   5.236
36835W        W95931  33.087  14.600   1.213
36836W        W95932  30.515  27.090   4.724
36837W        W95933  44.297  19.673   4.639
36838W        W95934  24.657   7.301  11.969
36839W        W95935  40.466  12.241  12.417
36840W        W95936  30.462  35.546  11.889
36841W        W95937   6.405  26.641   5.181
36842W        W95938  37.389  23.676   2.812
36843W        W95939  23.060  43.302  14.444
36844W        W95940  16.207  35.422   4.251
36845W        W95941  14.208  30.961  14.830
36846W        W95942  33.424  21.093  11.044
36847W        W95943  43.017  14.735  10.951
36848W        W95944  14.305  31.976   3.318
36849W        W95945  39.977   4.444   4.181
36850W        W95946  26.543  32.138  10.986
36851W        W95947  24.218  41.034  13.947
36852W        W95948  27.451  12.123  12.385
36853W        W95949  22.091  37.556  10.956
36854W        W95950  38.443   4.385  14.478
36855W        W95951   1.264  42.955  12.056
36856W        W95952  15.746   8.273   3.665
36857W        W95953   7.779  29.613  12.065
36858W        W95954  15.267  16.773  14.772
36859W        W95955  29.611   6.354   2.795
36860W        W95956  35.893  15.719   5.258
36861W        W95957   7.335  44.799  12.948
36862W        W95958  42.798  23.542   4.736
36863W        W95959  40.408   6.416  11.002
36864W        W95960   7.840  12.667   4.639
36865W        W95961  24.990   9.355   3.728
36866W        W95962  11.345   6.901  11.086
36867W        W95963  26.637   4.215  10.596
36868W        W95964  42.998  39.370   0.812
36869W        W95965  43.849  41.997   0.261
36870W        W95966  26.113  18.771  14.462
36871W        W95967  22.646   0.978   0.277
36872W        W95968  12.118  12.659   9.962
36873W        W95969   0.339  35.582  11.505
36874W        W95970  20.111  10.277   2.898
36875W        W95971   7.840  26.147  14.337
36876W        W95972  42.873  20.262   3.730
36877W        W95973  27.951  23.655   1.734
36878W        W95974   0.802  12.753  10.471
36879W        W95975  35.917   4.830  12.833
36880W        W95976  21.623  35.857  13.863
36881W        W95977   7.341  27.044  12.363
36882W        W95978   0.929  17.276  14.474
36883W        W95979  40.017   3.242  11.999
36884W        W95980  35.977  18.087  10.916
36885W        W95981  12.664  40.048   2.841
36886W        W95982  10.813  17.108  14.486
36887W        W95983  19.768  28.464  13.036
36888W        W95984  40.806  44.928   2.367
36889W        W95985   8.220  44.883  10.632
36890W        W95986  38.378  16.289  11.078
36891W        W95987  36.987   1.455   1.935
36892W        W95988  44.949  32.962  13.818
36893W        W95989  12.219   8.843   4.198
36894W        W95990   3.447  26.701  13.438
36895W        W95991  20.114  21.752  12.837
36896W        W95992  40.385  22.706   3.768
36897W        W95993   1.291  30.069  11.407
36898W        W95994  17.223  23.553   2.180
36899W        W95995  28.529   8.292   3.385
36900W        W95996  24.560   7.413  11.569
36901W        W95997  30.429  26.698  13.414
36902W        W95998  44.864  11.664  14.366
36903W        W95999  15.239  36.443   9.546
36904W        W96000  33.566  32.070   3.722
36905W        W96001  21.083  14.122  10.112
36906W        W96002  42.964  33.505  14.967
36907W        W96003  19.669  30.016  14.333
36908W        W96004  23.140  27.090  10.962
36909W        W96005  38.982  33.888  14.451
36910W        W96006  32.431  10.724  13.905
36911W        W96007  16.744  23.004  11.588
36912W        W96008  37.533   5.347  12.533
36913W        W96009  35.895  33.433  14.391
36914W        W96010  18.622  18.167  13.399
36915W        W96011  41.943  36.566  13.933
36916W        W96012  30.028  18.570   2.752
36917W        W96013  28.556  10.295  14.367
36918W        W96014  10.724   5.797   2.807
36919W        W96015  28.088  13.758  13.025
36920W        W96016  25.614  18.597   2.275
36921W        W96017   6.852  13.804  13.466
36922W        W96018  19.195  43.839  11.079
36923W        W96019   3.832  42.301   3.818
36924W        W96020  24.506  33.593  14.498
36925W        W96021  10.193   5.807  11.416
36926W        W96022  20.211   3.261   2.757
36927W        W96023  10.781  27.477  13.410
36928W        W96024  16.749  10.333  13.942
36929W        W96025  24.481   5.811   2.763
36930W        W96026   2.249  33.568   1.274
36931W        W96027   2.925  31.910   3.806
36932W        W96028   3.399  31.462  11.959
36933W        W96029  42.296  12.614  13.450
36934W        W96030  25.120   9.672  13.907
36935W        W96031  13.311  36.411   0.455
36936W        W96032  19.728  31.495  14.864
36937W        W96033  24.187  25.521  13.321
36938W        W96034  14.607  18.574   0.248
36939W        W96035   0.255   3.938   0.890
36940W        W96036  18.764  27.465   2.837
36941W        W96037  24.657  26.659  12.473
36942W        W96038  32.950  24.225  12.394
36943W        W96039  29.515  20.666  13.941
36944W        W96040  13.277   1.364  13.799
36945W        W96041  24.490   7.385   3.784
36946W        W96042  13.668  36.990   2.686
36947W        W96043  35.424  41.794  11.433
36948W        W96044  17.172  28.069   4.696
36949W        W96045  43.466  41.340  12.405
36950W        W96046  26.148  26.523  13.341
36951W        W96047  28.180  39.873   2.771
36952W        W96048  44.480  33.962   3.360
36953W        W96049  25.471  22.176  14.842
36954W        W96050  12.660  10.288  10.890
36955W        W96051  24.616   1.959   3.723
36956W        W96052  41.380  32.467   0.416
36957W        W96053  23.088   2.328   2.823
36958W        W96054   7.407   2.323   2.375
36959W        W96055  25.126   2.801  11.875
36960W        W96056  28.050  13.776   4.299
36961W        W96057  19.552   3.822  12.387
36962W        W96058  10.716  40.980  12.342
36963W        W96059  33.616  21.680   1.316
36964W        W96060  14.239  16.749  12.061
36965W        W96061  15.121  28.146   2.725
36966W        W96062  34.096  34.453   1.404
36967W        W96063  19.258  36.350  13.349
36968W        W96064   2.923  36.535   0.270
36969W        W96065   5.308  30.614   5.215
36970W        W96066  25.555   3.745  13.424
36971W        W96067   2.956   4.795   1.349
36972W        W96068  11.192  40.815   2.210
36973W        W96069  14.813  16.683   5.122
36974W        W96070  44.500  19.098  11.526
36975W        W96071  24.149  40.811   3.854
36976W        W96072  28.620  38.858  13.325
36977W        W96073  25.988  33.020  13.430
36978W        W96074  22.100  28.002   3.229
36979W        W96075  25.016  11.844  11.045
36980W        W96076  24.564  19.607  14.337
36981W        W96077  23.656  14.614  12.899
36982W        W96078  18.268   7.710  13.956
36983W        W96079  33.069  16.698  14.773
36984W        W96080  44.770  32.049  13.827
36985W        W96081  32.935  10.731   1.830
36986W        W96082  25.054  38.829   1.444
36987W        W96083  12.626  33.425   4.336
36988W        W96084  42.013  44.795  11.943
36989W        W96085  36.861  33.536  13.052
36990W        W96086  16.216  43.466   4.345
36991W        W96087  20.266  16.726  13.981
36992W        W96088  15.104  21.103   1.239
36993W        W96089  14.172  36.354  14.433
36994W        W96090  21.721  11.142   9.485
36995W        W96091  30.161  14.245   0.411
36996W        W96092  27.636   5.837  11.059
36997W        W96093  27.565  35.045   3.359
36998W        W96094  16.203  16.730  11.920
36999W        W96095  44.909  11.141   2.804
37000W        W96096  34.981  19.745  14.354
37001W        W96097  14.736  18.655   3.238
37002W        W96098  20.079   3.769   0.881
37003W        W96099  20.612  30.995   4.733
37004W        W96100   6.908  17.106  14.023
37005W        W96101  38.941  32.078   9.960
37006W        W96102   7.816  37.082   2.845
37007W        W96103  12.208  39.967   4.169
37008W        W96104  28.150   6.810  11.374
37009W        W96105  20.598  11.341   1.431
37010W        W96106  29.083   0.763  13.438
37011W        W96107  18.763  37.915   0.468
37012W        W96108  38.424  34.586   2.763
37013W        W96109  23.213  42.842   1.423
37014W        W96110  28.490   3.837   2.815
37015W        W96111  20.675  27.475   2.722
37016W        W96112  33.618  20.040  10.503
37017W        W96113  41.430   1.896  12.418
37018W        W96114  22.119  10.345  12.017
37019W        W96115  23.489  26.021   4.147
37020W        W96116  20.651  29.628   0.746
37021W        W96117  37.398  26.070  14.355
37022W        W96118  28.180  30.034  10.150
37023W        W96119   8.806   0.492   9.949
37024W        W96120  19.723  25.204  10.607
37025W        W96121  40.897  12.692   4.351
37026W        W96122  10.147  27.611   2.829
37027W        W96123   9.237  18.059  11.036
37028W        W96124  38.409   3.249  10.095
37029W        W96125  12.199  28.605   4.706
37030W        W96126   9.162  32.003   0.250
37031W        W96127  24.159  30.913   2.282
37032W        W96128  36.934  28.962   3.659
37033W        W96129  37.361  21.670   1.764
37034W        W96130  43.931  23.502   4.714
37035W        W96131  24.981  42.414  14.965
37036W        W96132   9.370  20.059   3.160
37037W        W96133  41.939  17.615   1.215
37038W        W96134  29.556  12.248   0.761
37039W        W96135  16.102  35.532  13.426
37040W        W96136  21.232  39.464   4.180
37041W        W96137  10.824  13.710   3.844
37042W        W96138  37.012  11.334  12.062
37043W        W96139  34.010  40.040   0.781
37044W        W96140   6.875  15.606   0.320
37045W        W96141  35.017  18.072   2.296
37046W        W96142   4.800  37.988  11.893
37047W        W96143  38.495  23.562  14.286
37048W        W96144  16.222  37.856  10.494
37049W        W96145  42.460  26.567  13.476
37050W        W96146  20.078  43.021   0.371
37051W        W96147  21.718  41.449   0.885
37052W        W96148  29.104  18.270   2.740
37053W        W96149   4.433  11.809   3.345
37054W        W96150  44.356  35.854  13.528
37055W        W96151  15.662  30.561   1.850
37056W        W96152  37.896  32.107   3.680
37057W        W96153  18.765   2.907   3.154
37058W        W96154  13.646  38.852  11.429
37059W        W96155  22.608  16.699   0.878
37060W        W96156  11.138  31.091   2.282
37061W        W96157  18.714  20.124  11.399
37062W        W96158  33.574  25.014   1.787
37063W        W96159  44.298  11.853   2.699
37064W        W96160  26.166   4.221  14.469
37065W        W96161  23.226  34.395   0.933
37066W        W96162  43.331  14.133  13.361
37067W        W96163  14.703   3.329  10.109
37068W        W96164  24.652   1.906   0.476
37069W        W96165  15.613  13.293   0.316
37070W        W96166  20.557  13.655  13.953
37071W        W96167  34.579  34.518  10.923
37072W        W96168  19.708  15.622   2.200
37073W        W96169  29.045  22.565  13.911
37074W        W96170   9.805  30.611  10.919
37075W        W96171  11.736   9.315   2.226
37076W        W96172  23.094   1.288   2.207
37077W        W96173  19.106   0.840   3.201
37078W        W96174  23.079   2.725   2.704
37079W        W96175  10.156  29.009   3.723
37080W        W96176   1.856  11.774   4.315
37081W        W96177  35.880  30.476   3.252
37082W        W96178  32.414  31.597  13.064
37083W        W96179  25.153   5.280   1.813
37084W        W96180  20.034  41.034  13.810
37085W        W96181  43.927  11.156   2.339
37086W        W96182  31.152  39.390  13.832
37087W        W96183   1.456  40.325  11.397
37088W        W96184  28.641  44.354  11.983
37089W        W96185  24.215  30.622   2.368
37090W        W96186  40.363  34.870   1.796
37091W        W96187  20.605  18.549   2.330
37092W        W96188  23.563  10.182   0.917
37093W        W96189  44.431  37.494  11.416
37094W        W96190  26.986   8.215  14.350
37095W        W96191   8.865   6.689   0.832
37096W        W96192  25.209  32.066  14.313
37097W        W96193  30.133  35.964  10.517
37098W        W96194   2.938  29.660  12.881
37099W        W96195  43.307  13.702  10.562
37100W        W96196  28.133  15.586   2.380
37101W        W96197  37.067   4.238  14.843
37102W        W96198  19.692   7.223   0.292
37103W        W96199  43.337  15.620  14.469
37104W        W96200  23.099  24.519  12.460
37105W        W96201  20.582  44.834   4.162
37106W        W96202  44.790   3.408   4.294
37107W        W96203  37.875  20.550   0.770
37108W        W96204  41.410   3.378   1.401
37109W        W96205  42.899  12.187  12.930
37110W        W96206  19.628   7.230   9.652
37111W        W96207  32.455  11.731  11.931
37112W        W96208  35.431  12.713   3.356
37113W        W96209  22.667  30.425   2.349
37114W        W96210  14.233  14.187  14.934
37115W        W96211  18.767  31.092  12.996
37116W        W96212  43.930   3.249  11.010
37117W        W96213   7.356  43.505   3.217
37118W        W96214  13.158  21.608  10.594
37119W        W96215  15.133  13.775  14.932
37120W        W96216  24.530   2.774  11.408
37121W        W96217  41.425  24.631  10.557
37122W        W96218  17.619  40.473   2.887
37123W        W96219   7.793  19.558  12.893
37124W        W96220  32.981  41.359   2.372
37125W        W96221  34.094   1.888  12.871
37126W        W96222  29.056  12.174  13.049
37127W        W96223  30.587  40.317   0.327
37128W        W96224   2.428  31.934   0.883
37129W        W96225   2.252  24.599  12.367
37130W        W96226  23.573  20.758  12.035
37131W        W96227  26.149  36.853   3.334
37132W        W96228  14.699  13.117  10.988
37133W        W96229  41.801  11.734  13.369
37134W        W96230   2.462  43.826  12.836
37135W        W96231  17.631  41.842   4.611
37136W        W96232  34.922   0.921  12.827
37137W        W96233   5.739  24.583   3.272
37138W        W96234  37.439  12.166  11.057
37139W        W96235  37.947  19.603   2.800
37140W        W96236  33.504  27.554  12.537
37141W        W96237  35.853  22.143   3.728
37142W        W96238   2.966  38.455  14.914
37143W        W96239   0.401  31.574  14.376
37144W        W96240  32.443  13.647  10.449
37145W        W96241  21.657  32.489   2.771
37146W        W96242  44.792  16.768  10.943
37147W        W96243   2.360  12.336  10.576
37148W        W96244   7.815   2.325   4.176
37149W        W96245  27.562  31.505  10.526
37150W        W96246   2.244  29.532   5.185
37151W        W96247  30.150  38.560   4.726
37152W        W96248  31.414  35.600  14.406
37153W        W96249  43.957   1.976   1.318
37154W        W96250  10.647  36.038  10.444
37155W        W96251  35.920  32.544   2.380
37156W        W96252   1.321  39.062   4.763
37157W        W96253  27.959   0.393   4.785
37158W        W96254  29.945  33.575   0.873
37159W        W96255  43.934  21.675  13.354
37160W        W96256  38.901  22.618   1.929
37161W        W96257  13.187  29.636  10.414
37162W        W96258  23.556  22.040   2.751
37163W        W96259   1.313  18.156  12.906
37164W        W96260  22.217  34.589   0.825
37165W        W96261  11.860  26.964  10.410
37166W        W96262  27.582  34.864  12.474
37167W        W96263   5.211  20.694  14.929
37168W        W96264   7.833  44.443   0.411
37169W        W96265  37.084  17.574  14.820
37170W        W96266  38.487  12.826   2.364
37171W        W96267  21.137  20.164  14.998
37172W        W96268  36.033   6.800  14.854
37173W        W96269  36.087   6.321  10.529
37174W        W96270  16.634  24.569   3.658
37175W        W96271  11.257  37.569  13.856
37176W        W96272  44.416  37.448  14.449
37177W        W96273  30.584  29.643   1.418
37178W        W96274  34.380  29.063  12.058
37179W        W96275  43.777  40.346   2.365
37180W        W96276  36.510   3.268  14.925
37181W        W96277  38.418  35.415   1.395
37182W        W96278  30.581  41.965  12.930
37183W        W96279  33.488  15.213   2.863
37184W        W96280  32.499   4.772  14.762
37185W        W96281  43.923  28.542   0.288
37186W        W96282  12.689  28.646   0.380
37187W        W96283  24.179  22.514  13.398
37188W        W96284  38.939  41.312  12.864
37189W        W96285  30.055  38.338   2.775
37190W        W96286  17.602  31.546  11.596
37191W        W96287  20.140  25.192  14.501
37192W        W96288  16.248   9.755   1.390
37193W        W96289  11.226  44.320   3.146
37194W        W96290  18.584  10.266   1.806
37195W        W96291  40.874  38.975   0.280
37196W        W96292  37.047  20.131  11.086
37197W        W96293  25.979  26.662   3.667
37198W        W96294  11.749  12.854  12.847
37199W        W96295  10.715  44.340   1.719
37200W        W96296  10.279  31.083   2.399
37201W        W96297  24.984   3.798  10.930
37202W        W96298  21.578  44.785  12.955
37203W        W96299   5.783  11.174  13.388
37204W        W96300  18.107  42.490  10.487
37205W        W96301   9.295  14.143   1.405
37206W        W96302  30.006   5.320   2.291
37207W        W96303  28.162  18.103   2.388
37208W        W96304  18.782  24.635  11.464
37209W        W96305  27.089  23.520  12.499
37210W        W96306  16.164  29.108  10.506
37211W        W96307  37.978  11.795  11.997
37212W        W96308   2.829   8.208  13.881
37213W        W96309  15.644  27.139  14.881
37214W        W96310  38.883  23.725  13.834
37215W        W96311  14.702  33.494  10.423
37216W        W96312  37.560  43.325  11.989
37217W        W96313   8.366  36.510   2.215
37218W        W96314  18.692  18.606  11.991
37219W        W96315  17.294  36.418   2.796
37220W        W96316  34.441  10.305  12.911
37221W        W96317  22.148  17.188   3.681
37222W        W96318   6.707  34.911  14.355
37223W        W96319   1.372  25.617  13.027
37224W        W96320  15.320   6.692  12.344
37225W        W96321  30.028   3.812  11.551
37226W        W96322  23.698  15.279   1.301
37227W        W96323  35.900  25.054   3.684
37228W        W96324   1.260  38.077   2.710
37229W        W96325  33.615  36.011  10.506
37230W        W96326  27.098  41.001   2.899
37231W        W96327  42.912   1.410  13.390
37232W        W96328  24.228  15.308   3.782
37233W        W96329   6.348   8.201   1.896
37234W        W96330   3.856   9.298   1.795
37235W        W96331  11.360   3.904  11.006
37236W        W96332  25.009  44.010  10.626
37237W        W96333  10.227  14.604  14.032
37238W        W96334   1.825  23.036   0.786
37239W        W96335  40.316   2.453   4.821
37240W        W96336  41.819   0.400   1.738
37241W        W96337  15.728  22.563   2.325
37242W        W96338  10.705   3.808  14.785
37243W        W96339   2.300  13.284   2.313
37244W        W96340  15.316  14.757   3.807
37245W        W96341  43.326  23.608   0.941
37246W        W96342  18.769  41.941   0.261
37247W        W96343  36.547   7.789  14.444
37248W        W96344  31.137  17.698   1.840
37249W        W96345  39.915  29.509  14.282
37250W        W96346  35.360  17.758   4.734
37251W        W96347  18.771  16.599  14.488
37252W        W96348  41.847  44.926  10.909
37253W        W96349  32.950  37.567   4.813
37254W        W96350  22.613  25.661   1.443
37255W        W96351  30.988   8.702  12.087
37256W        W96352   3.306  37.432  14.008
37257W        W96353  21.520  21.170   0.727
37258W        W96354  22.212  30.626   1.883
37259W        W96355   7.362   4.876  10.437
37260W        W96356  16.791  18.553  14.808
37261W        W96357  40.908  21.096  12.481
37262W        W96358  43.324  30.426  10.892
37263W        W96359  30.939   7.846  14.344
37264W        W96360   9.738   6.391   3.234
37265W        W96361   6.906   0.296  13.939
37266W        W96362  13.212  35.901   1.846
37267W        W96363   3.934   6.757   0.470
37268W        W96364  20.645  20.044  13.340
37269W        W96365  22.543  15.610   2.239
37270W        W96366  10.305  17.088  10.409
37271W        W96367  36.854  24.622  11.517
37272W        W96368  26.104  15.264  10.439
37273W        W96369  35.960  28.498   4.701
37274W        W96370   1.341  10.801  13.435
37275W        W96371  40.476  31.413   4.232
37276W        W96372  38.889  38.382   3.251
37277W        W96373  29.573  36.428   4.187
37278W        W96374  17.250  10.348  10.526
37279W        W96375   7.268  27.522   2.261
37280W        W96376  15.607  26.041  14.829
37281W        W96377  42.001  32.411   4.684
37282W        W96378   9.342  33.059  13.486
37283W        W96379  12.180  42.783  10.636
37284W        W96380  33.580  43.407   0.863
37285W        W96381  32.575  40.997   3.211
37286W        W96382  18.600  27.559  12.392
37287W        W96383  18.189  29.948   2.364
37288W        W96384   2.270  10.163  13.804
37289W        W96385  24.188  39.945   0.759
37290W        W96386  43.794  44.835   3.326
37291W        W96387  34.048  25.603   3.217
37292W        W96388  42.897  19.631  11.506
37293W        W96389  33.080  42.941   1.790
37294W        W96390  10.716  44.358   0.756
37295W        W96391   6.329  42.975  11.462
37296W        W96392  38.068  17.148  11.893
37297W        W96393  44.000  22.559  14.313
37298W        W96394  12.701  41.353   0.309
37299W        W96395  32.424  21.230  13.946
37300W        W96396   1.399   8.707  11.036
37301W        W96397  44.868  35.884   1.249
37302W        W96398  16.741  33.556   3.293
37303W        W96399  34.900  11.232   0.422
37304W        W96400   4.221  12.122  11.070
37305W        W96401   5.323  30.147  13.899
37306W        W96402  13.737  22.605   2.817
37307W        W96403  34.027  14.680   0.316
37308W        W96404  27.640  38.912   0.452
37309W        W96405  42.951  25.999  12.020
37310W        W96406  26.516  27.091   3.288
37311W        W96407  19.275  29.640  14.426
37312W        W96408  33.483  34.595  13.499
37313W        W96409  28.447   7.679  11.429
37314W        W96410   4.363  16.296   2.858
37315W        W96411  20.550  18.592  12.933
37316W        W96412  42.409  34.490   0.303
37317W        W96413  25.199  24.715  14.311
37318W        W96414  12.702   8.243  10.553
37319W        W96415   1.462   1.758   1.367
37320W        W96416  33.420  38.510   1.724
37321W        W96417   8.831  16.144  12.485
37322W        W96418  10.678  28.078   4.298
37323W        W96419  16.713   8.691   4.127
37324W        W96420  41.418  38.968   1.811
37325W        W96421  12.302  22.104   2.671
37326W        W96422  44.836  22.516   4.280
37327W        W96423  12.178  38.358  11.584
37328W        W96424  34.051   1.765  11.127
37329W        W96425  41.515  15.178   3.296
37330W        W96426  25.168  12.751  14.458
37331W        W96427  27.045   9.714   4.307
37332W        W96428  23.214  32.963  10.515
37333W        W96429  44.998   1.943   1.342
37334W        W96430   8.297  31.943  10.544
37335W        W96431  42.337   3.459   2.682
37336W        W96432  29.662  17.567   1.752
37337W        W96433   0.933  13.726   2.756
37338W        W96434  26.593  27.991   2.225
37339W        W96435  35.495  36.577  12.406
37340W        W96436   9.245   7.779  14.416
37341W        W96437   5.826  11.208  14.834
37342W        W96438   4.883  14.595   2.215
37343W        W96439  18.704  35.557  14.872
37344W        W96440   6.211  23.130  11.879
37345W        W96441  44.795  18.292   4.803
37346W        W96442  25.074  25.471  14.962
37347W        W96443  12.227  23.590  14.276
37348W        W96444   6.249  35.541   3.348
37349W        W96445   5.407  38.364  13.476
37350W        W96446  26.549  37.524   3.170
37351W        W96447  40.491  41.854   0.811
37352W        W96448  26.099   7.842   0.856
37353W        W96449   3.869  15.694  10.563
37354W        W96450  23.143  20.046  14.804
37355W        W96451   1.455  10.216   3.202
37356W        W96452  28.617  40.038  13.904
37357W        W96453  16.750  11.859   3.726
37358W        W96454  34.459   8.845  14.408
37359W        W96455  10.304  31.513  10.927
37360W        W96456  18.152  30.565  10.471
37361W        W96457   0.461  44.400   2.891
37362W        W96458  42.497  34.997  10.984
37363W        W96459   8.869  27.594  13.431
37364W        W96460   6.793  36.421   0.332
37365W        W96461  30.483  20.063   1.797
37366W        W96462  38.547  24.504   4.222
37367W        W96463  38.555  38.378  12.498
37368W        W96464   2.790  20.251   3.308
37369W        W96465  15.629  23.063  12.510
37370W        W96466   4.702   7.843  10.504
37371W        W96467  42.887  37.971  11.519
37372W        W96468  36.471  20.151   2.232
37373W        W96469  44.281  18.729   3.226
37374W        W96470  26.585  39.505  10.039
37375W        W96471   3.394  34.105   3.329
37376W        W96472   9.303   0.411   0.750
37377W        W96473   5.878   8.405  10.931
37378W        W96474  42.331   0.379  12.959
37379W        W96475  21.663  38.998  12.543
37380W        W96476  41.419   2.721  11.035
37381W        W96477  40.397   8.782  10.888
37382W        W96478  15.764  42.021  12.084
37383W        W96479  13.347  32.917   0.427
37384W        W96480  37.951  44.291  12.091
37385W        W96481  27.450  42.818  13.464
37386W        W96482  16.569  17.078   3.283
37387W        W96483   2.836  27.649   9.643
37388W        W96484  31.572  21.544  12.562
37389W        W96485  25.038  35.078  10.971
37390W        W96486   6.689  40.321   3.251
37391W        W96487  12.683  18.763   2.279
37392W        W96488  16.650  38.463   2.870
37393W        W96489  23.614  21.220  13.056
37394W        W96490  35.072  33.437  14.312
37395W        W96491   9.349  42.825  12.991
37396W        W96492  16.674  34.096   4.129
37397W        W96493  32.990  31.993  13.885
37398W        W96494  23.520  38.956  10.978
37399W        W96495  37.045  32.114  13.016
37400W        W96496  29.986   0.259  14.412
37401W        W96497   2.901  23.710   1.748
37402W        W96498  15.817   8.272  14.804
37403W        W96499  27.968  26.636   3.847
37404W        W96500  14.628   2.441  11.428
37405W        W96501   9.679   4.396  11.441
37406W        W96502  32.053  29.436  12.384
37407W        W96503  38.014  29.971  11.394
37408W        W96504   7.389  31.097   2.683
37409W        W96505  13.638  11.740  11.966
37410W        W96506  23.654   0.791  14.020
37411W        W96507   8.298  27.536  14.463
37412W        W96508  44.505   4.435  13.988
37413W        W96509  44.301  30.008   1.760
37414W        W96510  19.226   0.982   4.161
37415W        W96511  21.136  22.154  13.908
37416W        W96512  30.158   9.333   2.744
37417W        W96513  26.479   8.361  14.824
37418W        W96514  10.797  19.756   1.774
37419W        W96515  11.147  23.162   3.716
37420W        W96516  11.819  12.688  10.108
37421W        W96517  11.195  19.203  12.948
37422W        W96518  29.089  30.050   1.216
37423W        W96519  15.186  16.611  12.402
37424W        W96520  41.426  28.059  14.402
37425W        W96521   6.256  36.065  11.923
37426W        W96522  25.139   8.844  10.986
37427W        W96523  43.900   8.386   2.778
37428W        W96524  36.360  44.489  13.796
37429W        W96525  30.052  42.354   3.198
37430W        W96526  30.503  25.630  13.829
37431W        W96527   7.228  36.496   0.818
37432W        W96528  25.491  11.697  14.515
37433W        W96529  39.445  32.494   2.828
37434W        W96530  31.463  36.982  12.509
37435W        W96531  24.515  31.958  10.971
37436W        W96532  43.289  38.015  12.358
37437W        W96533  11.778  40.890  14.412
37438W        W96534  42.315  28.080  12.878
37439W        W96535  31.541   0.396  13.342
37440W        W96536  16.079  16.773  12.453
37441W        W96537   6.681  43.779   2.394
37442W        W96538   3.781  43.309  13.460
37443W        W96539   1.760  25.637   3.285
37444W        W96540  34.410  18.549  10.415
37445W        W96541  34.522  38.022   3.370
37446W        W96542   7.733  36.875   4.690
37447W        W96543  13.291  31.639  12.397
37448W        W96544  11.291  38.071   2.218
37449W        W96545   2.302   6.206   3.690
37450W        W96546  39.063  19.262  14.973
37451W        W96547  25.069  21.714   0.478
37452W        W96548  18.564   0.966  14.485
37453W        W96549  28.950   0.344   1.408
37454W        W96550  22.523  17.577  10.915
37455W        W96551  25.157  32.111  13.985
37456W        W96552   9.376  29.514  11.433
37457W        W96553  24.502  27.006  12.522
37458W        W96554  34.418  15.330   3.182
37459W        W96555  12.173  11.815  10.461
37460W        W96556  21.057  12.752   2.803
37461W        W96557   3.444  38.442  11.857
37462W        W96558  37.015  42.784   4.129
37463W        W96559  34.377  23.163  10.517
37464W        W96560  15.188   5.410  14.013
37465W        W96561  14.655  38.038   1.295
37466W        W96562  41.360   3.420  11.023
37467W        W96563   0.279  13.115   3.632
37468W        W96564   8.283  18.197   3.308
37469W        W96565  41.798  37.482   2.776
37470W        W96566   0.284  33.046   1.737
37471W        W96567  38.479  19.703  10.451
37472W        W96568   8.375  36.872   2.368
37473W        W96569  25.990   3.287  14.955
37474W        W96570  31.414  39.874   2.408
37475W        W96571  11.325  18.579   5.182
37476W        W96572  42.321  13.334   3.321
37477W        W96573  12.268  16.111  13.928
37478W        W96574   0.750  25.678  13.406
37479W        W96575   4.230   5.854   2.783
37480W        W96576  14.169  20.668  12.960
37481W        W96577   9.687  40.802   1.371
37482W        W96578  37.382   2.361   5.097
37483W        W96579  39.860  39.014  13.848
37484W        W96580   3.814  32.564  11.531
37485W        W96581  44.891   7.749  14.359
37486W        W96582  36.005  39.381  13.370
37487W        W96583   7.802  21.118   1.438
37488W        W96584  11.868  25.534  14.417
37489W        W96585  40.908  29.176   2.704
37490W        W96586  38.511  34.386  14.889
37491W        W96587   4.385  43.489   0.926
37492W        W96588  21.680  37.033   4.298
37493W        W96589  26.474  41.041  13.514
37494W        W96590  37.854  34.112  14.915
37495W        W96591   9.158  12.237  11.877
37496W        W96592  18.059  19.204   3.267
37497W        W96593  15.691  26.081  12.505
37498W        W96594  36.429   1.333  12.506
37499W        W96595  16.093  33.052  11.536
37500W        W96596  13.744  31.093  12.887
37501W        W96597   7.237  27.473   4.136
37502W        W96598  11.664  42.503  14.506
37503W        W96599  13.199  10.161   9.989
37504W        W96600  36.373  40.866   0.420
37505W        W96601   9.645  18.683  14.008
37506W        W96602  16.615  33.492   5.688
37507W        W96603  11.732  13.270  10.426
37508W        W96604  33.530  12.157  11.088
37509W        W96605  17.703  22.551   0.731
37510W        W96606  14.107  26.565   3.236
37511W        W96607  17.596  13.785  12.024
37512W        W96608  23.221   2.857   1.836
37513W        W96609  18.103   3.955  11.907
37514W        W96610  24.628  18.664  10.035
37515W        W96611  17.237  28.076  12.529
37516W        W96612  42.954   3.907  11.418
37517W        W96613  19.615   0.344   0.448
37518W        W96614  14.253   4.922   3.810
37519W        W96615  31.601  24.211   1.261
37520W        W96616  25.704  39.342   4.306
37521W        W96617  12.832  35.974  10.905
37522W        W96618   7.365   1.467  13.313
37523W        W96619   6.728   3.417  10.978
37524W        W96620  41.300   2.297  12.367
37525W        W96621  41.306   7.375   0.441
37526W        W96622   1.372  18.074  12.394
37527W        W96623  31.554  33.027   4.771
37528W        W96624  39.874   7.737   1.310
37529W        W96625  18.558  40.477   4.119
37530W        W96626   1.296  40.340  14.020
37531W        W96627   5.315   3.749  14.369
37532W        W96628  15.769  16.098  14.343
37533W        W96629   3.406  13.837   3.861
37534W        W96630  39.894  26.530  12.565
37535W        W96631  16.767  33.435   4.651
37536W        W96632  18.225   0.404  13.852
37537W        W96633  31.151  30.987   0.279
37538W        W96634  17.206  40.348   3.748
37539W        W96635  24.011  42.901  13.928
37540W        W96636   8.683  10.668  12.529
37541W        W96637  12.258  27.048  12.455
37542W        W96638   7.189   1.796   1.231
37543W        W96639  35.421  31.429  10.931
37544W        W96640  32.491  41.440   4.174
37545W        W96641  27.036  38.448  10.993
37546W        W96642   5.711  31.090   3.329
37547W        W96643  16.716  12.697   2.404
37548W        W96644   4.879  19.202  13.898
37549W        W96645  43.459  24.649  14.428
37550W        W96646  30.587   3.841   4.773
37551W        W96647   8.273  19.199  14.794
37552W        W96648  27.650  31.637   4.638
37553W        W96649  27.557  14.618   4.239
37554W        W96650  34.013  30.647   3.377
37555W        W96651  44.948  37.085  13.470
37556W        W96652  17.787  19.267  12.425
37557W        W96653  19.056  32.990  13.430
37558W        W96654  35.963   4.848  13.540
37559W        W96655  14.203  39.423  11.069
37560W        W96656  12.745  42.787  11.096
37561W        W96657   0.889  30.985   3.710
37562W        W96658  30.989  36.397   0.291
37563W        W96659   3.856  33.924  11.582
37564W        W96660  22.697   8.755  13.054
37565W        W96661  27.047  44.848   3.274
37566W        W96662  12.140  37.953  10.981
37567W        W96663  44.837   5.364  13.833
37568W        W96664  32.124   0.277  11.606
37569W        W96665  16.585   9.856   3.771
37570W        W96666  11.297  29.150   5.265
37571W        W96667  35.508  38.052  13.989
37572W        W96668  12.646  26.675   4.223
37573W        W96669  32.431  22.512  10.566
37574W        W96670  21.255  39.062   2.860
37575W        W96671  34.054  10.232  13.477
37576W        W96672  13.690  24.162  14.907
37577W        W96673  11.768   3.421  13.535
37578W        W96674  17.561  27.479   0.397
37579W        W96675  15.806   9.714  13.879
37580W        W96676  37.495  23.682   3.158
37581W        W96677  25.638  34.434   1.783
37582W        W96678  35.584  42.969  11.047
37583W        W96679  15.646   6.218   0.351
37584W        W96680  34.992  40.819   3.704
37585W        W96681   8.396  12.280  13.398
37586W        W96682  13.307   4.890   9.941
37587W        W96683   2.466   8.881  10.960
37588W        W96684  18.172  39.511  13.048
37589W        W96685  35.455  10.244   1.297
37590W        W96686  29.990  44.427   4.319
37591W        W96687  28.180  20.158  14.296
37592W        W96688  42.364  27.631  13.367
37593W        W96689  10.707  36.863   0.469
37594W        W96690  21.143   3.307   1.766
37595W        W96691   7.307   1.832   1.893
37596W        W96692  12.658   8.366  11.884
37597W        W96693  23.492  39.485  12.486
37598W        W96694   1.415  12.822   0.424
37599W        W96695  25.987   7.894  15.000
37600W        W96696  32.973  11.645   0.869
37601W        W96697   5.353   2.383   2.732
37602W        W96698  36.570  31.124   4.685
37603W        W96699  44.505  20.528  12.524
37604W        W96700  15.152  20.647   3.641
37605W        W96701  31.069  12.258  12.377
37606W        W96702  32.893  30.014  11.899
37607W        W96703   0.380  29.543  12.042
37608W        W96704  33.918  42.305   1.419
37609W        W96705  25.503  20.034   4.325
37610W        W96706   8.244  40.306   1.830
37611W        W96707  33.004  25.489   0.309
37612W        W96708  30.427  41.826   4.833
37613W        W96709  19.200  38.527  11.390
37614W        W96710  24.565  10.813   0.840
37615W        W96711  38.061  14.332   4.227
37616W        W96712  14.685  41.444   4.175
37617W        W96713  13.623   8.660  12.022
37618W        W96714  12.233   8.243   4.114
37619W        W96715  18.254  33.900   1.433
37620W        W96716   5.389  31.518   4.650
37621W        W96717  20.689  38.340   2.780
37622W        W96718  10.298   0.862   1.873
37623W        W96719  34.998  10.286  10.005
37624W        W96720  10.364   9.168  12.391
37625W        W96721  36.934   5.822   4.135
37626W        W96722  35.383  33.998   3.299
37627W        W96723  16.259   9.179  12.490
37628W        W96724   5.871   5.774  10.505
37629W        W96725  23.985   3.294   0.479
37630W        W96726  37.842  31.536  14.870
37631W        W96727  42.812  23.158  12.944
37632W        W96728  23.214  41.860   1.288
37633W        W96729  10.273   0.269   3.853
37634W        W96730  41.329  20.159   2.834
37635W        W96731  14.305   3.801  13.891
37636W        W96732  20.686  32.921   0.414
37637W        W96733  23.686  13.704   3.775
37638W        W96734  24.564  40.045  14.395
37639W        W96735   3.805  28.102   0.822
37640W        W96736  30.627  11.707   4.160
37641W        W96737   6.404   3.297  14.507
37642W        W96738  29.974  18.071   4.652
37643W        W96739  22.504  20.603   3.796
37644W        W96740  10.831  25.207   3.146
37645W        W96741  13.790  43.886   1.811
37646W        W96742   3.233  40.403  12.495
37647W        W96743  30.907  14.293   0.941
37648W        W96744  14.611  11.159  12.566
37649W        W96745  14.759  39.008  13.063
37650W        W96746   1.865  38.558   4.619
37651W        W96747  40.009  40.867   1.802
37652W        W96748  25.693   7.348  11.407
37653W        W96749  38.044  24.166   0.800
37654W        W96750   1.398  16.701   0.893
37655W        W96751  25.210   6.305   3.758
37656W        W96752  43.898  27.466  11.860
37657W        W96753  23.170  19.666  10.061
37658W        W96754  29.461  34.507   0.855
37659W        W96755  24.578  26.043   4.223
37660W        W96756  35.583  24.107  13.061
37661W        W96757  10.325  44.768  12.064
37662W        W96758  12.119  27.993  11.126
37663W        W96759  44.488  35.376  11.480
37664W        W96760  29.571  41.996   2.292
37665W        W96761  43.494  11.290  11.474
37666W        W96762  12.843  39.953   3.738
37667W        W96763   3.925  18.131   4.761
37668W        W96764   8.862  10.171   2.193
37669W        W96765  19.718  38.916  14.832
37670W        W96766  21.137   4.835   4.345
37671W        W96767  28.008  12.314  12.919
37672W        W96768  21.096  14.121  14.912
37673W        W96769   4.341  19.176   0.893
37674W        W96770   0.943  37.044  11.940
37675W        W96771   2.238   9.223  11.573
37676W        W96772   6.688  25.574  14.010
37677W        W96773  12.680  10.308  11.880
37678W        W96774   1.455  20.050   1.832
37679W        W96775  15.774  25.214   2.768
37680W        W96776  17.307  22.567   3.225
37681W        W96777  38.833  41.842  12.016
37682W        W96778  34.103  16.807   3.837
37683W        W96779  19.717  28.500  11.915
37684W        W96780  23.041  36.998   3.312
37685W        W96781  15.270  36.050   0.265
37686W        W96782  33.430  11.727  14.438
37687W        W96783  34.937   7.341  12.445
37688W        W96784  39.038  31.624   0.427
37689W        W96785  25.199   9.164  11.012
37690W        W96786  39.544  35.960  11.391
37691W        W96787  12.291   2.913   1.780
37692W        W96788   7.177  30.485   0.949
37693W        W96789  14.312  26.579  14.934
37694W        W96790   0.386  32.559   2.878
37695W        W96791   1.746  38.834  10.616
37696W        W96792   5.438  30.140  11.964
37697W        W96793  25.577  20.603  11.581
37698W        W96794  36.929   1.841  11.864
37699W        W96795  19.633  38.459  14.913
37700W        W96796  42.014  34.501  13.859
37701W        W96797  41.001  29.435  13.362
37702W        W96798  20.596   5.792   0.249
37703W        W96799  24.559  23.549   1.248
37704W        W96800  35.358  20.182  11.006
37705W        W96801   8.713  26.172   0.343
37706W        W96802  17.615  23.678   2.414
37707W        W96803   6.348  29.551  13.983
37708W        W96804  44.950  37.386  13.423
37709W        W96805  24.480  41.526   3.810
37710W        W96806  35.924   9.709  13.008
37711W        W96807  18.784  10.144   0.419
37712W        W96808  33.446  36.451   1.743
37713W        W96809  41.479  26.525  14.500
37714W        W96810  34.500  14.591   4.247
37715W        W96811  11.632  17.583   1.287
37716W        W96812  21.027   1.242  12.477
37717W        W96813  12.735  16.736   2.332
37718W        W96814   4.879  19.746  13.996
37719W        W96815  40.362  43.483   0.960
37720W        W96816  40.418  19.583   1.719
37721W        W96817  40.339   6.211  10.457
37722W        W96818  24.719  12.735  12.988
37723W        W96819  12.163  42.954  13.957
37724W        W96820  37.894  39.476   3.650
37725W        W96821  10.814  44.314  12.439
37726W        W96822  14.334   9.769   4.687
37727W        W96823   1.963  42.395   3.731
37728W        W96824  17.630  13.132  14.386
37729W        W96825  18.124  41.497  14.820
37730W        W96826  19.699  17.747   0.900
37731W        W96827   9.863   5.259   3.227
37732W        W96828  31.950   4.308  12.448
37733W        W96829   1.827  32.439   0.326
37734W        W96830  13.731   1.977   2.678
37735W        W96831  29.962   8.784  13.990
37736W        W96832   9.856  43.773  13.895
37737W        W96833  26.487  28.159  11.944
37738W        W96834  11.808  34.525  11.541
37739W        W96835  19.761  12.722   2.270
37740W        W96836  41.853  37.397   5.314
37741W        W96837  38.864  15.242   4.122
37742W        W96838  20.636  31.909   4.696
37743W        W96839  18.095  12.639   2.284
37744W        W96840  28.486  32.032   4.244
37745W        W96841  12.138  28.174   5.637
37746W        W96842  36.857   4.222   0.869
37747W        W96843  25.092  42.520  11.408
37748W        W96844  22.587  35.552  11.600
37749W        W96845  19.073  19.679  11.979
37750W        W96846  43.797  12.350   0.427
37751W        W96847  29.482  32.564   0.930
37752W        W96848  32.969  33.927   3.825
37753W        W96849  21.077  32.935  13.414
37754W        W96850  24.542  42.925  12.080
37755W        W96851  29.617  41.861   0.246
37756W        W96852   2.307  12.622  14.850
37757W        W96853  31.093  16.315  12.050
37758W        W96854  25.107  36.020   2.767
37759W        W96855   3.782  13.795   2.266
37760W        W96856  24.084   0.819  14.867
37761W        W96857  21.031  19.100  12.487
37762W        W96858  27.470  40.005   1.927
37763W        W96859   2.261  41.437  11.875
37764W        W96860  23.732  16.162   4.822
37765W        W96861   1.814  36.042  14.965
37766W        W96862  41.320  31.044   2.354
37767W        W96863  29.593   0.387  12.060
37768W        W96864  17.581   7.237   3.669
37769W        W96865  31.612   0.312   4.827
37770W        W96866  30.546  40.815  14.978
37771W        W96867  27.082  13.217  14.802
37772W        W96868  37.463  25.476  12.927
37773W        W96869  17.132  13.743   1.790
37774W        W96870  17.066  22.728   3.659
37775W        W96871  15.310  20.675  11.602
37776W        W96872  18.100   1.344   2.396
37777W        W96873  36.366   3.369   2.419
37778W        W96874   8.816  36.367   4.295
37779W        W96875  28.022  39.439   1.416
37780W        W96876  44.497  40.974   4.834
37781W        W96877  37.883   3.777   4.600
37782W        W96878  24.566  19.543   1.443
37783W        W96879  18.060   7.335  13.800
37784W        W96880  26.533  16.669  14.326
37785W        W96881  20.220  38.491  11.506
37786W        W96882  13.277  23.568  13.902
37787W        W96883  21.212  26.463  13.348
37788W        W96884  13.649  43.277   2.235
37789W        W96885  30.436  10.337  11.507
37790W        W96886  39.455   8.266  12.935
37791W        W96887  10.352  14.117   0.930
37792W        W96888  37.570  26.684  10.414
37793W        W96889  15.165  25.969  13.849
37794W        W96890  33.618   2.804  10.622
37795W        W96891  11.162  20.627   4.154
37796W        W96892  29.612  34.566  14.488
37797W        W96893  44.983  39.551   0.307
37798W        W96894   1.921  11.368   2.190
37799W        W96895   2.841  24.161  13.026
37800W        W96896   8.741  16.229  10.578
37801W        W96897  42.515  22.121   2.719
37802W        W96898  10.233   8.169  14.301
37803W        W96899  36.564  15.161   3.368
37804W        W96900  23.495  36.511  11.962
37805W        W96901   7.399  11.830  13.063
37806W        W96902  12.612  35.902  13.514
37807W        W96903  24.674   1.795  14.001
37808W        W96904  30.939  13.332   3.164
37809W        W96905  17.654  25.683   3.715
37810W        W96906  18.788  40.412   3.239
37811W        W96907  28.014  14.643  14.864
37812W        W96908  28.012  15.322  11.488
37813W        W96909  23.633  43.924   4.614
37814W        W96910   3.313  26.550   2.773
37815W        W96911   6.734  38.917  11.109
37816W        W96912  11.690  37.364   4.147
37817W        W96913  44.856  41.796  14.815
37818W        W96914  44.469   4.410   2.315
37819W        W96915   0.460   8.852  12.954
37820W        W96916  21.026  28.977   2.330
37821W        W96917  39.324  28.609   1.919
37822W        W96918  41.851  42.939   5.260
37823W        W96919   8.757  34.067  12.089
37824W        W96920   4.860  29.564  10.595
37825W        W96921  23.989  39.017   1.837
37826W        W96922  43.382  11.371   2.377
37827W        W96923  33.531  35.486   3.235
37828W        W96924   2.312  32.945   0.899
37829W        W96925  37.994  28.016  13.466
37830W        W96926  20.088  38.352   0.917
37831W        W96927  35.600   2.451   0.291
37832W        W96928  35.409  43.462  13.864
37833W        W96929  36.363   0.278  14.935
37834W        W96930  43.353  10.871  11.490
37835W        W96931  31.641  29.168  12.512
37836W        W96932  41.028  35.436  13.341
37837W        W96933   8.163  16.201   0.918
37838W        W96934  33.953  11.146  11.072
37839W        W96935  13.210   5.376  11.042
37840W        W96936  37.338   5.301   2.385
37841W        W96937   8.734  23.196  14.831
37842W        W96938  15.090  33.984  13.890
37843W        W96939  38.539  30.436  12.369
37844W        W96940  20.575   0.448  10.597
37845W        W96941  10.149  21.676   4.249
37846W        W96942   6.314  19.186  13.810
37847W        W96943  28.459  25.559  11.444
37848W        W96944   5.778   4.765   4.816
37849W        W96945  16.257  27.585  13.032
37850W        W96946  32.054  10.761   0.766
37851W        W96947  16.701  23.506   4.787
37852W        W96948  36.480  27.053  14.352
37853W        W96949  44.786   6.219   4.770
37854W        W96950  23.198  18.609   2.409
37855W        W96951   4.880  40.051  12.842
37856W        W96952  15.603   6.885   1.866
37857W        W96953  14.145   0.797   3.203
37858W        W96954  25.500  42.800  12.509
37859W        W96955   5.790  23.194   3.249
37860W        W96956  27.166  40.025  13.400
37861W        W96957  27.471  34.370  12.569
37862W        W96958   6.406  12.169  12.030
37863W        W96959  39.358  27.984   3.287
37864W        W96960   5.412  12.677   3.836
37865W        W96961  29.038   0.887   3.645
37866W        W96962  33.901  30.937   0.331
37867W        W96963  11.356  21.717  10.993
37868W        W96964  19.541   7.853   0.366
37869W        W96965   0.823  11.780   1.375
37870W        W96966  33.601   0.388  11.486
37871W        W96967  25.093   4.273   1.359
37872W        W96968  34.419  11.773  13.030
37873W        W96969  18.780   8.759  14.350
37874W        W96970  18.209  11.216  13.042
37875W        W96971  33.907   3.439   0.446
37876W        W96972  22.554  14.137  12.564
37877W        W96973  44.954  26.124  10.977
37878W        W96974  29.433  22.654  14.297
37879W        W96975  26.967  36.434   5.106
37880W        W96976  20.259  44.330   0.298
37881W        W96977  19.220  15.215  12.936
37882W        W96978  35.392  19.242  14.871
37883W        W96979  11.212  19.167   0.277
37884W        W96980  36.047  25.540   3.640
37885W        W96981   3.790  24.655   4.224
37886W        W96982  41.845   7.869  14.003
37887W        W96983  32.060   5.782  11.124
37888W        W96984  33.449  27.546  12.958
37889W        W96985  12.170  14.723   2.788
37890W        W96986  14.834  22.690   0.864
37891W        W96987  43.431  17.213   2.741
37892W        W96988  14.781  24.178  11.045
37893W        W96989  16.212   3.844  11.982
37894W        W96990  20.765  38.958  13.404
37895W        W96991   3.887  21.576   2.265
37896W        W96992  10.192  29.563  11.519
37897W        W96993  35.389  21.734  12.827
37898W        W96994  10.273  25.095   2.274
37899W        W96995  26.964  40.473  12.474
37900W        W96996  17.083  10.731   1.904
37901W        W96997  41.332   7.839  14.406
37902W        W96998   4.443  16.789   2.373
37903W        W96999   2.814  28.473   1.908
37904W        W97000  35.401  29.618  12.893
37905W        W97001  38.882   6.739   4.125
37906W        W97002  20.161  27.005  14.984
37907W        W97003  42.906  18.645   2.250
37908W        W97004  11.358  14.674  14.892
37909W        W97005  11.266   1.284   4.202
37910W        W97006  17.221  27.502  11.524
37911W        W97007   5.930  19.045   3.251
37912W        W97008  34.988   1.303   4.307
37913W        W97009  39.363   6.335   1.720
37914W        W97010  36.482  19.750  14.957
37915W        W97011  12.205  26.573  11.918
37916W        W97012  17.242  36.997   1.234
37917W        W97013  14.627   2.399  10.943
37918W        W97014  19.156  20.224   2.349
37919W        W97015  24.185  41.437  13.891
37920W        W97016   5.377  30.032   2.703
37921W        W97017  33.992  12.731  14.886
37922W        W97018  12.303  40.311   3.854
37923W        W97019  33.512  33.532  13.493
37924W        W97020  36.560   6.389   1.277
37925W        W97021  18.741  20.193  12.964
37926W        W97022   3.228  34.430  10.592
37927W        W97023  23.071  44.888   0.347
37928W        W97024   6.887  40.859   3.785
37929W        W97025  37.977  43.328  10.938
37930W        W97026   2.340   3.738  14.822
37931W        W97027   3.339  43.775   4.750
37932W        W97028   7.904   8.270   1.822
37933W        W97029  18.246  12.653   0.740
37934W        W97030  34.461  30.150  14.796
37935W        W97031   2.873   6.740   4.623
37936W        W97032   5.356   5.828   0.362
37937W        W97033  21.633  20.133  14.874
37938W        W97034  15.791  34.456   1.854
37939W        W97035  33.014  43.907  11.439
37940W        W97036  43.424  11.640  12.417
37941W        W97037  43.467  34.951   3.673
37942W        W97038  44.495  20.690  13.494
37943W        W97039   8.339  44.953  13.470
37944W        W97040  22.151   0.383  11.970
37945W        W97041  21.748  12.840   4.681
37946W        W97042  10.181  14.780  10.008
37947W        W97043  14.237   7.222  13.045
37948W        W97044  13.613  21.538   4.190
37949W        W97045  40.335  29.001  13.938
37950W        W97046  19.689   2.330  12.465
37951W        W97047   1.764  31.067   5.175
37952W        W97048  44.502  14.764   0.806
37953W        W97049   3.294  43.015  13.404
37954W        W97050   8.296  28.624   1.245
37955W        W97051  36.449  14.275  10.555
37956W        W97052  42.776  11.679  14.870
37957W        W97053  31.020   4.762  10.542
37958W        W97054  34.096  38.329   0.395
37959W        W97055  37.477  36.403   3.158
37960W        W97056  23.680  23.704  12.557
37961W        W97057  16.711  30.415   2.786
37962W        W97058  10.787  14.808   4.612
37963W        W97059   7.775  21.622  10.942
37964W        W97060  33.066  10.151   3.246
37965W        W97061  41.878   6.418   2.855
37966W        W97062  24.209  15.198  12.371
37967W        W97063  42.827  38.978   3.213
37968W        W97064  38.488   9.214   1.374
37969W        W97065   8.731  28.035   0.817
37970W        W97066   1.417   0.349  12.834
37971W        W97067  38.867  11.335   2.407
37972W        W97068  13.264  32.142  10.546
37973W        W97069  10.148   6.677   4.788
37974W        W97070  21.644  34.982   0.408
37975W        W97071  39.046  37.060   4.251
37976W        W97072   1.876  18.109  12.897
37977W        W97073  42.304   4.701  13.054
37978W        W97074  18.582   2.380  13.829
37979W        W97075  32.888  18.190  14.367
37980W        W97076  22.667  10.874  14.363
37981W        W97077  40.863  13.258  13.467
37982W        W97078  34.601  36.481   4.730
37983W        W97079  23.196  21.208   1.245
37984W        W97080  30.543  23.533   0.340
37985W        W97081  19.674  41.927  13.488
37986W        W97082  29.986  12.785   0.795
37987W        W97083  17.260  25.064  11.556
37988W        W97084  40.309  35.102  13.794
37989W        W97085  36.421  15.824   2.259
37990W        W97086   2.856  44.868   2.260
37991W        W97087  24.071   2.431  10.610
37992W        W97088   7.740  32.468   1.897
37993W        W97089   6.834  42.883   2.199
37994W        W97090  25.505  20.150  13.894
37995W        W97091  37.391  40.915   2.742
37996W        W97092  25.128  16.164   1.751
37997W        W97093   9.328  11.194   2.382
37998W        W97094   0.775  37.944   4.654
37999W        W97095   4.717  37.491   1.374
38000W        W97096  20.742  35.395  12.907
38001W        W97097  21.033  40.445   0.919
38002W        W97098  42.472   6.788  11.017
38003W        W97099  27.564  33.031   0.967
38004W        W97100   8.238  37.833   0.337
38005W        W97101  43.458  20.218  11.008
38006W        W97102   7.859  18.073  12.339
38007W        W97103  35.901   1.826  10.508
38008W        W97104  27.624  19.267   1.877
38009W        W97105   7.800  19.745   3.692
38010W        W97106  26.199  11.322   2.326
38011W        W97107  40.336  17.216   4.679
38012W        W97108  20.064   9.309  10.947
38013W        W97109  11.776  19.129   2.686
38014W        W97110  40.973  44.804   0.899
38015W        W97111  11.247  37.534   3.154
38016W        W97112  32.506  39.504  12.371
38017W        W97113  28.506  17.587   3.785
38018W        W97114   3.229  30.961   1.416
38019W        W97115   1.869  41.344   0.749
38020W        W97116  38.907   8.881   3.319
38021W        W97117   8.840  29.110  11.414
38022W        W97118   3.365  43.839  13.044
38023W        W97119  32.997  14.780  11.114
38024W        W97120  17.738   5.333  14.332
38025W        W97121  21.617  10.650  13.027
38026W        W97122   5.841  10.865   4.201
38027W        W97123   6.315  24.597  11.897
38028W        W97124  35.906  25.535  13.933
38029W        W97125   0.252  29.430   4.191
38030W        W97126  29.174  19.266   9.476
38031W        W97127   5.789  32.140  10.496
38032W        W97128  17.567  23.003   3.153
38033W        W97129  27.122  44.297  14.821
38034W        W97130  12.254  19.648  12.030
38035W        W97131  18.054  38.880  14.390
38036W        W97132  39.923  35.984   0.358
38037W        W97133  33.120  28.966  14.983
38038W        W97134  23.010   7.730   0.965
38039W        W97135  26.116  40.420  13.835
38040W        W97136  29.656  38.066   1.762
38041W        W97137   9.376  44.473  12.922
38042W        W97138   6.310  34.121  14.780
38043W        W97139  31.622  29.485  13.033
38044W        W97140  37.485   9.645  14.770
38045W        W97141  29.647  16.797   1.414
38046W        W97142  10.250   2.236   3.806
38047W        W97143  11.316  30.970  11.560
38048W        W97144  39.897  29.153   1.837
38049W        W97145  26.152  14.690  10.490
38050W        W97146  42.966  18.228   1.780
38051W        W97147  29.159  37.529  14.920
38052W        W97148   1.791  38.019  14.851
38053W        W97149  25.963  35.562   1.825
38054W        W97150  20.032   9.775  12.454
38055W        W97151  20.657  30.999   3.855
38056W        W97152   5.345  41.801   3.299
38057W        W97153  20.188  39.417   1.239
38058W        W97154  18.199   0.485   1.836
38059W        W97155  18.202  17.266  12.456
38060W        W97156  36.359  27.660   2.261
38061W        W97157   7.830  39.991   4.276
38062W        W97158   4.400  17.269  11.584
38063W        W97159   7.211  41.830  12.498
38064W        W97160  28.983  42.820   0.336
38065W        W97161  27.136   7.221  13.368
38066W        W97162   3.748  24.123   0.898
38067W        W97163  30.428  10.345  14.935
38068W        W97164   7.758  15.321   3.386
38069W        W97165  23.987  36.579   1.428
38070W        W97166  40.385   9.653   1.285
38071W        W97167   2.309   3.750   3.757
38072W        W97168  31.955  10.719   2.311
38073W        W97169  26.509  41.533   3.367
38074W        W97170   5.727   6.418  11.491
38075W        W97171  44.930  32.921  12.506
38076W        W97172  12.286   3.242   0.963
38077W        W97173  42.990  18.243   2.323
38078W        W97174  33.893  28.075   2.412
38079W        W97175  38.058  21.730  12.859
38080W        W97176  26.470   9.675  12.476
38081W        W97177  21.061   8.311   4.604
38082W        W97178   0.453  10.372   4.690
38083W        W97179  37.374  18.102   3.686
38084W        W97180  28.486  39.544  12.421
38085W        W97181  30.569  40.448  12.449
38086W        W97182   0.927  22.066   4.749
38087W        W97183  38.898  35.897   4.176
38088W        W97184  34.991  18.716  11.450
38089W        W97185  41.317  27.155   1.372
38090W        W97186   1.872  43.370  12.395
38091W        W97187  11.234  38.964  13.533
38092W        W97188  17.711  33.468   3.165
38093W        W97189  17.196  33.959   4.161
38094W        W97190   8.223  24.156   1.825
38095W        W97191  44.458  35.411   3.179
38096W        W97192  20.247  43.372   0.947
38097W        W97193  18.720  39.466  10.641
38098W        W97194  38.495  26.035  12.908
38099W        W97195  25.062  21.623  10.937
38100W        W97196   6.765  28.483   1.242
38101W        W97197   4.706   9.846   0.774
38102W        W97198  26.583  21.695   4.738
38103W        W97199  40.394  26.563   2.761
38104W        W97200  37.505  16.097  12.397
38105W        W97201   7.345  18.106  12.837
38106W        W97202  20.622  35.029   2.682
38107W        W97203  38.948   3.946  13.476
38108W        W97204   6.281  33.584   9.924
38109W        W97205  28.515  32.922   1.357
38110W        W97206  38.453   4.356  13.984
38111W        W97207   6.923  12.780  11.465
38112W        W97208  12.201  24.584   4.132
38113W        W97209  40.352   9.869   4.638
38114W        W97210  38.455  44.779  12.042
38115W        W97211  30.458   0.479  13.539
38116W        W97212  31.413   6.720   4.330
38117W        W97213   8.174  38.428   0.872
38118W        W97214  20.252  37.346   0.924
38119W        W97215   9.228  37.524   3.781
38120W        W97216  37.833  10.668  11.879
38121W        W97217  21.087  16.147  11.470
38122W        W97218  37.940   3.459   1.889
38123W        W97219  34.911  32.501  14.763
38124W        W97220  20.099   0.443  13.392
38125W        W97221  35.462  27.560  14.513
38126W        W97222  33.621  25.076   0.816
38127W        W97223  44.921  17.306  13.976
38128W        W97224  43.351  29.434  11.393
38129W        W97225   5.752  39.454  12.845
38130W        W97226  37.507  19.281   0.433
38131W        W97227  14.110  29.148  13.387
38132W        W97228  29.979  19.053  11.918
38133W        W97229  33.536  31.992   1.390
38134W        W97230  18.689  21.187   1.722
38135W        W97231  29.472  34.521  10.486
38136W        W97232  10.317  40.367  11.373
38137W        W97233  32.625   3.438   4.702
38138W        W97234  17.189   4.308  13.835
38139W        W97235  11.799  36.053  14.410
38140W        W97236  11.163   7.346  13.966
38141W        W97237  11.159  41.840  13.409
38142W        W97238  44.951  19.268   2.807
38143W        W97239   3.932  31.991   4.769
38144W        W97240  25.602  29.976   4.279
38145W        W97241  19.680  27.550   4.293
38146W        W97242  11.177  21.757  14.970
38147W        W97243  32.049  33.428   1.317
38148W        W97244   1.411   9.843   2.324
38149W        W97245  14.111  10.725  13.871
38150W        W97246  32.520   1.962   1.712
38151W        W97247  27.650  38.074  12.400
38152W        W97248  31.141  14.141  11.051
38153W        W97249   1.760  37.502  10.916
38154W        W97250  44.755  43.930  12.346
38155W        W97251  10.247  16.122  14.386
38156W        W97252  32.921   0.915  12.390
38157W        W97253  30.623  38.028  14.389
38158W        W97254  41.010  18.220   1.698
38159W        W97255  17.121   8.852  13.471
38160W        W97256  39.890  37.478   2.852
38161W        W97257  10.728   4.757   0.859
38162W        W97258   2.253  38.826  11.516
38163W        W97259  41.979  33.013   4.220
38164W        W97260   2.292  19.280   1.920
38165W        W97261  31.581  28.442  12.561
38166W        W97262  38.483  17.118  14.005
38167W        W97263  18.133  30.523   1.819
38168W        W97264   9.377  17.285  13.487
38169W        W97265  32.141  27.522   4.770
38170W        W97266  35.899  12.188   1.855
38171W        W97267  17.742  35.984   9.486
38172W        W97268  33.381  26.697   5.199
38173W        W97269  18.290  28.595  14.017
38174W        W97270  41.403   6.694   1.448
38175W        W97271  12.265  26.478  10.580
38176W        W97272   8.229  13.696  10.913
38177W        W97273  16.135  41.367   3.830
38178W        W97274  30.575  27.182   1.755
38179W        W97275  28.618   3.275  14.874
38180W        W97276   6.393  28.625  14.505
38181W        W97277  23.714  24.700  10.408
38182W        W97278  35.551  36.965  10.576
38183W        W97279  17.090  44.328   3.733
38184W        W97280  37.346  39.493  11.106
38185W        W97281  43.894   8.252  14.009
38186W        W97282   9.191  43.419  12.514
38187W        W97283  11.678  23.131   3.205
38188W        W97284  40.022  38.495   0.758
38189W        W97285  42.466  32.050  10.553
38190W        W97286  44.428  19.542  10.463
38191W        W97287   0.834  38.938  12.508
38192W        W97288  13.604  11.669   4.748
38193W        W97289  28.515  21.610  11.536
38194W        W97290   9.240  32.038   5.192
38195W        W97291  11.648   8.804   0.298
38196W        W97292   2.861  34.426   3.157
38197W        W97293  29.468   3.232  11.519
38198W        W97294  23.730  41.039  10.533
38199W        W97295  40.996  24.656   3.173
38200W        W97296  40.549  33.976  14.308
38201W        W97297  32.093  21.705   5.225
38202W        W97298  42.357  27.989   1.293
38203W        W97299   3.316  38.420   0.759
38204W        W97300   3.260  38.368   1.842
38205W        W97301   9.193  44.283  10.950
38206W        W97302  14.320  39.367  11.898
38207W        W97303  35.965  24.639   1.255
38208W        W97304  12.797  33.922  12.972
38209W        W97305  35.515   3.946  13.980
38210W        W97306  40.032  41.328   4.722
38211W        W97307   0.403   0.367  10.571
38212W        W97308  24.200  13.246   4.748
38213W        W97309   9.299   3.370  14.396
38214W        W97310  37.576  36.920   2.335
38215W        W97311  24.004  44.298   0.790
38216W        W97312   7.193   9.886  10.597
38217W        W97313  23.157   2.461   0.263
38218W        W97314   7.221  12.812   2.242
38219W        W97315  43.970  40.530   3.326
38220W        W97316  37.891  39.995  10.410
38221W        W97317  43.407   3.419  11.948
38222W        W97318   4.923   0.770  10.446
38223W        W97319  41.336   8.200  11.386
38224W        W97320   3.397  34.382   1.869
38225W        W97321  18.263  40.842  13.795
38226W        W97322  24.196  39.969  10.974
38227W        W97323   4.359  44.876   0.251
38228W        W97324  41.008  42.386   2.237
38229W        W97325   1.381  41.884   1.379
38230W        W97326  31.415  34.018  12.958
38231W        W97327  27.002  20.558   1.761
38232W        W97328  22.076  40.517   2.902
38233W        W97329  19.708   7.350   2.676
38234W        W97330  22.094   1.394  10.632
38235W        W97331  38.504  19.634   0.283
38236W        W97332  18.071  12.661   4.797
38237W        W97333  31.022  26.694   5.115
38238W        W97334   4.389   7.278  10.542
38239W        W97335   3.335  25.003  12.935
38240W        W97336  42.835  33.036   2.184
38241W        W97337  43.379  17.614   4.255
38242W        W97338  37.020  32.888   4.349
38243W        W97339  16.165  10.148   2.684
38244W        W97340   2.867  41.524   3.774
38245W        W97341  32.102  19.578   2.850
38246W        W97342  11.624  28.138  10.942
38247W        W97343   8.749  36.027  12.463
38248W        W97344  39.405  44.396   3.240
38249W        W97345  14.213   5.809   0.253
38250W        W97346  12.621   2.445  13.368
38251W        W97347  33.432  23.026   4.140
38252W        W97348   3.219   3.359  14.799
38253W        W97349  41.314  42.834  12.463
38254W        W97350  32.412   9.207  13.028
38255W        W97351  29.070   2.245   4.206
38256W        W97352  24.155  12.631  14.875
38257W        W97353  39.359  20.568   1.300
38258W        W97354  18.205   5.208   2.418
38259W        W97355  15.238  41.937  14.816
38260W        W97356   8.788  22.718  14.845
38261W        W97357  34.415  30.042  14.381
38262W        W97358  14.300  40.346  11.126
38263W        W97359  24.202   7.734   0.765
38264W        W97360  36.426  12.688   1.897
38265W        W97361  38.908  20.076  12.545
38266W        W97362  22.048   6.864  11.907
38267W        W97363  29.948  35.598   0.956
38268W        W97364  11.780  20.559   3.361
38269W        W97365  27.519  30.497  12.365
38270W        W97366  25.651  26.119  11.983
38271W        W97367   5.899  24.660  12.049
38272W        W97368  25.219   6.768  14.488
38273W        W97369  40.524  17.765  11.909
38274W        W97370  34.105  23.165   3.704
38275W        W97371  39.892  18.236   4.649
38276W        W97372  26.028  27.574  12.513
38277W        W97373   3.712  31.610  14.767
38278W        W97374  31.411  17.126  12.358
38279W        W97375   9.788  44.456   0.754
38280W        W97376  30.965   5.231  12.900
38281W        W97377  26.068  42.897  14.318
38282W        W97378  24.712  41.436   1.430
38283W        W97379   4.210  17.639  12.544
38284W        W97380   2.741   3.386   1.727
38285W        W97381  12.325  12.225   0.949
38286W        W97382  43.475  36.011   3.844
38287W        W97383   0.376  22.648  12.069
38288W        W97384  41.018   9.764  13.932
38289W        W97385  41.938  42.311  12.092
38290W        W97386  29.492  43.378   0.318
38291W        W97387  27.560  15.716   4.823
38292W        W97388  39.030  43.789  14.925
38293W        W97389  16.122  23.073  14.926
38294W        W97390   4.768  34.966   1.246
38295W        W97391  24.607  13.734  11.015
38296W        W97392  37.971  14.658   3.187
38297W        W97393  39.533   7.846  11.475
38298W        W97394   1.961  30.423   1.882
38299W        W97395   2.367   2.322   2.267
38300W        W97396   4.272  35.921  14.461
38301W        W97397   8.212   5.897   4.264
38302W        W97398  16.173  25.657   2.813
38303W        W97399  27.001  27.549   0.300
38304W        W97400  24.125  41.828   5.254
38305W        W97401  27.546  34.600  13.352
38306W        W97402  38.569  15.140  12.431
38307W        W97403  12.336  20.586  10.517
38308W        W97404   6.868  11.671   4.119
38309W        W97405  30.015  39.061  11.953
38310W        W97406  33.451  23.608  13.806
38311W        W97407  15.655  15.221  11.989
38312W        W97408  12.338  26.056   5.187
38313W        W97409  14.710  37.989   4.182
38314W        W97410  32.131   2.843  12.479
38315W        W97411   8.663   4.736  11.424
38316W        W97412  42.775  27.047   0.735
38317W        W97413  21.049   5.409   4.148
38318W        W97414   2.932   9.381  11.572
38319W        W97415   1.415  13.766  14.008
38320W        W97416  41.807   4.916   4.172
38321W        W97417   6.215   7.878  14.942
38322W        W97418  32.094  33.404  10.498
38323W        W97419  18.143  38.917   0.448
38324W        W97420  34.405   1.461   0.745
38325W        W97421   4.272  41.343   0.346
38326W        W97422   9.185  21.671  11.033
38327W        W97423  19.778  22.995   2.890
38328W        W97424   3.217  31.111  10.486
38329W        W97425  30.144   4.373   3.174
38330W        W97426  19.233  16.758  12.840
38331W        W97427  31.461  22.527   1.400
38332W        W97428   0.413  18.641  11.965
38333W        W97429  18.631  15.654  12.871
38334W        W97430  35.582   9.738   2.798
38335W        W97431  18.286  24.525  13.056
38336W        W97432  21.139  24.706   4.657
38337W        W97433  40.879  17.569   3.209
38338W        W97434  18.748  23.698  13.860
38339W        W97435   7.868  16.740  12.566
38340W        W97436  40.984  40.988  11.064
38341W        W97437   6.856  34.110  14.353
38342W        W97438  24.227  10.275   1.773
38343W        W97439   5.209  13.260  13.365
38344W        W97440  24.001  12.737  10.537
38345W        W97441   1.337  20.097   3.288
38346W        W97442  21.637  18.165   0.311
38347W        W97443  44.288  29.575   3.314
38348W        W97444  29.964   8.890   2.373
38349W        W97445  38.064  35.453   4.140
38350W        W97446   6.906  31.092  14.306
38351W        W97447   9.717  43.479  12.972
38352W        W97448  10.633  35.980  11.028
38353W        W97449   8.723  40.012   3.840
38354W        W97450  30.659   5.282  12.918
38355W        W97451  27.944  43.773   0.289
38356W        W97452  42.831  29.087   4.347
38357W        W97453   1.412   8.262  11.487
38358W        W97454  35.534  21.669   0.480
38359W        W97455  13.197   0.255  12.516
38360W        W97456  39.539  29.161   1.893
38361W        W97457  25.583  32.466  12.960
38362W        W97458  13.341  22.512  13.467
38363W        W97459  28.440  13.838  13.921
38364W        W97460  33.107  29.976   1.397
38365W        W97461  25.050  29.586  14.988
38366W        W97462  29.508   0.867   0.941
38367W        W97463  37.427  14.213  14.429
38368W        W97464  16.234  19.670  10.974
38369W        W97465  32.018  36.919   0.727
38370W        W97466  29.967   3.282  14.931
38371W        W97467   0.906  15.800   4.237
38372W        W97468  10.159   0.295   4.726
38373W        W97469   9.687   9.875  14.327
38374W        W97470  27.140  28.555  14.895
38375W        W97471   4.717  31.586  10.927
38376W        W97472   8.804  24.999  13.965
38377W        W97473   7.238  41.304  11.045
38378W        W97474   2.245  16.194   0.463
38379W        W97475   6.411   0.934  10.134
38380W        W97476  23.590   1.307   3.210
38381W        W97477  36.470  11.268   0.964
38382W        W97478  33.383  17.665  10.475
38383W        W97479   6.302  21.083   5.309
38384W        W97480   9.862   4.436   0.359
38385W        W97481  37.539  18.762  12.361
38386W        W97482   0.440  37.882   3.314
38387W        W97483   0.250  31.472   1.261
38388W        W97484  22.182  23.513   1.887
38389W        W97485  39.030  43.765  13.424
38390W        W97486  31.606  35.555  13.489
38391W        W97487  28.672  27.081   4.793
38392W        W97488   3.263  24.059   4.662
38393W        W97489  24.174   7.228  12.094
38394W        W97490  40.535   8.871   1.428
38395W        W97491  26.108  17.158  13.952
38396W        W97492  13.252  29.130   1.341
38397W        W97493   7.200   5.234   4.755
38398W        W97494  35.487  28.993  14.838
38399W        W97495  14.608  21.697  12.426
38400W        W97496  17.773   8.381   0.320
38401W        W97497  39.512  29.984   4.606
38402W        W97498  28.572  37.450   2.675
38403W        W97499   5.370  37.454   2.196
38404W        W97500  41.303  43.386   4.268
38405W        W97501   4.449  21.169  13.521
38406W        W97502  23.014  42.929   3.787
38407W        W97503  12.276   1.963  13.357
38408W        W97504  32.622  28.449   9.637
38409W        W97505   5.391  44.862  13.006
38410W        W97506  41.861  25.178   2.881
38411W        W97507  15.201  18.643  10.463
38412W        W97508  27.663  13.263   2.293
38413W        W97509  42.417  36.410   1.798
38414W        W97510   6.840  32.917  10.997
38415W        W97511   7.303  13.694   0.910
38416W        W97512  24.583   4.778  11.027
38417W        W97513   2.305  25.513   3.202
38418W        W97514  35.026  28.055   0.348
38419W        W97515  40.313  12.833   4.150
38420W        W97516  28.555   0.965  11.605
38421W        W97517  12.697  33.474  13.322
38422W        W97518  26.634  15.773  13.889
38423W        W97519  14.244  17.752   0.274
38424W        W97520  36.541  42.007  14.327
38425W        W97521   0.922  35.550   3.829
38426W        W97522   5.261  29.957   1.412
38427W        W97523  37.846  18.137   3.239
38428W        W97524  18.677  26.103   4.229
38429W        W97525   5.726   3.766  13.806
38430W        W97526   5.810  35.003  13.855
38431W        W97527  44.861  13.736  11.971
38432W        W97528  42.810  35.007   1.242
38433W        W97529  14.633  43.327   1.272
38434W        W97530  17.562   1.353   1.223
38435W        W97531  40.943  30.023   0.258
38436W        W97532  37.365  42.432   3.686
38437W        W97533  32.437  17.616  12.897
38438W        W97534   9.702  20.545   1.300
38439W        W97535  44.408  17.223   4.623
38440W        W97536  42.878   0.380   2.375
38441W        W97537  26.566  27.023   0.474
38442W        W97538  25.642  42.431  12.389
38443W        W97539  16.789  44.490  10.009
38444W        W97540   1.933  11.650   4.773
38445W        W97541  16.758  35.602   3.303
38446W        W97542  37.448  23.036  10.543
38447W        W97543  27.947  35.039  14.502
38448W        W97544  17.202   2.470  13.965
38449W        W97545  41.852  44.466   2.694
38450W        W97546  38.037  26.545  11.918
38451W        W97547  21.254  29.424   3.297
38452W        W97548  24.092   4.769   9.999
38453W        W97549  10.213  31.486  13.054
38454W        W97550  18.723  29.485  14.435
38455W        W97551   2.783   2.934   1.928
38456W        W97552  19.665  15.736  13.452
38457W        W97553  13.158  16.134  11.951
38458W        W97554  30.995  10.173  12.063
38459W        W97555  12.306  27.472   3.753
38460W        W97556  25.524  26.016  14.907
38461W        W97557   7.854  34.459   2.716
38462W        W97558  28.489  42.888   0.418
38463W        W97559  42.416   2.299   3.364
38464W        W97560   4.747  13.115  11.073
38465W        W97561   1.427  22.167  14.436
38466W        W97562  14.825   3.934   2.773
38467W        W97563   3.888  14.252  12.528
38468W        W97564  33.548  44.803  14.888
38469W        W97565  21.665   4.714   0.427
38470W        W97566  25.567  38.868  11.409
38471W        W97567  23.213  18.703  10.561
38472W        W97568  28.182  35.871  11.399
38473W        W97569   4.746  33.885  14.282
38474W        W97570  23.507   4.921   3.801
38475W        W97571  42.304  28.443  13.399
38476W        W97572  21.749  16.247  12.845
38477W        W97573  21.018   1.472  11.447
38478W        W97574  33.535   0.261   2.687
38479W        W97575  34.010   9.213   1.866
38480W        W97576  29.593  11.159  11.520
38481W        W97577  20.157   1.327   2.316
38482W        W97578  35.037  35.536  12.891
38483W        W97579  15.717   6.359  11.010
38484W        W97580  21.250  26.538   9.986
38485W        W97581  16.086   5.855  12.908
38486W        W97582  21.642  33.929   1.313
38487W        W97583   0.250  11.654  12.575
38488W        W97584  43.820  28.995   3.369
38489W        W97585  12.643  24.172   0.407
38490W        W97586   6.368  41.913   3.758
38491W        W97587  32.488  32.092   0.484
38492W        W97588  31.139   5.261   0.773
38493W        W97589  27.558  19.187  13.358
38494W        W97590  11.680   7.894  13.033
38495W        W97591  22.212  32.924   1.270
38496W        W97592  42.477  37.952   1.827
38497W        W97593   7.319  26.581  14.378
38498W        W97594   5.850  14.818   0.958
38499W        W97595  44.812  42.373  10.629
38500W        W97596  29.528  34.495  13.856
38501W        W97597   8.714  37.581  10.141
38502W        W97598   7.908   0.804  11.612
38503W        W97599  36.848   6.696   9.468
38504W        W97600  16.097   0.862   1.381
38505W        W97601   3.385  39.032   0.414
38506W        W97602  26.545  34.567   1.260
38507W        W97603   1.889   1.445  14.812
38508W        W97604  41.917  41.359  14.873
38509W        W97605  37.872   4.916  14.867
38510W        W97606   4.707  33.572   2.869
38511W        W97607  27.019  18.100   1.695
38512W        W97608  11.178  40.036   0.926
38513W        W97609  22.240   5.801  13.460
38514W        W97610  20.233  40.456  13.477
38515W        W97611  22.529  32.619   1.859
38516W        W97612  14.187  30.642  13.319
38517W        W97613   4.710  22.184  14.813
38518W        W97614   3.925  29.560   4.671
38519W        W97615  36.924  28.078  10.603
38520W        W97616   9.198  13.189   2.732
38521W        W97617  22.727  37.969  14.442
38522W        W97618   6.912  31.108   3.660
38523W        W97619  37.533   8.259   1.863
38524W        W97620  24.669   6.707   3.146
38525W        W97621  26.995  11.633  13.478
38526W        W97622   0.305  20.062   3.146
38527W        W97623   5.330   2.793   1.708
38528W        W97624   3.916  44.267  14.405
38529W        W97625  33.906  34.369  13.983
38530W        W97626  26.513  37.477   4.670
38531W        W97627   1.737  11.758  12.899
38532W        W97628  11.788   6.890  14.279
38533W        W97629  28.537  23.706   4.148
38534W        W97630  31.950  39.491   1.436
38535W        W97631   4.441  36.862   0.422
38536W        W97632  14.631  34.946   4.725
38537W        W97633  24.187   4.441  11.573
38538W        W97634  40.318   0.368   3.248
38539W        W97635   0.865  19.575   4.809
38540W        W97636  21.528  19.267   0.475
38541W        W97637  27.987  16.657   3.809
38542W        W97638  13.237   3.334   0.959
38543W        W97639  29.472  27.670  11.513
38544W        W97640  36.000  33.436  10.606
38545W        W97641  43.925  19.665  14.782
38546W        W97642  27.103  41.017   0.858
38547W        W97643  12.334  29.945  11.904
38548W        W97644   3.818   5.701  12.996
38549W        W97645  24.669  21.720  11.503
38550W        W97646  30.015  32.908  14.864
38551W        W97647  29.072  28.563  11.910
38552W        W97648  35.903  42.456   4.317
38553W        W97649  15.580   0.973   2.834
38554W        W97650  36.355  31.095  12.526
38555W        W97651  32.960  26.551   3.183
38556W        W97652  35.438  10.163   0.949
38557W        W97653  38.846  23.640   4.728
38558W        W97654  41.919  39.825  13.367
38559W        W97655  31.993  32.515   1.390
38560W        W97656  20.129  14.330  13.327
38561W        W97657  13.230  31.533  11.878
38562W        W97658  10.331  32.072   1.828
38563W        W97659  16.178   3.222   4.775
38564W        W97660  26.539   2.469   3.179
38565W        W97661  29.922  41.438   3.202
38566W        W97662  38.824   5.734   0.859
38567W        W97663   7.302  39.879   4.188
38568W        W97664   2.356   4.302   1.340
38569W        W97665  35.042  37.396  13.502
38570W        W97666  40.053  32.538   3.321
38571W        W97667   7.223  29.533  12.452
38572W        W97668  31.966  12.158  12.500
38573W        W97669  30.650  17.635  11.118
38574W        W97670  42.461  34.421  13.502
38575W        W97671  18.621  16.578   4.600
38576W        W97672   0.791   8.808  11.470
38577W        W97673   2.296   6.256  10.116
38578W        W97674  29.041  43.340   1.867
38579W        W97675  21.175  15.133  13.012
38580W        W97676  41.829  32.436   2.687
38581W        W97677  15.315  24.484   4.192
38582W        W97678  31.998  17.599  13.523
38583W        W97679  15.281  26.993   4.728
38584W        W97680   8.838  15.702  13.337
38585W        W97681  26.965  23.159  13.542
38586W        W97682  17.584  44.309  12.518
38587W        W97683  18.274   0.917   4.299
38588W        W97684   7.319   1.776   3.644
38589W        W97685  34.925  31.576   2.217
38590W        W97686  19.061  23.613  12.353
38591W        W97687  21.677   6.352  13.877
38592W        W97688  33.988  30.448   3.715
38593W        W97689  15.161   6.347  14.947
38594W        W97690  42.848  24.998   2.828
38595W        W97691  37.881  35.026  14.861
38596W        W97692  13.195   0.976   1.219
38597W        W97693  29.129   9.776   1.368
38598W        W97694   7.241  35.910  10.641
38599W        W97695  27.015  25.059  12.545
38600W        W97696  30.478  21.137  13.403
38601W        W97697   2.445  18.735  11.432
38602W        W97698  35.589  21.254  11.377
38603W        W97699  17.755   7.903   4.827
38604W        W97700  11.799   9.846   2.411
38605W        W97701  26.628  40.535   0.411
38606W        W97702   2.767  13.712  11.569
38607W        W97703  23.537   3.732   3.716
38608W        W97704  11.758  13.262  10.964
38609W        W97705  25.112  34.062  14.000
38610W        W97706  23.567  26.459   3.157
38611W        W97707  14.200  31.456  13.541
38612W        W97708   1.732  29.978  11.105
38613W        W97709   8.282   3.379   0.914
38614W        W97710  44.764  39.889   4.172
38615W        W97711  33.035  27.137  14.917
38616W        W97712  36.995  40.803   3.372
38617W        W97713  35.071  19.732   4.706
38618W        W97714  42.838   9.651   2.239
38619W        W97715  18.122  12.766   3.209
38620W        W97716  29.627   5.383   3.151
38621W        W97717  31.561   3.907  11.554
38622W        W97718  14.184  41.934  11.528
38623W        W97719  26.092  43.402   0.933
38624W        W97720   8.900  29.542  11.586
38625W        W97721  21.632  25.216  12.470
38626W        W97722  30.077  14.145  13.805
38627W        W97723  33.944  37.043  12.400
38628W        W97724  26.966  39.471   4.785
38629W        W97725  21.214  28.125   0.765
38630W        W97726  30.639  17.070  11.578
38631W        W97727  12.615  28.113   5.597
38632W        W97728  40.427  27.996  12.360
38633W        W97729  42.024  11.251  13.047
38634W        W97730   8.333  22.538  12.994
38635W        W97731  26.065  43.434  12.375
38636W        W97732  44.900   2.743  13.422
38637W        W97733  42.788  25.167   4.251
38638W        W97734  35.062   5.383  13.852
38639W        W97735  11.654   4.789  10.988
38640W        W97736  22.512  35.902  13.006
38641W        W97737   1.929  15.148   0.456
38642W        W97738   4.743  23.545  12.039
38643W        W97739  25.180  12.157  14.505
38644W        W97740  19.688  22.593  12.994
38645W        W97741  39.423  13.194  13.831
38646W        W97742   6.384  34.888   4.662
38647W        W97743  31.522   9.200   1.382
38648W        W97744  40.862  10.677   0.757
38649W        W97745  27.145  38.870  10.545
38650W        W97746  26.673  18.769  10.496
38651W        W97747   7.245  37.009   4.169
38652W        W97748   3.294  42.376  13.898
38653W        W97749   8.165  10.177  12.348
38654W        W97750  41.794   2.382  11.978
38655W        W97751  42.004  42.331  13.842
38656W        W97752  10.216   4.755   2.734
38657W        W97753  29.002  37.484   3.633
38658W        W97754  20.214  24.504   0.759
38659W        W97755   2.276  20.120  12.557
38660W        W97756  44.814  24.982  11.010
38661W        W97757  11.849   3.240  12.963
38662W        W97758  15.727  44.934  10.563
38663W        W97759  41.497  21.544  12.982
38664W        W97760  38.832   4.366  13.409
38665W        W97761  40.896  40.028   1.747
38666W        W97762   2.762   9.806  11.538
38667W        W97763  20.599  44.791   3.367
38668W        W97764  39.879  30.000   0.891
38669W        W97765  12.849   9.176  13.948
38670W        W97766  34.047  27.046  13.929
38671W        W97767   0.946  40.507  11.456
38672W        W97768   2.322  40.494  12.475
38673W        W97769   8.664  26.060   3.156
38674W        W97770  36.522  35.427  11.529
38675W        W97771  15.699   6.729   2.242
38676W        W97772  24.661   8.242   1.451
38677W        W97773  25.096  38.398   4.209
38678W        W97774   5.921  32.965  12.875
38679W        W97775  40.935  14.127  12.514
38680W        W97776  39.536   7.825  13.526
38681W        W97777  14.713   9.151   1.283
38682W        W97778  41.974  15.785   3.245
38683W        W97779  16.113  26.598  10.536
38684W        W97780  23.506  41.957  11.010
38685W        W97781  27.538  43.501   3.252
38686W        W97782  12.661  22.733   2.265
38687W        W97783  21.730  26.682   0.438
38688W        W97784  28.039   5.345  13.803
38689W        W97785  12.274   6.411   1.274
38690W        W97786  12.742   0.770   1.338
38691W        W97787  30.449  33.486  10.622
38692W        W97788  18.123  14.235  12.527
38693W        W97789  14.107  41.307  11.497
38694W        W97790  17.126  10.660  10.464
38695W        W97791  42.799  36.430  13.995
38696W        W97792  25.073  34.899  11.534
38697W        W97793  10.339  13.816  13.050
38698W        W97794  32.086  36.407  12.412
38699W        W97795  30.604  44.838  14.401
38700W        W97796  39.057  22.110  10.589
38701W        W97797  14.251  22.540   3.354
38702W        W97798  15.086  39.896  13.348
38703W        W97799  13.793   4.720   2.715
38704W        W97800  11.362   7.735   3.329
38705W        W97801  12.236   9.182   0.341
38706W        W97802  18.165  28.114   0.899
38707W        W97803  42.827  17.196   2.877
38708W        W97804  14.618  20.184   3.737
38709W        W97805  18.145   6.401  13.384
38710W        W97806  31.922  30.922   4.652
38711W        W97807  10.865   0.270  11.548
38712W        W97808   6.781  10.705   4.278
38713W        W97809  24.519  33.032  14.013
38714W        W97810  32.079  37.411  12.396
38715W        W97811   1.310  14.778  12.002
38716W        W97812   5.792   2.934   2.681
38717W        W97813  27.513  12.712   2.865
38718W        W97814  16.756  25.522   1.788
38719W        W97815   0.781   0.913  11.109
38720W        W97816  25.007  14.726   3.667
38721W        W97817  31.056  19.092   0.924
38722W        W97818   8.763  41.317   0.340
38723W        W97819   0.893   2.795  11.012
38724W        W97820   8.707   1.311   1.257
38725W        W97821   1.394  11.311   0.296
38726W        W97822  37.559  31.023  13.508
38727W        W97823  44.926   9.791  14.909
38728W        W97824  13.252  31.636  14.984
38729W        W97825  28.437  24.641   0.275
38730W        W97826   0.451  17.641  10.988
38731W        W97827  32.075  34.457   3.188
38732W        W97828  42.876   1.438   4.718
38733W        W97829   3.437  25.151   9.975
38734W        W97830   9.841  44.474  13.403
38735W        W97831  44.805   7.320  11.381
38736W        W97832  26.174  38.431   4.353
38737W        W97833  41.922  16.750  11.589
38738W        W97834  37.468  23.681  11.500
38739W        W97835   9.180  31.461  13.506
38740W        W97836  12.160   6.336   3.374
38741W        W97837  34.586  11.660  11.999
38742W        W97838   5.352  28.499   4.639
38743W        W97839  40.495  32.630   2.331
38744W        W97840  19.637  41.403  11.952
38745W        W97841  24.034  31.563   2.860
38746W        W97842  21.083   8.675   0.875
38747W        W97843  43.332  37.471  12.862
38748W        W97844  30.075   7.350  14.364
38749W        W97845  22.586  42.521   4.167
38750W        W97846   1.942  17.235   3.787
38751W        W97847  19.267   9.825   9.478
38752W        W97848   0.850  32.406   4.169
38753W        W97849  31.924  29.973   4.274
38754W        W97850  23.187  40.361   2.895
38755W        W97851   6.189  21.743  13.915
38756W        W97852  40.799  43.007  13.876
38757W        W97853   4.419   3.758  12.475
38758W        W97854  14.766  31.076   3.361
38759W        W97855  41.017  30.501   0.938
38760W        W97856  35.015  10.160  14.377
38761W        W97857   9.746  35.004   1.372
38762W        W97858  16.293  28.053   0.912
38763W        W97859  29.105  31.599  15.000
38764W        W97860  38.844  21.676  10.496
38765W        W97861  34.487  10.382   3.644
38766W        W97862   8.769  30.151  14.922
38767W        W97863  39.948  30.643  11.414
38768W        W97864  40.444  22.173  12.383
38769W        W97865  27.642  27.137  12.457
38770W        W97866  17.069  20.039  10.997
38771W        W97867   0.424  17.067  13.949
38772W        W97868  18.782  15.266   4.344
38773W        W97869   5.269  43.310  13.895
38774W        W97870  34.436  28.140   1.440
38775W        W97871   9.154  32.438  14.423
38776W        W97872  44.780  19.218   0.872
38777W        W97873  36.523  21.663   2.833
38778W        W97874   0.754  32.429  12.980
38779W        W97875   8.772   8.334   1.385
38780W        W97876   4.799  38.869   4.749
38781W        W97877   4.399  16.784  12.930
38782W        W97878   7.370   8.248  13.921
38783W        W97879   5.862  44.939   4.321
38784W        W97880  27.587  16.257  14.960
38785W        W97881  17.759  38.422  13.965
38786W        W97882  38.510  44.807  10.980
38787W        W97883  44.271   6.250   4.185
38788W        W97884  43.506   6.852   4.262
38789W        W97885  23.578  28.484  12.346
38790W        W97886  24.099  44.822   1.400
38791W        W97887  33.495   5.285  12.446
38792W        W97888  23.104  14.824  10.996
38793W        W97889  43.410  18.582   2.382
38794W        W97890  10.875  30.081  13.819
38795W        W97891  33.923   3.250  10.622
38796W        W97892  38.041   5.739   0.851
38797W        W97893   0.309   3.866  11.372
38798W        W97894  29.669   1.391  10.439
38799W        W97895  15.761  16.094   1.764
38800W        W97896  24.603  39.936  10.597
38801W        W97897  37.361  15.755   1.900
38802W        W97898  32.131  44.756  13.979
38803W        W97899   0.936  31.418  12.987
38804W        W97900  25.089  14.240   4.800
38805W        W97901   3.371  42.358   2.710
38806W        W97902  37.044   2.763  14.999
38807W        W97903  30.466  23.996   1.232
38808W        W97904   4.917  14.278   3.174
38809W        W97905   1.422   7.314  10.951
38810W        W97906   4.794  26.187  13.052
38811W        W97907   6.848  35.420  12.045
38812W        W97908   5.845   7.707   3.771
38813W        W97909  33.397  25.134   3.349
38814W        W97910  13.761  22.089  12.965
38815W        W97911  28.587  16.657  14.387
38816W        W97912  43.978   8.306  12.962
38817W        W97913   6.751  32.126   5.200
38818W        W97914  35.529  12.651   1.292
38819W        W97915  31.016  44.336  14.977
38820W        W97916  20.070  18.678   2.755
38821W        W97917  15.201  32.496   0.886
38822W        W97918  40.368  13.830   1.766
38823W        W97919  37.463  44.451  10.955
38824W        W97920  31.154   8.397  11.015
38825W        W97921  15.755  40.312   1.789
38826W        W97922  32.423   0.439   4.637
38827W        W97923  22.106  13.800   4.620
38828W        W97924  33.550  26.697   3.683
38829W        W97925  42.925  32.101   4.653
38830W        W97926  31.094  28.472   0.380
38831W        W97927   7.908  33.026   2.883
38832W        W97928   3.880  33.515  11.085
38833W        W97929  38.499  43.391   4.242
38834W        W97930  41.529  27.547   3.651
38835W        W97931  15.090  21.573  12.876
38836W        W97932  26.140  25.031  13.822
38837W        W97933  27.665   6.364   2.371
38838W        W97934  11.371   3.713  10.488
38839W        W97935   4.924   7.832  13.342
38840W        W97936   8.824  36.459   4.829
38841W        W97937  12.188  17.079  11.889
38842W        W97938  39.942  41.021   3.195
38843W        W97939  25.585  18.177   3.783
38844W        W97940  23.589  21.201  10.632
38845W        W97941   9.351  18.647   0.746
38846W        W97942  34.514  12.636  13.515
38847W        W97943  24.134  23.125  11.030
38848W        W97944   3.247  22.704  14.990
38849W        W97945  37.500   4.207   3.797
38850W        W97946  24.516   2.280   0.885
38851W        W97947   6.219  10.830  10.069
38852W        W97948  19.183   7.177   4.115
38853W        W97949   0.960  33.550   5.112
38854W        W97950   5.786  42.027  14.905
38855W        W97951  24.220  32.532  11.489
38856W        W97952  15.777  21.624   1.345
38857W        W97953  11.717  27.527   3.644
38858W        W97954  37.419  31.003   4.641
38859W        W97955  31.908   2.744   2.383
38860W        W97956  17.270  32.498  14.937
38861W        W97957  42.005   1.355  11.573
38862W        W97958  14.692  14.265   4.790
38863W        W97959  44.494  26.135   9.963
38864W        W97960  12.287   5.932   2.753
38865W        W97961  41.484  27.145   2.253
38866W        W97962   0.290  38.415   1.249
38867W        W97963  12.360  25.111  14.003
38868W        W97964  27.655  25.031   3.675
38869W        W97965  21.188  20.613   2.364
38870W        W97966  39.557  18.195   2.834
38871W        W97967  24.525  30.025  13.313
38872W        W97968   8.405   8.809  12.069
38873W        W97969   6.345  20.263  13.365
38874W        W97970  29.159  40.960   3.257
38875W        W97971   5.350   8.894   1.264
38876W        W97972   1.332  43.926   1.757
38877W        W97973   3.448   2.292  11.461
38878W        W97974   6.916  17.622   3.314
38879W        W97975  32.978  13.349  11.085
38880W        W97976   9.842  40.315  11.967
38881W        W97977  38.054  17.140   4.276
38882W        W97978  15.291  25.640  12.949
38883W        W97979  31.573  25.703  14.772
38884W        W97980  14.120  10.675   4.641
38885W        W97981  11.343  12.193   1.292
38886W        W97982   7.352  10.711   2.273
38887W        W97983  30.993  38.855   3.760
38888W        W97984  15.755  17.095   1.795
38889W        W97985  24.085   5.913   4.117
38890W        W97986  27.942   6.371   4.807
38891W        W97987  37.015  14.277  14.274
38892W        W97988  12.756   0.911   0.877
38893W        W97989  29.525  23.240   9.647
38894W        W97990  10.791  15.267   2.366
38895W        W97991  26.480  23.119  12.548
38896W        W97992  38.340  23.645   0.474
38897W        W97993  44.883   6.757   4.644
38898W        W97994   7.209  28.486   5.267
38899W        W97995  39.817  30.106  13.517
38900W        W97996   3.714  24.602  10.552
38901W        W97997  15.677  27.502  11.924
38902W        W97998  38.929  41.986  11.550
38903W        W97999  11.290  28.661   2.305
38904W        W98000   5.286   5.231  13.914
38905W        W98001   9.710  28.670   4.203
38906W        W98002   1.971   2.340   4.143
38907W        W98003  17.590   2.367   0.305
38908W        W98004  44.970   0.794  14.004
38909W        W98005  36.964  10.632   1.785
38910W        W98006  20.070  10.832   3.252
38911W        W98007  21.156  23.688  11.096
38912W        W98008  16.804  23.045  14.389
38913W        W98009  23.634  31.487  10.406
38914W        W98010  13.831  18.071   3.789
38915W        W98011  29.476   1.335  10.957
38916W        W98012   8.657  27.126  10.559
38917W        W98013   5.424  14.206   4.702
38918W        W98014   7.298  39.559  14.783
38919W        W98015  18.128  16.717   2.743
38920W        W98016  33.012  37.083   4.794
38921W        W98017   9.247  39.551  13.439
38922W        W98018   4.348  30.592  12.435
38923W        W98019  20.066  32.076  11.862
38924W        W98020  20.687  34.008   4.833
38925W        W98021  23.151  35.964   4.625
38926W        W98022  18.213   5.347  12.974
38927W        W98023   6.222  25.051  13.376
38928W        W98024  25.211  40.830  13.404
38929W        W98025   2.414   5.220   2.180
38930W        W98026  42.969  14.328  14.471
38931W        W98027  32.392  29.008   4.351
38932W        W98028  15.252  27.960  11.880
38933W        W98029  11.268  34.864   2.867
38934W        W98030  43.994   2.816  10.550
38935W        W98031  33.901  20.529  11.949
38936W        W98032  33.908   5.321  11.516
38937W        W98033  39.327  25.015   2.184
38938W        W98034  25.175  37.456   0.960
38939W        W98035  15.151  23.509   4.232
38940W        W98036  14.172  34.401   4.305
38941W        W98037  29.622   6.334  12.371
38942W        W98038  32.462  31.562  12.481
38943W        W98039  28.679  17.210  14.932
38944W        W98040  18.244  18.284   1.224
38945W        W98041  35.385   7.390   4.146
38946W        W98042  34.418  30.425  11.393
38947W        W98043  22.155  37.957   2.869
38948W        W98044  31.552   1.447  10.403
38949W        W98045  11.164  37.006  11.988
38950W        W98046   6.879  37.342  12.002
38951W        W98047  34.412   2.887   4.629
38952W        W98048  20.763  27.496  11.601
38953W        W98049  27.183  11.342  10.896
38954W        W98050  30.911  28.445  14.285
38955W        W98051  18.239   3.349   3.177
38956W        W98052   3.731  27.555  13.935
38957W        W98053  12.262   9.734  10.919
38958W        W98054  19.713  21.677  14.945
38959W        W98055  34.926  26.593   3.681
38960W        W98056   8.401   8.280   4.147
38961W        W98057  12.770  31.628  11.889
38962W        W98058   5.404  32.601  12.070
38963W        W98059   8.847  19.060  14.489
38964W        W98060  43.987  29.926  13.947
38965W        W98061  34.030  30.941  12.043
38966W        W98062  44.859  29.977  13.928
38967W        W98063  22.109   9.843   5.580
38968W        W98064  41.797  22.561   1.313
38969W        W98065  31.001   5.391  11.912
38970W        W98066   4.373  16.582   0.444
38971W        W98067   8.311  21.052   3.336
38972W        W98068   3.721  31.946  12.376
38973W        W98069  10.847   5.200   2.869
38974W        W98070  16.661  20.690   0.445
38975W        W98071  30.545  28.137   9.999
38976W        W98072  33.566  24.057  14.281
38977W        W98073   7.364  30.159   3.204
38978W        W98074   3.247   8.233   3.744
38979W        W98075  27.153  32.432  10.505
38980W        W98076  34.058  30.644   0.887
38981W        W98077  23.029  16.073   0.820
38982W        W98078  36.518  17.616   2.810
38983W        W98079  23.029  35.953  11.993
38984W        W98080  42.802  30.161  14.801
38985W        W98081   3.447  32.408   0.765
38986W        W98082  21.046  37.458   1.233
38987W        W98083   2.797  29.019   1.847
38988W        W98084   0.365  10.147  11.524
38989W        W98085  20.564   2.311   0.888
38990W        W98086  33.461   2.260  12.079
38991W        W98087   5.729  15.716  12.419
38992W        W98088   9.811   5.392   3.733
38993W        W98089  21.568   0.363   0.376
38994W        W98090  25.020  13.604   1.268
38995W        W98091  25.702  38.535   0.801
38996W        W98092  19.738  40.401   2.888
38997W        W98093  17.297  24.545  13.944
38998W        W98094  12.272  44.825  10.427
38999W        W98095  26.626  44.398   3.260
39000W        W98096  23.168  31.906   1.267
39001W        W98097  38.046   1.333   2.178
39002W        W98098   1.470  27.560  14.769
39003W        W98099  28.939  34.591   3.280
39004W        W98100   7.397  27.025  11.115
39005W        W98101  34.930  41.423   3.334
39006W        W98102   7.180  24.655  13.051
39007W        W98103  36.963  14.117  12.435
39008W        W98104   4.224   9.712   2.825
39009W        W98105  18.164  32.469   3.219
39010W        W98106  28.047   0.413  10.449
39011W        W98107  14.679  29.147  13.921
39012W        W98108   1.974  31.646  13.483
39013W        W98109  23.583  24.150   2.773
39014W        W98110  31.534  42.423  13.977
39015W        W98111   6.420  32.594   2.373
39016W        W98112   3.902   4.227  12.378
39017W        W98113   8.197  36.964  13.897
39018W        W98114  24.025  44.816   3.151
39019W        W98115  10.855  37.531  14.958
39020W        W98116  41.015   7.719   1.774
39021W        W98117  34.467  35.962  14.308
39022W        W98118   5.244   9.761  12.511
39023W        W98119  24.997  41.463  14.904
39024W        W98120  42.988  39.059   5.148
39025W        W98121   5.747  41.959  11.944
39026W        W98122  23.569   7.335   3.264
39027W        W98123  17.288  44.344  11.046
39028W        W98124  14.262   7.889  12.985
39029W        W98125  16.582   8.699  10.552
39030W        W98126   0.903   9.223   2.799
39031W        W98127   2.345   9.167   1.234
39032W        W98128  12.235  28.650  11.000
39033W        W98129  28.614  42.785  13.393
39034W        W98130  36.571  35.079   0.313
39035W        W98131  30.104   0.823   4.155
39036W        W98132   5.350  34.988   3.772
39037W        W98133  33.429  36.391   0.783
39038W        W98134  22.684  32.977  10.552
39039W        W98135  16.657  14.672   4.765
39040W        W98136  26.188  41.312  14.514
39041W        W98137  39.425  24.229  13.902
39042W        W98138   0.952  16.219   3.250
39043W        W98139  43.946  34.982  11.569
39044W        W98140   4.828  11.741  11.882
39045W        W98141  10.748  28.655   1.719
39046W        W98142  29.525   1.395  13.485
39047W        W98143  35.438   0.392  13.342
39048W        W98144  42.776  10.168   5.284
39049W        W98145   0.478  11.818  10.967
39050W        W98146  40.356  24.650   0.864
39051W        W98147  37.347   0.354  12.042
39052W        W98148  23.556   8.161   0.395
39053W        W98149  31.992   7.329   3.352
39054W        W98150   7.856   3.250   2.356
39055W        W98151  14.230  10.667   2.854
39056W        W98152   6.825  20.584  10.549
39057W        W98153   9.833  24.702   5.638
39058W        W98154   3.873  16.812  14.827
39059W        W98155  26.606  18.777  11.076
39060W        W98156  41.300  22.045   0.315
39061W        W98157  23.101  42.865   2.679
39062W        W98158   3.289  17.102   0.447
39063W        W98159  24.717   8.825   1.720
39064W        W98160  23.172  38.329  14.338
39065W        W98161  19.199  27.593   4.201
39066W        W98162  25.523  31.955  11.930
39067W        W98163  20.172  28.473  12.976
39068W        W98164  25.675  15.115   2.370
39069W        W98165   8.165   2.392  10.460
39070W        W98166  20.053  22.052   0.398
39071W        W98167  42.434  35.021   1.212
39072W        W98168  34.058  10.377   5.246
39073W        W98169  38.542   6.191   1.762
39074W        W98170  26.068  34.047   4.155
39075W        W98171  27.124  31.933   0.380
39076W        W98172  43.918  13.628  11.987
39077W        W98173  30.543  35.955   3.769
39078W        W98174  23.585  35.394   1.270
39079W        W98175   9.884  26.561  10.130
39080W        W98176   2.461  37.978  11.112
39081W        W98177   0.397  15.103   0.325
39082W        W98178  11.741  44.830   1.403
39083W        W98179   5.782  16.096   2.737
39084W        W98180   1.965  36.454   1.892
39085W        W98181  42.367  43.999  10.441
39086W        W98182  34.570  42.427   0.468
39087W        W98183  25.126   9.374  12.551
39088W        W98184  44.903   1.820  13.403
39089W        W98185  29.937  11.723  13.533
39090W        W98186  27.089  13.679  14.819
39091W        W98187  33.389   3.878   4.307
39092W        W98188  17.587   5.329   2.666
39093W        W98189   8.219  15.720  14.300
39094W        W98190  30.153   2.935  12.474
39095W        W98191   3.909  35.972  12.949
39096W        W98192  25.126  26.094  11.502
39097W        W98193   4.244  15.661   3.209
39098W        W98194  15.784  23.011   1.336
39099W        W98195   7.676  44.363  12.043
39100W        W98196   1.904  39.972   2.892
39101W        W98197  13.235   1.358  11.438
39102W        W98198   3.764  31.644   3.282
39103W        W98199  23.612  41.344  12.041
39104W        W98200  40.966  11.167   3.220
39105W        W98201  36.436  34.599  13.404
39106W        W98202  20.563  14.627   1.799
39107W        W98203  10.766  25.149  11.936
39108W        W98204  12.117  40.532  11.874
39109W        W98205  30.062  28.530   3.686
39110W        W98206  24.614  12.306  13.413
39111W        W98207  30.130  32.935   3.675
39112W        W98208  11.193  10.737   4.677
39113W        W98209  37.909  10.188   1.298
39114W        W98210  14.247   9.267  12.830
39115W        W98211  14.696   1.864   0.393
39116W        W98212  41.536   4.301  13.022
39117W        W98213  15.301  30.088   3.745
39118W        W98214  43.404   3.292   1.435
39119W        W98215   2.380   6.414  11.454
39120W        W98216  44.902  39.531   3.215
39121W        W98217  27.661   5.291  12.366
39122W        W98218  36.911  38.946  14.350
39123W        W98219  34.483  15.201  14.402
39124W        W98220   9.197  30.606  12.362
39125W        W98221  43.484  15.291  12.006
39126W        W98222   7.177  32.625  13.330
39127W        W98223  25.106  40.433  12.444
39128W        W98224   4.706  29.073   0.326
39129W        W98225  20.621   2.344  14.932
39130W        W98226   8.239  30.052   4.147
39131W        W98227   6.819  24.540   1.405
39132W        W98228   8.843  38.916   4.314
39133W        W98229   6.399  29.142  12.012
39134W        W98230  38.434  14.126  12.871
39135W        W98231  19.223  37.575  10.925
39136W        W98232   9.189  42.378  13.913
39137W        W98233  15.645  40.891  12.555
39138W        W98234  19.724  33.080   1.408
39139W        W98235  35.368  14.216   2.184
39140W        W98236  41.365   9.159   4.342
39141W        W98237   7.785   3.344  10.928
39142W        W98238  25.648  39.050   3.185
39143W        W98239  26.088  12.162  13.508
39144W        W98240  33.075   3.927  11.480
39145W        W98241  41.400  28.447  13.836
39146W        W98242   6.300  17.108  12.557
39147W        W98243   2.349  32.451  11.558
39148W        W98244   6.771  11.312  14.286
39149W        W98245  38.841  29.566   3.657
39150W        W98246  25.162  28.571  13.812
39151W        W98247  20.074  41.825  13.972
39152W        W98248  13.162  17.788   0.744
39153W        W98249  14.108  42.287   1.336
39154W        W98250  15.643  37.431   3.646
39155W        W98251  38.530  11.750  14.974
39156W        W98252  19.642  29.940  12.412
39157W        W98253  24.484  25.550  12.943
39158W        W98254  42.833   0.321  12.578
39159W        W98255  19.062  15.122  10.981
39160W        W98256  20.077  23.236  14.371
39161W        W98257  24.103  43.768  14.498
39162W        W98258  16.663  26.072  12.469
39163W        W98259  15.588  33.475   0.361
39164W        W98260   9.714   6.720   2.212
39165W        W98261  39.444  44.865  11.065
39166W        W98262  29.159  26.550   3.322
39167W        W98263   4.310   6.864   0.343
39168W        W98264  35.985  40.895  11.511
39169W        W98265  34.511  39.436   0.420
39170W        W98266   3.251  38.346   3.854
39171W        W98267   2.907  27.691  13.351
39172W        W98268  35.946  16.164  14.409
39173W        W98269  19.241  22.186  12.554
39174W        W98270  17.258  19.610  11.010
39175W        W98271   2.876  44.321   1.318
39176W        W98272  29.090  42.291  11.021
39177W        W98273  10.290  35.519  10.524
39178W        W98274  12.854  20.195   1.921
39179W        W98275  23.511   3.425  11.559
39180W        W98276  22.045  41.474   2.200
39181W        W98277   6.276  43.375  14.324
39182W        W98278   7.328  39.477   0.469
39183W        W98279  11.754  42.361  14.847
39184W        W98280  10.345  35.530  11.377
39185W        W98281   4.415  10.657   4.824
39186W        W98282  31.137  30.095   1.925
39187W        W98283  12.349  27.076  11.520
39188W        W98284   9.256   8.858   2.895
39189W        W98285  23.519  24.718   3.281
39190W        W98286  26.539  36.947  14.829
39191W        W98287  19.271  14.235   4.625
39192W        W98288  42.351  27.086   1.228
39193W        W98289  20.562  17.169   4.122
39194W        W98290  13.162  42.819   2.717
39195W        W98291   3.323  12.720  10.023
39196W        W98292  26.602   1.246   4.240
39197W        W98293  13.349  10.252   2.856
39198W        W98294   1.435   5.341  13.339
39199W        W98295   8.844  14.118  12.500
39200W        W98296   7.229  11.296   1.842
39201W        W98297  31.089  38.561   2.381
39202W        W98298   3.777  36.392  12.499
39203W        W98299  11.778  18.569  11.981
39204W        W98300   3.931  38.401   3.284
39205W        W98301  19.218  44.844  13.879
39206W        W98302   2.456  43.282  12.907
39207W        W98303  17.610  23.081  12.072
39208W        W98304  20.044  37.938  12.010
39209W        W98305   1.453  22.696  13.006
39210W        W98306  22.074  34.118  13.996
39211W        W98307  13.167  28.665  11.916
39212W        W98308  41.925  35.886   1.714
39213W        W98309  21.068  17.181   0.454
39214W        W98310   4.941   5.688   3.280
39215W        W98311  42.820  31.500   0.731
39216W        W98312  26.105  38.855   2.383
39217W        W98313  22.225   4.366   1.754
39218W        W98314  29.153  24.135   4.129
39219W        W98315  33.944  44.461  11.005
39220W        W98316  42.516  36.974   1.248
39221W        W98317  26.541  37.061   3.706
39222W        W98318  42.855  27.092  11.483
39223W        W98319  19.683  10.264   3.257
39224W        W98320  10.224  33.470   2.897
39225W        W98321  17.670  32.925   1.913
39226W        W98322  44.953   7.377  13.052
39227W        W98323   4.777  16.098  11.452
39228W        W98324   7.829  17.098  13.539
39229W        W98325  27.971  33.960   3.853
39230W        W98326  21.117   9.240  14.432
39231W        W98327  14.733  16.196  14.818
39232W        W98328  17.787  21.026  11.951
39233W        W98329  29.174  15.268   0.478
39234W        W98330   7.845   0.322   4.698
39235W        W98331  19.188  19.220   3.640
39236W        W98332   5.861  23.150   0.346
39237W        W98333  34.028  27.601   4.181
39238W        W98334  41.392  40.494  14.398
39239W        W98335  11.152  28.554   0.429
39240W        W98336  27.502  12.725  13.488
39241W        W98337   6.721   0.369  13.523
39242W        W98338  16.253   6.776  10.935
39243W        W98339  36.430  25.073   3.293
39244W        W98340  25.032  16.779  11.003
39245W        W98341   3.422   6.884  14.005
39246W        W98342  29.145  38.567  11.868
39247W        W98343  10.796  27.197  12.062
39248W        W98344  30.011   8.864  14.468
39249W        W98345  19.127  31.117  10.889
39250W        W98346  32.567   9.667   3.730
39251W        W98347  20.236  29.434   0.790
39252W        W98348  34.048  15.776  13.830
39253W        W98349  24.656  20.554  14.473
39254W        W98350   0.413  20.707  10.893
39255W        W98351  42.343  11.833  14.957
39256W        W98352  36.432   3.364  10.553
39257W        W98353  44.261   0.784  12.434
39258W        W98354   1.394  29.918  14.966
39259W        W98355  39.476  20.199  14.924
39260W        W98356   4.221  28.502   5.240
39261W        W98357  29.598  22.544  10.959
39262W        W98358  11.625  30.917   3.258
39263W        W98359  38.917  42.862  10.986
39264W        W98360   8.380  40.348   1.353
39265W        W98361  14.617  41.824   2.195
39266W        W98362   4.412  41.323   4.774
39267W        W98363  43.020  43.819   4.819
39268W        W98364  26.121   1.857  10.542
39269W        W98365  30.644  40.519  14.884
39270W        W98366  44.292  41.412   2.284
39271W        W98367  21.553  26.107  12.555
39272W        W98368  27.035   2.417   2.883
39273W        W98369  25.169   7.743  13.837
39274W        W98370  35.904  22.175   4.226
39275W        W98371  18.609  27.630   1.233
39276W        W98372   2.386  16.678   0.929
39277W        W98373  33.385  14.802   5.278
39278W        W98374  38.911  39.487  14.831
39279W        W98375  31.419  43.409   1.799
39280W        W98376  13.774   3.850  11.459
39281W        W98377   1.268   2.829   3.814
39282W        W98378  41.493  19.257   3.231
39283W        W98379  39.358  30.645  10.542
39284W        W98380  31.572  16.166   4.641
39285W        W98381  39.508  41.932  14.420
39286W        W98382   9.839  30.950  11.431
39287W        W98383  31.084  30.567   0.458
39288W        W98384   8.354  38.859  11.517
39289W        W98385   3.351  30.566   2.402
39290W        W98386  31.557   1.893   2.298
39291W        W98387  12.665   8.889   4.783
39292W        W98388  38.381  33.402  14.333
39293W        W98389  43.851   7.743   2.378
39294W        W98390  33.028  22.251   1.888
39295W        W98391  44.438  41.793   0.771
39296W        W98392  12.257  23.604   1.916
39297W        W98393  25.556  39.460   3.745
39298W        W98394  41.020   6.298   4.140
39299W        W98395  39.963  19.177   0.301
39300W        W98396  33.411  31.921  11.006
39301W        W98397   7.800   0.302   3.789
39302W        W98398  27.486  36.414  12.942
39303W        W98399  14.276  16.697   3.337
39304W        W98400  21.186  39.357   1.214
39305W        W98401  32.477  22.635   4.246
39306W        W98402  42.840  13.707   3.327
39307W        W98403  17.561  20.224  13.847
39308W        W98404  23.539  25.593  10.554
39309W        W98405  19.738  21.159  10.565
39310W        W98406  12.200   3.397  12.917
39311W        W98407  16.126  35.416  12.344
39312W        W98408  18.675  27.576   4.789
39313W        W98409  16.209  42.012  12.970
39314W        W98410  26.169  16.630   3.631
39315W        W98411  33.055   1.818  14.333
39316W        W98412  12.838  40.895   2.388
39317W        W98413   6.692   9.333  10.506
39318W        W98414  20.717  24.693  14.445
39319W        W98415  24.712  10.289  14.293
39320W        W98416  13.341  40.490  12.389
39321W        W98417  18.075  34.931   0.939
39322W        W98418   6.399  28.041   0.438
39323W        W98419  26.461  40.931   3.799
39324W        W98420  34.996  13.317  14.797
39325W        W98421  30.507  14.730  12.832
39326W        W98422  11.135   9.837  11.856
39327W        W98423  29.164   0.400  13.866
39328W        W98424  40.871  10.870   5.162
39329W        W98425  28.565   8.235  10.636
39330W        W98426  14.303  23.542   2.186
39331W        W98427  20.699  33.620   3.297
39332W        W98428  30.965  26.611  14.883
39333W        W98429   3.423   5.850  14.985
39334W        W98430  35.500  18.609  13.436
39335W        W98431  36.858  13.227   1.362
39336W        W98432  43.283   3.797   2.807
39337W        W98433  39.396  34.471  12.384
39338W        W98434   0.784  10.671   1.329
39339W        W98435  37.930  40.038  13.535
39340W        W98436   8.230  12.271   3.776
39341W        W98437   2.240  23.713  11.042
39342W        W98438  44.985  38.352  11.377
39343W        W98439  25.526  20.593   9.940
39344W        W98440  28.995  28.658  11.494
39345W        W98441  18.727  14.677  14.382
39346W        W98442  10.177  35.416   3.759
39347W        W98443  42.864  42.858  14.805
39348W        W98444  25.205  21.038  12.034
39349W        W98445   0.322   5.399   2.786
39350W        W98446  38.520  32.977  10.908
39351W        W98447  33.494   2.743   3.236
39352W        W98448  13.790  30.534   1.274
39353W        W98449  32.910  36.087   0.770
39354W        W98450  33.957  34.116   4.301
39355W        W98451  14.737  24.594   1.761
39356W        W98452  38.046  19.636  12.489
39357W        W98453  37.412  23.559   2.370
39358W        W98454  39.469  13.812  11.110
39359W        W98455   5.877  23.731   5.317
39360W        W98456  40.471  18.265   2.178
39361W        W98457  11.784  22.091   2.772
39362W        W98458  17.200  30.524   0.957
39363W        W98459  13.212   5.408  13.862
39364W        W98460  29.922  18.676   1.855
39365W        W98461  36.552  15.083  10.533
39366W        W98462  20.529   5.752  10.600
39367W        W98463  44.351  37.866  13.949
39368W        W98464  14.698   2.345   4.768
39369W        W98465  13.114  34.463  10.049
39370W        W98466  35.006  31.578  11.092
39371W        W98467   6.918  34.995   2.857
39372W        W98468  17.720  11.724   2.274
39373W        W98469  42.443  32.488   0.394
39374W        W98470   4.740  14.763  13.496
39375W        W98471  14.813  12.289   2.256
39376W        W98472  15.762  19.248   3.845
39377W        W98473  20.110  16.618   2.901
39378W        W98474  44.355  12.285  11.587
39379W        W98475  34.392  44.281   2.235
39380W        W98476  42.787  41.012   2.367
39381W        W98477  28.542  33.939  11.124
39382W        W98478  44.004   3.912  11.420
39383W        W98479  25.680  37.866  13.389
39384W        W98480  15.737  38.380   3.761
39385W        W98481  15.254  26.510  11.943
39386W        W98482   4.350  13.669  12.475
39387W        W98483  34.587   3.844  13.342
39388W        W98484   7.685  30.105   4.257
39389W        W98485   6.218  34.010   4.331
39390W        W98486   5.785  23.649   9.513
39391W        W98487  33.598  41.430  12.557
39392W        W98488  25.533   5.688  10.095
39393W        W98489  20.109   5.718  14.476
39394W        W98490  40.990  41.360  13.468
39395W        W98491  27.072  28.552   1.879
39396W        W98492  37.083   8.878   1.898
39397W        W98493  34.872  40.813   4.607
39398W        W98494  40.874  14.696  12.042
39399W        W98495  40.053  24.594  10.514
39400W        W98496  41.528  25.192  11.895
39401W        W98497  28.155   3.400  11.611
39402W        W98498  27.537  11.202   4.309
39403W        W98499  17.278  25.032  14.501
39404W        W98500   2.805  19.237  14.960
39405W        W98501  41.319  37.082  10.570
39406W        W98502  17.241  29.000   4.296
39407W        W98503  11.645  13.651   1.293
39408W        W98504  31.437  30.091  13.466
39409W        W98505  38.426  41.330  12.836
39410W        W98506  27.026   9.811  14.913
39411W        W98507   3.937   1.401  10.582
39412W        W98508  25.646   7.808   4.639
39413W        W98509  26.654   8.704   1.746
39414W        W98510  32.138  32.502  13.813
39415W        W98511  17.738  32.632  12.860
39416W        W98512  32.400  44.812   2.414
39417W        W98513  41.931   9.691  14.858
39418W        W98514   8.220   6.274  14.874
39419W        W98515  17.722  17.566  14.902
39420W        W98516  10.269  15.108   9.536
39421W        W98517  39.941  28.551  11.084
39422W        W98518  42.483  16.205   2.825
39423W        W98519  30.095   4.325  14.800
39424W        W98520  23.124  29.575  14.919
39425W        W98521  33.533  43.972  11.406
39426W        W98522  25.178  27.046  12.353
39427W        W98523  24.196  15.237   0.342
39428W        W98524  42.015  17.783   3.207
39429W        W98525  10.830  37.528  12.059
39430W        W98526  42.800  28.460   4.805
39431W        W98527  41.942  13.842   2.224
39432W        W98528  16.775  38.917   2.739
39433W        W98529  14.745  21.174  14.795
39434W        W98530  34.885  30.017   1.444
39435W        W98531  26.067  31.596   3.734
39436W        W98532  27.089  13.669   3.169
39437W        W98533  39.060   3.938   1.421
39438W        W98534  25.702  35.450   1.892
39439W        W98535   2.923  25.102  14.845
39440W        W98536  14.742   4.284   2.672
39441W        W98537  14.212   6.327  10.951
39442W        W98538  36.429  28.450   4.142
39443W        W98539  13.774  25.121   1.399
39444W        W98540  34.530  42.879   2.195
39445W        W98541  31.982   9.191  12.476
39446W        W98542  38.072   2.332   1.758
39447W        W98543  40.534  14.130  10.023
39448W        W98544   3.375  25.993  12.382
39449W        W98545  35.416  27.018  12.824
39450W        W98546  17.751  25.154   3.709
39451W        W98547   2.922  27.951   3.681
39452W        W98548   3.253  29.467  11.020
39453W        W98549  41.023  10.374  12.855
39454W        W98550   6.228   2.366  13.020
39455W        W98551  18.230  21.658  14.312
39456W        W98552  24.600  15.250   2.293
39457W        W98553  12.687  36.971  12.372
39458W        W98554   8.383   5.193   2.847
39459W        W98555  14.742  13.721  10.477
39460W        W98556  11.241  11.236  11.414
39461W        W98557   7.183  21.073  12.379
39462W        W98558  17.159   1.951   5.248
39463W        W98559  23.496  23.557  14.833
39464W        W98560   7.234  26.466   0.258
39465W        W98561  29.631   9.289  12.426
39466W        W98562  38.905  15.314  11.037
39467W        W98563   8.686  20.274   1.846
39468W        W98564  12.232   1.934   3.802
39469W        W98565   1.430  16.604   1.347
39470W        W98566  25.522  17.154   3.349
39471W        W98567  13.335  23.544  11.069
39472W        W98568  16.764  24.008   0.935
39473W        W98569  19.737  20.731   3.302
39474W        W98570   0.980  43.362  13.517
39475W        W98571  37.463   4.807  12.879
39476W        W98572  12.684  23.991  11.003
39477W        W98573  12.654   4.854   0.771
39478W        W98574  41.855   9.336  13.311
39479W        W98575  29.006  22.575  10.548
39480W        W98576   2.414  34.081   1.311
39481W        W98577  23.514   6.257   4.665
39482W        W98578  13.665  24.206  10.994
39483W        W98579  25.578  18.141  12.048
39484W        W98580   3.877   3.450  11.891
39485W        W98581  38.383  35.584  12.008
39486W        W98582  13.317  25.652   4.319
39487W        W98583  44.498   2.801   3.371
39488W        W98584  12.656   1.462  12.373
39489W        W98585  23.490  23.524  14.485
39490W        W98586  16.746  40.357  12.974
39491W        W98587  34.569  31.060  10.553
39492W        W98588   9.188  21.565  13.842
39493W        W98589  30.081  41.845  14.922
39494W        W98590  23.216  11.144  12.071
39495W        W98591   9.837  33.127  14.495
39496W        W98592  39.987   4.872  13.865
39497W        W98593   6.265   9.732  12.907
39498W        W98594  22.049  24.188   2.775
39499W        W98595  42.430   8.216  11.927
39500W        W98596  42.524  34.981  13.822
39501W        W98597  42.006  22.245  14.862
39502W        W98598  21.722  17.567  13.022
39503W        W98599   6.790  12.253  14.920
39504W        W98600  19.570  17.268  12.051
39505W        W98601  28.491  20.271   4.118
39506W        W98602   7.294  15.222   2.189
39507W        W98603  29.113  33.888   3.711
39508W        W98604  30.582  16.632   4.296
39509W        W98605  23.045   5.356   0.382
39510W        W98606  44.832  18.219   0.441
39511W        W98607  28.150  16.699  12.365
39512W        W98608  38.820  16.092  14.333
39513W        W98609  10.149  28.495   4.197
39514W        W98610   5.931  16.773  11.552
39515W        W98611  43.852  20.642  13.861
39516W        W98612  38.973  12.803   4.664
39517W        W98613   8.275  39.475   3.765
39518W        W98614  17.652   6.412   1.327
39519W        W98615  31.053   8.222   3.234
39520W        W98616  32.989  12.725  10.127
39521W        W98617  20.244  31.644   0.875
39522W        W98618   2.282  18.225   0.420
39523W        W98619  34.573   1.365  12.036
39524W        W98620  30.520   0.795  14.831
39525W        W98621  31.144  38.904  10.566
39526W        W98622   1.472  43.309  13.892
39527W        W98623   1.733  14.125  13.017
39528W        W98624  13.738  22.690   1.233
39529W        W98625   3.292  42.487  14.851
39530W        W98626  27.523   4.938  10.412
39531W        W98627  18.101  22.624   2.846
39532W        W98628  11.210  30.114   9.643
39533W        W98629  15.267   1.828  13.955
39534W        W98630   6.870  34.923  11.394
39535W        W98631   2.392  41.987  14.461
39536W        W98632   0.844  21.081   0.763
39537W        W98633   3.756  17.272   1.411
39538W        W98634  30.970  38.394   3.865
39539W        W98635   0.927  32.926  10.928
39540W        W98636  22.013  41.457   4.648
39541W        W98637  25.503   8.892  10.587
39542W        W98638  12.819  43.457   1.777
39543W        W98639  19.182  20.159  10.477
39544W        W98640  32.936   7.827   1.429
39545W        W98641  26.509   7.312   0.429
39546W        W98642   7.731  34.956  10.985
39547W        W98643  43.959  18.647   2.755
39548W        W98644  43.767   1.316   3.759
39549W        W98645  18.653  18.143  10.084
39550W        W98646  39.934  37.033   3.328
39551W        W98647  32.047  24.230  14.002
39552W        W98648   6.890  41.881  13.962
39553W        W98649  12.671  41.953   1.240
39554W        W98650  21.084  20.180  13.969
39555W        W98651  36.488  38.895   4.330
39556W        W98652  10.861  13.266  13.360
39557W        W98653  27.514   1.877   3.262
39558W        W98654  16.751  13.632   0.410
39559W        W98655  18.754  42.467   4.663
39560W        W98656  35.020  27.083  12.417
39561W        W98657  17.100  17.581  11.928
39562W        W98658   5.320  28.539  11.877
39563W        W98659  14.762   1.434  14.877
39564W        W98660  41.863   4.373  11.869
39565W        W98661   3.731  24.497   2.276
39566W        W98662   2.873  39.975   0.329
39567W        W98663  17.585  22.588   1.399
39568W        W98664  21.127   0.975  13.345
39569W        W98665  17.306  18.604   3.298
39570W        W98666   7.686  25.969   0.914
39571W        W98667  43.311  34.378  14.298
39572W        W98668  24.718  27.566  10.436
39573W        W98669  27.943  29.098   1.765
39574W        W98670  40.803   3.848   3.761
39575W        W98671   7.839  15.160  11.478
39576W        W98672  22.625   5.767   4.209
39577W        W98673  21.666   0.333   3.366
39578W        W98674  27.654  13.817   0.781
39579W        W98675  21.218  18.166  11.464
39580W        W98676  36.347  43.868   3.827
39581W        W98677  31.001  40.922   2.372
39582W        W98678   7.728  39.422  11.414
39583W        W98679   0.769  21.569  11.989
39584W        W98680  39.446  28.073  12.924
39585W        W98681  32.467  14.804   0.879
39586W        W98682  35.963   0.269  14.792
39587W        W98683  21.597  30.118   4.681
39588W        W98684  38.843   1.343  10.475
39589W        W98685  36.372  28.088  12.549
39590W        W98686  22.078  30.948   2.773
39591W        W98687   8.334  44.403   0.739
39592W        W98688  37.989  10.256   2.308
39593W        W98689  29.626  20.692  10.413
39594W        W98690  42.802  35.880   3.685
39595W        W98691  43.368  21.753  13.357
39596W        W98692   7.278   4.769   3.739
39597W        W98693   4.353  26.468  14.390
39598W        W98694  12.161  16.166  14.845
39599W        W98695  39.847  40.026  10.942
39600W        W98696  16.689  41.796   2.798
39601W        W98697  41.968  22.078  11.894
39602W        W98698  41.330  16.797  12.444
39603W        W98699  34.485  38.877  12.516
39604W        W98700  36.043  30.518  12.448
39605W        W98701  42.953  17.266   3.332
39606W        W98702  26.062  11.170   1.726
39607W        W98703   1.340  26.965   3.763
39608W        W98704  20.756  41.934   4.795
39609W        W98705   3.885  19.082   1.254
39610W        W98706  26.529   1.241   3.836
39611W        W98707   4.756  43.961  14.865
39612W        W98708  14.150  29.502   2.671
39613W        W98709  38.930   5.221  12.506
39614W        W98710  25.485  36.024   0.937
39615W        W98711   4.837  19.614  12.948
39616W        W98712  21.122  36.983  14.324
39617W        W98713  39.369  28.662  13.435
39618W        W98714  18.729  30.522  12.856
39619W        W98715  44.422  39.530  11.544
39620W        W98716  21.064  40.856   3.738
39621W        W98717  34.068  41.821   1.746
39622W        W98718  20.272  14.314  11.579
39623W        W98719  16.615   7.371  12.558
39624W        W98720  29.600  21.071   9.991
39625W        W98721  36.360  40.846  11.547
39626W        W98722  38.546  14.113   4.151
39627W        W98723  38.065  13.781   1.384
39628W        W98724  40.012   2.878   0.924
39629W        W98725  33.473   2.410   2.719
39630W        W98726   3.798  27.573  11.927
39631W        W98727  25.181  40.962  11.559
39632W        W98728   9.210   9.302   3.283
39633W        W98729  17.789   0.405  13.834
39634W        W98730  34.449  11.138  13.444
39635W        W98731   6.184  27.128   4.154
39636W        W98732  28.946  13.122  11.899
39637W        W98733  27.046  20.694  11.503
39638W        W98734  17.593  20.623   4.230
39639W        W98735  28.527  41.853   3.674
39640W        W98736  40.005  17.284  14.941
39641W        W98737  43.965  29.130   0.898
39642W        W98738   3.437  11.160  10.509
39643W        W98739  27.130   6.237   0.331
39644W        W98740  14.149  33.875  14.007
39645W        W98741   0.747  37.846  13.500
39646W        W98742  35.496  20.214   4.316
39647W        W98743  13.775   7.294   2.810
39648W        W98744   1.973  31.045   3.315
39649W        W98745  32.406  25.123   1.441
39650W        W98746  13.146  16.735  12.474
39651W        W98747   0.942   1.856  13.035
39652W        W98748  34.974  15.784   1.237
39653W        W98749   2.753  36.491   4.138
39654W        W98750  32.614   5.798  12.537
39655W        W98751  32.081   4.316   2.419
39656W        W98752  37.910  22.518  11.390
39657W        W98753  36.532  37.996   4.253
39658W        W98754  44.408  33.010   1.287
39659W        W98755  31.528  34.602  10.959
39660W        W98756  26.473  33.109   0.355
39661W        W98757  32.928  34.902  14.460
39662W        W98758  38.476  12.798  13.542
39663W        W98759   0.404   5.926   0.285
39664W        W98760   1.396  40.018   2.860
39665W        W98761  24.025  25.965  12.528
39666W        W98762  14.097  30.530   3.338
39667W        W98763  38.328  37.466   1.705
39668W        W98764  30.055  43.840   3.745
39669W        W98765   1.877   5.899  11.106
39670W        W98766  17.268  23.603   4.324
39671W        W98767   6.830  10.744   2.189
39672W        W98768  36.588  26.104  10.904
39673W        W98769  18.167  28.597   4.233
39674W        W98770  14.734  21.017  12.344
39675W        W98771  23.610  14.621   4.662
39676W        W98772  35.529  38.939   3.810
39677W        W98773  33.123  29.437   0.893
39678W        W98774  33.907  27.086  12.372
39679W        W98775  30.053  19.095  12.550
39680W        W98776  38.853   4.927   3.292
39681W        W98777  27.098  42.376   3.786
39682W        W98778  32.588  36.909  11.000
39683W        W98779  44.293  29.970   2.673
39684W        W98780  13.287   2.843  13.801
39685W        W98781  36.474  32.585   2.875
39686W        W98782  31.039  13.282  12.406
39687W        W98783  31.898  29.499  14.889
39688W        W98784  36.503  30.450  11.022
39689W        W98785  36.081  24.076  14.959
39690W        W98786  39.400  34.516  14.467
39691W        W98787  41.004  21.658   2.749
39692W        W98788  26.570  14.329  11.081
39693W        W98789  28.542  43.827   3.220
39694W        W98790   8.377   4.381   1.444
39695W        W98791  39.484  38.962   0.914
39696W        W98792  14.667  23.104   4.342
39697W        W98793  13.184   9.381   3.195
39698W        W98794  35.440  43.792  12.058
39699W        W98795  37.445   3.848  10.960
39700W        W98796   6.867  41.790  14.945
39701W        W98797  13.637  16.634   2.839
39702W        W98798  42.832  16.567   4.790
39703W        W98799   5.204  26.083  14.860
39704W        W98800  19.719   9.854  14.287
39705W        W98801  36.373  27.589  11.461
39706W        W98802  23.234  36.495  11.529
39707W        W98803   8.797   1.330  14.295
39708W        W98804  29.104  35.380   1.447
39709W        W98805  17.756  39.938  14.337
39710W        W98806  14.106  35.881   5.600
39711W        W98807  24.525  39.426   4.650
39712W        W98808  33.461  31.152  12.958
39713W        W98809  23.503  30.659   3.343
39714W        W98810   1.910  20.163   1.445
39715W        W98811  27.995  40.856   3.740
39716W        W98812   4.223  35.365  11.922
39717W        W98813  36.374  10.346   2.267
39718W        W98814  11.694  11.211  12.421
39719W        W98815  21.199  31.644  13.522
39720W        W98816  19.247  40.010  11.529
39721W        W98817  32.417  20.571  11.068
39722W        W98818   4.713  41.845   2.900
39723W        W98819  28.571  23.121   2.663
39724W        W98820   0.380  42.380   2.267
39725W        W98821  19.705   8.199  11.451
39726W        W98822  25.496  41.534   5.083
39727W        W98823  20.213  41.877   0.820
39728W        W98824   3.835  20.744  13.942
39729W        W98825  12.351  35.434   1.885
39730W        W98826  43.925   1.255   2.723
39731W        W98827  40.966  32.400  14.909
39732W        W98828  26.959  44.320   3.175
39733W        W98829  38.032  13.228  12.854
39734W        W98830   2.290  27.098   2.412
39735W        W98831  11.150  38.531   0.953
39736W        W98832  18.741  24.131  12.522
39737W        W98833  27.564  16.800  10.954
39738W        W98834   8.833  19.229   3.839
39739W        W98835  18.659  43.905   0.915
39740W        W98836  39.970  41.038  14.457
39741W        W98837  12.128   2.743   4.745
39742W        W98838  38.470  20.578  14.286
39743W        W98839  35.910  42.343  14.309
39744W        W98840  31.509  29.063   1.391
39745W        W98841  25.684   6.867  13.846
39746W        W98842  40.460  38.448   3.721
39747W        W98843  15.211   6.238   2.854
39748W        W98844  40.539  37.914  11.072
39749W        W98845  18.287  32.568  11.012
39750W        W98846  21.173  10.175  11.398
39751W        W98847   9.210  15.204  11.022
39752W        W98848  23.060  22.181  13.064
39753W        W98849   8.812  25.632  14.998
39754W        W98850  24.532  35.026   0.444
39755W        W98851  32.023  20.266  14.795
39756W        W98852  29.482   7.772   4.838
39757W        W98853  13.303  27.964   1.826
39758W        W98854  18.062   7.330   1.739
39759W        W98855  23.529  37.903  13.511
39760W        W98856   7.229   9.789   4.821
39761W        W98857  41.020  35.478  11.411
39762W        W98858  40.328  11.131  11.552
39763W        W98859  44.809  23.072  14.012
39764W        W98860  15.142   2.309   4.828
39765W        W98861  40.361  33.014  14.871
39766W        W98862  21.068  17.677   2.415
39767W        W98863   5.709  29.966  12.975
39768W        W98864  13.310  34.570   0.475
39769W        W98865   6.764  14.112  12.440
39770W        W98866   9.849  43.291   3.172
39771W        W98867  36.370  37.974   2.855
39772W        W98868   0.857  13.766  11.000
39773W        W98869   6.839   5.439   3.673
39774W        W98870  11.688  15.655   1.887
39775W        W98871  11.350  30.985   3.859
39776W        W98872  21.648   0.776  14.510
39777W        W98873  28.176  32.565  13.047
39778W        W98874  10.740  42.492   2.678
39779W        W98875   7.369  36.919  12.851
39780W        W98876  10.707  11.183  11.054
39781W        W98877  26.031  21.698   5.116
39782W        W98878  40.466  36.903   3.752
39783W        W98879  13.229  16.233   0.400
39784W        W98880  10.186  16.577   2.880
39785W        W98881  27.524  11.817   3.663
39786W        W98882   6.902  37.912   4.788
39787W        W98883  38.843  27.138   4.810
39788W        W98884  12.271  12.610  11.446
39789W        W98885  33.946  21.208   2.361
39790W        W98886  37.573  21.678  14.292
39791W        W98887  39.448  26.190   0.891
39792W        W98888  26.607   3.855  10.943
39793W        W98889  27.196   2.348   0.437
39794W        W98890   2.343  33.562  13.850
39795W        W98891  11.150   2.841   3.853
39796W        W98892  26.478   5.219  13.015
39797W        W98893   4.759  24.560   0.325
39798W        W98894  20.708  17.256   0.757
39799W        W98895  12.678   9.341  14.404
39800W        W98896   6.861  32.128   3.338
39801W        W98897  19.775  26.675   4.638
39802W        W98898  12.263  34.412  10.526
39803W        W98899  34.029  32.889   4.351
39804W        W98900  31.959  36.388   4.313
39805W        W98901  34.009  42.849  14.972
39806W        W98902  31.461   3.452  13.503
39807W        W98903  18.546  26.098   2.705
39808W        W98904  31.052  12.754  11.479
39809W        W98905  28.941  30.591   4.159
39810W        W98906  12.360  40.910   1.735
39811W        W98907  24.203  27.010  14.880
39812W        W98908   9.344  37.454  14.829
39813W        W98909  31.943  16.712   0.871
39814W        W98910  43.390  13.701  10.982
39815W        W98911  20.116  32.434   4.238
39816W        W98912  44.859  12.225   4.160
39817W        W98913  30.971  24.108  13.843
39818W        W98914   1.465   9.177  10.504
39819W        W98915  28.473  17.559   4.741
39820W        W98916  44.790   4.890  14.391
39821W        W98917  24.703  23.500  10.624
39822W        W98918  37.355  27.111  11.413
39823W        W98919  34.478  12.816   4.637
39824W        W98920  22.729  41.464   4.772
39825W        W98921   9.263  21.062   3.641
39826W        W98922  34.001  14.821  10.004
39827W        W98923  21.221  40.990   1.697
39828W        W98924  26.183  14.834  13.815
39829W        W98925  39.969   5.805  14.442
39830W        W98926  42.360  26.473   4.200
39831W        W98927  15.203  37.518  11.601
39832W        W98928  18.552  23.077  12.370
39833W        W98929  18.620   1.447   3.162
39834W        W98930   8.163   3.379  14.956
39835W        W98931   9.288  36.094   4.156
39836W        W98932  35.474  20.673  11.506
39837W        W98933  44.348  11.324   1.253
39838W        W98934   7.307   0.282  12.062
39839W        W98935  22.741  22.569   1.705
39840W        W98936  10.879  27.675   3.644
39841W        W98937   2.959   1.414  13.522
39842W        W98938  30.481   3.913   2.889
39843W        W98939  16.719  42.362  13.411
39844W        W98940  27.678   9.753  13.844
39845W        W98941  28.504  44.431  12.494
39846W        W98942   8.693  42.912   9.972
39847W        W98943   1.962   0.860   3.323
39848W        W98944  13.240  35.979   2.718
39849W        W98945  20.657  35.548  14.439
39850W        W98946   2.760  18.201  11.380
39851W        W98947   9.861  42.478   3.163
39852W        W98948  38.451  10.856  12.077
39853W        W98949   6.262  21.614   2.316
39854W        W98950  27.024  26.135  12.871
39855W        W98951  33.125  38.946   1.702
39856W        W98952  21.730   2.417   1.289
39857W        W98953  11.334  33.611  11.920
39858W        W98954  29.962  10.283   4.166
39859W        W98955  30.631  21.620   2.303
39860W        W98956  32.024  12.251   4.118
39861W        W98957  25.502   2.293  11.084
39862W        W98958  32.049  42.874  10.539
39863W        W98959  20.763  41.925   1.791
39864W        W98960  24.702   5.781  14.499
39865W        W98961  10.215  25.080   0.351
39866W        W98962   7.761  14.785  13.433
39867W        W98963   6.390  40.536   4.329
39868W        W98964   4.322   9.158  13.431
39869W        W98965  38.478  28.613  13.956
39870W        W98966  26.595  33.975  11.858
39871W        W98967  26.641  38.075   5.800
39872W        W98968   2.725  33.081  12.064
39873W        W98969  10.843  42.003   4.204
39874W        W98970  22.027  23.089  13.307
39875W        W98971  33.476  10.728  14.002
39876W        W98972  28.100   2.962  12.907
39877W        W98973   9.326  24.572   9.529
39878W        W98974  30.434  39.492   3.285
39879W        W98975   7.910  42.505   0.916
39880W        W98976  15.327  10.752  14.484
39881W        W98977  32.891  30.580  11.525
39882W        W98978   5.242  36.454   4.684
39883W        W98979  42.436  18.209  11.099
39884W        W98980  38.374  40.047  11.053
39885W        W98981  20.221   6.922  13.307
39886W        W98982  31.969  44.349  13.880
39887W        W98983   6.777  14.659  10.894
39888W        W98984  17.672  23.593   4.195
39889W        W98985  34.945  22.618  13.534
39890W        W98986  29.114   0.383  14.319
39891W        W98987  40.310  11.740   0.466
39892W        W98988  27.048  37.931   4.282
39893W        W98989  36.413   8.240  11.956
39894W        W98990  34.096  10.780   4.760
39895W        W98991   8.314  42.873   3.781
39896W        W98992  39.004  39.064  10.435
39897W        W98993  20.533  32.552  14.426
39898W        W98994  35.945  42.781   3.662
39899W        W98995  32.934   2.369  14.000
39900W        W98996  27.540  12.216  13.548
39901W        W98997  19.655  24.696  12.917
39902W        W98998  42.906   0.271  10.122
39903W        W98999  34.420  10.186   2.677
39904W        W99000  38.400   5.816  11.008
39905W        W99001  17.606  12.118  10.511
39906W        W99002   8.665  13.245  14.972
39907W        W99003   2.328   0.770  11.111
39908W        W99004  17.298  26.584  11.922
39909W        W99005   5.850  10.325   4.276
39910W        W99006  16.155  36.024   3.214
39911W        W99007  31.971   2.312  10.951
39912W        W99008  32.076  41.334  14.828
39913W        W99009  44.268  17.241   1.259
39914W        W99010  19.686  26.614   3.232
39915W        W99011  42.490  12.798   4.730
39916W        W99012  24.669   4.282  10.934
39917W        W99013  16.686   2.946  14.799
39918W        W99014  24.690  10.821  10.556
39919W        W99015  34.899  29.156  14.988
39920W        W99016  27.162  33.958   9.574
39921W        W99017  36.050   0.419   1.439
39922W        W99018  25.094   1.739   0.304
39923W        W99019  43.928  25.024  13.940
39924W        W99020  44.993   7.790   0.941
39925W        W99021  10.232  14.333  10.959
39926W        W99022  25.583   0.953  11.890
39927W        W99023  42.370  41.447   0.453
39928W        W99024  42.429  22.515   4.688
39929W        W99025  33.120   2.328  10.958
39930W        W99026   9.672  32.486   2.685
39931W        W99027  25.020   3.350   4.760
39932W        W99028   5.768   6.292   2.255
39933W        W99029   1.903  23.578  14.285
39934W        W99030  18.788  22.156   4.300
39935W        W99031  38.900  34.875  11.861
39936W        W99032  30.036  38.489  11.109
39937W        W99033  33.886  42.356  11.553
39938W        W99034  12.768   2.762  14.855
39939W        W99035   1.960   7.705  10.530
39940W        W99036  29.119  35.098  14.964
39941W        W99037  20.748  41.398   4.837
39942W        W99038  40.481  32.894  12.438
39943W        W99039   9.166  10.189   2.780
39944W        W99040  36.420  42.898   2.680
39945W        W99041   5.709  24.026   0.822
39946W        W99042  32.435   3.371  11.043
39947W        W99043  26.006  15.703  11.566
39948W        W99044   8.285  15.727   3.273
39949W        W99045  24.163  14.673   3.195
39950W        W99046  34.051  35.097   0.431
39951W        W99047   1.402  39.822  11.610
39952W        W99048  11.316  20.097  13.311
39953W        W99049  19.077  23.726  13.460
39954W        W99050  12.754   0.936  11.026
39955W        W99051   0.295  31.454   2.270
39956W        W99052  11.324  32.467   3.754
39957W        W99053  33.412  30.442  14.394
39958W        W99054  27.630  24.058  11.395
39959W        W99055  11.626  34.020  11.415
39960W        W99056  31.582  21.651   1.436
39961W        W99057  13.312   6.400  11.411
39962W        W99058   2.900  12.857   2.280
39963W        W99059  39.363  42.032  13.796
39964W        W99060  16.272  34.450  13.874
39965W        W99061  31.468   6.737   0.888
39966W        W99062   5.370  11.697  12.516
39967W        W99063  34.882  19.251   4.611
39968W        W99064  22.999  33.991  13.841
39969W        W99065  35.537  24.581   9.508
39970W        W99066   1.868   5.738   0.729
39971W        W99067   1.848  17.737   0.962
39972W        W99068  19.060  43.467  12.843
39973W        W99069  10.727  34.505   2.310
39974W        W99070   3.901  33.945   1.745
39975W        W99071  27.543  33.541  10.498
39976W        W99072  29.137  32.038   3.859
39977W        W99073  22.224   3.293  12.383
39978W        W99074  28.119  37.400  12.903
39979W        W99075  40.877  21.702   4.133
39980W        W99076  25.048  42.306  11.024
39981W        W99077  32.612   5.930  11.858
39982W        W99078  26.086   0.983   4.815
39983W        W99079  10.810  15.820  13.044
39984W        W99080  38.404  27.952  13.959
39985W        W99081  43.340  35.923   0.840
39986W        W99082  21.118  44.417  12.444
39987W        W99083  40.946  12.201   3.192
39988W        W99084  41.995   6.729   0.430
39989W        W99085  16.599  43.971   4.690
39990W        W99086  26.041  32.527   4.181
39991W        W99087  44.266  42.004  14.967
39992W        W99088  43.021  40.880   0.412
39993W        W99089  43.308  38.048  11.057
39994W        W99090  20.125  27.101   1.326
39995W        W99091  25.497  44.925  11.441
39996W        W99092  32.405  35.413  13.509
39997W        W99093  26.972  34.080   3.698
39998W        W99094  15.232   1.871   4.285
39999W        W99095   1.888  16.715  14.426
40000W        W99096  27.570   5.886  10.445
40001W        W99097  15.309  34.111  14.341
40002W        W99098  17.206   2.318  13.364
40003W        W99099  40.809  22.117  12.003
40004W        W99100  27.026  22.121  13.913
40005W        W99101  37.988  23.691   4.656
40006W        W99102   6.698  30.466  13.325
40007W        W99103  40.983   8.812   2.692
40008W        W99104  13.182  39.323   4.135
40009W        W99105  41.325   0.817  11.016
40010W        W99106  19.123  10.752  14.373
40011W        W99107  29.463  35.454   2.718
40012W        W99108  39.856   0.756   3.764
40013W        W99109  12.821  43.273  11.984
40014W        W99110  11.365   7.281  10.582
40015W        W99111   2.413  28.155   4.119
40016W        W99112  15.319  27.168  13.462
40017W        W99113  23.109  36.960   4.606
40018W        W99114   2.331  25.158  10.927
40019W        W99115   5.929   2.965  11.943
40020W        W99116   9.172   0.414  13.325
40021W        W99117  30.493  11.331   2.824
40022W        W99118  27.528   3.925   3.349
40023W        W99119   6.767  37.047   4.181
40024W        W99120  32.574  22.578  11.883
40025W        W99121  24.623  44.465   2.291
40026W        W99122  11.745  22.141  14.304
40027W        W99123  43.417  32.535   4.286
40028W        W99124   0.766  10.252  10.994
40029W        W99125  22.159  35.568   4.742
40030W        W99126   5.363  41.025  10.487
40031W        W99127  14.712   1.931  10.140
40032W        W99128  33.113  38.455   0.773
40033W        W99129  10.640   8.895   5.194
40034W        W99130  14.723  34.593   3.287
40035W        W99131  27.650   9.312   2.222
40036W        W99132  39.432  33.521   0.756
40037W        W99133  40.975  43.298   4.726
40038W        W99134  27.483  36.055   0.463
40039W        W99135  18.262   8.843   3.728
40040W        W99136  18.583  10.746   0.764
40041W        W99137  31.633  15.263  13.916
40042W        W99138  10.853   9.281  11.068
40043W        W99139   7.779  33.906  10.618
40044W        W99140  32.038  34.498  13.442
40045W        W99141  41.938  36.459  11.068
40046W        W99142  10.818  34.900  13.453
40047W        W99143  15.693   2.246   5.255
40048W        W99144  32.615  30.548   5.164
40049W        W99145  12.644   4.286  12.027
40050W        W99146  11.771  34.940  13.953
40051W        W99147  27.534  33.399  13.018
40052W        W99148  36.897  22.195  11.908
40053W        W99149   7.221   1.335   0.432
40054W        W99150   4.304  23.186   0.827
40055W        W99151  30.638  10.248   4.185
40056W        W99152  31.575  15.633   5.179
40057W        W99153  11.197  13.752   1.255
40058W        W99154  33.966  33.535   4.624
40059W        W99155   3.924  30.655   1.788
40060W        W99156  28.490  28.577  13.044
40061W        W99157  40.000  37.478  12.452
40062W        W99158  25.521  25.132  14.506
40063W        W99159  36.051  23.183  11.865
40064W        W99160  44.370  41.364   1.447
40065W        W99161  27.667   2.849   2.696
40066W        W99162  38.380  35.421  10.600
40067W        W99163  20.199   8.701   1.216
40068W        W99164  44.417  44.486   1.754
40069W        W99165   4.383  16.312   3.865
40070W        W99166  27.194  20.264  12.093
40071W        W99167  18.545  20.695   3.245
40072W        W99168  36.970  29.526   4.748
40073W        W99169   3.767  30.498  12.016
40074W        W99170   6.256   5.892   4.205
40075W        W99171  35.472  36.063   3.189
40076W        W99172  24.585   4.262   4.309
40077W        W99173   4.419  22.545  14.515
40078W        W99174  31.087  35.880  11.921
40079W        W99175  38.835   6.886  11.113
40080W        W99176   3.853  41.793   1.850
40081W        W99177   1.282  13.250  13.421
40082W        W99178   5.360  23.007  11.108
40083W        W99179  26.591  21.070   4.670
40084W        W99180  18.152   3.233   1.449
40085W        W99181  26.677  33.397  11.004
40086W        W99182  44.352   2.401   3.370
40087W        W99183  23.168   8.727   2.884
40088W        W99184  19.054  12.134  13.061
40089W        W99185  25.073  29.145   3.755
40090W        W99186  29.665   5.801   1.809
40091W        W99187  15.104   5.718  13.971
40092W        W99188  23.041  40.541   0.832
40093W        W99189  20.713  20.048  11.064
40094W        W99190  42.284  10.640  10.942
40095W        W99191  44.292  38.929   3.298
40096W        W99192   5.812  12.750  10.534
40097W        W99193  37.890  12.173  10.641
40098W        W99194  44.412  24.548  11.054
40099W        W99195   5.437   8.288  12.340
40100W        W99196  38.369  27.615   4.123
40101W        W99197  38.423  18.266  13.376
40102W        W99198  29.480  19.213   4.281
40103W        W99199  13.135   4.292  12.954
40104W        W99200   0.915  40.959  10.936
40105W        W99201  29.605  19.192  14.374
40106W        W99202   7.284  39.434  13.057
40107W        W99203  41.037  41.020   1.349
40108W        W99204  20.048  18.670  10.589
40109W        W99205  43.428   3.926  14.965
40110W        W99206  22.641   3.301   9.981
40111W        W99207  41.512  42.929   1.829
40112W        W99208  23.002  31.629   3.804
40113W        W99209  13.135  14.129   0.405
40114W        W99210  22.652  22.116  12.827
40115W        W99211   9.785  40.889  14.438
40116W        W99212  43.372  30.065  11.965
40117W        W99213   0.472  17.684  12.468
40118W        W99214  34.452  25.711   3.812
40119W        W99215  43.919   5.877  13.040
40120W        W99216  29.483  31.058  14.493
40121W        W99217  35.358  19.130   1.259
40122W        W99218   6.185  15.218  10.072
40123W        W99219  17.741  21.210  11.556
40124W        W99220   9.313  43.016   1.396
40125W        W99221  38.437   6.421   0.917
40126W        W99222  39.466  23.169   2.197
40127W        W99223   2.960  43.822  10.991
40128W        W99224  23.186   6.401  12.863
40129W        W99225  11.677  33.426   4.680
40130W        W99226  11.331  44.462   3.844
40131W        W99227  16.606  30.017   1.825
40132W        W99228   8.307  40.373   4.642
40133W        W99229  12.186  22.151   4.785
40134W        W99230   4.870  20.582   4.746
40135W        W99231   1.886   2.774   4.269
40136W        W99232  22.232  14.222  11.575
40137W        W99233  31.476  21.167   3.647
40138W        W99234  17.232  43.955  13.417
40139W        W99235  36.096   5.409  10.950
40140W        W99236  22.007   6.895   5.772
40141W        W99237  31.993  18.753   2.208
40142W        W99238   2.320  39.504  12.367
40143W        W99239  35.948  38.339   2.213
40144W        W99240  41.873  17.714  11.609
40145W        W99241  27.567  37.087   2.302
40146W        W99242  35.042  33.505   4.603
40147W        W99243   7.381  13.175  13.415
40148W        W99244  25.123  11.788   1.905
40149W        W99245  10.785   8.689   2.676
40150W        W99246  10.686   5.921   0.730
40151W        W99247  28.986  26.633  12.949
40152W        W99248  23.043  28.555  11.567
40153W        W99249  20.727   6.758   4.811
40154W        W99250  44.954  16.151  11.000
40155W        W99251   5.438   9.216  14.281
40156W        W99252  31.948   8.897   4.264
40157W        W99253   4.343  17.766   1.774
40158W        W99254   9.306   8.829  14.941
40159W        W99255  32.576   1.418   3.836
40160W        W99256   8.379  11.849  12.528
40161W        W99257  35.917   0.977  11.916
40162W        W99258   6.857  14.813   1.316
40163W        W99259  19.623   3.299   4.709
40164W        W99260   3.743  25.526  10.114
40165W        W99261  41.888  37.831   3.310
40166W        W99262  10.331  32.498   4.804
40167W        W99263  13.664  34.060   0.802
40168W        W99264  26.517   6.228  10.952
40169W        W99265  19.144  43.842  14.814
40170W        W99266  31.972  41.924  10.422
40171W        W99267  20.525  43.434  14.025
40172W        W99268  16.108  26.575  14.277
40173W        W99269   3.726  14.143  13.315
40174W        W99270   8.798   0.828   2.224
40175W        W99271  38.862  27.692   3.246
40176W        W99272  44.436  42.520   0.345
40177W        W99273  40.810  38.522  14.856
40178W        W99274  35.442  25.670  10.479
40179W        W99275  30.480  34.067  13.044
40180W        W99276  43.455  43.468  10.536
40181W        W99277  25.469  28.453  14.021
40182W        W99278  21.208  24.161   3.346
40183W        W99279  32.983  42.785  12.355
40184W        W99280  40.800  34.408  12.437
40185W        W99281  17.080   6.356   5.178
40186W        W99282  44.952  36.518   2.864
40187W        W99283  14.701  14.720   4.267
40188W        W99284   7.335   4.403  13.978
40189W        W99285  10.164  12.746  13.317
40190W        W99286  33.936  28.613   1.849
40191W        W99287  15.209  24.530   4.735
40192W        W99288   8.894   1.354  12.055
40193W        W99289  32.071  29.989  14.307
40194W        W99290  32.438  29.934   1.820
40195W        W99291  39.545  43.302   4.807
40196W        W99292   6.725  35.392  11.379
40197W        W99293   7.708   6.223   3.312
40198W        W99294  38.957  20.584   1.738
40199W        W99295  36.383   9.728  12.568
40200W        W99296   7.208  40.017  14.855
40201W        W99297  27.954   9.367   0.384
40202W        W99298  23.088  26.640   0.912
40203W        W99299   4.843  20.063   2.720
40204W        W99300   1.798  31.414   2.796
40205W        W99301  34.052  42.342   3.203
40206W        W99302   1.321  41.309   2.338
40207W        W99303   4.240  20.706  11.051
40208W        W99304  44.359  34.101  14.856
40209W        W99305  20.244  26.645   3.197
40210W        W99306  36.912   2.401   2.203
40211W        W99307  19.759   6.717   0.450
40212W        W99308  29.090   3.896   1.355
40213W        W99309   1.351  26.103   3.793
40214W        W99310  42.385  43.411   2.180
40215W        W99311  42.405   4.712  13.451
40216W        W99312  39.398  30.447   4.215
40217W        W99313  32.548  21.124   1.721
40218W        W99314  22.108  41.351   3.717
40219W        W99315  34.419   5.870  10.549
40220W        W99316  23.648  11.741   3.691
40221W        W99317  20.264   9.878  12.834
40222W        W99318  20.591  43.875   1.331
40223W        W99319   6.408   2.811  13.426
40224W        W99320  22.599  20.197   5.084
40225W        W99321  33.498  28.023  11.502
40226W        W99322  37.857  11.826   0.283
40227W        W99323  42.338  14.775  13.355
40228W        W99324  13.111   2.966  13.452
40229W        W99325  30.089  26.999  11.425
40230W        W99326  35.421  10.345   5.203
40231W        W99327  27.470  23.575   2.839
40232W        W99328  25.140  24.165  11.903
40233W        W99329  24.545  40.422  13.050
40234W        W99330  16.220   1.780   1.738
40235W        W99331  30.128  34.064  12.931
40236W        W99332   9.657   2.414   3.251
40237W        W99333  17.567  23.128  13.002
40238W        W99334  11.258  31.466  14.916
40239W        W99335  22.628  37.947  12.863
40240W        W99336  16.716  12.163  14.494
40241W        W99337  40.377   1.368  12.339
40242W        W99338  32.107  19.182  11.386
40243W        W99339  22.221  35.943   1.794
40244W        W99340  42.511  31.940  14.934
40245W        W99341  27.531  22.023   1.297
40246W        W99342   5.420  28.104  11.487
40247W        W99343  34.080  44.359  11.932
40248W        W99344  19.642   7.861   4.607
40249W        W99345   0.790  14.725  11.027
40250W        W99346  18.200  42.974  10.944
40251W        W99347  17.627   2.292  12.999
40252W        W99348  41.428  35.574   3.701
40253W        W99349  27.677   5.220   0.253
40254W        W99350  40.810  28.589  11.430
40255W        W99351  28.101  44.447  10.987
40256W        W99352  44.815  35.069   0.276
40257W        W99353  12.160  26.591  14.022
40258W        W99354  43.861  38.525   4.697
40259W        W99355  19.719  33.380   2.308
40260W        W99356  24.218   8.270   3.808
40261W        W99357  19.040  21.128  10.983
40262W        W99358   0.294  37.542  10.948
40263W        W99359   8.733  31.990  11.063
40264W        W99360  21.545   4.236  10.414
40265W        W99361  25.674  30.594   3.357
40266W        W99362  26.973  44.304   0.256
40267W        W99363   1.741  35.006   1.220
40268W        W99364   9.819   1.385  10.566
40269W        W99365  40.963  16.152   2.699
40270W        W99366  41.357  32.414  13.392
40271W        W99367   4.297   4.246   2.220
40272W        W99368  22.179  34.952   3.844
40273W        W99369  26.968  25.100   2.315
40274W        W99370  19.652  41.535   2.723
40275W        W99371  27.016  42.793  11.412
40276W        W99372   7.906   2.846  12.057
40277W        W99373   4.786   7.673   9.999
40278W        W99374  22.141  24.551  13.882
40279W        W99375  37.850  11.666  12.424
40280W        W99376  37.879  18.139  13.912
40281W        W99377   9.670  28.128  13.402
40282W        W99378  31.627  38.550   0.883
40283W        W99379  37.967  13.230   1.758
40284W        W99380  39.990  21.737   3.717
40285W        W99381  23.512  14.159   1.306
40286W        W99382   0.908  21.614  13.514
40287W        W99383  29.472  41.516   4.634
40288W        W99384   4.419   8.190  11.437
40289W        W99385  11.731  19.726   2.339
40290W        W99386  20.108  16.261   0.250
40291W        W99387  26.196  21.729  11.482
40292W        W99388  35.431   6.345  11.496
40293W        W99389   4.359  23.553   4.142
40294W        W99390  21.728  19.663   1.774
40295W        W99391   8.763  32.013  11.881
40296W        W99392   1.242  43.899   3.667
40297W        W99393   6.410  38.548   1.781
40298W        W99394  41.334  23.999   2.310
40299W        W99395  32.515  43.486  14.431
40300W        W99396   5.298  12.837   3.186
40301W        W99397  38.957  33.583   0.754
40302W        W99398  35.536  44.774   1.301
40303W        W99399  11.853  25.074  13.534
40304W        W99400  26.038  43.932   4.737
40305W        W99401  11.291   3.428  10.570
40306W        W99402  25.686  24.160   4.227
40307W        W99403  16.311  26.680   2.766
40308W        W99404  38.533  28.463   4.179
40309W        W99405  13.774   2.335   3.374
40310W        W99406  14.690   7.756  13.995
40311W        W99407  42.518  36.571  11.994
40312W        W99408   5.857  30.019  14.991
40313W        W99409  32.473  33.495   2.879
40314W        W99410  39.838   5.879  13.884
40315W        W99411  17.274  27.653   3.369
40316W        W99412  36.979  32.476   0.318
40317W        W99413  38.851  19.577   5.173
40318W        W99414  13.180  32.617  11.525
40319W        W99415  16.208   5.245   4.802
40320W        W99416  43.431  37.978  13.534
40321W        W99417  37.916  32.576  13.504
40322W        W99418  21.638  43.795  11.391
40323W        W99419  30.034  22.095  11.921
40324W        W99420   9.335  39.949  11.857
40325W        W99421  23.241  34.370   2.208
40326W        W99422  16.577  42.919   4.162
40327W        W99423  40.303   1.884   2.774
40328W        W99424  41.501  28.592  11.385
40329W        W99425  11.642  44.351  11.581
40330W        W99426  27.140  41.020   3.774
40331W        W99427   2.454   6.380  13.447
40332W        W99428  22.553  43.390  14.893
40333W        W99429   1.287  16.217   4.320
40334W        W99430  19.112   0.279  14.857
40335W        W99431   5.827  24.183  13.307
40336W        W99432  18.247  14.654  11.601
40337W        W99433  15.090  20.765  13.375
40338W        W99434   0.940  40.013  10.031
40339W        W99435  32.475   7.843   1.290
40340W        W99436   9.251  35.956  10.889
40341W        W99437  44.484  10.824   0.353
40342W        W99438  18.275  10.864   2.884
40343W        W99439  21.020  11.346   2.392
40344W        W99440  19.091  19.265   3.245
40345W        W99441  44.790   1.940  10.535
40346W        W99442  32.033  44.448   5.119
40347W        W99443  42.377  19.237  10.547
40348W        W99444  15.136  42.811  14.353
40349W        W99445  43.861  30.978  11.421
40350W        W99446  36.044  17.082   9.954
40351W        W99447  25.641   8.319   0.857
40352W        W99448   3.911   8.733  10.506
40353W        W99449  32.046  34.591  10.087
40354W        W99450   1.766   1.908   1.248
40355W        W99451  27.948  12.254  13.342
40356W        W99452  32.635  28.165  13.021
40357W        W99453  37.462  23.064   0.461
40358W        W99454   7.680   6.873  12.021
40359W        W99455   9.317   7.804  13.839
40360W        W99456  25.155   6.783  13.837
40361W        W99457  23.586   9.302  13.957
40362W        W99458  39.019  16.575  13.871
40363W        W99459  23.145  44.835  12.002
40364W        W99460  30.449  23.171   3.180
40365W        W99461  28.618  18.761   0.771
40366W        W99462   1.407  10.842   1.826
40367W        W99463  44.952  27.140   1.243
40368W        W99464  21.071  14.278   2.898
40369W        W99465  40.507  37.916   2.202
40370W        W99466  15.757  23.234  10.924
40371W        W99467  41.880  16.709  10.977
40372W        W99468  15.203  26.998   0.904
40373W        W99469  25.188  25.084  13.819
40374W        W99470  43.281  28.970   0.453
40375W        W99471   2.384  34.489  13.007
40376W        W99472   1.396  42.444  11.011
40377W        W99473   6.255  15.621  12.994
40378W        W99474  28.042  37.896  10.926
40379W        W99475  14.736   1.482  14.502
40380W        W99476  12.820  41.510  12.946
40381W        W99477  17.574  26.694   2.314
40382W        W99478  41.802   7.230  10.448
40383W        W99479  40.461   2.439   3.870
40384W        W99480  35.368  35.586   0.366
40385W        W99481  19.165  19.651  10.594
40386W        W99482  35.545  15.753   0.461
40387W        W99483   6.732  11.757  14.493
40388W        W99484  25.027   1.246  11.604
40389W        W99485  21.082   0.358   4.609
40390W        W99486  17.072  19.253  12.839
40391W        W99487  36.372  41.816   0.476
40392W        W99488  36.068  36.964   2.359
40393W        W99489  18.604   2.232   3.360
40394W        W99490  22.171  28.537   3.811
40395W        W99491  18.714   1.875  13.795
40396W        W99492  16.686  20.138   2.346
40397W        W99493   2.869  27.068  10.958
40398W        W99494  10.303  32.978   4.146
40399W        W99495   6.427  29.507  13.017
40400W        W99496  23.604  28.677   1.391
40401W        W99497  19.047  16.624  11.881
40402W        W99498  24.690   7.707   4.748
40403W        W99499  28.440  15.664   4.721
40404W        W99500  28.105   8.238   3.824
40405W        W99501  30.122   5.239   0.344
40406W        W99502  13.246  44.816  10.439
40407W        W99503  11.758  12.199   1.321
40408W        W99504   2.771  42.987   0.762
40409W        W99505   4.253  18.595   2.870
40410W        W99506  25.536   2.752   0.866
40411W        W99507  19.054  15.092   3.340
40412W        W99508   4.279  25.714   0.767
40413W        W99509  20.144  29.452   0.366
40414W        W99510  30.094  42.492  12.459
40415W        W99511  35.365  11.628  14.347
40416W        W99512  19.065  18.133   3.848
40417W        W99513   5.358  39.937  11.553
40418W        W99514  37.079  19.153  13.477
40419W        W99515  11.704  16.787   9.935
40420W        W99516  36.491   4.243  13.887
40421W        W99517  34.385   5.700  13.007
40422W        W99518  31.458  10.206   0.753
40423W        W99519   8.704  23.234   3.734
40424W        W99520   5.386  11.158  12.513
40425W        W99521  20.173  23.178  11.093
40426W        W99522  34.989  27.634  11.066
40427W        W99523   6.800  34.565  10.504
40428W        W99524  42.785  20.059  12.550
40429W        W99525  27.169  10.268  11.106
40430W        W99526   2.313  44.458  13.458
40431W        W99527  39.536  38.562  13.004
40432W        W99528  33.933  32.951   3.631
40433W        W99529  10.761  16.671  12.455
40434W        W99530  18.710  31.630   3.251
40435W        W99531   7.416  39.815   3.298
40436W        W99532  15.251  16.250  11.528
40437W        W99533  35.018  15.776   0.854
40438W        W99534  43.399   5.228   1.333
40439W        W99535  22.532  43.452  12.015
40440W        W99536   5.391  19.693  12.424
40441W        W99537   9.742  38.028  10.928
40442W        W99538  44.359  18.642  13.962
40443W        W99539  23.495  23.220   2.372
40444W        W99540   8.873  25.673   0.465
40445W        W99541   5.397   9.383  13.913
40446W        W99542  13.147  10.142   4.124
40447W        W99543  32.422  12.732  14.841
40448W        W99544   5.736  25.588  12.017
40449W        W99545  15.210  22.141  14.989
40450W        W99546  26.520  12.664   3.631
40451W        W99547  39.481  30.944  11.060
40452W        W99548   3.738   9.162   1.369
40453W        W99549  37.527  38.846  10.004
40454W        W99550  44.437   3.746   3.825
40455W        W99551  43.938  40.863  14.363
40456W        W99552  35.915  23.026  14.908
40457W        W99553  26.526  40.388   2.279
40458W        W99554   4.405   8.217  11.858
40459W        W99555   7.239   2.443  14.493
40460W        W99556   4.899   0.888   2.684
40461W        W99557  27.041   4.274  14.890
40462W        W99558  16.732   2.810  11.371
40463W        W99559  22.195  21.544  13.056
40464W        W99560   8.685   6.308  14.471
40465W        W99561  19.765   6.243  13.875
40466W        W99562  39.974  23.160  12.031
40467W        W99563  12.646   3.451  11.536
40468W        W99564  27.991   5.880   2.663
40469W        W99565  19.770   7.900   0.763
40470W        W99566  13.772   2.239  14.971
40471W        W99567  18.105  35.884  12.869
40472W        W99568   7.872  19.637  11.087
40473W        W99569  36.927  36.461  13.376
40474W        W99570  41.303  31.488   1.408
40475W        W99571  32.610  38.555   2.383
40476W        W99572  44.435  19.706  12.515
40477W        W99573  33.521  29.065  10.467
40478W        W99574  36.022  28.547  13.833
40479W        W99575  30.635  36.489  10.577
40480W        W99576  25.069  33.102  13.893
40481W        W99577  22.240   9.318   1.212
40482W        W99578  43.950  36.014  11.105
40483W        W99579  37.936  36.349   3.669
40484W        W99580  31.556  28.177  12.425
40485W        W99581  44.875   0.276   2.668
40486W        W99582  35.445  37.421   1.317
40487W        W99583  31.458   8.364   4.768
40488W        W99584   8.339  34.904  12.871
40489W        W99585  25.713  17.636   3.368
40490W        W99586  10.747  34.006   3.311
40491W        W99587  14.253   2.249   4.772
40492W        W99588  15.267  18.617  10.000
40493W        W99589   4.263  28.082  10.928
40494W        W99590  39.491   8.789  13.855
40495W        W99591  16.207  42.433   1.879
40496W        W99592  16.312  16.626   1.356
40497W        W99593  21.628  17.592  11.117
40498W        W99594  31.437  15.731   0.370
40499W        W99595  35.923   4.920  13.931
40500W        W99596  38.347   7.683   3.716
40501W        W99597  30.102  17.294  12.909
40502W        W99598  41.517   6.845   0.795
40503W        W99599  37.848  38.383   4.663
40504W        W99600  33.493  21.053   0.947
40505W        W99601   4.739  26.126   2.783
40506W        W99602  43.974  19.670   2.719
40507W        W99603   9.254  31.150   0.885
40508W        W99604  42.496  13.792  14.022
40509W        W99605  10.321  12.332   3.385
40510W        W99606  42.937  16.232  14.007
40511W        W99607  26.617   4.853  13.941
40512W        W99608   3.343  21.512   2.670
40513W        W99609  27.480  29.977  13.990
40514W        W99610  43.486   2.252  13.883
40515W        W99611   6.729  25.680   9.609
40516W        W99612  18.172  21.185  12.863
40517W        W99613  10.201  37.452  12.922
40518W        W99614   1.271  29.626  13.923
40519W        W99615  27.017  38.338   0.313
40520W        W99616   0.784  13.262  14.850
40521W        W99617  38.842  23.048   0.735
40522W        W99618  29.039  36.853  14.843
40523W        W99619  22.679   0.983  10.415
40524W        W99620  31.925  42.375   2.273
40525W        W99621  13.793  18.235   2.197
40526W        W99622  23.500   1.928  11.519
40527W        W99623  12.748  16.672   5.609
40528W        W99624  43.325  23.084  13.413
40529W        W99625  19.274  20.110  12.986
40530W        W99626  28.568  31.413   1.722
40531W        W99627  36.868  15.239  11.519
40532W        W99628  39.976  34.377  14.338
40533W        W99629  21.129  29.562  13.424
40534W        W99630  18.110  27.960   1.418
40535W        W99631  26.973  20.560   0.341
40536W        W99632  24.174  21.254   2.386
40537W        W99633  28.149  24.666  10.631
40538W        W99634  15.241  44.314   4.145
40539W        W99635  34.013   2.339  12.568
40540W        W99636  14.282  13.641  13.881
40541W        W99637  40.944  23.504  14.463
40542W        W99638  44.894  24.646  13.916
40543W        W99639   7.904  15.760   2.834
40544W        W99640  26.095  18.616  13.857
40545W        W99641  20.190  17.648  12.557
40546W        W99642  10.742  11.366   1.856
40547W        W99643  20.542  23.009   1.352
40548W        W99644  16.680  30.165   0.891
40549W        W99645  39.861  26.626  12.926
40550W        W99646  43.395  38.971  14.824
40551W        W99647   7.210  31.610  12.077
40552W        W99648   7.683  18.291   2.334
40553W        W99649  25.594  28.492  12.053
40554W        W99650   9.862   7.314  12.077
40555W        W99651  19.557  28.654  13.864
40556W        W99652  31.916  44.387   2.697
40557W        W99653  30.494   7.820  14.418
40558W        W99654  10.277  11.693   5.262
40559W        W99655  27.018   9.386  10.589
40560W        W99656  10.278   6.188   1.227
40561W        W99657  25.535  17.783   1.358
40562W        W99658  31.571  31.637  12.957
40563W        W99659   0.355  21.716  10.986
40564W        W99660  11.149  31.433   2.705
40565W        W99661  20.052  15.139  14.299
40566W        W99662  22.117  42.849   3.684
40567W        W99663   8.193  33.953   3.286
40568W        W99664  31.914   1.907   1.357
40569W        W99665  26.009   6.216  13.959
40570W        W99666  37.960  31.047  10.489
40571W        W99667  21.083  25.693  13.539
40572W        W99668  25.697   6.739  12.034
40573W        W99669   6.884   4.851  11.123
40574W        W99670  37.034  41.915  13.501
40575W        W99671  10.818  28.520   4.737
40576W        W99672   9.807  25.174   4.295
40577W        W99673   9.254  20.134   1.259
40578W        W99674  36.882   1.831  12.829
40579W        W99675  39.360  20.242   4.730
40580W        W99676  13.184   8.197  14.487
40581W        W99677  21.026   5.722   9.950
40582W        W99678   4.884  39.399   2.672
40583W        W99679   0.264  40.826   4.774
40584W        W99680  24.715  23.090  10.937
40585W        W99681  10.328  35.424   4.258
40586W        W99682   6.205   8.809   2.273
40587W        W99683  21.177  11.267  13.040
40588W        W99684  40.963  41.916  10.523
40589W        W99685  21.594  21.695  10.445
40590W        W99686  26.085  40.000  10.904
40591W        W99687  38.891  35.560   0.907
40592W        W99688  25.699  44.449  11.510
40593W        W99689  30.591  33.994  11.882
40594W        W99690  43.854  41.836   1.932
40595W        W99691  26.506  35.878   0.845
40596W        W99692  20.052  22.691  11.110
40597W        W99693  12.821   9.742   0.781
40598W        W99694  35.967   1.383   0.892
40599W        W99695  13.281  31.422   3.304
40600W        W99696  29.654  24.005   0.436
40601W        W99697  14.801   9.378  13.004
40602W        W99698  13.230   8.751   3.652
40603W        W99699   8.678  20.048   4.343
40604W        W99700  40.846  32.926   1.911
40605W        W99701   4.326   4.742  12.370
40606W        W99702  36.068  31.406   4.212
40607W        W99703   2.822  31.532  11.543
40608W        W99704  10.304  43.941   3.810
40609W        W99705   6.776   4.273  13.531
40610W        W99706  36.587  11.197  10.479
40611W        W99707  15.133  17.709  12.872
40612W        W99708  11.803  13.814  12.861
40613W        W99709  14.711  17.100  10.421
40614W        W99710  43.967   0.260  10.959
40615W        W99711  35.539  17.586   1.315
40616W        W99712  29.488  25.020  14.009
40617W        W99713   6.361  18.621   0.818
40618W        W99714  39.474  15.635  10.964
40619W        W99715  31.110  26.553  11.925
40620W        W99716  17.779  28.029   1.882
40621W        W99717  10.284  37.863   2.890
40622W        W99718  37.057  11.275   2.294
40623W        W99719  33.903   0.282  12.495
40624W        W99720  42.348  32.118   1.811
40625W        W99721  33.895  12.277   5.218
40626W        W99722  21.210  37.913  10.444
40627W        W99723  28.006  12.239   2.736
40628W        W99724  42.452  22.589   4.309
40629W        W99725  11.779   3.392  10.014
40630W        W99726  37.374  23.658   4.747
40631W        W99727  21.221   6.875   3.269
40632W        W99728  13.185   5.439  13.032
40633W        W99729   0.372  15.310  14.913
40634W        W99730  31.930  15.817  11.898
40635W        W99731  39.013  25.496   4.693
40636W        W99732  16.777  19.167   4.759
40637W        W99733  19.097  14.277   3.779
40638W        W99734  36.562  29.164   1.375
40639W        W99735  11.707   4.314   3.743
40640W        W99736  20.058  41.324   2.701
40641W        W99737  20.135   7.342  11.112
40642W        W99738  10.745  41.823  14.944
40643W        W99739  28.584  39.365   3.206
40644W        W99740  42.949   2.862  14.896
40645W        W99741  40.376   2.382  11.065
40646W        W99742  15.599  21.124   4.355
40647W        W99743  32.024  34.866   0.271
40648W        W99744  43.789  24.034  12.890
40649W        W99745   8.338  16.196   5.582
40650W        W99746  17.073  17.066   2.664
40651W        W99747  12.147  23.632  12.845
40652W        W99748  22.681  34.430   0.861
40653W        W99749  25.505  33.943  14.362
40654W        W99750  18.257  10.752  13.061
40655W        W99751  14.253   8.223   0.879
40656W        W99752   6.825   5.420  13.447
40657W        W99753  42.823  33.427   1.216
40658W        W99754  44.482  13.630  12.491
40659W        W99755  33.896   6.266   0.875
40660W        W99756  16.162  22.516   1.400
40661W        W99757  31.407  22.170  14.913
40662W        W99758  39.840  33.475   2.876
40663W        W99759  18.574  11.707   1.281
40664W        W99760   1.333  14.662  10.999
40665W        W99761  33.580  17.713   2.231
40666W        W99762   3.876  20.667   4.316
40667W        W99763  29.088  43.490  14.926
40668W        W99764   5.380  35.910  13.929
40669W        W99765  13.754  44.445  10.586
40670W        W99766  12.213  23.531  12.562
40671W        W99767  24.479  42.392   1.910
40672W        W99768  29.657  37.543  13.459
40673W        W99769   0.387  35.916  11.915
40674W        W99770  42.415  40.362   0.482
40675W        W99771  19.116  18.698  11.461
40676W        W99772  33.528  29.063   3.700
40677W        W99773   0.376  14.287   1.887
40678W        W99774  26.978   7.771   0.823
40679W        W99775  16.650  39.468   0.469
40680W        W99776   2.919  35.492   3.354
40681W        W99777  44.989  43.415   0.301
40682W        W99778  26.201  31.938   3.247
40683W        W99779  38.871  44.392  14.481
40684W        W99780  20.182   0.773   4.125
40685W        W99781  30.033  39.353  12.428
40686W        W99782   7.216  10.185   2.707
40687W        W99783  23.239  21.576   0.250
40688W        W99784   8.813  19.229  12.022
40689W        W99785  43.500  16.726  11.860
40690W        W99786   4.420  36.010  12.088
40691W        W99787  30.146  16.812   4.220
40692W        W99788   0.842  28.659   0.925
40693W        W99789  24.073  28.101   4.161
40694W        W99790  14.244  26.205  14.507
40695W        W99791   6.885  35.964   3.690
40696W        W99792  12.807  28.087   2.233
40697W        W99793  15.801  23.189  10.528
40698W        W99794   7.772   9.876   0.952
40699W        W99795  36.396   9.744   1.864
40700W        W99796  29.649  37.917   2.696
40701W        W99797  36.406  38.445   3.804
40702W        W99798  38.995  14.206   4.621
40703W        W99799  28.938  10.213   3.697
40704W        W99800  37.924   8.217   9.516
40705W        W99801  15.640  31.988  12.060
40706W        W99802  26.655  16.163   2.839
40707W        W99803  36.356  38.071   3.711
40708W        W99804  43.385  32.402   1.729
40709W        W99805  34.907  10.636   2.183
40710W        W99806  18.554  15.307   2.835
40711W        W99807   7.898  10.738  12.460
40712W        W99808  39.883  30.956   2.252
40713W        W99809   2.274  18.057  10.548
40714W        W99810  26.068  33.087   1.352
40715W        W99811  10.365  30.417  10.116
40716W        W99812  40.351  37.513   1.232
40717W        W99813  27.684  16.680  11.985
40718W        W99814  30.546  13.109  12.539
40719W        W99815  41.313  16.602   0.444
40720W        W99816  31.908  20.272   3.688
40721W        W99817   7.223   5.900   3.332
40722W        W99818  27.488  22.743  11.043
40723W        W99819  20.542  44.822  14.505
40724W        W99820   8.279  29.938  11.996
40725W        W99821  24.140  36.367   0.812
40726W        W99822  40.942  15.705   0.958
40727W        W99823  15.131  43.928  13.407
40728W        W99824  19.646  27.002   3.263
40729W        W99825  41.501  42.415   0.355
40730W        W99826  24.633   3.277  10.600
40731W        W99827  33.930  32.530   4.812
40732W        W99828  28.950  41.028   2.249
40733W        W99829   7.189  41.417  12.384
40734W        W99830   5.703  36.971  10.506
40735W        W99831  39.029  14.719   4.748
40736W        W99832   3.868   6.900   4.681
40737W        W99833  43.362   6.387  11.011
40738W        W99834   1.279  40.487   1.935
40739W        W99835   6.266  23.039   4.274
40740W        W99836  32.607   0.268   2.691
40741W        W99837  18.279  12.261   5.085
40742W        W99838  12.134   2.779  12.072
40743W        W99839  25.654   1.784  12.353
40744W        W99840  40.481  28.669  10.515
40745W        W99841   5.249  15.765   0.279
40746W        W99842  43.300  13.323   0.392
40747W        W99843  28.941  41.436   1.318
40748W        W99844  16.274   9.387   2.198
40749W        W99845  28.095  37.893  14.776
40750W        W99846  15.733  43.495   2.764
40751W        W99847  13.203  39.842   2.676
40752W        W99848  36.515   4.870  13.020
40753W        W99849  41.327   3.282  12.414
40754W        W99850  43.369  41.848   4.633
40755W        W99851  20.167  24.711   4.728
40756W        W99852  25.081  33.550  13.542
40757W        W99853  12.256  24.485  13.052
40758W        W99854  25.992  27.573   2.317
40759W        W99855  16.150  36.444   3.711
40760W        W99856  35.467  23.571   3.360
40761W        W99857  30.991  10.352  10.039
40762W        W99858  43.407  22.190  13.009
40763W        W99859  21.163   0.471  14.487
40764W        W99860  44.342  32.570  13.472
40765W        W99861   2.425  24.995   4.301
40766W        W99862  39.823  21.628  14.400
40767W        W99863  37.366  44.357   4.132
40768W        W99864  27.503  23.497   1.914
40769W        W99865  37.503  26.037   1.242
40770W        W99866  35.425  26.965  14.337
40771W        W99867  20.548  12.785  13.805
40772W        W99868  23.695   9.274   1.889
40773W        W99869   9.316  37.508  11.383
40774W        W99870  26.207  27.950  14.498
40775W        W99871  19.217  10.674  12.074
40776W        W99872  30.966  19.763   1.272
40777W        W99873   9.222  30.115  11.967
40778W        W99874   2.724  40.878   0.439
40779W        W99875  37.568   6.207   0.869
40780W        W99876  44.342  25.093   1.444
40781W        W99877  25.653  31.058   2.826
40782W        W99878  43.511  37.837   3.809
40783W        W99879   5.409  25.001   1.239
40784W        W99880  24.169  24.682  14.883
40785W        W99881   2.289  26.129  11.986
40786W        W99882  37.973  15.642   3.192
40787W        W99883  39.370  15.614   5.293
40788W        W99884  43.429  35.483  10.607
40789W        W99885  25.063  22.068   9.516
40790W        W99886  44.869  37.476  12.879
40791W        W99887  43.915  32.923   4.833
40792W        W99888  33.422  32.022   0.935
40793W        W99889  42.031  16.267  12.888
40794W        W99890   2.370   7.791   4.191
40795W        W99891  40.863  15.631  13.954
40796W        W99892  21.646  17.735  14.851
40797W        W99893  14.168  33.963   4.668
40798W        W99894  29.985  20.132  12.368
40799W        W99895  26.645  39.900  13.803
40800W        W99896  42.292  11.699   4.706
40801W        W99897  10.326  42.281   4.796
40802W        W99898  39.422   7.257  12.412
40803W        W99899  38.954  19.660  10.638
40804W        W99900  35.091  42.922   0.890
40805W        W99901  32.976  39.407   3.365
40806W        W99902   5.270  17.188   2.373
40807W        W99903   0.969  43.385  12.937
40808W        W99904  44.282  16.660  12.573
40809W        W99905  38.865  37.340  10.577
40810W        W99906  43.822   5.753  11.006
40811W        W99907  20.057  28.973   3.374
40812W        W99908  22.630  29.610  13.011
40813W        W99909  28.991  17.259   3.812
40814W        W99910  28.989  36.508  12.872
40815W        W99911  41.826   7.252   4.147
40816W        W99912   9.346  37.962  12.397
40817W        W99913  28.500  17.766   1.696
40818W        W99914  38.845  34.505  13.002
40819W        W99915  16.158  29.599  10.565
40820W        W99916  42.349  37.975   0.867
40821W        W99917  14.334  19.719   3.801
40822W        W99918  17.168  12.770  12.424
40823W        W99919   6.201  10.797   1.348
40824W        W99920  19.721  32.569  13.982
40825W        W99921   0.456  33.607  14.292
40826W        W99922  15.206   7.197   0.477
40827W        W99923   6.369  37.445   3.277
40828W        W99924  36.559  17.580   1.811
40829W        W99925   5.927   5.788  13.366
40830W        W99926   0.403  23.077  11.991
40831W        W99927  13.693  17.229  14.767
40832W        W99928  31.565  42.355   4.160
40833W        W99929  30.647  12.819   1.370
40834W        W99930  31.485   5.351   0.789
40835W        W99931  40.929  29.952   3.796
40836W        W99932  28.050  12.126   1.893
40837W        W99933  29.056  29.498   4.240
40838W        W99934  13.220  19.202   3.707
40839W        W99935  38.876  31.977  14.940
40840W        W99936  15.732  40.829  10.073
40841W        W99937   2.390   8.389  13.886
40842W        W99938  25.194  20.547   9.570
40843W        W99939  32.969  32.964  14.868
40844W        W99940   4.342  14.099  14.466
40845W        W99941  23.136  18.131  14.941
40846W        W99942  21.650  15.721  10.597
40847W        W99943   6.362  29.624  14.924
40848W        W99944  21.586  25.980  11.952
40849W        W99945  24.570  22.594  14.826
40850W        W99946  33.919  37.987  14.843
40851W        W99947   3.325  14.738  13.965
40852W        W99948  30.067   2.956  14.964
40853W        W99949  41.509   8.248   2.788
40854W        W99950   9.750  31.403  11.380
40855W        W99951   4.217  13.263  12.042
40856W        W99952  25.559  31.632   1.914
40857W        W99953  17.071  32.966   1.282
40858W        W99954  33.423  15.189  12.559
40859W        W99955  14.796  15.243  10.404
40860W        W99956  13.155   2.858   0.457
40861W        W99957   5.848  14.163   4.125
40862W        W99958   3.276  24.506  12.082
40863W        W99959  31.078   0.950  12.530
40864W        W99960  16.261  36.023  11.421
40865W        W99961  20.757  28.012   4.717
40866W        W99962  44.996  11.664   2.260
40867W        W99963  20.634  11.218  10.007
40868W        W99964  11.701   5.200   0.780
40869W        W99965   1.438  18.622   1.411
40870W        W99966  41.800  12.813  10.974
40871W        W99967  42.478  13.260   2.398
40872W        W99968  17.618  37.886  13.818
40873W        W99969  44.381  36.579   4.698
40874W        W99970  31.121  42.487   0.467
40875W        W99971  42.512   4.398  10.924
40876W        W99972  28.150  33.903  13.918
40877W        W99973  28.100  29.957   3.637
40878W        W99974  36.900  38.519  13.326
40879W        W99975  15.605  12.157   2.405
40880W        W99976  35.484  44.413  10.448
40881W        W99977   7.751  24.503  14.427
40882W        W99978   8.348  25.667  10.089
40883W        W99979  31.006  40.833   0.327
40884W        W99980   5.819  24.611  13.816
40885W        W99981  18.752  10.688  14.759
40886W        W99982   6.696  20.174   2.808
40887W        W99983  19.704  21.093  13.840
40888W        W99984   7.690  12.295   4.695
40889W        W99985  35.387  31.128  11.554
40890W        W99986  43.362  42.387  13.442
40891W        W99987  10.711  29.139  13.922
40892W        W99988  12.122  21.565  10.434
40893W        W99989   1.315  14.605  14.414
40894W        W99990   4.331   1.972  12.397
40895W        W99991  43.314  12.789  14.803
40896W        W99992  27.579  10.873   4.265
40897W        W99993  12.761  32.143  14.371
40898W        W99994  21.110  40.531   4.329
40899W        W99995   9.786  30.158  10.002
40900W        W99996  33.610  15.103   4.760
40901W        W99997  20.164  44.261   0.762
40902W        W99998  12.302  43.981   0.312
40903W        W99999  13.289   4.234  12.411
40904W        W    0  13.107  28.599   4.745
40905W        W    1  28.089   6.793   4.823
40906W        W    2   0.481  39.064  12.938
40907W        W    3  33.921   2.785   1.806
40908W        W    4   3.217  21.132   4.659
40909W        W    5  18.763  38.398  14.448
40910W        W    6   7.371   7.387   4.724
40911W        W    7  41.354  20.726   0.448
40912W        W    8   6.821   3.885  12.991
40913W        W    9  34.490   2.260   3.787
40914W        W   10   3.278  18.223   1.900
40915W        W   11   7.873  41.479   4.123
40916W        W   12  13.125   3.361  13.318
40917W        W   13  13.224  15.590  11.447
40918W        W   14  20.248  33.928  14.982
40919W        W   15  21.043  37.504  12.535
40920W        W   16  39.887  22.032   1.257
40921W        W   17  12.300  44.002   2.389
40922W        W   18  17.081  18.150   5.261
40923W        W   19  44.504  38.486   4.739
40924W        W   20  44.358  41.023  10.121
40925W        W   21  23.515  44.760   4.338
40926W        W   22  25.551   1.445  11.969
40927W        W   23  19.244   3.383  11.054
40928W        W   24   8.163   3.410   1.257
40929W        W   25  19.077  29.164  14.875
40930W        W   26  34.497   3.451  11.518
40931W        W   27  36.944  16.570   5.586
40932W        W   28  10.763  15.631   3.313
40933W        W   29   4.245  43.427   3.161
40934W        W   30  27.003  33.462  10.616
40935W        W   31  15.752  37.440   0.815
40936W        W   32  27.685  43.806  10.955
40937W        W   33   4.336  18.653   4.192
40938W        W   34  38.819  25.011   4.836
40939W        W   35  28.512   6.740  14.006
40940W        W   36  42.979  32.479   4.599
40941W        W   37   0.405  34.528   1.408
40942W        W   38  12.251  17.802  11.867
40943W        W   39  25.054  28.131  14.853
40944W        W   40  16.812   8.720   1.312
40945W        W   41   2.902   8.185   1.305
40946W        W   42   9.674  19.593  12.382
40947W        W   43  42.316   3.869  12.365
40948W        W   44   1.763  14.742  13.516
40949W        W   45  22.202   5.805  10.921
40950W        W   46  13.252  22.250  14.854
40951W        W   47  10.698  16.612   2.315
40952W        W   48  17.295   8.814   4.686
40953W        W   49  44.988  41.864  10.468
40954W        W   50  30.617  33.922   0.900
40955W        W   51  28.454  43.323   2.245
40956W        W   52  11.263   6.317   0.408
40957W        W   53   9.750  19.053  11.429
40958W        W   54  23.496   3.794  10.971
40959W        W   55  12.149   9.653  10.412
40960W        W   56  34.590  30.550  12.426
40961W        W   57  12.730  29.441   3.201
40962W        W   58  44.931   7.261  10.990
40963W        W   59  21.030   4.354   1.816
40964W        W   60   1.237  42.003  12.945
40965W        W   61  42.355  27.152  11.979
40966W        W   62   8.231   0.341  12.577
40967W        W   63  12.331  13.696  12.081
40968W        W   64  36.841  18.587   3.166
40969W        W   65  12.273   8.346  12.413
40970W        W   66  12.777  10.725   3.844
40971W        W   67   2.895  11.355  14.364
40972W        W   68  11.862  28.096   2.763
40973W        W   69   4.733  23.016   4.165
40974W        W   70   4.769   1.276   0.386
40975W        W   71  41.363  35.484  13.051
40976W        W   72   2.387  11.827   4.239
40977W        W   73   1.897  15.579   3.661
40978W        W   74  15.216  17.104   3.148
40979W        W   75  24.562  30.107  14.433
40980W        W   76  44.262  44.953   1.320
40981W        W   77  26.621  43.290   0.444
40982W        W   78  37.041  38.394   0.784
40983W        W   79   6.183  43.287  13.936
40984W        W   80   1.920   1.425  13.060
40985W        W   81  29.089  16.118   1.306
40986W        W   82  39.428  35.918  10.936
40987W        W   83   7.843  12.830   2.416
40988W        W   84  32.103  36.873   1.813
40989W        W   85  14.767  32.520  11.984
40990W        W   86  21.712  42.938   3.339
40991W        W   87  17.759  27.576  13.825
40992W        W   88  37.035  18.732  11.939
40993W        W   89  10.778   7.371  12.858
40994W        W   90  28.011  17.688  10.127
40995W        W   91   6.740  44.418   3.764
40996W        W   92  26.057  17.093   4.637
40997W        W   93  19.537  28.529   4.820
40998W        W   94  33.026   0.383   0.316
40999W        W   95  38.424  20.064   4.250
41000W        W   96   9.656  19.262   0.941
41001W        W   97  44.874  21.209   3.773
41002W        W   98  20.760  24.551  11.100
41003W        W   99   9.270  29.033  13.059
41004W        W  100  35.383  14.777  13.824
41005W        W  101  20.728   5.828  14.393
41006W        W  102   3.419  32.084   4.699
41007W        W  103  18.190  12.249   1.403
41008W        W  104  34.545  14.639   2.417
41009W        W  105  34.411  25.027  10.512
41010W        W  106  27.155   9.382  12.445
41011W        W  107  25.170  41.892  11.526
41012W        W  108  40.307  14.125  13.978
41013W        W  109  19.141  37.876  12.347
41014W        W  110  31.040  44.993  13.409
41015W        W  111  26.680  19.668   0.312
41016W        W  112  38.034  13.279  12.456
41017W        W  113  12.631  26.607   1.705
41018W        W  114  43.435   4.300   3.366
41019W        W  115  41.941  21.235  12.883
41020W        W  116  11.788  21.643   3.675
41021W        W  117  33.386  12.839   3.779
41022W        W  118   0.426  42.973  14.477
41023W        W  119  23.017   3.334  11.375
41024W        W  120  44.457  14.787  14.339
41025W        W  121   3.273   1.336   3.155
41026W        W  122  16.582  15.621   3.325
41027W        W  123  15.696  34.453  11.381
41028W        W  124   6.325  39.431  11.470
41029W        W  125  39.998  38.346  10.582
41030W        W  126  34.598  23.566  14.788
41031W        W  127  42.505  28.054   2.767
41032W        W  128  15.597   2.827  11.085
41033W        W  129  25.512   6.818  14.504
41034W        W  130  20.547  11.801  10.161
41035W        W  131  43.345  16.157   1.286
41036W        W  132  36.352  43.815   1.732
41037W        W  133  28.039   7.328   4.609
41038W        W  134  33.000  22.145  14.799
41039W        W  135  32.509  27.124   2.195
41040W        W  136  19.556   7.270   3.637
41041W        W  137   6.903  21.076  12.014
41042W        W  138  13.748  16.606   1.269
41043W        W  139  29.545   2.329   0.746
41044W        W  140  33.948  15.196   0.731
41045W        W  141  11.289  18.118  12.422
41046W        W  142  30.609  28.050  11.078
41047W        W  143  30.990  21.069   0.409
41048W        W  144  23.571  44.985   4.689
41049W        W  145  15.294  37.490  10.406
41050W        W  146  11.815   5.836   0.341
41051W        W  147  13.295  14.739  13.019
41052W        W  148  34.906   9.253  12.538
41053W        W  149  37.465  34.116  12.041
41054W        W  150  14.221  44.503  14.836
41055W        W  151  28.566   9.341  14.295
41056W        W  152  42.440  29.658  12.017
41057W        W  153  35.591  19.133  12.978
41058W        W  154  25.640  38.929  12.371
41059W        W  155   6.704   6.258  10.896
41060W        W  156  29.075  35.486   0.774
41061W        W  157   4.430  32.467   0.757
41062W        W  158  29.963  19.282   0.356
41063W        W  159  22.601  18.781  11.940
41064W        W  160   2.248  28.632   4.138
41065W        W  161  12.818  39.417  14.276
41066W        W  162  24.608  39.852   4.186
41067W        W  163  31.071  28.546  11.989
41068W        W  164   6.400  32.089   1.801
41069W        W  165  10.304   3.955  10.541
41070W        W  166  36.933   4.445  10.408
41071W        W  167  17.094   1.742  12.488
41072W        W  168  42.024  38.823   2.697
41073W        W  169  16.088  29.067   4.610
41074W        W  170  39.513  15.255  13.511
41075W        W  171  11.856  42.450   1.727
41076W        W  172  41.013  15.801  13.479
41077W        W  173  37.867  41.470   5.238
41078W        W  174   5.269  38.477  11.581
41079W        W  175  17.598  33.071   0.432
41080W        W  176  38.977   1.737  14.899
41081W        W  177   4.313   3.357  14.453
41082W        W  178  34.437  19.774   0.943
41083W        W  179  30.561   7.381   4.308
41084W        W  180  24.143  43.822  10.930
41085W        W  181  35.365  20.553   1.924
41086W        W  182  32.500  28.949  14.476
41087W        W  183  31.959  34.541  11.511
41088W        W  184  41.441  10.267  11.126
41089W        W  185   4.918  24.703  14.429
41090W        W  186  13.248  27.956  13.046
41091W        W  187  41.381  26.055  13.435
41092W        W  188  14.257  37.971  11.032
41093W        W  189   2.889  19.594  12.998
41094W        W  190   5.738  27.969  10.903
41095W        W  191  37.841  40.946   0.758
41096W        W  192  20.148  32.481  11.468
41097W        W  193  44.789  16.091   0.779
41098W        W  194  44.396  23.634   4.810
41099W        W  195  17.288  38.522   4.800
41100W        W  196  12.765   7.852   0.961
41101W        W  197   3.385  17.572   4.697
41102W        W  198  37.341  39.980   1.878
41103W        W  199   8.668  22.672   5.091
41104W        W  200  21.518  22.229  14.467
41105W        W  201  37.388  43.773  11.502
41106W        W  202  20.766  40.524  10.498
41107W        W  203  33.569  32.128   0.343
41108W        W  204  19.170  30.968   3.211
41109W        W  205  40.825  44.977   0.310
41110W        W  206  11.844  28.953  14.454
41111W        W  207  37.436  37.422  13.532
41112W        W  208   2.444  31.014   4.148
41113W        W  209   8.678   0.384   3.645
41114W        W  210  35.935  16.082   0.281
41115W        W  211   4.878  14.691  10.613
41116W        W  212  10.680  27.498  12.011
41117W        W  213  18.658   2.454  11.461
41118W        W  214  24.630  40.525   1.725
41119W        W  215  37.030   8.343  14.797
41120W        W  216  43.424   0.396  11.008
41121W        W  217  18.592   5.826  10.572
41122W        W  218  26.703  25.649  11.576
41123W        W  219   5.847  25.175   1.816
41124W        W  220  35.877  39.366   2.345
41125W        W  221  39.328  22.614   1.908
41126W        W  222  10.335  32.915  13.972
41127W        W  223  25.148  41.293   2.239
41128W        W  224  10.792  18.764   1.273
41129W        W  225  32.010  29.948   3.674
41130W        W  226  34.021   2.733  13.916
41131W        W  227  34.455  39.377   4.655
41132W        W  228  15.748   2.458   0.760
41133W        W  229   2.842  25.035   4.162
41134W        W  230  33.505  41.864   3.859
41135W        W  231  15.194   4.768   4.251
41136W        W  232   6.333  17.125   1.354
41137W        W  233  25.536  31.940  12.406
41138W        W  234   7.869  41.883  11.580
41139W        W  235  21.067  30.100   0.744
41140W        W  236  41.481  24.042  14.831
41141W        W  237  17.081   6.210  11.574
41142W        W  238  27.962  40.940   2.222
41143W        W  239  24.005  29.048   3.352
41144W        W  240  11.371  37.468  13.509
41145W        W  241  42.290  23.126  12.924
41146W        W  242   9.723  33.876  13.350
41147W        W  243  33.595  38.860   0.955
41148W        W  244  43.920  27.656  12.927
41149W        W  245   3.414  39.492   3.310
41150W        W  246   9.319   7.306   4.115
41151W        W  247   2.361  29.500  13.010
41152W        W  248   6.215  23.571  11.087
41153W        W  249  24.173   0.899   0.779
41154W        W  250   5.409  22.657   0.863
41155W        W  251   2.234   1.245   1.414
41156W        W  252  24.083  26.087   4.143
41157W        W  253  29.047   0.863  14.508
41158W        W  254  10.675  43.994   3.713
41159W        W  255   8.852   7.280   4.260
41160W        W  256  15.769  30.417  14.483
41161W        W  257  26.159  20.623   3.165
41162W        W  258  21.202  27.448   4.191
41163W        W  259  16.169   1.941  13.008
41164W        W  260   7.812   1.848   2.234
41165W        W  261  18.100  29.033  13.543
41166W        W  262  13.110  26.501  11.448
41167W        W  263  36.985  25.098  10.474
41168W        W  264  36.967  23.524   2.362
41169W        W  265  22.727   5.214  11.422
41170W        W  266  11.131   9.887  13.937
41171W        W  267  33.557  13.784  10.947
41172W        W  268  19.239  41.517   4.780
41173W        W  269  38.468  15.726   0.744
41174W        W  270  14.268  11.771  12.387
41175W        W  271   0.852  38.880  13.877
41176W        W  272  37.407  30.119  11.404
41177W        W  273  20.570  12.266   4.243
41178W        W  274  33.396   7.198  10.138
41179W        W  275  10.719  33.568  13.443
41180W        W  276  30.006   9.824   3.155
41181W        W  277  24.087  18.103  13.878
41182W        W  278   1.335  31.942   0.765
41183W        W  279  16.146  29.992  11.418
41184W        W  280  14.703  33.489  12.487
41185W        W  281  11.786  44.842  10.638
41186W        W  282   8.400  10.821  13.486
41187W        W  283   3.841   2.844  13.524
41188W        W  284  22.073  19.210   4.188
41189W        W  285  10.232  22.663   3.675
41190W        W  286   8.691  12.675   2.251
41191W        W  287  41.872  11.278  10.121
41192W        W  288  16.239  18.568  14.962
41193W        W  289  22.104   8.388   4.725
41194W        W  290  25.615  36.381   4.754
41195W        W  291   2.438  11.638  13.805
41196W        W  292   4.756  20.718  13.980
41197W        W  293  44.377   2.809   4.677
41198W        W  294  42.427  25.080   4.216
41199W        W  295   9.764   2.772   2.732
41200W        W  296  34.941  19.107   0.951
41201W        W  297   3.362  44.773   2.379
41202W        W  298   6.359  20.551   3.244
41203W        W  299  13.674  12.732   1.240
41204W        W  300  36.502  30.107  12.860
41205W        W  301  31.055  23.067   4.140
41206W        W  302  18.220  26.569   0.886
41207W        W  303  43.926  29.927   4.813
41208W        W  304  23.177  12.699  11.436
41209W        W  305  14.601  13.129  11.947
41210W        W  306   8.221  27.463   2.765
41211W        W  307  37.423  37.386   2.293
41212W        W  308  37.075  16.146   2.898
41213W        W  309  33.475   2.945   0.783
41214W        W  310  33.121  21.544  11.085
41215W        W  311  15.815   5.323  11.052
41216W        W  312  21.734  27.526  11.105
41217W        W  313  39.415  17.233   4.610
41218W        W  314  19.043  41.970   4.160
41219W        W  315  13.227   6.895   4.785
41220W        W  316  40.046  10.287   2.685
41221W        W  317  39.004  22.111   2.246
41222W        W  318   2.941  15.241   3.161
41223W        W  319  38.070  39.929   1.257
41224W        W  320   9.843  11.279   2.690
41225W        W  321   3.811  43.846  13.355
41226W        W  322  37.447  42.854  10.078
41227W        W  323  32.920  21.040   3.660
41228W        W  324   7.709  39.873   3.844
41229W        W  325   1.885  41.899  14.325
41230W        W  326  15.635  22.607   1.762
41231W        W  327  15.247   6.912  14.879
41232W        W  328  41.506  20.540  11.887
41233W        W  329  38.000  32.460   0.383
41234W        W  330  26.460  29.060  13.813
41235W        W  331  36.450   6.731  13.821
41236W        W  332  40.504  44.006   3.264
41237W        W  333   4.814  30.512   4.627
41238W        W  334  12.268  20.633  13.937
41239W        W  335   7.175   9.859   1.433
41240W        W  336   2.763   0.857  11.100
41241W        W  337  26.602  35.430   1.717
41242W        W  338   0.824  11.200  14.815
41243W        W  339  26.522  42.334   0.906
41244W        W  340  23.616   9.336   2.272
41245W        W  341  43.498  12.843   3.867
41246W        W  342  25.070  22.551   0.401
41247W        W  343  34.915   5.785   3.219
41248W        W  344   2.833  31.098   2.787
41249W        W  345  20.747  25.584   4.832
41250W        W  346  15.678  14.210  12.921
41251W        W  347  15.668  32.955   3.692
41252W        W  348   0.265  31.040   3.258
41253W        W  349  24.995  14.769  11.566
41254W        W  350   4.438  30.955   3.719
41255W        W  351   7.768  31.905  10.559
41256W        W  352  11.680  41.450   1.425
41257W        W  353  41.799  34.592   2.366
41258W        W  354  26.669  32.401   0.762
41259W        W  355  31.055  37.354  11.078
41260W        W  356  26.169  25.181  13.535
41261W        W  357  10.694  29.147   3.750
41262W        W  358  10.186   9.760   0.895
41263W        W  359  32.541  34.000  10.501
41264W        W  360  15.294  31.519  10.571
41265W        W  361  24.066  38.430  11.959
41266W        W  362   4.321   5.407   2.390
41267W        W  363   1.478   3.238   0.834
41268W        W  364  37.921  13.760  12.977
41269W        W  365   6.406  39.378  14.432
41270W        W  366  13.288  19.155   0.876
41271W        W  367  11.792  13.790   0.811
41272W        W  368   7.220   1.827   2.840
41273W        W  369  39.498   6.388  14.824
41274W        W  370  25.470   7.821  11.128
41275W        W  371  14.773  43.779  13.795
41276W        W  372  41.904  22.050   0.470
41277W        W  373   0.321  37.360   3.806
41278W        W  374  29.952  31.147  13.902
41279W        W  375  30.474  38.076  11.589
41280W        W  376   5.322  41.324   3.715
41281W        W  377  44.899  39.347   2.281
41282W        W  378  11.251  17.239   4.764
41283W        W  379  25.707  31.089  14.459
41284W        W  380  29.070   2.392   1.370
41285W        W  381   1.931  36.408   2.242
41286W        W  382  35.360  38.040  14.358
41287W        W  383   9.778  13.665   4.153
41288W        W  384  10.711   6.864   3.272
41289W        W  385   9.687  28.961  11.519
41290W        W  386  37.507  17.667  11.889
41291W        W  387  25.706  25.096  11.070
41292W        W  388  29.567  25.069   9.946
41293W        W  389   9.149  27.520   1.852
41294W        W  390   9.838  33.025   3.297
41295W        W  391  30.520  33.987  14.290
41296W        W  392  32.090   6.415  12.446
41297W        W  393  35.912  24.175   3.838
41298W        W  394  36.841  29.584  11.912
41299W        W  395  24.498  40.371  13.815
41300W        W  396   8.336  17.748  11.082
41301W        W  397  34.495   8.797   1.366
41302W        W  398  21.202  33.041  14.867
41303W        W  399  21.592  27.557   2.901
41304W        W  400  38.450  11.810  12.488
41305W        W  401   9.325   7.292  12.557
41306W        W  402  16.608  13.332  14.294
41307W        W  403  35.413  11.752  12.929
41308W        W  404  34.914  30.447   0.478
41309W        W  405  40.023  24.537  12.373
41310W        W  406  26.651  34.062  13.476
41311W        W  407   2.256   5.334   0.283
41312W        W  408  23.160  10.658   2.404
41313W        W  409  28.051  21.745   0.419
41314W        W  410   9.668  12.700   1.384
41315W        W  411  38.875  36.438   3.761
41316W        W  412  26.475  11.145   4.608
41317W        W  413  36.004  27.061   2.766
41318W        W  414  23.126   3.955   2.386
41319W        W  415  30.052  32.091   4.712
41320W        W  416   0.294  35.929  10.962
41321W        W  417  19.737  14.184   2.805
41322W        W  418  44.330   5.365   0.441
41323W        W  419  35.075   5.376   2.212
41324W        W  420  35.076   9.234  14.504
41325W        W  421  29.002  31.014  10.959
41326W        W  422  38.049  13.764  14.011
41327W        W  423   3.857  31.051   3.841
41328W        W  424   1.254   0.303  12.386
41329W        W  425  44.005   2.865  11.537
41330W        W  426  10.687  41.901  14.421
41331W        W  427  34.078  26.997  11.470
41332W        W  428   3.833  27.101   3.323
41333W        W  429  39.004   3.305   0.296
41334W        W  430   9.716  36.417   4.117
41335W        W  431  22.071  13.294  10.898
41336W        W  432  22.550  30.512   2.718
41337W        W  433  21.148   1.944   9.990
41338W        W  434  40.519  13.270  11.503
41339W        W  435  32.078  41.827   2.744
41340W        W  436  35.052  39.559  14.503
41341W        W  437  29.153  42.871   4.282
41342W        W  438  25.499  44.967  13.818
41343W        W  439  42.783  15.107  12.905
41344W        W  440  17.636  28.643  13.316
41345W        W  441  10.702  29.458   1.305
41346W        W  442  15.763  35.478  14.281
41347W        W  443  33.109   7.686   2.682
41348W        W  444  31.605  19.741  14.337
41349W        W  445  27.182  27.187  14.013
41350W        W  446  19.698   6.725   4.821
41351W        W  447  14.239  30.439   5.613
41352W        W  448  28.598  44.829   1.316
41353W        W  449   7.825  30.511  14.924
41354W        W  450  30.626  24.066  10.638
41355W        W  451  10.776   6.195   3.271
41356W        W  452  20.523   2.761  11.498
41357W        W  453   0.295  24.712   4.237
41358W        W  454  14.678  32.008   3.350
41359W        W  455  12.361  20.568  13.346
41360W        W  456   6.724   6.337   4.812
41361W        W  457  19.280   0.413  13.057
41362W        W  458  44.964  15.125   0.383
41363W        W  459  39.843  25.963   2.750
41364W        W  460  37.474  28.567   0.923
41365W        W  461   6.359  16.616   2.399
41366W        W  462  22.209  41.372   3.175
41367W        W  463  34.997  40.828  11.054
41368W        W  464  11.624   0.851   3.290
41369W        W  465  29.963  22.031  11.492
41370W        W  466   2.288   5.779   0.895
41371W        W  467  40.853  18.138  11.439
41372W        W  468  42.476  43.321  14.302
41373W        W  469  11.632  16.089   1.749
41374W        W  470  17.792  10.713   9.440
41375W        W  471  10.661  39.008  14.893
41376W        W  472  42.829  15.812  14.365
41377W        W  473  29.479  29.132   3.287
41378W        W  474  13.701   2.445  10.963
41379W        W  475  24.652  22.224   2.256
41380W        W  476  10.770  41.859   4.712
41381W        W  477  13.313  26.553   2.671
41382W        W  478  22.693  31.076   4.199
41383W        W  479  40.001  19.121  11.510
41384W        W  480  38.985  37.940  11.012
41385W        W  481  22.615  31.503   2.291
41386W        W  482  16.685   7.381  10.526
41387W        W  483  44.359   6.356  13.871
41388W        W  484   4.256  23.991   1.737
41389W        W  485   7.665   5.909  13.821
41390W        W  486   3.772  22.194   4.307
41391W        W  487  10.216  44.448   4.715
41392W        W  488   6.724  26.610   1.257
41393W        W  489  34.931  31.018   3.156
41394W        W  490  14.601   9.303  12.562
41395W        W  491  41.382  22.577  12.530
41396W        W  492   6.765   7.273  13.316
41397W        W  493   6.248   1.378  14.913
41398W        W  494  14.325   9.171  14.986
41399W        W  495  31.026   0.748   1.220
41400W        W  496  20.178  20.060   3.812
41401W        W  497  35.486  43.980   4.231
41402W        W  498  35.456  35.465   4.309
41403W        W  499  32.965  28.944  11.586
41404W        W  500  41.506  22.098   2.889
41405W        W  501   9.708   0.868   3.150
41406W        W  502  12.299  12.293  10.938
41407W        W  503   0.911  24.212   2.871
41408W        W  504  44.283  16.159   4.663
41409W        W  505  31.991  31.011   3.763
41410W        W  506  19.542  21.060   3.657
41411W        W  507  32.103  20.217   4.220
41412W        W  508   8.204   7.278   0.793
41413W        W  509   0.359  23.218  14.324
41414W        W  510  12.786  24.075   4.296
41415W        W  511  29.451   0.852  11.607
41416W        W  512   7.805  40.393  12.536
41417W        W  513  33.019  44.384  13.829
41418W        W  514  14.223  33.404  10.531
41419W        W  515  27.134   5.305  14.776
41420W        W  516  30.105  40.440  14.279
41421W        W  517  11.734  33.426  14.355
41422W        W  518  17.071  39.539   3.686
41423W        W  519   1.915  22.706   0.766
41424W        W  520  36.378  31.118  10.472
41425W        W  521  32.464   1.771   2.697
41426W        W  522  43.977  30.110  12.973
41427W        W  523  25.204  43.919   0.276
41428W        W  524   2.730  34.889   2.381
41429W        W  525  27.566  42.476  13.440
41430W        W  526  11.259  26.093  14.465
41431W        W  527  17.083  16.606  11.448
41432W        W  528  37.514  36.586   0.435
41433W        W  529   3.456   3.888  11.489
41434W        W  530  10.807  31.135   1.706
41435W        W  531   1.295  15.243  10.534
41436W        W  532  15.285  21.538   0.857
41437W        W  533  44.914   1.476   2.237
41438W        W  534  23.561  17.718   2.814
41439W        W  535  27.143  13.820   4.302
41440W        W  536   3.905  29.139  13.473
41441W        W  537  21.564  30.601   5.208
41442W        W  538  26.179  38.423  12.571
41443W        W  539   8.406  36.059   4.144
41444W        W  540  29.458  41.398  12.382
41445W        W  541  41.886   3.256   4.807
41446W        W  542   1.274   6.874   3.804
41447W        W  543  12.693  13.744   4.345
41448W        W  544  34.875  40.920  12.924
41449W        W  545  37.020   8.189  12.427
41450W        W  546   1.450  34.058   1.254
41451W        W  547   6.882  26.599   0.780
41452W        W  548   5.315  27.057   3.719
41453W        W  549  21.566  30.155   3.157
41454W        W  550   4.853  35.857  10.156
41455W        W  551  37.521  16.307  14.449
41456W        W  552  36.381   5.375  12.405
41457W        W  553   4.730  42.439  14.403
41458W        W  554  40.797   3.413   3.840
41459W        W  555   3.903   8.865  11.123
41460W        W  556   3.271  24.719  13.442
41461W        W  557  34.001  41.967   4.819
41462W        W  558  36.559  32.068  10.049
41463W        W  559  11.655  43.387   4.715
41464W        W  560  30.102  23.140   4.163
41465W        W  561   3.306  23.617   3.167
41466W        W  562  24.103  18.139   0.283
41467W        W  563  20.203  34.969   2.767
41468W        W  564  13.835   7.387  14.012
41469W        W  565  26.157   4.449   3.339
41470W        W  566   8.795  28.999   1.886
41471W        W  567  37.027  24.569  14.967
41472W        W  568   8.802  14.094  10.948
41473W        W  569  36.436  31.570   3.254
41474W        W  570  33.892   7.377   4.147
41475W        W  571  22.033  38.901  10.993
41476W        W  572  20.594  27.002   2.247
41477W        W  573  17.261  16.612  14.413
41478W        W  574   0.906   5.366   2.327
41479W        W  575  15.817  30.606   1.341
41480W        W  576  20.050   8.713   2.251
41481W        W  577  24.061  35.994  14.416
41482W        W  578  32.918  39.990  11.488
41483W        W  579  25.647  28.454  13.351
41484W        W  580  14.248  41.846   5.321
41485W        W  581  21.204  38.542  13.324
41486W        W  582   9.802  12.270  14.003
41487W        W  583  30.142  10.283  13.325
41488W        W  584   9.655  10.329   3.725
41489W        W  585  42.448   1.945  13.933
41490W        W  586  42.787  28.610  14.859
41491W        W  587   8.370  21.578  12.972
41492W        W  588   7.889  42.338   3.199
41493W        W  589  10.164  27.617  12.439
41494W        W  590  41.011  39.813   0.880
41495W        W  591   2.313   0.965   2.369
41496W        W  592  44.819  33.506  11.604
41497W        W  593   3.763  29.096   5.232
41498W        W  594  39.321  41.447  10.601
41499W        W  595  10.674  40.427  10.579
41500W        W  596  14.762  16.172   3.313
41501W        W  597  36.915  22.205   3.152
41502W        W  598  36.577  16.312  13.026
41503W        W  599  40.502   4.813   3.652
41504W        W  600   4.399   8.359   2.796
41505W        W  601  15.723  20.686  14.897
41506W        W  602   8.344  19.220   3.380
41507W        W  603  32.504  37.488  13.025
41508W        W  604   5.271  14.799   0.428
41509W        W  605  44.770   8.845   4.223
41510W        W  606   3.248  31.122   2.762
41511W        W  607  39.830  36.003  13.526
41512W        W  608   5.316   0.922   1.260
41513W        W  609  33.624  41.024  11.897
41514W        W  610  42.955  13.817   1.303
41515W        W  611  25.484  28.669   4.705
41516W        W  612  32.116   2.909   0.377
41517W        W  613   0.823  22.056  12.971
41518W        W  614  20.681   7.892   4.658
41519W        W  615  38.050  24.090  14.404
41520W        W  616  10.796  26.516  13.905
41521W        W  617  41.976   2.232   1.854
41522W        W  618  38.017  42.362  10.639
41523W        W  619  32.886   3.425   4.209
41524W        W  620  31.480  41.916  13.011
41525W        W  621  31.933  13.188  12.058
41526W        W  622  11.703  38.428  11.609
41527W        W  623  30.452  25.646   1.341
41528W        W  624  22.694  26.503   2.748
41529W        W  625   0.353  19.167   1.399
41530W        W  626  13.740  36.932   3.642
41531W        W  627   8.893  42.441  14.939
41532W        W  628  41.815  13.259   2.701
41533W        W  629  37.043  20.190  10.547
41534W        W  630  17.623  35.880   2.181
41535W        W  631  35.443  32.940   1.305
41536W        W  632  36.010  32.908  11.933
41537W        W  633   5.914  41.982  12.839
41538W        W  634  11.797  22.179  12.352
41539W        W  635   9.803   2.451   2.249
41540W        W  636   2.952   8.398   4.200
41541W        W  637  39.548  28.055   0.853
41542W        W  638  30.154  34.427  10.471
41543W        W  639  43.275   4.309  11.525
41544W        W  640  21.624   7.183  13.471
41545W        W  641   8.771  20.218  13.972
41546W        W  642   4.360  31.409  10.421
41547W        W  643   2.798  22.731  14.327
41548W        W  644  37.413   2.869   2.724
41549W        W  645  36.064  23.726   5.621
41550W        W  646  18.621   5.768   2.315
41551W        W  647  26.593  31.520   4.312
41552W        W  648  20.536  30.014   1.416
41553W        W  649   6.393  34.087   2.225
41554W        W  650   7.766  42.379  11.427
41555W        W  651  20.570  19.254  13.976
41556W        W  652  22.694  16.720  13.841
41557W        W  653   4.942  16.614  12.865
41558W        W  654   3.898  17.165  10.427
41559W        W  655  35.525  34.076  11.383
41560W        W  656  29.602  11.819   0.754
41561W        W  657  22.036  39.551  13.435
41562W        W  658   8.834  21.227   4.249
41563W        W  659  34.516  40.367  11.914
41564W        W  660  41.407  43.447   2.394
41565W        W  661  27.567   8.852   4.123
41566W        W  662  23.015  14.215   3.709
41567W        W  663  22.661  29.542  11.008
41568W        W  664  26.471  31.517   3.173
41569W        W  665   3.917   3.316  13.341
41570W        W  666  44.422  25.565  11.591
41571W        W  667  32.080  43.815  11.479
41572W        W  668  22.177  33.460   2.743
41573W        W  669   3.392  18.218  13.007
41574W        W  670  26.175  27.116   1.909
41575W        W  671   9.224  27.571  13.395
41576W        W  672  37.544  19.160  10.968
41577W        W  673  13.681   7.390  13.406
41578W        W  674  24.999   4.802   1.814
41579W        W  675   7.412  31.495  14.326
41580W        W  676   4.226  29.146  13.389
41581W        W  677  39.939  11.648   1.754
41582W        W  678   0.777   2.358   4.165
41583W        W  679  11.673   9.154   1.290
41584W        W  680   0.924  40.411   0.451
41585W        W  681  41.792  43.438   4.170
41586W        W  682   3.920  30.940   3.181
41587W        W  683  40.531   3.757   3.831
41588W        W  684   0.303  25.628   4.236
41589W        W  685  26.073  12.125  12.341
41590W        W  686   6.716   2.922   2.902
41591W        W  687   0.758  17.141  13.866
41592W        W  688  41.792  44.288  14.992
41593W        W  689  20.227  34.867   2.302
41594W        W  690  10.274   6.877   4.209
41595W        W  691   3.885  16.275   4.150
41596W        W  692  37.576   8.242  14.367
41597W        W  693  13.707  40.870  13.909
41598W        W  694  19.630  15.155   4.739
41599W        W  695  42.475  11.728  14.459
41600W        W  696   5.797  16.223  12.004
41601W        W  697  13.230   2.420   4.157
41602W        W  698  38.952  18.707   4.783
41603W        W  699   1.280  37.952  12.849
41604W        W  700  22.689   3.826  10.984
41605W        W  701  16.264  35.883   1.922
41606W        W  702   4.205   7.730   0.446
41607W        W  703  25.206  31.419  13.909
41608W        W  704   2.448  21.235  11.496
41609W        W  705  37.441  32.535  14.915
41610W        W  706   4.859  35.587  10.521
41611W        W  707  15.699   3.408   1.423
41612W        W  708  15.690   7.904   2.784
41613W        W  709  21.198  22.182  12.070
41614W        W  710  35.056  12.247  11.410
41615W        W  711  36.467   5.750   0.401
41616W        W  712  38.364  13.274  10.904
41617W        W  713  29.015  41.829   3.178
41618W        W  714  43.916  32.495  13.515
41619W        W  715  40.959  37.540   3.731
41620W        W  716  22.645  21.086  14.026
41621W        W  717  38.360  44.371  13.845
41622W        W  718  24.009  40.354  13.469
41623W        W  719  32.394  37.079  12.543
41624W        W  720  32.457  10.635   3.375
41625W        W  721  19.106  35.045   3.244
41626W        W  722  30.001   8.324   2.750
41627W        W  723  15.136  39.007   1.354
41628W        W  724  21.077  23.118  13.030
41629W        W  725  14.612  27.613  11.085
41630W        W  726  20.196  44.832  14.464
41631W        W  727  31.116  10.720  14.785
41632W        W  728  37.004   8.675   9.550
41633W        W  729  26.038  26.099   3.803
41634W        W  730  20.062  11.156  10.938
41635W        W  731  37.423  30.442  12.840
41636W        W  732  27.960  41.889  14.918
41637W        W  733  17.555  41.007  11.404
41638W        W  734  42.015  13.701  14.966
41639W        W  735  19.056  24.018   4.336
41640W        W  736  24.535  35.068   3.290
41641W        W  737   2.464  39.342  12.038
41642W        W  738  32.552  27.954  13.385
41643W        W  739  34.514  44.389  13.357
41644W        W  740  28.136  42.874   4.350
41645W        W  741  23.543   2.722   0.413
41646W        W  742  17.667   4.762   1.732
41647W        W  743  39.325  33.920   2.682
41648W        W  744   1.347  21.642   1.698
41649W        W  745  18.649  14.761   2.775
41650W        W  746  37.970   9.391   0.389
41651W        W  747  38.939  13.331   4.654
41652W        W  748  36.979  36.567   2.769
41653W        W  749  30.003  32.602  14.443
41654W        W  750   8.341  28.050  14.825
41655W        W  751  39.512  31.532   1.833
41656W        W  752  27.545   7.377   2.715
41657W        W  753  39.025  13.820  11.999
41658W        W  754  16.212  20.541   4.807
41659W        W  755  24.079  26.168  11.484
41660W        W  756  13.254  25.095   5.088
41661W        W  757  34.024   6.688   0.854
41662W        W  758   9.736  42.506   2.311
41663W        W  759  30.623   0.914   2.807
41664W        W  760   7.833  43.490  13.498
41665W        W  761  20.257   1.337  12.047
41666W        W  762  21.200   1.340   0.476
41667W        W  763  23.725  26.093  10.597
41668W        W  764  15.323  43.782   2.709
41669W        W  765  21.661  25.200  13.993
41670W        W  766  41.844   6.419   0.807
41671W        W  767  20.254  17.695  13.436
41672W        W  768  15.151  23.138  11.126
41673W        W  769  12.215  38.501   0.750
41674W        W  770   5.385  20.755   3.303
41675W        W  771  37.565  44.391   2.846
41676W        W  772  38.931  13.841  10.421
41677W        W  773   1.748  12.707   0.775
41678W        W  774  10.832  38.550  11.963
41679W        W  775  25.979  23.641  14.326
41680W        W  776  15.218  31.453   4.612
41681W        W  777  27.577  17.768   1.254
41682W        W  778  35.059   7.790   0.835
41683W        W  779  34.883   2.930  12.399
41684W        W  780  18.271   2.745   1.406
41685W        W  781  32.076   7.744  14.954
41686W        W  782  31.490  40.909   3.659
41687W        W  783  11.673   0.445  12.388
41688W        W  784  38.993  37.446  14.340
41689W        W  785  39.430  24.673  13.982
41690W        W  786   8.319  33.495   2.368
41691W        W  787  26.569  41.520   1.361
41692W        W  788   3.361  20.702  13.438
41693W        W  789  35.491   8.873   2.290
41694W        W  790  25.125   2.448   3.680
41695W        W  791  17.116   0.257   2.280
41696W        W  792   7.721   7.751  12.398
41697W        W  793  24.723   0.434  12.861
41698W        W  794  15.293  14.178   1.318
41699W        W  795  20.200  21.738   0.243
41700W        W  796  29.455  10.244  13.063
41701W        W  797   7.685   9.712  13.850
41702W        W  798  43.767   0.438  13.002
41703W        W  799  11.318  38.965   2.210
41704W        W  800  36.557   6.190  14.492
41705W        W  801  17.209   5.739   2.881
41706W        W  802  11.144  26.630   3.830
41707W        W  803  27.093  26.573   3.758
41708W        W  804  36.350  35.901  11.106
41709W        W  805  12.210  23.100  10.558
41710W        W  806   8.680  14.596  11.510
41711W        W  807  32.055  17.778   2.780
41712W        W  808   4.717  35.579   4.649
41713W        W  809  12.726   2.371   0.847
41714W        W  810  41.868  35.586   2.835
41715W        W  811  41.427  33.551  11.394
41716W        W  812  36.383  40.932  11.031
41717W        W  813  41.838  22.056  13.307
41718W        W  814   3.269  41.822  14.026
41719W        W  815  13.696  10.164  10.583
41720W        W  816  21.526  24.661  13.912
41721W        W  817  18.709  37.978   0.731
41722W        W  818  20.760  13.812  11.999
41723W        W  819  15.787  28.660   0.333
41724W        W  820  18.226  37.344   4.736
41725W        W  821  12.143   6.754  14.822
41726W        W  822  20.135  28.066  14.346
41727W        W  823  31.908  28.520  10.932
41728W        W  824  22.516  15.754   5.313
41729W        W  825  23.723  36.492   1.344
41730W        W  826  38.506  36.882  14.960
41731W        W  827  27.683  35.524  14.949
41732W        W  828  21.537  28.945   1.707
41733W        W  829   9.812  41.375  13.502
41734W        W  830  10.224  33.528   3.275
41735W        W  831   4.941  19.223  11.493
41736W        W  832   5.319   6.770   2.224
41737W        W  833  41.332   2.739  11.542
41738W        W  834  28.442  30.915   0.261
41739W        W  835  27.558  17.620  10.404
41740W        W  836  25.509   2.824   1.745
41741W        W  837  19.603  15.122   2.902
41742W        W  838  35.454   6.749  13.322
41743W        W  839   1.911  16.246   1.798
41744W        W  840  44.501  27.608  14.014
41745W        W  841   6.363  27.553  11.552
41746W        W  842  31.540  23.665   9.630
41747W        W  843  38.971   4.832   2.783
41748W        W  844   3.711  16.216   1.704
41749W        W  845  11.154   2.797   1.347
41750W        W  846  19.221  34.930   2.828
41751W        W  847  11.179  14.588   0.449
41752W        W  848  32.484  21.185  11.119
41753W        W  849  10.778  18.721   2.884
41754W        W  850  40.532  28.118  10.435
41755W        W  851   2.760  36.842   0.939
41756W        W  852   1.893   2.819   0.443
41757W        W  853  26.168   2.334  11.054
41758W        W  854  22.236  13.213  14.412
41759W        W  855  20.711   1.962  10.467
41760W        W  856   4.778  39.376  13.900
41761W        W  857  28.462  36.921   4.274
41762W        W  858  27.660  35.924   2.204
41763W        W  859  35.079  10.648   1.212
41764W        W  860  20.649  33.938  13.993
41765W        W  861  10.714  31.543  11.555
41766W        W  862  19.678  31.918   1.828
41767W        W  863   9.650  27.137   4.279
41768W        W  864  31.897  14.115  13.322
41769W        W  865  11.263  25.204  12.074
41770W        W  866  36.862  33.508   0.431
41771W        W  867   4.749  30.550   2.687
41772W        W  868  40.452  21.576   1.398
41773W        W  869   8.376  34.532   2.863
41774W        W  870  16.626   6.214   4.353
41775W        W  871  32.400  35.022  13.884
41776W        W  872  31.124   7.373   4.803
41777W        W  873  40.479   2.965  10.605
41778W        W  874  44.436  27.960  13.320
41779W        W  875   9.234  23.236   1.872
41780W        W  876  12.781  18.146  11.518
41781W        W  877   2.760  16.614  12.087
41782W        W  878  36.851  32.572  11.970
41783W        W  879  25.133  42.341   0.403
41784W        W  880  38.561  22.136  14.027
41785W        W  881  32.043  35.941   0.272
41786W        W  882  16.668  12.117  11.599
41787W        W  883  24.518  31.558  14.347
41788W        W  884  41.452   8.859   2.354
41789W        W  885   3.750  15.325  12.483
41790W        W  886  20.706  20.169   1.805
41791W        W  887  17.710  34.977   1.884
41792W        W  888   2.942  17.672  11.391
41793W        W  889  39.023   2.763  12.512
41794W        W  890   8.695  23.557   3.170
41795W        W  891  42.510   8.242  14.773
41796W        W  892  11.267  38.953   4.830
41797W        W  893  41.356  20.274  12.921
41798W        W  894  35.005  34.100  14.915
41799W        W  895  19.621  22.594   4.133
41800W        W  896  23.187  40.981  11.905
41801W        W  897  20.199   4.776  10.458
41802W        W  898  29.663  27.571   1.214
41803W        W  899  39.394  11.659   2.376
41804W        W  900  24.493   2.824  10.627
41805W        W  901  42.787  29.663  11.922
41806W        W  902   8.187  26.067   1.740
41807W        W  903  19.541  33.083   1.913
41808W        W  904  11.320  28.648  10.471
41809W        W  905  14.773  37.889   3.836
41810W        W  906  31.444  13.683  13.897
41811W        W  907  41.793  37.349  10.153
41812W        W  908  44.355  38.970  11.927
41813W        W  909  43.356  23.570  10.489
41814W        W  910   2.276  21.118   3.314
41815W        W  911  16.282  15.736   0.378
41816W        W  912  26.570  27.504  11.957
41817W        W  913  20.655  39.846  11.875
41818W        W  914  13.842  44.951   1.278
41819W        W  915  13.656  17.300   2.307
41820W        W  916  16.675  42.844  11.076
41821W        W  917  23.558  36.012   4.232
41822W        W  918  19.282  28.121   0.893
41823W        W  919  20.762  19.157   1.226
41824W        W  920  21.118  16.676  14.491
41825W        W  921   2.725  29.572  10.502
41826W        W  922  37.571  35.017  14.484
41827W        W  923  44.366  31.913  12.050
41828W        W  924  15.798   6.739  13.941
41829W        W  925  16.704   3.277  10.081
41830W        W  926  26.161  20.031  12.537
41831W        W  927  42.909  13.207  11.516
41832W        W  928   1.425  20.581  11.876
41833W        W  929  30.617  10.740   1.782
41834W        W  930  32.926   3.380  11.885
41835W        W  931  28.940  34.112   3.377
41836W        W  932   2.322  28.995  13.998
41837W        W  933   6.232  37.085  14.394
41838W        W  934  20.658   5.891   1.347
41839W        W  935  12.245   7.400   0.838
41840W        W  936   8.895  44.852  12.999
41841W        W  937  40.409  13.630  13.520
41842W        W  938  28.028  40.890  11.061
41843W        W  939  32.402  36.391  13.870
41844W        W  940  40.369  19.170   1.367
41845W        W  941  33.977   0.781  11.554
41846W        W  942  18.098   6.708   2.775
41847W        W  943   4.868  25.104   4.138
41848W        W  944  19.117  44.339   3.751
41849W        W  945  26.965  28.447  14.511
41850W        W  946  28.118  44.856  12.853
41851W        W  947  35.048  29.013  13.410
41852W        W  948  42.346  22.021  14.484
41853W        W  949   8.683  30.030   0.912
41854W        W  950  28.969  35.981   1.915
41855W        W  951  11.696  34.939  13.369
41856W        W  952  32.527   2.838   3.178
41857W        W  953   6.197   8.898  12.919
41858W        W  954  21.206  40.937   3.147
41859W        W  955   7.226   5.310   0.298
41860W        W  956   7.276  33.390   5.200
41861W        W  957  33.073  13.239   3.200
41862W        W  958  31.967  32.461  14.946
41863W        W  959  43.794  19.093  11.906
41864W        W  960  23.523  33.439   1.387
41865W        W  961  35.364  17.209   2.277
41866W        W  962  10.832  31.928   3.188
41867W        W  963  33.891  16.779  12.057
41868W        W  964  19.731  44.850   3.154
41869W        W  965  42.893   3.925   3.774
41870W        W  966   2.394  21.132  10.059
41871W        W  967  12.787  43.902  11.064
41872W        W  968  11.151  32.423  13.381
41873W        W  969   8.797  19.109   4.218
41874W        W  970  26.199   9.854  14.797
41875W        W  971  19.664  13.348   3.655
41876W        W  972  31.524  35.997   0.462
41877W        W  973  43.309  25.696  14.860
41878W        W  974  31.900  11.661   3.732
41879W        W  975  28.445  34.008   3.333
41880W        W  976  30.091   0.887   1.385
41881W        W  977  15.154  30.444   4.691
41882W        W  978  27.562  38.566   1.401
41883W        W  979  39.958   3.838  12.498
41884W        W  980  15.095  17.182  12.395
41885W        W  981  37.847  15.141   3.363
41886W        W  982  20.641  39.345   3.276
41887W        W  983  35.957  27.039   3.817
41888W        W  984  22.520   1.247  14.895
41889W        W  985  23.167   2.768   0.727
41890W        W  986  33.385  20.206  14.031
41891W        W  987  31.435   5.257  13.464
41892W        W  988  21.690  16.770  10.606
41893W        W  989   0.412  26.134  11.560
41894W        W  990  16.185  28.135  11.395
41895W        W  991  12.198  27.983   0.861
41896W        W  992  35.496  24.603   9.992
41897W        W  993  16.648  36.068  14.781
41898W        W  994   4.286  28.950   0.458
41899W        W  995  42.355  12.842   2.319
41900W        W  996  36.942   0.400  14.390
41901W        W  997  29.022  38.843  13.808
41902W        W  998  27.655   8.338  11.410
41903W        W  999   4.808  19.046   1.695
41904W        W 1000  40.920  20.549  14.954
41905W        W 1001  18.138  35.552   0.833
41906W        W 1002   2.762   9.859   4.696
41907W        W 1003  14.672  18.138  12.848
41908W        W 1004  44.395   5.309   3.270
41909W        W 1005   2.378  17.680  14.882
41910W        W 1006  25.551   2.341  13.534
41911W        W 1007  18.100  39.811  13.969
41912W        W 1008  41.940  12.630   3.352
41913W        W 1009  43.831  40.417  14.410
41914W        W 1010  40.546  38.459  12.968
41915W        W 1011  13.322  15.107   1.782
41916W        W 1012  39.949   3.420   3.837
41917W        W 1013  32.986  11.344   2.812
41918W        W 1014  31.929  28.184   4.308
41919W        W 1015   7.738  12.121   0.399
41920W        W 1016  42.964  16.207  11.902
41921W        W 1017  14.734  20.740  13.035
41922W        W 1018  17.169  38.819  11.937
41923W        W 1019  29.107  37.999  14.844
41924W        W 1020  23.124  29.921  14.306
41925W        W 1021  27.607   8.868   4.815
41926W        W 1022  44.979  16.577   3.676
41927W        W 1023  12.675  24.125   2.218
41928W        W 1024  30.580  33.955   2.796
41929W        W 1025  28.479  20.714   1.249
41930W        W 1026   2.238  26.672  10.118
41931W        W 1027  13.657  16.653   5.581
41932W        W 1028   0.877  36.081   2.185
41933W        W 1029  14.111  26.641  10.605
41934W        W 1030  17.148   6.700  10.943
41935W        W 1031  13.788  12.786  12.548
41936W        W 1032  43.503  26.585   2.382
41937W        W 1033  43.322   9.204   2.331
41938W        W 1034  18.641  31.407  12.095
41939W        W 1035  11.739  19.642  14.928
41940W        W 1036  37.062  40.955   0.758
41941W        W 1037  31.043  16.313   0.727
41942W        W 1038  17.183   9.172   0.904
41943W        W 1039  21.749  11.697  12.059
41944W        W 1040   0.398  38.954  10.509
41945W        W 1041  12.711   9.849   3.773
41946W        W 1042  11.282  35.908  11.447
41947W        W 1043  29.579  13.794  11.439
41948W        W 1044  11.173  36.889  11.098
41949W        W 1045  23.134  22.730   4.748
41950W        W 1046  17.079  37.364  12.018
41951W        W 1047   2.858  25.164  14.448
41952W        W 1048   4.276  37.555   2.360
41953W        W 1049  27.550  26.543  14.384
41954W        W 1050  23.125   8.222  14.435
41955W        W 1051   7.795  28.119   2.811
41956W        W 1052  42.289  30.603  11.452
41957W        W 1053  42.316  30.959   3.812
41958W        W 1054   3.366   5.900  11.967
41959W        W 1055  25.539  22.108  10.083
41960W        W 1056  10.695  38.398  11.595
41961W        W 1057  14.335  35.873  12.953
41962W        W 1058  36.947  27.561   4.236
41963W        W 1059  30.027  11.737   2.864
41964W        W 1060  11.146  18.772   3.163
41965W        W 1061  29.139   6.267   4.152
41966W        W 1062  22.635  26.572  13.931
41967W        W 1063  11.217   7.811  14.453
41968W        W 1064  15.821  35.580  11.399
41969W        W 1065  39.419  31.107  12.484
41970W        W 1066   1.803  28.500  13.353
41971W        W 1067  28.478  24.640   4.261
41972W        W 1068  44.795  17.760   4.225
41973W        W 1069  26.685  23.009  11.932
41974W        W 1070  25.579  35.557   4.117
41975W        W 1071  35.383  22.065   5.204
41976W        W 1072  36.455  16.702  12.492
41977W        W 1073   1.852  37.458  13.972
41978W        W 1074  17.751  28.499   4.761
41979W        W 1075  37.499  39.417   3.765
41980W        W 1076  23.565  33.974   2.809
41981W        W 1077  11.168   4.800   3.838
41982W        W 1078  16.168   5.405   0.392
41983W        W 1079   9.328  37.021   3.801
41984W        W 1080   9.854  34.580  10.579
41985W        W 1081  10.306   4.299  11.592
41986W        W 1082  25.476  31.579   0.834
41987W        W 1083  28.666  14.219  14.320
41988W        W 1084  16.076  33.990   1.809
41989W        W 1085  35.087  11.149   4.732
41990W        W 1086  27.641  37.419   0.434
41991W        W 1087  13.844  33.954  10.138
41992W        W 1088  11.763  16.211   3.177
41993W        W 1089   1.879  18.121   2.768
41994W        W 1090   2.268  28.131   4.763
41995W        W 1091  20.728  11.743  11.923
41996W        W 1092  35.101  31.128   1.824
41997W        W 1093   1.434   4.780  14.454
41998W        W 1094   7.212  12.843  11.607
41999W        W 1095  25.137   4.839   9.935
42000W        W 1096  34.565  28.134   1.897
42001W        W 1097  42.479  20.237   2.344
42002W        W 1098   1.760  30.603  13.483
42003W        W 1099   2.365  32.042  11.873
42004W        W 1100  40.373   4.244  10.571
42005W        W 1101  43.861  19.709  14.283
42006W        W 1102  19.112  16.264   2.355
42007W        W 1103   1.402  42.455   1.715
42008W        W 1104  16.578  44.490  10.970
42009W        W 1105  33.007  25.490   4.130
42010W        W 1106  31.054   9.168   1.293
42011W        W 1107   4.793  32.077  13.371
42012W        W 1108  15.631   9.395   4.717
42013W        W 1109  39.975  42.960   4.287
42014W        W 1110  19.137   8.796   0.259
42015W        W 1111   8.894   2.348  12.429
42016W        W 1112  33.413  37.494  13.916
42017W        W 1113   3.292  30.454  12.498
42018W        W 1114  24.534  28.513   0.477
42019W        W 1115  18.142  39.449  12.521
42020W        W 1116  37.407  17.665  14.811
42021W        W 1117  21.697  14.742   4.245
42022W        W 1118  27.689  43.379  14.465
42023W        W 1119  23.522  13.758  11.001
42024W        W 1120  32.550  22.037   4.823
42025W        W 1121  18.259   4.344  12.572
42026W        W 1122  17.713  17.628   2.812
42027W        W 1123  15.695   3.410   2.249
42028W        W 1124  12.705  34.447   4.288
42029W        W 1125   3.739  24.515   2.888
42030W        W 1126  11.200   7.843   4.803
42031W        W 1127  13.203   0.834  11.944
42032W        W 1128  29.984   4.736   3.356
42033W        W 1129   1.402   4.797   0.291
42034W        W 1130  36.999  13.637  12.516
42035W        W 1131  22.022  33.935  10.892
42036W        W 1132  38.511  11.291   0.372
42037W        W 1133   8.378  20.071   1.761
42038W        W 1134  10.163  18.171  11.887
42039W        W 1135  29.129  32.476   3.633
42040W        W 1136  14.819   7.410  11.610
42041W        W 1137  29.983  36.975   4.263
42042W        W 1138  19.707   9.246  12.007
42043W        W 1139  33.511  36.434  12.078
42044W        W 1140  35.894   4.743  11.549
42045W        W 1141  10.871   3.943  14.279
42046W        W 1142  12.140  31.991  13.873
42047W        W 1143  31.146  15.583   1.214
42048W        W 1144   1.325  11.142  14.920
42049W        W 1145  11.836   0.472  11.934
42050W        W 1146  32.137  34.488   1.430
42051W        W 1147  19.269  16.138  13.009
42052W        W 1148  29.639  36.844   4.306
42053W        W 1149  19.572  41.978   1.439
42054W        W 1150   4.366   1.280  12.913
42055W        W 1151  42.949  34.104   3.727
42056W        W 1152  42.874  34.039   4.735
42057W        W 1153  24.025  40.037   0.297
42058W        W 1154  26.204  21.659  13.453
42059W        W 1155  25.700  30.114   0.333
42060W        W 1156  10.783  11.745  13.836
42061W        W 1157  44.423  32.020   3.265
42062W        W 1158  26.996  23.682   4.141
42063W        W 1159  21.527  12.331  10.526
42064W        W 1160  26.547  44.784   0.247
42065W        W 1161  24.507  33.616   1.873
42066W        W 1162  11.139  17.790   2.369
42067W        W 1163  31.032  34.370   3.743
42068W        W 1164  25.079  16.095  11.895
42069W        W 1165  35.587   2.929  10.920
42070W        W 1166  39.480   4.319  13.041
42071W        W 1167   0.961  36.877   2.250
42072W        W 1168   8.860  24.056  10.503
42073W        W 1169  19.576   4.300  14.935
42074W        W 1170   9.335  28.477  12.979
42075W        W 1171  18.601  41.872  10.604
42076W        W 1172   3.382  28.455  13.851
42077W        W 1173   4.814  39.926  14.979
42078W        W 1174  42.917  29.614  13.884
42079W        W 1175  10.780  15.307   1.778
42080W        W 1176   2.965  17.261  11.606
42081W        W 1177  34.099  32.571  12.463
42082W        W 1178  36.038  12.327   2.297
42083W        W 1179  21.698  12.730  14.863
42084W        W 1180  16.674  25.627  12.516
42085W        W 1181   0.865  17.792  14.770
42086W        W 1182  23.514  14.241   0.439
42087W        W 1183  11.786  40.809  11.399
42088W        W 1184  23.641  37.371   4.760
42089W        W 1185   4.285  29.436  13.851
42090W        W 1186  24.188  30.480  12.389
42091W        W 1187  26.082  33.604   3.750
42092W        W 1188  42.834  24.487  13.793
42093W        W 1189  40.921  32.981  11.127
42094W        W 1190  35.437   1.975   3.854
42095W        W 1191  14.812  29.047  14.950
42096W        W 1192   1.965  39.949  11.122
42097W        W 1193  36.367  22.693   3.199
42098W        W 1194  32.003  38.060   3.344
42099W        W 1195  43.298  22.072  10.635
42100W        W 1196  14.201   3.862  10.556
42101W        W 1197  43.416  11.727   2.808
42102W        W 1198  41.400  14.693   0.739
42103W        W 1199  35.892   4.403   0.478
42104W        W 1200  19.779   7.684  14.004
42105W        W 1201  38.859  38.532  14.972
42106W        W 1202  15.184   0.836   2.240
42107W        W 1203   0.750   4.332  14.431
42108W        W 1204  39.941   1.904  12.967
42109W        W 1205   2.441  38.879  13.327
42110W        W 1206  35.534  23.086  14.929
42111W        W 1207  31.014   3.248   3.860
42112W        W 1208  13.140  21.142   2.301
42113W        W 1209  38.895  14.221   4.294
42114W        W 1210  32.073  19.541  14.982
42115W        W 1211   3.870  14.173  13.983
42116W        W 1212  10.639   8.891   0.302
42117W        W 1213   0.742  22.075  12.413
42118W        W 1214  44.794  16.788  11.558
42119W        W 1215  39.932  33.512   2.194
42120W        W 1216  39.949   2.883  12.977
42121W        W 1217  18.170  12.312  14.868
42122W        W 1218  25.200   9.171   2.251
42123W        W 1219   5.744  17.646  12.981
42124W        W 1220   4.265  15.702   0.333
42125W        W 1221  28.630  22.122   0.330
42126W        W 1222   1.752  34.533   4.172
42127W        W 1223  10.278   5.716   0.390
42128W        W 1224  23.502  37.455  12.880
42129W        W 1225   7.379   8.720  10.967
42130W        W 1226  20.621   9.758  11.972
42131W        W 1227  35.926  37.419   0.966
42132W        W 1228   8.225   5.805   1.271
42133W        W 1229  22.066  34.892   4.164
42134W        W 1230  22.009  26.492   0.849
42135W        W 1231  44.293  25.174  12.552
42136W        W 1232  26.037  43.949  13.919
42137W        W 1233  10.176   1.811   4.644
42138W        W 1234  13.640  10.644   3.708
42139W        W 1235  34.972   6.308   2.355
42140W        W 1236   9.352  37.078   1.257
42141W        W 1237  24.534  27.017   2.262
42142W        W 1238   7.748   1.379   4.756
42143W        W 1239   0.312  38.908   4.218
42144W        W 1240  32.582   2.825   3.666
42145W        W 1241  28.458  32.894   4.251
42146W        W 1242   8.656  31.634   0.305
42147W        W 1243   8.262  39.972  12.976
42148W        W 1244  44.430  44.894   4.802
42149W        W 1245  29.023  19.664  12.977
42150W        W 1246   2.729  39.065   0.886
42151W        W 1247  39.471   7.404   5.146
42152W        W 1248  19.754  39.825   3.647
42153W        W 1249  17.305  19.603  13.406
42154W        W 1250  26.175  12.792   4.280
42155W        W 1251   2.256  24.509  13.803
42156W        W 1252   6.813  23.721   2.712
42157W        W 1253  42.794  12.611   1.215
42158W        W 1254  19.131  10.716  13.383
42159W        W 1255  11.661  31.069   1.874
42160W        W 1256  39.990  44.873   0.321
42161W        W 1257  38.938   0.898  14.818
42162W        W 1258   2.281  19.745  13.854
42163W        W 1259  44.838  28.931  11.480
42164W        W 1260  30.492  15.789  14.939
42165W        W 1261  23.684   5.796   4.285
42166W        W 1262  14.655  10.713  14.955
42167W        W 1263   0.760  20.629  11.887
42168W        W 1264  15.300  29.012  11.424
42169W        W 1265  27.608  33.946  13.893
42170W        W 1266  29.521  33.956  13.895
42171W        W 1267  16.792  27.468   2.348
42172W        W 1268  19.109  43.895   0.477
42173W        W 1269  36.093   1.266   4.330
42174W        W 1270  40.354  39.415  12.537
42175W        W 1271  31.146  27.066   1.412
42176W        W 1272   6.276  26.963  14.809
42177W        W 1273   2.260  26.045   2.874
42178W        W 1274  39.344  14.594  14.964
42179W        W 1275  21.040   1.784   0.933
42180W        W 1276  13.142   1.920   4.706
42181W        W 1277  41.420  25.683  11.588
42182W        W 1278  34.457  41.296  13.968
42183W        W 1279  14.713   9.181  14.888
42184W        W 1280  19.543   3.425   1.803
42185W        W 1281   3.879  33.041   0.245
42186W        W 1282  30.984  23.634   4.206
42187W        W 1283  42.513  31.533  11.094
42188W        W 1284  21.149  26.014   4.246
42189W        W 1285  43.483  16.675   2.884
42190W        W 1286  39.478  36.050   3.170
42191W        W 1287  35.878  24.018   0.243
42192W        W 1288  33.603   2.264  10.891
42193W        W 1289   7.315  24.117   2.860
42194W        W 1290   8.874   5.266   1.284
42195W        W 1291   7.350   6.337   4.687
42196W        W 1292  27.083  33.463  14.863
42197W        W 1293  39.518  13.314   4.176
42198W        W 1294  11.809  37.361  12.391
42199W        W 1295  33.517  39.523  13.341
42200W        W 1296  30.936  26.475   0.408
42201W        W 1297  38.021  26.117   3.323
42202W        W 1298   4.334  43.454  11.116
42203W        W 1299  26.206  40.475   3.221
42204W        W 1300  34.998   2.948   1.368
42205W        W 1301  21.719  18.784   1.845
42206W        W 1302  44.463  44.974   2.720
42207W        W 1303   3.292   5.211  11.566
42208W        W 1304  41.296   1.372  12.422
42209W        W 1305  28.124  38.942  14.905
42210W        W 1306  12.852  19.718   2.346
42211W        W 1307   3.776   0.902   0.246
42212W        W 1308  12.192  30.163   3.172
42213W        W 1309  34.011  29.491   1.326
42214W        W 1310  19.054  42.437  11.110
42215W        W 1311  27.457   8.376  11.011
42216W        W 1312  32.919  17.593   4.744
42217W        W 1313  12.745  24.626   1.728
42218W        W 1314  16.757   2.404  14.961
42219W        W 1315   3.378  14.821  13.514
42220W        W 1316  12.233  36.003   4.335
42221W        W 1317  30.076   9.328   4.775
42222W        W 1318  42.884   4.828  11.474
42223W        W 1319  10.220   1.786  13.451
42224W        W 1320  34.932  18.160  14.451
42225W        W 1321  40.374  13.731   3.316
42226W        W 1322  26.967  38.994  13.032
42227W        W 1323  43.857  14.834   4.294
42228W        W 1324   6.727   5.268   4.819
42229W        W 1325  29.570  11.710  14.459
42230W        W 1326  23.555  13.278   4.340
42231W        W 1327   3.303   2.905  12.382
42232W        W 1328  12.271   2.344  13.973
42233W        W 1329  31.954  27.579  12.559
42234W        W 1330  10.816  21.167   1.872
42235W        W 1331  24.010   3.739  13.948
42236W        W 1332  44.790  27.098  11.077
42237W        W 1333  20.558  35.438  10.626
42238W        W 1334   8.751  35.586   1.398
42239W        W 1335  23.086  19.182  12.416
42240W        W 1336  23.190  38.856   3.799
42241W        W 1337  38.961  12.238  11.031
42242W        W 1338  10.701  23.197   3.270
42243W        W 1339  40.395  13.296  13.989
42244W        W 1340  26.033  10.721   2.720
42245W        W 1341  34.996  38.027  14.000
42246W        W 1342   9.879  40.540  13.509
42247W        W 1343  29.046  34.574   1.346
42248W        W 1344  13.735   3.392  14.310
42249W        W 1345  41.477  15.597  12.417
42250W        W 1346   0.311  39.846   1.748
42251W        W 1347  43.301  26.578   2.901
42252W        W 1348  37.914  20.694  11.533
42253W        W 1349  41.491  35.582  13.852
42254W        W 1350  16.768  36.449  13.051
42255W        W 1351  25.534  24.068  10.464
42256W        W 1352   8.762  24.500   9.460
42257W        W 1353   9.767  35.402   4.194
42258W        W 1354   2.828  38.061  12.478
42259W        W 1355   7.270  43.432   3.831
42260W        W 1356  15.249   9.319  13.999
42261W        W 1357  25.530  36.984  13.885
42262W        W 1358  44.289  36.072  14.790
42263W        W 1359   3.813  25.588   3.726
42264W        W 1360  19.104  31.501  11.929
42265W        W 1361   8.349  41.007  13.534
42266W        W 1362  12.149  29.092   0.858
42267W        W 1363  40.411  12.355   1.417
42268W        W 1364  11.805   6.693   2.884
42269W        W 1365  20.663  22.582   0.899
42270W        W 1366  22.554  44.347   1.277
42271W        W 1367   6.308  14.172   4.242
42272W        W 1368   0.265  21.053  12.465
42273W        W 1369   8.733  41.861  13.039
42274W        W 1370  39.544  13.344   3.692
42275W        W 1371  37.527  18.244  11.532
42276W        W 1372  12.668  38.999  10.426
42277W        W 1373  29.119  32.429   0.751
42278W        W 1374   3.788  27.041  13.801
42279W        W 1375  31.474   4.383   1.370
42280W        W 1376  15.316  44.834  12.005
42281W        W 1377   2.844   4.323  11.081
42282W        W 1378  35.893  11.656   0.322
42283W        W 1379  39.455  32.984   2.834
42284W        W 1380  40.934  25.997  12.852
42285W        W 1381  25.213  42.457  10.453
42286W        W 1382   8.327  12.276   4.139
42287W        W 1383   0.455   4.788  11.980
42288W        W 1384  42.811  26.594  11.456
42289W        W 1385  27.538  39.820  12.957
42290W        W 1386  36.033  38.491  13.365
42291W        W 1387  15.280  23.002  14.828
42292W        W 1388  38.338   0.901   2.867
42293W        W 1389  27.666  37.363   3.369
42294W        W 1390   7.229   8.771  11.433
42295W        W 1391  21.210  11.138   3.342
42296W        W 1392  21.561  19.668   0.795
42297W        W 1393  41.951  34.453  11.915
42298W        W 1394   0.851   8.278  14.467
42299W        W 1395  44.461  29.001   1.710
42300W        W 1396  43.937  15.254  11.958
42301W        W 1397   5.215  33.129   0.940
42302W        W 1398   6.881  31.983   1.847
42303W        W 1399  35.567  16.724   3.665
42304W        W 1400  44.938  44.390  13.527
42305W        W 1401  21.556  13.134  10.483
42306W        W 1402  33.025  32.419  13.064
42307W        W 1403  27.682   2.869  11.447
42308W        W 1404   4.810  36.893   1.330
42309W        W 1405  18.723  32.940  14.974
42310W        W 1406  17.712  41.343   3.277
42311W        W 1407  29.457   6.230  11.504
42312W        W 1408   7.227  39.460  13.876
42313W        W 1409  29.025  38.335  13.989
42314W        W 1410   5.705  26.025  14.825
42315W        W 1411  43.483  39.375  13.964
42316W        W 1412  44.861  38.526  10.535
42317W        W 1413   4.415  29.443   2.206
42318W        W 1414  30.938  34.377  10.046
42319W        W 1415  18.753  33.520  11.888
42320W        W 1416   1.297  21.532  14.372
42321W        W 1417  13.168  44.349  14.367
42322W        W 1418   0.385   2.815   1.215
42323W        W 1419   0.973  43.818   2.849
42324W        W 1420   3.861   9.390  12.429
42325W        W 1421  10.355  36.559   2.222
42326W        W 1422  21.066  15.737   2.834
42327W        W 1423  33.984   5.754   4.803
42328W        W 1424  37.387  19.655  11.043
42329W        W 1425  16.097  14.715  11.534
42330W        W 1426  16.210  25.013  12.057
42331W        W 1427   8.331  11.849   4.760
42332W        W 1428  19.537  25.587  12.580
42333W        W 1429  40.357  28.655  13.901
42334W        W 1430  26.194  33.482   0.310
42335W        W 1431  41.891  40.504  14.780
42336W        W 1432  34.863  43.975  14.897
42337W        W 1433  12.351  19.575   3.831
42338W        W 1434   9.178  10.665   2.268
42339W        W 1435   3.430  13.129  12.002
42340W        W 1436  28.077  27.951  12.879
42341W        W 1437  28.539  43.329   2.790
42342W        W 1438  21.157  14.656   1.851
42343W        W 1439  12.627  24.676   1.215
42344W        W 1440  37.578  21.665  13.821
42345W        W 1441  36.348  43.324  14.327
42346W        W 1442  22.163  24.128  12.971
42347W        W 1443   5.196  38.902  10.006
42348W        W 1444  19.636   8.739  14.310
42349W        W 1445  20.655  42.825  11.962
42350W        W 1446  42.873  23.707  11.611
42351W        W 1447   3.862  23.988  13.391
42352W        W 1448   3.918  23.641   2.764
42353W        W 1449  20.034  35.963  10.619
42354W        W 1450  17.589   3.727  11.868
42355W        W 1451  18.184  19.176  14.967
42356W        W 1452  13.665   3.731   3.243
42357W        W 1453   0.874  11.649   4.651
42358W        W 1454  41.464  35.878   2.367
42359W        W 1455   2.431   2.460   0.255
42360W        W 1456  21.693  16.694  12.979
42361W        W 1457  28.933  27.041  12.042
42362W        W 1458  39.370  20.703  13.814
42363W        W 1459  10.262   3.722  11.114
42364W        W 1460  28.458  37.060  11.606
42365W        W 1461   1.766  39.416  13.859
42366W        W 1462  43.417   1.352  12.368
42367W        W 1463   7.666  11.821   3.232
42368W        W 1464  23.627  21.096  12.573
42369W        W 1465   0.269  11.706   1.832
42370W        W 1466  34.905   7.769   1.314
42371W        W 1467  37.557   5.346  10.944
42372W        W 1468  36.494  21.551   4.286
42373W        W 1469   8.785  11.768  11.514
42374W        W 1470   2.358  24.195  13.843
42375W        W 1471   6.252   4.394  13.341
42376W        W 1472  22.165  19.688   1.365
42377W        W 1473  31.977  30.429  12.377
42378W        W 1474  32.542  28.970  11.972
42379W        W 1475  15.308  37.487   4.634
42380W        W 1476   7.372   7.180  14.338
42381W        W 1477   5.372   0.744  12.459
42382W        W 1478  31.123  12.254   4.219
42383W        W 1479   5.838   1.858   3.383
42384W        W 1480  23.072  26.651   2.302
42385W        W 1481   9.210  41.301   2.873
42386W        W 1482   4.396   4.872  14.414
42387W        W 1483  28.125  44.413  13.466
42388W        W 1484  23.563  11.305  13.485
42389W        W 1485  22.191  31.004  12.078
42390W        W 1486   4.719  24.038   4.230
42391W        W 1487  19.242  20.570   2.765
42392W        W 1488  17.123  44.408  14.463
42393W        W 1489  20.068   9.751   3.235
42394W        W 1490   0.951  44.993   1.796
42395W        W 1491  21.655   4.821  10.888
42396W        W 1492   0.393  38.370   3.857
42397W        W 1493  17.685  28.555  13.917
42398W        W 1494   7.264   3.460  13.471
42399W        W 1495  23.074  34.053   0.398
42400W        W 1496  20.719   5.329   0.852
42401W        W 1497  23.637  15.170  12.972
42402W        W 1498  15.715  40.439   0.757
42403W        W 1499  20.270  28.572   3.214
42404W        W 1500  21.548  11.128   4.653
42405W        W 1501  30.413  36.363  13.941
42406W        W 1502  26.487  18.219   1.370
42407W        W 1503  26.186  25.582  14.474
42408W        W 1504  25.654  21.151   1.832
42409W        W 1505  37.086  19.606  14.931
42410W        W 1506   5.836  16.607   4.718
42411W        W 1507  11.631  26.204   4.722
42412W        W 1508  42.955  22.040  13.514
42413W        W 1509  16.095   2.771  12.921
42414W        W 1510  17.654  33.597   4.653
42415W        W 1511  34.549  37.085  11.021
42416W        W 1512  26.623  30.527   4.333
42417W        W 1513  19.680  18.757  14.336
42418W        W 1514   0.480  12.195  14.007
42419W        W 1515  32.018  32.893  14.515
42420W        W 1516  23.205   5.434  11.969
42421W        W 1517  22.558   4.385  13.858
42422W        W 1518  34.881  27.108  14.292
42423W        W 1519  41.319  19.648  13.039
42424W        W 1520   7.833  23.176  13.901
42425W        W 1521  18.619  18.219  13.905
42426W        W 1522  31.026  10.188   2.285
42427W        W 1523  33.406  37.413   0.862
42428W        W 1524  14.199   9.188  11.120
42429W        W 1525   4.218  10.811   2.356
42430W        W 1526  33.613  13.228   2.677
42431W        W 1527  34.397   9.361   3.701
42432W        W 1528  36.083  29.458  14.414
42433W        W 1529   8.344  37.447   0.954
42434W        W 1530  34.025  28.552  12.942
42435W        W 1531  43.448  22.608  13.048
42436W        W 1532  43.322   0.446   4.696
42437W        W 1533   6.256  37.021   1.253
42438W        W 1534   4.855  42.521   3.237
42439W        W 1535  42.972  36.485   1.741
42440W        W 1536  41.921  41.534  12.091
42441W        W 1537  25.649  27.492   4.249
42442W        W 1538   2.439  40.836  13.462
42443W        W 1539  40.845   3.763  12.874
42444W        W 1540  14.224  23.731   2.769
42445W        W 1541   8.659  39.540  13.367
42446W        W 1542  30.565  37.394   2.299
42447W        W 1543   5.741  25.625   1.396
42448W        W 1544  25.595  29.594   3.684
42449W        W 1545  24.608  19.749   2.331
42450W        W 1546  41.352  28.016  11.958
42451W        W 1547  13.314   4.368   0.805
42452W        W 1548  18.270  43.424  14.796
42453W        W 1549  42.913  39.852   0.749
42454W        W 1550  19.249  32.969   3.783
42455W        W 1551  19.230   8.374  10.530
42456W        W 1552  12.830  44.994  11.381
42457W        W 1553  25.668  14.251   4.220
42458W        W 1554  32.037  13.805  14.278
42459W        W 1555  15.178  20.232   3.213
42460W        W 1556  30.965  14.105   2.282
42461W        W 1557  35.375   1.410   2.666
42462W        W 1558  35.946  39.393  10.488
42463W        W 1559  36.463  40.310   2.840
42464W        W 1560  42.339   8.842  14.940
42465W        W 1561   3.416  42.416   4.238
42466W        W 1562  20.676  17.639   0.321
42467W        W 1563   8.374   5.310   3.764
42468W        W 1564   0.303  23.109   0.748
42469W        W 1565   5.916  12.782   2.395
42470W        W 1566  13.246  12.743   2.775
42471W        W 1567  43.801  13.793   4.667
42472W        W 1568   9.308   2.899   2.193
42473W        W 1569  13.111  30.072   3.755
42474W        W 1570  31.467  18.213   1.776
42475W        W 1571  40.973  26.062  12.525
42476W        W 1572  13.827  29.601  13.428
42477W        W 1573  21.041  25.994   1.226
42478W        W 1574   3.218   0.913  14.995
42479W        W 1575  18.787  40.379   9.456
42480W        W 1576  39.969  27.106   1.414
42481W        W 1577  35.044  12.303  12.945
42482W        W 1578  33.455  44.504   0.377
42483W        W 1579  11.214   3.381  14.307
42484W        W 1580   8.307  25.171  12.932
42485W        W 1581  27.633  41.392  13.469
42486W        W 1582  19.263  29.925  12.037
42487W        W 1583  17.121   9.346  13.826
42488W        W 1584   4.720  43.275  13.412
42489W        W 1585  13.674  13.292  14.943
42490W        W 1586   0.261   9.231   4.826
42491W        W 1587  19.269  18.153  13.832
42492W        W 1588  38.014   8.756  13.010
42493W        W 1589   2.804  33.553   2.833
42494W        W 1590   2.802  44.451   2.665
42495W        W 1591  36.024  43.270   3.730
42496W        W 1592  38.915  44.308   4.788
42497W        W 1593  16.291  11.652   0.377
42498W        W 1594  34.025  31.116   1.816
42499W        W 1595  33.454  33.534  14.437
42500W        W 1596  22.125  40.037  11.106
42501W        W 1597   0.308   6.693   3.653
42502W        W 1598  27.658  33.538  12.541
42503W        W 1599  38.565   8.882   2.857
42504W        W 1600  15.230   0.839  12.894
42505W        W 1601   1.356   8.889  14.869
42506W        W 1602   9.193  24.027  12.918
42507W        W 1603   2.263  26.011  11.375
42508W        W 1604  40.945  36.462  11.014
42509W        W 1605  29.536  22.585  13.498
42510W        W 1606  39.367  28.940  11.398
42511W        W 1607  41.975   9.221   4.739
42512W        W 1608  11.371   4.751  13.502
42513W        W 1609  20.648  28.107   2.850
42514W        W 1610  42.313  26.521   1.319
42515W        W 1611   2.230   6.328   1.776
42516W        W 1612  16.781   0.987  14.458
42517W        W 1613  23.655  31.531   4.790
42518W        W 1614  43.496  40.880   4.259
42519W        W 1615  25.665  15.233  13.876
42520W        W 1616  28.514  28.534  13.958
42521W        W 1617   5.402  36.046   0.453
42522W        W 1618  32.075  16.595   1.736
42523W        W 1619  13.341  11.346   2.844
42524W        W 1620  27.483  23.031  11.554
42525W        W 1621  26.045  33.042   2.232
42526W        W 1622  18.280   1.343  12.346
42527W        W 1623  16.161  40.956  13.537
42528W        W 1624  14.115  18.263   4.833
42529W        W 1625   3.438  35.101  13.368
42530W        W 1626  37.886  42.478  11.009
42531W        W 1627  35.493  23.644  12.352
42532W        W 1628  32.081  40.993   2.895
42533W        W 1629  19.067  21.704  13.010
42534W        W 1630  11.287  26.517   3.228
42535W        W 1631  31.996  28.564  14.359
42536W        W 1632   4.264  39.480   3.777
42537W        W 1633  43.988  22.223  11.862
42538W        W 1634  16.211  17.093  11.022
42539W        W 1635   7.284   7.322   3.268
42540W        W 1636  29.552  17.115   1.925
42541W        W 1637   4.271  36.577  12.452
42542W        W 1638  34.503  28.623   3.733
42543W        W 1639  21.156   9.851  13.827
42544W        W 1640  16.672  26.653   3.229
42545W        W 1641  15.196  25.201   5.190
42546W        W 1642  28.128   8.161   2.390
42547W        W 1643  13.277  26.027  11.610
42548W        W 1644  36.904  39.011  11.988
42549W        W 1645  33.004   1.862   2.860
42550W        W 1646  13.203  27.577   2.834
42551W        W 1647  19.722  16.709   0.782
42552W        W 1648  40.496  35.904  10.111
42553W        W 1649  14.207  16.076   0.787
42554W        W 1650   7.749  13.336   2.685
42555W        W 1651  26.577  39.487  14.833
42556W        W 1652   8.405  29.126   0.901
42557W        W 1653  25.127  18.105  11.988
42558W        W 1654  37.518  25.473  13.310
42559W        W 1655   6.326  31.137  14.784
42560W        W 1656  41.355  37.875   1.336
42561W        W 1657   4.944  10.774   2.841
42562W        W 1658  31.629   2.241   4.823
42563W        W 1659  23.222  17.286  12.476
42564W        W 1660  26.514  23.709  11.916
42565W        W 1661  43.891  36.875   1.851
42566W        W 1662   4.258  22.507  11.034
42567W        W 1663  15.649  25.689  11.893
42568W        W 1664  33.906   6.389   4.679
42569W        W 1665   2.269  23.127  13.858
42570W        W 1666  41.343  22.034   3.232
42571W        W 1667  16.083  33.496   4.750
42572W        W 1668  40.326  12.180   3.208
42573W        W 1669  23.122  13.158   3.353
42574W        W 1670  22.188  30.494   4.626
42575W        W 1671  34.885  33.055   0.457
42576W        W 1672  34.069  14.098   2.254
42577W        W 1673  20.636  11.827  11.083
42578W        W 1674   5.894  22.083  14.469
42579W        W 1675  31.975  28.932  14.444
42580W        W 1676   9.245  18.776   2.753
42581W        W 1677  24.187  10.669  13.921
42582W        W 1678  28.149  31.471  14.396
42583W        W 1679  15.722  23.148  14.335
42584W        W 1680   6.699  19.646  11.942
42585W        W 1681  28.136  14.142   3.345
42586W        W 1682  27.153   1.921   3.672
42587W        W 1683  19.753  22.575  12.088
42588W        W 1684  12.827   5.313  14.345
42589W        W 1685  13.793   3.418   1.410
42590W        W 1686  18.221   3.270  11.898
42591W        W 1687  34.550  14.729   9.955
42592W        W 1688  41.993  24.980   3.693
42593W        W 1689   3.718  19.122  12.476
42594W        W 1690   3.797  14.144  14.838
42595W        W 1691   3.916   6.274   0.459
42596W        W 1692  42.021   6.687   4.665
42597W        W 1693   6.371  13.765   0.867
42598W        W 1694  14.814   6.845   2.287
42599W        W 1695  23.663  40.424   4.152
42600W        W 1696  39.850  37.407  11.467
42601W        W 1697   3.337  11.750  10.572
42602W        W 1698   9.190   3.421   3.183
42603W        W 1699  28.602  17.093  12.966
42604W        W 1700   8.249  38.901  14.468
42605W        W 1701   3.421   8.333  13.848
42606W        W 1702  44.960  35.603  13.004
42607W        W 1703  16.653  31.930  12.834
42608W        W 1704  43.002  22.223  12.449
42609W        W 1705   6.880  39.911   1.812
42610W        W 1706  19.194   2.780   4.131
42611W        W 1707   6.405  37.523  10.450
42612W        W 1708  44.763  40.342   0.354
42613W        W 1709   4.761   7.216   2.272
42614W        W 1710  38.027   9.880  11.078
42615W        W 1711  16.590  38.341  13.360
42616W        W 1712  43.842  34.580   1.366
42617W        W 1713  17.243  38.409  13.370
42618W        W 1714  39.319  15.708   2.392
42619W        W 1715   4.338  44.966  13.852
42620W        W 1716   9.394   3.720  10.453
42621W        W 1717  30.539   5.230  12.013
42622W        W 1718  18.249   3.232   2.348
42623W        W 1719  15.193  25.137  14.331
42624W        W 1720  42.485  21.661  10.549
42625W        W 1721  20.532  34.461   2.190
42626W        W 1722  38.890  31.123  11.605
42627W        W 1723  10.172  20.160   3.273
42628W        W 1724  23.164  41.476   3.643
42629W        W 1725  13.602  44.004   3.708
42630W        W 1726  44.837  43.430  11.968
42631W        W 1727  17.765  37.940   4.706
42632W        W 1728   3.219  39.912  10.966
42633W        W 1729  11.288  30.640   3.171
42634W        W 1730  40.017  32.439   0.308
42635W        W 1731  15.312  43.357  13.401
42636W        W 1732  35.557   8.790   1.916
42637W        W 1733  18.668  17.187   1.720
42638W        W 1734  44.906  26.043  14.449
42639W        W 1735  13.736   1.264  14.901
42640W        W 1736  25.661   6.247  14.797
42641W        W 1737  42.834  44.307  11.546
42642W        W 1738  43.909  17.120   3.648
42643W        W 1739  44.291  37.469   4.758
42644W        W 1740   4.247  21.626  12.023
42645W        W 1741  15.588  29.102  14.506
42646W        W 1742  29.536  35.961   0.281
42647W        W 1743  31.122  34.049   1.242
42648W        W 1744  32.091  15.583  13.882
42649W        W 1745  14.627  18.785   4.335
42650W        W 1746   7.284  37.367   0.465
42651W        W 1747   6.772  15.650  14.508
42652W        W 1748   8.310  21.593   0.740
42653W        W 1749   9.792  38.442  11.578
42654W        W 1750  15.084  16.296  11.993
42655W        W 1751  42.378  20.541  10.639
42656W        W 1752  26.156  20.680  11.912
42657W        W 1753  26.093  28.142   0.815
42658W        W 1754  35.422   9.766   9.551
42659W        W 1755  20.534  33.540  13.916
42660W        W 1756  11.663  21.158   2.723
42661W        W 1757   8.877   0.791   2.724
42662W        W 1758  42.510  23.696   3.688
42663W        W 1759   7.837  13.647  11.444
42664W        W 1760  18.652  38.564   0.756
42665W        W 1761  42.314  36.498   0.923
42666W        W 1762  10.784  24.688   3.646
42667W        W 1763  42.931  11.197   2.869
42668W        W 1764  26.563  34.418   4.247
42669W        W 1765  25.051  32.473   4.769
42670W        W 1766  10.743  43.014  11.426
42671W        W 1767  36.405  25.962   3.265
42672W        W 1768  13.137   6.818  11.989
42673W        W 1769  16.728   1.407  13.881
42674W        W 1770  20.538  37.413  10.904
42675W        W 1771  32.115  14.766  13.881
42676W        W 1772   2.760  33.000  13.925
42677W        W 1773  41.037  33.489   1.869
42678W        W 1774  18.636  15.632  10.521
42679W        W 1775  39.363  27.144   2.230
42680W        W 1776  33.098  34.488  12.568
42681W        W 1777  26.148   9.849  10.476
42682W        W 1778  37.018  25.998   2.362
42683W        W 1779   2.873  31.152  13.369
42684W        W 1780  33.411  33.394   5.137
42685W        W 1781  14.597  17.268   1.777
42686W        W 1782  40.413  26.181   1.345
42687W        W 1783  17.781  27.965  11.403
42688W        W 1784  22.703  31.492  14.467
42689W        W 1785  39.473   2.465   2.232
42690W        W 1786  40.467  12.832  12.518
42691W        W 1787  20.667  42.518  11.052
42692W        W 1788  21.022   7.825  11.462
42693W        W 1789  37.556   3.422   4.759
42694W        W 1790  31.946  21.025   2.402
42695W        W 1791  39.458   0.387   3.272
42696W        W 1792   1.379  19.242  14.289
42697W        W 1793  40.868  44.990   2.699
42698W        W 1794  34.927  15.246  11.992
42699W        W 1795  17.599  33.063   3.672
42700W        W 1796  22.244   2.237   4.817
42701W        W 1797  26.071  24.119   5.118
42702W        W 1798  21.216  31.527   2.881
42703W        W 1799  35.970  14.184  10.970
42704W        W 1800  37.927  22.039  14.385
42705W        W 1801  44.314   9.763   1.724
42706W        W 1802   9.327  35.963   1.922
42707W        W 1803   8.242  15.220  14.912
42708W        W 1804  15.744  41.443  10.408
42709W        W 1805  28.982   8.224  11.959
42710W        W 1806  33.916  19.622  14.505
42711W        W 1807  15.637  43.860  11.412
42712W        W 1808  31.029  23.547   5.606
42713W        W 1809  24.066  43.776   3.710
42714W        W 1810  17.734   7.694  11.381
42715W        W 1811   8.693  10.786  11.083
42716W        W 1812  10.802  20.633  14.844
42717W        W 1813  35.010  42.853  13.307
42718W        W 1814   1.332  32.556   3.151
42719W        W 1815   1.735  22.163  10.549
42720W        W 1816  20.725  27.081   1.398
42721W        W 1817  36.364  43.491   2.416
42722W        W 1818  34.557  44.978  11.022
42723W        W 1819  26.005  28.080  11.443
42724W        W 1820   1.277  16.762   3.729
42725W        W 1821  28.942  43.842  10.614
42726W        W 1822  30.156   8.809  11.951
42727W        W 1823  34.064  36.513   1.451
42728W        W 1824  19.575   7.776  12.535
42729W        W 1825  38.357  27.190   2.833
42730W        W 1826  34.530   2.245  13.959
42731W        W 1827   0.400   8.742   4.124
42732W        W 1828   8.264  25.487   2.410
42733W        W 1829  17.587  43.437  11.905
42734W        W 1830  13.289  15.205  12.877
42735W        W 1831  35.945  10.814   0.329
42736W        W 1832  44.873  16.635  12.013
42737W        W 1833  31.074  38.561  11.885
42738W        W 1834  39.042  27.565   0.445
42739W        W 1835  36.869  34.596  12.832
42740W        W 1836  15.688  29.522   0.822
42741W        W 1837   4.834   5.436   3.777
42742W        W 1838  32.078   0.953  11.508
42743W        W 1839  20.708   4.851   0.343
42744W        W 1840  33.900  18.051  14.332
42745W        W 1841  35.582  41.863   4.194
42746W        W 1842  32.481   0.291   2.268
42747W        W 1843  16.249  34.572  13.009
42748W        W 1844  13.256   3.837   0.248
42749W        W 1845   8.282  27.967   0.435
42750W        W 1846  32.960  41.367   0.761
42751W        W 1847  10.249  26.592   3.768
42752W        W 1848   6.904  11.356   0.943
42753W        W 1849  11.769  25.519   2.315
42754W        W 1850  42.462   6.328   1.245
42755W        W 1851  18.152  38.955   1.311
42756W        W 1852  16.160   3.945   1.338
42757W        W 1853  23.161  40.900   0.379
42758W        W 1854  31.899  15.707   0.358
42759W        W 1855  39.015  17.156   3.713
42760W        W 1856  28.623   2.431   3.178
42761W        W 1857  29.567   3.824   3.149
42762W        W 1858  10.365  30.544   4.329
42763W        W 1859   5.785   8.897  12.568
42764W        W 1860  28.463  12.742   0.850
42765W        W 1861  25.606   6.405  13.064
42766W        W 1862  18.647  35.597  14.329
42767W        W 1863  34.433   6.917  10.909
42768W        W 1864  23.732   5.773   3.306
42769W        W 1865  16.651  31.138   1.866
42770W        W 1866  25.705  29.435   0.877
42771W        W 1867   7.341   2.266  13.460
42772W        W 1868  15.614  18.734   4.837
42773W        W 1869  30.521  29.570  13.884
42774W        W 1870   3.404  31.605  14.304
42775W        W 1871  27.471  25.181   3.186
42776W        W 1872  20.151  36.861   0.415
42777W        W 1873  17.114  40.962  10.151
42778W        W 1874  38.543  25.184  10.504
42779W        W 1875  19.687  43.482  10.893
42780W        W 1876  21.251  42.438  10.958
42781W        W 1877   4.756   8.858   2.370
42782W        W 1878  17.144  24.206  12.372
42783W        W 1879  44.353  18.272  12.096
42784W        W 1880   4.353   6.901   3.178
42785W        W 1881  41.835  19.084  12.563
42786W        W 1882  10.766  30.095   3.730
42787W        W 1883  43.863  27.174   0.413
42788W        W 1884  16.729  11.856  13.860
42789W        W 1885   3.362  33.923   2.356
42790W        W 1886   0.435   2.946  14.513
42791W        W 1887  22.161   3.733   2.706
42792W        W 1888   6.770  26.694   5.723
42793W        W 1889  32.006  19.772  10.011
42794W        W 1890  20.044  41.024  14.278
42795W        W 1891  26.127  20.137  13.460
42796W        W 1892  17.635  27.611  11.045
42797W        W 1893  23.694   4.699   0.828
42798W        W 1894  27.496  28.044  13.472
42799W        W 1895  40.979   5.707   0.270
42800W        W 1896  11.722  25.614  12.915
42801W        W 1897  40.513  14.253   0.375
42802W        W 1898  33.409  22.089   2.286
42803W        W 1899  16.772  26.632  14.277
42804W        W 1900  18.121  35.584   3.854
42805W        W 1901  15.109  17.657   4.825
42806W        W 1902  19.683  38.531   0.442
42807W        W 1903  26.547  33.463  13.922
42808W        W 1904  42.966  44.493  12.072
42809W        W 1905  14.172  23.611   4.740
42810W        W 1906  12.613  11.732  12.504
42811W        W 1907  11.710  26.954  13.416
42812W        W 1908  13.795  22.095  14.987
42813W        W 1909  27.177  26.146   2.289
42814W        W 1910  33.929  34.399   1.877
42815W        W 1911   7.676  42.873   4.808
42816W        W 1912  24.537   6.331  12.952
42817W        W 1913  10.767  24.103  12.988
42818W        W 1914  38.547  21.668   0.433
42819W        W 1915  25.009   4.887  12.880
42820W        W 1916  25.986   4.816   1.358
42821W        W 1917  28.511  27.459  13.347
42822W        W 1918  43.916   2.806  10.937
42823W        W 1919   6.247  12.269   3.289
42824W        W 1920  21.660  27.595   3.675
42825W        W 1921  37.519  15.242  10.486
42826W        W 1922  34.596   7.379  13.464
42827W        W 1923  19.574  19.747   4.729
42828W        W 1924  32.035  38.390  13.860
42829W        W 1925   9.382  38.427   0.889
42830W        W 1926  33.581  41.808   2.185
42831W        W 1927  30.955  18.612   1.923
42832W        W 1928  21.200  39.941   1.372
42833W        W 1929   4.290  39.901   2.820
42834W        W 1930  38.848  28.605  11.104
42835W        W 1931  33.117   3.420  11.418
42836W        W 1932  10.140  37.994  11.883
42837W        W 1933  10.794  28.121  11.541
42838W        W 1934  17.591   2.816   4.336
42839W        W 1935  18.263  13.204  11.001
42840W        W 1936   3.816  40.364  10.458
42841W        W 1937  34.018  42.343   0.443
42842W        W 1938  38.368   6.896  11.029
42843W        W 1939  17.638  26.178   0.755
42844W        W 1940  42.931  38.067   5.224
42845W        W 1941  37.068  34.374   3.735
42846W        W 1942   9.881  28.485   3.712
42847W        W 1943  40.307   9.390   3.225
42848W        W 1944  16.737  34.955   9.978
42849W        W 1945  31.588  13.681  14.452
42850W        W 1946  11.748  41.881  11.581
42851W        W 1947  36.513  42.348  14.029
42852W        W 1948  29.100  44.822   4.346
42853W        W 1949  43.796  25.662   3.783
42854W        W 1950  44.755   4.375   1.321
42855W        W 1951   6.814  12.265  10.517
42856W        W 1952  11.300   4.730  12.521
42857W        W 1953  42.960  31.078   4.743
42858W        W 1954  37.472  41.879   4.623
42859W        W 1955  12.329  11.682   2.671
42860W        W 1956   5.770  43.442   3.225
42861W        W 1957  41.894  38.522  10.626
42862W        W 1958  32.486  41.531  14.384
42863W        W 1959   7.748  14.213   2.764
42864W        W 1960  37.851  23.558  10.062
42865W        W 1961  22.559  42.936  10.439
42866W        W 1962  36.895  24.210  13.321
42867W        W 1963   2.417  39.908   4.639
42868W        W 1964  36.896   9.864   1.930
42869W        W 1965  24.565  12.844  14.511
42870W        W 1966   3.920  29.614   0.248
42871W        W 1967  42.881  34.886   4.775
42872W        W 1968  36.954  16.298  11.884
42873W        W 1969  24.187  22.586   4.148
42874W        W 1970  44.966  42.833   2.759
42875W        W 1971  14.153  32.913   0.433
42876W        W 1972   9.722  14.656  14.932
42877W        W 1973   3.371  44.921  14.455
42878W        W 1974   7.247  18.756  12.000
42879W        W 1975  19.580   6.214   1.918
42880W        W 1976  30.963  13.792   1.934
42881W        W 1977  29.529  37.406   2.355
42882W        W 1978  43.777  15.249   1.785
42883W        W 1979  17.567  14.329   4.172
42884W        W 1980  19.779  28.965   1.730
42885W        W 1981  37.339  40.863   1.426
42886W        W 1982  30.598   4.366   4.758
42887W        W 1983  16.213  38.956   2.301
42888W        W 1984  41.360  19.676   3.329
42889W        W 1985  37.484  29.661   4.619
42890W        W 1986  25.636  39.966   0.753
42891W        W 1987  16.195  24.219  11.435
42892W        W 1988  26.044   6.745   2.393
42893W        W 1989  40.910  41.870  12.383
42894W        W 1990   7.356  38.531   3.276
42895W        W 1991  41.967  12.779   0.914
42896W        W 1992  20.617  31.134  10.412
42897W        W 1993  29.955   6.227  12.574
42898W        W 1994   9.221  41.961   4.606
42899W        W 1995   3.370  43.454   0.908
42900W        W 1996  29.118  12.644   0.728
42901W        W 1997  15.312  37.419   1.398
42902W        W 1998  11.332  13.150  14.025
42903W        W 1999  24.023  24.021  10.460
42904W        W 2000  36.413  39.366   0.797
42905W        W 2001  15.328  16.788   1.333
42906W        W 2002   2.388   0.324   4.239
42907W        W 2003  15.181   3.921  11.899
42908W        W 2004  14.168  43.886   4.161
42909W        W 2005  41.490  17.723  14.811
42910W        W 2006  26.116   8.325   4.318
42911W        W 2007  31.069  38.953   0.248
42912W        W 2008  28.662  41.008   4.738
42913W        W 2009  40.906  35.016   4.286
42914W        W 2010  17.625  13.684   0.921
42915W        W 2011  24.049   0.303   3.166
42916W        W 2012  42.950  32.582   0.735
42917W        W 2013  21.563  30.526   4.690
42918W        W 2014   5.300  19.696   2.276
42919W        W 2015  34.894  27.654   2.815
42920W        W 2016  23.178   2.791  13.929
42921W        W 2017   6.228   7.777  12.850
42922W        W 2018  16.081   3.297  13.795
42923W        W 2019  41.789  21.755  13.350
42924W        W 2020  34.062   1.348  11.005
42925W        W 2021  23.688  13.656  11.469
42926W        W 2022   8.887  22.112   4.625
42927W        W 2023   6.306  31.077  13.332
42928W        W 2024  27.510   2.382  14.983
42929W        W 2025  19.070  30.636  12.981
42930W        W 2026   2.446   4.751   2.893
42931W        W 2027   0.883  36.040  13.941
42932W        W 2028  29.080   0.489   0.293
42933W        W 2029   9.329  33.021  11.087
42934W        W 2030   3.332   6.792   4.198
42935W        W 2031  40.945  18.112  14.336
42936W        W 2032   6.201  43.789  13.499
42937W        W 2033  19.645  10.210   1.275
42938W        W 2034  33.548  20.218   1.878
42939W        W 2035  10.690  20.259  13.502
42940W        W 2036  25.633  20.103   5.298
42941W        W 2037   5.789  32.966   0.350
42942W        W 2038  19.227  44.453   0.736
42943W        W 2039   5.395  42.819  13.386
42944W        W 2040  40.480  18.751   1.734
42945W        W 2041  25.040  23.523  12.057
42946W        W 2042   6.189  34.017  10.920
42947W        W 2043  37.518   5.910   2.764
42948W        W 2044  35.985  28.032   5.193
42949W        W 2045  31.561  13.719   1.256
42950W        W 2046   1.455  36.351  10.909
42951W        W 2047  10.675  34.483  14.013
42952W        W 2048  40.892  36.564   0.296
42953W        W 2049  12.283   4.792   1.829
42954W        W 2050  44.331  42.359   4.135
42955W        W 2051  12.257  34.059   0.937
42956W        W 2052  41.031  42.857  14.968
42957W        W 2053  10.762   7.397  12.488
42958W        W 2054  17.691  33.115  12.994
42959W        W 2055   1.337  44.876  13.491
42960W        W 2056  10.864   2.445  10.500
42961W        W 2057  44.789  27.467  13.928
42962W        W 2058  32.454  21.039  12.493
42963W        W 2059  20.117   6.246  11.987
42964W        W 2060  18.678  41.881   2.405
42965W        W 2061  36.438  43.913   2.334
42966W        W 2062  26.032   5.309   0.317
42967W        W 2063  44.932  25.579  11.376
42968W        W 2064  32.446  31.634   4.313
42969W        W 2065   1.448  14.212  13.007
42970W        W 2066  22.214  36.033   2.399
42971W        W 2067  26.208  17.153   0.919
42972W        W 2068   3.376  39.515  13.925
42973W        W 2069  35.363  14.812  14.408
42974W        W 2070   5.428  24.698   1.225
42975W        W 2071  34.539   1.381   0.321
42976W        W 2072  31.544  44.777   2.779
42977W        W 2073   8.354  18.780  12.964
42978W        W 2074  18.112  38.414  12.396
42979W        W 2075  30.558  23.094   2.363
42980W        W 2076  32.510   8.256  12.060
42981W        W 2077  31.442  27.177   3.191
42982W        W 2078  17.164  18.646  14.339
42983W        W 2079  44.269  29.050  13.424
42984W        W 2080  34.083   6.392   0.288
42985W        W 2081  36.898  41.965   0.966
42986W        W 2082  28.637  19.684   4.290
42987W        W 2083  21.113  12.794   1.742
42988W        W 2084  13.839  42.288   2.785
42989W        W 2085  44.759   8.780  11.025
42990W        W 2086  34.535   6.404  12.871
42991W        W 2087  38.359  39.530   1.231
42992W        W 2088  40.346  32.020   0.333
42993W        W 2089   8.788  32.967  12.036
42994W        W 2090  33.621   2.262  12.364
42995W        W 2091  25.567  31.945   1.282
42996W        W 2092  29.028  21.020  11.449
42997W        W 2093  22.717  37.409  11.596
42998W        W 2094  18.762  22.708  14.906
42999W        W 2095  18.057  26.575  14.441
43000W        W 2096  36.539  13.314   1.807
43001W        W 2097  11.209  43.977   1.437
43002W        W 2098  18.706  13.831   1.263
43003W        W 2099   3.876  33.106   2.287
43004W        W 2100   3.333  39.498  14.761
43005W        W 2101  36.944  14.799   4.604
43006W        W 2102  40.824  20.761   0.902
43007W        W 2103  31.451  35.980  12.341
43008W        W 2104   9.174  28.649   3.218
43009W        W 2105  28.476  17.603   2.899
43010W        W 2106   4.819  20.654   4.170
43011W        W 2107  17.782  22.118  13.994
43012W        W 2108   0.849  21.192   3.312
43013W        W 2109  37.939  44.928  11.881
43014W        W 2110  17.070  10.670  10.072
43015W        W 2111  29.162   2.776  14.951
43016W        W 2112  11.690   5.871   0.919
43017W        W 2113  33.113  27.024  12.861
43018W        W 2114  12.653  25.498  13.808
43019W        W 2115  17.790  39.051   3.330
43020W        W 2116   0.981  13.205   3.687
43021W        W 2117   8.366  28.505  12.873
43022W        W 2118   7.758   4.928  10.629
43023W        W 2119  28.053  31.499   2.197
43024W        W 2120  37.461   0.903   4.319
43025W        W 2121  43.304  10.363  12.521
43026W        W 2122  39.498  39.990   4.776
43027W        W 2123   9.289   7.716  10.405
43028W        W 2124  37.873  27.540   0.354
43029W        W 2125  31.931  12.124   3.310
43030W        W 2126   2.320  18.659   4.657
43031W        W 2127  23.558  28.504  14.424
43032W        W 2128  41.369  17.164  11.586
43033W        W 2129   2.337   7.360   1.243
43034W        W 2130  17.789   4.903   3.678
43035W        W 2131  37.391   7.193  13.456
43036W        W 2132  17.744   7.805  13.036
43037W        W 2133  44.917   9.753  12.415
43038W        W 2134   2.840  35.086  14.836
43039W        W 2135  13.284  12.644  10.580
43040W        W 2136   3.913   3.244  11.076
43041W        W 2137  30.413  20.222   2.198
43042W        W 2138  42.438   2.417  13.503
43043W        W 2139  27.660  19.653  13.416
43044W        W 2140   9.361   4.374   1.930
43045W        W 2141  36.351  20.263  13.476
43046W        W 2142  24.640  43.987   4.743
43047W        W 2143  16.205  13.683   1.267
43048W        W 2144  10.657  29.163   3.378
43049W        W 2145  17.656   4.266   2.269
43050W        W 2146  34.437  16.633   9.955
43051W        W 2147  19.546  18.214  13.988
43052W        W 2148  16.256  44.865   1.322
43053W        W 2149  15.594  31.407  14.486
43054W        W 2150  16.767  13.213  11.523
43055W        W 2151  42.441   5.414  14.813
43056W        W 2152  30.952   8.735   4.609
43057W        W 2153  41.340  37.073   1.704
43058W        W 2154  29.141  10.341   0.966
43059W        W 2155  43.851  16.620   2.192
43060W        W 2156   2.779  14.250  12.543
43061W        W 2157  39.336  21.081   2.220
43062W        W 2158  38.007  27.951  12.579
43063W        W 2159  12.662  35.434   2.847
43064W        W 2160   0.945  13.780  12.846
43065W        W 2161  18.557   1.338   2.243
43066W        W 2162  38.425  16.708  14.894
43067W        W 2163  36.855  23.710   5.207
43068W        W 2164  44.791  31.983   3.200
43069W        W 2165  32.070  12.787  13.837
43070W        W 2166   4.851   7.689   3.322
43071W        W 2167  39.542  13.719  14.361
43072W        W 2168  26.102   1.453  11.591
43073W        W 2169   4.784  35.920  13.507
43074W        W 2170  16.166  16.708   0.320
43075W        W 2171  38.064   1.962   2.666
43076W        W 2172  44.487  38.991   1.709
43077W        W 2173  44.827  42.809   0.308
43078W        W 2174  21.209   8.687  13.478
43079W        W 2175  22.018  11.852   1.821
43080W        W 2176  24.561   3.935  13.962
43081W        W 2177  12.291  14.275   0.933
43082W        W 2178  15.631  14.197  10.637
43083W        W 2179  36.391  14.264  14.383
43084W        W 2180  15.592  23.110  11.883
43085W        W 2181   2.728  25.975   0.906
43086W        W 2182  38.886   2.345  14.923
43087W        W 2183  21.669  33.044  12.448
43088W        W 2184  23.718   1.774   2.253
43089W        W 2185  44.260  11.841  11.394
43090W        W 2186   6.365  43.882  11.609
43091W        W 2187  24.150  24.660  13.823
43092W        W 2188  42.409  23.016   3.796
43093W        W 2189  35.553  25.018  14.337
43094W        W 2190  23.602   7.317   0.276
43095W        W 2191  15.272  15.644   2.392
43096W        W 2192   2.739   9.885  12.898
43097W        W 2193  22.054   1.244   3.353
43098W        W 2194  38.819   1.809  11.061
43099W        W 2195   6.391  41.997   2.303
43100W        W 2196  14.596  13.164   4.808
43101W        W 2197  19.693   8.711  13.052
43102W        W 2198  41.310  31.148   3.800
43103W        W 2199  10.310   0.910  11.923
43104W        W 2200  19.194  16.279  11.410
43105W        W 2201  17.659  26.098  11.962
43106W        W 2202  32.479   3.411   2.332
43107W        W 2203  10.296  15.166   1.325
43108W        W 2204  20.632  31.625  12.461
43109W        W 2205  38.010  31.982  10.413
43110W        W 2206  13.638  26.141  14.280
43111W        W 2207  24.114   0.300   4.728
43112W        W 2208  26.605   2.964   2.373
43113W        W 2209   9.390  43.295  11.529
43114W        W 2210  43.501  10.663  13.024
43115W        W 2211   5.722  16.637  14.435
43116W        W 2212  18.141  16.181  12.956
43117W        W 2213  35.557  30.122   2.903
43118W        W 2214  34.021   6.298   2.894
43119W        W 2215   4.368  28.008   2.778
43120W        W 2216   8.885  14.158   3.369
43121W        W 2217  10.775  27.120  12.546
43122W        W 2218  30.923   0.487   0.827
43123W        W 2219   6.819  38.062  14.473
43124W        W 2220  14.295  43.290  12.943
43125W        W 2221   5.804  16.091   0.751
43126W        W 2222   3.425  30.149  14.028
43127W        W 2223  44.379   8.162  13.476
43128W        W 2224  12.756  15.150  11.992
43129W        W 2225   7.342  42.012   4.263
43130W        W 2226   0.391  22.250   2.732
43131W        W 2227   9.660   0.444   1.404
43132W        W 2228  12.121  43.947  11.886
43133W        W 2229  10.341  36.495   0.268
43134W        W 2230  19.667  36.493  12.908
43135W        W 2231  39.426  35.578  14.860
43136W        W 2232   8.820   5.385  12.937
43137W        W 2233  10.680  10.701  14.300
43138W        W 2234  31.059  15.306   1.425
43139W        W 2235  37.370  18.641  13.996
43140W        W 2236  36.035  16.680   0.323
43141W        W 2237  39.349  39.324  10.914
43142W        W 2238  15.637  39.533   0.865
43143W        W 2239  32.962  41.925   2.229
43144W        W 2240   9.863  41.871   4.784
43145W        W 2241  13.293  35.548  11.885
43146W        W 2242  12.818  25.539   2.777
43147W        W 2243  23.223  20.714   0.430
43148W        W 2244  30.073  14.184  10.894
43149W        W 2245  39.332  26.016   1.855
43150W        W 2246  19.070  40.002   3.869
43151W        W 2247   2.292  38.493  11.959
43152W        W 2248  42.875  19.101   1.339
43153W        W 2249   6.363   4.253  13.049
43154W        W 2250  14.614  32.995  10.611
43155W        W 2251   5.718  17.198   2.685
43156W        W 2252  33.906   9.794   4.331
43157W        W 2253  31.427   0.924   4.134
43158W        W 2254  16.151  17.623   1.879
43159W        W 2255  15.299   0.464   1.273
43160W        W 2256  33.482  37.891   0.930
43161W        W 2257  15.638  32.491   4.349
43162W        W 2258  19.695  26.070  11.076
43163W        W 2259  31.433   8.735   4.723
43164W        W 2260  10.779  37.008  10.433
43165W        W 2261  41.482  28.039   1.897
43166W        W 2262  29.071  30.586   1.441
43167W        W 2263  12.694  18.140   2.888
43168W        W 2264  37.362   5.811   9.986
43169W        W 2265   6.793  26.468   3.169
43170W        W 2266  11.297   4.754   2.786
43171W        W 2267  23.537  26.025   0.433
43172W        W 2268  30.512  22.179   4.650
43173W        W 2269   6.680   4.389  10.429
43174W        W 2270  40.804  38.401   2.802
43175W        W 2271  19.137  15.579   3.203
43176W        W 2272  39.544  25.704  12.998
43177W        W 2273   3.238  41.798  14.862
43178W        W 2274  31.606  42.421   2.727
43179W        W 2275  43.965  11.658  12.096
43180W        W 2276   4.380  10.742  14.300
43181W        W 2277  44.788  41.819  13.505
43182W        W 2278  31.998   2.742  12.840
43183W        W 2279  24.608   8.672   0.828
43184W        W 2280   0.762  40.917   2.389
43185W        W 2281  33.505   3.950  13.969
43186W        W 2282  37.474  21.257   1.751
43187W        W 2283  27.490  32.063   2.275
43188W        W 2284  17.602  28.993  12.485
43189W        W 2285  44.845  36.068  12.390
43190W        W 2286  24.124  32.994   2.735
43191W        W 2287  19.251   6.847   0.741
43192W        W 2288  42.018  28.031   0.775
43193W        W 2289  12.186  40.810  11.574
43194W        W 2290   2.721  31.938   5.185
43195W        W 2291   1.800  13.801  10.637
43196W        W 2292  19.065   5.376   4.258
43197W        W 2293  34.586  13.824   0.852
43198W        W 2294  13.149  33.070   2.393
43199W        W 2295  34.114  16.213  11.924
43200W        W 2296   4.938  44.378  14.965
43201W        W 2297  34.889   7.217   2.242
43202W        W 2298  10.207  22.515  12.868
43203W        W 2299  28.599  30.913   4.128
43204W        W 2300  11.638  27.574  11.905
43205W        W 2301   1.443  41.418   3.864
43206W        W 2302  34.558   1.305  10.956
43207W        W 2303  25.047  40.941   2.757
43208W        W 2304  17.720  35.604   0.862
43209W        W 2305  30.081  27.457  12.485
43210W        W 2306  44.353  32.068  13.450
43211W        W 2307  43.909  26.553   4.778
43212W        W 2308  29.934  27.565  13.971
43213W        W 2309  18.594  28.436  12.962
43214W        W 2310  26.992  36.568  11.969
43215W        W 2311   7.742  17.261   2.663
43216W        W 2312   5.205  23.507   3.263
43217W        W 2313  39.837  29.432  12.043
43218W        W 2314   9.715  31.513   4.311
43219W        W 2315  33.059  10.636  13.382
43220W        W 2316   4.348  18.671  14.297
43221W        W 2317  18.207   8.809   0.943
43222W        W 2318  37.556  17.757   3.330
43223W        W 2319  25.567   9.389   3.856
43224W        W 2320  16.109  26.129   1.891
43225W        W 2321  10.815  29.973   0.893
43226W        W 2322  18.232  21.618   0.376
43227W        W 2323  25.994  15.246   4.633
43228W        W 2324  23.187   0.480  12.470
43229W        W 2325  22.088  22.088  14.013
43230W        W 2326  22.528  44.005  11.553
43231W        W 2327  29.153  28.949  14.396
43232W        W 2328   5.294  20.715   2.241
43233W        W 2329  16.293   0.801  11.904
43234W        W 2330  31.459   8.796   2.717
43235W        W 2331  16.238   5.201  10.521
43236W        W 2332  34.102  32.467   1.880
43237W        W 2333  24.188   6.204  11.476
43238W        W 2334  23.015  41.864   1.838
43239W        W 2335  12.219   5.429  14.477
43240W        W 2336  35.987  34.392   3.660
43241W        W 2337  36.577   2.837   4.113
43242W        W 2338   8.680   0.479  11.975
43243W        W 2339  15.821  18.565   0.262
43244W        W 2340  20.742  35.472  14.812
43245W        W 2341   9.238  38.563   3.366
43246W        W 2342   1.887  44.818  11.924
43247W        W 2343  22.717   0.806  14.956
43248W        W 2344  30.024  30.119   4.336
43249W        W 2345  42.357  29.600  10.576
43250W        W 2346  29.979  10.159   1.402
43251W        W 2347  40.320  30.056   1.872
43252W        W 2348   4.900  33.402   4.826
43253W        W 2349  10.378   5.353  13.983
43254W        W 2350  16.158  23.603   4.300
43255W        W 2351  23.492  41.900   3.287
43256W        W 2352   5.219   6.364  14.010
43257W        W 2353  26.987  35.996  12.961
43258W        W 2354  31.985  15.685  13.417
43259W        W 2355  24.043  41.390  10.004
43260W        W 2356  27.960  18.648  11.548
43261W        W 2357  40.829  39.348   3.645
43262W        W 2358  25.085   3.919  12.073
43263W        W 2359  15.728  14.120  11.006
43264W        W 2360  21.072  13.620   4.277
43265W        W 2361  41.391  22.681   4.682
43266W        W 2362  13.159  16.110  13.497
43267W        W 2363  22.515  17.302   2.840
43268W        W 2364   5.748  19.173   4.295
43269W        W 2365  10.365   5.279   1.905
43270W        W 2366  31.587   8.802  13.425
43271W        W 2367   2.387  18.237   2.855
43272W        W 2368   0.882  26.511  12.470
43273W        W 2369   4.756  42.298  14.919
43274W        W 2370  32.906   5.750   2.850
43275W        W 2371  21.217  14.684  13.349
43276W        W 2372  38.878  17.667  14.998
43277W        W 2373  22.250  42.313   1.724
43278W        W 2374  26.482   8.201   3.319
43279W        W 2375  24.054  11.799  12.906
43280W        W 2376   8.722  42.355   1.440
43281W        W 2377   3.450  39.527  11.080
43282W        W 2378  32.456   5.363   1.881
43283W        W 2379  17.087  15.728   5.319
43284W        W 2380   1.328  29.069  12.359
43285W        W 2381   6.345  23.997  12.440
43286W        W 2382  23.099  29.459   0.396
43287W        W 2383  33.623   1.333  10.528
43288W        W 2384  42.364  12.616   4.351
43289W        W 2385  12.307  20.207  14.947
43290W        W 2386  17.557   7.828   2.267
43291W        W 2387  37.461   9.684   4.207
43292W        W 2388  22.615   4.714  14.461
43293W        W 2389  32.460   2.337   4.676
43294W        W 2390   6.327  24.686   4.115
43295W        W 2391  12.802  39.899   1.253
43296W        W 2392   9.745  42.824  13.836
43297W        W 2393  13.268  42.313  14.931
43298W        W 2394  30.164  35.878  11.091
43299W        W 2395  15.684  38.904  13.869
43300W        W 2396  38.490  12.325  11.585
43301W        W 2397  11.655  21.713  13.537
43302W        W 2398  29.966  33.489  13.518
43303W        W 2399  26.547  39.389   3.676
43304W        W 2400   3.739  43.501   2.737
43305W        W 2401   0.276   4.782  11.568
43306W        W 2402  33.431  43.961   3.212
43307W        W 2403  34.539  10.794  13.495
43308W        W 2404  35.921  20.032  12.446
43309W        W 2405  18.768   1.475  12.534
43310W        W 2406   2.916  44.798   4.282
43311W        W 2407  12.269  29.552  12.024
43312W        W 2408  30.507  28.569   4.808
43313W        W 2409  30.429  16.312   2.313
43314W        W 2410  14.245  33.443  11.874
43315W        W 2411   9.181  43.007  13.803
43316W        W 2412  34.392  44.395   4.242
43317W        W 2413   7.181  35.934  11.950
43318W        W 2414  19.253   9.364  12.877
43319W        W 2415  24.027  35.484   1.408
43320W        W 2416  20.171  39.898   0.810
43321W        W 2417  39.492   3.837   4.124
43322W        W 2418   3.341  24.614   5.661
43323W        W 2419  28.514  38.371  12.488
43324W        W 2420  13.179  41.024  12.946
43325W        W 2421  37.003  29.163  14.801
43326W        W 2422  36.492  18.590  12.876
43327W        W 2423  42.858  17.110   4.179
43328W        W 2424   6.307   1.348   4.734
43329W        W 2425  25.090  26.122  14.279
43330W        W 2426  42.347  17.648   0.889
43331W        W 2427  12.354   9.706  12.970
43332W        W 2428  14.232  41.858  10.407
43333W        W 2429  10.332   1.367  13.012
43334W        W 2430   0.301  39.519  13.931
43335W        W 2431   9.858  19.714  12.857
43336W        W 2432  29.945  26.068  12.051
43337W        W 2433  36.906  40.426   4.600
43338W        W 2434  16.808  14.120   4.695
43339W        W 2435   3.800  29.174   3.265
43340W        W 2436  22.571  14.264   1.254
43341W        W 2437  31.968  27.960  12.532
43342W        W 2438  39.514  38.387   0.416
43343W        W 2439  13.314   7.859   4.161
43344W        W 2440   4.432  34.399  10.626
43345W        W 2441  31.631   7.206   2.681
43346W        W 2442   7.897  30.597  11.410
43347W        W 2443   6.831  23.685   3.822
43348W        W 2444   6.808   3.396   4.187
43349W        W 2445  31.627  33.894  14.941
43350W        W 2446   0.493  33.384  12.071
43351W        W 2447  33.548  39.819   0.911
43352W        W 2448  43.377  30.462   3.298
43353W        W 2449  18.131  31.587   4.214
43354W        W 2450  21.224  38.337  14.303
43355W        W 2451  21.143  33.024   3.358
43356W        W 2452  18.688   8.302   1.279
43357W        W 2453  20.531  12.679  11.581
43358W        W 2454  19.669  19.079   4.675
43359W        W 2455  38.008  27.510  14.281
43360W        W 2456  19.542  19.183  13.035
43361W        W 2457  37.831   2.471  13.979
43362W        W 2458  11.242  17.760   0.335
43363W        W 2459  38.926  39.986  14.334
43364W        W 2460  14.216  10.274   0.284
43365W        W 2461   8.367  17.761  10.035
43366W        W 2462   1.265   8.368   2.859
43367W        W 2463   4.356  33.036  11.488
43368W        W 2464  32.067  16.600  12.344
43369W        W 2465  24.982   3.252  13.822
43370W        W 2466   6.900   6.808  13.511
43371W        W 2467  24.192   0.837  10.497
43372W        W 2468  35.995   9.234   0.923
43373W        W 2469  37.349  41.819   3.343
43374W        W 2470  18.138  23.220   0.298
43375W        W 2471  24.705  30.002   1.344
43376W        W 2472  39.517   0.848  12.062
43377W        W 2473  17.220  21.085   3.258
43378W        W 2474  13.186  40.947   1.439
43379W        W 2475  30.985  28.948   3.642
43380W        W 2476  27.613  23.564  12.357
43381W        W 2477  25.078  16.810  14.488
43382W        W 2478  22.741  19.206   3.645
43383W        W 2479  33.513  39.827  13.850
43384W        W 2480   0.299  13.183   4.783
43385W        W 2481  32.953  18.672  14.509
43386W        W 2482   1.237  27.180   0.775
43387W        W 2483  26.541  21.700  12.939
43388W        W 2484  19.774  41.955   0.963
43389W        W 2485   3.256  13.652   2.241
43390W        W 2486  41.979  37.903   0.963
43391W        W 2487  41.832  13.143  10.491
43392W        W 2488  15.711  41.822  14.870
43393W        W 2489  43.812  18.082  10.568
43394W        W 2490  21.705   7.899  13.901
43395W        W 2491  39.322  38.540  11.892
43396W        W 2492  23.671  35.431  13.962
43397W        W 2493   9.716   3.734  13.045
43398W        W 2494  14.332  29.131   3.224
43399W        W 2495  27.572   5.861  13.465
43400W        W 2496  41.837  34.916  12.358
43401W        W 2497   8.874  19.641   0.739
43402W        W 2498  36.582  27.653   3.367
43403W        W 2499   6.910   5.889  10.592
43404W        W 2500   5.236  15.671   0.804
43405W        W 2501  22.681  20.058  10.012
43406W        W 2502  32.473  29.066   0.283
43407W        W 2503   3.410  29.647  13.795
43408W        W 2504   1.343  21.064  10.466
43409W        W 2505  10.879  25.587   1.279
43410W        W 2506   3.744   4.852  11.504
43411W        W 2507   8.707  22.049   2.413
43412W        W 2508  38.049  43.305   3.708
43413W        W 2509  10.381  29.618   2.360
43414W        W 2510   7.897   2.342  12.510
43415W        W 2511  30.531  10.319  14.485
43416W        W 2512   9.781  18.130   3.155
43417W        W 2513  14.122   2.342  14.369
43418W        W 2514  37.996  18.068  10.578
43419W        W 2515  16.137   8.841  12.050
43420W        W 2516  18.609  11.667  10.155
43421W        W 2517  35.041   2.257  12.994
43422W        W 2518  43.326  15.321   1.775
43423W        W 2519  37.486   0.402  11.593
43424W        W 2520  16.633   9.709  12.415
43425W        W 2521  37.023   9.344   0.834
43426W        W 2522  41.989  14.674  13.949
43427W        W 2523  31.112   0.976   4.352
43428W        W 2524  32.946  25.523   5.731
43429W        W 2525  36.089  11.351  10.900
43430W        W 2526  22.580  15.304   2.254
43431W        W 2527  32.468  36.935   2.700
43432W        W 2528  12.348  41.408   2.365
43433W        W 2529   5.223  14.707   2.833
43434W        W 2530  31.633   1.365  12.385
43435W        W 2531  19.273   5.910  14.459
43436W        W 2532  14.750  29.543  12.887
43437W        W 2533   4.852  36.881   9.990
43438W        W 2534   9.172  39.851  12.402
43439W        W 2535  36.588  44.973  13.030
43440W        W 2536   0.427  39.000   0.478
43441W        W 2537  29.961  24.122  14.422
43442W        W 2538  34.000  11.167   4.134
43443W        W 2539  29.522   3.350  14.446
43444W        W 2540   2.831  23.644   2.864
43445W        W 2541  18.715  13.165  12.051
43446W        W 2542  33.443  24.646   1.232
43447W        W 2543  17.211  42.382  14.983
43448W        W 2544  26.508  17.624   1.912
43449W        W 2545  42.937  41.347  12.033
43450W        W 2546  22.598  22.699  11.981
43451W        W 2547  26.546  21.620  10.892
43452W        W 2548  30.159  44.819   0.795
43453W        W 2549  25.965   3.722  10.501
43454W        W 2550   1.269  13.801   3.290
43455W        W 2551  31.916  27.487   1.913
43456W        W 2552  34.973  41.318   1.315
43457W        W 2553  32.593  42.449   4.248
43458W        W 2554   3.279  43.385   2.250
43459W        W 2555  30.009  17.764  12.026
43460W        W 2556  13.300  27.030  11.602
43461W        W 2557  15.252  36.898   0.268
43462W        W 2558  43.993  17.236   3.311
43463W        W 2559  29.928  37.570  12.870
43464W        W 2560  40.950   5.222  10.516
43465W        W 2561  26.951  13.788   3.656
43466W        W 2562  24.033  22.624  13.817
43467W        W 2563  23.152  42.885  14.879
43468W        W 2564   0.866  22.154  14.506
43469W        W 2565   7.299  28.477  10.445
43470W        W 2566  30.558   2.385  14.919
43471W        W 2567   4.276   6.796   1.806
43472W        W 2568  22.123  33.038   1.868
43473W        W 2569  28.464   5.254  11.073
43474W        W 2570  12.215  37.565   4.337
43475W        W 2571  38.931  22.162   1.919
43476W        W 2572  27.608  34.066  11.943
43477W        W 2573   3.292   0.753   4.766
43478W        W 2574   4.744  30.434  13.505
43479W        W 2575   7.718   7.351  11.010
43480W        W 2576  33.931  19.243   4.189
43481W        W 2577   7.686   1.457   0.471
43482W        W 2578  24.639   9.187  14.348
43483W        W 2579  41.984   2.833  13.017
43484W        W 2580  36.451  37.433   2.705
43485W        W 2581  28.007   7.395   2.894
43486W        W 2582  41.887   2.939  11.515
43487W        W 2583  38.821  43.816   3.296
43488W        W 2584   8.338  15.207  13.038
43489W        W 2585   1.770  31.109  14.370
43490W        W 2586   5.727  39.346  12.562
43491W        W 2587  24.571  15.724   0.251
43492W        W 2588  34.438  44.305   1.912
43493W        W 2589   7.286  32.625  10.539
43494W        W 2590  33.901  12.127   9.554
43495W        W 2591  12.231  35.001   4.304
43496W        W 2592  36.517  18.280  14.428
43497W        W 2593  14.320  44.319  14.468
43498W        W 2594  44.505  21.147  14.344
43499W        W 2595  30.091  36.399   4.635
43500W        W 2596  11.357  44.989   2.807
43501W        W 2597  29.069  22.538  14.407
43502W        W 2598  17.183  27.166   2.307
43503W        W 2599  32.013   7.409   3.771
43504W        W 2600   0.879  18.750  12.996
43505W        W 2601   0.359  35.414  11.082
43506W        W 2602  42.872  26.043   4.612
43507W        W 2603   3.824   3.812   3.264
43508W        W 2604  44.910  24.221   3.380
43509W        W 2605  15.264  34.431   3.154
43510W        W 2606  33.069  31.917   4.300
43511W        W 2607   8.339  39.385  12.062
43512W        W 2608  41.531  37.513  12.405
43513W        W 2609  14.828  24.641   2.750
43514W        W 2610  12.762  28.528   4.199
43515W        W 2611  27.959  17.799  13.874
43516W        W 2612  30.111  41.869  11.109
43517W        W 2613  10.326  25.655  14.455
43518W        W 2614   1.748  44.867  12.448
43519W        W 2615  14.173  26.162   1.371
43520W        W 2616   6.921   9.669  14.278
43521W        W 2617  14.251  31.542  13.836
43522W        W 2618   6.361  34.967  13.884
43523W        W 2619  41.488   5.704  11.978
43524W        W 2620   3.914   3.819   0.310
43525W        W 2621  26.578  34.907   1.321
43526W        W 2622  26.065  44.489   1.417
43527W        W 2623  20.642  19.626   4.779
43528W        W 2624   8.260  42.456   3.671
43529W        W 2625  30.154  13.765  12.921
43530W        W 2626  33.119  17.200  13.912
43531W        W 2627  23.698   8.256  10.494
43532W        W 2628  31.985  19.142  13.366
43533W        W 2629   4.901  32.394  13.446
43534W        W 2630   7.216  24.084   3.316
43535W        W 2631  13.752  21.257  10.895
43536W        W 2632  25.030  38.829   0.817
43537W        W 2633  13.747  37.076   2.341
43538W        W 2634  36.963   6.390   0.911
43539W        W 2635  42.408  25.652   3.276
43540W        W 2636   1.837   0.286  13.355
43541W        W 2637  16.245  14.154   2.242
43542W        W 2638  24.594  15.243  13.915
43543W        W 2639  30.576  36.465   1.253
43544W        W 2640   4.826  23.185  14.996
43545W        W 2641   5.836  12.749   0.771
43546W        W 2642   1.313  22.151  12.347
43547W        W 2643  21.182  10.759   3.293
43548W        W 2644  38.848  13.621   2.406
43549W        W 2645  14.248  11.718  10.950
43550W        W 2646  44.455  29.100  14.368
43551W        W 2647   8.797  10.679  13.019
43552W        W 2648  16.123  15.635  10.628
43553W        W 2649   3.233  35.888   9.994
43554W        W 2650  43.935  44.501  14.472
43555W        W 2651  37.040  36.525  12.393
43556W        W 2652  25.134  16.587   1.701
43557W        W 2653  38.400  29.079  12.016
43558W        W 2654  19.055   1.355   0.789
43559W        W 2655   4.830  40.397   4.656
43560W        W 2656  29.496  13.684   1.346
43561W        W 2657  23.714  42.922   2.369
43562W        W 2658  18.774  43.926  10.629
43563W        W 2659  42.400  17.111  12.483
43564W        W 2660  36.423   1.775  11.535
43565W        W 2661  28.491  39.540  13.380
43566W        W 2662   7.786  22.718  11.868
43567W        W 2663   4.870  13.109   2.815
43568W        W 2664  15.206  44.867   4.742
43569W        W 2665   2.286  42.856   4.724
43570W        W 2666  44.873   8.403   1.774
43571W        W 2667  13.714  39.387  13.335
43572W        W 2668  25.653  34.047   4.216
43573W        W 2669  24.019  23.029   4.345
43574W        W 2670   7.848   4.437  12.433
43575W        W 2671   1.290  42.018  12.339
43576W        W 2672  44.298  15.117   0.752
43577W        W 2673  20.711   4.321   1.877
43578W        W 2674   0.815   5.380  12.949
43579W        W 2675  25.474  38.329  11.882
43580W        W 2676  24.220   6.740  11.944
43581W        W 2677   8.828  27.983   4.325
43582W        W 2678  22.125  25.683   4.153
43583W        W 2679   6.383  11.185   2.797
43584W        W 2680   5.823  29.434  10.129
43585W        W 2681  36.461   8.347   1.431
43586W        W 2682  32.509   2.881  12.522
43587W        W 2683  18.254  40.333   1.409
43588W        W 2684  13.746   2.861   1.427
43589W        W 2685   0.954   1.800   2.334
43590W        W 2686  30.630  34.918  11.566
43591W        W 2687  38.503  36.849  12.376
43592W        W 2688   0.757  27.138   2.888
43593W        W 2689   5.302  20.610  14.479
43594W        W 2690   5.903  42.298  11.873
43595W        W 2691  21.535  18.060   2.795
43596W        W 2692  41.918  20.610   4.193
43597W        W 2693  39.447  29.456   1.729
43598W        W 2694   9.320   2.880   0.298
43599W        W 2695   9.753  11.764   2.872
43600W        W 2696  12.212  24.610  10.915
43601W        W 2697  25.130  35.368   5.766
43602W        W 2698  36.567  32.051  12.895
43603W        W 2699  22.579  28.577   4.174
43604W        W 2700  23.492  42.295  14.954
43605W        W 2701  29.460   5.827  14.856
43606W        W 2702  21.225  13.319  11.019
43607W        W 2703  43.369  37.980   1.307
43608W        W 2704  29.074  30.088   3.333
43609W        W 2705  32.539  38.970   1.295
43610W        W 2706  26.006  16.083   2.205
43611W        W 2707  16.648   6.424   2.285
43612W        W 2708   0.472  37.014   2.313
43613W        W 2709  41.953  31.424  11.534
43614W        W 2710  22.018   0.787  13.904
43615W        W 2711  10.366  25.511   0.460
43616W        W 2712  11.667   8.686   0.876
43617W        W 2713  41.002   3.446  10.556
43618W        W 2714  40.435  15.090  13.340
43619W        W 2715  29.552  36.903  10.985
43620W        W 2716  27.077  42.350  11.583
43621W        W 2717  22.591   3.371  10.554
43622W        W 2718  35.878  30.973  14.465
43623W        W 2719  14.161  11.748  12.902
43624W        W 2720  22.528   5.767   1.933
43625W        W 2721  27.516  17.260   4.253
43626W        W 2722   4.374   4.787  11.966
43627W        W 2723  13.224  19.779   2.680
43628W        W 2724  25.051  41.470  10.407
43629W        W 2725   3.932  29.172   0.848
43630W        W 2726   1.844  34.960   2.856
43631W        W 2727  10.195   8.395   4.706
43632W        W 2728   5.865  32.119   1.699
43633W        W 2729  44.291  40.518   2.340
43634W        W 2730  26.536  16.769  14.031
43635W        W 2731  22.154  32.996   3.171
43636W        W 2732  39.064  18.136  10.442
43637W        W 2733  34.551  33.113  12.353
43638W        W 2734  10.351  13.348   2.205
43639W        W 2735   8.786  21.164   2.197
43640W        W 2736  40.900   8.382  10.556
43641W        W 2737  26.139   8.741  12.470
43642W        W 2738  39.353  31.413   3.777
43643W        W 2739   9.710  41.445  11.048
43644W        W 2740  24.192  35.437   0.801
43645W        W 2741  37.562  13.643   3.781
43646W        W 2742  40.535  10.225  13.823
43647W        W 2743  14.786  16.676  11.989
43648W        W 2744  34.475  29.932  11.507
43649W        W 2745   0.828   6.685   1.797
43650W        W 2746  42.816  14.325  14.882
43651W        W 2747  19.725   5.863  11.416
43652W        W 2748  15.717  14.743   4.673
43653W        W 2749  31.517   7.734  14.460
43654W        W 2750  39.892  11.194  14.487
43655W        W 2751  38.826  39.972  10.964
43656W        W 2752  20.180  27.122  14.418
43657W        W 2753   2.366   7.189  14.901
43658W        W 2754   5.346   0.274   1.841
43659W        W 2755  16.633  13.145  12.932
43660W        W 2756  33.589  44.988   1.799
43661W        W 2757  39.319  30.079   1.419
43662W        W 2758  35.400  32.579  12.881
43663W        W 2759  10.670   9.706  13.461
43664W        W 2760  27.011   8.273  11.602
43665W        W 2761  33.065  10.278  11.884
43666W        W 2762  29.468  26.580  11.886
43667W        W 2763   2.958  34.097   2.200
43668W        W 2764  15.697   1.753  10.954
43669W        W 2765  26.466  17.663  11.049
43670W        W 2766  15.751  18.061   4.673
43671W        W 2767  11.862   0.952   4.833
43672W        W 2768  23.544  32.090  12.369
43673W        W 2769  31.648  35.574  11.409
43674W        W 2770  36.899  28.985   0.412
43675W        W 2771  25.669  35.500  13.408
43676W        W 2772  16.588  28.987  10.123
43677W        W 2773  43.966  25.627   2.413
43678W        W 2774   7.310  33.947   2.390
43679W        W 2775  23.199  42.495  13.536
43680W        W 2776  34.571  30.921  14.324
43681W        W 2777  41.319  31.970  11.081
43682W        W 2778  21.584  44.900  11.611
43683W        W 2779  41.828  22.044   4.272
43684W        W 2780  12.245  18.692   1.905
43685W        W 2781  32.392   6.368   1.717
43686W        W 2782  18.685   6.272  12.876
43687W        W 2783  33.891  19.602  10.986
43688W        W 2784  37.416  14.261  12.548
43689W        W 2785   6.316  29.580  12.535
43690W        W 2786  23.583  31.487  11.070
43691W        W 2787  29.542  35.392   3.149
43692W        W 2788  21.245  37.416   4.206
43693W        W 2789  22.125  27.008  14.282
43694W        W 2790  22.574   5.399  12.556
43695W        W 2791  12.323  11.150  13.997
43696W        W 2792  35.081  26.085  11.859
43697W        W 2793  38.333  42.327   1.310
43698W        W 2794  29.561  43.927   2.746
43699W        W 2795   8.358  32.535  12.982
43700W        W 2796   8.704   9.261  14.341
43701W        W 2797  11.178  37.412  10.427
43702W        W 2798  25.084   0.777   1.236
43703W        W 2799  30.422  41.805  11.402
43704W        W 2800  35.485  34.518   1.916
43705W        W 2801  29.465  13.249   3.359
43706W        W 2802  30.655  35.932  12.024
43707W        W 2803  12.214  18.709  10.035
43708W        W 2804  41.502  21.124   3.670
43709W        W 2805  32.574  43.816   4.337
43710W        W 2806  12.179   8.297  13.419
43711W        W 2807   9.300  31.412   5.141
43712W        W 2808  41.308  32.956  12.397
43713W        W 2809  44.462  12.794  10.093
43714W        W 2810   5.335  20.585  10.951
43715W        W 2811   6.759   7.738  11.483
43716W        W 2812   4.283  36.984  13.038
43717W        W 2813   5.811  27.952  12.449
43718W        W 2814  25.972   0.465  11.921
43719W        W 2815  24.011   0.415  11.078
43720W        W 2816  13.197  35.047  12.931
43721W        W 2817  18.118  13.811  12.095
43722W        W 2818  29.124  10.323  13.832
43723W        W 2819   9.731  11.283   3.200
43724W        W 2820   2.813  20.625   2.335
43725W        W 2821  10.271   3.338   1.293
43726W        W 2822  22.629  30.066  11.991
43727W        W 2823  17.675  23.604   4.601
43728W        W 2824  40.456  40.027  13.873
43729W        W 2825  14.139  12.182  13.540
43730W        W 2826  35.592   9.881  12.350
43731W        W 2827   8.860  33.461   1.257
43732W        W 2828  14.099  25.709   5.256
43733W        W 2829   2.455  27.986   2.251
43734W        W 2830   1.861   1.305   2.672
43735W        W 2831  22.524  27.447  12.462
43736W        W 2832   1.781   0.763  10.411
43737W        W 2833  27.127  10.650   1.862
43738W        W 2834  16.219  17.714  12.995
43739W        W 2835  29.662   0.395   4.640
43740W        W 2836  31.000  24.718  12.839
43741W        W 2837  33.413  17.674   0.852
43742W        W 2838   0.790  23.000   4.185
43743W        W 2839  33.937  25.690   2.290
43744W        W 2840  28.983  38.821   4.254
43745W        W 2841   1.469  22.735  11.124
43746W        W 2842  19.201  32.045   0.811
43747W        W 2843  12.260  14.132   2.308
43748W        W 2844  25.589  43.388  11.060
43749W        W 2845  30.038  42.362  11.563
43750W        W 2846  18.157  20.238  12.493
43751W        W 2847  10.355  33.064  12.916
43752W        W 2848  44.447  24.493  14.876
43753W        W 2849  39.486  30.126  13.817
43754W        W 2850  21.640  40.475  12.032
43755W        W 2851  33.070  20.627  11.501
43756W        W 2852  10.203  22.729  14.014
43757W        W 2853  41.368   2.280   3.182
43758W        W 2854  35.996   8.895  13.061
43759W        W 2855  42.435   2.762   3.706
43760W        W 2856   9.340  38.519  11.911
43761W        W 2857  29.971  25.592   9.583
43762W        W 2858  14.754  36.895   1.911
43763W        W 2859   6.208  34.476   0.265
43764W        W 2860  33.598  31.505   3.316
43765W        W 2861   0.818  30.492   2.385
43766W        W 2862  29.449  44.971  11.913
43767W        W 2863  24.175  25.629   2.412
43768W        W 2864  17.278  18.653  12.039
43769W        W 2865  20.724  26.616   1.721
43770W        W 2866  38.522   1.449   2.836
43771W        W 2867  19.169  38.890   1.841
43772W        W 2868  30.413  19.751  11.372
43773W        W 2869  13.774  26.681  13.326
43774W        W 2870  18.235  20.593   3.832
43775W        W 2871  31.010  32.093  12.551
43776W        W 2872   0.903  24.050   3.179
43777W        W 2873  13.644   7.338   4.354
43778W        W 2874  15.324  13.208   0.266
43779W        W 2875  38.972  41.368   0.380
43780W        W 2876  42.819  38.413  11.401
43781W        W 2877  43.480  14.703  14.830
43782W        W 2878  37.878   4.306   4.352
43783W        W 2879  31.508  35.939   1.924
43784W        W 2880  33.102  19.062  14.501
43785W        W 2881  23.700  32.594  14.935
43786W        W 2882  32.634  13.618  14.884
43787W        W 2883   4.877  22.586   5.081
43788W        W 2884  36.489   1.863  13.423
43789W        W 2885   8.787  37.076  11.999
43790W        W 2886  41.385  13.195   1.297
43791W        W 2887  31.612  34.028   0.899
43792W        W 2888  17.792  19.663   3.362
43793W        W 2889  28.548  10.738  13.855
43794W        W 2890  21.189  11.715  12.912
43795W        W 2891  21.142  24.485  11.881
43796W        W 2892  17.207   3.746   2.201
43797W        W 2893  43.336  31.446   4.188
43798W        W 2894  39.323  36.072   0.741
43799W        W 2895   6.727   0.834   2.301
43800W        W 2896  10.156  17.561   3.224
43801W        W 2897  12.780   9.392   2.841
43802W        W 2898  15.117  17.570  14.310
43803W        W 2899  29.975  43.369  14.276
43804W        W 2900  13.242  32.574   2.399
43805W        W 2901  10.230  43.281  10.122
43806W        W 2902   2.816  35.871   0.742
43807W        W 2903   6.793  34.078   1.423
43808W        W 2904  19.217   1.406   1.907
43809W        W 2905  15.738   0.317   0.776
43810W        W 2906  15.770  42.314  14.307
43811W        W 2907  43.871   2.437  11.480
43812W        W 2908  21.723  39.342  14.405
43813W        W 2909  12.141  44.439   4.754
43814W        W 2910  37.993  14.689   0.742
43815W        W 2911  16.224  24.521   2.294
43816W        W 2912   3.250  29.647   1.784
43817W        W 2913   7.365  25.069  13.374
43818W        W 2914  11.220  35.107   4.747
43819W        W 2915  42.480  37.892   0.277
43820W        W 2916  39.811  37.069   1.823
43821W        W 2917   9.285  40.986  12.374
43822W        W 2918   0.286  25.088   3.281
43823W        W 2919  30.549  21.696  12.509
43824W        W 2920   8.734  36.928   3.260
43825W        W 2921  40.052  33.421   4.679
43826W        W 2922  37.054  36.499   4.666
43827W        W 2923  41.882  34.601  14.802
43828W        W 2924  38.420  13.299  11.430
43829W        W 2925  32.958  14.737   2.202
43830W        W 2926  17.778   9.317   0.417
43831W        W 2927  28.664  26.018  12.393
43832W        W 2928  19.189  22.204   3.688
43833W        W 2929  26.605   2.398   3.672
43834W        W 2930   5.747  37.047  11.506
43835W        W 2931   2.936   1.831   3.178
43836W        W 2932  27.169  10.695   0.829
43837W        W 2933  37.396  14.159   0.766
43838W        W 2934   6.300  16.650   3.245
43839W        W 2935  25.133  44.838   1.889
43840W        W 2936  16.780  38.016  14.843
43841W        W 2937   3.236  43.369  13.813
43842W        W 2938  27.671  16.211  11.599
43843W        W 2939  15.216  18.571  12.879
43844W        W 2940   6.402  10.681   3.713
43845W        W 2941  41.018  42.827   3.690
43846W        W 2942   5.247   1.838  14.922
43847W        W 2943  28.484  27.156   3.805
43848W        W 2944  44.455  38.057  13.006
43849W        W 2945   8.235  18.221  11.965
43850W        W 2946  43.303  16.256  11.408
43851W        W 2947   9.289  28.988   1.775
43852W        W 2948  21.217  33.615   0.258
43853W        W 2949  14.274  16.191  11.017
43854W        W 2950  37.872  16.737   0.920
43855W        W 2951  27.645   9.164  12.021
43856W        W 2952  15.324  32.957   0.756
43857W        W 2953  40.324  15.213   2.403
43858W        W 2954  19.659   0.437  13.496
43859W        W 2955  20.238  37.056   2.179
43860W        W 2956  21.689  21.529  11.533
43861W        W 2957   1.315   7.675  13.399
43862W        W 2958  25.554  43.492  11.424
43863W        W 2959  37.419   3.930   4.134
43864W        W 2960  40.392  24.086   3.205
43865W        W 2961  12.749  41.985  11.442
43866W        W 2962  17.793  21.145   2.701
43867W        W 2963   4.905  15.329  14.982
43868W        W 2964  38.473  12.232   2.787
43869W        W 2965  25.033  25.146  11.929
43870W        W 2966  31.945  40.372   1.335
43871W        W 2967   7.218  33.912   3.669
43872W        W 2968  12.119  35.035  11.399
43873W        W 2969  37.547   1.244  14.951
43874W        W 2970   5.723  30.428   1.846
43875W        W 2971   4.824  36.430   5.090
43876W        W 2972  18.150  20.643  14.415
43877W        W 2973  28.070  41.988   5.304
43878W        W 2974  21.634  13.678   5.146
43879W        W 2975  25.993  32.510   9.450
43880W        W 2976  20.675  38.333   4.237
43881W        W 2977  37.476  22.724   3.806
43882W        W 2978  20.095   4.312  13.020
43883W        W 2979  10.801  33.917   0.378
43884W        W 2980  44.418  10.727  12.495
43885W        W 2981  29.523  20.587   3.816
43886W        W 2982  30.500   5.267  14.484
43887W        W 2983  16.581  39.371  13.900
43888W        W 2984   3.847  21.236  13.806
43889W        W 2985  33.037  25.640  10.899
43890W        W 2986   9.797  32.932  11.883
43891W        W 2987  33.521  11.763   4.183
43892W        W 2988  44.865  14.815  10.522
43893W        W 2989  11.329  30.131  12.533
43894W        W 2990   9.179  10.259   1.917
43895W        W 2991   7.399  39.057  11.902
43896W        W 2992  12.322  17.130   0.834
43897W        W 2993  21.115  11.845  12.503
43898W        W 2994  35.979  24.627  10.957
43899W        W 2995  43.377  13.228  12.922
43900W        W 2996  22.081  23.233   3.248
43901W        W 2997   2.752  43.838  11.992
43902W        W 2998   8.239  43.811   3.366
43903W        W 2999   4.890  43.411  11.574
43904W        W 3000  38.035   8.793   3.302
43905W        W 3001  41.370  18.157   0.947
43906W        W 3002   3.930  13.202  11.010
43907W        W 3003  24.097  11.254   4.202
43908W        W 3004   7.846  17.681   5.134
43909W        W 3005  29.168  26.112  11.529
43910W        W 3006  26.117  22.740   1.349
43911W        W 3007  13.673   8.878  11.091
43912W        W 3008  18.266  11.346  13.536
43913W        W 3009  38.501  43.414  10.466
43914W        W 3010  37.387  27.484  12.571
43915W        W 3011  18.127  31.564   1.765
43916W        W 3012  15.720  43.903  12.021
43917W        W 3013  26.636   6.412   3.704
43918W        W 3014  40.989  18.274  12.877
43919W        W 3015  29.598   3.308  10.058
43920W        W 3016  21.201  32.947  12.840
43921W        W 3017  27.544  40.977  12.400
43922W        W 3018  19.668  43.436   4.732
43923W        W 3019   6.241  34.929   2.740
43924W        W 3020  39.320  21.603   0.319
43925W        W 3021   2.744  25.146  11.934
43926W        W 3022  40.950  27.031   4.738
43927W        W 3023  17.676  31.087   4.624
43928W        W 3024   9.299  25.570   3.270
43929W        W 3025  33.497   6.250   1.825
43930W        W 3026  15.123  26.485  14.510
43931W        W 3027  27.179   5.349   0.410
43932W        W 3028  11.653  10.850  12.094
43933W        W 3029  30.941  29.531  14.309
43934W        W 3030  12.340  18.281   5.718
43935W        W 3031  21.567  21.676  12.952
43936W        W 3032  35.986  27.548   0.829
43937W        W 3033  30.647  32.984  11.943
43938W        W 3034  18.662  20.744  13.885
43939W        W 3035  12.297  32.628  12.346
43940W        W 3036   1.736  29.617   2.815
43941W        W 3037  25.646  27.685   1.915
43942W        W 3038  25.070  19.066   0.474
43943W        W 3039  31.129  15.729   4.804
43944W        W 3040  19.580  29.918  11.491
43945W        W 3041  38.371  12.736  10.533
43946W        W 3042   7.672   7.397  11.570
43947W        W 3043  40.925  28.549  12.857
43948W        W 3044  14.171  37.009  11.856
43949W        W 3045  35.464  40.411   1.930
43950W        W 3046  44.813  11.347  13.544
43951W        W 3047  23.654  23.562   2.793
43952W        W 3048   1.248  29.570   0.929
43953W        W 3049   5.730  36.503  11.445
43954W        W 3050  21.124  38.951   0.807
43955W        W 3051  22.628   1.822   5.158
43956W        W 3052  29.434  20.538   1.912
43957W        W 3053  10.245  34.379  14.454
43958W        W 3054  20.663  43.793   2.406
43959W        W 3055  31.056  28.669  14.821
43960W        W 3056  37.550  31.408  12.908
43961W        W 3057  13.825  41.338   2.792
43962W        W 3058  23.041   3.713  14.370
43963W        W 3059  28.102  17.664   4.344
43964W        W 3060  10.371  21.211  10.086
43965W        W 3061  17.084   5.343   0.358
43966W        W 3062  38.063  42.838  13.514
43967W        W 3063  39.371  34.593   0.458
43968W        W 3064   0.358  41.993   0.364
43969W        W 3065  41.931  35.096  11.443
43970W        W 3066  31.402  17.663   0.420
43971W        W 3067  16.279  25.121   0.866
43972W        W 3068  21.143   5.924   1.895
43973W        W 3069  35.364  15.642   9.643
43974W        W 3070  33.996  38.488  11.127
43975W        W 3071  22.251  29.559   0.920
43976W        W 3072   4.777  10.637  14.022
43977W        W 3073  27.515  40.510   4.184
43978W        W 3074  21.108  37.387  10.615
43979W        W 3075  32.397   4.238  13.394
43980W        W 3076  27.465  32.397   3.329
43981W        W 3077  12.203  15.118   0.483
43982W        W 3078   3.780   4.375  11.000
43983W        W 3079  39.021  34.102   2.342
43984W        W 3080   6.774  33.943   2.250
43985W        W 3081  21.608   5.326   1.770
43986W        W 3082  28.158  13.795  14.322
43987W        W 3083  35.474  24.542   1.311
43988W        W 3084  44.330  26.176  13.367
43989W        W 3085   5.312   8.380   3.302
43990W        W 3086   4.276  31.450   0.481
43991W        W 3087  40.042  44.286   2.323
43992W        W 3088  35.967  21.182   2.887
43993W        W 3089  37.528  42.935  12.535
43994W        W 3090  30.064  14.315  12.446
43995W        W 3091  38.377   4.698  10.912
43996W        W 3092  28.674  12.222  13.371
43997W        W 3093  18.211  42.817   2.789
43998W        W 3094  28.479  32.027   9.924
43999W        W 3095  22.998  30.986  13.051
44000W        W 3096  17.110   2.886  14.358
44001W        W 3097  43.514  36.359   2.719
44002W        W 3098  44.759  24.602   1.318
44003W        W 3099   0.259  28.100  14.829
44004W        W 3100  15.275  38.428  13.013
44005W        W 3101  42.376   5.800   2.241
44006W        W 3102  41.806  29.602  12.933
44007W        W 3103  14.613  33.423  11.499
44008W        W 3104  15.149   7.714  11.984
44009W        W 3105  41.023   2.916   0.471
44010W        W 3106  23.560   2.742   1.398
44011W        W 3107  22.125   3.445   2.695
44012W        W 3108   4.230  24.505   1.809
44013W        W 3109  20.214   1.446   3.180
44014W        W 3110  36.367   7.206   4.339
44015W        W 3111  19.157  44.499   0.484
44016W        W 3112  34.942  30.460  12.868
44017W        W 3113  20.056   0.253   4.211
44018W        W 3114  43.403  13.274  12.417
44019W        W 3115  35.092  44.837   0.245
44020W        W 3116   3.850  36.488  11.916
44021W        W 3117  16.297  21.652  14.368
44022W        W 3118  33.935  32.485   0.256
44023W        W 3119  27.573  39.831   3.860
44024W        W 3120  44.811   4.280  13.464
44025W        W 3121  41.859   5.356  14.459
44026W        W 3122  35.540  13.330  10.005
44027W        W 3123  39.393  27.082   3.707
44028W        W 3124  24.068  43.282   4.602
44029W        W 3125  36.378  26.033  14.774
44030W        W 3126   2.817  44.392  14.779
44031W        W 3127  30.482   1.819  14.818
44032W        W 3128  43.339  31.566   0.931
44033W        W 3129  29.073  22.705  12.545
44034W        W 3130  39.921  41.414   3.237
44035W        W 3131  15.090   0.898  11.453
44036W        W 3132   7.817  30.102  10.944
44037W        W 3133  39.911  25.051  11.977
44038W        W 3134  32.601  25.597  11.966
44039W        W 3135  37.052  13.723   3.269
44040W        W 3136  39.509  33.024  10.463
44041W        W 3137   5.328  21.217   1.432
44042W        W 3138  19.204  42.365  14.436
44043W        W 3139   3.916  37.035   1.780
44044W        W 3140  40.311   8.801   3.844
44045W        W 3141   7.872  22.146   3.159
44046W        W 3142   7.887  34.114  13.858
44047W        W 3143  15.244  33.117   2.710
44048W        W 3144  16.141  26.522   0.427
44049W        W 3145  41.416   4.867   3.361
44050W        W 3146  20.151  23.617  12.417
44051W        W 3147   9.353  13.756  14.985
44052W        W 3148  22.693   5.853  10.580
44053W        W 3149   9.753  18.692   1.868
44054W        W 3150   5.363  20.584  13.902
44055W        W 3151   2.324  11.733   2.194
44056W        W 3152  33.914  23.590  14.333
44057W        W 3153  14.796  34.006  12.849
44058W        W 3154  26.034   1.875   4.158
44059W        W 3155  14.178  40.878   0.825
44060W        W 3156  20.258  18.082  13.975
44061W        W 3157  18.641  39.411  13.308
44062W        W 3158  10.362   1.928  13.989
44063W        W 3159  32.125   4.728  10.086
44064W        W 3160   3.940  34.079  12.368
44065W        W 3161  34.016  16.201  14.860
44066W        W 3162  28.672  18.131   3.257
44067W        W 3163  23.595  17.708  11.113
44068W        W 3164   9.879  41.510  12.875
44069W        W 3165   4.810  33.008  14.993
44070W        W 3166  30.452  26.169   3.712
44071W        W 3167  12.124  10.369   2.418
44072W        W 3168   6.821  40.881   1.410
44073W        W 3169   7.887  17.774   3.264
44074W        W 3170  30.937  19.062  10.104
44075W        W 3171   1.784  13.133   0.755
44076W        W 3172  20.592  30.127   4.716
44077W        W 3173  28.638   6.783  14.424
44078W        W 3174  39.955   1.777   3.813
44079W        W 3175  26.081  34.504   2.896
44080W        W 3176  22.619  17.596  14.307
44081W        W 3177  22.693   2.789   2.662
44082W        W 3178   3.755  15.182  13.017
44083W        W 3179  29.004  21.042   3.258
44084W        W 3180  34.408  20.682  10.005
44085W        W 3181   4.845  40.936   1.814
44086W        W 3182  20.171  35.428  12.854
44087W        W 3183   7.230  19.566   1.286
44088W        W 3184  31.600  17.623  10.448
44089W        W 3185   7.899  31.992   3.273
44090W        W 3186   6.291  28.100  14.854
44091W        W 3187   6.921  15.143  12.021
44092W        W 3188  38.500  39.994  12.410
44093W        W 3189  20.735  26.461  11.563
44094W        W 3190  32.581  28.621   2.764
44095W        W 3191  16.712  18.610  11.953
44096W        W 3192  38.838  34.584   3.348
44097W        W 3193   0.770  13.141   4.835
44098W        W 3194  11.734  34.992  12.084
44099W        W 3195   2.360  25.198   1.880
44100W        W 3196  24.072  27.114  14.305
44101W        W 3197   4.378  43.310  13.542
44102W        W 3198   1.376  25.172  11.011
44103W        W 3199  28.175  23.549  14.508
44104W        W 3200  40.341  36.947  11.993
44105W        W 3201  33.095  33.476  12.882
44106W        W 3202  32.552  14.727  13.409
44107W        W 3203  27.125   7.727  13.513
44108W        W 3204  36.513   4.267  14.957
44109W        W 3205   9.786   5.739  10.500
44110W        W 3206  13.178  29.176   2.723
44111W        W 3207  26.582  40.439  12.372
44112W        W 3208  34.871   4.702   4.261
44113W        W 3209   9.644  21.171  11.049
44114W        W 3210   8.400  21.255   0.470
44115W        W 3211  19.175  43.769   2.258
44116W        W 3212  19.740   7.764  14.843
44117W        W 3213  21.105  13.256  11.486
44118W        W 3214  24.079  19.282  13.495
44119W        W 3215  10.316  30.922  13.428
44120W        W 3216  34.455  42.002  12.004
44121W        W 3217  33.874   4.333   3.762
44122W        W 3218  10.157  30.642  13.415
44123W        W 3219  14.596  44.445  12.543
44124W        W 3220  23.703  38.000   9.924
44125W        W 3221   7.416   9.375   3.767
44126W        W 3222   0.485  19.211  12.036
44127W        W 3223   1.745   6.753  14.509
44128W        W 3224  38.859  42.787   4.193
44129W        W 3225   0.371  37.953  11.962
44130W        W 3226  39.987  34.950   2.681
44131W        W 3227  12.651  29.041   0.916
44132W        W 3228  31.113  15.768   2.703
44133W        W 3229   1.841  38.013   4.789
44134W        W 3230   2.333  27.549  10.537
44135W        W 3231  15.160  20.137   0.786
44136W        W 3232  42.849  28.065  14.411
44137W        W 3233   7.352  28.570  14.901
44138W        W 3234  38.048   4.885   0.814
44139W        W 3235  32.084  22.211   0.265
44140W        W 3236  41.901  28.158   0.390
44141W        W 3237  18.281  25.989   4.300
44142W        W 3238   7.244  11.832  13.512
44143W        W 3239  40.322  27.111   3.693
44144W        W 3240  24.059  13.225  10.919
44145W        W 3241  31.619  34.982  12.854
44146W        W 3242  10.723  16.223   3.284
44147W        W 3243  38.014  19.647  13.975
44148W        W 3244  25.013  44.981  12.043
44149W        W 3245  30.598  33.390  11.454
44150W        W 3246  26.029  32.928   0.423
44151W        W 3247  34.425  15.783  14.908
44152W        W 3248  24.121  31.416  13.043
44153W        W 3249  25.696  25.197  11.906
44154W        W 3250   6.808  41.438  13.947
44155W        W 3251   8.241   8.891   0.858
44156W        W 3252  14.219  24.110   5.185
44157W        W 3253  21.208  10.374  13.427
44158W        W 3254  26.008  17.293  14.290
44159W        W 3255  26.131  42.508  11.484
44160W        W 3256  24.707  26.476   0.774
44161W        W 3257  44.952  32.533   4.210
44162W        W 3258  20.129  40.028   4.318
44163W        W 3259  16.316   3.374  13.488
44164W        W 3260  33.571   1.745  13.502
44165W        W 3261  32.451  30.013  14.427
44166W        W 3262  19.089  15.730  12.363
44167W        W 3263  31.518  40.541  14.990
44168W        W 3264  12.329  32.427   1.305
44169W        W 3265  44.774  21.595   4.295
44170W        W 3266   0.918  35.406  13.043
44171W        W 3267  39.360  23.143   3.235
44172W        W 3268  37.572  27.115   4.196
44173W        W 3269  13.747  29.653  12.563
44174W        W 3270  33.467  12.278   0.358
44175W        W 3271   0.861  33.918  11.428
44176W        W 3272  16.094  17.110   4.831
44177W        W 3273  43.390  18.245   1.440
44178W        W 3274   1.822  35.948   4.130
44179W        W 3275  15.274  20.573  13.834
44180W        W 3276  21.697   0.430   0.861
44181W        W 3277   5.836  20.128   1.409
44182W        W 3278   7.746  10.751   2.225
44183W        W 3279  28.653   7.784   4.169
44184W        W 3280  32.398  32.433  10.570
44185W        W 3281  11.711   7.724  11.591
44186W        W 3282  21.261  41.522  14.789
44187W        W 3283  16.799   9.647  10.448
44188W        W 3284  22.552  35.517   2.410
44189W        W 3285  41.808  35.947   0.291
44190W        W 3286   3.771  32.534  12.046
44191W        W 3287   7.895   2.762   2.678
44192W        W 3288  35.464  40.482  10.563
44193W        W 3289  42.000  11.144  11.127
44194W        W 3290  27.583  32.128   0.277
44195W        W 3291  11.813  28.938  13.353
44196W        W 3292  27.610  31.006   3.374
44197W        W 3293  23.515  33.435  12.914
44198W        W 3294  40.952  43.331   0.886
44199W        W 3295   3.837   8.761  12.415
44200W        W 3296  39.964   4.373  13.435
44201W        W 3297  41.507  13.776  13.841
44202W        W 3298  13.789  37.867  12.090
44203W        W 3299  38.500   4.911  10.533
44204W        W 3300  37.906  31.114   2.719
44205W        W 3301   4.929  33.922  11.950
44206W        W 3302   5.308   4.725  11.077
44207W        W 3303  14.663  42.780  12.470
44208W        W 3304  36.953  25.068  12.083
44209W        W 3305  18.208  39.320   0.792
44210W        W 3306   2.318  29.472   2.329
44211W        W 3307   7.269   2.918   0.758
44212W        W 3308  32.594  17.644   2.810
44213W        W 3309  18.111  10.160   2.371
44214W        W 3310  28.642  41.962  14.839
44215W        W 3311  38.958  44.005  14.320
44216W        W 3312   6.272  40.332  13.054
44217W        W 3313  23.650  16.245  11.085
44218W        W 3314  21.082  12.164   0.924
44219W        W 3315   8.686  26.494  12.453
44220W        W 3316   7.771   5.319   1.847
44221W        W 3317  31.971  22.996   4.753
44222W        W 3318   6.400   0.307  13.376
44223W        W 3319  41.529  35.010   3.276
44224W        W 3320  43.312  26.595   4.644
44225W        W 3321   7.795  23.662  10.934
44226W        W 3322   6.366  31.514   2.393
44227W        W 3323   5.384   3.792   2.668
44228W        W 3324  15.640  30.589  10.919
44229W        W 3325  21.520  24.555  14.322
44230W        W 3326   0.796  33.427  12.357
44231W        W 3327  44.936  24.120   2.810
44232W        W 3328  34.959  40.042  13.499
44233W        W 3329   6.922  25.055  14.467
44234W        W 3330  32.419  39.032   3.240
44235W        W 3331  43.987  22.583   1.800
44236W        W 3332  30.987  32.625  12.035
44237W        W 3333  40.832  21.534   2.280
44238W        W 3334  11.216  43.960  11.101
44239W        W 3335   7.764  19.561   3.177
44240W        W 3336  41.002  38.540   1.288
44241W        W 3337  18.262  15.578  14.289
44242W        W 3338   2.369   8.840  11.874
44243W        W 3339  40.450   1.858  12.954
44244W        W 3340   1.937  18.696  14.501
44245W        W 3341  32.550   3.347   5.142
44246W        W 3342  10.149   5.209   0.284
44247W        W 3343  34.114  23.095   5.093
44248W        W 3344  35.090  20.268  11.880
44249W        W 3345  14.594  10.372  11.481
44250W        W 3346  32.587  17.793  10.503
44251W        W 3347   0.961  17.210   3.192
44252W        W 3348   2.958  26.128  12.855
44253W        W 3349  40.393  22.082   3.795
44254W        W 3350  20.624  24.568   4.708
44255W        W 3351   1.910   1.978  11.399
44256W        W 3352  15.782  44.447  13.940
44257W        W 3353  32.052  12.176  13.033
44258W        W 3354  40.895   3.350   4.760
44259W        W 3355  42.346   0.340   4.700
44260W        W 3356  24.496  35.924   3.247
44261W        W 3357  17.078   9.837   2.412
44262W        W 3358  41.993  34.932  12.033
44263W        W 3359  25.665  16.154   0.845
44264W        W 3360  27.615  42.413   3.682
44265W        W 3361  10.798  18.136   0.905
44266W        W 3362   7.248  36.508  12.906
44267W        W 3363  38.481  32.887   0.799
44268W        W 3364  17.155  30.152   2.819
44269W        W 3365  28.519  39.000   1.843
44270W        W 3366  31.128  17.652  13.939
44271W        W 3367   9.183  42.389   2.333
44272W        W 3368  10.830  10.264  10.642
44273W        W 3369  29.520  31.896  11.979
44274W        W 3370   8.775  35.009   1.436
44275W        W 3371  12.722  42.851   3.853
44276W        W 3372  36.523  29.629   2.411
44277W        W 3373   4.327  16.211   1.856
44278W        W 3374  19.661  28.672  14.779
44279W        W 3375  14.613   2.344  11.928
44280W        W 3376  42.331  38.472  11.932
44281W        W 3377   8.881  17.173   3.754
44282W        W 3378  14.595  17.663  11.867
44283W        W 3379  37.549  28.989  13.432
44284W        W 3380  33.514  34.542   3.785
44285W        W 3381  23.199  20.629   0.940
44286W        W 3382  22.037  31.430  14.956
44287W        W 3383  44.317  32.073   3.637
44288W        W 3384   6.366  39.944  14.023
44289W        W 3385  40.400  16.092  13.878
44290W        W 3386  34.934  13.706  11.065
44291W        W 3387   8.182  29.495  14.441
44292W        W 3388  27.479  16.683  10.552
44293W        W 3389   5.779  37.484  11.556
44294W        W 3390  38.355  11.330  12.852
44295W        W 3391  22.045  19.621  12.063
44296W        W 3392  34.968  40.978  11.600
44297W        W 3393  30.543   5.325  11.604
44298W        W 3394  36.989  37.834  11.106
44299W        W 3395  42.333  11.743   0.319
44300W        W 3396   4.422  24.150  13.990
44301W        W 3397  39.430  39.321   2.261
44302W        W 3398  18.580  29.489  13.351
44303W        W 3399   3.880  17.270   3.700
44304W        W 3400   9.667   0.856   4.670
44305W        W 3401  34.897  38.850   3.358
44306W        W 3402  17.627   9.698   1.916
44307W        W 3403  32.602  10.642  10.995
44308W        W 3404  35.503  27.080  13.493
44309W        W 3405   6.892   7.679   0.417
44310W        W 3406  40.848  17.109   3.224
44311W        W 3407  38.935  31.947   5.134
44312W        W 3408  39.963   5.698  14.759
44313W        W 3409  22.581  37.454  13.442
44314W        W 3410  14.668   3.841  14.855
44315W        W 3411  19.256  32.435  14.333
44316W        W 3412  36.410   6.854  14.486
44317W        W 3413  26.502  18.599   0.828
44318W        W 3414  20.082   3.261   1.338
44319W        W 3415  33.117  14.185  12.552
44320W        W 3416  26.182  22.679  11.498
44321W        W 3417  30.006  15.772   0.742
44322W        W 3418  22.200  19.644   5.083
44323W        W 3419  33.023  34.558  12.049
44324W        W 3420  29.472  35.549   1.432
44325W        W 3421   8.809  31.545   5.156
44326W        W 3422  41.794  39.895  14.006
44327W        W 3423  14.196  41.041  14.430
44328W        W 3424   4.207   8.205   1.779
44329W        W 3425  22.507  43.349   2.792
44330W        W 3426  33.462  28.931  12.080
44331W        W 3427   5.789   2.239   2.733
44332W        W 3428  29.059   2.844   1.318
44333W        W 3429  13.338  24.505   1.924
44334W        W 3430  23.175  24.683  10.468
44335W        W 3431  30.587  34.388   9.990
44336W        W 3432  43.924  44.346  11.122
44337W        W 3433  11.866   2.267   3.868
44338W        W 3434  38.405  42.492   0.367
44339W        W 3435  10.377  40.952   0.425
44340W        W 3436  23.203  23.651  12.375
44341W        W 3437   9.275  14.234  11.937
44342W        W 3438  43.824  31.518   0.851
44343W        W 3439  22.996  12.796  13.498
44344W        W 3440  19.573   6.195   4.770
44345W        W 3441  22.237  17.649  12.006
44346W        W 3442  18.074  39.556   9.988
44347W        W 3443   5.875  17.247  14.767
44348W        W 3444  27.458   6.335  14.983
44349W        W 3445  42.841  22.670  11.941
44350W        W 3446   4.428  14.662  10.566
44351W        W 3447   9.157  40.374  11.908
44352W        W 3448   7.229  19.187   4.164
44353W        W 3449   7.178  27.123  14.308
44354W        W 3450  11.678  23.689   0.249
44355W        W 3451   4.312  28.598  10.022
44356W        W 3452  32.583  25.628  14.951
44357W        W 3453  13.772   9.394  14.941
44358W        W 3454  35.091  28.089   4.266
44359W        W 3455  15.631  24.653   3.837
44360W        W 3456  32.454   5.321   3.633
44361W        W 3457  18.606  39.830  10.451
44362W        W 3458   2.854   1.413  14.483
44363W        W 3459  26.142  14.830   3.866
44364W        W 3460   6.339   3.325   0.271
44365W        W 3461  27.991   8.677  11.924
44366W        W 3462   7.405  24.490  13.344
44367W        W 3463  12.667  14.807   4.336
44368W        W 3464  42.787   0.785   0.399
44369W        W 3465   2.269  23.140  12.368
44370W        W 3466  36.546  18.247  10.910
44371W        W 3467   4.362  24.157   9.598
44372W        W 3468  30.062  39.476   0.419
44373W        W 3469  35.946  10.776   5.673
44374W        W 3470  41.796  35.993  14.951
44375W        W 3471  34.486  17.648  12.957
44376W        W 3472  17.189  18.210   2.269
44377W        W 3473  31.055  14.706   3.650
44378W        W 3474  14.724  38.517  14.289
44379W        W 3475   3.935  15.226  10.499
44380W        W 3476   4.733   1.343   1.710
44381W        W 3477  32.419  22.572   3.175
44382W        W 3478  18.082  29.116  12.968
44383W        W 3479  12.135   9.859   1.933
44384W        W 3480  28.588  22.101   2.713
44385W        W 3481  43.812  27.542   2.677
44386W        W 3482  21.691  29.540  13.395
44387W        W 3483   5.404   5.804  11.015
44388W        W 3484   3.749  23.179   4.662
44389W        W 3485  41.788  21.089  14.458
44390W        W 3486  29.929  19.548  10.608
44391W        W 3487  24.082  40.435   5.160
44392W        W 3488   7.795  37.928  12.427
44393W        W 3489  31.049  20.111  11.449
44394W        W 3490   6.425  22.569   2.220
44395W        W 3491   6.316  13.336   4.333
44396W        W 3492   0.761  23.155  11.114
44397W        W 3493  42.406  40.037   2.328
44398W        W 3494   1.781  33.611  12.402
44399W        W 3495  23.668   6.308   1.323
44400W        W 3496  39.986   6.381  11.952
44401W        W 3497  39.000  10.237   2.887
44402W        W 3498   8.741  32.466   0.813
44403W        W 3499  35.020  13.791  12.918
44404W        W 3500   8.182  34.496   4.277
44405W        W 3501   5.741  31.525  11.075
44406W        W 3502  36.459   5.365  14.955
44407W        W 3503  27.527   7.360   3.196
44408W        W 3504  28.457  11.176   3.316
44409W        W 3505  11.366  40.964   1.436
44410W        W 3506  14.182  40.542   1.884
44411W        W 3507   0.453  17.236   2.775
44412W        W 3508  18.710  24.207   0.907
44413W        W 3509  13.327  39.952  10.513
44414W        W 3510   9.745  29.459   0.330
44415W        W 3511  39.383  39.036   1.730
44416W        W 3512  37.951   1.381  10.622
44417W        W 3513   7.374  34.095  14.918
44418W        W 3514   2.472  23.507   2.304
44419W        W 3515  42.281  19.108   0.356
44420W        W 3516  39.549  21.222   1.272
44421W        W 3517   9.840  21.514  13.497
44422W        W 3518   7.177  13.182   1.765
44423W        W 3519  27.125  37.539   1.300
44424W        W 3520  37.844  25.972   1.737
44425W        W 3521   4.316  22.170  12.440
44426W        W 3522  38.844   8.353   1.851
44427W        W 3523  12.155  36.351  14.835
44428W        W 3524   7.708   5.802  11.494
44429W        W 3525  13.618  11.179   3.180
44430W        W 3526  35.596  40.931  11.400
44431W        W 3527  26.193  29.529  11.924
44432W        W 3528  15.656   3.308   3.257
44433W        W 3529  38.852   2.431  13.307
44434W        W 3530   4.385  38.376   3.790
44435W        W 3531  21.119  28.527   0.387
44436W        W 3532  35.901   9.198   3.817
44437W        W 3533  29.988  28.149   0.252
44438W        W 3534  43.794  10.714  11.595
44439W        W 3535  41.455  43.416   1.871
44440W        W 3536  19.729  15.758   0.788
44441W        W 3537  20.664  27.170   0.258
44442W        W 3538   4.218  41.372   2.895
44443W        W 3539  44.865  36.461  10.416
44444W        W 3540  17.620  34.049   4.675
44445W        W 3541  22.680  14.281   3.169
44446W        W 3542  29.667  22.560   9.989
44447W        W 3543   0.371  34.406   2.809
44448W        W 3544  32.496  29.031  14.800
44449W        W 3545  22.714  26.702  11.112
44450W        W 3546  12.265   7.214  11.518
44451W        W 3547  19.570  12.156   2.821
44452W        W 3548  18.159  13.290   2.705
44453W        W 3549  32.057   1.476  11.030
44454W        W 3550  39.968   9.705   4.151
44455W        W 3551   9.218   6.336  13.799
44456W        W 3552  36.364  34.437   0.414
44457W        W 3553  24.661  42.386   4.222
44458W        W 3554   6.416  19.185   2.888
44459W        W 3555  43.275  21.694  11.397
44460W        W 3556  34.544   6.339   0.877
44461W        W 3557  10.210  17.631  13.941
44462W        W 3558   9.365  29.516  13.064
44463W        W 3559   1.351   0.384   2.189
44464W        W 3560  16.257  35.418   4.771
44465W        W 3561  29.522  12.259   0.429
44466W        W 3562  20.037  35.498  11.124
44467W        W 3563  33.520   0.984   1.742
44468W        W 3564  24.144  19.112   0.742
44469W        W 3565   9.826   1.369  14.375
44470W        W 3566  29.534  40.467  10.978
44471W        W 3567  10.780  14.252   0.900
44472W        W 3568  41.791  16.295   0.293
44473W        W 3569  10.256  25.526   3.233
44474W        W 3570  29.062   1.283   2.744
44475W        W 3571  34.562   1.421   4.783
44476W        W 3572  36.882  35.602  11.608
44477W        W 3573  31.996  21.613  14.373
44478W        W 3574  15.108   5.230   3.385
44479W        W 3575  40.307  22.671   2.665
44480W        W 3576  14.285  15.151  13.973
44481W        W 3577  39.541  41.322   2.859
44482W        W 3578  16.105  42.003  13.348
44483W        W 3579  26.665  26.458  10.924
44484W        W 3580   3.331  44.346  10.504
44485W        W 3581  21.053  30.617   1.376
44486W        W 3582  18.583  28.946   0.266
44487W        W 3583   0.419  41.963   3.190
44488W        W 3584  41.002  10.798   9.610
44489W        W 3585  15.804  24.119  14.910
44490W        W 3586  35.948  11.858  12.930
44491W        W 3587  34.083  41.499   2.729
44492W        W 3588  18.241  23.021   3.254
44493W        W 3589   6.843  44.385  12.841
44494W        W 3590  43.387   2.853  11.086
44495W        W 3591   3.846  28.971  14.308
44496W        W 3592  38.532  37.530   2.391
44497W        W 3593  21.595  22.548  11.122
44498W        W 3594  44.334  32.960  12.980
44499W        W 3595   1.851   0.438  12.089
44500W        W 3596  34.512  40.901   1.778
44501W        W 3597   5.840  35.477   1.250
44502W        W 3598  42.371  20.189   4.752
44503W        W 3599  17.613   4.427   2.801
44504W        W 3600  13.661  13.666   2.733
44505W        W 3601   2.243  12.720  10.630
44506W        W 3602  33.428  25.524   2.762
44507W        W 3603   9.213  23.579   0.886
44508W        W 3604  15.273   0.831   4.146
44509W        W 3605   3.740  38.881  13.030
44510W        W 3606  42.434  11.137  12.015
44511W        W 3607   1.859  37.934  13.387
44512W        W 3608  25.053  19.709   3.354
44513W        W 3609  42.328   4.380   0.888
44514W        W 3610  24.497  34.568   1.439
44515W        W 3611  34.978  12.730   2.783
44516W        W 3612  28.506  30.941  12.044
44517W        W 3613   3.221   4.308   4.802
44518W        W 3614  12.355   8.698  11.888
44519W        W 3615  31.467  31.477   3.794
44520W        W 3616  27.485  13.279   4.668
44521W        W 3617   7.862   3.844  12.427
44522W        W 3618  23.590  16.084  11.424
44523W        W 3619  23.235  30.944  11.997
44524W        W 3620  39.924   2.459   4.696
44525W        W 3621  24.489  27.470  11.083
44526W        W 3622   3.306   4.270  11.437
44527W        W 3623  28.615  41.960   1.219
44528W        W 3624   5.241  29.125  10.918
44529W        W 3625  21.228   6.807   0.308
44530W        W 3626  30.938  15.780  12.969
44531W        W 3627  24.222  11.250   0.451
44532W        W 3628  40.822  18.642   2.393
44533W        W 3629  15.233  15.660   5.263
44534W        W 3630  21.634   5.300   2.412
44535W        W 3631  37.475   2.297  11.015
44536W        W 3632  43.313   1.382   4.165
44537W        W 3633   2.234  39.982  11.043
44538W        W 3634  23.014  41.948  10.903
44539W        W 3635  21.212  12.825   0.861
44540W        W 3636   1.948  30.976   1.388
44541W        W 3637  35.998  33.911  14.309
44542W        W 3638  41.412   5.273  10.595
44543W        W 3639  12.686  35.903   2.743
44544W        W 3640  17.232   4.934   4.270
44545W        W 3641  31.031  29.469  13.015
44546W        W 3642   7.866  34.973  14.873
44547W        W 3643  24.561  37.982   0.784
44548W        W 3644  34.025  15.796  11.118
44549W        W 3645  36.879   5.754   2.407
44550W        W 3646  31.614  22.138   2.806
44551W        W 3647   0.949  33.517  11.507
44552W        W 3648  34.491  16.638  10.416
44553W        W 3649  27.992  33.413  13.799
44554W        W 3650  34.875  39.888   0.455
44555W        W 3651  23.606   0.949  10.635
44556W        W 3652  13.835   6.262  12.425
44557W        W 3653  10.739   1.250  13.064
44558W        W 3654  35.038  34.517  13.958
44559W        W 3655   1.810  28.121   1.749
44560W        W 3656  12.234  11.849  14.297
44561W        W 3657  44.001  15.125   4.191
44562W        W 3658  18.216  30.027  14.441
44563W        W 3659  13.609   1.247  13.061
44564W        W 3660  43.350  24.211  12.510
44565W        W 3661   5.884  37.040  12.522
44566W        W 3662  44.347  25.498   3.640
44567W        W 3663  29.466  19.763  12.542
44568W        W 3664   7.206  10.330  14.318
44569W        W 3665  31.453  22.710  10.941
44570W        W 3666  19.248  35.108  13.514
44571W        W 3667  19.260  40.352  10.406
44572W        W 3668   1.300   3.308  11.096
44573W        W 3669   3.436  36.580   1.804
44574W        W 3670  23.491  22.023  12.470
44575W        W 3671  43.766  14.148  14.911
44576W        W 3672   7.355  14.263  12.018
44577W        W 3673  40.018  40.037   2.807
44578W        W 3674   2.741  27.041   0.853
44579W        W 3675  12.701  14.654  12.578
44580W        W 3676  39.038   8.839  13.030
44581W        W 3677  33.417  12.817  13.011
44582W        W 3678  18.177   5.721  14.304
44583W        W 3679  13.186   9.368  14.328
44584W        W 3680  43.342  27.489   0.901
44585W        W 3681  39.360  33.955   0.338
44586W        W 3682  40.846  29.931   2.834
44587W        W 3683  25.607  40.456   9.957
44588W        W 3684  29.440  41.933   1.848
44589W        W 3685  10.858  36.541  14.450
44590W        W 3686   2.899  14.209   2.186
44591W        W 3687   9.806   2.870  12.004
44592W        W 3688  41.451  29.655   4.648
44593W        W 3689  31.613  44.937   4.743
44594W        W 3690  27.995  42.336   3.780
44595W        W 3691  24.542   4.778  11.968
44596W        W 3692  14.784  25.986  11.531
44597W        W 3693   4.878  38.446  10.046
44598W        W 3694  32.404  22.138  13.378
44599W        W 3695   5.774  16.703   4.222
44600W        W 3696  36.085  12.642  12.463
44601W        W 3697  30.485  25.475   2.259
44602W        W 3698  24.990  40.329  13.939
44603W        W 3699  13.300  19.714   0.875
44604W        W 3700  30.637  37.026  13.913
44605W        W 3701  40.537   0.491  13.825
44606W        W 3702  28.995   1.941   3.323
44607W        W 3703  21.163  22.682   3.337
44608W        W 3704  33.610  36.991   1.778
44609W        W 3705  17.562  18.203   3.233
44610W        W 3706  35.502  33.933   4.694
44611W        W 3707   9.811  33.563  12.880
44612W        W 3708  28.466  14.706  10.501
44613W        W 3709  13.307  41.522   1.260
44614W        W 3710  29.026  39.313  10.479
44615W        W 3711  35.396  40.869  12.548
44616W        W 3712  15.252  26.006  13.420
44617W        W 3713   5.205  34.984  10.515
44618W        W 3714  21.581  29.926   2.292
44619W        W 3715  14.217  13.326   3.755
44620W        W 3716  21.255  27.646   0.461
44621W        W 3717  12.136  25.498   2.881
44622W        W 3718  38.562   1.243  12.415
44623W        W 3719   4.713  42.280  11.559
44624W        W 3720  26.542  42.413   4.235
44625W        W 3721  17.740  28.460   3.866
44626W        W 3722  12.144  38.842   0.392
44627W        W 3723   0.925  36.367  14.374
44628W        W 3724  20.147  37.384   5.121
44629W        W 3725  36.589  27.072   2.201
44630W        W 3726   4.233  34.406  13.849
44631W        W 3727  30.026   3.802  13.966
44632W        W 3728  21.069   0.762   2.365
44633W        W 3729  23.104  10.171   1.896
44634W        W 3730   6.403   7.380   1.821
44635W        W 3731  41.495  29.489  14.974
44636W        W 3732  40.358  43.512  13.883
44637W        W 3733  16.284  12.847  11.404
44638W        W 3734  11.767   2.337   0.323
44639W        W 3735  28.486  27.945   3.758
44640W        W 3736  27.503  41.810  10.896
44641W        W 3737   3.771   7.668   2.224
44642W        W 3738   9.649  15.325  13.391
44643W        W 3739   0.316  11.787   2.755
44644W        W 3740   7.688   7.856   4.773
44645W        W 3741  37.867   9.675  14.869
44646W        W 3742  32.979   7.253   0.922
44647W        W 3743  15.701   3.745  10.429
44648W        W 3744   3.357  24.030  13.308
44649W        W 3745   2.720  30.920   4.637
44650W        W 3746  42.473  33.542  10.413
44651W        W 3747   1.257  16.300  13.444
44652W        W 3748  35.883  21.736   0.310
44653W        W 3749  24.699  42.313  12.043
44654W        W 3750  38.053   6.732   0.459
44655W        W 3751   5.323   8.678  11.440
44656W        W 3752  36.907  34.453  12.475
44657W        W 3753  42.513  23.191   2.850
44658W        W 3754  27.147   7.291  11.564
44659W        W 3755  42.344   4.312   4.625
44660W        W 3756  13.128  32.558  13.325
44661W        W 3757  11.695   0.819   0.434
44662W        W 3758   0.389  41.525  13.874
44663W        W 3759  14.790  17.211  11.397
44664W        W 3760  42.460  34.571  11.903
44665W        W 3761   2.336  16.204  14.890
44666W        W 3762  33.553  42.022  13.480
44667W        W 3763   2.824  26.606   4.217
44668W        W 3764  29.503  22.012  14.374
44669W        W 3765   1.888   4.905   4.148
44670W        W 3766  17.602  43.287  14.801
44671W        W 3767  35.495  13.344   2.387
44672W        W 3768  35.391  30.057  13.895
44673W        W 3769  41.306  25.963  12.399
44674W        W 3770   3.739  21.173   0.856
44675W        W 3771   3.776  13.790   0.411
44676W        W 3772   8.308   3.842   2.377
44677W        W 3773  31.999   9.367   2.664
44678W        W 3774  26.628  13.616  13.037
44679W        W 3775  16.118  31.957  14.942
44680W        W 3776   6.748  39.432   2.710
44681W        W 3777  16.265  30.051  13.351
44682W        W 3778  25.684  24.075   4.655
44683W        W 3779  33.099   8.757  11.579
44684W        W 3780  20.206  14.735   2.762
44685W        W 3781  14.223  23.505   3.653
44686W        W 3782   2.380  43.882  14.964
44687W        W 3783  26.592  32.891  13.449
44688W        W 3784  30.654  10.328   1.725
44689W        W 3785  42.311  14.700   0.963
44690W        W 3786  23.166  30.616   0.893
44691W        W 3787  28.968  10.817   1.755
44692W        W 3788   3.440  18.703  10.923
44693W        W 3789  11.639  18.097  13.846
44694W        W 3790  39.951  41.796  12.014
44695W        W 3791  38.965  15.680  10.539
44696W        W 3792  20.128  25.093  11.594
44697W        W 3793   9.766   2.369   0.820
44698W        W 3794  31.528  10.314   4.753
44699W        W 3795  14.757  34.454  13.909
44700W        W 3796   0.914  12.326   4.168
44701W        W 3797  34.463  34.956   3.664
44702W        W 3798   4.250  15.622  10.936
44703W        W 3799  28.966  11.246   4.708
44704W        W 3800   8.771   7.791   3.306
44705W        W 3801  28.150  10.313  12.385
44706W        W 3802  35.911  13.688   0.385
44707W        W 3803  28.078  15.804   1.432
44708W        W 3804   9.164  24.024   2.208
44709W        W 3805  11.626  15.181   3.148
44710W        W 3806  38.434   2.415   2.843
44711W        W 3807  25.498   1.858  12.834
44712W        W 3808  29.045  35.106  14.404
44713W        W 3809  10.274  23.174  14.503
44714W        W 3810  11.284  41.403  14.872
44715W        W 3811  25.218  29.570   0.934
44716W        W 3812   4.390  12.236   4.698
44717W        W 3813  13.612  21.101   4.199
44718W        W 3814   1.951   0.892   1.870
44719W        W 3815  15.592  16.771  11.504
44720W        W 3816  17.274  12.238   3.801
44721W        W 3817  34.955   3.392  11.396
44722W        W 3818  29.157  26.014  13.339
44723W        W 3819  23.710  22.089  13.913
44724W        W 3820  43.511   5.274   3.356
44725W        W 3821  44.395  41.391   1.855
44726W        W 3822  32.067  13.744  13.392
44727W        W 3823  13.715  23.164   2.392
44728W        W 3824  22.573  33.570  11.586
44729W        W 3825  11.725  16.810   2.258
44730W        W 3826   8.669  41.391   4.794
44731W        W 3827  19.579  17.582   0.432
44732W        W 3828  16.619  14.799  11.031
44733W        W 3829  39.358  22.712  13.944
44734W        W 3830  28.181  27.551  11.975
44735W        W 3831  27.179  16.659   3.253
44736W        W 3832  19.666  16.753  13.965
44737W        W 3833  15.154  40.385   1.711
44738W        W 3834  25.188  44.937  13.004
44739W        W 3835  15.238  28.667   2.666
44740W        W 3836  33.959  26.511  11.887
44741W        W 3837  25.582  29.462  10.988
44742W        W 3838  27.021  28.480   1.218
44743W        W 3839  17.114  40.919   3.732
44744W        W 3840  33.875   5.213  10.905
44745W        W 3841  34.024  33.017  11.944
44746W        W 3842   6.323  13.844   4.298
44747W        W 3843  33.907  19.226   1.870
44748W        W 3844  39.954  39.404   1.837
44749W        W 3845  17.762  21.545  11.398
44750W        W 3846   0.752  35.602   0.482
44751W        W 3847  37.349  10.726   1.725
44752W        W 3848  37.932   0.795   2.367
44753W        W 3849  11.638  35.853  13.490
44754W        W 3850  34.607  36.360  14.501
44755W        W 3851  28.602  21.620   2.863
44756W        W 3852   2.848  36.075   0.336
44757W        W 3853  18.167  14.623   0.399
44758W        W 3854  11.274  19.777   4.745
44759W        W 3855   5.412  33.088  12.088
44760W        W 3856  25.102  10.877  14.951
44761W        W 3857  14.244  31.126   2.744
44762W        W 3858  33.391  26.466   3.207
44763W        W 3859   3.844  20.254  14.018
44764W        W 3860   4.738  42.456   0.770
44765W        W 3861  20.550  17.695  11.512
44766W        W 3862   5.336  24.714   0.752
44767W        W 3863  43.833   1.320  13.852
44768W        W 3864   7.761   6.683   3.831
44769W        W 3865  38.038  33.420  12.897
44770W        W 3866   4.346  30.468   0.809
44771W        W 3867   8.725   2.935   3.701
44772W        W 3868  41.411  36.369   4.172
44773W        W 3869  25.523  33.092   3.834
44774W        W 3870  21.738  17.621  13.430
44775W        W 3871  38.038  36.867   4.705
44776W        W 3872   7.836  10.334  14.764
44777W        W 3873  20.759  14.197   0.285
44778W        W 3874  39.474  33.875  12.941
44779W        W 3875  39.408  18.150  11.529
44780W        W 3876  25.650  15.293  11.524
44781W        W 3877  41.395  25.521  14.875
44782W        W 3878   3.442  17.103   1.814
44783W        W 3879  30.971  15.735   3.383
44784W        W 3880  25.584  18.161  13.326
44785W        W 3881   3.383  42.987  11.552
44786W        W 3882  42.461  27.952   1.788
44787W        W 3883  30.649  38.555  11.977
44788W        W 3884  26.071  40.359  12.926
44789W        W 3885  37.043  30.003  12.936
44790W        W 3886  28.088  23.603  10.603
44791W        W 3887   6.265  15.167   0.408
44792W        W 3888  13.214   1.357   1.920
44793W        W 3889  30.918   4.292   4.266
44794W        W 3890   9.179  18.070   0.246
44795W        W 3891  24.546  35.556  14.514
44796W        W 3892   5.928   8.762  10.544
44797W        W 3893  42.027  22.129   0.953
44798W        W 3894  29.538  31.959   1.780
44799W        W 3895  27.626  19.647  11.477
44800W        W 3896  30.955   2.463   0.757
44801W        W 3897  25.196  22.639  13.325
44802W        W 3898  44.912  30.650  10.514
44803W        W 3899  12.187  32.394  13.476
44804W        W 3900  40.346  21.240  13.490
44805W        W 3901  22.679  22.612  14.407
44806W        W 3902   5.225   5.396   1.845
44807W        W 3903  26.471  14.631   1.397
44808W        W 3904  28.460  33.950  14.469
44809W        W 3905  38.410  18.066   0.898
44810W        W 3906  33.112  41.460   1.864
44811W        W 3907  12.824   4.355   2.243
44812W        W 3908   7.727  39.918  11.011
44813W        W 3909  14.665  10.759  14.426
44814W        W 3910  24.520   3.370  12.577
44815W        W 3911  38.055  36.926   0.392
44816W        W 3912  24.538   8.221  10.133
44817W        W 3913   3.949  11.315  14.450
44818W        W 3914   9.671  27.563   3.364
44819W        W 3915  32.133  27.662  11.553
44820W        W 3916  26.960  13.319   1.258
44821W        W 3917  40.000  11.829  13.814
44822W        W 3918   9.251  31.514   0.820
44823W        W 3919  40.479  44.436   3.252
44824W        W 3920   9.297   1.385  14.404
44825W        W 3921  32.620  31.075   2.201
44826W        W 3922  31.039  27.982   4.264
44827W        W 3923  10.298   2.458  11.876
44828W        W 3924  44.354  12.182  14.481
44829W        W 3925  33.448  35.023   3.209
44830W        W 3926  39.948  41.296  13.003
44831W        W 3927  26.029  29.477   4.631
44832W        W 3928   4.282  12.722  14.381
44833W        W 3929  17.129  36.908   3.276
44834W        W 3930  33.454  36.973  12.431
44835W        W 3931  35.958  40.026  12.910
44836W        W 3932  41.420   6.914  12.984
44837W        W 3933  30.968   2.461   4.156
44838W        W 3934  34.445  28.990  14.470
44839W        W 3935  28.063  44.440   5.273
44840W        W 3936  40.342   0.981   4.135
44841W        W 3937   1.280   1.282  14.874
44842W        W 3938  14.252  32.582   0.863
44843W        W 3939  18.210  29.166   4.629
44844W        W 3940  40.368  39.827   4.115
44845W        W 3941  23.148  38.956   1.894
44846W        W 3942  37.442  43.882   2.685
44847W        W 3943  15.765   5.311   2.897
44848W        W 3944  34.458   2.803  11.594
44849W        W 3945  44.284  13.763   4.631
44850W        W 3946  20.766  20.650   1.729
44851W        W 3947  35.064  34.066  12.031
44852W        W 3948  40.345  43.346   2.243
44853W        W 3949   4.928  24.705  12.096
44854W        W 3950  37.972  38.355  10.630
44855W        W 3951  27.465  41.914  12.955
44856W        W 3952  37.948  16.289  14.437
44857W        W 3953  24.025   8.723  13.865
44858W        W 3954   1.820  29.981   1.225
44859W        W 3955  29.992  10.848   0.246
44860W        W 3956  12.755  23.102  14.952
44861W        W 3957  30.987  29.982   3.709
44862W        W 3958  30.096  27.682   1.398
44863W        W 3959  29.514  33.429  14.464
44864W        W 3960  18.545  10.216  10.419
44865W        W 3961  29.625  34.450   2.182
44866W        W 3962   0.366  21.155   2.882
44867W        W 3963  33.583  12.836  12.096
44868W        W 3964   4.889  42.465   2.808
44869W        W 3965  30.062  29.079   0.254
44870W        W 3966   1.882  18.644   4.249
44871W        W 3967  33.982  25.495   0.851
44872W        W 3968  33.059  22.098   2.694
44873W        W 3969   1.277  21.157   4.331
44874W        W 3970  34.996  19.132   3.849
44875W        W 3971  40.466   6.211  13.543
44876W        W 3972  35.070  33.012  11.874
44877W        W 3973   5.891  13.828   1.914
44878W        W 3974  42.917  38.344   4.690
44879W        W 3975  29.487  42.449  10.974
44880W        W 3976   6.314  29.036  10.928
44881W        W 3977  22.742   1.850   4.303
44882W        W 3978  23.001   6.388   4.132
44883W        W 3979  26.698   5.287  13.796
44884W        W 3980  38.332  21.096   3.183
44885W        W 3981  14.689  39.909   4.689
44886W        W 3982  29.968  20.121   4.312
44887W        W 3983   2.902  28.968  10.620
44888W        W 3984  22.203   1.864  11.597
44889W        W 3985  18.558  33.952  11.015
44890W        W 3986  21.530   5.823   5.239
44891W        W 3987  42.348  10.811  13.871
44892W        W 3988  21.023  13.119  12.505
44893W        W 3989  19.050  25.676  11.013
44894W        W 3990  18.555  12.338  13.323
44895W        W 3991  21.110  23.616   2.337
44896W        W 3992  40.991  27.653  12.854
44897W        W 3993  15.730  33.935   1.744
44898W        W 3994   5.409   6.305   3.201
44899W        W 3995  10.372  21.055   4.711
44900W        W 3996  34.954   8.748   3.305
44901W        W 3997  16.573  40.523   4.130
44902W        W 3998   4.792  20.596   3.716
44903W        W 3999  36.919  35.964   3.638
44904W        W 4000   2.737  42.892   0.308
44905W        W 4001  29.567  10.275  13.379
44906W        W 4002  23.635   8.315   0.839
44907W        W 4003   4.797   3.232   3.645
44908W        W 4004   9.780  20.193  12.851
44909W        W 4005  15.648   8.254   0.777
44910W        W 4006  17.161   5.878   3.693
44911W        W 4007  16.117   9.700   3.737
44912W        W 4008  19.566  30.945  11.984
44913W        W 4009   1.811   1.471  10.506
44914W        W 4010   5.397   9.732   1.268
44915W        W 4011  33.875   1.438   1.399
44916W        W 4012  23.664  12.302  10.477
44917W        W 4013  21.618   2.259  10.991
44918W        W 4014   0.402  32.525  13.033
44919W        W 4015  37.035  17.256   0.896
44920W        W 4016  25.110  33.995   0.387
44921W        W 4017  10.355  20.188  12.392
44922W        W 4018   8.183  40.797   3.209
44923W        W 4019  19.546  32.037   4.261
44924W        W 4020  25.470   4.255  12.536
44925W        W 4021  33.392   2.359   2.375
44926W        W 4022  20.718  26.471   2.312
44927W        W 4023   8.690  26.541  14.438
44928W        W 4024  21.739   9.716   2.885
44929W        W 4025  32.494  11.639  11.082
44930W        W 4026  30.486  41.347  11.484
44931W        W 4027  18.709  26.068   1.890
44932W        W 4028  41.394   0.959  13.938
44933W        W 4029  36.533  13.265   9.954
44934W        W 4030   7.334  43.452  14.461
44935W        W 4031  23.599  40.316   0.427
44936W        W 4032   6.745  38.535   0.445
44937W        W 4033  32.142  21.245   1.728
44938W        W 4034   3.282  19.042   0.404
44939W        W 4035  11.240  26.963   3.629
44940W        W 4036  16.258  33.472   2.231
44941W        W 4037   8.354  42.304  11.916
44942W        W 4038  29.577  18.107  14.505
44943W        W 4039   3.859  33.575  11.390
44944W        W 4040  12.136   1.467   3.835
44945W        W 4041  18.074  22.156  10.983
44946W        W 4042  23.620  24.558  13.401
44947W        W 4043  13.674   5.247  12.892
44948W        W 4044  30.461  44.756   3.272
44949W        W 4045   1.907   6.290  10.635
44950W        W 4046  16.630  16.800   4.129
44951W        W 4047  32.072  15.578   9.468
44952W        W 4048  11.197   6.426  14.474
44953W        W 4049  29.948  14.228   4.276
44954W        W 4050   8.731  38.430   2.288
44955W        W 4051  19.640   4.893   3.818
44956W        W 4052  33.426  26.992  11.118
44957W        W 4053  18.785  21.586  11.961
44958W        W 4054  10.710   0.813   4.728
44959W        W 4055  43.842  38.832   3.674
44960W        W 4056  12.802  42.421  13.423
44961W        W 4057  26.065   2.297  13.368
44962W        W 4058  28.142  10.318  10.907
44963W        W 4059  24.691  21.723   1.866
44964W        W 4060  35.473  17.720  14.796
44965W        W 4061  22.998   4.773   2.708
44966W        W 4062  23.013  30.552   2.729
44967W        W 4063   7.711  32.963  11.406
44968W        W 4064  13.683  33.010   4.684
44969W        W 4065  32.531   3.717   1.450
44970W        W 4066   5.792  10.805   3.820
44971W        W 4067  37.520  40.360   1.309
44972W        W 4068  24.503  35.539   0.476
44973W        W 4069  23.535  43.511   1.709
44974W        W 4070  43.784  15.796  13.389
44975W        W 4071  40.941  25.544  11.467
44976W        W 4072   6.230   8.667   5.230
44977W        W 4073   9.366   6.256  10.407
44978W        W 4074  35.912  30.992   4.678
44979W        W 4075  40.037   9.859   3.710
44980W        W 4076  40.894   3.343   1.404
44981W        W 4077  40.398  28.598   3.633
44982W        W 4078  38.931  33.894   0.901
44983W        W 4079  41.984  10.368   5.224
44984W        W 4080  35.581   0.366  10.426
44985W        W 4081  26.208  18.135  13.840
44986W        W 4082  36.955  31.006   1.310
44987W        W 4083   8.269  33.426   0.876
44988W        W 4084  35.925   5.239  10.488
44989W        W 4085  14.162  17.764   4.762
44990W        W 4086  41.525   6.237  13.331
44991W        W 4087  43.370  14.156  12.466
44992W        W 4088   0.405  14.162   4.735
44993W        W 4089  18.072  24.486   1.824
44994W        W 4090  41.309   9.849   1.903
44995W        W 4091   3.854  35.045  11.935
44996W        W 4092  16.231  24.678  11.077
44997W        W 4093   9.788  43.472  14.330
44998W        W 4094  39.315  41.376   0.924
44999W        W 4095  41.481  32.062  14.938
45000W        W 4096  27.963  11.170   0.266
45001W        W 4097   5.366   2.365   1.247
45002W        W 4098  41.431  38.013  14.903
45003W        W 4099  38.990  26.167  14.465
45004W        W 4100  19.590  16.694   1.281
45005W        W 4101  18.687  34.077   3.751
45006W        W 4102   2.853  43.407   1.230
45007W        W 4103  39.001  32.598  11.932
45008W        W 4104  19.641  20.145  10.519
45009W        W 4105  19.101   9.717  13.822
45010W        W 4106   0.494  38.481  10.506
45011W        W 4107  10.289  39.472  10.552
45012W        W 4108   7.281  30.581  14.929
45013W        W 4109  35.540  31.983  10.947
45014W        W 4110   1.293   8.827   0.881
45015W        W 4111  33.982  12.324   1.813
45016W        W 4112  32.528  28.576   5.133
45017W        W 4113  33.520   9.187   0.958
45018W        W 4114   2.758  30.647   1.421
45019W        W 4115  30.608   7.367   0.321
45020W        W 4116  37.993   7.259  13.049
45021W        W 4117  35.362  38.418  13.541
45022W        W 4118   5.285  34.516   3.643
45023W        W 4119  43.384  39.820   1.279
45024W        W 4120  35.976   0.320   0.808
45025W        W 4121  14.696  36.885  12.089
45026W        W 4122  33.115  42.287   2.807
45027W        W 4123   4.284  23.558  12.485
45028W        W 4124  19.680  28.649   0.380
45029W        W 4125  44.334  21.518  14.862
45030W        W 4126  14.655   5.870   1.382
45031W        W 4127   2.860  43.796  10.638
45032W        W 4128  35.426   0.743   2.294
45033W        W 4129   9.226  36.520   2.680
45034W        W 4130  44.850  36.555   4.317
45035W        W 4131  23.003   4.226  11.061
45036W        W 4132  29.594  35.032  12.977
45037W        W 4133  29.010  30.595  12.454
45038W        W 4134  15.773  10.202   1.794
45039W        W 4135  14.227  25.704   2.389
45040W        W 4136  14.592  10.284  12.358
45041W        W 4137  24.150  37.525  12.981
45042W        W 4138  16.270  41.479  14.471
45043W        W 4139  42.321   5.862   0.268
45044W        W 4140  23.043  21.680   2.685
45045W        W 4141  42.471  25.156   0.786
45046W        W 4142   1.976  34.447   0.428
45047W        W 4143   5.439  15.735  13.512
45048W        W 4144  41.861  23.143   0.876
45049W        W 4145  24.486  31.460   4.635
45050W        W 4146  38.356   2.333  14.815
45051W        W 4147   0.757  16.094   2.822
45052W        W 4148   3.726  29.008  10.612
45053W        W 4149  29.638  27.080  10.441
45054W        W 4150  34.534  29.486  12.397
45055W        W 4151  35.998  31.138   2.766
45056W        W 4152  35.557  26.039  11.973
45057W        W 4153  32.519  44.806   3.161
45058W        W 4154  28.445  19.584  10.898
45059W        W 4155  37.360  43.469   1.928
45060W        W 4156  35.485  27.687   1.378
45061W        W 4157   8.856  41.833   2.387
45062W        W 4158  25.184  40.410  11.127
45063W        W 4159  41.790  23.174   1.861
45064W        W 4160  41.854  10.250  12.498
45065W        W 4161  27.175   7.821   0.456
45066W        W 4162   4.370  23.014   3.273
45067W        W 4163  26.045  37.981   0.253
45068W        W 4164   7.671  13.186  10.526
45069W        W 4165  31.621  23.220   1.781
45070W        W 4166  10.269  30.588   1.281
45071W        W 4167  35.913  44.757   4.637
45072W        W 4168  41.925  24.208  11.054
45073W        W 4169  38.910   5.915  11.607
45074W        W 4170  38.069  26.471   4.351
45075W        W 4171  35.412  27.042  14.963
45076W        W 4172  30.026  37.425  10.569
45077W        W 4173  21.148  29.961  12.841
45078W        W 4174  43.458   4.916   4.712
45079W        W 4175  33.528  35.553   1.699
45080W        W 4176   4.331  13.805   2.414
45081W        W 4177  22.015  37.076   3.822
45082W        W 4178  20.219  10.344  12.468
45083W        W 4179   5.365  38.884  11.470
45084W        W 4180  15.135  29.617   1.896
45085W        W 4181  12.255   7.822   1.279
45086W        W 4182  28.479  25.200  11.127
45087W        W 4183  21.236  19.068  11.612
45088W        W 4184  11.224  27.654   2.318
45089W        W 4185  15.745   7.202  12.884
45090W        W 4186   3.324  21.080   5.223
45091W        W 4187  28.630  29.567  11.514
45092W        W 4188   1.776  38.985  14.812
45093W        W 4189   3.440  25.678   5.296
45094W        W 4190   1.733  25.516  13.411
45095W        W 4191   0.358  11.642  14.324
45096W        W 4192  28.113  35.412   1.311
45097W        W 4193  21.129  28.589   4.202
45098W        W 4194  14.237  35.394  11.964
45099W        W 4195  38.001   5.830  14.298
45100W        W 4196   6.813  44.770  13.943
45101W        W 4197  11.226  42.509  13.798
45102W        W 4198   6.886  41.536  13.427
45103W        W 4199  44.468  19.643  11.907
45104W        W 4200  18.775  14.245   1.898
45105W        W 4201  15.176  43.926   1.719
45106W        W 4202   9.703   2.251  13.401
45107W        W 4203  37.544  32.934  12.831
45108W        W 4204  35.027  36.881   3.856
45109W        W 4205  35.361  30.658   4.316
45110W        W 4206  15.783  28.990  10.889
45111W        W 4207  15.321  37.856   3.738
45112W        W 4208   5.891  27.660   1.714
45113W        W 4209  16.801  32.395   3.199
45114W        W 4210  11.860  28.158   0.829
45115W        W 4211   5.374  19.582   0.286
45116W        W 4212  10.731   0.275  14.937
45117W        W 4213  37.070  31.618   2.752
45118W        W 4214   2.320  40.948   0.939
45119W        W 4215  15.795  34.507   0.800
45120W        W 4216  32.069  16.680  12.051
45121W        W 4217  21.099   6.285   3.775
45122W        W 4218   3.377  21.594  10.536
45123W        W 4219  10.848  29.158   2.392
45124W        W 4220  16.259  17.098   1.817
45125W        W 4221  23.529  25.089   2.382
45126W        W 4222  14.249  20.615   1.278
45127W        W 4223   5.915  16.569   1.922
45128W        W 4224   8.715  40.928   1.893
45129W        W 4225  41.994  38.430   1.834
45130W        W 4226  40.835   4.877   0.743
45131W        W 4227   2.451  26.655  14.801
45132W        W 4228   8.793  24.144   3.754
45133W        W 4229  26.512  14.743   0.903
45134W        W 4230  38.341  31.015  11.396
45135W        W 4231  12.125   9.778   3.219
45136W        W 4232  16.303   2.227  12.407
45137W        W 4233  34.478   2.867  14.771
45138W        W 4234  43.880  38.936   1.703
45139W        W 4235  38.356  11.807   1.928
45140W        W 4236  11.316  19.612  12.967
45141W        W 4237  30.040  34.431   5.711
45142W        W 4238  34.983  27.504   0.317
45143W        W 4239  39.833  22.578   0.922
45144W        W 4240  39.480  24.537   1.359
45145W        W 4241   3.886  23.086  10.911
45146W        W 4242  17.258  23.998   2.748
45147W        W 4243  43.477  39.039  13.546
45148W        W 4244  41.040   6.872  12.477
45149W        W 4245   9.192   2.337   4.604
45150W        W 4246   0.481  24.022  12.493
45151W        W 4247   8.368  11.837   1.289
45152W        W 4248  15.800   9.382  13.475
45153W        W 4249  28.615   9.205  14.854
45154W        W 4250  40.962  13.803  14.387
45155W        W 4251  41.836  10.670   2.182
45156W        W 4252  15.156   7.355   3.292
45157W        W 4253  23.543  41.421   0.365
45158W        W 4254   8.690   9.830  14.003
45159W        W 4255  24.226  37.358  11.051
45160W        W 4256   8.247  40.356  12.367
45161W        W 4257  20.654  36.425  11.908
45162W        W 4258  38.445  10.149  14.916
45163W        W 4259  15.653  41.501  13.910
45164W        W 4260  31.420  25.046  12.524
45165W        W 4261  24.662  17.164  13.925
45166W        W 4262  38.951  39.352   0.783
45167W        W 4263  20.712  15.201   2.413
45168W        W 4264  29.663  29.591  13.961
45169W        W 4265  13.770  40.546   2.830
45170W        W 4266  43.335  43.325  12.391
45171W        W 4267  28.617  27.005   2.811
45172W        W 4268  24.641  43.009   2.740
45173W        W 4269   8.773  39.350  14.960
45174W        W 4270   9.666   7.407  14.837
45175W        W 4271   0.832  11.623  13.881
45176W        W 4272  38.942  20.638  12.979
45177W        W 4273  43.966  24.722   3.240
45178W        W 4274  27.610  21.260  12.867
45179W        W 4275  23.028  26.046  14.873
45180W        W 4276  34.046   5.893  11.408
45181W        W 4277   3.321   1.337  14.416
45182W        W 4278  35.517  17.250   3.208
45183W        W 4279  30.652  12.746   3.635
45184W        W 4280  38.848  31.517   2.842
45185W        W 4281   6.307  28.569  14.965
45186W        W 4282  10.866  39.975  14.928
45187W        W 4283  26.664  11.154  11.488
45188W        W 4284  28.170  37.959   4.335
45189W        W 4285  20.053  24.051   4.777
45190W        W 4286  35.916  28.057   3.262
45191W        W 4287  39.874  33.928  11.950
45192W        W 4288  12.769  27.585  13.869
45193W        W 4289   8.247  41.351   2.822
45194W        W 4290  11.868  10.724  14.996
45195W        W 4291  24.662  12.818   2.385
45196W        W 4292  14.231  15.755  14.331
45197W        W 4293  28.607   4.757  10.099
45198W        W 4294  32.552   6.885  14.983
45199W        W 4295  43.960   6.229  14.318
45200W        W 4296   6.708   9.209   4.805
45201W        W 4297  41.454   6.274  14.425
45202W        W 4298   9.665   9.277   2.380
45203W        W 4299  16.108  21.617  11.073
45204W        W 4300  27.609  34.561   2.820
45205W        W 4301  43.879  34.935   1.892
45206W        W 4302  35.047  13.239   9.555
45207W        W 4303  13.750  15.601  12.435
45208W        W 4304  32.092  18.546  13.500
45209W        W 4305  19.214   2.813   4.608
45210W        W 4306  38.905  20.124   3.803
45211W        W 4307  39.513  29.156   2.354
45212W        W 4308  29.657  13.610  11.953
45213W        W 4309   6.380  37.923   2.238
45214W        W 4310   5.837  31.948  14.364
45215W        W 4311  13.777  35.105  14.355
45216W        W 4312   5.826  42.858   2.286
45217W        W 4313   0.273  38.850  13.901
45218W        W 4314  35.985  22.062  14.434
45219W        W 4315  32.472  40.868   4.207
45220W        W 4316  33.489  18.268  12.453
45221W        W 4317  33.961   2.911   4.343
45222W        W 4318  13.293  37.385  13.950
45223W        W 4319   6.903  21.094   3.662
45224W        W 4320  14.189  31.084  12.924
45225W        W 4321  20.032  30.651   3.305
45226W        W 4322  26.603  36.411   5.101
45227W        W 4323  24.043  33.480   0.911
45228W        W 4324  18.585   4.758   0.966
45229W        W 4325  31.477  12.278  14.901
45230W        W 4326  24.080  10.204   0.949
45231W        W 4327  44.290  37.568   0.865
45232W        W 4328  31.647   6.239   1.717
45233W        W 4329   7.351  34.591  14.947
45234W        W 4330  35.383  43.948  12.376
45235W        W 4331   3.823   5.433   1.763
45236W        W 4332  12.732  19.116   2.287
45237W        W 4333  27.511  20.102  14.870
45238W        W 4334  10.260  21.078   1.392
45239W        W 4335  28.011  36.477   0.438
45240W        W 4336  16.240  27.480   1.861
45241W        W 4337   4.215  26.973  13.493
45242W        W 4338  19.049  35.916   0.454
45243W        W 4339  40.494  32.522   0.443
45244W        W 4340  38.969  27.461  14.324
45245W        W 4341  43.491  29.625  12.919
45246W        W 4342  16.186  32.143   1.337
45247W        W 4343  30.602  11.288   4.715
45248W        W 4344  37.066  38.547  14.979
45249W        W 4345  43.799  37.359   5.105
45250W        W 4346   9.790  43.324   2.195
45251W        W 4347  24.157  16.701   0.755
45252W        W 4348  27.176  16.111  13.892
45253W        W 4349  10.265  34.480   1.787
45254W        W 4350  16.602   1.798  12.478
45255W        W 4351   0.933   0.872   0.847
45256W        W 4352   5.874  22.153   3.726
45257W        W 4353  28.172  30.151   2.222
45258W        W 4354   8.300   8.707   3.868
45259W        W 4355  23.136  11.327  10.963
45260W        W 4356  30.654  20.568   1.794
45261W        W 4357   6.898  31.050   3.351
45262W        W 4358  21.162  33.889  13.310
45263W        W 4359   3.786   2.445   1.888
45264W        W 4360   2.831  21.626  13.927
45265W        W 4361   8.251  24.564   4.294
45266W        W 4362  16.121  23.154   3.162
45267W        W 4363  19.160   9.748  12.363
45268W        W 4364  41.990  35.997  10.153
45269W        W 4365  25.108  36.046  14.956
45270W        W 4366  33.563   9.243   2.787
45271W        W 4367   4.326  28.497  12.356
45272W        W 4368  25.703  37.356  14.470
45273W        W 4369  39.514  33.412   3.630
45274W        W 4370  19.148  40.439  14.368
45275W        W 4371  26.175  11.146   4.777
45276W        W 4372   6.703  15.136  13.878
45277W        W 4373  44.348  30.127   4.746
45278W        W 4374  11.300   4.769  14.437
45279W        W 4375  14.318   6.678   2.350
45280W        W 4376  29.462  22.739  12.432
45281W        W 4377  32.629  33.935  11.571
45282W        W 4378   6.826  30.561  14.437
45283W        W 4379  37.950  12.834  10.915
45284W        W 4380  37.501   4.414  14.447
45285W        W 4381  16.702  44.883   2.232
45286W        W 4382  44.895  35.586  14.030
45287W        W 4383   7.177  23.489   4.182
45288W        W 4384  29.608  12.641  10.094
45289W        W 4385  12.827  21.602  12.496
45290W        W 4386  32.940   7.843  14.343
45291W        W 4387  34.060  39.391   3.371
45292W        W 4388  44.495  10.282   4.129
45293W        W 4389  14.774   6.369  11.947
45294W        W 4390  16.576  31.041   3.810
45295W        W 4391  21.646   5.749  12.043
45296W        W 4392  27.102  39.888  10.577
45297W        W 4393   5.760  34.026   3.153
45298W        W 4394  26.588  23.095  13.873
45299W        W 4395  29.016  39.904   0.427
45300W        W 4396  18.120   0.820  11.510
45301W        W 4397   4.836  21.126   0.430
45302W        W 4398  13.791   3.715  13.467
45303W        W 4399  12.700  44.866   1.826
45304W        W 4400   8.242   0.429  10.931
45305W        W 4401  17.164  27.666   3.831
45306W        W 4402  23.625  34.098  14.312
45307W        W 4403  12.329  10.808  12.898
45308W        W 4404  40.382  34.107   1.764
45309W        W 4405  15.821  34.898  11.096
45310W        W 4406  27.475  42.482  14.482
45311W        W 4407  12.238  34.100  12.905
45312W        W 4408  23.714  39.969  13.505
45313W        W 4409  10.786   5.439  14.326
45314W        W 4410  39.942  43.913  10.419
45315W        W 4411  16.245   3.350   1.765
45316W        W 4412   5.765  34.923  11.508
45317W        W 4413  43.441  44.996  13.964
45318W        W 4414  12.149  34.010  11.041
45319W        W 4415  35.011  23.065  11.992
45320W        W 4416  27.196  29.977  14.818
45321W        W 4417  27.628  25.547   3.171
45322W        W 4418  20.054  13.228   3.802
45323W        W 4419  18.689  15.281  12.827
45324W        W 4420  13.204  33.114   1.406
45325W        W 4421  44.890  24.058   0.325
45326W        W 4422  42.970  26.148  14.863
45327W        W 4423  36.990  39.515  12.906
45328W        W 4424   3.897  43.323   4.599
45329W        W 4425  44.499   8.740   0.336
45330W        W 4426   4.389  15.670   3.829
45331W        W 4427  23.058  32.091   4.231
45332W        W 4428  44.383  18.590   4.271
45333W        W 4429  44.753   0.371  12.997
45334W        W 4430  13.678  19.217  12.884
45335W        W 4431  34.436   7.885  12.530
45336W        W 4432  40.538  24.646  12.078
45337W        W 4433  20.175  19.637  14.357
45338W        W 4434  17.801  30.459  11.480
45339W        W 4435  33.541   9.689   0.406
45340W        W 4436   0.307  43.781   2.297
45341W        W 4437  43.379  39.894  11.504
45342W        W 4438  39.965  11.698   0.947
45343W        W 4439  34.527  20.569  11.445
45344W        W 4440  38.526  19.687   4.344
45345W        W 4441  42.519  35.934   4.683
45346W        W 4442  24.679   0.819  13.321
45347W        W 4443  35.486  18.277  13.435
45348W        W 4444  30.942   8.748   0.821
45349W        W 4445  17.260  13.640   0.967
45350W        W 4446  31.101  40.975  12.874
45351W        W 4447   4.445  17.784   4.729
45352W        W 4448  40.825  17.634  10.455
45353W        W 4449  30.942  40.050  11.072
45354W        W 4450  27.077   9.391  14.956
45355W        W 4451  27.958   2.432   4.746
45356W        W 4452  27.616  30.645   4.597
45357W        W 4453  37.415  20.596   0.242
45358W        W 4454  13.734  34.506   2.246
45359W        W 4455  31.073  33.945   3.154
45360W        W 4456  36.431  24.174   4.783
45361W        W 4457   8.274   4.912  12.930
45362W        W 4458  34.116  19.244   2.721
45363W        W 4459   1.405  26.993  13.833
45364W        W 4460   9.769   4.717   3.859
45365W        W 4461  10.336  36.895   2.230
45366W        W 4462  33.994  44.451  12.509
45367W        W 4463   8.406  37.052   4.328
45368W        W 4464   4.266  17.687  14.790
45369W        W 4465  32.125  19.053   2.405
45370W        W 4466  26.618  27.025   2.681
45371W        W 4467  26.542  29.020  11.515
45372W        W 4468  40.957  24.205  12.062
45373W        W 4469   0.978  25.564   4.684
45374W        W 4470  10.270   7.253  13.311
45375W        W 4471  41.019  16.619  12.532
45376W        W 4472   9.652  13.115   1.268
45377W        W 4473  12.825   1.754  14.833
45378W        W 4474  20.675   6.884   0.765
45379W        W 4475  21.636  19.209  12.367
45380W        W 4476  31.071  41.365  10.613
45381W        W 4477  19.648   6.881   3.759
45382W        W 4478  44.864   4.760  13.388
45383W        W 4479  16.156  29.009   1.799
45384W        W 4480  14.181   8.395  10.639
45385W        W 4481  40.937  28.462  13.877
45386W        W 4482  36.861  15.635   1.735
45387W        W 4483  34.598  14.602   0.353
45388W        W 4484  42.371  27.604  12.001
45389W        W 4485  35.388  41.455  14.866
45390W        W 4486  26.083  38.377  12.943
45391W        W 4487  36.439  19.772   2.352
45392W        W 4488  25.146  42.305  12.481
45393W        W 4489  32.609  32.946  11.092
45394W        W 4490  24.583   0.839   2.367
45395W        W 4491  22.216  40.970   3.362
45396W        W 4492   5.196  44.976   3.379
45397W        W 4493  28.581  14.678  11.528
45398W        W 4494  34.536  29.476  13.375
45399W        W 4495  31.906  38.971   1.227
45400W        W 4496   0.892  30.985   4.683
45401W        W 4497  23.636  33.523  10.955
45402W        W 4498  43.856  19.679   2.416
45403W        W 4499  25.988  18.180   3.319
45404W        W 4500  31.571  25.568  12.079
45405W        W 4501  31.617   8.229  13.488
45406W        W 4502  29.040  10.724  13.548
45407W        W 4503  21.222  19.760  10.032
45408W        W 4504  30.598  22.639  10.519
45409W        W 4505  43.858   3.260  11.993
45410W        W 4506   2.886  25.515   1.809
45411W        W 4507   7.227   7.199   1.701
45412W        W 4508  24.502  23.589   2.351
45413W        W 4509  22.233  31.128  12.559
45414W        W 4510  21.668  16.182  13.920
45415W        W 4511  36.843  15.663  13.459
45416W        W 4512  42.521  14.674   3.324
45417W        W 4513   8.898  28.552  11.495
45418W        W 4514  20.163   4.888   1.442
45419W        W 4515   9.337  40.426  10.445
45420W        W 4516   6.820  40.943   2.897
45421W        W 4517   6.247  31.072   2.245
45422W        W 4518   1.402  18.625   1.851
45423W        W 4519  22.650  21.149  11.115
45424W        W 4520  26.530  23.061   1.734
45425W        W 4521  17.135  16.631  10.433
45426W        W 4522  25.144  31.487   4.715
45427W        W 4523  13.221  43.309   4.664
45428W        W 4524  36.940  34.891   2.306
45429W        W 4525   4.745  27.029  14.321
45430W        W 4526  28.017   1.774  13.870
45431W        W 4527  43.945  22.170   0.310
45432W        W 4528  27.135  27.516   3.702
45433W        W 4529   5.361  39.986   3.871
45434W        W 4530  30.096  32.509   1.364
45435W        W 4531   5.771  41.403  11.027
45436W        W 4532  31.104  14.125  14.898
45437W        W 4533  15.103   0.864  12.536
45438W        W 4534  40.380  29.145   5.230
45439W        W 4535  35.100  14.331   3.266
45440W        W 4536  16.736   9.180  13.860
45441W        W 4537  21.194  33.461  13.490
45442W        W 4538  42.465  18.179   2.314
45443W        W 4539  44.780  44.935  11.999
45444W        W 4540  39.027   1.415  13.473
45445W        W 4541   4.799  13.333   3.210
45446W        W 4542  22.672  44.330  11.985
45447W        W 4543  17.273  16.272   0.448
45448W        W 4544   8.825  22.700   4.758
45449W        W 4545  30.488  43.981  13.835
45450W        W 4546  33.415  41.025   4.246
45451W        W 4547  16.085  29.938   3.836
45452W        W 4548  31.414   3.870   3.300
45453W        W 4549  37.343  11.203   4.266
45454W        W 4550  22.041  14.314  13.321
45455W        W 4551  33.019  19.151   3.171
45456W        W 4552  34.485  23.695   5.641
45457W        W 4553  22.652  13.704  11.116
45458W        W 4554  25.633  28.671   2.769
45459W        W 4555  32.606  35.393  13.062
45460W        W 4556  41.947  20.171   4.729
45461W        W 4557  37.506  12.270   5.163
45462W        W 4558  40.313  36.377  13.483
45463W        W 4559   5.269  21.625   3.850
45464W        W 4560  30.082  27.058  12.551
45465W        W 4561  14.769   3.815   1.222
45466W        W 4562  27.584  26.114  12.025
45467W        W 4563  41.377  28.137  14.910
45468W        W 4564  21.231  28.131   3.180
45469W        W 4565  11.720   8.406  14.795
45470W        W 4566  36.862  42.476   0.464
45471W        W 4567   8.679  41.496  12.062
45472W        W 4568  26.670  31.053  14.857
45473W        W 4569   6.681   9.860  11.126
45474W        W 4570  39.525  38.939  11.550
45475W        W 4571  32.605  17.287  10.106
45476W        W 4572   1.388   3.716   3.649
45477W        W 4573  27.491   9.340  12.894
45478W        W 4574  38.549   6.339  14.452
45479W        W 4575  30.056   7.180  13.828
45480W        W 4576  37.560  21.060   2.283
45481W        W 4577  43.292  24.489   4.200
45482W        W 4578  43.898  25.691  12.449
45483W        W 4579  40.894  23.001  14.449
45484W        W 4580  20.622  42.450   4.223
45485W        W 4581  36.034  43.952   3.330
45486W        W 4582   1.959   3.436  11.582
45487W        W 4583  36.453  29.547   2.889
45488W        W 4584   4.837  10.207  11.031
45489W        W 4585   9.321  44.774   4.149
45490W        W 4586  39.865   7.720   2.301
45491W        W 4587  38.076  21.245   0.800
45492W        W 4588  36.442  34.010   3.165
45493W        W 4589   6.324   2.801   4.147
45494W        W 4590  22.117  39.422   2.665
45495W        W 4591  35.462  40.457   2.862
45496W        W 4592  15.289  36.504  14.387
45497W        W 4593  34.443   4.312   1.383
45498W        W 4594  19.134  15.215  10.483
45499W        W 4595  26.585  22.018  14.006
45500W        W 4596  26.629  30.966   2.303
45501W        W 4597  19.694  39.983   1.826
45502W        W 4598  42.369  38.474  12.401
45503W        W 4599  37.052  27.943   4.778
45504W        W 4600  29.004  42.995  11.523
45505W        W 4601  14.748  34.939   1.440
45506W        W 4602  32.597  39.330   2.900
45507W        W 4603  31.520   5.858  14.008
45508W        W 4604  39.480   6.269   4.739
45509W        W 4605  35.467   0.886   0.470
45510W        W 4606  44.874  41.950  12.572
45511W        W 4607  34.517  30.077   3.210
45512W        W 4608  41.350  38.427   1.748
45513W        W 4609  16.656   4.211   1.792
45514W        W 4610  13.194  38.839  10.933
45515W        W 4611  23.094  37.970   2.306
45516W        W 4612  29.560  31.108  13.853
45517W        W 4613  16.722  27.036   1.404
45518W        W 4614  34.566  35.452  11.872
45519W        W 4615  40.525   0.412  11.971
45520W        W 4616   4.782   5.844  11.857
45521W        W 4617  29.616  37.478  10.919
45522W        W 4618  28.599   0.319  14.949
45523W        W 4619   8.316  15.303  13.458
45524W        W 4620  14.186  43.323   1.767
45525W        W 4621  21.173   3.418  12.552
45526W        W 4622  10.845  13.806   0.272
45527W        W 4623   5.828  26.581  12.430
45528W        W 4624   9.156  34.610   1.395
45529W        W 4625  40.465  43.021   4.684
45530W        W 4626  34.499  36.872   0.246
45531W        W 4627  15.270  21.534  11.051
45532W        W 4628  32.974  16.122   0.339
45533W        W 4629  34.399  44.290  10.446
45534W        W 4630  42.024  19.118   2.367
45535W        W 4631  43.003  20.234   1.332
45536W        W 4632  24.602   5.767   2.285
45537W        W 4633   6.225  19.057  13.380
45538W        W 4634   8.398  34.492  13.478
45539W        W 4635  41.480  36.927   2.350
45540W        W 4636  33.123  29.524  13.449
45541W        W 4637  27.687  18.747   0.439
45542W        W 4638  30.623  25.658  10.993
45543W        W 4639   8.317  17.776  12.447
45544W        W 4640  35.938  41.438  11.605
45545W        W 4641  44.919  38.935  11.003
45546W        W 4642  23.012  28.172  14.392
45547W        W 4643   0.367  32.405   0.471
45548W        W 4644  40.881  34.433  13.328
45549W        W 4645  10.311  43.298  13.329
45550W        W 4646   9.221  29.542  10.639
45551W        W 4647  30.420  15.761  14.354
45552W        W 4648  39.557   4.367   4.183
45553W        W 4649  15.662  33.911   3.705
45554W        W 4650   1.280  21.714   4.775
45555W        W 4651   9.375  10.209   2.246
45556W        W 4652  10.741   9.332   2.885
45557W        W 4653  40.548  13.758  11.612
45558W        W 4654  34.377  32.552  12.449
45559W        W 4655  38.046   8.263   2.794
45560W        W 4656  29.113   8.281  10.609
45561W        W 4657  42.292  13.748  11.596
45562W        W 4658  40.309  10.793  12.837
45563W        W 4659  17.131  43.375  13.502
45564W        W 4660  26.984   1.380  10.994
45565W        W 4661  43.491   9.718  14.488
45566W        W 4662  43.276  31.067   2.845
45567W        W 4663  10.845  17.609  13.408
45568W        W 4664  14.728   3.295   0.741
45569W        W 4665   8.830  20.524   0.877
45570W        W 4666  26.692   2.811   3.309
45571W        W 4667  18.686  10.822  13.439
45572W        W 4668  35.419  38.961   0.329
45573W        W 4669  29.979  30.502  11.390
45574W        W 4670  36.013  32.635  14.313
45575W        W 4671  12.790  38.957  12.076
45576W        W 4672  40.347  36.431   3.718
45577W        W 4673  17.102  22.590  11.474
45578W        W 4674  25.706  29.532   0.305
45579W        W 4675   3.229  36.432  13.893
45580W        W 4676  35.037  17.181   9.466
45581W        W 4677  28.568  43.286  10.528
45582W        W 4678  37.909  17.741   5.201
45583W        W 4679  24.654   5.200  13.494
45584W        W 4680  18.058  38.935  10.107
45585W        W 4681  17.199   8.404  13.334
45586W        W 4682   5.726  43.893  11.523
45587W        W 4683  12.139  33.383   2.196
45588W        W 4684  12.234  27.620   3.224
45589W        W 4685  24.600  35.073  13.403
45590W        W 4686  13.266  18.574  13.034
45591W        W 4687  23.118  14.742  13.360
45592W        W 4688  39.997  38.898   2.728
45593W        W 4689  30.080  18.734  14.793
45594W        W 4690  41.951  40.804  10.969
45595W        W 4691  20.192  37.582  12.350
45596W        W 4692  38.826  27.599  11.106
45597W        W 4693  43.390  18.200  13.489
45598W        W 4694  15.793   7.333   1.428
45599W        W 4695  36.085  14.648  12.506
45600W        W 4696  43.875  35.461  12.972
45601W        W 4697  34.955   0.899   0.727
45602W        W 4698   9.685  16.694   0.376
45603W        W 4699  26.595  35.456  11.097
45604W        W 4700   4.770  20.674   0.780
45605W        W 4701  20.701   3.250   3.693
45606W        W 4702   7.393  44.417  11.374
45607W        W 4703  23.570   7.296  14.816
45608W        W 4704  35.382  12.648  14.028
45609W        W 4705  13.767   5.835   2.319
45610W        W 4706   9.701  28.566   2.886
45611W        W 4707  32.971   3.865   2.191
45612W        W 4708  35.533   8.288  12.566
45613W        W 4709   6.851  29.537   2.197
45614W        W 4710  18.715   8.360   0.452
45615W        W 4711   8.780  18.561   0.774
45616W        W 4712  24.520  39.022   0.801
45617W        W 4713  43.291  41.811  11.519
45618W        W 4714  33.970   9.833  10.412
45619W        W 4715  27.470   6.883   1.845
45620W        W 4716   9.324   4.211  12.515
45621W        W 4717  22.562   9.844  14.001
45622W        W 4718  19.267  28.030  11.881
45623W        W 4719  13.339   7.903  10.623
45624W        W 4720  30.609   2.405  12.080
45625W        W 4721  20.563  38.527   0.823
45626W        W 4722   7.291  28.074   0.407
45627W        W 4723  28.108   7.718  14.021
45628W        W 4724  32.519   2.363  12.402
45629W        W 4725   4.808  35.595   1.227
45630W        W 4726  10.281  21.634   1.817
45631W        W 4727  43.942   3.816   4.726
45632W        W 4728  39.921  17.278  11.035
45633W        W 4729   5.438  31.458   3.212
45634W        W 4730  28.959  39.345  12.926
45635W        W 4731   2.867   5.863   4.762
45636W        W 4732  22.649  25.139  14.501
45637W        W 4733  15.292  41.013  14.298
45638W        W 4734  39.983  27.618   4.697
45639W        W 4735  13.269  15.255  11.888
45640W        W 4736  16.793  28.601   2.854
45641W        W 4737  14.795   8.692   0.252
45642W        W 4738  10.701  17.251  12.932
45643W        W 4739  33.933  20.104   1.730
45644W        W 4740   0.328   6.790   3.332
45645W        W 4741   2.733   4.255  11.988
45646W        W 4742   3.293  31.597   1.725
45647W        W 4743   6.384   6.211   3.154
45648W        W 4744  15.633  26.537  12.832
45649W        W 4745  11.626  44.383   4.615
45650W        W 4746  26.571   1.456  12.509
45651W        W 4747  36.586  10.175   0.265
45652W        W 4748  21.062  38.348   2.244
45653W        W 4749  35.911   3.263  12.377
45654W        W 4750  40.515   0.947   3.351
45655W        W 4751   3.284  37.549  10.547
45656W        W 4752  19.057  29.104  14.355
45657W        W 4753  44.785  12.186  13.808
45658W        W 4754   4.282  23.152   1.857
45659W        W 4755   9.690   1.409  12.511
45660W        W 4756  24.035  23.689  13.529
45661W        W 4757  12.723  19.729   3.196
45662W        W 4758   4.713  14.198   0.260
45663W        W 4759  34.569  26.624  13.797
45664W        W 4760  32.497  10.204   0.366
45665W        W 4761  43.499  44.485   3.164
45666W        W 4762  16.750  11.783  11.965
45667W        W 4763   5.688  24.197   1.254
45668W        W 4764  14.155  40.858  12.858
45669W        W 4765  26.660  13.769  10.565
45670W        W 4766   4.358  28.637   1.743
45671W        W 4767  41.013  26.148   3.796
45672W        W 4768  30.622   9.763  10.406
45673W        W 4769   6.308  36.409  10.533
45674W        W 4770  37.475  17.658  14.377
45675W        W 4771  33.967  30.653   2.865
45676W        W 4772  11.194  25.649  12.924
45677W        W 4773  12.688  44.934   4.786
45678W        W 4774   5.209  27.650  11.425
45679W        W 4775  26.508  11.136   0.835
45680W        W 4776   1.330  28.032   1.449
45681W        W 4777   4.835  25.200   2.863
45682W        W 4778  23.001   0.377   2.844
45683W        W 4779  38.858  11.761  13.938
45684W        W 4780   2.326  18.749   1.832
45685W        W 4781   4.863  34.411   3.317
45686W        W 4782  35.934   4.942   1.773
45687W        W 4783  36.037   8.339   2.254
45688W        W 4784  32.008  37.956  13.465
45689W        W 4785  32.565  27.558  14.988
45690W        W 4786   9.878  10.277   1.927
45691W        W 4787  44.293  44.329  12.434
45692W        W 4788   3.837  28.435  12.880
45693W        W 4789   3.282  29.923  14.933
45694W        W 4790  39.347   5.351  14.018
45695W        W 4791  36.441  26.589   5.104
45696W        W 4792  22.018  25.174  14.356
45697W        W 4793  32.463  44.823  11.504
45698W        W 4794  28.438  37.514   1.430
45699W        W 4795  29.953  20.597  13.858
45700W        W 4796  23.182  34.472  10.505
45701W        W 4797  15.751  15.649  11.958
45702W        W 4798  25.216  42.890  13.037
45703W        W 4799   3.817  34.070   3.783
45704W        W 4800  36.002   0.386  14.370
45705W        W 4801  29.108  40.313  10.416
45706W        W 4802  12.683  10.746  11.929
45707W        W 4803  30.078  25.485  10.104
45708W        W 4804   6.690  12.153  12.924
45709W        W 4805  36.552  25.600  14.484
45710W        W 4806  45.000  41.535   2.760
45711W        W 4807  35.559  39.892   3.851
45712W        W 4808  39.453  16.198  10.632
45713W        W 4809  28.930  27.159  11.400
45714W        W 4810  17.274  25.218   5.308
45715W        W 4811   2.380  22.630   0.802
45716W        W 4812   6.301  38.412   4.679
45717W        W 4813   2.930  24.993   1.906
45718W        W 4814  10.725   4.216  11.413
45719W        W 4815  29.034   7.690   3.223
45720W        W 4816  27.456  37.838  11.889
45721W        W 4817  31.515   0.263  11.954
45722W        W 4818  29.441  23.501   9.484
45723W        W 4819  35.954  37.999   0.387
45724W        W 4820  16.156  21.631   0.925
45725W        W 4821  14.121   8.315  11.480
45726W        W 4822  28.639  14.276  14.975
45727W        W 4823  29.446  38.959   5.286
45728W        W 4824   2.421  19.201   1.389
45729W        W 4825  27.665  37.966  11.521
45730W        W 4826  28.436   7.329  11.124
45731W        W 4827  33.902  14.630   1.708
45732W        W 4828  21.513  23.718   4.693
45733W        W 4829  17.673  18.159  14.401
45734W        W 4830  38.013  28.670  12.844
45735W        W 4831  41.466   3.870   2.894
45736W        W 4832  42.302  34.020  11.443
45737W        W 4833  41.029  24.704   1.245
45738W        W 4834   1.372  40.533   2.237
45739W        W 4835  42.778  21.541   0.745
45740W        W 4836  42.308  38.562  11.383
45741W        W 4837  23.006   9.826  12.513
45742W        W 4838  33.998  40.477  13.455
45743W        W 4839  13.769  35.910  12.020
45744W        W 4840   6.397   2.888  14.935
45745W        W 4841  17.765  16.803   0.355
45746W        W 4842  21.581   4.705  11.913
45747W        W 4843  32.416   4.929  12.914
45748W        W 4844  14.230  25.976  10.460
45749W        W 4845  24.613  28.436  11.126
45750W        W 4846  43.487   0.827   1.359
45751W        W 4847  40.465   3.353   0.932
45752W        W 4848  27.680  33.911   2.224
45753W        W 4849  20.181  16.235  11.932
45754W        W 4850  16.746  29.461   0.737
45755W        W 4851  18.190  25.498  13.816
45756W        W 4852   0.483  23.144  10.405
45757W        W 4853  30.968  33.959  12.972
45758W        W 4854  30.909  28.104  12.876
45759W        W 4855  37.424  44.475   0.421
45760W        W 4856  39.015  21.554   0.785
45761W        W 4857  43.014  11.716  10.571
45762W        W 4858  43.430   2.350   0.849
45763W        W 4859  39.361  18.235  14.907
45764W        W 4860  43.819  38.998  12.497
45765W        W 4861   6.190   2.249  11.917
45766W        W 4862  17.702  11.284   4.643
45767W        W 4863  43.371  19.248   4.639
45768W        W 4864   3.899  20.246  13.011
45769W        W 4865  12.701  29.532  12.955
45770W        W 4866  30.009   0.292  13.998
45771W        W 4867   2.827  10.378   1.900
45772W        W 4868   0.470  34.098   1.216
45773W        W 4869  14.289  25.644  10.502
45774W        W 4870  30.527   5.839  14.955
45775W        W 4871  23.667  13.763   4.225
45776W        W 4872  42.897  20.210  11.016
45777W        W 4873  37.481  19.623   2.675
45778W        W 4874  31.105  25.996   3.383
45779W        W 4875   3.379   1.906  11.944
45780W        W 4876  41.498  11.283  13.338
45781W        W 4877   5.843  11.254  10.920
45782W        W 4878   3.358  18.221   0.360
45783W        W 4879  42.329  35.487  11.025
45784W        W 4880  14.173   2.949   2.323
45785W        W 4881  41.388   2.366  11.546
45786W        W 4882  41.807  38.974  10.161
45787W        W 4883   8.703   2.378   0.941
45788W        W 4884  41.370   3.240   2.384
45789W        W 4885  36.361  25.647  13.006
45790W        W 4886  44.452  12.238  12.078
45791W        W 4887  41.906   6.702   2.730
45792W        W 4888  19.777  16.684  10.132
45793W        W 4889  20.172   0.417   1.905
45794W        W 4890  31.965  24.596   1.229
45795W        W 4891  35.469  10.632   1.828
45796W        W 4892  40.870  27.687   3.701
45797W        W 4893  10.730  17.092   4.746
45798W        W 4894  32.963  25.997  10.144
45799W        W 4895  21.252  29.564  12.090
45800W        W 4896  44.369  14.758  14.979
45801W        W 4897  36.933  35.859  13.479
45802W        W 4898   7.803  43.794   0.348
45803W        W 4899  19.194   1.938   4.153
45804W        W 4900  40.006  24.064   1.891
45805W        W 4901  17.151  19.257  13.999
45806W        W 4902  11.175  16.206   0.324
45807W        W 4903   7.858  21.548  12.908
45808W        W 4904  30.036  22.187  10.478
45809W        W 4905  11.244  14.140  13.493
45810W        W 4906  40.309   3.224   4.280
45811W        W 4907  18.571  37.956  14.362
45812W        W 4908  36.918  21.099  13.008
45813W        W 4909  33.591  15.632  12.426
45814W        W 4910  42.007  23.187   2.800
45815W        W 4911  34.410  14.300  12.579
45816W        W 4912  35.096  13.761  14.978
45817W        W 4913  22.525  36.409  12.091
45818W        W 4914   2.787  29.928   1.398
45819W        W 4915  40.410   9.667  13.989
45820W        W 4916  28.034  35.978   1.451
45821W        W 4917  24.152   1.975   2.833
45822W        W 4918  29.481  11.331  12.531
45823W        W 4919  38.057  24.716   2.674
45824W        W 4920  12.696  33.406   1.843
45825W        W 4921  42.382  13.675  10.475
45826W        W 4922  17.065  23.577   1.274
45827W        W 4923  31.996  18.100  12.390
45828W        W 4924   0.941   4.719   3.278
45829W        W 4925  37.506  37.521  14.361
45830W        W 4926  21.731   9.154   1.437
45831W        W 4927  23.690   6.193  13.911
45832W        W 4928  20.752   3.900   1.295
45833W        W 4929  37.066   7.703  14.785
45834W        W 4930  17.141  14.284   1.909
45835W        W 4931   5.801  33.429   0.784
45836W        W 4932  12.745  33.936  11.875
45837W        W 4933   1.309  28.531   1.828
45838W        W 4934   7.389  21.137   1.233
45839W        W 4935   3.412   7.364   4.334
45840W        W 4936  21.544  15.105   3.824
45841W        W 4937   0.268  34.462   0.836
45842W        W 4938  32.017  22.689  10.045
45843W        W 4939  13.182  11.855  10.138
45844W        W 4940  41.986  42.960   3.748
45845W        W 4941  43.995  28.139  14.893
45846W        W 4942  11.697   9.331   4.153
45847W        W 4943  15.642   7.890   5.105
45848W        W 4944  29.643  24.615   4.325
45849W        W 4945  31.548  10.812  12.492
45850W        W 4946  38.423  16.072  12.880
45851W        W 4947  32.485   5.405   1.253
45852W        W 4948  35.556  29.945   3.245
45853W        W 4949  32.444  39.968  13.310
45854W        W 4950  17.673  36.994   1.710
45855W        W 4951  13.271  27.152  13.971
45856W        W 4952  23.135  19.132   1.806
45857W        W 4953  38.552  24.559  10.987
45858W        W 4954  35.070  38.342  11.387
45859W        W 4955   7.709   7.332  13.394
45860W        W 4956  24.620   5.758   0.312
45861W        W 4957  33.964  27.652  13.844
45862W        W 4958   9.644   6.349  13.816
45863W        W 4959   7.696  38.515  13.480
45864W        W 4960  19.756  42.460  13.912
45865W        W 4961  38.408  12.721   2.725
45866W        W 4962  38.980  32.944   2.313
45867W        W 4963  31.431  22.015  11.900
45868W        W 4964  30.549   7.289  14.764
45869W        W 4965   0.910  10.366   4.343
45870W        W 4966  39.447  23.698   0.438
45871W        W 4967  22.505  35.103  11.930
45872W        W 4968   7.276   9.760  10.981
45873W        W 4969  41.945  29.469   1.393
45874W        W 4970  22.237  16.598   0.958
45875W        W 4971  33.459  33.077   5.230
45876W        W 4972   2.392  17.643  10.946
45877W        W 4973  22.714  39.322   0.804
45878W        W 4974  25.023  32.048  14.966
45879W        W 4975  36.011   0.483  13.796
45880W        W 4976  34.909  10.281  12.999
45881W        W 4977  40.860  29.667   0.415
45882W        W 4978  25.583   7.888   4.135
45883W        W 4979  37.855  35.930   3.328
45884W        W 4980   5.788  24.059   0.278
45885W        W 4981   4.327  20.563  12.851
45886W        W 4982  39.828  19.213  11.931
45887W        W 4983  23.990  25.567   3.643
45888W        W 4984  15.739   2.442   1.791
45889W        W 4985  22.078  18.062  13.871
45890W        W 4986  39.900  37.408  11.093
45891W        W 4987  40.927  16.718   3.259
45892W        W 4988  40.306  44.960  13.397
45893W        W 4989  14.769  22.134  11.099
45894W        W 4990  12.767  39.868  13.858
45895W        W 4991  26.543  25.480  10.979
45896W        W 4992  16.087  28.650   3.864
45897W        W 4993   7.675  17.759  11.084
45898W        W 4994   7.775  31.501   1.869
45899W        W 4995  38.526   4.388   2.408
45900W        W 4996  18.167  24.585   3.645
45901W        W 4997  38.959  28.152  14.507
45902W        W 4998  39.503  25.674   1.833
45903W        W 4999  39.331  29.958  12.522
45904W        W 5000  18.054  21.119   2.699
45905W        W 5001   8.165  26.206   3.215
45906W        W 5002   5.877  13.626  12.419
45907W        W 5003   9.722  29.065   5.085
45908W        W 5004  40.312  10.818   1.219
45909W        W 5005  25.197  22.153   1.865
45910W        W 5006   9.795  33.040  14.885
45911W        W 5007   5.750  37.030  12.014
45912W        W 5008  32.448  11.739   1.905
45913W        W 5009   7.838  10.275  11.986
45914W        W 5010  21.697  17.599   2.368
45915W        W 5011   6.320  21.225   4.715
45916W        W 5012  36.463   7.323   2.349
45917W        W 5013   3.830  18.738  12.924
45918W        W 5014  29.036  22.678  13.490
45919W        W 5015   2.234  19.693  11.433
45920W        W 5016  41.901   3.350  12.474
45921W        W 5017   6.316   8.274  12.363
45922W        W 5018  35.930  15.088   1.893
45923W        W 5019  38.040  31.041   1.737
45924W        W 5020  28.632   0.447   1.388
45925W        W 5021  24.574  28.029  11.568
45926W        W 5022  33.059  20.232  10.581
45927W        W 5023   4.881  33.057  11.474
45928W        W 5024  26.094  31.102  12.488
45929W        W 5025   8.320  12.254   3.148
45930W        W 5026  27.114  21.583  12.969
45931W        W 5027  43.452  44.476   3.658
45932W        W 5028   6.813  42.965   4.779
45933W        W 5029  13.632  34.457  14.485
45934W        W 5030  37.485  25.642   4.159
45935W        W 5031  28.999  42.824  14.849
45936W        W 5032   8.178  10.803   0.265
45937W        W 5033  19.582  34.864   2.398
45938W        W 5034  25.105  20.244   0.424
45939W        W 5035  21.071  17.096  12.917
45940W        W 5036  43.870   9.851   1.388
45941W        W 5037   8.728  23.717  11.071
45942W        W 5038  35.058  20.750   3.177
45943W        W 5039  26.661  43.807   2.753
45944W        W 5040   2.425   2.359  11.999
45945W        W 5041  37.402  24.624  10.936
45946W        W 5042  10.264  19.714   2.677
45947W        W 5043  19.089  27.146  10.417
45948W        W 5044  23.058  16.730  11.994
45949W        W 5045  20.184   7.885   1.752
45950W        W 5046  42.436   1.908  10.990
45951W        W 5047  39.319  41.884  10.451
45952W        W 5048  19.769  39.818  11.569
45953W        W 5049  10.291  14.834  14.402
45954W        W 5050   1.383  10.374   0.864
45955W        W 5051  14.095   1.775  10.958
45956W        W 5052   5.752  41.318  11.873
45957W        W 5053  32.391   9.858  12.922
45958W        W 5054  14.116   2.268  10.487
45959W        W 5055   3.932  35.415   1.427
45960W        W 5056  16.208  14.596  14.028
45961W        W 5057  35.101  10.141   1.319
45962W        W 5058  31.115   6.376  11.927
45963W        W 5059  16.309  32.027  12.535
45964W        W 5060   7.834  32.562  12.446
45965W        W 5061  35.490  21.564  14.336
45966W        W 5062   9.812   6.217   4.308
45967W        W 5063  22.243   1.812   2.794
45968W        W 5064  23.205  43.423  12.952
45969W        W 5065  32.580   9.667   4.751
45970W        W 5066  12.337   3.751   3.709
45971W        W 5067  13.265  15.266   2.391
45972W        W 5068  37.844  33.013   1.233
45973W        W 5069  24.723  19.218  14.999
45974W        W 5070  42.906   2.438  11.001
45975W        W 5071  28.568  29.610  13.505
45976W        W 5072   5.256   3.361  11.927
45977W        W 5073  37.038   6.688   0.838
45978W        W 5074  30.508   5.815  12.832
45979W        W 5075  38.042  14.717  10.486
45980W        W 5076  43.769   5.335   2.900
45981W        W 5077  42.934  19.550   2.387
45982W        W 5078   2.814  29.489   1.439
45983W        W 5079  40.938  12.769  14.846
45984W        W 5080  27.688  20.051  10.145
45985W        W 5081  42.897  42.521   4.277
45986W        W 5082  33.453  43.381  10.425
45987W        W 5083  37.945   4.291   1.712
45988W        W 5084   5.697  38.533  11.495
45989W        W 5085  35.889  23.230   2.206
45990W        W 5086  30.600  38.003  11.957
45991W        W 5087   8.821  42.958  14.874
45992W        W 5088  15.813  35.443   3.836
45993W        W 5089  39.431  19.634  11.533
45994W        W 5090  26.189  37.535   3.303
45995W        W 5091   8.857  39.389   4.786
45996W        W 5092  20.552   8.793  13.510
45997W        W 5093  36.529  10.806   5.733
45998W        W 5094  32.907  13.343   4.137
45999W        W 5095  23.004   0.865  12.383
46000W        W 5096  42.992   4.752  11.981
46001W        W 5097  11.663  36.420   0.482
46002W        W 5098  23.216  23.068   2.802
46003W        W 5099  32.626  24.711   1.446
46004W        W 5100  14.134  24.091  11.025
46005W        W 5101  17.200   9.289  14.390
46006W        W 5102  16.263  26.006   3.378
46007W        W 5103  42.960  27.688   1.909
46008W        W 5104  26.014  14.622   4.601
46009W        W 5105  12.262  29.431   2.207
46010W        W 5106  36.097  26.644   3.688
46011W        W 5107  18.597  34.372   0.803
46012W        W 5108  15.661   2.245   1.438
46013W        W 5109  11.848  27.090  14.031
46014W        W 5110  29.487  15.663  10.891
46015W        W 5111   1.464  37.076  11.857
46016W        W 5112  18.157  38.007  11.979
46017W        W 5113  15.113   4.873   4.782
46018W        W 5114  44.830   7.191   0.780
46019W        W 5115  32.494  40.945  14.337
46020W        W 5116  27.172  25.518  14.475
46021W        W 5117  23.540  44.398   3.298
46022W        W 5118  14.623   0.971  14.482
46023W        W 5119  18.055   7.795   1.317
46024W        W 5120  44.836   6.368  11.535
46025W        W 5121  38.885  16.789  10.427
46026W        W 5122  38.033  20.668   3.246
46027W        W 5123  26.108  12.209  11.497
46028W        W 5124  22.124  28.952   1.312
46029W        W 5125  29.922   4.449   2.699
46030W        W 5126  20.581  16.245   3.212
46031W        W 5127  13.237  31.038  12.913
46032W        W 5128  12.712  26.621   2.353
46033W        W 5129  32.101  13.215   1.309
46034W        W 5130  20.087   2.470   0.874
46035W        W 5131  15.619  41.470   3.187
46036W        W 5132  33.449   4.826   0.823
46037W        W 5133  25.714  44.358   1.416
46038W        W 5134  28.151  16.072   3.837
46039W        W 5135   3.817  41.987  13.455
46040W        W 5136  26.596  37.440  13.956
46041W        W 5137  21.511  22.509  13.379
46042W        W 5138  23.068  25.101  13.997
46043W        W 5139  15.274  27.554   1.274
46044W        W 5140  26.175  39.809   3.776
46045W        W 5141  28.453   6.272   4.115
46046W        W 5142  13.795   5.802  14.013
46047W        W 5143  38.971  40.902   0.874
46048W        W 5144  44.798  42.911  11.475
46049W        W 5145  27.950  38.530  13.848
46050W        W 5146  40.521  17.573   0.435
46051W        W 5147  12.681  22.549   4.146
46052W        W 5148  39.992  25.484   0.389
46053W        W 5149  32.595  36.985   4.735
46054W        W 5150  39.874  42.963   4.715
46055W        W 5151  22.094   5.410  10.952
46056W        W 5152   6.712   4.235   0.411
46057W        W 5153   4.305   4.935  10.619
46058W        W 5154  40.491  40.921   1.408
46059W        W 5155  24.202  41.527   3.647
46060W        W 5156  28.944  26.507  10.562
46061W        W 5157  15.094   3.309  11.009
46062W        W 5158  11.332  19.773  10.975
46063W        W 5159  12.130  29.502  13.970
46064W        W 5160  36.473  13.807   3.331
46065W        W 5161   1.788   4.385   0.811
46066W        W 5162  29.923  34.418  12.897
46067W        W 5163  14.624  21.119   0.420
46068W        W 5164   0.490  44.345  11.883
46069W        W 5165  38.945  38.019   1.756
46070W        W 5166   9.356   1.454  14.951
46071W        W 5167   5.790  40.512  11.469
46072W        W 5168   1.425  12.255  13.533
46073W        W 5169   0.275  10.804  12.344
46074W        W 5170  16.257  14.827  12.406
46075W        W 5171  29.071  14.721  13.947
46076W        W 5172  41.875  40.829   3.276
46077W        W 5173   8.700  31.130  13.898
46078W        W 5174   8.731  26.989  14.784
46079W        W 5175   6.705  29.023   0.892
46080W        W 5176  20.744  25.602   3.809
46081W        W 5177  20.527  43.455   1.816
46082W        W 5178  17.231  18.258  12.911
46083W        W 5179   4.742  28.549  14.978
46084W        W 5180  11.742  11.754  10.929
46085W        W 5181  39.871   6.289  12.891
46086W        W 5182  29.514  35.447  11.583
46087W        W 5183  24.185   6.378   5.221
46088W        W 5184   5.217  11.162  14.927
46089W        W 5185   9.209  35.932   5.151
46090W        W 5186   9.235  11.320  13.454
46091W        W 5187  30.529  34.583   3.340
46092W        W 5188  21.675  31.018   3.852
46093W        W 5189  19.149  32.925   4.264
46094W        W 5190  29.106  12.356   2.352
46095W        W 5191  23.681  44.484  13.011
46096W        W 5192  41.418   5.695   0.475
46097W        W 5193  34.052  17.740   5.588
46098W        W 5194   2.755  43.018  11.128
46099W        W 5195  29.479  14.707  10.522
46100W        W 5196  33.487  31.999  13.512
46101W        W 5197  42.355  41.513  12.419
46102W        W 5198   6.841  28.480   4.124
46103W        W 5199  35.465   1.262   3.861
46104W        W 5200  15.621  43.906   0.466
46105W        W 5201  31.526  33.895  13.921
46106W        W 5202  22.501  29.568   4.266
46107W        W 5203  10.767   9.874   2.185
46108W        W 5204  36.927   5.757  10.405
46109W        W 5205   2.792  22.663  13.318
46110W        W 5206  22.592  14.187   9.940
46111W        W 5207  36.573   2.874  10.472
46112W        W 5208  19.195  19.144   0.887
46113W        W 5209   4.842  13.299  14.467
46114W        W 5210  20.158  26.099   3.805
46115W        W 5211  18.668   8.231  11.608
46116W        W 5212   4.879  22.008   1.379
46117W        W 5213  22.238  44.920  12.417
46118W        W 5214  15.582  37.037  13.830
46119W        W 5215   8.226  21.668  13.356
46120W        W 5216  38.849  25.105  11.416
46121W        W 5217  37.903  34.608  12.014
46122W        W 5218  31.047  25.200  12.991
46123W        W 5219   2.389   1.789   9.945
46124W        W 5220  29.497  37.876  12.041
46125W        W 5221  25.046  30.594   0.953
46126W        W 5222  43.452  11.732  11.463
46127W        W 5223  26.010  15.117   0.362
46128W        W 5224  16.279  22.175   1.746
46129W        W 5225  28.977  18.110   4.694
46130W        W 5226   2.872   3.921  13.023
46131W        W 5227  41.032  38.064   3.150
46132W        W 5228  10.323  44.334   4.320
46133W        W 5229   5.796  19.540  12.378
46134W        W 5230  36.903   7.304   5.264
46135W        W 5231  17.291   2.240  11.467
46136W        W 5232  14.726  15.753  13.038
46137W        W 5233   7.665  28.958  10.462
46138W        W 5234  35.434  16.628  12.575
46139W        W 5235  42.465  42.372  11.600
46140W        W 5236   1.440  24.608   4.696
46141W        W 5237   0.887  18.596   2.342
46142W        W 5238   1.443  32.614   0.769
46143W        W 5239  42.033   3.252   5.321
46144W        W 5240  23.078  30.567   3.253
46145W        W 5241  13.151  10.275  14.362
46146W        W 5242   1.437  14.810   0.730
46147W        W 5243   5.211  13.765   1.370
46148W        W 5244  22.998  31.617   3.268
46149W        W 5245  42.436  39.836  11.018
46150W        W 5246   2.321  40.833   3.802
46151W        W 5247  30.040  34.053  14.338
46152W        W 5248  25.040  35.099  14.796
46153W        W 5249   5.225  16.737   1.741
46154W        W 5250  23.051   7.196   2.400
46155W        W 5251  34.888  41.968  10.628
46156W        W 5252  11.737   2.255   2.672
46157W        W 5253   1.300  21.158   0.276
46158W        W 5254  37.001  42.309   2.877
46159W        W 5255  31.423   2.935  11.510
46160W        W 5256  28.168  22.112   3.736
46161W        W 5257  18.674  10.207   5.175
46162W        W 5258   1.866  40.333  13.819
46163W        W 5259  23.044  17.132   4.170
46164W        W 5260  37.057  22.246   1.750
46165W        W 5261  24.519  23.211  14.391
46166W        W 5262  37.958  10.289  13.529
46167W        W 5263  13.320   0.445  14.763
46168W        W 5264  20.765   6.853   2.790
46169W        W 5265  35.001  33.593   3.702
46170W        W 5266   4.428  32.062  11.604
46171W        W 5267   2.955  19.152   1.243
46172W        W 5268   2.254  27.187  13.501
46173W        W 5269   5.876  39.554   4.175
46174W        W 5270   9.286  39.907   2.666
46175W        W 5271  24.666  31.019  13.955
46176W        W 5272  20.669  43.336  11.506
46177W        W 5273  34.599  32.621   1.450
46178W        W 5274  43.274   8.865   1.231
46179W        W 5275  19.088  23.684   3.816
46180W        W 5276  31.640  42.012   3.719
46181W        W 5277   9.209   4.915  14.874
46182W        W 5278  13.204  44.918  14.989
46183W        W 5279  33.907  41.832  14.803
46184W        W 5280  13.624  25.705  10.499
46185W        W 5281   0.395  34.090  13.968
46186W        W 5282  17.710  31.975  13.427
46187W        W 5283  32.493  21.219   3.838
46188W        W 5284  13.234  43.788   0.248
46189W        W 5285   5.371  10.203  12.424
46190W        W 5286  10.637  14.137  14.902
46191W        W 5287  11.264  24.226  12.953
46192W        W 5288   4.295  15.603   2.740
46193W        W 5289   1.753  25.615   0.355
46194W        W 5290  12.745  43.353  14.445
46195W        W 5291  41.429  39.481   4.623
46196W        W 5292  36.551  37.979   4.685
46197W        W 5293  14.641  41.358   0.960
46198W        W 5294  15.593   0.387   2.880
46199W        W 5295   1.876  32.923   4.247
46200W        W 5296  15.195   4.321  10.517
46201W        W 5297  11.775   3.240  11.592
46202W        W 5298  26.680  36.493   9.956
46203W        W 5299  22.577  36.406  14.939
46204W        W 5300   5.741  44.926  10.417
46205W        W 5301   7.378  15.261  14.493
46206W        W 5302   6.300  12.710   0.367
46207W        W 5303  11.309   1.298   1.710
46208W        W 5304   1.344  31.149   2.728
46209W        W 5305  40.509  24.009  10.462
46210W        W 5306   4.226  12.838   0.855
46211W        W 5307  41.862   3.265  10.451
46212W        W 5308  21.582  43.783   2.900
46213W        W 5309  27.146   3.244   0.249
46214W        W 5310  41.363  11.300  12.496
46215W        W 5311  33.444   8.776   4.735
46216W        W 5312  17.155  43.796   2.680
46217W        W 5313  35.950  23.563   1.834
46218W        W 5314  30.606  28.126  12.876
46219W        W 5315  44.466  17.562  10.006
46220W        W 5316  14.781  21.567  14.383
46221W        W 5317  36.025  17.697  13.308
46222W        W 5318  28.929  32.015  13.537
46223W        W 5319  19.648  36.483  14.979
46224W        W 5320   3.827   0.280  14.912
46225W        W 5321  24.673  22.233   0.792
46226W        W 5322  21.074   0.305   2.772
46227W        W 5323  28.610  44.290  12.864
46228W        W 5324  12.738  32.039   1.344
46229W        W 5325   2.289  29.536  12.093
46230W        W 5326  36.559  26.585   0.436
46231W        W 5327   1.361  34.012   1.831
46232W        W 5328  13.807  26.626  10.512
46233W        W 5329   1.946   3.899   3.815
46234W        W 5330  34.902  35.399  12.399
46235W        W 5331  40.431  26.098  14.847
46236W        W 5332  38.985  19.703  13.871
46237W        W 5333  33.914  24.064   1.888
46238W        W 5334  29.037  11.685  10.627
46239W        W 5335  40.891  27.669   2.327
46240W        W 5336  10.737  26.051  11.445
46241W        W 5337  29.116  12.831   2.842
46242W        W 5338   9.281  14.664   1.814
46243W        W 5339  37.537  17.794   5.271
46244W        W 5340   4.937   1.464  10.890
46245W        W 5341  27.131  38.465   4.832
46246W        W 5342  32.635  32.405  14.370
46247W        W 5343  19.215  38.433  14.505
46248W        W 5344   0.353  42.311   2.892
46249W        W 5345   2.408   5.924  12.024
46250W        W 5346   0.956  10.851   1.846
46251W        W 5347  38.926  40.916   2.871
46252W        W 5348  11.718  32.115   1.820
46253W        W 5349  15.664  31.936   3.296
46254W        W 5350  44.345  13.129  12.532
46255W        W 5351   0.855   4.896  11.595
46256W        W 5352   0.450  15.160   2.310
46257W        W 5353  24.040  34.005   2.307
46258W        W 5354  22.020  14.746   4.639
46259W        W 5355  24.224   3.423  10.942
46260W        W 5356  19.236  18.248  14.795
46261W        W 5357  42.371  13.608  12.989
46262W        W 5358  29.548  13.339   4.272
46263W        W 5359  40.417  43.000   1.270
46264W        W 5360  12.207  31.544   2.672
46265W        W 5361  21.551  34.947  14.006
46266W        W 5362  37.363   2.846   1.869
46267W        W 5363  23.055  24.589  14.301
46268W        W 5364  24.536  16.750   5.275
46269W        W 5365   5.361  31.482  14.325
46270W        W 5366  21.625   2.331   4.274
46271W        W 5367  33.015  18.211   3.665
46272W        W 5368  24.025   1.439  14.446
46273W        W 5369  15.095  18.287  14.787
46274W        W 5370  21.606   5.221   0.745
46275W        W 5371  18.609  40.996  12.543
46276W        W 5372  36.074  11.654   3.821
46277W        W 5373  36.580  28.025   1.390
46278W        W 5374   5.268  26.960  11.096
46279W        W 5375  21.108  30.507  13.509
46280W        W 5376  12.316  44.456  10.979
46281W        W 5377  29.976  14.803  14.758
46282W        W 5378  25.119  22.011   2.879
46283W        W 5379  37.855  35.085   1.245
46284W        W 5380   0.319   7.775  13.418
46285W        W 5381  28.666   4.324  13.901
46286W        W 5382  24.168  41.964   4.603
46287W        W 5383  28.622  41.407   2.678
46288W        W 5384  30.145  40.979   3.744
46289W        W 5385  31.037  15.317  11.924
46290W        W 5386  38.496   0.846  13.987
46291W        W 5387   7.773   9.710  11.954
46292W        W 5388  25.574  24.160  13.391
46293W        W 5389  21.138  22.602  12.502
46294W        W 5390  28.526   8.839   1.817
46295W        W 5391   9.757  26.196  10.091
46296W        W 5392  12.264  32.553   3.234
46297W        W 5393  20.042  31.033  11.512
46298W        W 5394   2.301  30.946   2.687
46299W        W 5395  30.637  16.166  13.035
46300W        W 5396  39.408  16.730   0.901
46301W        W 5397  15.805  14.338   4.663
46302W        W 5398  22.672   6.804   1.388
46303W        W 5399   7.804  19.738  14.428
46304W        W 5400   0.866   7.313  12.962
46305W        W 5401  34.874  13.185  11.990
46306W        W 5402  20.258  44.363  10.644
46307W        W 5403  41.949  26.526   2.208
46308W        W 5404  37.553  34.935   2.255
46309W        W 5405  36.029  29.048  10.500
46310W        W 5406  44.480  42.955   0.391
46311W        W 5407  12.664  10.739  12.950
46312W        W 5408  11.783  13.611  14.382
46313W        W 5409  31.112  16.212   4.812
46314W        W 5410  20.101  12.186   4.789
46315W        W 5411  44.904  16.224   2.332
46316W        W 5412  34.116  16.157  12.965
46317W        W 5413  27.474   0.276  13.936
46318W        W 5414  11.779   5.932  14.383
46319W        W 5415  30.051   7.282   1.295
46320W        W 5416  22.177  27.033  12.899
46321W        W 5417  30.421   7.312  11.559
46322W        W 5418  22.231   2.361  13.403
46323W        W 5419   7.358  27.474   3.334
46324W        W 5420  11.210  41.845   4.126
46325W        W 5421  10.786  28.601   2.768
46326W        W 5422  32.461  31.109  13.923
46327W        W 5423   5.388  17.762  10.948
46328W        W 5424  17.086  20.665   1.918
46329W        W 5425   6.790  21.690  10.571
46330W        W 5426  41.980  33.583   3.633
46331W        W 5427  31.565   0.756  11.410
46332W        W 5428   8.171  28.671  13.909
46333W        W 5429  14.250  17.756   4.170
46334W        W 5430   7.322   4.446  11.416
46335W        W 5431  17.138   0.259  13.922
46336W        W 5432   3.756  41.460   2.391
46337W        W 5433  34.442  14.184  13.386
46338W        W 5434   9.669  24.980  13.500
46339W        W 5435  32.543  35.525   4.599
46340W        W 5436  17.191  32.574  12.885
46341W        W 5437  33.573   9.232   3.671
46342W        W 5438  26.488  25.049  14.928
46343W        W 5439  25.049  18.193  14.421
46344W        W 5440  22.036  13.745   0.306
46345W        W 5441   2.750  12.297  11.550
46346W        W 5442  13.724  24.525  11.989
46347W        W 5443  34.502   2.727   0.944
46348W        W 5444   8.830  40.496  14.982
46349W        W 5445  31.123   9.881   0.883
46350W        W 5446  18.646  13.836   3.371
46351W        W 5447  41.963  44.880   1.804
46352W        W 5448  25.501  16.627   1.255
46353W        W 5449  28.173  17.556   0.341
46354W        W 5450  14.660  11.837  12.088
46355W        W 5451   9.386   5.701  13.988
46356W        W 5452  31.034  31.148   2.820
46357W        W 5453   4.851   5.387   4.175
46358W        W 5454  38.007  24.977   4.638
46359W        W 5455  19.740  40.380   1.922
46360W        W 5456  12.627  13.253  12.947
46361W        W 5457  40.542  28.614   0.963
46362W        W 5458  32.923   6.759   1.868
46363W        W 5459  15.253   3.396   1.326
46364W        W 5460  10.274  21.063   0.467
46365W        W 5461  18.567  29.982   0.904
46366W        W 5462   4.795   9.847   3.755
46367W        W 5463  12.640  22.028  14.826
46368W        W 5464  16.727  16.672  14.347
46369W        W 5465  41.788  10.205   0.925
46370W        W 5466  32.585  22.027  11.045
46371W        W 5467  14.202  35.026   1.843
46372W        W 5468  17.076   9.656  14.812
46373W        W 5469  28.471  37.369  13.933
46374W        W 5470  40.956  13.220   1.930
46375W        W 5471  32.618  21.215   1.364
46376W        W 5472   9.769  36.925   4.176
46377W        W 5473  28.005  19.152  10.074
46378W        W 5474  41.455  44.308  13.338
46379W        W 5475  16.296  37.380  14.431
46380W        W 5476  24.005  35.008   1.410
46381W        W 5477   6.728  27.101  14.394
46382W        W 5478   6.424  12.633  14.913
46383W        W 5479  21.111  31.997   1.282
46384W        W 5480   0.963   4.302   3.383
46385W        W 5481   8.313  17.678  12.013
46386W        W 5482   7.289   5.414  12.915
46387W        W 5483   3.955  39.924   1.431
46388W        W 5484  42.946   3.890  13.032
46389W        W 5485   4.853   5.734   1.422
46390W        W 5486  12.728  24.993  12.040
46391W        W 5487  44.960   1.471  11.033
46392W        W 5488  25.702  42.323  10.591
46393W        W 5489  21.251  11.221   3.811
46394W        W 5490  14.809  28.015   3.779
46395W        W 5491  27.525  17.759   4.119
46396W        W 5492  24.020  35.382   5.254
46397W        W 5493  30.136  24.696   2.861
46398W        W 5494  14.639  11.719   1.311
46399W        W 5495  33.595  13.636  14.471
46400W        W 5496  41.020   6.365   2.184
46401W        W 5497  20.202  40.856   3.351
46402W        W 5498  19.128  10.753  12.440
46403W        W 5499  10.257  44.310   2.826
46404W        W 5500  16.630  34.093  13.529
46405W        W 5501  24.721  18.732  11.027
46406W        W 5502   9.275  41.433   3.703
46407W        W 5503  11.735  13.220   0.732
46408W        W 5504  26.050   5.804  10.535
46409W        W 5505   1.477  37.849  11.499
46410W        W 5506  14.107  10.358  14.312
46411W        W 5507  33.986  12.203   2.310
46412W        W 5508  30.118  24.084   4.703
46413W        W 5509  17.211  12.772   0.918
46414W        W 5510  36.567  34.569   1.339
46415W        W 5511   6.923  32.953  10.545
46416W        W 5512  39.557  37.336  11.934
46417W        W 5513  34.393   6.676   1.766
46418W        W 5514  11.292  32.520  12.879
46419W        W 5515  34.116   5.295   2.788
46420W        W 5516  20.599   5.883  14.874
46421W        W 5517  20.708  18.168  13.525
46422W        W 5518  14.294  19.183   1.354
46423W        W 5519  20.629  36.995  13.832
46424W        W 5520  19.553  43.897   4.601
46425W        W 5521  33.528  27.039   2.751
46426W        W 5522   5.822  41.502   4.603
46427W        W 5523  34.903  28.085  10.479
46428W        W 5524  17.281  37.863   3.294
46429W        W 5525  14.769  19.727   4.759
46430W        W 5526  18.727  22.017  10.576
46431W        W 5527  16.283  27.081  13.312
46432W        W 5528  43.490  14.621  13.057
46433W        W 5529   3.305   0.330  12.476
46434W        W 5530  23.984  32.623   4.821
46435W        W 5531  13.603  31.968   2.373
46436W        W 5532  31.547  15.593   3.775
46437W        W 5533  33.029   0.935  13.793
46438W        W 5534  40.484  16.644  13.516
46439W        W 5535   3.725  23.236   2.322
46440W        W 5536  35.975  43.816   0.482
46441W        W 5537  12.224  20.091  13.476
46442W        W 5538  41.442  43.932  14.365
46443W        W 5539  29.434   8.310   3.202
46444W        W 5540  29.043  14.228  12.924
46445W        W 5541   4.938   0.480   2.872
46446W        W 5542   3.722  41.985   2.772
46447W        W 5543  39.334   8.161  14.009
46448W        W 5544  34.999  12.163   1.367
46449W        W 5545  30.946   6.740  11.930
46450W        W 5546   9.174  15.259  10.074
46451W        W 5547  14.747  33.939  12.342
46452W        W 5548   7.175  32.506   0.782
46453W        W 5549  31.558  10.153  12.385
46454W        W 5550   7.177  25.678  14.796
46455W        W 5551  41.022   0.456   2.196
46456W        W 5552  35.405  36.563  13.416
46457W        W 5553   0.307   4.902   1.852
46458W        W 5554  13.700  25.659  14.004
46459W        W 5555  24.554  35.921  14.880
46460W        W 5556  39.394  30.956   2.263
46461W        W 5557  39.425  31.987   2.352
46462W        W 5558   6.248   7.345  14.362
46463W        W 5559  17.683  22.696  11.968
46464W        W 5560   0.794  13.766  14.289
46465W        W 5561  29.063  14.316  10.929
46466W        W 5562  24.009  17.637  12.848
46467W        W 5563   7.327  34.996   2.742
46468W        W 5564  22.694  23.140  10.972
46469W        W 5565  43.838   5.835  13.955
46470W        W 5566  20.552  31.062   4.116
46471W        W 5567  35.858  33.461  13.987
46472W        W 5568  15.714  25.540  14.788
46473W        W 5569   8.308   6.264   2.802
46474W        W 5570  12.741   3.791   4.683
46475W        W 5571  44.769  20.609  13.327
46476W        W 5572  32.490   7.870   4.188
46477W        W 5573  21.053   3.287   3.654
46478W        W 5574  28.483  11.351  10.564
46479W        W 5575  12.261  23.080   2.895
46480W        W 5576   7.765   1.746  11.606
46481W        W 5577   7.207   3.747  13.434
46482W        W 5578  26.062   9.770   3.724
46483W        W 5579  39.352  38.503   3.727
46484W        W 5580  38.873  29.561   0.274
46485W        W 5581  26.965  35.362  10.532
46486W        W 5582  23.697  25.014  13.402
46487W        W 5583  32.007  10.715  11.558
46488W        W 5584  25.555  22.043   0.243
46489W        W 5585  39.457  30.930  11.871
46490W        W 5586   7.239  37.851  12.522
46491W        W 5587  14.190  39.892   4.804
46492W        W 5588  38.999  15.633   0.938
46493W        W 5589  34.369  29.548  13.976
46494W        W 5590  43.406  25.626   4.653
46495W        W 5591  17.221  10.843  11.452
46496W        W 5592  18.063  17.076   2.853
46497W        W 5593  34.926   2.351  10.482
46498W        W 5594  34.449  41.853  14.280
46499W        W 5595  26.129  11.169  13.845
46500W        W 5596  41.470  24.581  12.372
46501W        W 5597  38.049  37.419   0.831
46502W        W 5598  43.977  11.158   4.825
46503W        W 5599  35.471  40.379   3.193
46504W        W 5600  40.422  35.473  13.875
46505W        W 5601  18.208  30.476   4.329
46506W        W 5602  19.638   2.279   3.250
46507W        W 5603  12.266  10.807   0.287
46508W        W 5604  44.282   7.772  12.424
46509W        W 5605  21.206  37.921  13.311
46510W        W 5606  24.110  32.437  13.792
46511W        W 5607  23.989  27.168  13.875
46512W        W 5608  27.578  31.412  12.450
46513W        W 5609  10.372  34.922  13.033
46514W        W 5610  31.549   9.170   4.118
46515W        W 5611  10.381   6.260  14.461
46516W        W 5612  12.289  33.390  11.436
46517W        W 5613  34.586  42.940  10.594
46518W        W 5614  32.992  25.991  11.890
46519W        W 5615  42.334  28.961   2.284
46520W        W 5616   4.210   1.475   4.648
46521W        W 5617   7.327   5.709  11.988
46522W        W 5618  29.592  30.565   4.323
46523W        W 5619  25.650  32.893  12.058
46524W        W 5620  11.857  30.521  14.369
46525W        W 5621  20.128  34.880  11.399
46526W        W 5622  19.774   8.789   2.844
46527W        W 5623  12.657  26.134  10.982
46528W        W 5624  40.921   0.833  12.450
46529W        W 5625   2.741   2.358  10.603
46530W        W 5626  10.382  40.807  11.050
46531W        W 5627  11.794  44.952   4.804
46532W        W 5628  11.803   7.272   4.661
46533W        W 5629  22.021   2.240   0.840
46534W        W 5630   1.427  26.569  10.918
46535W        W 5631  10.228  24.499   0.309
46536W        W 5632  44.350   9.735   0.455
46537W        W 5633   1.885  19.767  13.823
46538W        W 5634   8.698  19.132  14.939
46539W        W 5635  19.534  28.625  12.418
46540W        W 5636  31.574  39.358  12.862
46541W        W 5637   4.404  32.420  14.914
46542W        W 5638   4.771  37.369   1.843
46543W        W 5639  22.553  41.008  11.582
46544W        W 5640   5.845   5.327   3.314
46545W        W 5641  41.016  12.158   3.732
46546W        W 5642  44.487  24.008   3.797
46547W        W 5643  24.192  23.709  11.493
46548W        W 5644  43.955  15.791   4.752
46549W        W 5645  42.524  38.825  13.042
46550W        W 5646  43.454  42.970   2.780
46551W        W 5647   0.950  12.771  12.465
46552W        W 5648  19.142  13.821   3.345
46553W        W 5649  41.324  12.287   4.736
46554W        W 5650  11.698  27.071  14.324
46555W        W 5651  17.233  12.290   2.236
46556W        W 5652  12.763  42.395   3.796
46557W        W 5653   0.491   1.256   0.831
46558W        W 5654   8.226   2.748  12.401
46559W        W 5655  17.168  10.871   3.826
46560W        W 5656  22.188  18.713   3.201
46561W        W 5657  29.123  27.960   1.748
46562W        W 5658   6.849   0.275  12.068
46563W        W 5659  25.990  18.247  14.936
46564W        W 5660   5.699  11.634   0.888
46565W        W 5661  16.794  30.426   5.278
46566W        W 5662   0.761  39.909   4.314
46567W        W 5663  17.763  10.670  10.048
46568W        W 5664  20.767  34.898  14.873
46569W        W 5665  18.592  25.484   0.273
46570W        W 5666  20.721  35.981   2.895
46571W        W 5667  19.620  18.680  12.866
46572W        W 5668  31.562  42.507   1.226
46573W        W 5669  20.222  14.746   4.787
46574W        W 5670   2.938  41.020   1.821
46575W        W 5671  23.069  14.276  14.931
46576W        W 5672  12.712  25.591   0.892
46577W        W 5673  44.481  19.135  13.817
46578W        W 5674  33.452  37.916  11.481
46579W        W 5675  28.552  33.006  14.390
46580W        W 5676  27.691  34.490  14.792
46581W        W 5677   2.942  34.517  10.892
46582W        W 5678  14.195  27.556   4.258
46583W        W 5679  33.592  22.678  12.021
46584W        W 5680  10.381  37.002  14.831
46585W        W 5681  30.537   8.243  11.109
46586W        W 5682  38.838   0.958   4.830
46587W        W 5683  30.954  35.561   4.271
46588W        W 5684  20.108  42.808   2.189
46589W        W 5685  40.333   4.337  11.885
46590W        W 5686  26.980  11.670   2.407
46591W        W 5687  10.790  19.241  12.435
46592W        W 5688   9.264  25.627   2.186
46593W        W 5689  35.380  33.091   2.347
46594W        W 5690  38.917   4.366  14.376
46595W        W 5691   2.307   1.242   1.827
46596W        W 5692   1.472  28.496  11.992
46597W        W 5693  40.898  37.987   3.750
46598W        W 5694  13.760   6.713  13.320
46599W        W 5695  36.585  21.754  13.427
46600W        W 5696  34.408  28.633   0.936
46601W        W 5697  32.564   0.274   1.405
46602W        W 5698   7.701  35.503   3.840
46603W        W 5699  11.736  16.675   3.667
46604W        W 5700  41.359  21.709   3.776
46605W        W 5701  30.115  15.603  11.099
46606W        W 5702  21.557   5.211  11.473
46607W        W 5703   0.273  34.079   3.228
46608W        W 5704  24.200   8.705  13.489
46609W        W 5705  37.910  43.977  11.407
46610W        W 5706   2.911  18.623   2.826
46611W        W 5707  40.995   8.824   4.646
46612W        W 5708  18.733  30.042   0.290
46613W        W 5709  15.706  34.405  14.336
46614W        W 5710  12.649  14.819  14.426
46615W        W 5711  19.095  21.081  12.520
46616W        W 5712  25.027  10.685   4.320
46617W        W 5713  33.988   5.743  13.874
46618W        W 5714  22.683  25.070   3.180
46619W        W 5715   4.381   1.445   0.272
46620W        W 5716  24.046   7.880   3.249
46621W        W 5717  43.779   6.196   0.940
46622W        W 5718  18.278  37.899  14.395
46623W        W 5719  39.861  28.002   2.784
46624W        W 5720  17.627   5.781   0.733
46625W        W 5721  26.703  12.175   1.856
46626W        W 5722  22.623  38.350  14.455
46627W        W 5723  11.259  41.989   4.777
46628W        W 5724  22.643   3.257   3.366
46629W        W 5725   2.372   2.411  14.949
46630W        W 5726  44.310  33.478  12.417
46631W        W 5727  30.627  13.113  10.464
46632W        W 5728  25.083  29.484   5.238
46633W        W 5729  44.456  29.504  13.914
46634W        W 5730  42.941   4.778  11.048
46635W        W 5731  14.195  44.778   0.806
46636W        W 5732  15.240  33.890  11.859
46637W        W 5733  13.792  24.992   2.352
46638W        W 5734   9.201  40.501   4.786
46639W        W 5735  40.316  17.751   2.896
46640W        W 5736  39.375  13.151  10.922
46641W        W 5737  30.950  29.572   4.734
46642W        W 5738   2.279  22.553  10.967
46643W        W 5739  44.432  23.498  14.419
46644W        W 5740  37.017  13.349   0.777
46645W        W 5741   0.867  19.158  13.495
46646W        W 5742   9.777  33.101  11.559
46647W        W 5743  44.481  13.145  13.398
46648W        W 5744  32.570  16.666   3.871
46649W        W 5745   1.923  15.675   3.296
46650W        W 5746   2.807  10.871   4.818
46651W        W 5747  14.681  31.489  11.934
46652W        W 5748  43.372  40.030   4.211
46653W        W 5749  39.377  13.630   3.638
46654W        W 5750   7.172  11.337   0.456
46655W        W 5751   8.281   6.411  12.529
46656W        W 5752  28.666  22.176  13.310
46657W        W 5753   7.239  20.741  14.326
46658W        W 5754  32.984  28.076  12.343
46659W        W 5755  11.150  16.256  12.448
46660W        W 5756  36.851   1.938   4.209
46661W        W 5757  30.513  17.679   3.152
46662W        W 5758  26.078  42.007  13.884
46663W        W 5759  35.379  21.528   1.698
46664W        W 5760   8.886  30.001  13.828
46665W        W 5761  34.541  34.917   3.215
46666W        W 5762  41.361  37.964  13.969
46667W        W 5763  17.239  31.084  13.483
46668W        W 5764  28.468  31.437  10.478
46669W        W 5765   6.787  15.193  14.880
46670W        W 5766  21.513  18.204  14.762
46671W        W 5767   6.807  43.897  10.426
46672W        W 5768  29.483  16.633  14.962
46673W        W 5769  18.129  22.536  11.055
46674W        W 5770  37.003  20.273   2.203
46675W        W 5771   4.215  21.546  13.848
46676W        W 5772   3.828  31.896  11.000
46677W        W 5773  35.045   5.409   4.654
46678W        W 5774   7.902  44.359  12.968
46679W        W 5775  30.594   1.358  11.417
46680W        W 5776  20.054  40.516   0.932
46681W        W 5777  21.213   5.847   4.329
46682W        W 5778  13.804  29.656   1.868
46683W        W 5779  44.396   6.428  10.427
46684W        W 5780  37.083   8.184   1.922
46685W        W 5781   2.818   8.708  10.992
46686W        W 5782  13.236   3.740  12.428
46687W        W 5783  43.843  20.274   1.390
46688W        W 5784  35.886   3.805  13.820
46689W        W 5785  31.990  16.275  14.456
46690W        W 5786   0.808   7.355   4.706
46691W        W 5787  27.996   8.375  11.018
46692W        W 5788   1.246   0.948  11.075
46693W        W 5789   7.398  37.016   3.736
46694W        W 5790   3.947  10.648  13.481
46695W        W 5791  39.524  15.140  14.470
46696W        W 5792   4.773  19.165   1.394
46697W        W 5793  36.577  23.505  14.961
46698W        W 5794  18.065   9.826   4.797
46699W        W 5795  38.437   9.770   2.392
46700W        W 5796   0.330  15.115  10.938
46701W        W 5797  25.677  20.756   1.729
46702W        W 5798  25.509  27.045  12.980
46703W        W 5799  27.983   8.877   1.879
46704W        W 5800   6.304  13.184  10.641
46705W        W 5801  37.999  19.260   2.208
46706W        W 5802  19.154  35.878   2.297
46707W        W 5803  34.408   4.209  13.878
46708W        W 5804  27.048  37.928  13.838
46709W        W 5805  26.140  25.105  11.566
46710W        W 5806  37.492   0.851  13.016
46711W        W 5807  18.274  12.742   3.833
46712W        W 5808  18.626   8.680   3.791
46713W        W 5809   6.834  18.179   3.285
46714W        W 5810  16.192  44.896  13.445
46715W        W 5811   7.761  32.098   3.827
46716W        W 5812  32.585  20.062   2.305
46717W        W 5813  39.475   8.203   0.409
46718W        W 5814  13.781  12.338   2.224
46719W        W 5815  13.320  43.297  10.600
46720W        W 5816  17.062  33.552   9.941
46721W        W 5817   9.692   4.811   0.746
46722W        W 5818  38.445  28.058   2.877
46723W        W 5819  38.963   5.269   0.250
46724W        W 5820  17.176  39.401   0.350
46725W        W 5821  24.165  41.823   3.839
46726W        W 5822   8.736  37.518   1.808
46727W        W 5823  29.082  43.865  14.791
46728W        W 5824  15.180  37.415   3.839
46729W        W 5825  16.137  18.697  11.582
46730W        W 5826  30.014   4.801   2.872
46731W        W 5827   9.351  17.187   2.847
46732W        W 5828  33.578  40.351  12.391
46733W        W 5829  33.004  32.529   4.162
46734W        W 5830  35.936  20.059   4.126
46735W        W 5831  34.013   2.234   4.313
46736W        W 5832  28.028  13.197   2.367
46737W        W 5833  28.541  42.931  14.326
46738W        W 5834  25.977  31.492   1.268
46739W        W 5835  44.757  38.055  12.564
46740W        W 5836  29.514   2.429   3.382
46741W        W 5837  13.105  34.063   1.732
46742W        W 5838  30.560  28.659  14.833
46743W        W 5839  18.571  24.494  14.972
46744W        W 5840   3.848  22.731   0.396
46745W        W 5841  25.489  37.993  14.765
46746W        W 5842  38.967  22.503  13.006
46747W        W 5843  22.693   6.694   2.869
46748W        W 5844  40.362  15.161   2.683
46749W        W 5845  29.463  27.520   4.761
46750W        W 5846  33.985  26.628   2.270
46751W        W 5847  28.487  42.395   0.373
46752W        W 5848  21.577  38.926   0.464
46753W        W 5849  24.482  14.202   4.636
46754W        W 5850  37.018  34.546   2.318
46755W        W 5851  13.676  25.998  10.979
46756W        W 5852   8.257  16.268   5.159
46757W        W 5853  42.813  21.211  10.558
46758W        W 5854  21.730  12.335   3.632
46759W        W 5855  12.216  43.320   0.918
46760W        W 5856  26.500  36.882   0.267
46761W        W 5857  22.656  10.648  14.919
46762W        W 5858   7.778   4.822   5.241
46763W        W 5859  20.129  27.617   3.288
46764W        W 5860  10.343  13.198  12.867
46765W        W 5861  21.552  42.009  10.982
46766W        W 5862  43.362  10.210   0.346
46767W        W 5863  43.962   6.898  12.494
46768W        W 5864  44.389  13.707   2.184
46769W        W 5865  35.378  21.232  14.782
46770W        W 5866   5.284  39.500  14.919
46771W        W 5867  14.816  39.546  12.903
46772W        W 5868  18.281  35.386  14.895
46773W        W 5869  31.009  36.954  13.045
46774W        W 5870  25.124  35.938  12.397
46775W        W 5871  39.871  26.989   2.367
46776W        W 5872  30.070   2.465   2.365
46777W        W 5873  31.475   8.799   3.352
46778W        W 5874   0.310   0.276   4.345
46779W        W 5875   0.390  29.003   0.742
46780W        W 5876  24.678  28.120  12.960
46781W        W 5877  14.199  41.301   2.730
46782W        W 5878   4.847  14.285  14.463
46783W        W 5879  44.848   9.857   3.863
46784W        W 5880  35.407  42.495  13.467
46785W        W 5881  41.394   3.755  11.500
46786W        W 5882  30.111  14.676  11.076
46787W        W 5883  15.703  14.807  10.491
46788W        W 5884  14.275  34.104   1.320
46789W        W 5885   9.324   1.425  13.833
46790W        W 5886  30.457  24.072   5.750
46791W        W 5887  21.555   2.840   0.842
46792W        W 5888  19.233  27.964   1.821
46793W        W 5889  20.156  24.060  12.984
46794W        W 5890   5.252  26.962  13.945
46795W        W 5891  26.077  27.660   1.850
46796W        W 5892  27.194  17.087   0.428
46797W        W 5893   8.871  15.169   0.331
46798W        W 5894  29.999  16.140   4.310
46799W        W 5895  30.620  42.809   1.422
46800W        W 5896   2.838  35.024   1.231
46801W        W 5897  31.910  26.156  14.028
46802W        W 5898  38.467  44.772   2.251
46803W        W 5899  40.943   4.849   0.380
46804W        W 5900   0.310   0.317  11.127
46805W        W 5901  31.947  17.165  14.429
46806W        W 5902   5.759  43.311   0.957
46807W        W 5903   4.919  17.149   0.377
46808W        W 5904  35.087  12.807  12.020
46809W        W 5905  32.991   5.917   1.210
46810W        W 5906  33.429   7.734   4.651
46811W        W 5907  35.469  15.093  11.884
46812W        W 5908  34.957  40.323   0.399
46813W        W 5909   7.828  28.479   3.234
46814W        W 5910  34.090  42.493   0.867
46815W        W 5911  34.589   9.693  10.908
46816W        W 5912  41.040  23.569   4.300
46817W        W 5913  24.203  31.051  14.349
46818W        W 5914   6.753  19.668   0.762
46819W        W 5915  28.632  15.186   1.244
46820W        W 5916  39.337  15.195  10.508
46821W        W 5917  14.820  17.234   3.178
46822W        W 5918   5.424   2.729  12.876
46823W        W 5919  24.073  23.637   4.768
46824W        W 5920   7.842  20.097   4.675
46825W        W 5921  14.196   7.210  11.407
46826W        W 5922  16.072  18.789   1.737
46827W        W 5923  40.810  43.972  12.912
46828W        W 5924  41.319   2.330   3.767
46829W        W 5925  41.001   6.905   4.168
46830W        W 5926  43.902  39.410   0.333
46831W        W 5927  12.246  24.181   4.215
46832W        W 5928  21.218  30.488   3.865
46833W        W 5929  11.324  13.713  14.330
46834W        W 5930  39.906   8.329  11.109
46835W        W 5931   7.220   3.743  14.508
46836W        W 5932   2.233  23.661  14.885
46837W        W 5933   1.941  30.009   2.384
46838W        W 5934  26.645   6.850  11.098
46839W        W 5935  12.780  20.252  11.101
46840W        W 5936  15.786  37.356   3.196
46841W        W 5937  33.580   3.264  14.362
46842W        W 5938  23.546  36.458  10.456
46843W        W 5939   5.906  12.350  12.835
46844W        W 5940   8.220  30.914  13.833
46845W        W 5941  27.455  17.101   0.251
46846W        W 5942  24.171  36.889  10.947
46847W        W 5943  40.514  37.889  13.028
46848W        W 5944  22.728  13.158   4.354
46849W        W 5945  27.553   7.727  14.007
46850W        W 5946   0.900  32.494  12.442
46851W        W 5947  18.209   6.342  10.947
46852W        W 5948  14.652  36.944  14.328
46853W        W 5949  33.483  24.658   2.693
46854W        W 5950   6.290  22.651  12.460
46855W        W 5951  10.140  29.559  14.333
46856W        W 5952  21.140  43.328   0.398
46857W        W 5953  44.778  10.295   3.201
46858W        W 5954  32.626   2.407  10.412
46859W        W 5955   3.449   5.393  12.966
46860W        W 5956  12.720  33.946   0.464
46861W        W 5957  25.566  26.993  11.451
46862W        W 5958   3.750  13.304  10.572
46863W        W 5959  17.071  33.448  13.821
46864W        W 5960  27.657   5.317  14.412
46865W        W 5961  14.207  13.834   4.320
46866W        W 5962   5.318   8.298  11.533
46867W        W 5963   4.316  21.101  12.568
46868W        W 5964  32.124  20.256   3.159
46869W        W 5965  36.841  26.960  13.544
46870W        W 5966  31.628  27.981  14.992
46871W        W 5967  44.479  39.501  10.575
46872W        W 5968   1.255  44.917  14.836
46873W        W 5969   0.911   3.355  14.289
46874W        W 5970  30.120  37.964   3.805
46875W        W 5971  38.966  28.570   4.276
46876W        W 5972  21.180  15.299  12.459
46877W        W 5973  16.265   9.825   4.343
46878W        W 5974   2.406  31.046   0.292
46879W        W 5975  22.732  16.759   4.716
46880W        W 5976  44.788   5.823   3.788
46881W        W 5977   0.974  11.226   2.291
46882W        W 5978  16.711  22.066  14.762
46883W        W 5979  15.297  31.592  12.351
46884W        W 5980   6.378   1.317  12.510
46885W        W 5981  33.897   9.330   0.433
46886W        W 5982  22.697   9.192   2.748
46887W        W 5983   7.907  13.842  13.498
46888W        W 5984  29.453  22.615   4.739
46889W        W 5985  41.381  34.455  14.776
46890W        W 5986  39.993  25.555  10.984
46891W        W 5987  34.898  34.407  13.046
46892W        W 5988  18.645   3.388  12.432
46893W        W 5989  29.158  29.459   1.337
46894W        W 5990   4.717  23.648  10.514
46895W        W 5991  20.681  23.576   2.679
46896W        W 5992   5.430  10.734  12.019
46897W        W 5993  15.615   1.832  12.554
46898W        W 5994  41.432  34.555  10.950
46899W        W 5995  11.652  10.828  13.827
46900W        W 5996  27.519  41.032   0.394
46901W        W 5997  36.590  44.286  10.143
46902W        W 5998   2.778  31.896  14.300
46903W        W 5999   8.721  14.107   0.782
46904W        W 6000   0.850  29.926   1.853
46905W        W 6001  31.466  40.426  11.458
46906W        W 6002  43.506  14.299  14.784
46907W        W 6003  11.751   9.252  14.323
46908W        W 6004   4.937  22.581   2.749
46909W        W 6005   0.948   5.371   3.363
46910W        W 6006  23.690  29.945   3.733
46911W        W 6007  24.170  39.355   4.678
46912W        W 6008  43.280  28.512  13.986
46913W        W 6009  29.155   3.325   3.701
46914W        W 6010   0.325  19.073   4.698
46915W        W 6011   5.314  28.015  10.497
46916W        W 6012  44.852  29.565  14.897
46917W        W 6013   7.756   3.264  11.385
46918W        W 6014  18.658  33.917   1.827
46919W        W 6015   3.886  35.984   2.347
46920W        W 6016  38.507   2.941   1.255
46921W        W 6017  29.450  39.313   0.826
46922W        W 6018   4.779  24.641   1.751
46923W        W 6019   3.406  16.097   1.708
46924W        W 6020  39.836   2.290   1.316
46925W        W 6021  43.944  38.895  11.036
46926W        W 6022  35.386  34.934  14.315
46927W        W 6023  14.603  40.394  12.528
46928W        W 6024  32.589  10.877   1.358
46929W        W 6025  31.643  19.186  11.555
46930W        W 6026  10.281   8.753   1.233
46931W        W 6027  10.862  19.152  11.594
46932W        W 6028  42.826  21.254   0.363
46933W        W 6029  30.966  21.246  13.970
46934W        W 6030  18.602  30.523  10.425
46935W        W 6031  32.987  38.463  12.008
46936W        W 6032  34.457  44.402  13.996
46937W        W 6033  18.581   3.452   2.723
46938W        W 6034  17.585   5.755   2.341
46939W        W 6035  30.523  35.540  12.353
46940W        W 6036  17.663   9.312  14.892
46941W        W 6037  41.940  25.140   0.314
46942W        W 6038  25.672  32.935   2.335
46943W        W 6039  34.992  21.068   3.192
46944W        W 6040  29.608   7.683  14.895
46945W        W 6041  14.710  24.059   0.773
46946W        W 6042  36.014  33.907   4.258
46947W        W 6043  31.940   7.265   2.902
46948W        W 6044  26.551  34.519  11.107
46949W        W 6045   9.818   9.811  12.017
46950W        W 6046  21.129  16.082   2.412
46951W        W 6047  37.530   6.885  12.059
46952W        W 6048  41.319   5.308  13.811
46953W        W 6049  26.982  31.925  14.785
46954W        W 6050  24.537  10.644   3.330
46955W        W 6051  27.499  19.159   1.405
46956W        W 6052  39.387  21.165   3.709
46957W        W 6053  34.389  18.145  13.032
46958W        W 6054   3.349   4.778   1.867
46959W        W 6055   4.378  29.642   2.768
46960W        W 6056  22.725  44.376  12.888
46961W        W 6057  16.671  18.578   0.753
46962W        W 6058  40.043  18.746  12.540
46963W        W 6059  36.005   9.272  11.902
46964W        W 6060  34.094  15.735  12.571
46965W        W 6061  21.109   4.770  10.638
46966W        W 6062  26.590  18.721  12.509
46967W        W 6063  20.746   6.269  13.025
46968W        W 6064  25.629   0.918  10.115
46969W        W 6065  42.453  22.716  13.937
46970W        W 6066   4.778  28.617  10.929
46971W        W 6067  42.794  44.469   1.836
46972W        W 6068  24.684  27.474  12.848
46973W        W 6069  12.662  35.558  13.823
46974W        W 6070  33.975  23.160   9.974
46975W        W 6071  27.077   9.313  11.097
46976W        W 6072  26.572  13.325   0.302
46977W        W 6073   6.285  11.661  12.382
46978W        W 6074  10.791   1.744   4.601
46979W        W 6075  12.647  19.685   1.797
46980W        W 6076  28.124  22.720   0.434
46981W        W 6077   2.848  38.494   2.707
46982W        W 6078   2.330  21.133  12.463
46983W        W 6079  22.510  15.752  13.463
46984W        W 6080  20.660  14.275  12.957
46985W        W 6081  19.252  27.989  13.941
46986W        W 6082  12.220  39.974  12.076
46987W        W 6083  28.651  43.924   2.866
46988W        W 6084  20.621   3.748  13.346
46989W        W 6085  30.096  29.644   0.960
46990W        W 6086  19.557  27.990   0.834
46991W        W 6087  33.392   6.362   4.339
46992W        W 6088  16.771   4.885  12.470
46993W        W 6089  25.527  32.445  10.453
46994W        W 6090  21.709   2.887  13.805
46995W        W 6091  31.099  43.878  14.480
46996W        W 6092  25.028  39.026  14.467
46997W        W 6093  10.298  36.519  10.605
46998W        W 6094  22.018  15.178  13.504
46999W        W 6095  38.376  18.255  10.901
47000W        W 6096  22.604  40.409   3.803
47001W        W 6097  39.869   4.372   3.677
47002W        W 6098  37.917  41.441  12.040
47003W        W 6099  17.699  12.140  14.953
47004W        W 6100  28.173   7.255  14.332
47005W        W 6101  24.661   3.922   4.250
47006W        W 6102   5.765  13.658  13.049
47007W        W 6103  20.036  13.671  13.516
47008W        W 6104   6.326  25.552   4.126
47009W        W 6105   7.386   9.165  12.468
47010W        W 6106  41.964  27.644  14.808
47011W        W 6107  18.099  14.611  14.974
47012W        W 6108  37.365  43.448   3.155
47013W        W 6109  11.759  10.305   1.836
47014W        W 6110  35.926   7.365  13.870
47015W        W 6111   9.791  34.103   3.852
47016W        W 6112  20.173  43.987   2.327
47017W        W 6113   4.747   9.334   3.146
47018W        W 6114   2.768  30.965  10.489
47019W        W 6115   1.764  43.871  11.490
47020W        W 6116  11.669  40.951   0.443
47021W        W 6117  25.089   5.751  13.053
47022W        W 6118  15.719   0.870  11.601
47023W        W 6119  20.035  37.461  10.084
47024W        W 6120  35.503  12.618   2.307
47025W        W 6121  18.292  40.888   1.903
47026W        W 6122  18.601  40.510   1.278
47027W        W 6123  43.350  31.406   3.734
47028W        W 6124  11.149  31.973   0.829
47029W        W 6125  41.862  27.031  10.981
47030W        W 6126   1.311  36.490   0.893
47031W        W 6127  11.858   0.437   0.318
47032W        W 6128  44.758   6.706  10.485
47033W        W 6129  19.596  10.730   2.750
47034W        W 6130  24.169  22.124  14.784
47035W        W 6131  21.093   1.401  12.874
47036W        W 6132  16.778  41.372   0.821
47037W        W 6133   5.275  33.443   3.239
47038W        W 6134  15.170   7.899   0.788
47039W        W 6135   4.444  28.615   3.857
47040W        W 6136  18.244   5.413   0.753
47041W        W 6137   2.463  42.924  13.513
47042W        W 6138  36.454   4.748   4.273
47043W        W 6139  20.084  44.462   3.164
47044W        W 6140   6.879  30.966   4.803
47045W        W 6141  42.334  43.019  12.487
47046W        W 6142   3.900  12.695   5.274
47047W        W 6143  10.165  10.748  10.418
47048W        W 6144   5.273   6.795   4.305
47049W        W 6145   3.876  21.567  12.916
47050W        W 6146   8.901   9.346   2.859
47051W        W 6147   7.800  25.019  14.892
47052W        W 6148  43.412   0.880  13.502
47053W        W 6149  25.161  39.372  13.889
47054W        W 6150  28.043  37.570  14.029
47055W        W 6151  26.538   1.776  10.117
47056W        W 6152  30.459   1.260  10.415
47057W        W 6153  29.666  37.081   4.793
47058W        W 6154  13.606  37.971   1.804
47059W        W 6155   1.956  16.114   4.224
47060W        W 6156  38.930  14.655   1.935
47061W        W 6157   0.264   9.206   1.343
47062W        W 6158  25.972  29.132   1.859
47063W        W 6159   4.717   0.833  10.890
47064W        W 6160   1.794  20.694   1.732
47065W        W 6161  26.981  35.899   4.223
47066W        W 6162  19.671  11.831   3.181
47067W        W 6163  43.421  28.615  13.321
47068W        W 6164   8.817  40.976   2.683
47069W        W 6165  44.321  44.843  12.344
47070W        W 6166  21.672  24.037   1.262
47071W        W 6167  19.184   4.943   0.956
47072W        W 6168   8.369  17.167  11.916
47073W        W 6169  20.573   5.257   4.268
47074W        W 6170  24.497  36.348   4.347
47075W        W 6171  25.629  36.587  13.442
47076W        W 6172   2.888  11.855   2.791
47077W        W 6173  14.731  27.689   4.248
47078W        W 6174  38.862  37.420   4.185
47079W        W 6175  14.789  24.175   1.916
47080W        W 6176   1.344  30.432  13.811
47081W        W 6177  44.404   9.364  13.981
47082W        W 6178   7.350  37.004  14.996
47083W        W 6179  37.039  35.413  13.362
47084W        W 6180  22.566  26.956  13.869
47085W        W 6181  41.938  17.105   4.209
47086W        W 6182  22.198  39.531   0.482
47087W        W 6183  33.004  11.193   1.450
47088W        W 6184  26.013  44.882  12.442
47089W        W 6185  33.952  15.711  11.444
47090W        W 6186  20.067  20.055  14.351
47091W        W 6187   7.173   1.471  13.899
47092W        W 6188  35.544  34.508   4.637
47093W        W 6189  22.692  40.025  13.009
47094W        W 6190  15.812  23.535   2.235
47095W        W 6191  30.434  40.508  14.464
47096W        W 6192  12.166  40.928   3.334
47097W        W 6193  12.824  19.078   1.401
47098W        W 6194   4.324   1.424  11.418
47099W        W 6195  27.049  11.855   0.890
47100W        W 6196   4.918  37.444   5.163
47101W        W 6197  27.144  10.764  14.859
47102W        W 6198   7.738  22.178   3.830
47103W        W 6199  40.948  34.924  13.514
47104W        W 6200   8.704  30.078  13.441
47105W        W 6201   4.347  16.223   4.350
47106W        W 6202  16.651  43.350  11.883
47107W        W 6203  22.067  44.394   2.699
47108W        W 6204  15.618  33.487  14.940
47109W        W 6205   9.341  22.027   1.358
47110W        W 6206  17.671   2.883   4.677
47111W        W 6207  11.300  24.109   0.295
47112W        W 6208   9.253  14.335  12.926
47113W        W 6209  11.200  24.190   3.676
47114W        W 6210   6.344  31.993  11.948
47115W        W 6211  36.082  28.569   1.345
47116W        W 6212  14.810  43.306  11.431
47117W        W 6213  28.943  11.634  13.449
47118W        W 6214  20.164  28.514  14.379
47119W        W 6215   5.214  15.714  12.903
47120W        W 6216  35.454  15.738   4.127
47121W        W 6217  17.572   2.431   1.921
47122W        W 6218  30.549  34.455   9.451
47123W        W 6219  42.855  28.621  12.347
47124W        W 6220  16.612  22.134  14.290
47125W        W 6221  30.013  18.164  13.887
47126W        W 6222  42.451  29.536   2.748
47127W        W 6223  23.661  13.819  12.961
47128W        W 6224  44.290  32.028  13.856
47129W        W 6225  41.825   2.914   3.685
47130W        W 6226  12.237  34.504   0.775
47131W        W 6227  10.365  35.053   4.674
47132W        W 6228  25.611   4.877  10.579
47133W        W 6229  11.845   0.977  14.025
47134W        W 6230   0.254  31.979   4.623
47135W        W 6231  37.438  12.122   0.789
47136W        W 6232  37.942  32.539   3.747
47137W        W 6233  16.293  11.222   4.672
47138W        W 6234   4.866  26.172  14.952
47139W        W 6235  41.895  40.465   2.763
47140W        W 6236   3.771  42.858   1.793
47141W        W 6237   6.347  21.572   3.781
47142W        W 6238  43.915   3.830   1.850
47143W        W 6239  21.253  36.069  12.377
47144W        W 6240  24.228  42.290   3.848
47145W        W 6241  13.205  36.995   1.308
47146W        W 6242  15.153  41.452  12.414
47147W        W 6243  44.782  44.808  10.464
47148W        W 6244  19.612  24.180  14.866
47149W        W 6245  25.513   3.848  14.935
47150W        W 6246  20.583  18.681   2.840
47151W        W 6247  32.068  32.086  12.514
47152W        W 6248   2.459  21.552   4.284
47153W        W 6249  23.062  28.520   1.445
47154W        W 6250  42.514   7.356   0.471
47155W        W 6251  35.021   5.910  11.942
47156W        W 6252  44.483   7.311  13.503
47157W        W 6253  35.601  37.072   4.770
47158W        W 6254  31.589  35.524  11.009
47159W        W 6255  27.691   9.300   0.309
47160W        W 6256   6.379  29.168   1.302
47161W        W 6257  35.458   6.777   1.894
47162W        W 6258  12.340  42.026   2.768
47163W        W 6259   6.308  43.482  11.380
47164W        W 6260  21.149  40.859   4.181
47165W        W 6261  40.306  12.294  10.957
47166W        W 6262   0.852  31.129   2.302
47167W        W 6263  38.065   1.743  12.388
47168W        W 6264  33.443  26.105   4.332
47169W        W 6265  14.128  44.901  11.432
47170W        W 6266  41.867  37.581   4.186
47171W        W 6267  31.915  40.513  11.117
47172W        W 6268  14.123   4.779  14.962
47173W        W 6269  42.354  33.553  12.089
47174W        W 6270  30.963   7.695  12.560
47175W        W 6271  35.359  24.166   4.188
47176W        W 6272  33.384  21.083   2.190
47177W        W 6273   0.434   6.762   0.735
47178W        W 6274  34.033  21.255  12.055
47179W        W 6275  31.413  19.567   5.238
47180W        W 6276  32.433  16.179   2.886
47181W        W 6277  13.116  12.805   3.259
47182W        W 6278  41.814  35.459   2.393
47183W        W 6279  12.771  32.945   3.368
47184W        W 6280  32.559   4.907   3.801
47185W        W 6281  37.874  31.983   4.694
47186W        W 6282   4.407  41.884  11.595
47187W        W 6283  16.689   3.393   1.225
47188W        W 6284   1.438  31.903   2.773
47189W        W 6285  36.098   4.272   2.334
47190W        W 6286  27.150   1.766  12.550
47191W        W 6287  19.689   0.254   3.680
47192W        W 6288  27.685  39.496   1.259
47193W        W 6289  33.025  21.034   4.790
47194W        W 6290  17.630  21.018   9.988
47195W        W 6291  12.178  23.533   3.180
47196W        W 6292  33.121  21.714  14.393
47197W        W 6293  35.603  32.497   1.846
47198W        W 6294  27.468   9.272   3.661
47199W        W 6295  39.854   3.460   1.273
47200W        W 6296  35.872  37.567   2.383
47201W        W 6297   7.818   0.762   1.352
47202W        W 6298   4.759  12.327  13.546
47203W        W 6299  30.155  34.979  14.778
47204W        W 6300   7.860  43.882   3.822
47205W        W 6301  12.643  41.469  12.407
47206W        W 6302  22.046  28.084  10.589
47207W        W 6303  30.465  19.701   3.803
47208W        W 6304   2.234   8.286   1.245
47209W        W 6305  16.278  21.156   4.674
47210W        W 6306  11.747  30.487   1.360
47211W        W 6307  31.479  21.612  13.482
47212W        W 6308   9.648  36.969  12.531
47213W        W 6309   6.241  32.465  12.527
47214W        W 6310  44.350  38.448  12.513
47215W        W 6311  20.204  16.772   0.940
47216W        W 6312  26.208   2.248  13.887
47217W        W 6313  44.348  19.639  13.376
47218W        W 6314  43.485  10.166   3.810
47219W        W 6315  42.363  11.261   4.277
47220W        W 6316   6.884  10.840   2.788
47221W        W 6317  26.667  29.175   4.224
47222W        W 6318  36.052  23.018  13.428
47223W        W 6319  43.881  40.547  10.564
47224W        W 6320  35.396  29.145   4.617
47225W        W 6321  17.660  37.076   3.826
47226W        W 6322   1.264  24.537   2.412
47227W        W 6323   1.823  18.779   4.752
47228W        W 6324  31.631  20.604  11.403
47229W        W 6325  16.312  40.464   2.843
47230W        W 6326  27.661   5.834   2.811
47231W        W 6327  44.951  39.521   3.735
47232W        W 6328   3.405   7.767  11.495
47233W        W 6329   1.305  29.110   4.204
47234W        W 6330  43.471  14.826  10.921
47235W        W 6331  15.155  16.289   4.163
47236W        W 6332  41.019  27.582   2.836
47237W        W 6333  44.297  18.621  12.426
47238W        W 6334  44.295  37.510  10.012
47239W        W 6335  19.140   1.765   2.879
47240W        W 6336  23.715  35.446   4.347
47241W        W 6337  21.091   3.951   4.194
47242W        W 6338  20.072   8.849  12.892
47243W        W 6339  23.583  43.825  14.002
47244W        W 6340  30.000  24.993   2.382
47245W        W 6341  14.629  25.100   0.449
47246W        W 6342  43.976  35.375   2.371
47247W        W 6343  24.156   8.749  14.817
47248W        W 6344  15.320   0.781  14.989
47249W        W 6345  30.415  32.923   1.439
47250W        W 6346  23.562  44.353  11.127
47251W        W 6347  29.058  36.952   3.173
47252W        W 6348  38.483   4.852   4.679
47253W        W 6349  32.069  38.999  14.508
47254W        W 6350  17.597  30.575   1.441
47255W        W 6351   8.732  34.442  12.980
47256W        W 6352  10.851  14.257  12.911
47257W        W 6353  15.684  24.005  13.466
47258W        W 6354  10.308  20.082  10.495
47259W        W 6355   4.839  25.994   4.641
47260W        W 6356   7.716   6.791  12.914
47261W        W 6357  41.019  39.393  11.552
47262W        W 6358  17.068  15.295  10.410
47263W        W 6359  44.821  27.535  10.615
47264W        W 6360  29.569  24.146   1.283
47265W        W 6361  28.524  32.136  13.512
47266W        W 6362  29.574  39.827  10.631
47267W        W 6363  23.138  18.278  12.544
47268W        W 6364  18.173  38.528  11.425
47269W        W 6365  13.326  41.804   3.816
47270W        W 6366  41.345  26.526  14.907
47271W        W 6367  41.959   7.860   2.224
47272W        W 6368  20.730  15.083   3.647
47273W        W 6369  27.553   3.761  12.856
47274W        W 6370  43.317  23.128   1.235
47275W        W 6371  21.200  43.815  11.960
47276W        W 6372  38.939  15.325   3.335
47277W        W 6373   8.280  33.621  14.872
47278W        W 6374  24.120  38.346   0.322
47279W        W 6375  41.803   6.776  10.459
47280W        W 6376  20.240   5.428  12.453
47281W        W 6377  27.447  41.960   0.739
47282W        W 6378  35.479  24.147   4.627
47283W        W 6379  10.181   1.952   0.344
47284W        W 6380  25.470  32.135   3.792
47285W        W 6381  13.628  12.658  14.985
47286W        W 6382  19.657  32.604  10.544
47287W        W 6383   0.961  16.789   4.343
47288W        W 6384  19.121  35.078  12.847
47289W        W 6385  41.508  38.458  13.400
47290W        W 6386  36.388  16.194   2.307
47291W        W 6387  19.745  17.266   1.916
47292W        W 6388  26.979   0.337   3.170
47293W        W 6389  28.507  13.832  11.502
47294W        W 6390  31.507  41.926   2.392
47295W        W 6391  37.029  17.707   1.760
47296W        W 6392   1.437  29.532  12.835
47297W        W 6393  26.464  20.217  12.544
47298W        W 6394  22.128  32.491   0.327
47299W        W 6395  39.823   8.237  13.020
47300W        W 6396   9.688   8.796   1.879
47301W        W 6397  35.075   3.318  12.055
47302W        W 6398  25.098  16.716   0.478
47303W        W 6399   1.432   2.966  10.582
47304W        W 6400  42.970  11.352  11.009
47305W        W 6401  24.564  34.445   3.769
47306W        W 6402   2.383  24.032  11.422
47307W        W 6403  41.825  44.346   3.644
47308W        W 6404  26.509  22.550   3.714
47309W        W 6405  42.328  23.162  10.599
47310W        W 6406  14.107  38.935   2.748
47311W        W 6407  39.054  29.635   4.251
47312W        W 6408   6.290  27.567   2.793
47313W        W 6409  15.107  14.819  13.937
47314W        W 6410   7.665   2.349  10.487
47315W        W 6411  11.177   0.248  10.634
47316W        W 6412  35.377  20.556   0.337
47317W        W 6413  26.539   9.180  11.410
47318W        W 6414   3.837  37.425  10.088
47319W        W 6415  19.216  19.664   3.692
47320W        W 6416   6.395   6.917  14.467
47321W        W 6417  38.441  33.578   2.200
47322W        W 6418  30.416   2.928   4.117
47323W        W 6419  17.142  41.390  11.579
47324W        W 6420  30.518  26.485  12.919
47325W        W 6421  26.534   4.308  13.036
47326W        W 6422  14.789  34.416  11.471
47327W        W 6423  22.603  40.508  11.454
47328W        W 6424  32.452  32.441   0.277
47329W        W 6425   2.443  18.755  12.892
47330W        W 6426  26.514  39.856   3.716
47331W        W 6427  18.148  15.255  12.340
47332W        W 6428  18.152  22.502   3.856
47333W        W 6429  41.477  38.448  14.275
47334W        W 6430  42.903  13.167   5.159
47335W        W 6431  35.559  20.741  11.079
47336W        W 6432  28.615  12.720  11.039
47337W        W 6433  11.765  37.865  12.921
47338W        W 6434  10.742  18.618  13.914
47339W        W 6435  19.285  31.031   4.148
47340W        W 6436   4.268  19.553  14.417
47341W        W 6437  18.597  31.454   3.714
47342W        W 6438  38.946  22.720  12.416
47343W        W 6439  43.881  22.565   4.730
47344W        W 6440  29.942  34.535  14.957
47345W        W 6441  10.657  22.527  14.411
47346W        W 6442   6.746  37.906  12.875
47347W        W 6443  13.181  28.624  13.476
47348W        W 6444  30.954  42.919   4.665
47349W        W 6445   5.353  30.567  11.033
47350W        W 6446   7.296  33.454  10.454
47351W        W 6447  32.109   3.307  11.103
47352W        W 6448  42.433  43.424   0.892
47353W        W 6449  14.784   9.808  14.028
47354W        W 6450  44.471  31.964   2.337
47355W        W 6451   4.393  20.174  14.839
47356W        W 6452   9.192  14.268  12.444
47357W        W 6453  17.623  17.771   4.820
47358W        W 6454   9.178  29.482  10.994
47359W        W 6455  23.504  12.120   2.261
47360W        W 6456   2.408  14.155   0.434
47361W        W 6457  17.073   5.343   2.258
47362W        W 6458  32.418   7.695   0.245
47363W        W 6459  42.875  14.339  10.569
47364W        W 6460  29.431  37.970   0.910
47365W        W 6461  17.159  30.547  14.282
47366W        W 6462  36.458  32.141  13.505
47367W        W 6463   1.477  19.706  11.394
47368W        W 6464  13.764  11.252  13.827
47369W        W 6465  41.816  41.031  11.428
47370W        W 6466  44.440  41.862  10.551
47371W        W 6467   0.431  18.228  11.869
47372W        W 6468   2.331  33.561  11.412
47373W        W 6469  43.957  31.994  14.285
47374W        W 6470  25.185   6.222   1.737
47375W        W 6471  19.096  32.003   0.436
47376W        W 6472  27.595  25.997  12.454
47377W        W 6473   3.274  17.234  13.445
47378W        W 6474   3.820  25.504  11.528
47379W        W 6475  13.273  27.176  12.473
47380W        W 6476  24.675  41.424   2.262
47381W        W 6477  29.613   9.182   2.744
47382W        W 6478  38.862  13.245  11.373
47383W        W 6479   9.716  32.037  10.088
47384W        W 6480  20.046   4.784  14.919
47385W        W 6481  16.319  35.946   2.683
47386W        W 6482  20.708  31.108  11.978
47387W        W 6483  35.959  32.610   3.273
47388W        W 6484  43.811  31.453  14.293
47389W        W 6485  20.237  22.187  14.477
47390W        W 6486  25.476  10.825   2.884
47391W        W 6487  38.015  42.903  12.880
47392W        W 6488  38.520  14.205  14.827
47393W        W 6489  30.494  15.139   0.784
47394W        W 6490   8.168  27.529  12.896
47395W        W 6491  36.948  21.676  12.090
47396W        W 6492  22.569  11.793  14.830
47397W        W 6493  29.450  43.490  11.505
47398W        W 6494  18.126  29.068  11.048
47399W        W 6495  12.265  29.936  14.365
47400W        W 6496  41.306  31.475   2.850
47401W        W 6497  19.258  34.552  13.388
47402W        W 6498  24.664  28.129  14.998
47403W        W 6499  36.982  11.277   1.353
47404W        W 6500  17.132  34.575   3.323
47405W        W 6501  37.087  14.176  11.400
47406W        W 6502  31.971  17.290  11.480
47407W        W 6503  35.985   5.705  14.012
47408W        W 6504  19.649   7.204   2.295
47409W        W 6505  32.074  34.972   3.826
47410W        W 6506  29.626  39.547  10.410
47411W        W 6507   6.283  36.467  13.930
47412W        W 6508  36.440  27.622  14.288
47413W        W 6509  29.149  34.076   4.647
47414W        W 6510  18.228  27.035   4.604
47415W        W 6511  39.407  30.080   3.813
47416W        W 6512   9.180  23.680  14.404
47417W        W 6513  33.435   8.307   0.290
47418W        W 6514   1.291  32.628  10.953
47419W        W 6515  39.994  34.550  10.493
47420W        W 6516  31.930  18.282   0.347
47421W        W 6517  13.800  30.646   1.846
47422W        W 6518  32.979  41.340  12.532
47423W        W 6519  25.635  43.479  13.924
47424W        W 6520  27.595  10.282   1.912
47425W        W 6521  21.693  36.387   4.690
47426W        W 6522  31.629  34.434  14.951
47427W        W 6523  42.886  18.559   2.709
47428W        W 6524  19.157   8.698   1.890
47429W        W 6525  40.866  27.949   3.687
47430W        W 6526  15.268  22.024  12.449
47431W        W 6527   8.672  29.460  10.888
47432W        W 6528  19.624  10.677  13.314
47433W        W 6529  33.524  16.272  12.536
47434W        W 6530   3.864  16.739   4.143
47435W        W 6531  14.756  44.362  13.401
47436W        W 6532  39.013  36.354   0.881
47437W        W 6533  26.580  37.058   2.719
47438W        W 6534  30.003  11.373  13.864
47439W        W 6535  29.528  21.225   2.255
47440W        W 6536  22.539   8.664  13.792
47441W        W 6537  23.560  21.569   1.798
47442W        W 6538  17.582  15.650   4.232
47443W        W 6539   5.799  11.728  11.888
47444W        W 6540  12.240   7.276   3.347
47445W        W 6541  43.347  12.686  12.343
47446W        W 6542  36.502  43.804   4.736
47447W        W 6543   9.237  12.269   1.790
47448W        W 6544  25.143  21.559   2.869
47449W        W 6545  32.110   4.880   1.414
47450W        W 6546  19.106   6.879  10.997
47451W        W 6547  42.792  16.143  14.396
47452W        W 6548  12.795  25.152  11.542
47453W        W 6549  40.424  10.781   2.773
47454W        W 6550  35.922  29.437   5.243
47455W        W 6551  39.455  21.048  10.938
47456W        W 6552  25.596  11.205  12.999
47457W        W 6553  29.092  44.874   2.795
47458W        W 6554  17.137  10.833   2.768
47459W        W 6555  11.713  39.808  14.869
47460W        W 6556   5.214  11.239   4.260
47461W        W 6557  19.564   3.944  14.340
47462W        W 6558  35.089  19.758  12.444
47463W        W 6559   6.753  27.177   0.941
47464W        W 6560  37.457  33.469  14.420
47465W        W 6561   8.317  35.000   3.174
47466W        W 6562   5.886  14.118   2.219
47467W        W 6563  16.308   4.428   1.243
47468W        W 6564  35.002  33.073   2.403
47469W        W 6565  17.567  40.449  10.457
47470W        W 6566   3.847  19.550  12.572
47471W        W 6567   3.931   7.903  11.115
47472W        W 6568  42.402  12.247   2.246
47473W        W 6569  20.593   7.177  14.499
47474W        W 6570  31.607  35.561   0.745
47475W        W 6571  37.976   1.734   1.757
47476W        W 6572   4.873   5.394  10.427
47477W        W 6573  39.446  18.590   3.323
47478W        W 6574  14.592  32.045  11.054
47479W        W 6575  16.184  35.025   3.795
47480W        W 6576  23.010   3.221   1.239
47481W        W 6577  20.545   5.786   1.883
47482W        W 6578  15.743  42.413   0.881
47483W        W 6579  42.287   7.414   3.854
47484W        W 6580  19.163  38.510   2.695
47485W        W 6581  44.298  20.661  10.531
47486W        W 6582  36.922  43.355   2.271
47487W        W 6583  27.980  40.495   5.194
47488W        W 6584   6.383  10.851  14.341
47489W        W 6585   1.270  15.735  14.000
47490W        W 6586  16.596  42.343  12.494
47491W        W 6587  17.703  39.846   0.388
47492W        W 6588  24.985  11.737  14.856
47493W        W 6589  10.141  31.415  14.772
47494W        W 6590  27.535  15.324  10.506
47495W        W 6591  39.551  33.587   2.371
47496W        W 6592  22.534  21.516   3.204
47497W        W 6593  34.509  32.576  13.865
47498W        W 6594   5.860  36.520   3.174
47499W        W 6595   9.854  44.336  11.001
47500W        W 6596  32.015  27.487  11.047
47501W        W 6597  35.591  28.460  12.892
47502W        W 6598   5.256  21.700   5.148
47503W        W 6599  39.929  30.059  11.104
47504W        W 6600  14.157   3.413  12.524
47505W        W 6601  39.424  21.636  11.861
47506W        W 6602   1.774  11.727  11.057
47507W        W 6603  41.908  31.444   4.785
47508W        W 6604  39.454  23.717  11.461
47509W        W 6605  42.939  10.355   2.730
47510W        W 6606  10.240  26.493  11.013
47511W        W 6607  14.108  32.579   0.267
47512W        W 6608  26.127  34.995  14.286
47513W        W 6609   9.180  36.507  10.972
47514W        W 6610  42.793   6.788   0.247
47515W        W 6611  43.510  15.667   3.209
47516W        W 6612  28.584  44.830  12.874
47517W        W 6613  42.934  39.951   3.240
47518W        W 6614  21.609  15.320  13.926
47519W        W 6615  21.648  28.671  11.452
47520W        W 6616   3.861  40.996   4.662
47521W        W 6617  21.693   1.261  11.941
47522W        W 6618   3.346  35.080   3.209
47523W        W 6619  27.607   0.424  12.387
47524W        W 6620  39.414  35.027  11.388
47525W        W 6621  30.567   8.899  11.050
47526W        W 6622   7.669  17.733   0.250
47527W        W 6623  27.592  40.466  14.964
47528W        W 6624  35.099  43.476   1.839
47529W        W 6625   8.347  36.527   3.867
47530W        W 6626  38.325   0.364  11.448
47531W        W 6627  40.426  19.146   4.821
47532W        W 6628  11.246   4.433  14.941
47533W        W 6629   3.799  33.535   9.975
47534W        W 6630  30.163  37.531  14.422
47535W        W 6631  30.999   3.344   5.239
47536W        W 6632   2.299   7.870  10.920
47537W        W 6633   3.223  24.994   3.295
47538W        W 6634  11.863  44.983   2.212
47539W        W 6635  38.931  33.582   1.836
47540W        W 6636   4.408  31.467   2.265
47541W        W 6637  44.954  34.008  10.500
47542W        W 6638  11.284  12.700   1.280
47543W        W 6639  13.324  23.575  12.342
47544W        W 6640  34.592   6.378  11.043
47545W        W 6641  31.535  33.951   2.827
47546W        W 6642  18.185  31.535   2.751
47547W        W 6643  44.342  28.000  10.953
47548W        W 6644  27.665  13.255   0.812
47549W        W 6645  13.772  19.767   0.856
47550W        W 6646  34.538  12.313   4.756
47551W        W 6647  44.809  14.172   0.828
47552W        W 6648  22.545   1.279   0.275
47553W        W 6649  20.177  34.980  11.053
47554W        W 6650  14.641   8.280  11.378
47555W        W 6651  23.708   2.798   0.965
47556W        W 6652  42.401  16.193   1.728
47557W        W 6653  23.582  27.025   4.325
47558W        W 6654  10.664   2.423  12.832
47559W        W 6655  24.557  37.363   4.120
47560W        W 6656  39.525  25.628  11.603
47561W        W 6657  30.456  13.768  13.868
47562W        W 6658  11.621  40.374   4.825
47563W        W 6659  33.422  33.522  11.929
47564W        W 6660  35.060  16.726  12.021
47565W        W 6661  26.158  32.391   4.755
47566W        W 6662  12.844  22.587   1.295
47567W        W 6663  38.463  14.599  12.042
47568W        W 6664  40.981   1.763  11.040
47569W        W 6665   5.426  28.446   3.317
47570W        W 6666  38.385  33.951   4.179
47571W        W 6667  23.129  28.166  12.994
47572W        W 6668   0.753  10.173  12.907
47573W        W 6669  18.072  37.087   2.317
47574W        W 6670  22.722  31.544   1.799
47575W        W 6671  43.328   7.312   1.329
47576W        W 6672  11.655  36.572  12.347
47577W        W 6673   0.299  31.140   0.430
47578W        W 6674   6.186  14.233   4.702
47579W        W 6675  32.103   5.709   2.282
47580W        W 6676  28.664  14.733  13.937
47581W        W 6677  20.641  33.429  13.460
47582W        W 6678  43.431   8.175   4.282
47583W        W 6679  44.418   6.707  14.493
47584W        W 6680  44.761   3.275  13.438
47585W        W 6681  20.529  20.062   3.824
47586W        W 6682  29.586  25.562   3.644
47587W        W 6683  13.281  39.908   3.207
47588W        W 6684   5.424  28.143   3.356
47589W        W 6685  19.651  37.389  12.003
47590W        W 6686  34.507  22.740  15.000
47591W        W 6687  36.451  34.000  14.799
47592W        W 6688  17.086  35.507   1.313
47593W        W 6689  32.988   5.791  14.490
47594W        W 6690   9.254  21.535  14.510
47595W        W 6691  10.276  29.635   9.579
47596W        W 6692  34.400  25.201   0.800
47597W        W 6693  38.374  42.518  13.935
47598W        W 6694  40.809  34.542  11.045
47599W        W 6695  11.776  40.378   5.110
47600W        W 6696  26.687  25.122  14.451
47601W        W 6697  35.951   8.218  13.831
47602W        W 6698  19.552  12.757   3.862
47603W        W 6699  16.226  41.475  11.540
47604W        W 6700  36.905  11.336  13.491
47605W        W 6701  36.885  24.016  12.946
47606W        W 6702  34.510  29.949   1.361
47607W        W 6703   2.312  14.318  10.623
47608W        W 6704  13.338   7.898   1.396
47609W        W 6705  29.656  26.036  13.407
47610W        W 6706   5.717  44.978  10.919
47611W        W 6707   4.438  39.021   2.861
47612W        W 6708   0.259   4.737   3.217
47613W        W 6709   2.440  40.923  11.557
47614W        W 6710  11.775  17.556   4.632
47615W        W 6711  33.896  41.438  11.042
47616W        W 6712  32.969  40.512  12.503
47617W        W 6713  11.331  17.230   5.304
47618W        W 6714  43.383   5.739  14.926
47619W        W 6715   0.814  13.750   4.118
47620W        W 6716  12.332   4.397   1.408
47621W        W 6717   6.867  24.174  11.455
47622W        W 6718  15.678  41.294   0.416
47623W        W 6719  24.696  35.038   4.836
47624W        W 6720  26.509  41.905  12.479
47625W        W 6721  28.930   5.363  13.041
47626W        W 6722  31.097  36.869   5.266
47627W        W 6723  21.521  28.971   3.756
47628W        W 6724  12.178   1.402  14.381
47629W        W 6725  42.364  43.909  14.312
47630W        W 6726  31.987  35.980  12.896
47631W        W 6727  21.127   4.285  12.056
47632W        W 6728  33.552   6.257   0.260
47633W        W 6729   0.750  10.831  13.845
47634W        W 6730  21.030  36.466  12.866
47635W        W 6731  37.938  24.203  10.643
47636W        W 6732   7.410  33.603   3.782
47637W        W 6733  11.139  39.871   2.662
47638W        W 6734  30.059  29.099  11.469
47639W        W 6735  43.897  18.175   1.775
47640W        W 6736   5.870   9.317  12.050
47641W        W 6737  25.714  42.968   2.892
47642W        W 6738  15.640  40.351  12.082
47643W        W 6739  11.857  33.408   4.205
47644W        W 6740   0.351  17.622   1.212
47645W        W 6741  26.064  36.519   2.707
47646W        W 6742   4.224  34.394   1.297
47647W        W 6743   1.455   6.197  12.522
47648W        W 6744   2.776  31.930  13.974
47649W        W 6745  41.917  27.109   0.431
47650W        W 6746   3.955   4.206   1.717
47651W        W 6747  22.245  31.983  12.490
47652W        W 6748  24.542  16.725   1.725
47653W        W 6749   0.460  30.025  14.829
47654W        W 6750   8.693  16.112   2.778
47655W        W 6751  31.566  31.461  12.556
47656W        W 6752  40.528  41.841   1.752
47657W        W 6753   8.384   1.381  14.812
47658W        W 6754  34.047  35.045   0.732
47659W        W 6755  27.664  10.384   4.709
47660W        W 6756  17.748   1.794  13.812
47661W        W 6757  28.934  12.837   4.727
47662W        W 6758   8.667  42.825   3.158
47663W        W 6759  33.470  26.091   5.614
47664W        W 6760  14.632   1.892  11.917
47665W        W 6761  13.309  21.542   2.802
47666W        W 6762  25.211  14.791   1.878
47667W        W 6763   1.970  12.743  11.497
47668W        W 6764  40.391  29.442   2.832
47669W        W 6765   5.278  17.203  13.437
47670W        W 6766  28.497  43.822   0.278
47671W        W 6767  40.952  39.317  10.899
47672W        W 6768  44.322   0.258   2.312
47673W        W 6769   2.899   0.867   2.405
47674W        W 6770  36.384  19.614  12.421
47675W        W 6771  17.234  21.570  11.064
47676W        W 6772   1.748  23.232   2.778
47677W        W 6773  21.625  24.101   0.342
47678W        W 6774  14.785   7.206  14.762
47679W        W 6775  41.847  23.072   4.665
47680W        W 6776  30.549  28.095  14.937
47681W        W 6777  19.592  22.582  12.370
47682W        W 6778  16.265  38.492   3.153
47683W        W 6779  43.946  35.067  11.039
47684W        W 6780  34.557  15.647  12.538
47685W        W 6781  17.269  22.050   3.740
47686W        W 6782  18.600   0.252  12.457
47687W        W 6783  17.146  15.132   4.315
47688W        W 6784  37.077  18.724  10.613
47689W        W 6785  25.553  44.764   2.196
47690W        W 6786  40.318  33.085   4.181
47691W        W 6787  30.940   2.827   3.849
47692W        W 6788  20.154  38.915   2.289
47693W        W 6789   2.263  26.483   3.806
47694W        W 6790  38.920  23.712  12.079
47695W        W 6791  38.877  13.736   1.422
47696W        W 6792  39.369  21.552   2.676
47697W        W 6793  36.429  25.010  11.585
47698W        W 6794  27.086   1.397  13.974
47699W        W 6795  42.403  25.027  11.062
47700W        W 6796  22.202   1.332   0.792
47701W        W 6797  12.184  44.756  11.395
47702W        W 6798  21.547   0.432  11.057
47703W        W 6799  36.477   7.362   4.729
47704W        W 6800  40.383  24.024   1.767
47705W        W 6801  31.577  34.974   1.718
47706W        W 6802  34.999  31.968   4.319
47707W        W 6803  22.688  11.353   0.258
47708W        W 6804  18.701  41.457   2.668
47709W        W 6805  13.181  11.707   0.305
47710W        W 6806  11.734  11.282   3.827
47711W        W 6807  20.088  39.984  14.921
47712W        W 6808  21.245   8.377   2.400
47713W        W 6809  21.131  43.864  12.458
47714W        W 6810  15.162   2.762  11.874
47715W        W 6811  13.602  26.976   2.203
47716W        W 6812  42.968  26.493   4.682
47717W        W 6813  28.653  31.109  10.431
47718W        W 6814  14.139  16.703   2.897
47719W        W 6815  22.512  10.360  14.412
47720W        W 6816  29.047  36.545   1.369
47721W        W 6817  21.665  42.907  13.470
47722W        W 6818  43.886  16.570  11.857
47723W        W 6819  40.873  29.573   1.379
47724W        W 6820   4.736  14.724  12.996
47725W        W 6821   5.720  34.990   1.288
47726W        W 6822  10.347  20.193  14.903
47727W        W 6823  27.452  31.935   3.185
47728W        W 6824  43.321  42.953  10.889
47729W        W 6825  37.873  16.644   4.749
47730W        W 6826  26.972  20.138   2.884
47731W        W 6827  15.285  27.947  13.003
47732W        W 6828  22.172  20.552  10.613
47733W        W 6829  13.180  14.102  11.915
47734W        W 6830  35.530   7.378   0.963
47735W        W 6831  44.895  42.488   1.401
47736W        W 6832  31.995  15.161  11.590
47737W        W 6833  22.693  32.556   3.156
47738W        W 6834  24.699   8.853   4.741
47739W        W 6835  13.743  15.719   4.764
47740W        W 6836  29.507  43.919   2.342
47741W        W 6837  18.151   9.804  14.395
47742W        W 6838  24.696   1.247  14.990
47743W        W 6839  42.961  14.206  10.915
47744W        W 6840  37.355  30.501  14.822
47745W        W 6841  30.065   1.343   4.696
47746W        W 6842   1.379   9.857   4.329
47747W        W 6843  44.984  20.109   0.424
47748W        W 6844  21.529  27.599  11.911
47749W        W 6845  42.478  41.363  10.953
47750W        W 6846  22.508   5.379  10.577
47751W        W 6847  10.736  25.601  14.338
47752W        W 6848  15.314   0.462  11.433
47753W        W 6849  42.377  16.799   4.344
47754W        W 6850  14.729  30.513  12.051
47755W        W 6851  39.466  31.414  10.443
47756W        W 6852  41.306   2.924   4.834
47757W        W 6853  36.445  14.642  11.510
47758W        W 6854  36.438  25.635   3.726
47759W        W 6855  13.257  28.652   1.825
47760W        W 6856  42.427  43.427   0.483
47761W        W 6857  42.786  38.416  11.016
47762W        W 6858  42.904  24.653   1.224
47763W        W 6859  11.664  39.019  14.858
47764W        W 6860   0.798  39.432   3.849
47765W        W 6861   6.269  15.818   4.268
47766W        W 6862  37.371  25.712  10.550
47767W        W 6863  35.002   6.299   1.706
47768W        W 6864  40.911   4.301   2.343
47769W        W 6865  21.171  17.141   4.602
47770W        W 6866  33.101  36.585   2.310
47771W        W 6867  19.610  38.347  13.336
47772W        W 6868  21.127   4.408  14.939
47773W        W 6869  42.994  28.120   2.303
47774W        W 6870  32.962  23.025  10.150
47775W        W 6871  12.352  39.431  11.528
47776W        W 6872  37.500  14.311  10.893
47777W        W 6873  41.930  15.212   1.808
47778W        W 6874  11.640  23.235  11.114
47779W        W 6875   7.747  21.616   2.731
47780W        W 6876  22.712  17.777  11.507
47781W        W 6877  29.125  10.653   0.783
47782W        W 6878   8.827  22.167   1.871
47783W        W 6879  42.490  29.578   3.212
47784W        W 6880  38.356   8.323  12.437
47785W        W 6881  29.997  26.628   3.157
47786W        W 6882   6.800   2.331   1.782
47787W        W 6883  35.919  15.655   4.126
47788W        W 6884  13.251  25.154   1.369
47789W        W 6885  44.900  15.108  11.467
47790W        W 6886  19.751  42.862   1.865
47791W        W 6887  32.943  32.576  13.811
47792W        W 6888  24.163  26.697   5.211
47793W        W 6889   7.713   2.236  10.960
47794W        W 6890  42.990  16.754  12.445
47795W        W 6891  23.627  41.019  12.379
47796W        W 6892  27.692  28.121  11.587
47797W        W 6893  33.538  43.923  10.498
47798W        W 6894   2.379  42.380  12.992
47799W        W 6895   8.371  14.302  11.495
47800W        W 6896   9.694   1.310  11.122
47801W        W 6897  24.682  17.272  10.903
47802W        W 6898  24.526  16.193   1.348
47803W        W 6899  22.670  28.585  10.930
47804W        W 6900   4.317   7.701  12.085
47805W        W 6901  14.314   7.696   5.126
47806W        W 6902   4.806   0.812  13.526
47807W        W 6903  15.160   6.283   3.177
47808W        W 6904  36.461  10.697   0.466
47809W        W 6905  14.754   4.921  12.925
47810W        W 6906  28.577  25.212  12.895
47811W        W 6907  37.343  11.338   5.187
47812W        W 6908  36.444  26.018  14.335
47813W        W 6909  30.110  39.011  13.977
47814W        W 6910  29.114  24.177  14.765
47815W        W 6911  40.909   5.353  12.848
47816W        W 6912  31.528   8.728   0.843
47817W        W 6913  32.900  14.288  14.785
47818W        W 6914  40.819  35.935  12.407
47819W        W 6915   5.216   1.968  10.465
47820W        W 6916  31.080  32.066   1.916
47821W        W 6917  24.986  18.602   1.917
47822W        W 6918  11.683   5.910  10.039
47823W        W 6919  32.551   6.880   3.681
47824W        W 6920  21.596  44.389  13.920
47825W        W 6921   9.161  26.128   9.495
47826W        W 6922   9.769  35.966   2.850
47827W        W 6923  37.885  43.277   2.814
47828W        W 6924  18.729  25.973  10.514
47829W        W 6925   9.246   2.843  14.392
47830W        W 6926  44.458  16.242   0.910
47831W        W 6927  33.402  12.168  12.872
47832W        W 6928  33.505  36.014   1.788
47833W        W 6929   0.978  21.551  12.885
47834W        W 6930  10.267  40.950   4.598
47835W        W 6931  31.909   6.682  12.378
47836W        W 6932  22.542  15.154  10.111
47837W        W 6933   3.442  22.628   5.244
47838W        W 6934   9.195  27.620   1.398
47839W        W 6935   7.713  31.419   2.884
47840W        W 6936  37.892  40.371  14.812
47841W        W 6937  25.490  18.092   4.286
47842W        W 6938  31.009  35.478   4.660
47843W        W 6939   8.368   9.217   1.418
47844W        W 6940  23.548   7.850   4.724
47845W        W 6941  25.179   3.798   2.236
47846W        W 6942   1.324  17.664  12.342
47847W        W 6943  18.216   5.738   1.313
47848W        W 6944  23.208   4.925   2.345
47849W        W 6945  26.132  41.877  13.381
47850W        W 6946   8.173  28.046   1.828
47851W        W 6947  17.632  37.952  10.947
47852W        W 6948  35.426  16.117  12.378
47853W        W 6949  37.029   9.720   0.771
47854W        W 6950  21.135  24.000  13.835
47855W        W 6951  39.523  16.601   3.386
47856W        W 6952  18.257  16.721   0.769
47857W        W 6953  38.983   0.824   1.314
47858W        W 6954   2.459  14.758  13.354
47859W        W 6955  44.923  14.181  14.467
47860W        W 6956  15.690   8.885   9.982
47861W        W 6957  26.667  33.497   3.696
47862W        W 6958  30.601  10.789  12.898
47863W        W 6959  25.979  25.572  12.350
47864W        W 6960  27.119  43.834  14.324
47865W        W 6961  39.000  23.066   3.319
47866W        W 6962  18.730   3.259   2.299
47867W        W 6963  42.911  24.175   3.270
47868W        W 6964  23.621   9.362   0.824
47869W        W 6965  11.133  28.545   1.341
47870W        W 6966   7.809  20.067   1.258
47871W        W 6967   8.276  19.741  14.923
47872W        W 6968  15.139  28.054   2.418
47873W        W 6969  12.306  29.983   2.305
47874W        W 6970  11.362   0.791  10.570
47875W        W 6971  16.217  16.745   2.857
47876W        W 6972  18.271  43.340  10.493
47877W        W 6973  30.615  20.602   3.264
47878W        W 6974  40.534   9.333  13.868
47879W        W 6975  38.944  22.072  10.104
47880W        W 6976  44.374  27.539  12.994
47881W        W 6977  39.553   7.710  10.444
47882W        W 6978   8.869  24.675   0.933
47883W        W 6979  20.736  16.659   2.239
47884W        W 6980  30.533  35.888  12.416
47885W        W 6981  38.848  38.359   1.389
47886W        W 6982  10.289  17.687  12.877
47887W        W 6983  41.858  24.168   5.205
47888W        W 6984  30.614  15.295   1.781
47889W        W 6985  27.113  26.164   1.764
47890W        W 6986  28.677  22.628  10.899
47891W        W 6987  11.829   9.321   1.854
47892W        W 6988   0.275  11.330  12.094
47893W        W 6989  30.107  12.316  13.954
47894W        W 6990  11.144  30.604  12.082
47895W        W 6991  44.468  36.413  13.028
47896W        W 6992  40.358  26.098   0.408
47897W        W 6993  19.584   1.961   0.386
47898W        W 6994  37.865  17.740  12.562
47899W        W 6995  23.556  28.930   2.249
47900W        W 6996  32.064  15.782   2.896
47901W        W 6997  44.427  26.179  12.945
47902W        W 6998  33.509  10.709   3.210
47903W        W 6999  27.692  38.479  12.343
47904W        W 7000   3.747  44.868   4.629
47905W        W 7001   3.775  41.485   1.817
47906W        W 7002  27.451  35.552   3.237
47907W        W 7003  15.238  43.451   3.680
47908W        W 7004  16.695  32.990  10.039
47909W        W 7005  28.064  33.964  12.898
47910W        W 7006  18.065  40.027  11.499
47911W        W 7007  17.658  34.392  13.357
47912W        W 7008  29.121  34.887   0.880
47913W        W 7009  33.567  37.014   4.662
47914W        W 7010  41.522  12.791  12.046
47915W        W 7011  42.891  29.663  11.591
47916W        W 7012  18.774  32.952   0.857
47917W        W 7013  13.188  44.290   2.217
47918W        W 7014  18.614  42.010   2.870
47919W        W 7015   4.384  16.708  12.468
47920W        W 7016  40.910  37.455   1.714
47921W        W 7017  44.383  34.991   2.225
47922W        W 7018  13.278  28.081   4.608
47923W        W 7019  30.415  19.121  14.819
47924W        W 7020   7.848  38.432  12.458
47925W        W 7021   2.842  43.498  13.807
47926W        W 7022  12.118   7.873   2.311
47927W        W 7023  29.553  44.887   1.761
47928W        W 7024  25.004   4.831  12.414
47929W        W 7025  37.404  16.273   3.310
47930W        W 7026   6.407  26.701   2.813
47931W        W 7027   3.333  34.031  10.505
47932W        W 7028   5.323  32.605   1.751
47933W        W 7029   0.388  42.468   4.277
47934W        W 7030  13.691  23.118  12.859
47935W        W 7031  34.404  28.957   4.613
47936W        W 7032  23.024   1.949   4.797
47937W        W 7033  36.421  15.814   5.646
47938W        W 7034   7.759  20.610  12.907
47939W        W 7035   4.247  19.258   2.346
47940W        W 7036  42.852  12.681  14.465
47941W        W 7037   5.277  26.477   4.249
47942W        W 7038   3.231  22.172   2.352
47943W        W 7039  18.670   3.734   0.823
47944W        W 7040  20.552  22.037  13.860
47945W        W 7041   8.657  34.463   3.215
47946W        W 7042  31.057  30.414   4.739
47947W        W 7043  28.170  33.399   2.878
47948W        W 7044  30.936  42.321  13.920
47949W        W 7045  36.559   5.802  10.625
47950W        W 7046  29.591  36.871   1.233
47951W        W 7047  36.389  34.912   1.810
47952W        W 7048  33.950  26.588   4.796
47953W        W 7049  41.852   1.839  13.896
47954W        W 7050  10.294  37.443   3.294
47955W        W 7051  29.986   6.366  13.938
47956W        W 7052  43.368  30.097  11.452
47957W        W 7053  38.358   7.837   4.706
47958W        W 7054  34.043  23.676  13.950
47959W        W 7055  31.984   2.403   0.942
47960W        W 7056   0.338  14.772  14.473
47961W        W 7057   9.341  12.629   1.699
47962W        W 7058  33.622  26.091  13.403
47963W        W 7059  29.539   7.809  13.052
47964W        W 7060  42.886  43.451  10.519
47965W        W 7061   6.832  19.256  12.059
47966W        W 7062  30.911  43.288   4.353
47967W        W 7063  25.133  26.592  10.137
47968W        W 7064  28.675  21.163   4.171
47969W        W 7065  44.996  44.768  12.988
47970W        W 7066   6.347  15.677  11.908
47971W        W 7067  29.486  30.984  11.057
47972W        W 7068  32.948  31.120   2.811
47973W        W 7069  12.716  44.884  14.881
47974W        W 7070  24.205  35.577   3.262
47975W        W 7071  40.417  22.097   2.298
47976W        W 7072   3.408  36.421  10.494
47977W        W 7073  27.653  23.095   2.850
47978W        W 7074  33.405  31.402   1.927
47979W        W 7075  29.641  21.034  11.371
47980W        W 7076  30.482  32.419   1.371
47981W        W 7077   2.813   0.393   1.734
47982W        W 7078   3.427  19.190  13.533
47983W        W 7079  21.258   0.817  10.449
47984W        W 7080  40.377  23.734   2.252
47985W        W 7081  15.805  40.910   3.162
47986W        W 7082  43.424  14.262  10.489
47987W        W 7083  21.602   0.835  12.867
47988W        W 7084  15.298  15.144  11.068
47989W        W 7085  20.533   2.743  12.897
47990W        W 7086  20.707   8.820   3.370
47991W        W 7087  41.371  31.065  13.864
47992W        W 7088  30.566  26.596  14.945
47993W        W 7089  43.852  34.973   4.321
47994W        W 7090  35.110  44.505   1.811
47995W        W 7091   1.303  21.163   1.736
47996W        W 7092  34.519  17.206   3.203
47997W        W 7093  16.298  22.195  11.989
47998W        W 7094  42.287  43.324  12.933
47999W        W 7095  33.127  20.605   9.622
48000W        W 7096   2.338   3.763  11.111
48001W        W 7097  37.493  27.592  13.359
48002W        W 7098  20.665  12.777   1.745
48003W        W 7099  43.383  38.886  13.836
48004W        W 7100  27.969  25.088   0.338
48005W        W 7101  34.400  22.107   1.436
48006W        W 7102  17.582  35.495   2.746
48007W        W 7103  22.666  40.338   2.279
48008W        W 7104  29.670  13.118   0.838
48009W        W 7105  38.899  38.353  10.019
48010W        W 7106  40.865  38.500   1.856
48011W        W 7107  30.103  10.229   4.778
48012W        W 7108  42.378  13.146   1.398
48013W        W 7109  27.510  23.106   3.230
48014W        W 7110  39.898  19.645   0.780
48015W        W 7111  31.146  29.020  14.809
48016W        W 7112  39.884   2.312   3.198
48017W        W 7113  37.908  17.687   5.767
48018W        W 7114  30.105  15.108   3.319
48019W        W 7115   6.849   9.727   4.707
48020W        W 7116  29.076  40.518  12.842
48021W        W 7117  44.857  13.807   1.372
48022W        W 7118  11.636  25.154   1.769
48023W        W 7119  43.383   5.433  12.883
48024W        W 7120  25.577  44.292  14.473
48025W        W 7121   3.284  22.139  10.945
48026W        W 7122   1.933  29.574   3.849
48027W        W 7123  23.603  38.388   4.179
48028W        W 7124   9.701  18.246  11.106
48029W        W 7125  17.726   6.817   0.442
48030W        W 7126  41.912  27.557  13.852
48031W        W 7127  39.424  18.148  13.054
48032W        W 7128  36.541  44.444   4.126
48033W        W 7129  32.454   9.218  14.501
48034W        W 7130  23.717  39.356  10.630
48035W        W 7131  27.988  35.527  13.832
48036W        W 7132   5.271  20.138  11.897
48037W        W 7133   3.943  12.661  12.835
48038W        W 7134  23.177  27.080   1.237
48039W        W 7135  10.302  12.348  14.002
48040W        W 7136  42.809  12.294  13.941
48041W        W 7137   8.395  27.688   1.812
48042W        W 7138  14.784  28.186  11.960
48043W        W 7139  32.618  20.661   0.399
48044W        W 7140   2.328  41.304  12.963
48045W        W 7141  23.636  36.088   3.781
48046W        W 7142  13.318  30.600  11.921
48047W        W 7143  42.008  17.229   0.882
48048W        W 7144  33.012   2.932   1.715
48049W        W 7145   6.228  19.088   2.350
48050W        W 7146  36.048  24.528   0.446
48051W        W 7147   4.393  17.690  11.053
48052W        W 7148  35.918  28.513  13.449
48053W        W 7149  40.303   3.250  11.520
48054W        W 7150   9.249  42.937  10.106
48055W        W 7151   2.401  29.558  14.812
48056W        W 7152  27.691  36.869   5.611
48057W        W 7153   1.272   4.714  12.380
48058W        W 7154  33.618  16.141   1.854
48059W        W 7155  44.316  35.561   5.187
48060W        W 7156  16.259  28.170  13.541
48061W        W 7157   2.320  15.149  14.421
48062W        W 7158  15.731  39.985  11.562
48063W        W 7159  25.589  24.008   2.233
48064W        W 7160  34.451  38.872   1.893
48065W        W 7161  15.751  17.072  12.917
48066W        W 7162  19.042  25.119  13.387
48067W        W 7163  10.212  21.714   2.857
48068W        W 7164   0.815  20.055   3.659
48069W        W 7165  10.273  18.583   4.119
48070W        W 7166   3.773  35.024   4.645
48071W        W 7167  38.414  30.992  14.318
48072W        W 7168  26.667  16.101  14.801
48073W        W 7169  20.179  24.560   0.357
48074W        W 7170  18.585  20.679   2.877
48075W        W 7171  32.459   3.950   2.762
48076W        W 7172  28.017  27.075  13.341
48077W        W 7173  29.467  20.691   1.240
48078W        W 7174   1.238  21.054  14.892
48079W        W 7175   0.390  26.645  14.878
48080W        W 7176  36.892  37.423  14.827
48081W        W 7177  28.602  30.119  13.912
48082W        W 7178  28.678  28.593   1.423
48083W        W 7179  17.650  16.782   0.773
48084W        W 7180  42.402  41.416   3.273
48085W        W 7181  22.722  24.484  14.879
48086W        W 7182  33.955  21.607   4.351
48087W        W 7183  24.652   8.297  11.923
48088W        W 7184  36.388  36.863  10.901
48089W        W 7185  39.826  11.796  13.366
48090W        W 7186  21.234   4.889  12.551
48091W        W 7187  23.134  37.858  13.871
48092W        W 7188  27.947  15.591   1.896
48093W        W 7189   2.278  39.053   9.974
48094W        W 7190  41.381  31.967   0.786
48095W        W 7191  39.358  37.895  11.050
48096W        W 7192  14.703  43.418   2.199
48097W        W 7193  14.834  33.401  13.924
48098W        W 7194  40.543  33.025  11.445
48099W        W 7195   1.845  21.090   3.675
48100W        W 7196  29.144  19.101   9.924
48101W        W 7197   4.930  39.419  14.470
48102W        W 7198  18.220  39.894   0.376
48103W        W 7199  15.820   7.183   1.851
48104W        W 7200  32.066  13.313  11.539
48105W        W 7201   1.948  40.898   3.377
48106W        W 7202  23.495  18.577  12.080
48107W        W 7203  39.824  34.009   4.620
48108W        W 7204  40.838  24.027  10.926
48109W        W 7205  24.196  20.168  12.973
48110W        W 7206  33.008  32.058   4.641
48111W        W 7207  31.630  33.068  13.809
48112W        W 7208  27.079  21.149   2.196
48113W        W 7209  28.651  34.970  11.123
48114W        W 7210  31.961  29.627   0.464
48115W        W 7211  12.267  41.857   4.318
48116W        W 7212  10.633  27.455   0.832
48117W        W 7213  40.863  44.441  12.484
48118W        W 7214   8.849  13.229   4.152
48119W        W 7215  20.549   7.671   2.778
48120W        W 7216  26.464  15.242  11.421
48121W        W 7217  40.373  34.476  11.437
48122W        W 7218  36.949   7.759   4.151
48123W        W 7219  11.218  11.647  11.043
48124W        W 7220  24.693  31.092   2.731
48125W        W 7221  20.235  28.978  10.514
48126W        W 7222  44.313  19.252   0.952
48127W        W 7223  28.998  10.724   2.719
48128W        W 7224  39.349  41.956  13.315
48129W        W 7225   9.757   7.687  10.596
48130W        W 7226  40.004  11.745  10.512
48131W        W 7227   9.207  23.075  12.990
48132W        W 7228  13.639  21.115  11.941
48133W        W 7229  15.126  11.204   1.921
48134W        W 7230   0.777  15.308   3.813
48135W        W 7231  34.035  33.620  13.372
48136W        W 7232  26.632  34.584  10.442
48137W        W 7233  12.720  43.013  11.605
48138W        W 7234  10.709   4.883  10.063
48139W        W 7235  22.235  17.687   4.268
48140W        W 7236  29.118   1.457  14.422
48141W        W 7237  18.143  10.726   3.693
48142W        W 7238  28.057  15.187  13.444
48143W        W 7239   3.408  35.372   4.198
48144W        W 7240  18.790  12.663   1.698
48145W        W 7241  44.294  34.484   2.369
48146W        W 7242  10.813  17.722   1.867
48147W        W 7243  17.715  28.155  14.943
48148W        W 7244  29.647  15.754  12.840
48149W        W 7245  16.674  12.619  12.378
48150W        W 7246   8.722  36.482  11.403
48151W        W 7247  32.426  27.593  13.420
48152W        W 7248  43.413  19.718   2.664
48153W        W 7249  28.139   9.790  13.361
48154W        W 7250  28.966  35.091  12.825
48155W        W 7251  13.271  31.105  10.991
48156W        W 7252  30.065  13.281  10.931
48157W        W 7253  18.598   2.946  14.953
48158W        W 7254  44.933  43.274  13.310
48159W        W 7255  32.085  11.736   1.791
48160W        W 7256  31.987  29.431  11.090
48161W        W 7257  44.464  37.492  13.997
48162W        W 7258  37.024  40.052   3.684
48163W        W 7259   8.261  31.072   2.265
48164W        W 7260   1.855  37.459   1.318
48165W        W 7261   8.167  35.564  12.887
48166W        W 7262  10.709  20.744   3.751
48167W        W 7263  39.955  15.307   1.834
48168W        W 7264  40.470  32.137   3.319
48169W        W 7265  13.322   1.390  13.456
48170W        W 7266  40.923  40.909   3.210
48171W        W 7267  36.587  21.607   3.247
48172W        W 7268  23.596  42.996   0.462
48173W        W 7269  23.512  34.007  11.100
48174W        W 7270  34.424   8.229   4.153
48175W        W 7271  21.240  18.272   2.796
48176W        W 7272  32.904  34.579   2.770
48177W        W 7273  30.533   4.396   4.142
48178W        W 7274  31.985  29.072   0.824
48179W        W 7275  41.447  42.961   2.898
48180W        W 7276  33.432  10.355   0.368
48181W        W 7277   7.703   0.777   0.905
48182W        W 7278  29.004   2.891   2.698
48183W        W 7279  22.646   2.784  11.374
48184W        W 7280  32.474  33.591  13.422
48185W        W 7281   0.878   8.774   4.665
48186W        W 7282  32.457  22.223  14.316
48187W        W 7283  16.315  34.526  12.083
48188W        W 7284  34.998   1.962   3.752
48189W        W 7285  43.855  18.060  10.977
48190W        W 7286  40.399  12.171   3.745
48191W        W 7287  35.901  43.903  11.073
48192W        W 7288  44.989  23.012  14.980
48193W        W 7289  27.133  14.126  10.548
48194W        W 7290  35.394   4.778   2.225
48195W        W 7291  28.057   6.345   0.271
48196W        W 7292  10.672   4.268  10.426
48197W        W 7293  16.679  17.165   2.194
48198W        W 7294   5.280   0.451   2.376
48199W        W 7295  23.651  42.424  11.500
48200W        W 7296   1.296   4.798  14.782
48201W        W 7297  18.283  10.766  10.984
48202W        W 7298  39.815   6.679  12.826
48203W        W 7299  30.433  40.000  11.488
48204W        W 7300  13.331  32.899   4.609
48205W        W 7301  32.009  18.142  10.485
48206W        W 7302  11.241   5.263  14.782
48207W        W 7303   3.244  28.455  12.066
48208W        W 7304  13.789  37.043  13.857
48209W        W 7305  20.063  38.486  11.092
48210W        W 7306  27.027  20.691  12.988
48211W        W 7307  21.218   2.299   2.326
48212W        W 7308  38.017  33.513   2.768
48213W        W 7309  37.843  14.760   3.742
48214W        W 7310  12.629  23.706  10.962
48215W        W 7311  25.660  19.763  14.291
48216W        W 7312   9.879   8.783  14.379
48217W        W 7313  10.249  43.017   0.843
48218W        W 7314  27.451  42.851   2.734
48219W        W 7315  43.330   6.195   2.828
48220W        W 7316  24.028   1.248   0.307
48221W        W 7317  43.916  35.900  10.543
48222W        W 7318  20.135  35.453  11.993
48223W        W 7319   1.908  36.590  11.593
48224W        W 7320  25.190  38.040  13.865
48225W        W 7321  28.034  41.996  11.393
48226W        W 7322  40.994  34.535   1.225
48227W        W 7323  34.404  27.676  11.919
48228W        W 7324  27.183  14.126  11.916
48229W        W 7325  43.282   4.255  10.531
48230W        W 7326  30.596   9.694   4.668
48231W        W 7327   6.405  38.853  13.493
48232W        W 7328   8.400   9.816   4.149
48233W        W 7329   3.935  24.669   4.607
48234W        W 7330   5.219  29.025   0.350
48235W        W 7331  42.836  10.795  14.472
48236W        W 7332   0.468  29.033  14.790
48237W        W 7333  18.772  14.282  14.886
48238W        W 7334  14.643  14.824  13.489
48239W        W 7335  29.480   8.375  13.036
48240W        W 7336  19.100   4.702   1.841
48241W        W 7337  26.515  29.089  12.861
48242W        W 7338   0.326  43.863   3.728
48243W        W 7339  20.164  37.348  11.561
48244W        W 7340  42.808  10.753   1.403
48245W        W 7341  10.174  26.462  14.775
48246W        W 7342  39.966  36.558  13.849
48247W        W 7343  22.129  21.586  10.014
48248W        W 7344  37.041  41.495  13.843
48249W        W 7345  40.852   5.918   0.816
48250W        W 7346  32.143  31.549   1.433
48251W        W 7347  32.080  10.150   2.731
48252W        W 7348  13.679  26.571   0.800
48253W        W 7349  44.833   4.363  13.838
48254W        W 7350   7.731   4.325  14.475
48255W        W 7351  29.955  29.984  13.011
48256W        W 7352  34.991  32.001  14.826
48257W        W 7353  32.955  23.083  10.459
48258W        W 7354  13.794  13.647  10.479
48259W        W 7355  25.144  31.459   2.287
48260W        W 7356  21.555  44.385   4.129
48261W        W 7357   6.283  20.048   1.372
48262W        W 7358  24.647   6.254  10.557
48263W        W 7359  38.389  33.493   0.337
48264W        W 7360   4.849   0.810   0.924
48265W        W 7361  34.108  34.575   0.472
48266W        W 7362   2.882  29.124  14.904
48267W        W 7363  33.891  31.982  11.396
48268W        W 7364  10.830  44.286  11.002
48269W        W 7365   9.270  27.003  10.895
48270W        W 7366   8.688  19.688  13.420
48271W        W 7367  27.644  16.700   0.470
48272W        W 7368  34.073  27.991  13.016
48273W        W 7369  15.765  18.771   4.143
48274W        W 7370   4.873   6.769   1.918
48275W        W 7371  10.280   4.844  13.931
48276W        W 7372   9.781   6.251  10.938
48277W        W 7373  16.202  39.961   0.464
48278W        W 7374  28.651  36.558  14.889
48279W        W 7375   5.321   6.771  13.874
48280W        W 7376  31.997  43.961  14.992
48281W        W 7377   6.229  42.936  11.964
48282W        W 7378   3.232  18.097  14.965
48283W        W 7379  17.586  23.579  14.899
48284W        W 7380  16.583  44.986   3.184
48285W        W 7381  44.312  44.896  12.858
48286W        W 7382   6.811   7.368  11.495
48287W        W 7383   0.807  10.196   3.811
48288W        W 7384  11.261  25.000  12.515
48289W        W 7385  31.116  14.666  12.999
48290W        W 7386  35.358  44.777   1.889
48291W        W 7387  34.407  22.532  11.525
48292W        W 7388  28.015  14.783   2.899
48293W        W 7389  39.426  32.975   1.421
48294W        W 7390  33.484  38.349  12.074
48295W        W 7391  33.918  31.081  10.911
48296W        W 7392  36.962  35.979  11.389
48297W        W 7393  40.544  14.635   2.341
48298W        W 7394   9.750   7.750   2.325
48299W        W 7395  22.557  10.782  11.570
48300W        W 7396   9.707  29.481  13.983
48301W        W 7397   0.359  27.092   3.258
48302W        W 7398  19.643  31.648   2.238
48303W        W 7399  37.380  43.837   3.633
48304W        W 7400   3.728   6.822   3.339
48305W        W 7401  42.825  30.574  10.024
48306W        W 7402  35.082  30.558  13.475
48307W        W 7403  11.627  38.048  11.554
48308W        W 7404  18.252  36.501   3.666
48309W        W 7405  26.031  28.111   2.833
48310W        W 7406  13.845  12.813  12.924
48311W        W 7407  17.732  39.044   2.798
48312W        W 7408  13.254  20.537  14.423
48313W        W 7409  15.227  31.439   3.750
48314W        W 7410  34.455  19.750   3.315
48315W        W 7411   6.311  28.598   2.307
48316W        W 7412  25.000  38.398   0.742
48317W        W 7413  38.331  15.727   2.259
48318W        W 7414  18.101  35.359   2.899
48319W        W 7415  24.049  24.663  10.580
48320W        W 7416  10.643  15.319   0.781
48321W        W 7417  33.486   1.419  11.611
48322W        W 7418   3.810   7.780  11.533
48323W        W 7419  36.449  11.708  11.989
48324W        W 7420  36.484   0.314  14.425
48325W        W 7421   9.684  41.932   2.663
48326W        W 7422  22.069  37.416  11.918
48327W        W 7423  19.183  38.388   3.796
48328W        W 7424  10.158   8.307  11.455
48329W        W 7425  30.926   4.880   2.384
48330W        W 7426  24.974  29.982  11.590
48331W        W 7427  18.191  44.990  12.380
48332W        W 7428  12.623   7.672  12.444
48333W        W 7429  18.708  11.359   2.406
48334W        W 7430  28.524  35.491   3.328
48335W        W 7431  41.406  22.155   4.640
48336W        W 7432  19.184  35.557   2.892
48337W        W 7433  34.451  12.182   5.627
48338W        W 7434  25.582   9.860  12.409
48339W        W 7435  36.476   4.213  12.562
48340W        W 7436  20.768  37.036  10.609
48341W        W 7437  43.796  39.556  11.873
48342W        W 7438  41.925  42.806  11.519
48343W        W 7439  35.506   5.880   1.897
48344W        W 7440  17.745  42.353   2.370
48345W        W 7441   2.963  31.416   0.753
48346W        W 7442  38.536  21.220   4.254
48347W        W 7443   4.271  44.322   4.243
48348W        W 7444  16.158  10.708   2.183
48349W        W 7445  44.433  43.329   0.440
48350W        W 7446  16.291   2.316   0.880
48351W        W 7447  12.361  36.947   1.230
48352W        W 7448  14.715  25.158  11.612
48353W        W 7449   4.896  38.434   2.267
48354W        W 7450   5.262   6.741   3.311
48355W        W 7451  42.908  16.073   3.351
48356W        W 7452  20.653  19.045  12.876
48357W        W 7453   3.312  28.442  12.957
48358W        W 7454   1.242   6.784   0.908
48359W        W 7455  29.070  26.505  11.018
48360W        W 7456  34.947  40.862  11.957
48361W        W 7457  37.945  42.000  12.928
48362W        W 7458  12.639  43.840   4.832
48363W        W 7459   8.184  44.320  12.956
48364W        W 7460  34.554  35.011  11.009
48365W        W 7461   2.274  10.380  14.330
48366W        W 7462  38.877  13.332  14.797
48367W        W 7463  15.606  22.717   4.680
48368W        W 7464  30.972  21.521  13.816
48369W        W 7465  25.129  39.992  10.545
48370W        W 7466  40.043   0.779   1.883
48371W        W 7467  22.673  22.020  13.402
48372W        W 7468  34.997  22.655  13.863
48373W        W 7469  13.749  16.661  11.499
48374W        W 7470   7.284   8.259   3.704
48375W        W 7471   1.885  12.650   2.257
48376W        W 7472  26.055  43.777  13.387
48377W        W 7473  25.215  27.034   4.184
48378W        W 7474  19.095  41.942   2.850
48379W        W 7475  30.502   6.389  11.946
48380W        W 7476   9.862  27.642   9.992
48381W        W 7477  17.304   4.900   2.774
48382W        W 7478  32.079  23.065  14.844
48383W        W 7479  37.988  19.753   4.191
48384W        W 7480  38.921   6.743   1.899
48385W        W 7481  38.425  38.846  13.369
48386W        W 7482  29.157  28.101  11.457
48387W        W 7483  14.176  12.763  10.945
48388W        W 7484  40.846  42.798  11.030
48389W        W 7485  24.548  35.919   0.439
48390W        W 7486  14.625  30.425  10.973
48391W        W 7487  17.718  10.770   0.259
48392W        W 7488  16.681   8.365  10.549
48393W        W 7489   7.761   9.154   0.938
48394W        W 7490  24.627  43.369   3.648
48395W        W 7491  12.323   3.922  12.516
48396W        W 7492  13.348   0.779   2.199
48397W        W 7493  32.590  20.607   2.693
48398W        W 7494  12.690  36.410   3.805
48399W        W 7495  17.296  20.523   4.667
48400W        W 7496  40.387  34.380   5.220
48401W        W 7497  13.242  14.658   2.237
48402W        W 7498  39.344  19.597   4.271
48403W        W 7499   6.773  16.727   2.201
48404W        W 7500  11.171   9.236  10.959
48405W        W 7501  29.044  33.986  13.960
48406W        W 7502  16.161  43.849   1.289
48407W        W 7503  26.625   3.850  14.997
48408W        W 7504  26.582  29.605   3.646
48409W        W 7505  37.364  12.257   1.869
48410W        W 7506   1.818  10.708  13.463
48411W        W 7507   1.457   8.250   3.363
48412W        W 7508  21.161  37.878   1.330
48413W        W 7509  24.611  37.976  14.968
48414W        W 7510   5.925   8.342  14.470
48415W        W 7511   1.775  36.012   2.857
48416W        W 7512  43.501  37.539   4.193
48417W        W 7513   8.219  35.452  12.508
48418W        W 7514  44.376  33.513  14.012
48419W        W 7515  36.530  22.995   4.830
48420W        W 7516  24.007  17.798  14.306
48421W        W 7517  33.106  44.377  10.908
48422W        W 7518  44.932  44.426   2.825
48423W        W 7519  11.154  29.930   2.197
48424W        W 7520   6.301  34.435  11.933
48425W        W 7521  34.997  34.386   1.401
48426W        W 7522   6.307  34.055  12.990
48427W        W 7523  14.214  38.368  12.379
48428W        W 7524  18.070   7.697  11.894
48429W        W 7525   2.863  36.399  12.083
48430W        W 7526  19.727  32.050   3.744
48431W        W 7527  44.850  40.941  11.867
48432W        W 7528  34.429  44.833  12.545
48433W        W 7529   5.266  40.484  10.474
48434W        W 7530  30.591  12.355   4.326
48435W        W 7531  36.078  21.017  12.542
48436W        W 7532   6.686  39.893  11.988
48437W        W 7533  24.199  18.618   2.667
48438W        W 7534   1.276  20.575  10.453
48439W        W 7535  18.291  34.450   0.377
48440W        W 7536  25.101  33.974  12.936
48441W        W 7537  44.490  19.571  13.795
48442W        W 7538  44.427  38.507   1.279
48443W        W 7539  36.046  25.612  14.453
48444W        W 7540   3.740  40.919  13.417
48445W        W 7541  29.551   8.287   4.136
48446W        W 7542   8.307  28.586   4.684
48447W        W 7543  43.789  21.611   1.857
48448W        W 7544  36.579  19.632  11.949
48449W        W 7545  42.519  42.831   3.643
48450W        W 7546   2.370  37.413   1.868
48451W        W 7547  17.797   4.381   3.273
48452W        W 7548  18.567  11.214  11.579
48453W        W 7549  32.982  23.126  12.542
48454W        W 7550  18.781  18.111  11.949
48455W        W 7551   1.869  33.583   4.746
48456W        W 7552   0.278   9.205  13.462
48457W        W 7553  28.152  14.789   1.302
48458W        W 7554  10.668  14.637   1.388
48459W        W 7555  14.608  32.605  11.016
48460W        W 7556  14.147  12.195   1.326
48461W        W 7557  16.176  24.096   4.722
48462W        W 7558   5.383  29.160  11.899
48463W        W 7559  34.506  19.775  11.602
48464W        W 7560  26.001  36.367   0.919
48465W        W 7561  12.772  29.455  11.417
48466W        W 7562  24.086  14.258   5.257
48467W        W 7563  17.728  36.511  12.084
48468W        W 7564  28.530  43.394   0.948
48469W        W 7565  19.757  19.193  14.898
48470W        W 7566  44.892  10.245  13.019
48471W        W 7567  16.618  22.216  12.012
48472W        W 7568  19.144  13.306   0.423
48473W        W 7569  13.795  31.581   3.380
48474W        W 7570   1.435  38.882   3.816
48475W        W 7571  16.101  41.896  11.070
48476W        W 7572  25.480  29.080  14.457
48477W        W 7573   0.330  31.125   4.740
48478W        W 7574  14.305   3.327  14.983
48479W        W 7575   5.295  21.094   0.765
48480W        W 7576   9.871  34.974  11.931
48481W        W 7577  16.262  11.227   1.419
48482W        W 7578   3.776  43.823   0.763
48483W        W 7579   8.658  14.635   1.712
48484W        W 7580   1.342  29.528  11.014
48485W        W 7581  22.244  27.617   2.196
48486W        W 7582  16.718   7.396  12.926
48487W        W 7583   5.832  37.046   4.668
48488W        W 7584  33.427  22.656   2.687
48489W        W 7585  43.275  32.004  14.016
48490W        W 7586  19.638   4.378  12.941
48491W        W 7587  31.437  22.232  12.363
48492W        W 7588  14.151   4.247   0.752
48493W        W 7589   5.296  33.443  12.953
48494W        W 7590   4.419  19.098   4.698
48495W        W 7591  28.107  32.140   1.248
48496W        W 7592  34.055   5.775   1.264
48497W        W 7593  37.861  37.568   3.763
48498W        W 7594   6.351  10.305  12.399
48499W        W 7595  15.766   9.863   1.358
48500W        W 7596  38.980  22.529   2.692
48501W        W 7597  13.164  19.643  14.835
48502W        W 7598  26.621  20.114   1.802
48503W        W 7599   3.875  29.664  14.884
48504W        W 7600  38.368   5.263  11.412
48505W        W 7601   9.171   9.781  12.408
48506W        W 7602   6.408  25.048   9.979
48507W        W 7603  26.190  33.398   1.307
48508W        W 7604  29.932   2.281   1.787
48509W        W 7605  17.166  17.238   5.246
48510W        W 7606  11.789  43.503   2.284
48511W        W 7607   2.470  22.125  14.836
48512W        W 7608  22.088  15.320  12.394
48513W        W 7609  21.039  13.262   2.282
48514W        W 7610  26.534   2.426  14.463
48515W        W 7611  21.699  35.948  14.868
48516W        W 7612  27.160  30.035  11.877
48517W        W 7613  39.541  37.896  14.438
48518W        W 7614   6.353  44.824  14.992
48519W        W 7615  17.135  23.665  12.458
48520W        W 7616  14.809   4.349  13.805
48521W        W 7617  18.165  34.566   3.218
48522W        W 7618  31.984  22.699   2.201
48523W        W 7619  29.618  40.548  14.484
48524W        W 7620  33.529  29.470   0.942
48525W        W 7621  25.540  19.714   1.437
48526W        W 7622  44.302  29.605   0.758
48527W        W 7623   8.329  44.341   1.211
48528W        W 7624  13.644   1.880   2.207
48529W        W 7625  21.736  27.531   3.248
48530W        W 7626   6.328  20.695  11.422
48531W        W 7627   3.740  11.707   3.302
48532W        W 7628   4.329   9.267   4.227
48533W        W 7629  42.504   0.422  14.506
48534W        W 7630  23.536  31.527   2.730
48535W        W 7631  34.591   2.400   4.814
48536W        W 7632  26.680  40.506  12.073
48537W        W 7633  40.034  42.959  13.867
48538W        W 7634  42.783  29.601  10.639
48539W        W 7635  23.566  36.010   1.874
48540W        W 7636  44.325  16.165  11.466
48541W        W 7637  26.666  38.466   2.795
48542W        W 7638   5.256  21.147  10.492
48543W        W 7639  34.451   7.826   2.894
48544W        W 7640  13.748   2.383  12.860
48545W        W 7641  34.515  25.534  10.426
48546W        W 7642   0.278   8.178  12.526
48547W        W 7643  38.395  26.648  11.944
48548W        W 7644  17.636  36.979  14.491
48549W        W 7645   6.188  15.200  11.395
48550W        W 7646  39.810  26.468  13.402
48551W        W 7647   9.171  16.103  12.055
48552W        W 7648  33.394   7.376  13.921
48553W        W 7649  15.133  31.008  11.424
48554W        W 7650  40.517  27.689   2.234
48555W        W 7651  30.031  38.423   1.899
48556W        W 7652  38.938   8.214  14.782
48557W        W 7653  44.782  39.542   4.688
48558W        W 7654  14.242  37.531  12.992
48559W        W 7655  36.570  38.955  14.309
48560W        W 7656  12.350  44.348  13.478
48561W        W 7657  23.122  23.508  14.370
48562W        W 7658  22.525  20.040   4.194
48563W        W 7659  15.196  38.017   4.227
48564W        W 7660  20.587  10.200   0.761
48565W        W 7661  40.823  27.975   2.872
48566W        W 7662  11.695   3.827   2.776
48567W        W 7663  38.935  31.552   1.727
48568W        W 7664  30.601  26.045   1.924
48569W        W 7665  10.666  39.411   0.280
48570W        W 7666   4.245  31.581  11.066
48571W        W 7667  25.986  15.257  11.988
48572W        W 7668  35.519  10.667  10.134
48573W        W 7669  44.442  13.693   0.400
48574W        W 7670   3.765  14.338   5.128
48575W        W 7671  26.620  14.831  13.026
48576W        W 7672  17.751  40.984   1.817
48577W        W 7673  35.993  26.195   1.308
48578W        W 7674   2.389  26.599   4.620
48579W        W 7675  15.702  18.716   3.699
48580W        W 7676   1.788  19.128  11.405
48581W        W 7677   8.402  34.945  10.460
48582W        W 7678  39.530   6.297   0.309
48583W        W 7679   6.900  34.971  12.529
48584W        W 7680  21.548  29.424   2.258
48585W        W 7681  34.115  24.570   3.332
48586W        W 7682  10.290   4.699  11.442
48587W        W 7683  17.762   0.468  10.424
48588W        W 7684  18.757  39.527   2.730
48589W        W 7685   8.868  28.668  13.352
48590W        W 7686  22.659  35.396   3.177
48591W        W 7687   1.896  20.138   2.766
48592W        W 7688   8.180  26.528  14.939
48593W        W 7689   7.381  26.102   1.702
48594W        W 7690  12.614  33.393  14.401
48595W        W 7691  33.027  30.973  12.404
48596W        W 7692   6.873  38.365  10.967
48597W        W 7693   4.870  22.240  11.951
48598W        W 7694  27.177  13.760   1.874
48599W        W 7695  23.653  25.493  13.416
48600W        W 7696  31.949   0.315   1.231
48601W        W 7697  39.980   8.807   0.382
48602W        W 7698  25.019   5.267   3.809
48603W        W 7699  39.461  17.185  13.875
48604W        W 7700  32.069  43.493   0.472
48605W        W 7701  41.987  38.479   0.391
48606W        W 7702   9.149   6.777   4.822
48607W        W 7703  37.575  19.090   4.739
48608W        W 7704  19.073   0.277  14.294
48609W        W 7705   1.797  40.351  11.954
48610W        W 7706  33.127   3.362  10.945
48611W        W 7707   5.387  34.033  14.956
48612W        W 7708  17.559  15.781   1.339
48613W        W 7709  15.322  37.916  13.308
48614W        W 7710  31.058  37.880   1.258
48615W        W 7711  19.650  22.075   0.435
48616W        W 7712  24.048  13.708   2.267
48617W        W 7713  14.337  40.888  10.580
48618W        W 7714  34.111  40.836  13.911
48619W        W 7715  21.150  35.949   4.634
48620W        W 7716  35.856  32.480   2.834
48621W        W 7717  13.308  43.928   3.700
48622W        W 7718   5.232  18.112   3.807
48623W        W 7719  25.703  12.202   4.219
48624W        W 7720  16.199  23.174  11.072
48625W        W 7721  35.451  29.537  11.417
48626W        W 7722  21.156   9.814  12.031
48627W        W 7723  26.583   6.275  12.521
48628W        W 7724  11.840  34.869   3.168
48629W        W 7725  33.915  35.565  11.545
48630W        W 7726  36.573  17.293   0.949
48631W        W 7727  18.718   8.738   4.697
48632W        W 7728  43.466   1.860  13.808
48633W        W 7729  17.116  33.067  10.549
48634W        W 7730  40.920  10.360  13.327
48635W        W 7731   4.860   8.795  12.837
48636W        W 7732   3.853  21.589   3.371
48637W        W 7733  11.742  24.134   5.209
48638W        W 7734   7.792  11.199  14.880
48639W        W 7735  27.529  13.662  11.094
48640W        W 7736  37.505  24.585   2.750
48641W        W 7737  34.068  18.281   2.747
48642W        W 7738   9.326  14.182  14.358
48643W        W 7739  32.949   5.317  11.857
48644W        W 7740   1.787  28.154  11.535
48645W        W 7741   9.391  26.195   5.229
48646W        W 7742  19.159  13.344   0.964
48647W        W 7743  36.348  32.052  11.557
48648W        W 7744  24.694  44.887   0.482
48649W        W 7745  25.210  25.474  11.990
48650W        W 7746   7.716  17.664  12.444
48651W        W 7747  44.330  39.538   4.827
48652W        W 7748  39.032   0.423  12.449
48653W        W 7749   0.940   3.864   4.121
48654W        W 7750   7.390  32.522   2.400
48655W        W 7751  22.175  34.613  13.383
48656W        W 7752  41.526   3.406   1.854
48657W        W 7753  36.439  29.171   0.384
48658W        W 7754   0.806   3.886   3.724
48659W        W 7755  23.055  17.591   1.807
48660W        W 7756   8.200   9.816  14.981
48661W        W 7757  34.866   3.806  11.027
48662W        W 7758  22.701  40.009  12.405
48663W        W 7759  33.028   7.819  12.001
48664W        W 7760  39.978  12.653   0.374
48665W        W 7761  35.041  14.674  14.929
48666W        W 7762   4.921  21.173  11.430
48667W        W 7763  25.692  40.307   4.180
48668W        W 7764  20.076   3.374  10.452
48669W        W 7765  44.482  26.965   3.225
48670W        W 7766   1.771  42.971   0.375
48671W        W 7767  41.791  23.067  10.974
48672W        W 7768   2.237  33.424   4.718
48673W        W 7769  39.900  22.653  12.505
48674W        W 7770  13.756  23.222   2.829
48675W        W 7771  18.572  21.101  12.827
48676W        W 7772  15.614  31.119   0.903
48677W        W 7773  40.816  16.194  12.950
48678W        W 7774  30.611  24.696   3.264
48679W        W 7775   1.369  29.569   3.219
48680W        W 7776  23.694  27.948  12.550
48681W        W 7777   6.922  29.106  12.949
48682W        W 7778  20.037   4.714   9.925
48683W        W 7779  26.534  32.943   1.394
48684W        W 7780   7.353  18.790   4.161
48685W        W 7781  19.098  32.603  12.844
48686W        W 7782  23.210  33.012  13.960
48687W        W 7783  41.332  26.995  10.535
48688W        W 7784  28.601  19.557   4.614
48689W        W 7785  12.240  16.244   0.253
48690W        W 7786   4.404  18.093  11.374
48691W        W 7787   8.303  19.270   0.896
48692W        W 7788  32.105  21.187  10.140
48693W        W 7789  26.583   0.441   3.169
48694W        W 7790  20.066   2.291   1.393
48695W        W 7791  41.791   0.403   3.208
48696W        W 7792  16.795  18.225  12.552
48697W        W 7793   7.903  14.288   1.256
48698W        W 7794  11.821   3.219   0.340
48699W        W 7795  20.230   3.877   2.664
48700W        W 7796  11.655  24.185   3.320
48701W        W 7797  15.283  19.158  11.113
48702W        W 7798  40.052  26.460   5.094
48703W        W 7799   5.435   8.252   2.242
48704W        W 7800  15.790  29.609  11.866
48705W        W 7801  25.539  29.967  12.932
48706W        W 7802  17.583  10.242   3.173
48707W        W 7803  44.842  36.588   4.830
48708W        W 7804  41.855  35.052  14.977
48709W        W 7805  19.079  34.571   1.317
48710W        W 7806  33.411  23.107   0.439
48711W        W 7807   9.843  31.978  14.015
48712W        W 7808   8.717   2.451  11.461
48713W        W 7809   9.232  15.130  13.345
48714W        W 7810  20.150   6.798   3.185
48715W        W 7811  23.643  24.043  12.531
48716W        W 7812   4.359  24.540   0.734
48717W        W 7813  34.439  18.562   3.825
48718W        W 7814  33.426  34.067  12.394
48719W        W 7815  32.091  37.073  12.934
48720W        W 7816  40.047  25.080  14.925
48721W        W 7817  35.931  14.218   3.655
48722W        W 7818  44.764  24.536  12.553
48723W        W 7819  34.451   6.352  11.540
48724W        W 7820  28.964  24.158   0.413
48725W        W 7821  38.028   8.371   5.144
48726W        W 7822   4.398  37.918   4.299
48727W        W 7823  33.427   4.911  12.074
48728W        W 7824  30.113  37.043  11.107
48729W        W 7825  13.842  41.518   4.223
48730W        W 7826  31.418  11.203  12.522
48731W        W 7827  25.468  38.974  11.864
48732W        W 7828  42.780  43.457   0.370
48733W        W 7829  43.007  12.250  14.915
48734W        W 7830  18.257  31.030  13.433
48735W        W 7831   1.291  34.407  13.394
48736W        W 7832   4.435  37.053   1.340
48737W        W 7833  12.137  40.455   3.198
48738W        W 7834  12.647  27.546  14.940
48739W        W 7835  20.061  30.031   1.875
48740W        W 7836   1.807  41.379  14.488
48741W        W 7837  32.007  20.701  10.601
48742W        W 7838  14.814  32.991   3.239
48743W        W 7839  36.895  23.697  11.408
48744W        W 7840  15.743  33.618  12.847
48745W        W 7841  31.529   1.775  12.051
48746W        W 7842   7.249  26.166   0.464
48747W        W 7843   5.202  32.417  12.924
48748W        W 7844   3.344  22.685   0.925
48749W        W 7845  22.105  23.588   3.683
48750W        W 7846  13.672  37.553   5.310
48751W        W 7847  14.326   4.944  13.009
48752W        W 7848  10.722   5.327   0.943
48753W        W 7849  43.862  11.714  12.377
48754W        W 7850  16.698  33.104   2.225
48755W        W 7851   3.283  37.943   0.873
48756W        W 7852  11.190  23.587  11.875
48757W        W 7853  12.339  19.606  11.373
48758W        W 7854  33.518  17.074   1.402
48759W        W 7855  29.427   6.719  11.379
48760W        W 7856  11.742  15.821  12.914
48761W        W 7857  29.023  35.102   2.759
48762W        W 7858  35.493  36.508   0.905
48763W        W 7859  18.706  27.002  13.869
48764W        W 7860   2.277  11.325  13.492
48765W        W 7861  14.772  15.813   2.898
48766W        W 7862  24.198   3.744  10.934
48767W        W 7863  14.594   5.929   0.409
48768W        W 7864  31.475  20.109  13.424
48769W        W 7865  44.947   0.471   3.654
48770W        W 7866  30.949  44.843  13.848
48771W        W 7867  28.589  30.622   3.850
48772W        W 7868  15.690  32.595  10.994
48773W        W 7869  33.916  37.962   0.270
48774W        W 7870  33.431  16.664  12.958
48775W        W 7871  19.709   6.805  10.983
48776W        W 7872  35.521  12.345   4.180
48777W        W 7873  33.603   1.315  12.954
48778W        W 7874   9.662   4.944   0.322
48779W        W 7875  11.315  25.669  10.982
48780W        W 7876  32.502  41.320   3.160
48781W        W 7877  14.251  22.546  14.277
48782W        W 7878  21.538  29.460   1.325
48783W        W 7879   4.815  22.039  10.912
48784W        W 7880  29.168  21.171   0.438
48785W        W 7881  31.474  39.524   0.329
48786W        W 7882  31.008   6.334  11.439
48787W        W 7883  19.176  14.332  13.059
48788W        W 7884   7.415  13.215  14.475
48789W        W 7885  15.692  29.960   4.622
48790W        W 7886  23.162  42.291   1.761
48791W        W 7887   4.726  15.734  12.871
48792W        W 7888  12.270  26.520   3.304
48793W        W 7889  26.692  21.601   0.759
48794W        W 7890  31.012  37.950  12.016
48795W        W 7891  27.587  37.458   3.685
48796W        W 7892  22.564   8.280   1.327
48797W        W 7893  15.253  36.846  11.918
48798W        W 7894  36.849  26.120  14.029
48799W        W 7895  16.788   2.456  10.931
48800W        W 7896  38.348  10.867   3.357
48801W        W 7897  25.119   3.346   2.309
48802W        W 7898   4.940  22.057   3.387
48803W        W 7899  41.371  25.656   2.383
48804W        W 7900  18.276  20.660   4.686
48805W        W 7901  16.170   0.972  10.639
48806W        W 7902  32.962  28.139  12.916
48807W        W 7903   4.705  17.587  13.383
48808W        W 7904  17.188  20.198   3.756
48809W        W 7905  13.152   0.943   3.653
48810W        W 7906  33.384  14.170   0.900
48811W        W 7907  40.908  18.564   1.929
48812W        W 7908  40.410  22.555  10.903
48813W        W 7909  16.073  39.439  13.348
48814W        W 7910  44.431  33.502   1.299
48815W        W 7911   0.833  30.598   1.375
48816W        W 7912   9.291  27.942   3.775
48817W        W 7913  23.057  44.272  11.375
48818W        W 7914  38.019  33.528   4.159
48819W        W 7915  25.486  24.666   4.741
48820W        W 7916  40.900   6.260   1.887
48821W        W 7917   8.669  13.242   2.755
48822W        W 7918  34.448   5.858   3.747
48823W        W 7919   5.786  41.499   0.837
48824W        W 7920   9.878  24.646   4.260
48825W        W 7921  11.712  24.490  14.512
48826W        W 7922   6.233   3.710  10.098
48827W        W 7923  33.882  18.632  14.496
48828W        W 7924  44.999   5.300  14.773
48829W        W 7925  31.955  40.441  13.393
48830W        W 7926   0.832   5.206   4.201
48831W        W 7927  13.612  40.812  10.597
48832W        W 7928  34.516  41.432   1.700
48833W        W 7929  27.092  17.630   2.182
48834W        W 7930  13.301  34.056  13.468
48835W        W 7931   3.781  16.180  11.913
48836W        W 7932  34.112  30.578  14.993
48837W        W 7933  16.316  22.694   4.723
48838W        W 7934  21.110  13.702   2.826
48839W        W 7935  12.162  23.031   0.773
48840W        W 7936  38.987  36.376  13.926
48841W        W 7937   8.293  40.799   1.401
48842W        W 7938  16.162  20.063   2.233
48843W        W 7939  34.577  26.458  14.413
48844W        W 7940   4.433  41.899  12.056
48845W        W 7941   4.853  42.360  12.074
48846W        W 7942  13.342   0.344   1.439
48847W        W 7943   5.276  44.931   0.931
48848W        W 7944  10.705  14.602   5.303
48849W        W 7945  23.660  32.632   2.364
48850W        W 7946   5.262  12.692  12.092
48851W        W 7947  21.523  20.129   3.661
48852W        W 7948  19.603   3.244  13.029
48853W        W 7949  20.758   9.794   1.769
48854W        W 7950  44.428  39.994   2.336
48855W        W 7951  43.376  21.261  10.090
48856W        W 7952   6.705   4.422   2.312
48857W        W 7953   9.359  34.410  14.904
48858W        W 7954  42.382  21.609  12.469
48859W        W 7955  12.312   1.366   4.285
48860W        W 7956  43.284   1.900   0.935
48861W        W 7957   5.315  22.206   0.405
48862W        W 7958  31.011   5.241   1.708
48863W        W 7959   0.968  19.096   4.214
48864W        W 7960  12.334   8.330  12.085
48865W        W 7961  34.433   8.777  12.411
48866W        W 7962  43.992  18.789   4.290
48867W        W 7963  18.283   9.712   3.253
48868W        W 7964  39.040  35.049   1.389
48869W        W 7965  37.564  40.005  10.537
48870W        W 7966   6.739  36.414   4.160
48871W        W 7967  29.599  28.664   4.646
48872W        W 7968  27.195  18.168  11.511
48873W        W 7969  26.663  42.905  13.064
48874W        W 7970  29.517  34.382   3.292
48875W        W 7971  10.694  33.044   0.410
48876W        W 7972   9.653  39.367   0.246
48877W        W 7973  34.383  21.681   3.814
48878W        W 7974  43.509   2.936   4.767
48879W        W 7975   4.760  32.585   4.615
48880W        W 7976  16.719  10.824  12.563
48881W        W 7977   1.744  19.590   0.356
48882W        W 7978  24.594  37.919   9.672
48883W        W 7979  43.880  12.231  12.351
48884W        W 7980  40.410  12.805  10.603
48885W        W 7981  31.108  25.690  13.887
48886W        W 7982   9.882  24.029   4.683
48887W        W 7983   2.816  18.180  14.501
48888W        W 7984  15.124  13.254   2.878
48889W        W 7985  11.834  10.771  14.353
48890W        W 7986   2.322  39.971   0.920
48891W        W 7987  13.719  38.046   2.306
48892W        W 7988  26.493  39.956  13.530
48893W        W 7989  27.513  33.012  11.923
48894W        W 7990  35.433  40.453   3.648
48895W        W 7991  38.447  12.115  12.847
48896W        W 7992  27.652  15.755   1.389
48897W        W 7993  34.395  10.140   4.281
48898W        W 7994  17.251   5.416   3.671
48899W        W 7995  23.624  24.203  10.541
48900W        W 7996  27.148   4.372  12.035
48901W        W 7997  31.141  15.620   3.660
48902W        W 7998  29.151  32.540   3.230
48903W        W 7999  15.277  43.988  10.972
48904W        W 8000  21.137  32.534   3.353
48905W        W 8001  35.989  41.458   3.682
48906W        W 8002  12.158  43.515   1.235
48907W        W 8003  13.184  37.474   5.158
48908W        W 8004   3.313  28.120  11.433
48909W        W 8005   3.411  18.056  11.499
48910W        W 8006  44.371  21.552  10.150
48911W        W 8007  26.969   9.742  14.494
48912W        W 8008  40.518  12.679   3.712
48913W        W 8009  39.376  37.576   2.673
48914W        W 8010  44.811  21.105  11.520
48915W        W 8011  33.408   8.830   3.841
48916W        W 8012  26.497  26.618   2.662
48917W        W 8013  17.252  29.982  10.923
48918W        W 8014  39.373  25.992   3.682
48919W        W 8015  39.849  19.175   0.808
48920W        W 8016   1.392   1.768  14.780
48921W        W 8017  15.099  43.905  11.590
48922W        W 8018   8.705  37.020   0.483
48923W        W 8019  20.599   1.442  12.556
48924W        W 8020  28.006  38.408   2.266
48925W        W 8021  15.281   3.252   2.678
48926W        W 8022   5.273  13.131  14.813
48927W        W 8023  20.223  13.722   5.086
48928W        W 8024  21.050  28.645   5.151
48929W        W 8025  13.274   2.782  12.461
48930W        W 8026  12.661  41.873  10.539
48931W        W 8027  13.327   0.831  14.509
48932W        W 8028  28.159  27.653  10.481
48933W        W 8029  40.831  25.983  14.854
48934W        W 8030  27.087   7.256  11.874
48935W        W 8031  27.093  36.862   0.944
48936W        W 8032   5.433  22.104   2.229
48937W        W 8033  36.961   8.804   3.690
48938W        W 8034  20.132  33.539   4.129
48939W        W 8035  34.866  43.888   3.757
48940W        W 8036  37.073   4.867   3.803
48941W        W 8037  28.647  43.355   4.120
48942W        W 8038   4.883  15.213  10.929
48943W        W 8039  41.022  27.516   0.833
48944W        W 8040  34.021  21.605   2.868
48945W        W 8041  10.812  32.927   4.673
48946W        W 8042   8.341  44.804   1.906
48947W        W 8043  14.821  26.509   1.369
48948W        W 8044  39.824  23.530   4.709
48949W        W 8045   0.397   3.825  12.919
48950W        W 8046  37.530  22.101  13.336
48951W        W 8047  14.142  38.368   0.747
48952W        W 8048  30.523   3.455   3.214
48953W        W 8049  40.857  25.603   2.302
48954W        W 8050  21.564  20.697   3.866
48955W        W 8051  28.539  26.458  14.874
48956W        W 8052  27.092  23.077   3.709
48957W        W 8053   7.836   7.702   5.091
48958W        W 8054   0.377  21.020  14.354
48959W        W 8055  23.705   8.736  10.963
48960W        W 8056  32.004  18.064   4.802
48961W        W 8057  43.364  41.962  12.369
48962W        W 8058  44.373  35.433  14.504
48963W        W 8059  13.787  42.452  12.936
48964W        W 8060  14.185  33.104  12.557
48965W        W 8061   7.742  37.049   1.785
48966W        W 8062   7.360  25.468   1.781
48967W        W 8063  10.232  11.271   3.691
48968W        W 8064  35.412   7.171  14.491
48969W        W 8065   9.847  11.220   1.811
48970W        W 8066  27.073  35.546   5.241
48971W        W 8067  20.718  29.172  13.376
48972W        W 8068   9.152  40.469  12.984
48973W        W 8069  34.904  43.341   0.756
48974W        W 8070   6.923  41.373  14.418
48975W        W 8071  37.866  22.563  12.387
48976W        W 8072  32.627  33.973   2.703
48977W        W 8073  32.622   8.167   2.752
48978W        W 8074  31.926  28.553  12.956
48979W        W 8075   3.736  17.158  13.531
48980W        W 8076  44.472  37.463  13.398
48981W        W 8077  34.918  15.216  11.511
48982W        W 8078   8.711  17.241  13.495
48983W        W 8079   8.273  14.782   2.404
48984W        W 8080  28.447  27.475   3.162
48985W        W 8081   3.948  13.322  14.296
48986W        W 8082  18.265  14.651  12.942
48987W        W 8083  44.412   1.931   1.744
48988W        W 8084  36.947  18.287   4.708
48989W        W 8085  42.408  24.103  12.416
48990W        W 8086   9.752  23.201   0.462
48991W        W 8087  33.927  37.363  13.945
48992W        W 8088  31.567  10.811   2.335
48993W        W 8089  24.601  43.395  12.492
48994W        W 8090  39.473  25.100   0.285
48995W        W 8091  32.528  23.572   2.880
48996W        W 8092  17.137   8.240  13.838
48997W        W 8093  23.990  22.238   1.363
48998W        W 8094  12.324  30.127  12.494
48999W        W 8095   2.353  17.704  14.510
49000W        W 8096  44.402  44.911  12.049
49001W        W 8097  32.104  39.849   2.352
49002W        W 8098  25.546  24.150  12.929
49003W        W 8099  26.026  13.652   4.649
49004W        W 8100  19.263  10.652   4.218
49005W        W 8101  36.432   5.833  12.528
49006W        W 8102  25.978  19.273   1.305
49007W        W 8103  38.558  22.555  14.781
49008W        W 8104  13.231  24.014  11.399
49009W        W 8105  36.079  11.831  11.429
49010W        W 8106  18.137  43.874  13.467
49011W        W 8107   2.958  37.026   3.198
49012W        W 8108  34.016   7.317   0.880
49013W        W 8109  14.646  41.918   2.855
49014W        W 8110  42.304  38.823   3.319
49015W        W 8111  26.527  18.089  11.372
49016W        W 8112   1.741  18.129  13.913
49017W        W 8113  13.696   9.881  12.488
49018W        W 8114  30.435  19.096   0.361
49019W        W 8115   5.264  38.926   4.300
49020W        W 8116  33.616   7.827   1.389
49021W        W 8117  38.558   2.251  11.528
49022W        W 8118   5.821  10.705   2.822
49023W        W 8119  14.589   6.193  13.876
49024W        W 8120  17.137  40.048  14.868
49025W        W 8121   5.905   7.703  13.846
49026W        W 8122  14.675  11.352  15.000
49027W        W 8123  22.996  32.974  13.543
49028W        W 8124   7.870  44.308   4.290
49029W        W 8125  12.719  21.056   0.800
49030W        W 8126  31.023   7.705   2.825
49031W        W 8127  27.180  40.928   0.277
49032W        W 8128  41.532  33.119  11.967
49033W        W 8129  20.749   6.333  14.502
49034W        W 8130  31.083  19.166   2.236
49035W        W 8131  29.519  39.383   1.926
49036W        W 8132  21.044  18.593  12.568
49037W        W 8133   9.724  43.989  10.478
49038W        W 8134   8.257  34.384   3.808
49039W        W 8135  30.509  18.150   1.316
49040W        W 8136  20.133  42.951   1.719
49041W        W 8137  30.614  42.839   2.242
49042W        W 8138  43.420  30.559  14.842
49043W        W 8139  20.547  39.351   2.338
49044W        W 8140  34.116   0.746   0.866
49045W        W 8141  43.987  36.029  13.912
49046W        W 8142   7.380  42.010   3.214
49047W        W 8143  29.666  13.174  14.968
49048W        W 8144  36.545  38.551  14.781
49049W        W 8145   3.716   4.709  12.569
49050W        W 8146  20.206  15.093   1.743
49051W        W 8147  12.162   7.856  12.948
49052W        W 8148  35.057  10.338   5.247
49053W        W 8149  27.682  15.721   0.807
49054W        W 8150  43.773   1.353   1.444
49055W        W 8151  30.433  35.905  14.802
49056W        W 8152  27.047  19.126   3.363
49057W        W 8153   1.292  24.036   4.833
49058W        W 8154   5.820   1.844   1.719
49059W        W 8155  16.285  25.655   0.883
49060W        W 8156  37.452  11.730   0.879
49061W        W 8157  37.009  38.955   1.365
49062W        W 8158  13.703  24.021   3.857
49063W        W 8159  13.837  22.014  14.511
49064W        W 8160  36.450  24.505  14.341
49065W        W 8161  33.502   5.933  11.537
49066W        W 8162  35.079   3.247   1.782
49067W        W 8163  10.219  42.831   4.116
49068W        W 8164  10.768  40.503   2.829
49069W        W 8165  41.385   6.771  11.074
49070W        W 8166  23.173  40.308  11.570
49071W        W 8167  22.706   7.888   0.767
49072W        W 8168  15.196  30.137  13.361
49073W        W 8169  13.171   6.320  14.349
49074W        W 8170  39.991  23.675  12.912
49075W        W 8171  20.543   0.465   2.378
49076W        W 8172  15.201  13.341   4.709
49077W        W 8173  40.509  37.390   1.930
49078W        W 8174   5.321  39.431  11.386
49079W        W 8175   6.684  28.157   4.153
49080W        W 8176   6.733  10.690  14.422
49081W        W 8177  44.406  43.383  14.397
49082W        W 8178  18.103  19.245   4.771
49083W        W 8179  42.008  29.657  13.937
49084W        W 8180   0.750  28.956  14.463
49085W        W 8181  29.132  19.079  13.368
49086W        W 8182  10.337  12.777  11.119
49087W        W 8183  26.555  12.287  12.579
49088W        W 8184  43.480  26.577   1.365
49089W        W 8185  26.621  37.879   3.155
49090W        W 8186   1.277  25.092  10.579
49091W        W 8187  19.112  13.137   1.331
49092W        W 8188  41.425  36.524  11.374
49093W        W 8189   1.476  22.069  13.366
49094W        W 8190  26.634   4.726  13.381
49095W        W 8191  26.514  22.511   0.306
49096W        W 8192  30.476  26.186   0.353
49097W        W 8193  33.612  31.412   1.305
49098W        W 8194  38.512  23.146  13.997
49099W        W 8195  25.979  18.085   3.838
49100W        W 8196  16.708  27.525  15.000
49101W        W 8197  33.586   8.175  11.110
49102W        W 8198   3.442  39.042  12.026
49103W        W 8199  24.039  19.644   1.839
49104W        W 8200  11.182  15.783  11.441
49105W        W 8201  34.549   8.397  10.565
49106W        W 8202  18.256  15.640  13.832
49107W        W 8203  31.101   4.293  14.425
49108W        W 8204  26.006   7.390  13.398
49109W        W 8205  39.046  34.392  13.323
49110W        W 8206  41.822  24.681   0.822
49111W        W 8207   7.319  34.961   1.829
49112W        W 8208  21.529  37.553  13.484
49113W        W 8209   2.914   1.345  13.045
49114W        W 8210   5.242  29.532  10.595
49115W        W 8211  34.531  26.596  12.442
49116W        W 8212  33.126   3.292   0.828
49117W        W 8213  37.393   6.732  12.444
49118W        W 8214  28.665  41.795  12.930
49119W        W 8215  25.680  29.499  13.023
49120W        W 8216  31.060  16.275   3.785
49121W        W 8217   0.267  15.590  13.458
49122W        W 8218  21.121  43.797  12.996
49123W        W 8219  31.478  16.725  11.911
49124W        W 8220  37.339  14.664   1.846
49125W        W 8221  35.071  25.628  12.395
49126W        W 8222  43.799  25.472   0.813
49127W        W 8223  28.660  14.109  13.993
49128W        W 8224  14.834  18.250   1.821
49129W        W 8225  44.915  29.056   4.330
49130W        W 8226   2.357  33.919   3.850
49131W        W 8227  43.452  31.575  11.035
49132W        W 8228  41.849  33.396  10.446
49133W        W 8229  15.255  14.228  10.966
49134W        W 8230   3.429  44.762   4.809
49135W        W 8231  29.041  30.939   1.869
49136W        W 8232  31.033  10.180  11.569
49137W        W 8233  12.733   5.836  11.407
49138W        W 8234  32.407  40.003  10.581
49139W        W 8235  16.703  40.985  12.451
49140W        W 8236  25.540  34.094  12.966
49141W        W 8237  11.629  21.517  10.577
49142W        W 8238   2.304  39.498   3.860
49143W        W 8239   7.842   2.864  12.571
49144W        W 8240  38.448   6.409  12.399
49145W        W 8241  27.497   2.237   4.320
49146W        W 8242  20.527  23.508  10.554
49147W        W 8243   3.254  33.925  14.874
49148W        W 8244  33.123   5.251  13.907
49149W        W 8245  17.176  20.559  13.059
49150W        W 8246  38.040  38.365  11.383
49151W        W 8247  23.076  20.129   1.306
49152W        W 8248  37.831   3.837   1.901
49153W        W 8249   4.810   1.880   4.326
49154W        W 8250   6.886  14.757  13.055
49155W        W 8251   6.873  40.023  11.597
49156W        W 8252  41.468  29.081  12.019
49157W        W 8253  13.628  10.212  13.508
49158W        W 8254  39.554  42.469  11.043
49159W        W 8255  40.884   1.883   0.755
49160W        W 8256   0.828  10.367  11.445
49161W        W 8257  28.656  38.968  14.819
49162W        W 8258  29.012  37.990  14.292
49163W        W 8259  28.506   3.882  13.803
49164W        W 8260  19.592  14.221  13.977
49165W        W 8261  29.141   9.801   0.247
49166W        W 8262  31.550  30.456  10.516
49167W        W 8263  16.104  18.185   2.897
49168W        W 8264  44.262  36.019   3.337
49169W        W 8265  36.383   9.710  13.049
49170W        W 8266  12.306   9.284   2.760
49171W        W 8267  41.351  23.539  13.015
49172W        W 8268  14.316  12.786   2.193
49173W        W 8269  22.199  21.203  10.999
49174W        W 8270  31.950  36.560  11.564
49175W        W 8271   6.810  10.793  13.872
49176W        W 8272  44.336  24.528  12.463
49177W        W 8273   5.414   7.372   4.733
49178W        W 8274  28.171  29.955   4.314
49179W        W 8275  30.551  37.436   3.730
49180W        W 8276  23.185   4.432  14.330
49181W        W 8277  29.020   8.693  14.995
49182W        W 8278  11.210  26.610  11.882
49183W        W 8279  28.983   1.316   4.669
49184W        W 8280  11.673  18.135   0.342
49185W        W 8281  36.022   4.917   2.759
49186W        W 8282   3.936  43.837  12.952
49187W        W 8283  43.344  29.986   0.308
49188W        W 8284   6.400   2.317   2.206
49189W        W 8285   2.785  37.405  13.328
49190W        W 8286  31.635  14.281  12.917
49191W        W 8287  27.031  31.051  12.486
49192W        W 8288   3.218  23.226   5.311
49193W        W 8289  30.995  43.989   0.357
49194W        W 8290  16.215   0.448  14.759
49195W        W 8291  36.527  11.160   1.407
49196W        W 8292   4.853  34.553  14.847
49197W        W 8293  21.747  30.573  12.878
49198W        W 8294  12.323  31.585  11.453
49199W        W 8295  25.646  21.073   4.836
49200W        W 8296  37.900  36.861  11.000
49201W        W 8297   6.222   3.362  10.055
49202W        W 8298  20.754  15.086   1.886
49203W        W 8299  28.575  25.216   4.266
49204W        W 8300  20.727  36.001   4.295
49205W        W 8301  27.989  11.697  14.791
49206W        W 8302  17.708  11.707   2.768
49207W        W 8303  33.387   2.825  10.986
49208W        W 8304  17.658  31.550  10.528
49209W        W 8305   1.482   0.908   0.861
49210W        W 8306  39.871  32.423  11.939
49211W        W 8307  37.461  38.513  11.050
49212W        W 8308  41.006  17.728   1.256
49213W        W 8309   3.866   4.450   1.297
49214W        W 8310  24.031   6.683  13.365
49215W        W 8311  43.014   1.881   2.669
49216W        W 8312  10.207  28.610  14.328
49217W        W 8313  39.529   9.789  13.369
49218W        W 8314  24.135  13.279   0.753
49219W        W 8315  41.461   1.475   2.687
49220W        W 8316  37.985   3.385  11.490
49221W        W 8317   2.876  37.951   3.728
49222W        W 8318  22.134  19.096  14.287
49223W        W 8319  43.852  16.119   0.421
49224W        W 8320  25.583  21.252  14.835
49225W        W 8321   7.710  41.967   3.250
49226W        W 8322   7.895  38.345   3.229
49227W        W 8323  29.470   5.242  14.478
49228W        W 8324  30.029  10.863  12.867
49229W        W 8325  33.480  44.499  10.552
49230W        W 8326  20.642  43.918   4.132
49231W        W 8327  27.146  26.596  10.468
49232W        W 8328  23.068  18.281   3.825
49233W        W 8329  30.127  27.158   9.664
49234W        W 8330  39.470  12.351  12.510
49235W        W 8331  23.041  16.695   4.349
49236W        W 8332  39.428  26.973   0.882
49237W        W 8333  29.951  40.805  13.849
49238W        W 8334   2.802  19.768  14.777
49239W        W 8335  41.457  15.100   4.680
49240W        W 8336  33.043  27.131  13.523
49241W        W 8337  15.805  23.663  10.562
49242W        W 8338  23.720  35.950   2.313
49243W        W 8339  42.325  12.189   2.702
49244W        W 8340  36.847  33.896  13.835
49245W        W 8341   8.345   0.323  13.314
49246W        W 8342  24.481   4.913   2.407
49247W        W 8343  24.723  18.638  11.457
49248W        W 8344  23.604  40.007  11.964
49249W        W 8345  15.126  12.692   0.274
49250W        W 8346  29.514  36.424  11.595
49251W        W 8347  31.519  39.867   4.343
49252W        W 8348  14.331  27.688  14.972
49253W        W 8349   9.306  13.742   5.239
49254W        W 8350  41.000  31.602   4.226
49255W        W 8351   6.800  17.675  12.936
49256W        W 8352  42.369  15.737  12.951
49257W        W 8353  29.077  10.269  13.492
49258W        W 8354  36.570  27.603  12.897
49259W        W 8355  21.703  22.519  11.598
49260W        W 8356  22.056  40.449   3.747
49261W        W 8357  12.611  38.452  14.924
49262W        W 8358   8.773  43.918   3.323
49263W        W 8359  40.532  33.466  10.427
49264W        W 8360  26.189   7.880  14.014
49265W        W 8361   9.820  17.072   0.261
49266W        W 8362  27.514  31.120   2.229
49267W        W 8363  10.339  21.039  13.535
49268W        W 8364  18.078   4.285  14.810
49269W        W 8365  15.217  39.557   2.705
49270W        W 8366  28.675   9.371  11.450
49271W        W 8367   3.375   3.751   2.181
49272W        W 8368  10.184  15.749   2.811
49273W        W 8369  16.147  32.082   0.341
49274W        W 8370  11.664  12.343   0.275
49275W        W 8371  25.123  12.816  12.441
49276W        W 8372  19.603  15.324  14.939
49277W        W 8373  33.025  40.330   3.636
49278W        W 8374   8.312  34.389   0.423
49279W        W 8375  39.880  38.516  11.387
49280W        W 8376  30.586   0.283   2.187
49281W        W 8377  37.380   0.377  14.809
49282W        W 8378   9.696   4.773  10.980
49283W        W 8379  24.112  32.579  14.925
49284W        W 8380   3.914   9.232   4.149
49285W        W 8381   8.237   4.910   2.273
49286W        W 8382  20.597  13.170  10.515
49287W        W 8383   9.350  25.680  13.469
49288W        W 8384  17.286  43.429   4.702
49289W        W 8385  11.147  20.566   3.851
49290W        W 8386  41.924   5.868   0.477
49291W        W 8387  21.531  38.881  11.609
49292W        W 8388   2.470  36.464  11.059
49293W        W 8389  25.537  27.181  12.448
49294W        W 8390  30.989  13.712  14.940
49295W        W 8391   4.260  11.360  11.949
49296W        W 8392   2.323  36.433  13.911
49297W        W 8393  40.950  33.103   2.357
49298W        W 8394  37.396   0.457   4.685
49299W        W 8395  14.189   3.313   0.798
49300W        W 8396  16.173   0.447   0.448
49301W        W 8397  28.158   2.463  11.933
49302W        W 8398   7.275   5.325  12.405
49303W        W 8399  15.650  35.862  14.909
49304W        W 8400  28.634  15.624   0.400
49305W        W 8401  25.121  12.814   1.934
49306W        W 8402  26.636  35.102  14.503
49307W        W 8403  38.845   4.391  12.546
49308W        W 8404  25.008   7.381   2.362
49309W        W 8405  21.752   7.771   0.861
49310W        W 8406  35.511  24.704  13.347
49311W        W 8407  34.567   8.164   3.692
49312W        W 8408   7.271  16.612   3.845
49313W        W 8409  10.312   9.886   4.256
49314W        W 8410  44.797   2.244   1.735
49315W        W 8411  15.637   8.742   0.766
49316W        W 8412  14.708  26.608  14.395
49317W        W 8413   3.283  27.540  10.444
49318W        W 8414  43.944   9.677   3.290
49319W        W 8415  11.212   0.773   1.811
49320W        W 8416  21.230  40.339   2.270
49321W        W 8417  29.092  39.352   3.363
49322W        W 8418  27.540  17.251   1.323
49323W        W 8419  40.345  32.540  13.805
49324W        W 8420  41.385   3.258   2.671
49325W        W 8421  28.490  12.323  12.989
49326W        W 8422   5.716  29.575  10.510
49327W        W 8423  14.234  44.918   1.817
49328W        W 8424  21.613  20.039  14.444
49329W        W 8425  12.304  31.957   4.230
49330W        W 8426   6.921  36.513  13.009
49331W        W 8427  41.030  22.597   2.302
49332W        W 8428  21.044  24.119  12.502
49333W        W 8429   6.266  17.664  10.895
49334W        W 8430  21.524   6.280   4.615
49335W        W 8431   9.210   0.923  12.478
49336W        W 8432  41.864  38.831   1.262
49337W        W 8433  40.919  21.060  11.912
49338W        W 8434  39.831  30.640  13.315
49339W        W 8435  29.521  22.067  14.004
49340W        W 8436  23.652   6.389  13.054
49341W        W 8437   2.723  31.601  14.978
49342W        W 8438   5.263  35.448   0.447
49343W        W 8439  26.967  12.202  10.470
49344W        W 8440  35.563  43.851   2.757
49345W        W 8441   6.410   9.384   2.344
49346W        W 8442  33.881  23.550   9.589
49347W        W 8443  44.500  39.957   0.384
49348W        W 8444  35.060  41.387   4.790
49349W        W 8445  12.141  42.395  11.566
49350W        W 8446  20.256   8.322   3.343
49351W        W 8447  32.509   0.335  10.533
49352W        W 8448   0.909  34.902   0.349
49353W        W 8449  37.339  12.639   4.768
49354W        W 8450  21.092  39.365   2.410
49355W        W 8451  22.034  14.251  10.478
49356W        W 8452  20.546  43.463  14.921
49357W        W 8453  23.698  34.525  12.041
49358W        W 8454   9.163  42.907  12.567
49359W        W 8455  29.480  22.679  13.947
49360W        W 8456  38.396  27.978   1.836
49361W        W 8457  35.009  39.819   3.792
49362W        W 8458  40.488  35.021  10.606
49363W        W 8459   7.291  11.290  13.003
49364W        W 8460  41.488  25.128   3.183
49365W        W 8461  15.662  16.714  13.808
49366W        W 8462  26.105  11.131  10.455
49367W        W 8463  36.533  12.258   0.763
49368W        W 8464  42.820  11.146  12.988
49369W        W 8465  43.452  35.578   4.123
49370W        W 8466   6.327  39.473   4.745
49371W        W 8467  22.230  36.916   2.375
49372W        W 8468  16.656  32.407   1.437
49373W        W 8469  16.691  10.307   4.799
49374W        W 8470  40.390  19.607   4.689
49375W        W 8471  39.999  11.258  10.610
49376W        W 8472  14.645  44.010  12.959
49377W        W 8473   9.765   0.312   2.750
49378W        W 8474  17.757  29.130  13.393
49379W        W 8475  24.983  24.035  10.018
49380W        W 8476  29.581  37.982   3.340
49381W        W 8477  43.467  40.453  13.996
49382W        W 8478  41.514  21.222  11.040
49383W        W 8479  34.960  13.143   5.211
49384W        W 8480  10.238   1.240   4.243
49385W        W 8481   8.889  24.695   2.325
49386W        W 8482   1.404  37.074   0.250
49387W        W 8483   4.226   1.864   2.885
49388W        W 8484  36.071   5.841  12.396
49389W        W 8485  25.567  26.118  13.872
49390W        W 8486  10.735  30.041   2.333
49391W        W 8487  29.490  13.641  12.854
49392W        W 8488  11.650   2.965   3.311
49393W        W 8489  10.356  31.029  14.019
49394W        W 8490   4.441   1.482  13.889
49395W        W 8491  41.988   6.236   2.349
49396W        W 8492  32.561  15.183   1.735
49397W        W 8493  24.658  33.596  14.967
49398W        W 8494  37.995  18.115  11.447
49399W        W 8495  32.618  39.409   1.346
49400W        W 8496  23.528  36.965  14.285
49401W        W 8497  36.877  13.815   0.864
49402W        W 8498  11.277   0.792  12.841
49403W        W 8499  38.995   1.436  14.337
49404W        W 8500   9.756  42.293  11.562
49405W        W 8501  41.793  36.429  10.495
49406W        W 8502  41.452   7.226  13.928
49407W        W 8503  26.013  29.147  10.491
49408W        W 8504  24.224  44.877   4.667
49409W        W 8505  40.827  36.404  11.378
49410W        W 8506  20.255  26.674  10.096
49411W        W 8507  41.337  11.628   9.962
49412W        W 8508   1.278  40.963   4.644
49413W        W 8509  35.436  31.437   2.390
49414W        W 8510   8.694  14.653  10.421
49415W        W 8511  40.873  34.401   3.769
49416W        W 8512  38.986  21.730  14.435
49417W        W 8513  18.590  34.048  10.591
49418W        W 8514   9.313  26.504  14.015
49419W        W 8515   0.386   1.332  10.959
49420W        W 8516  31.591  16.222   5.727
49421W        W 8517  10.755   3.330  12.893
49422W        W 8518  28.588   6.773  14.954
49423W        W 8519  34.558  11.364   1.789
49424W        W 8520  35.484  29.531   2.875
49425W        W 8521  14.740   5.382  13.309
49426W        W 8522  37.857   0.895  10.561
49427W        W 8523  13.350  43.447   0.246
49428W        W 8524  11.284   1.776  12.955
49429W        W 8525  28.022  19.115  11.482
49430W        W 8526  35.011  26.680  14.355
49431W        W 8527  32.435  42.497   3.869
49432W        W 8528   5.300   8.687   4.802
49433W        W 8529  17.779  35.536   0.405
49434W        W 8530  37.540  31.036  14.380
49435W        W 8531  40.328  11.364   2.805
49436W        W 8532  30.044  10.144  14.872
49437W        W 8533  44.936   3.405  11.052
49438W        W 8534  38.553  24.180  12.864
49439W        W 8535  29.454   4.762  10.614
49440W        W 8536  13.173  25.693  10.472
49441W        W 8537  17.665   6.380   2.744
49442W        W 8538  37.551  24.979   9.987
49443W        W 8539  44.978  18.645  13.028
49444W        W 8540  29.064  16.796  10.462
49445W        W 8541  44.325  20.674   1.292
49446W        W 8542  39.328  15.605   0.449
49447W        W 8543   4.937  30.536   3.689
49448W        W 8544  35.446  11.273  14.495
49449W        W 8545  41.924  16.694   2.255
49450W        W 8546  25.022  34.609   0.951
49451W        W 8547  12.361   7.707   0.443
49452W        W 8548  15.262  16.587   1.700
49453W        W 8549  31.563  35.034  10.612
49454W        W 8550  15.198  38.070   1.852
49455W        W 8551  17.588   9.793  13.806
49456W        W 8552  33.005   6.730   3.307
49457W        W 8553  36.400  18.187   2.336
49458W        W 8554  13.699  31.531   3.824
49459W        W 8555  38.555  40.409   0.295
49460W        W 8556   5.357   6.227  14.409
49461W        W 8557   7.196   3.866  10.953
49462W        W 8558  14.240   8.399   3.731
49463W        W 8559  25.209   2.926   1.424
49464W        W 8560  27.561  44.779   1.904
49465W        W 8561   5.907  34.529   1.236
49466W        W 8562  40.007   2.739  14.437
49467W        W 8563   1.339   6.808  11.971
49468W        W 8564  36.922  22.192   1.212
49469W        W 8565  28.503   7.291   2.333
49470W        W 8566  22.670   1.279   4.672
49471W        W 8567  38.557  32.424  13.487
49472W        W 8568  40.404   5.375   4.132
49473W        W 8569  44.807  25.529   2.685
49474W        W 8570  33.392  34.918   1.299
49475W        W 8571  16.743  28.971   4.156
49476W        W 8572   4.406  35.041  12.466
49477W        W 8573  17.684  34.875  10.074
49478W        W 8574  23.630  14.233   2.680
49479W        W 8575  36.025  23.606  12.044
49480W        W 8576  30.598  23.688  12.912
49481W        W 8577  22.733  44.373   1.841
49482W        W 8578  14.653  29.037   3.690
49483W        W 8579  28.561  12.698  14.277
49484W        W 8580  14.654  31.647  13.850
49485W        W 8581  13.681  17.202   0.409
49486W        W 8582  42.021  16.135  13.379
49487W        W 8583  40.376  26.168  10.509
49488W        W 8584  27.983  35.098   2.771
49489W        W 8585   9.751  35.566  14.919
49490W        W 8586  30.600  16.234   5.709
49491W        W 8587  44.979  27.983  13.482
49492W        W 8588  37.912  34.475   2.353
49493W        W 8589  18.602  43.352  13.529
49494W        W 8590  40.020  30.419  13.934
49495W        W 8591  18.181  25.581   0.917
49496W        W 8592  35.383   2.864   0.267
49497W        W 8593  11.813  39.001   0.926
49498W        W 8594   2.341  27.155  13.829
49499W        W 8595  30.096  31.990  12.422
49500W        W 8596   4.426  30.618   2.666
49501W        W 8597  19.126   5.813  12.385
49502W        W 8598  10.687   6.224   3.758
49503W        W 8599  41.021  26.089   4.323
49504W        W 8600  25.571   9.884   1.790
49505W        W 8601  32.067  42.862   1.768
49506W        W 8602  21.612  39.387   2.704
49507W        W 8603  30.531  39.870  12.030
49508W        W 8604  15.618  44.881  14.504
49509W        W 8605  32.579  13.136   3.230
49510W        W 8606  34.907  29.143  14.458
49511W        W 8607  28.558  20.105  14.301
49512W        W 8608  40.385   4.859  10.008
49513W        W 8609   6.392  35.425  14.781
49514W        W 8610  18.611  32.480  13.046
49515W        W 8611  12.283  27.630   4.203
49516W        W 8612   8.801  25.052   0.392
49517W        W 8613  37.441  14.181   4.183
49518W        W 8614   8.166  15.254  10.619
49519W        W 8615  36.512  18.234  11.509
49520W        W 8616  44.504   2.351   1.211
49521W        W 8617   7.183  16.112   1.379
49522W        W 8618  12.155  23.565   1.357
49523W        W 8619  30.931   3.420  13.810
49524W        W 8620  40.320  27.074   4.275
49525W        W 8621  26.055   2.258  12.885
49526W        W 8622  19.562  42.294  10.479
49527W        W 8623  20.032  10.382  13.350
49528W        W 8624   0.385  35.582  13.904
49529W        W 8625  38.483  25.675   1.856
49530W        W 8626   1.919   6.683  12.522
49531W        W 8627  24.027  31.125   1.712
49532W        W 8628  29.665  33.947   4.281
49533W        W 8629  37.081  35.518   3.189
49534W        W 8630  11.178  13.337   1.425
49535W        W 8631  10.182   2.758  12.404
49536W        W 8632   3.924  32.983   4.167
49537W        W 8633  40.375  30.907   0.244
49538W        W 8634  26.024  43.438   1.350
49539W        W 8635   5.741  36.099   4.818
49540W        W 8636  33.441  29.505   2.719
49541W        W 8637  34.419   3.850   4.771
49542W        W 8638  19.156  39.888  11.057
49543W        W 8639  20.615  37.508  12.893
49544W        W 8640  23.568  23.109  13.865
49545W        W 8641  31.900  25.027   2.227
49546W        W 8642   1.874   5.339   0.271
49547W        W 8643  32.983  10.378   1.718
49548W        W 8644   5.237  40.805  13.426
49549W        W 8645   5.738  20.622  10.617
49550W        W 8646  10.212  28.172   2.196
49551W        W 8647  14.166  36.369  13.014
49552W        W 8648  21.739  41.334  10.942
49553W        W 8649  20.648   7.892   9.996
49554W        W 8650  33.901  40.827   1.700
49555W        W 8651  44.447  38.555  10.901
49556W        W 8652  11.255  43.859  13.381
49557W        W 8653  16.215  10.782   1.285
49558W        W 8654  33.421  16.089   3.722
49559W        W 8655  38.925  21.744   2.784
49560W        W 8656  26.075  21.188   2.382
49561W        W 8657  17.111   1.365  10.559
49562W        W 8658  16.607  30.159  12.352
49563W        W 8659  44.911   9.804  12.030
49564W        W 8660  36.389  25.191  10.552
49565W        W 8661  44.301  42.401   2.300
49566W        W 8662  14.139  30.417  10.405
49567W        W 8663  19.687  13.213   1.337
49568W        W 8664  18.776  18.695  11.109
49569W        W 8665  40.477  24.572  14.905
49570W        W 8666  18.295  12.117   0.737
49571W        W 8667  36.941   5.260   4.634
49572W        W 8668  28.110   5.794  14.290
49573W        W 8669  21.059  15.604  11.431
49574W        W 8670   4.305  13.823   4.836
49575W        W 8671  38.039   9.276  10.123
49576W        W 8672  25.500   2.949   2.410
49577W        W 8673  32.492  41.292  10.078
49578W        W 8674  17.291   6.845   0.423
49579W        W 8675  41.517  26.606   5.195
49580W        W 8676  28.587  41.921   0.384
49581W        W 8677   3.458  20.675   4.681
49582W        W 8678  23.691  29.119  13.419
49583W        W 8679  11.149  34.100  14.294
49584W        W 8680  20.157   1.738  14.963
49585W        W 8681  41.468   5.200  14.764
49586W        W 8682  14.777   6.285   0.957
49587W        W 8683  27.468  19.056  14.846
49588W        W 8684  38.421  32.515   2.870
49589W        W 8685  16.721   9.872  13.856
49590W        W 8686  38.982  22.249   2.669
49591W        W 8687  37.503  20.607  12.060
49592W        W 8688  32.600  19.626   0.746
49593W        W 8689   6.774   4.714   2.387
49594W        W 8690  13.288  30.467  11.392
49595W        W 8691  12.659  33.001  14.767
49596W        W 8692  42.497   0.780  12.076
49597W        W 8693  18.686   8.799  11.468
49598W        W 8694   8.772  40.808  14.351
49599W        W 8695  32.393  43.480   1.243
49600W        W 8696  44.778  31.619   0.861
49601W        W 8697  35.597  12.299   1.375
49602W        W 8698  25.703  17.629   4.148
49603W        W 8699  19.598   7.275   3.169
49604W        W 8700   0.308  30.944  13.474
49605W        W 8701  11.184   1.739  11.419
49606W        W 8702  42.981  41.938  10.959
49607W        W 8703  30.462  25.480  10.639
49608W        W 8704  18.222   5.230  11.111
49609W        W 8705  39.442  14.154  14.776
49610W        W 8706  43.799  36.504   0.246
49611W        W 8707  16.577  11.327  13.428
49612W        W 8708  12.802  44.305   0.896
49613W        W 8709  34.550  11.310   4.233
49614W        W 8710  37.411  33.544   4.308
49615W        W 8711   5.743  27.102   3.697
49616W        W 8712  11.259   4.745   1.249
49617W        W 8713  19.755   5.719  14.310
49618W        W 8714   0.758  15.639   2.744
49619W        W 8715  13.261   6.349  10.951
49620W        W 8716  13.825  28.124  10.923
49621W        W 8717  29.968  14.324   0.738
49622W        W 8718   8.758  16.130   5.806
49623W        W 8719  33.579  36.527  13.935
49624W        W 8720  20.119  34.100   3.165
49625W        W 8721  43.295   1.916   4.627
49626W        W 8722  28.953  34.009  12.567
49627W        W 8723  20.204  38.465   4.211
49628W        W 8724   5.413  23.098   5.786
49629W        W 8725  31.419  34.451  13.522
49630W        W 8726  38.871  15.200   2.742
49631W        W 8727  14.750  13.615  14.431
49632W        W 8728  38.551  30.114  11.498
49633W        W 8729  18.169  24.581  11.546
49634W        W 8730  44.850   2.242  14.986
49635W        W 8731  29.642  14.810   3.658
49636W        W 8732   4.316  21.735   0.956
49637W        W 8733  44.949  36.477   0.957
49638W        W 8734  29.447  16.073  13.825
49639W        W 8735  24.720  31.530   3.323
49640W        W 8736  44.320  40.337   2.760
49641W        W 8737  42.281  21.224   4.604
49642W        W 8738  40.044   6.873  13.495
49643W        W 8739   8.780  12.192   3.840
49644W        W 8740  36.364   1.967   3.358
49645W        W 8741   3.413  33.402   0.428
49646W        W 8742   9.713   8.273   1.741
49647W        W 8743  40.871  20.029   2.713
49648W        W 8744   4.774  38.433  13.516
49649W        W 8745   2.948  13.241   4.625
49650W        W 8746   5.868  22.569   3.174
49651W        W 8747  35.000  43.484  12.080
49652W        W 8748  29.455  38.394   2.347
49653W        W 8749  18.628   9.228   0.772
49654W        W 8750  36.558  40.522   1.876
49655W        W 8751  33.424  14.608  10.022
49656W        W 8752   0.426   9.856  13.791
49657W        W 8753  42.956  36.061   4.176
49658W        W 8754  24.982   5.885   0.368
49659W        W 8755  38.567  30.473  14.986
49660W        W 8756  35.565   2.738  12.923
49661W        W 8757  26.599  38.507  13.447
49662W        W 8758  39.491  31.131   3.631
49663W        W 8759   5.698  26.054  11.568
49664W        W 8760   9.703  16.579  11.876
49665W        W 8761  34.394  15.097  14.945
49666W        W 8762  18.747  23.170  12.077
49667W        W 8763  38.038  11.794  14.496
49668W        W 8764  38.511  18.080  12.346
49669W        W 8765   8.364  16.685  12.873
49670W        W 8766  37.972  43.380   1.239
49671W        W 8767  44.485  22.221   0.464
49672W        W 8768  32.953  29.023   2.711
49673W        W 8769  34.975   1.775   1.365
49674W        W 8770  41.002  38.414   4.240
49675W        W 8771  41.490  17.064  13.927
49676W        W 8772  17.078  35.362   4.258
49677W        W 8773  27.127  27.101  10.515
49678W        W 8774  19.268  12.724   3.801
49679W        W 8775  20.272  35.493   0.281
49680W        W 8776  42.869  21.687  14.511
49681W        W 8777   6.233  37.343   0.423
49682W        W 8778   0.458   2.786   0.887
49683W        W 8779  35.589  38.525   4.137
49684W        W 8780  38.443  17.085  11.529
49685W        W 8781  19.750   7.818   1.913
49686W        W 8782  19.612  22.148   1.858
49687W        W 8783  26.199   2.730  13.905
49688W        W 8784  13.238  34.117   2.848
49689W        W 8785  40.025  36.412   3.208
49690W        W 8786  23.030   6.830   3.308
49691W        W 8787  19.684  14.257   5.236
49692W        W 8788  24.511  25.144  14.956
49693W        W 8789  17.611  13.802  11.436
49694W        W 8790   4.278  30.475  10.636
49695W        W 8791  33.096  20.640  13.791
49696W        W 8792  23.586  42.894  14.006
49697W        W 8793  10.336   7.281  10.553
49698W        W 8794  32.507  17.603  10.967
49699W        W 8795  17.762  39.812  13.009
49700W        W 8796   4.245  26.112   4.801
49701W        W 8797  44.435  33.058   3.868
49702W        W 8798   4.337  25.572   1.364
49703W        W 8799  40.467  32.131  11.021
49704W        W 8800  26.652  42.387  11.863
49705W        W 8801  13.199  37.981  13.011
49706W        W 8802  20.191   6.897  10.583
49707W        W 8803   1.733  32.487   4.325
49708W        W 8804  43.015  26.656  11.882
49709W        W 8805   5.367   1.239   1.245
49710W        W 8806   2.274  27.023  11.118
49711W        W 8807   6.844  24.162  14.852
49712W        W 8808   6.253   2.319  12.539
49713W        W 8809  10.222  16.772  12.916
49714W        W 8810  22.131  12.171  14.005
49715W        W 8811  39.504  42.990  13.505
49716W        W 8812  44.794  24.559  14.891
49717W        W 8813   0.253  29.021  12.440
49718W        W 8814  16.760  43.279  10.910
49719W        W 8815   6.277  43.924   1.796
49720W        W 8816  44.910   2.236   4.773
49721W        W 8817   1.379  19.068  14.951
49722W        W 8818   9.188  30.029  13.327
49723W        W 8819  39.555  18.062   0.324
49724W        W 8820   9.741   2.369   0.335
49725W        W 8821  39.000  42.005   4.610
49726W        W 8822  12.839   4.301   3.162
49727W        W 8823  17.798   3.289   0.792
49728W        W 8824  25.694  42.934   0.886
49729W        W 8825   7.410  32.072   2.214
49730W        W 8826  17.597   0.911  10.998
49731W        W 8827  43.006  30.585   1.791
49732W        W 8828  43.768   7.366  10.545
49733W        W 8829   5.336  11.868  13.992
49734W        W 8830  11.650  11.139   2.186
49735W        W 8831  34.582  16.803   2.839
49736W        W 8832  10.699  17.777   1.449
49737W        W 8833  18.295   2.258   4.115
49738W        W 8834  42.997   1.735  11.408
49739W        W 8835  40.907   1.767   4.697
49740W        W 8836  36.964  20.041   4.681
49741W        W 8837  43.816  19.562  11.520
49742W        W 8838  13.334  37.467  12.567
49743W        W 8839  13.272  15.796   3.788
49744W        W 8840   5.710  11.815  11.103
49745W        W 8841  36.564  13.157  12.882
49746W        W 8842  28.511   3.296  12.540
49747W        W 8843   7.329  25.539  12.846
49748W        W 8844  30.543  39.046   4.687
49749W        W 8845  13.758  36.879   4.184
49750W        W 8846   2.786  25.702  13.418
49751W        W 8847  16.616  28.079   1.424
49752W        W 8848  14.281  35.882   3.306
49753W        W 8849  30.459  41.853   2.695
49754W        W 8850  23.673  40.912  13.951
49755W        W 8851  32.439   8.867   2.417
49756W        W 8852   9.176  24.605  11.096
49757W        W 8853  18.182   3.942   1.902
49758W        W 8854   6.368  10.301  12.871
49759W        W 8855   0.289  19.560  12.522
49760W        W 8856  12.808   2.462  12.031
49761W        W 8857  25.127  32.113  11.407
49762W        W 8858   8.717  12.729   1.211
49763W        W 8859  12.707  21.176  14.411
49764W        W 8860   0.906   9.889  12.855
49765W        W 8861  31.083   7.873  10.547
49766W        W 8862  23.734  20.040  12.828
49767W        W 8863  41.887   5.695   3.682
49768W        W 8864  42.349  39.523   4.285
49769W        W 8865  13.731  25.496   3.236
49770W        W 8866  23.594  36.869  12.918
49771W        W 8867  38.332  20.762   3.357
49772W        W 8868   3.287  41.495   0.351
49773W        W 8869   4.333   5.689   1.770
49774W        W 8870  14.702  19.715  14.325
49775W        W 8871  21.644  22.609   1.790
49776W        W 8872  21.163  17.638  10.553
49777W        W 8873  31.410  22.120  11.096
49778W        W 8874  11.367   0.458  14.286
49779W        W 8875   3.841   4.330  14.827
49780W        W 8876  36.579  21.582   2.267
49781W        W 8877  38.336   0.931   1.334
49782W        W 8878  15.732  27.100   4.216
49783W        W 8879  39.957   9.293  10.565
49784W        W 8880   5.754   3.856   3.305
49785W        W 8881  28.656  31.133  14.450
49786W        W 8882   7.705   4.352  13.007
49787W        W 8883   5.879  43.993  14.860
49788W        W 8884  10.644   4.902   4.683
49789W        W 8885  12.729  12.731  12.872
49790W        W 8886  16.075  12.677  13.538
49791W        W 8887   1.307  33.494   2.707
49792W        W 8888   7.811  41.458  13.854
49793W        W 8889  43.412  36.495  11.519
49794W        W 8890  16.099  44.880   0.792
49795W        W 8891  34.008  11.208  10.491
49796W        W 8892   2.284  37.343  11.580
49797W        W 8893   1.785  21.193   0.875
49798W        W 8894   1.411   4.312  12.471
49799W        W 8895   7.773  39.539   0.859
49800W        W 8896  43.943  43.901  13.797
49801W        W 8897  19.603  33.089  10.405
49802W        W 8898  41.400   5.319   3.175
49803W        W 8899   1.760  15.652  12.359
49804W        W 8900  24.549   8.394  12.865
49805W        W 8901  34.965  36.095  13.795
49806W        W 8902  40.342  19.181  14.845
49807W        W 8903  25.967  15.296  14.902
49808W        W 8904  18.747   0.276   3.260
49809W        W 8905  32.526  42.466   4.628
49810W        W 8906  21.156  42.946  10.609
49811W        W 8907  30.962   3.739   3.221
49812W        W 8908  31.922  22.204  10.075
49813W        W 8909  11.127  19.565   3.646
49814W        W 8910   4.208   6.206  13.864
49815W        W 8911   2.320  24.521  14.813
49816W        W 8912  11.654  29.064   2.346
49817W        W 8913  34.406  29.118  11.031
49818W        W 8914   2.413  16.639  13.846
49819W        W 8915  26.479   7.184   3.364
49820W        W 8916  31.966   8.322   4.703
49821W        W 8917  30.433  39.399  13.471
49822W        W 8918  11.199  17.622   5.105
49823W        W 8919  38.975  21.070  11.089
49824W        W 8920  35.380  32.408   2.736
49825W        W 8921  38.919  30.940  13.873
49826W        W 8922  13.137   3.282   3.766
49827W        W 8923  35.534  28.445  14.290
49828W        W 8924  16.296  14.134  14.320
49829W        W 8925  24.497  42.306  14.513
49830W        W 8926   1.814  40.046   3.647
49831W        W 8927  17.100  39.341   2.832
49832W        W 8928   8.296  25.675   5.178
49833W        W 8929  38.422  18.765  12.056
49834W        W 8930  38.557  32.472  11.861
49835W        W 8931  28.663  39.049   3.276
49836W        W 8932  35.935  24.684  12.933
49837W        W 8933  13.816  14.819  10.486
49838W        W 8934  38.853  19.578   4.627
49839W        W 8935  34.980  39.460  13.472
49840W        W 8936   6.824  11.181  10.977
49841W        W 8937  11.234  20.245   4.798
49842W        W 8938  19.559  43.827  10.910
49843W        W 8939  26.525   8.839  14.316
49844W        W 8940   6.858  13.223  14.806
49845W        W 8941  31.587  14.163   1.306
49846W        W 8942   4.223   5.829  14.013
49847W        W 8943  23.113  13.628   2.766
49848W        W 8944  38.914   7.298  10.086
49849W        W 8945   5.852  29.108   4.675
49850W        W 8946  43.988  19.042   0.831
49851W        W 8947  12.180  10.823  14.810
49852W        W 8948  10.293   2.878   0.763
49853W        W 8949  38.463  37.530  11.522
49854W        W 8950  10.821   9.658   4.597
49855W        W 8951  34.082   0.270  10.636
49856W        W 8952  20.221  12.669  12.830
49857W        W 8953  20.041  17.255  11.980
49858W        W 8954   4.854  32.583  12.363
49859W        W 8955  19.686  37.870   0.438
49860W        W 8956   1.380  41.398   2.719
49861W        W 8957   8.854  28.649   4.723
49862W        W 8958   2.894  14.777  14.383
49863W        W 8959  40.881  12.219  10.419
49864W        W 8960  24.018  34.420  12.486
49865W        W 8961  37.350  27.471   4.766
49866W        W 8962  23.578  28.454  12.061
49867W        W 8963  43.428  35.963   2.726
49868W        W 8964  22.058  17.639  14.323
49869W        W 8965  35.108   7.685   2.845
49870W        W 8966  40.483  11.777   2.382
49871W        W 8967  21.673  38.910  13.487
49872W        W 8968   8.682  38.976  10.467
49873W        W 8969  21.577   4.271   2.688
49874W        W 8970  39.420  37.839   0.326
49875W        W 8971  30.936  15.277   3.761
49876W        W 8972  28.091  26.006  11.951
49877W        W 8973  13.826  13.770   4.162
49878W        W 8974  38.063  29.921   2.843
49879W        W 8975  19.694   8.402  13.418
49880W        W 8976   9.870  34.431  14.814
49881W        W 8977  12.239   3.438   2.241
49882W        W 8978   9.216  20.139  12.425
49883W        W 8979  24.044  16.299   3.802
49884W        W 8980  37.502  39.007  13.865
49885W        W 8981  33.109  17.616  12.083
49886W        W 8982   0.815  29.146   1.733
49887W        W 8983   7.401  30.106   1.368
49888W        W 8984   7.674  17.730   4.151
49889W        W 8985   8.387  27.097   4.166
49890W        W 8986  43.482  13.807  14.947
49891W        W 8987  20.079  18.075  14.390
49892W        W 8988   5.703  34.417  12.375
49893W        W 8989  29.554  30.954  12.978
49894W        W 8990   6.370   7.869   2.832
49895W        W 8991  15.824  20.081  11.488
49896W        W 8992  24.638  30.595  12.884
49897W        W 8993  16.200  37.524   4.707
49898W        W 8994   3.360  27.540   9.534
49899W        W 8995  21.075  16.313  14.828
49900W        W 8996  25.634  41.381   2.731
49901W        W 8997  32.037  36.915  11.092
49902W        W 8998  16.107   5.713  10.418
49903W        W 8999  19.233  28.986   0.816
49904W        W 9000  26.174  17.697  13.530
49905W        W 9001   5.811  18.220   2.851
49906W        W 9002  17.147  43.880  12.875
49907W        W 9003   2.434   9.369  13.465
49908W        W 9004   0.442  44.293   0.964
49909W        W 9005  35.560   5.246  10.603
49910W        W 9006   6.231  33.386  11.073
49911W        W 9007  18.594  30.097   1.334
49912W        W 9008   2.894  39.854  12.837
49913W        W 9009   5.214  21.688  14.314
49914W        W 9010  43.324  37.476   0.961
49915W        W 9011   4.433   3.263   1.860
49916W        W 9012  23.721  33.917  13.978
49917W        W 9013  27.195  18.672  10.046
49918W        W 9014  11.155  42.470   1.283
49919W        W 9015  43.515  37.412  11.464
49920W        W 9016  35.958  34.493   2.391
49921W        W 9017  22.076  23.688   2.791
49922W        W 9018  44.803  19.707  14.819
49923W        W 9019  23.587  37.048  10.107
49924W        W 9020   3.418  29.104  12.097
49925W        W 9021  30.153  38.352   4.296
49926W        W 9022  37.404  38.472  14.924
49927W        W 9023  14.634  29.143   1.755
49928W        W 9024  44.789   8.291   4.115
49929W        W 9025   1.481  22.737  14.918
49930W        W 9026  14.336  27.003   1.769
49931W        W 9027  40.337  10.812  13.347
49932W        W 9028   1.832  30.577   3.308
49933W        W 9029  24.689  29.514  11.503
49934W        W 9030   4.385  22.165  12.967
49935W        W 9031  25.023  39.528  14.441
49936W        W 9032  39.369  28.133  11.556
49937W        W 9033  13.709  42.830   4.215
49938W        W 9034  19.256  14.742   0.473
49939W        W 9035  27.072  10.376  13.013
49940W        W 9036  31.539  23.567  12.033
49941W        W 9037   6.233  39.408   2.410
49942W        W 9038   4.231   2.940  14.307
49943W        W 9039  44.815  25.043  14.855
49944W        W 9040  15.116   6.701  10.512
49945W        W 9041   2.240  21.536  10.424
49946W        W 9042  23.696  16.206  12.543
49947W        W 9043  43.502  21.070  12.502
49948W        W 9044  15.676  28.497   4.813
49949W        W 9045  11.861  25.591  14.764
49950W        W 9046   6.861  43.991   2.827
49951W        W 9047  42.853  15.692  11.373
49952W        W 9048  37.414  22.719   1.351
49953W        W 9049  11.843  19.283  12.089
49954W        W 9050  29.547  32.023  14.014
49955W        W 9051   0.950  38.484   3.853
49956W        W 9052  14.652   4.828   3.227
49957W        W 9053  39.994  44.926  14.999
49958W        W 9054  29.045  33.583   3.340
49959W        W 9055   4.298  41.895  14.337
49960W        W 9056  41.042  40.028   4.325
49961W        W 9057  42.399  40.840  13.343
49962W        W 9058  31.412  19.087   9.998
49963W        W 9059  15.777  37.457  10.062
49964W        W 9060  40.981  20.558  13.018
49965W        W 9061  21.654  38.538  13.353
49966W        W 9062  11.784  42.788  12.069
49967W        W 9063  20.173  15.634   3.385
49968W        W 9064  42.453  18.235  10.444
49969W        W 9065  20.189  10.346  13.883
49970W        W 9066  34.578  39.317   0.885
49971W        W 9067   4.447  27.027   4.309
49972W        W 9068  44.855  16.236   1.314
49973W        W 9069  29.066  44.956   1.352
49974W        W 9070  31.531   7.787  12.558
49975W        W 9071  33.109   3.824  10.889
49976W        W 9072  23.020  18.088  10.101
49977W        W 9073  34.043  44.796  14.395
49978W        W 9074  37.499  26.042  13.997
49979W        W 9075  23.734  28.662   3.814
49980W        W 9076   8.701  40.886  12.503
49981W        W 9077  27.170  22.580   2.227
49982W        W 9078  13.756  32.995  14.483
49983W        W 9079   2.298  37.036  10.475
49984W        W 9080  14.170  38.397   3.630
49985W        W 9081  19.266   0.255   4.729
49986W        W 9082  34.059  18.579   0.915
49987W        W 9083  31.973  13.735  10.888
49988W        W 9084   2.247   9.757  14.785
49989W        W 9085  14.781   2.452   5.126
49990W        W 9086  30.132  17.725   2.389
49991W        W 9087  34.071  36.560  10.489
49992W        W 9088  31.122  16.804   3.817
49993W        W 9089  22.554  23.989  12.544
49994W        W 9090   6.885   6.394  12.058
49995W        W 9091  35.471  35.082   2.793
49996W        W 9092   1.755   3.930  10.604
49997W        W 9093   4.294  39.378  12.077
49998W        W 9094  14.716   7.704   4.248
49999W        W 9095  42.840  42.450   1.718
50000W        W 9096  25.599  17.589  13.521
50001W        W 9097  36.373  21.114  11.082
50002W        W 9098  42.936  26.531  12.450
50003W        W 9099  25.101   8.753   1.276
50004W        W 9100  40.327  42.815  13.011
50005W        W 9101  20.539  17.588   3.867
50006W        W 9102  18.174  10.640  13.389
50007W        W 9103  33.504  12.321  13.539
50008W        W 9104  15.188  31.607   4.212
50009W        W 9105   5.896  19.740  12.832
50010W        W 9106  27.111  21.235   3.692
50011W        W 9107  27.104  34.474   2.875
50012W        W 9108  12.696   6.338  10.466
50013W        W 9109  39.886  16.236   3.217
50014W        W 9110  22.067  38.030  10.591
50015W        W 9111  19.627  44.301   1.433
50016W        W 9112  12.200  25.182   3.185
50017W        W 9113  14.191   1.297   2.346
50018W        W 9114  38.879  29.443  12.939
50019W        W 9115  39.956  39.874   4.738
50020W        W 9116  39.896  39.829   1.844
50021W        W 9117   9.176  13.636  10.914
50022W        W 9118  24.627  13.259  13.373
50023W        W 9119  35.057  11.666   0.260
50024W        W 9120  20.074  23.021   3.169
50025W        W 9121  18.613   4.870   1.724
50026W        W 9122   0.764   3.256   1.400
50027W        W 9123  35.011  44.987   1.754
50028W        W 9124  16.237  27.457   1.318
50029W        W 9125  28.998   3.308   4.283
50030W        W 9126  37.960  12.179  11.018
50031W        W 9127  38.970   5.856   2.183
50032W        W 9128   6.295  14.160  11.062
50033W        W 9129   9.325  31.151  14.883
50034W        W 9130  36.008  28.031  12.355
50035W        W 9131  38.365  25.579   2.765
50036W        W 9132  42.953  36.006   1.313
50037W        W 9133  38.351  29.518   0.744
50038W        W 9134  30.113  11.707  12.026
50039W        W 9135   7.877  40.854   0.728
50040W        W 9136  27.647  35.017  12.854
50041W        W 9137  32.889  32.886   3.243
50042W        W 9138  28.525  31.541  12.829
50043W        W 9139   3.339  27.988   4.807
50044W        W 9140   8.868   4.897  13.345
50045W        W 9141  39.952  34.041   1.830
50046W        W 9142   2.431  36.962   2.858
50047W        W 9143  24.580  37.835  13.540
50048W        W 9144   0.415  23.225   3.844
50049W        W 9145   2.899  29.117  11.378
50050W        W 9146  14.642  28.608   2.384
50051W        W 9147  10.177  25.522   1.392
50052W        W 9148  13.817  36.564   0.385
50053W        W 9149  26.542  40.821   1.380
50054W        W 9150   5.716   7.669  10.504
50055W        W 9151  32.894  13.777  10.041
50056W        W 9152  28.597  38.989  11.119
50057W        W 9153  13.840   5.398   2.669
50058W        W 9154   6.761  13.166  12.580
50059W        W 9155  36.564  26.000  10.481
50060W        W 9156  32.080  12.610  11.947
50061W        W 9157  42.426   5.330   0.949
50062W        W 9158  40.337   4.893  12.401
50063W        W 9159  12.846  27.685  10.607
50064W        W 9160   9.677  18.619   0.900
50065W        W 9161   5.711  41.037  12.880
50066W        W 9162  37.364  25.106   3.789
50067W        W 9163  26.015  17.285   1.826
50068W        W 9164  10.151  31.984  14.838
50069W        W 9165  21.097   1.779   4.342
50070W        W 9166   8.330  38.870   2.250
50071W        W 9167   1.475  43.319   1.837
50072W        W 9168  43.499  30.007  13.449
50073W        W 9169  39.553  33.556  12.982
50074W        W 9170   6.415  30.039   2.718
50075W        W 9171  36.095  37.567  14.432
50076W        W 9172  26.539  10.751  11.120
50077W        W 9173   1.796  41.818  12.946
50078W        W 9174  34.931  19.538   5.251
50079W        W 9175  43.310   1.366  11.109
50080W        W 9176  35.549  39.958   4.706
50081W        W 9177  20.745  36.035   1.402
50082W        W 9178  22.130  28.507   1.212
50083W        W 9179   2.292  11.374   3.271
50084W        W 9180  18.224  19.773  10.971
50085W        W 9181  38.028  16.299  12.012
50086W        W 9182   9.387  15.669   3.281
50087W        W 9183   4.291  26.533   0.279
50088W        W 9184   1.363  14.195   4.661
50089W        W 9185  33.604  16.308  12.876
50090W        W 9186  43.804  14.184  13.420
50091W        W 9187  32.410  25.693  10.906
50092W        W 9188   0.748  27.040  14.884
50093W        W 9189  11.243  10.703  10.497
50094W        W 9190  32.092  25.152   1.298
50095W        W 9191  40.492  20.693  13.873
50096W        W 9192  17.757   0.856   0.409
50097W        W 9193  29.461  41.360  14.857
50098W        W 9194  26.577  13.229   5.204
50099W        W 9195  34.594  31.946   0.426
50100W        W 9196  40.040  11.132   0.756
50101W        W 9197  37.083  20.558   4.665
50102W        W 9198   2.342  36.964   3.764
50103W        W 9199   8.305  38.829   3.367
50104W        W 9200   7.677  42.822  13.426
50105W        W 9201  19.666  36.581   3.323
50106W        W 9202  23.576  37.424  14.358
50107W        W 9203  40.522  10.798   0.857
50108W        W 9204   6.400  27.145  10.455
50109W        W 9205  23.035   2.888  13.395
50110W        W 9206  13.113  30.651  14.357
50111W        W 9207   9.841  38.406   0.964
50112W        W 9208  13.242  41.360   4.207
50113W        W 9209  32.513  17.087  12.559
50114W        W 9210  11.330  17.218  12.527
50115W        W 9211  35.104  35.422   3.209
50116W        W 9212  24.003   5.749   0.353
50117W        W 9213   9.183  25.101   3.173
50118W        W 9214  43.314  16.727  12.522
50119W        W 9215   3.461   5.295   0.873
50120W        W 9216  19.081  29.666  10.907
50121W        W 9217  34.031  16.312   0.395
50122W        W 9218  10.260  39.013   2.737
50123W        W 9219   2.952  17.745   3.216
50124W        W 9220  41.827  24.104   1.413
50125W        W 9221  19.091  17.773   1.868
50126W        W 9222  22.032  44.465  13.017
50127W        W 9223  42.303  21.144  10.897
50128W        W 9224  25.627  20.161  10.601
50129W        W 9225  10.185  25.067   3.260
50130W        W 9226   7.797  21.067   1.702
50131W        W 9227  29.988  14.751  10.489
50132W        W 9228  35.538  34.575   2.258
50133W        W 9229   2.806  17.782   0.772
50134W        W 9230  36.965  15.292  13.466
50135W        W 9231  44.789  15.586   1.407
50136W        W 9232  40.958  12.131   4.773
50137W        W 9233  17.654  31.522  13.802
50138W        W 9234  14.793  22.045  14.779
50139W        W 9235  43.338  28.626   2.843
50140W        W 9236   5.815  19.711   1.334
50141W        W 9237   4.311  32.603  11.873
50142W        W 9238  37.890  15.764   2.302
50143W        W 9239   8.385  23.038  14.482
50144W        W 9240   6.743   8.853   4.343
50145W        W 9241  24.982   9.756   0.257
50146W        W 9242  31.049  37.386   3.870
50147W        W 9243   1.873  39.931   2.412
50148W        W 9244  20.129  22.599   2.737
50149W        W 9245  31.939   5.396  10.988
50150W        W 9246  25.198   6.721   3.210
50151W        W 9247  10.802  19.727   3.378
50152W        W 9248  37.837  10.383  10.524
50153W        W 9249  28.015  42.797  14.960
50154W        W 9250   2.876   9.235   4.604
50155W        W 9251  33.528  22.570  13.811
50156W        W 9252   5.315  38.030  13.535
50157W        W 9253  33.923   4.767  13.417
50158W        W 9254  40.442  33.514   0.836
50159W        W 9255  32.567  32.965  14.465
50160W        W 9256   2.361  21.601  12.417
50161W        W 9257  21.186  27.542  13.043
50162W        W 9258  10.642  10.145   2.372
50163W        W 9259  33.044  12.819  10.963
50164W        W 9260  10.300  34.049   3.264
50165W        W 9261  41.821  27.691   4.260
50166W        W 9262  13.711  26.078  12.970
50167W        W 9263   2.729   8.168  10.952
50168W        W 9264  19.697   1.426  10.576
50169W        W 9265  39.476   9.805   1.806
50170W        W 9266   0.842   0.403   2.750
50171W        W 9267  38.025  10.757   1.390
50172W        W 9268  30.924  17.679  11.924
50173W        W 9269  42.022   3.890   4.822
50174W        W 9270  38.831  43.967   1.909
50175W        W 9271   6.308   4.913   2.856
50176W        W 9272  34.992  32.409   2.874
50177W        W 9273  29.564  19.138   3.215
50178W        W 9274   0.850  11.725  13.381
50179W        W 9275  19.069  19.636   5.252
50180W        W 9276  17.646  35.878  12.382
50181W        W 9277  42.963  22.500   3.779
50182W        W 9278  36.495  38.035   1.781
50183W        W 9279  29.991  10.180   1.850
50184W        W 9280   9.751  17.248  14.470
50185W        W 9281   8.898  19.666  14.802
50186W        W 9282  44.383  42.776  11.957
50187W        W 9283   5.925  43.831   3.667
50188W        W 9284  33.394  11.712   2.278
50189W        W 9285  17.623  21.115  10.504
50190W        W 9286  43.802  25.690  12.894
50191W        W 9287   3.841  17.799   0.805
50192W        W 9288   6.772  36.975   3.818
50193W        W 9289  13.757   6.896  12.988
50194W        W 9290  22.554   2.389   4.128
50195W        W 9291  40.349  22.114   1.278
50196W        W 9292   7.686  34.454   2.324
50197W        W 9293  32.620  10.219   4.616
50198W        W 9294  19.272   8.775   1.389
50199W        W 9295  41.476  43.792  14.782
50200W        W 9296  19.603   8.775   1.351
50201W        W 9297   0.291  34.972  12.564
50202W        W 9298  43.457  17.578  13.802
50203W        W 9299  44.267   8.824   1.737
50204W        W 9300  33.902  43.271   4.725
50205W        W 9301  43.926   0.289  14.878
50206W        W 9302   1.332  23.735   1.822
50207W        W 9303  25.633  18.568   0.755
50208W        W 9304  24.154   4.918   4.208
50209W        W 9305  42.907   9.890  14.402
50210W        W 9306  30.109  39.548  14.004
50211W        W 9307   8.380  18.165  12.467
50212W        W 9308  23.708  19.660  14.292
50213W        W 9309  37.855  40.520  13.318
50214W        W 9310   9.205  10.851  11.927
50215W        W 9311  44.758   4.727   4.628
50216W        W 9312  25.611  25.110  14.014
50217W        W 9313  39.862  20.237  11.401
50218W        W 9314  17.636  41.854   4.218
50219W        W 9315  30.423  17.684  14.407
50220W        W 9316  11.791  21.609  12.996
50221W        W 9317  33.485  11.320  14.779
50222W        W 9318  30.054   8.403  11.058
50223W        W 9319  15.583  41.523  12.443
50224W        W 9320  29.986   4.398  11.537
50225W        W 9321  38.893  29.120   3.809
50226W        W 9322   6.903  11.143   1.409
50227W        W 9323  11.843  13.767   4.702
50228W        W 9324   6.223   7.776   1.240
50229W        W 9325   1.834  41.408  13.038
50230W        W 9326   6.834  12.722  14.773
50231W        W 9327  39.061   9.274   5.278
50232W        W 9328  37.575  34.954   0.470
50233W        W 9329   6.804   7.735   0.916
50234W        W 9330  35.501   9.284   4.167
50235W        W 9331  41.880  14.604  14.829
50236W        W 9332  31.425  40.847   4.749
50237W        W 9333  24.574  34.990  14.780
50238W        W 9334   2.787  18.102  14.855
50239W        W 9335  11.651  17.117   5.249
50240W        W 9336  17.238  25.125   4.654
50241W        W 9337  20.075  34.002   2.397
50242W        W 9338   1.971  13.675   3.206
50243W        W 9339  27.590  40.352  12.432
50244W        W 9340   4.917  41.328   3.735
50245W        W 9341   8.171   1.395   0.910
50246W        W 9342  37.374  30.089   3.245
50247W        W 9343   8.849  36.349   3.677
50248W        W 9344   6.923  32.439  12.397
50249W        W 9345  40.417  19.080  13.901
50250W        W 9346  38.061  16.675   3.749
50251W        W 9347  23.215  19.724  13.521
50252W        W 9348  17.067  43.407   3.358
50253W        W 9349  34.970   9.712  11.928
50254W        W 9350  20.048  30.454   4.120
50255W        W 9351   2.951  23.689   1.311
50256W        W 9352  12.145  26.071   4.214
50257W        W 9353  23.631   6.319   0.451
50258W        W 9354  13.117  26.683  12.452
50259W        W 9355  19.040  21.711  10.622
50260W        W 9356  10.658  10.254   3.827
50261W        W 9357  21.581  17.232  11.997
50262W        W 9358  39.347   2.883   3.211
50263W        W 9359  14.606  32.498  11.541
50264W        W 9360  34.373   8.254  11.410
50265W        W 9361   0.930  35.883  11.055
50266W        W 9362   7.906  22.124  13.001
50267W        W 9363  15.589   6.367  14.902
50268W        W 9364   2.741  18.133   0.298
50269W        W 9365  25.131  24.623   2.296
50270W        W 9366  10.311  42.910  14.402
50271W        W 9367  36.354  30.000   2.225
50272W        W 9368  25.991   7.399  13.931
50273W        W 9369  11.626  39.416  11.537
50274W        W 9370  18.127  11.865  14.280
50275W        W 9371  34.480  37.964  13.474
50276W        W 9372  30.482   6.194   1.933
50277W        W 9373  35.046  36.999   1.789
50278W        W 9374  22.146  28.460  13.050
50279W        W 9375  39.057  17.718   1.882
50280W        W 9376  36.559  31.567   0.814
50281W        W 9377  21.134   5.380   2.207
50282W        W 9378  34.603  25.039  13.471
50283W        W 9379  43.295  28.940   1.276
50284W        W 9380   4.324   8.405  13.003
50285W        W 9381  17.646  21.658  11.866
50286W        W 9382  32.531  29.050  12.863
50287W        W 9383  33.999  18.627   1.418
50288W        W 9384   3.325  33.888   4.242
50289W        W 9385  31.480   7.285   1.843
50290W        W 9386  24.708  36.499  11.881
50291W        W 9387  32.635  34.410  13.985
50292W        W 9388  34.963  23.596   0.434
50293W        W 9389  43.273  24.628  13.820
50294W        W 9390  28.992  23.523   0.371
50295W        W 9391  37.068  22.519  11.398
50296W        W 9392  38.902  37.563  11.032
50297W        W 9393  12.662  12.200  10.981
50298W        W 9394  22.025  26.036   2.818
50299W        W 9395   7.811  21.635  13.368
50300W        W 9396   3.943  39.885   0.286
50301W        W 9397  21.597   0.455  10.455
50302W        W 9398  11.698  21.166   0.954
50303W        W 9399  26.112  42.292   2.674
50304W        W 9400  20.769  37.850  10.496
50305W        W 9401  22.007  41.471  10.471
50306W        W 9402  22.603   7.229  12.536
50307W        W 9403  16.766  40.475  11.497
50308W        W 9404  37.029   0.309   2.379
50309W        W 9405   5.929  20.207   4.121
50310W        W 9406  25.532   4.871  10.156
50311W        W 9407  40.522  20.622  12.555
50312W        W 9408  23.128  34.876  10.629
50313W        W 9409  23.639  36.954  10.418
50314W        W 9410  11.302  36.024  10.603
50315W        W 9411  34.389  39.485  13.811
50316W        W 9412  15.224  23.027   2.761
50317W        W 9413  10.671  12.730   3.639
50318W        W 9414  34.983   9.813   2.764
50319W        W 9415  13.118  26.124  10.492
50320W        W 9416  24.194   7.367  11.075
50321W        W 9417  14.824   8.831   2.664
50322W        W 9418   5.357  24.060  13.873
50323W        W 9419   1.307  23.664   2.870
50324W        W 9420  39.325  18.756  10.611
50325W        W 9421   8.285  41.393  10.538
50326W        W 9422  13.737  20.091   4.262
50327W        W 9423   8.197  35.575  13.415
50328W        W 9424  40.892   8.790   0.882
50329W        W 9425  23.629  38.903  12.837
50330W        W 9426  20.235  40.801  12.406
50331W        W 9427  36.962  20.203  12.516
50332W        W 9428  44.362  34.037   1.835
50333W        W 9429  16.628  31.102  10.036
50334W        W 9430  37.043  32.910   1.794
50335W        W 9431  25.086  26.155   2.711
50336W        W 9432  40.395  20.097   0.763
50337W        W 9433  38.540  28.631   4.830
50338W        W 9434  44.407   2.810  13.013
50339W        W 9435  12.628   5.769  12.442
50340W        W 9436  30.996  37.443  13.487
50341W        W 9437   4.861  37.079   2.776
50342W        W 9438  14.633  35.010  14.932
50343W        W 9439  42.995  40.820   4.187
50344W        W 9440  18.627  31.977  12.461
50345W        W 9441  35.978  12.833  14.342
50346W        W 9442  32.468   2.746   1.333
50347W        W 9443   1.364   1.778   1.703
50348W        W 9444  19.235  44.856  12.348
50349W        W 9445  15.581   5.787   1.284
50350W        W 9446  39.942  34.384   3.183
50351W        W 9447  25.665  28.174  11.546
50352W        W 9448   9.361   2.313  11.964
50353W        W 9449  26.974  19.613  11.905
50354W        W 9450   3.805  30.657   1.259
50355W        W 9451  42.500   9.827  11.945
50356W        W 9452  35.512  36.409  11.483
50357W        W 9453  38.043  21.019   0.339
50358W        W 9454  30.044   6.186   2.874
50359W        W 9455  22.040  19.214  13.960
50360W        W 9456  25.622  26.123  13.006
50361W        W 9457  20.181  21.601   3.690
50362W        W 9458  41.963  14.113   1.445
50363W        W 9459  15.279  26.137   0.434
50364W        W 9460  31.981  32.548  10.976
50365W        W 9461  34.372  12.837  13.001
50366W        W 9462  35.425  31.443  13.932
50367W        W 9463  14.666  15.248   1.932
50368W        W 9464  36.467  29.490  12.491
50369W        W 9465  36.578   1.887   1.335
50370W        W 9466   0.449   1.383   3.836
50371W        W 9467  22.702   0.758   4.795
50372W        W 9468  23.228  10.353  14.425
50373W        W 9469  44.292  30.496  14.502
50374W        W 9470  10.246  15.323   5.754
50375W        W 9471  20.573  20.131  12.040
50376W        W 9472  31.060   1.941   1.810
50377W        W 9473  19.172  26.690   4.626
50378W        W 9474   5.849   3.782   1.880
50379W        W 9475  38.509  27.977  12.830
50380W        W 9476  29.044  13.284   4.723
50381W        W 9477  11.132  13.808  14.888
50382W        W 9478  20.766  33.037  11.446
50383W        W 9479  35.999  14.221  14.291
50384W        W 9480   0.853  39.517  12.522
50385W        W 9481  20.238  20.569  12.994
50386W        W 9482  30.010  36.441   2.888
50387W        W 9483   3.908  13.767   2.888
50388W        W 9484  30.941  16.120   9.664
50389W        W 9485  35.431  32.531   3.824
50390W        W 9486  32.506   7.256   3.191
50391W        W 9487   4.284   2.420   3.657
50392W        W 9488  24.211   3.268  14.823
50393W        W 9489  29.581   4.314  14.481
50394W        W 9490  37.983  12.305  11.594
50395W        W 9491   7.180  18.574  12.424
50396W        W 9492  33.576  23.621   0.358
50397W        W 9493  27.633   0.328  11.949
50398W        W 9494  19.071  42.008   4.783
50399W        W 9495  42.796  44.412  11.087
50400W        W 9496   1.961  31.928   0.729
50401W        W 9497  36.008  10.813   2.183
50402W        W 9498  19.075  24.549   0.915
50403W        W 9499  35.989  43.425  12.032
50404W        W 9500  37.911  31.048   3.306
50405W        W 9501  44.807  32.628  11.912
50406W        W 9502   1.933   6.209   1.790
50407W        W 9503  26.970  15.614  13.472
50408W        W 9504  33.103  12.218   2.806
50409W        W 9505  28.518   3.804  11.050
50410W        W 9506   3.373  43.410  12.376
50411W        W 9507  37.931   9.798   2.349
50412W        W 9508  38.570   8.349   1.935
50413W        W 9509  17.115  38.023  12.885
50414W        W 9510  28.950  44.395   0.849
50415W        W 9511   2.901  21.664  11.010
50416W        W 9512   5.371  11.217  11.505
50417W        W 9513  32.489  19.163  11.417
50418W        W 9514  43.327  41.432  12.887
50419W        W 9515  19.223  23.550  14.823
50420W        W 9516  16.569  14.262   1.829
50421W        W 9517   2.803   9.791  14.479
50422W        W 9518  27.542  21.068  11.030
50423W        W 9519   7.670  23.644   2.768
50424W        W 9520  17.747   1.423  11.104
50425W        W 9521   2.733  41.786  12.934
50426W        W 9522  14.821  23.124   0.363
50427W        W 9523  39.992  25.616   2.739
50428W        W 9524  37.010   1.294   0.373
50429W        W 9525   1.925  39.525   0.880
50430W        W 9526  24.134   8.322   1.841
50431W        W 9527  38.443  15.691  14.784
50432W        W 9528  40.450   0.474   4.677
50433W        W 9529  21.716  29.143  11.607
50434W        W 9530  20.569  32.423   4.687
50435W        W 9531   0.843  27.161   1.228
50436W        W 9532  20.173  13.743  11.987
50437W        W 9533  13.835  19.170   5.205
50438W        W 9534  23.067  24.650   1.308
50439W        W 9535  36.868  43.884   4.722
50440W        W 9536   4.801  19.626  11.111
50441W        W 9537  42.502   7.737   2.217
50442W        W 9538   0.396  28.462   3.715
50443W        W 9539  34.538  43.497  14.446
50444W        W 9540  16.701  22.140   0.739
50445W        W 9541  35.516  35.547   1.851
50446W        W 9542   1.861  41.424   1.721
50447W        W 9543  17.105  44.267   2.838
50448W        W 9544  18.599  17.159   4.793
50449W        W 9545  27.049  44.267   4.260
50450W        W 9546  26.152  32.997  11.007
50451W        W 9547  19.546  39.553   2.270
50452W        W 9548  13.630  40.010   4.311
50453W        W 9549  37.568  22.702   2.406
50454W        W 9550   1.350  20.712   4.162
50455W        W 9551  23.986  13.149  12.095
50456W        W 9552  24.562  29.449  13.535
50457W        W 9553  36.407  11.214   2.383
50458W        W 9554  10.334   2.763  13.864
50459W        W 9555  38.037  19.207   4.773
50460W        W 9556   7.308   8.747   4.347
50461W        W 9557   5.389  39.520   1.780
50462W        W 9558   8.306  31.090  12.915
50463W        W 9559  36.941  42.369   4.187
50464W        W 9560  12.129   0.986   1.450
50465W        W 9561  30.030   7.897   2.834
50466W        W 9562  44.306  25.976   4.174
50467W        W 9563  19.646  26.557  12.905
50468W        W 9564  18.149  44.392   2.706
50469W        W 9565  18.083  23.616   3.173
50470W        W 9566   5.411  10.151  11.929
50471W        W 9567  21.738   6.350   2.713
50472W        W 9568  30.511  37.380  14.894
50473W        W 9569  41.872   2.921   1.416
50474W        W 9570  33.900  26.478  10.134
50475W        W 9571  31.068   9.842  13.826
50476W        W 9572  29.090  31.424   0.788
50477W        W 9573  14.592  38.914   1.725
50478W        W 9574  15.712  34.927  12.975
50479W        W 9575  24.048  35.082   0.744
50480W        W 9576  17.287  35.547   1.922
50481W        W 9577  38.935  31.000   2.752
50482W        W 9578  37.029  14.115  10.028
50483W        W 9579  35.072  32.015   0.360
50484W        W 9580  35.084  41.935   2.189
50485W        W 9581  28.553  39.342   0.312
50486W        W 9582  20.746   5.340   2.374
50487W        W 9583  30.470  34.615   1.372
50488W        W 9584  37.900  38.339  12.345
50489W        W 9585  10.331  37.530  13.322
50490W        W 9586  38.868  29.952   0.953
50491W        W 9587  34.929   1.915  12.047
50492W        W 9588  12.760  17.131   1.251
50493W        W 9589  41.007   9.154   5.181
50494W        W 9590  33.491   6.320  12.489
50495W        W 9591  41.014  19.069  12.960
50496W        W 9592  38.048  24.195  11.425
50497W        W 9593  15.103  18.280  13.903
50498W        W 9594   0.395  35.966   1.429
50499W        W 9595  23.986  39.368  10.970
50500W        W 9596   5.369  19.742  14.876
50501W        W 9597  21.160  10.834  12.355
50502W        W 9598  25.045  43.790  13.997
50503W        W 9599  31.610   5.242  11.896
50504W        W 9600   9.710  29.948  10.583
50505W        W 9601  16.617  28.531  11.472
50506W        W 9602  32.398  29.175  11.381
50507W        W 9603  35.027  27.475   0.727
50508W        W 9604  25.111  11.811   3.173
50509W        W 9605   5.715   4.750  10.504
50510W        W 9606  13.649  10.745   0.800
50511W        W 9607   3.216  23.637  10.427
50512W        W 9608  13.630  34.503   3.150
50513W        W 9609  23.567  10.757  14.357
50514W        W 9610  14.683  13.615   4.186
50515W        W 9611  21.589   3.426  11.951
50516W        W 9612  21.188  26.975   2.733
50517W        W 9613  36.425  35.897  12.043
50518W        W 9614  15.187  12.251  13.448
50519W        W 9615  37.433  25.581  14.404
50520W        W 9616  28.101  38.066  12.050
50521W        W 9617  43.016  24.524   2.878
50522W        W 9618  44.858  29.982  14.357
50523W        W 9619  19.576  38.555   1.422
50524W        W 9620  15.734  22.542  10.561
50525W        W 9621  14.152  11.335   4.285
50526W        W 9622  17.233  30.911   4.637
50527W        W 9623  19.229  40.425   0.827
50528W        W 9624   3.735   4.873  12.845
50529W        W 9625   6.375  44.753   3.854
50530W        W 9626  19.205   3.327  13.908
50531W        W 9627   5.837  37.411   1.832
50532W        W 9628  14.755  34.417   1.263
50533W        W 9629  27.662  17.752   3.187
50534W        W 9630  13.844   4.289   0.779
50535W        W 9631  15.775  32.602  13.958
50536W        W 9632  11.280  26.076   3.671
50537W        W 9633   3.349  20.045   0.751
50538W        W 9634   5.328  34.396   1.827
50539W        W 9635   4.904   7.415   4.629
50540W        W 9636  18.249  42.462   0.913
50541W        W 9637   5.321   5.810  10.417
50542W        W 9638  41.515  15.170   1.894
50543W        W 9639   8.370  35.974   1.828
50544W        W 9640   0.433  15.764   3.843
50545W        W 9641   2.795   8.406   4.804
50546W        W 9642  33.922  12.702  13.907
50547W        W 9643  36.448   1.400   3.772
50548W        W 9644  22.732  19.765  13.473
50549W        W 9645  32.616   1.802   3.189
50550W        W 9646  10.268  23.523   1.398
50551W        W 9647   9.685  12.159   3.639
50552W        W 9648  41.027   4.756  14.366
50553W        W 9649  13.629  37.449   3.178
50554W        W 9650  33.954  44.474  14.817
50555W        W 9651  10.142   4.898  11.023
50556W        W 9652  44.011  30.075   2.787
50557W        W 9653  36.350   0.451  13.059
50558W        W 9654  10.809  17.605   2.348
50559W        W 9655   9.243  13.176   0.734
50560W        W 9656   5.277  18.550   2.179
50561W        W 9657  24.067   3.279  13.346
50562W        W 9658  28.528  18.094  11.504
50563W        W 9659  38.074  41.952  10.910
50564W        W 9660  32.060  20.245  11.612
50565W        W 9661  37.908  10.763   0.945
50566W        W 9662   0.493  42.501   4.791
50567W        W 9663  22.162  24.179   1.918
50568W        W 9664  30.508  23.042   0.268
50569W        W 9665  12.124  42.381   0.746
50570W        W 9666  11.195   1.455  14.287
50571W        W 9667   8.360  10.357   3.147
50572W        W 9668  38.495  25.971  14.395
50573W        W 9669  21.684  29.468  11.080
50574W        W 9670  17.716  28.570   0.892
50575W        W 9671  37.460  36.472  12.404
50576W        W 9672   5.749  41.466  12.933
50577W        W 9673  31.492  20.042   4.779
50578W        W 9674  25.702  36.997  14.866
50579W        W 9675   8.856  33.911  14.484
50580W        W 9676  25.574  28.128   1.849
50581W        W 9677  34.554  30.105  10.411
50582W        W 9678   8.338  14.151   4.121
50583W        W 9679  10.278   4.769   0.768
50584W        W 9680  15.598  21.251  14.283
50585W        W 9681  24.999  35.949   1.378
50586W        W 9682   1.477  26.577  10.517
50587W        W 9683  17.636   2.886   3.214
50588W        W 9684  32.082  41.359  11.428
50589W        W 9685  31.141  39.529   3.676
50590W        W 9686  35.456  37.941  12.532
50591W        W 9687  21.195  16.130   3.848
50592W        W 9688  25.506  21.051  13.019
50593W        W 9689  17.771  12.266   2.357
50594W        W 9690   6.768  36.984   4.763
50595W        W 9691  11.829   7.345   1.893
50596W        W 9692  42.988   8.216   1.780
50597W        W 9693   3.405  29.458  11.526
50598W        W 9694  16.711   5.914  13.845
50599W        W 9695  44.813  44.477   4.285
50600W        W 9696  24.987  29.164  12.008
50601W        W 9697  37.072   6.320   0.395
50602W        W 9698  21.583  35.578  13.912
50603W        W 9699  31.441  22.666   3.790
50604W        W 9700  18.092  12.349  12.845
50605W        W 9701  34.519  40.421   1.308
50606W        W 9702  35.383   3.400  14.461
50607W        W 9703   2.349  41.844   4.837
50608W        W 9704  24.545   1.383   0.834
50609W        W 9705  14.806  35.491   4.643
50610W        W 9706  43.777  16.619  14.431
50611W        W 9707  36.990   7.405   2.731
50612W        W 9708  18.625  23.690   1.782
50613W        W 9709   4.766  20.615  10.928
50614W        W 9710  19.671  36.435   2.862
50615W        W 9711   1.328  36.017  13.064
50616W        W 9712   6.423  33.511   3.332
50617W        W 9713  43.788   5.236  13.858
50618W        W 9714  12.201  18.768   1.334
50619W        W 9715  38.007  44.834   4.767
50620W        W 9716  36.084  27.613   3.378
50621W        W 9717   2.919   5.777  13.006
50622W        W 9718   1.804  27.531  12.460
50623W        W 9719   9.150  17.655  14.784
50624W        W 9720  14.601  32.090   1.416
50625W        W 9721  31.046  33.998   4.641
50626W        W 9722  20.186  42.901  10.597
50627W        W 9723  26.542  19.203  13.455
50628W        W 9724  38.925  38.832  14.773
50629W        W 9725   6.698  39.330  11.991
50630W        W 9726  14.810   2.335  14.807
50631W        W 9727  24.130  41.985   2.229
50632W        W 9728  10.854  37.063  14.398
50633W        W 9729  42.899  42.012  14.386
50634W        W 9730  13.782  28.587  11.077
50635W        W 9731  37.931  32.054   2.334
50636W        W 9732  27.013  27.498  11.902
50637W        W 9733   4.772  14.704   3.256
50638W        W 9734  16.099  12.258   1.870
50639W        W 9735  24.112   5.273   2.353
50640W        W 9736   8.206  39.007   0.360
50641W        W 9737  43.424  28.066  13.900
50642W        W 9738  27.059  39.490   1.892
50643W        W 9739  10.273  43.294  12.082
50644W        W 9740  17.241  28.538  11.381
50645W        W 9741  26.580  20.541  14.366
50646W        W 9742  19.654   6.423  12.953
50647W        W 9743   9.867  23.069  10.631
50648W        W 9744  35.466   0.851  12.952
50649W        W 9745  41.300  33.419  13.850
50650W        W 9746  39.343   7.889  13.877
50651W        W 9747   7.698  27.098   3.697
50652W        W 9748  11.338   6.221   3.289
50653W        W 9749  18.060  21.134   0.371
50654W        W 9750  33.380   0.950  13.473
50655W        W 9751  29.556  20.096  14.313
50656W        W 9752   4.854  14.231  13.377
50657W        W 9753   2.261  25.132  10.053
50658W        W 9754  11.854  32.024  11.990
50659W        W 9755  33.892   9.371   0.734
50660W        W 9756  28.634   9.266   0.739
50661W        W 9757   4.728  16.280  13.323
50662W        W 9758   8.791  34.519  13.984
50663W        W 9759  20.524  27.123  11.593
50664W        W 9760  41.444  42.468  12.361
50665W        W 9761   5.356  23.691   5.186
50666W        W 9762  16.732  24.545   2.859
50667W        W 9763  11.363  40.400  13.313
50668W        W 9764  20.532   0.461  11.981
50669W        W 9765   3.320  39.548  14.363
50670W        W 9766  43.414  20.050   2.746
50671W        W 9767  15.282  12.361  14.880
50672W        W 9768  23.072   6.780   9.966
50673W        W 9769  25.649   5.796   2.370
50674W        W 9770  19.578  14.326  12.466
50675W        W 9771  41.836  14.136   4.182
50676W        W 9772  41.799   7.749  13.380
50677W        W 9773  28.521   6.263  14.462
50678W        W 9774  30.581  32.582  13.543
50679W        W 9775  40.317   7.346  10.120
50680W        W 9776  22.532  24.120  14.790
50681W        W 9777  11.271   6.693  10.623
50682W        W 9778   8.296   4.322  13.855
50683W        W 9779   7.801  19.121   2.319
50684W        W 9780  33.495   7.222   3.722
50685W        W 9781   8.857  20.197   0.788
50686W        W 9782   4.348  16.616   3.362
50687W        W 9783  21.240  11.633  11.906
50688W        W 9784  24.975  28.051  12.416
50689W        W 9785  18.715  14.670  12.557
50690W        W 9786  36.481   0.869   2.198
50691W        W 9787  17.767  24.504  12.494
50692W        W 9788  42.861   7.816  13.054
50693W        W 9789  39.949  15.259  11.939
50694W        W 9790  10.799  34.991  10.916
50695W        W 9791  37.480  12.219   4.708
50696W        W 9792  42.844   8.680   0.934
50697W        W 9793   8.854  44.794   3.666
50698W        W 9794  15.240  38.034  12.923
50699W        W 9795   5.400   4.753   4.731
50700W        W 9796  30.458  43.356  13.056
50701W        W 9797  17.072  34.037   5.131
50702W        W 9798   1.768  28.140   2.305
50703W        W 9799  34.474   6.413  12.566
50704W        W 9800  31.023  39.908   0.777
50705W        W 9801   3.349  42.302  12.972
50706W        W 9802   9.729  15.812  13.425
50707W        W 9803  40.952   2.401  14.915
50708W        W 9804  10.819  42.825   3.844
50709W        W 9805   7.371  43.855   0.941
50710W        W 9806  16.578  20.273  12.876
50711W        W 9807   3.727  32.905  14.926
50712W        W 9808  38.849  32.910   5.316
50713W        W 9809   4.834  43.949  10.597
50714W        W 9810  42.030  28.931   0.457
50715W        W 9811  36.492  42.443   4.764
50716W        W 9812  10.819  22.213   2.336
50717W        W 9813   2.824  19.778  11.918
50718W        W 9814  10.671  30.950   2.665
50719W        W 9815  44.327  15.650  13.312
50720W        W 9816  15.088  10.252  10.989
50721W        W 9817  28.139  30.494  13.981
50722W        W 9818   6.772  42.026   0.454
50723W        W 9819  26.112  20.171   3.860
50724W        W 9820  18.262  25.640  12.827
50725W        W 9821  43.920  25.493  11.399
50726W        W 9822  27.490  13.182   3.699
50727W        W 9823   8.741  14.202  14.964
50728W        W 9824  42.999  32.610   4.193
50729W        W 9825  17.746  30.130  11.019
50730W        W 9826   3.297   4.756   1.349
50731W        W 9827  40.428   3.414  11.961
50732W        W 9828  13.184  36.068  14.821
50733W        W 9829  14.282   7.365  10.103
50734W        W 9830   3.878   6.711  14.404
50735W        W 9831  27.494   6.868  10.986
50736W        W 9832  31.949  22.137  14.945
50737W        W 9833  16.667  34.033  13.058
50738W        W 9834  22.714  32.487   1.296
50739W        W 9835  41.014  35.378   3.714
50740W        W 9836  12.766  32.031   2.377
50741W        W 9837  17.642  29.429  11.078
50742W        W 9838  40.859  21.579   1.787
50743W        W 9839   3.275  24.602   0.387
50744W        W 9840  43.837   6.767  13.849
50745W        W 9841  22.187  25.101  12.468
50746W        W 9842  37.080  11.711  12.907
50747W        W 9843  44.829  20.539  13.906
50748W        W 9844  36.005  37.387   5.172
50749W        W 9845  44.379  43.416   1.415
50750W        W 9846  25.625  23.533  12.940
50751W        W 9847  16.221  36.899   3.860
50752W        W 9848  13.135  11.668   3.776
50753W        W 9849   3.805  22.075   2.775
50754W        W 9850  39.014   7.396  14.868
50755W        W 9851  38.832  10.194  14.773
50756W        W 9852   4.835   7.863   0.248
50757W        W 9853  17.092  28.529   4.695
50758W        W 9854  38.403  14.615  11.403
50759W        W 9855  38.389   8.287   2.415
50760W        W 9856  10.188  39.906   4.282
50761W        W 9857  22.014  15.265   2.763
50762W        W 9858  19.658  18.059   3.230
50763W        W 9859   0.399   5.725  11.029
50764W        W 9860  10.195  22.179  12.017
50765W        W 9861  21.045  31.486   2.278
50766W        W 9862  39.531   4.225  10.636
50767W        W 9863  39.057  43.399   0.930
50768W        W 9864  26.041  12.204  11.031
50769W        W 9865   0.252  38.034   2.709
50770W        W 9866   7.175  28.155   9.479
50771W        W 9867  39.964  28.080   3.290
50772W        W 9868  35.560  20.652  14.925
50773W        W 9869  27.022  40.457   0.828
50774W        W 9870  33.029  12.124   2.221
50775W        W 9871  39.492  11.270   5.165
50776W        W 9872  34.459  17.721   4.312
50777W        W 9873  34.447  23.076   1.412
50778W        W 9874  22.029  31.024  10.498
50779W        W 9875  39.915  21.203  13.855
50780W        W 9876  23.614  28.610   0.415
50781W        W 9877  20.131  10.339   0.394
50782W        W 9878  37.913  22.012  12.547
50783W        W 9879  23.067  12.727  10.596
50784W        W 9880  13.817  42.021  12.514
50785W        W 9881  10.656  14.796  13.493
50786W        W 9882   1.977  37.439   3.192
50787W        W 9883  37.078  43.008  14.903
50788W        W 9884  20.165  16.270  11.127
50789W        W 9885  37.903  24.543  14.811
50790W        W 9886  34.614  35.361  13.838
50791W        W 9887  39.038  22.218  14.954
50792W        W 9888  31.148   8.380  12.526
50793W        W 9889  15.818  35.521  10.632
50794W        W 9890  21.118   2.896   2.685
50795W        W 9891  15.213   9.221  14.279
50796W        W 9892  30.130  33.902   1.861
50797W        W 9893  26.048  26.616  10.560
50798W        W 9894   8.165  22.229  13.874
50799W        W 9895  27.474  43.990   1.332
50800W        W 9896  22.108   5.335  11.977
50801W        W 9897  29.442   4.339   3.705
50802W        W 9898  35.062  13.637   3.387
50803W        W 9899  30.987  40.984   1.702
50804W        W 9900  24.570  27.975   2.728
50805W        W 9901  32.103  12.795  14.393
50806W        W 9902  20.617  19.176  14.796
50807W        W 9903   3.769  36.400  10.503
50808W        W 9904  34.912  40.928  12.424
50809W        W 9905  33.545  10.649  12.001
50810W        W 9906  32.091   6.702   3.655
50811W        W 9907  17.084  20.085  12.499
50812W        W 9908   0.493  23.128   1.720
50813W        W 9909  26.014  31.413   4.169
50814W        W 9910  44.986  11.805   2.834
50815W        W 9911  33.443   8.664  12.065
50816W        W 9912  44.440   5.210   2.197
50817W        W 9913  34.933  44.327  11.522
50818W        W 9914  12.161   9.203  13.987
50819W        W 9915  39.411  39.541   3.804
50820W        W 9916  40.466  31.449  11.963
50821W        W 9917  36.388  17.702   3.343
50822W        W 9918   2.470   9.175   2.761
50823W        W 9919  43.765  16.275  13.469
50824W        W 9920  17.660  16.792   2.734
50825W        W 9921   5.734  27.133  10.979
50826W        W 9922   9.686   1.475   2.188
50827W        W 9923  15.133  22.659   0.786
50828W        W 9924   6.408  29.668   2.363
50829W        W 9925   2.806   1.450  12.429
50830W        W 9926  36.581  10.362   1.364
50831W        W 9927  14.262  23.527   0.800
50832W        W 9928  11.340  11.822  11.473
50833W        W 9929   4.709  26.470  13.046
50834W        W 9930  31.415   3.433   4.292
50835W        W 9931  43.880  30.589  14.361
50836W        W 9932   0.800  22.071  11.878
50837W        W 9933  35.569  29.477   0.959
50838W        W 9934  28.083  16.131  10.936
50839W        W 9935  12.631  28.663  13.817
50840W        W 9936  24.723  44.873  12.070
50841W        W 9937   5.709  33.616  12.543
50842W        W 9938  30.424  32.986   4.191
50843W        W 9939  41.041   2.326   3.370
50844W        W 9940  42.491  28.581  11.566
50845W        W 9941  29.604   3.803  13.944
50846W        W 9942   7.252  13.333  14.779
50847W        W 9943  43.406  23.547   3.211
50848W        W 9944  32.614  30.451  10.493
50849W        W 9945  38.547  34.581  11.887
50850W        W 9946  18.183  16.205   2.251
50851W        W 9947  42.979  24.650  12.418
50852W        W 9948  21.156   1.309   0.807
50853W        W 9949  33.073  24.018   3.812
50854W        W 9950  16.235  30.464  12.871
50855W        W 9951  28.179  36.043   9.952
50856W        W 9952   2.380  36.581   3.204
50857W        W 9953   2.318  13.160   1.233
50858W        W 9954  33.563   9.718   2.376
50859W        W 9955   4.807  13.351  14.769
50860W        W 9956  44.428  19.770   1.708
50861W        W 9957  34.879  13.835   2.381
50862W        W 9958   6.753  20.061   0.402
50863W        W 9959  19.047  41.339  12.827
50864W        W 9960   5.776  25.144  10.958
50865W        W 9961  31.561  39.318  13.793
50866W        W 9962  35.588   4.941   4.208
50867W        W 9963  15.232  25.193   4.260
50868W        W 9964  39.390  31.088  13.815
50869W        W 9965   6.787  38.538   2.323
50870W        W 9966  27.680  30.615   0.949
50871W        W 9967  35.562  40.344   4.329
50872W        W 9968  44.273  42.915  12.456
50873W        W 9969   5.209  39.917   0.469
50874W        W 9970  37.082   9.265  14.397
50875W        W 9971   5.768  10.711  13.518
50876W        W 9972  41.901  35.022   4.120
50877W        W 9973  39.374  14.757   1.410
50878W        W 9974  24.219  25.575  10.527
50879W        W 9975  19.137  23.207   4.275
50880W        W 9976  14.667  12.230  11.108
50881W        W 9977  32.133  19.135   0.449
50882W        W 9978  26.014  17.655  12.499
50883W        W 9979  21.193   5.241   3.742
50884W        W 9980  14.794  23.542   0.733
50885W        W 9981  26.629  28.056   4.675
50886W        W 9982  42.015   4.723  11.865
50887W        W 9983   3.356  12.187  12.075
50888W        W 9984  22.084   7.357  11.569
50889W        W 9985  15.768   7.346  10.155
50890W        W 9986   6.411  26.162  14.465
50891W        W 9987  42.803  23.564  13.384
50892W        W 9988  36.854  14.649  11.973
50893W        W 9989  40.404  27.618   4.339
50894W        W 9990  20.547  27.115   4.284
50895W        W 9991  15.156  19.164   2.843
50896W        W 9992  22.073  39.945  10.491
50897W        W 9993  33.506   0.303   5.155
50898W        W 9994  13.213  23.493   0.371
50899W        W 9995  28.164  24.505  11.010
50900W        W 9996   4.746  44.268  13.793
50901W        W 9997  35.369  38.554   1.776
50902W        W 9998  36.965  23.985  14.295
50903W        W 9999  36.029  19.727   3.672
50904W        W10000  26.085  15.309   0.768
50905W        W10001  40.538  18.207   0.379
50906W        W10002  40.942  44.385  12.019
50907W        W10003  41.903  30.049  11.920
50908W        W10004  41.500  40.815  11.048
50909W        W10005  28.108   4.931  13.480
50910W        W10006  38.419   6.217   3.167
50911W        W10007   2.858  11.259   1.906
50912W        W10008  36.521  40.040  12.578
50913W        W10009   0.840  35.088   1.826
50914W        W10010  22.082  18.101  13.315
50915W        W10011  29.083   7.361  10.994
50916W        W10012  35.026  23.676  11.476
50917W        W10013   4.852   4.212  11.014
50918W        W10014  19.150  23.632   0.920
50919W        W10015  43.864  19.052  11.023
50920W        W10016   8.195  32.137  12.976
50921W        W10017   8.301  16.258  13.310
50922W        W10018  24.180  34.506   0.431
50923W        W10019  37.580  17.155  13.865
50924W        W10020   7.388  12.831  14.813
50925W        W10021  28.665  17.178   4.792
50926W        W10022  35.009  20.742   0.739
50927W        W10023  31.576  39.962  13.047
50928W        W10024   2.330  22.670  13.804
50929W        W10025  14.316  32.549   4.273
50930W        W10026  41.522  28.044   3.858
50931W        W10027  28.153   8.346  13.021
50932W        W10028  30.605   7.840   1.310
50933W        W10029  24.984   9.765  11.981
50934W        W10030  15.215  36.581   5.263
50935W        W10031  13.320  13.672   0.906
50936W        W10032  26.547  12.264   4.622
50937W        W10033  21.110  21.629  11.525
50938W        W10034  16.169  36.579  12.421
50939W        W10035  16.647  26.471   3.870
50940W        W10036  30.104  14.773  11.888
50941W        W10037   5.707  23.619   2.366
50942W        W10038  13.303  29.043   3.703
50943W        W10039  19.609  38.046  14.310
50944W        W10040  44.992  13.802  14.856
50945W        W10041  10.174  23.663  13.987
50946W        W10042  11.812  19.166   3.349
50947W        W10043  16.625  23.238   4.610
50948W        W10044   4.228  42.780  11.609
50949W        W10045  24.663   7.860   1.258
50950W        W10046  34.938   2.843   2.865
50951W        W10047  15.589  17.658   3.282
50952W        W10048  12.159  37.018  14.024
50953W        W10049   1.264  32.570  12.342
50954W        W10050  15.254  23.571   2.824
50955W        W10051  31.067   3.289  12.884
50956W        W10052  15.166  41.439  10.897
50957W        W10053  31.065  22.710  11.056
50958W        W10054  16.803  16.085  11.581
50959W        W10055  15.779   0.895  14.466
50960W        W10056  12.302  20.598   2.863
50961W        W10057  23.230   5.742  13.794
50962W        W10058   1.839  31.641   4.616
50963W        W10059  43.430  29.485  10.899
50964W        W10060   7.727  21.043  10.538
50965W        W10061  36.980  26.550  14.438
50966W        W10062  11.742  25.611  11.087
50967W        W10063  15.778  17.203  10.896
50968W        W10064   0.829  40.481  12.023
50969W        W10065   6.370   5.834   0.450
50970W        W10066  30.081  24.047  10.982
50971W        W10067  25.118  19.132  14.454
50972W        W10068  26.137  29.575  14.343
50973W        W10069  11.232  14.224  12.009
50974W        W10070  26.060   5.854   4.291
50975W        W10071   8.670  35.490  12.360
50976W        W10072  21.707   0.779  11.558
50977W        W10073  41.963  26.049   2.846
50978W        W10074  42.447  18.645   1.269
50979W        W10075  34.377   6.754  11.942
50980W        W10076  22.133  42.023  14.905
50981W        W10077  29.919  12.775  14.507
50982W        W10078  18.606  25.102  10.412
50983W        W10079   3.256  21.084  13.946
50984W        W10080   1.888  35.495   4.607
50985W        W10081  15.598  28.497  10.631
50986W        W10082   7.241  44.316   1.212
50987W        W10083   5.849  40.545  11.940
50988W        W10084  39.355  23.566  12.873
50989W        W10085  21.171  17.222   5.160
50990W        W10086  31.433  39.058  10.426
50991W        W10087   6.187  38.399  10.120
50992W        W10088  25.681  22.056  13.835
50993W        W10089   6.699   3.456   1.787
50994W        W10090  10.654   5.240   3.786
50995W        W10091  44.274  16.570  11.918
50996W        W10092  29.013  27.512   0.754
50997W        W10093  39.334  11.323   1.812
50998W        W10094  38.550  44.967  12.930
50999W        W10095  40.506  18.237  12.526
51000W        W10096  18.560  20.572   4.626
51001W        W10097  15.643  33.082  11.114
51002W        W10098  37.465  37.440   4.198
51003W        W10099  41.973  40.892  14.032
51004W        W10100  25.156  36.918  11.570
51005W        W10101  33.417  30.058  12.535
51006W        W10102  28.134   4.750   0.291
51007W        W10103   2.924  10.377  12.029
51008W        W10104  27.509  17.099   0.800
51009W        W10105  12.309  19.065   4.761
51010W        W10106  41.311  25.107   1.710
51011W        W10107  32.513  24.017   0.455
51012W        W10108  31.586  25.666   1.705
51013W        W10109  25.520  39.844  14.478
51014W        W10110  43.483  25.693  12.011
51015W        W10111  44.412  18.769   2.369
51016W        W10112  32.633  38.488   4.126
51017W        W10113  35.594  17.749   0.329
51018W        W10114  27.999  43.506  10.418
51019W        W10115  16.299  36.999   2.214
51020W        W10116  36.992   4.382   4.756
51021W        W10117  15.119   2.771   2.331
51022W        W10118  26.668  40.512  14.367
51023W        W10119  38.348  44.503   4.324
51024W        W10120   3.386  33.603   3.296
51025W        W10121   3.904  16.590   4.742
51026W        W10122  20.602  15.745  10.546
51027W        W10123  41.849  40.336   0.961
51028W        W10124  27.496   4.205   2.394
51029W        W10125   8.740   2.355   0.345
51030W        W10126  12.240  20.692  11.866
51031W        W10127  16.156  32.397  12.829
51032W        W10128  28.956   4.879   3.808
51033W        W10129  23.237  14.278  12.552
51034W        W10130  35.551  19.599  14.349
51035W        W10131  18.782  30.094   1.824
51036W        W10132  21.083  21.722  10.011
51037W        W10133   2.753   5.303   4.177
51038W        W10134  19.144  21.624   1.277
51039W        W10135   8.350  27.000   2.235
51040W        W10136  34.101  38.837  12.518
51041W        W10137  23.701  28.025   2.305
51042W        W10138  36.429  39.003   1.865
51043W        W10139  39.324  35.042   2.357
51044W        W10140  13.650  35.361  13.802
51045W        W10141  16.677  43.834   1.744
51046W        W10142   6.260  19.178   3.727
51047W        W10143  27.110  35.074   2.382
51048W        W10144   3.844   6.378   1.699
51049W        W10145  38.501  16.595   1.251
51050W        W10146   9.684  11.849   3.649
51051W        W10147  22.740  10.241   2.739
51052W        W10148  41.445   4.898  13.956
51053W        W10149  40.990  44.964  12.888
51054W        W10150  22.245  26.134  10.925
51055W        W10151  35.437  11.789  10.416
51056W        W10152   1.394   8.709  10.469
51057W        W10153   7.315  30.447   1.389
51058W        W10154  12.157  10.156  14.511
51059W        W10155  32.946  12.649   1.755
51060W        W10156  30.997  21.131   4.631
51061W        W10157  34.095  41.970  14.465
51062W        W10158  39.379  39.956   3.791
51063W        W10159  16.572  10.780   3.301
51064W        W10160  36.510  11.287   4.618
51065W        W10161  25.678  30.495   2.869
51066W        W10162   9.889   4.384   1.850
51067W        W10163  29.668  30.598   5.197
51068W        W10164  27.010   9.298   3.758
51069W        W10165   0.392  39.867  11.559
51070W        W10166  25.672  31.049  12.896
51071W        W10167  10.360  20.738  12.827
51072W        W10168   1.902   4.943  10.466
51073W        W10169  30.102  10.373  11.379
51074W        W10170  10.147  25.156  11.425
51075W        W10171   3.885  17.061  13.061
51076W        W10172  31.502   1.810   1.740
51077W        W10173  12.775  28.944  14.307
51078W        W10174  26.112  39.514   4.216
51079W        W10175   0.828  31.580  14.979
51080W        W10176  37.485  26.699  12.025
51081W        W10177  38.860   4.361   1.733
51082W        W10178  31.466   0.333   0.761
51083W        W10179  11.179  31.047  11.951
51084W        W10180  27.559  10.226   0.277
51085W        W10181  23.159  24.671   3.691
51086W        W10182   5.275   9.281  13.005
51087W        W10183  18.563  11.291   3.306
51088W        W10184  18.129  43.827   2.271
51089W        W10185  37.395  33.105  14.391
51090W        W10186   4.402  26.522  11.395
51091W        W10187   3.776  25.705   1.400
51092W        W10188  16.088  38.860  14.877
51093W        W10189  32.064  11.836  11.453
51094W        W10190   0.277  39.964  13.465
51095W        W10191  17.276  10.341  12.859
51096W        W10192  39.535  30.642   1.849
51097W        W10193  31.588  28.541  12.902
51098W        W10194  27.102   0.276   1.367
51099W        W10195  10.369  16.195  13.467
51100W        W10196   6.726  10.870   3.303
51101W        W10197   3.357  29.038  14.816
51102W        W10198  26.985   3.223   3.386
51103W        W10199  40.019   7.299  11.585
51104W        W10200  29.617   3.888  11.110
51105W        W10201   5.300  18.296  11.999
51106W        W10202  24.980   1.386  12.026
51107W        W10203  35.489  44.774  10.949
51108W        W10204  39.005  14.790  12.523
51109W        W10205  15.133  35.565   2.818
51110W        W10206   3.217  35.905  12.366
51111W        W10207  16.134   7.352  10.901
51112W        W10208  41.421  15.817  13.418
51113W        W10209  22.556  21.517   0.291
51114W        W10210  37.836  10.768   2.772
51115W        W10211  43.920   3.774  13.901
51116W        W10212  22.081  10.147  13.914
51117W        W10213   0.424   1.322   1.771
51118W        W10214   3.229  14.242   0.484
51119W        W10215  44.927   0.961   2.210
51120W        W10216  40.442   2.726   1.935
51121W        W10217  31.044  40.498  12.458
51122W        W10218  18.270  21.678   2.361
51123W        W10219  11.799   6.230   3.162
51124W        W10220  15.221  23.186   1.763
51125W        W10221  38.403  28.498  12.953
51126W        W10222  26.517  39.495   0.392
51127W        W10223   2.300   7.716   4.743
51128W        W10224  29.447  16.622  14.349
51129W        W10225  40.961  39.951  14.990
51130W        W10226   7.193  31.143  12.833
51131W        W10227  37.998   7.845  13.315
51132W        W10228  32.994  37.859   2.330
51133W        W10229  41.009  20.172   3.345
51134W        W10230  11.711  20.722  13.427
51135W        W10231   3.393  10.350  12.342
51136W        W10232  32.122   9.774  12.438
51137W        W10233   6.324  27.164  12.439
51138W        W10234  42.309  28.589   2.269
51139W        W10235   2.330  39.498  10.423
51140W        W10236  42.943  24.627   0.352
51141W        W10237  19.684  17.235  10.416
51142W        W10238   1.920  33.894  12.495
51143W        W10239  21.088  21.580   1.919
51144W        W10240  23.046   3.442   0.402
51145W        W10241  28.434  32.474   3.659
51146W        W10242  36.064   6.371  12.841
51147W        W10243   3.822  18.052   2.776
51148W        W10244  10.717  32.005  12.512
51149W        W10245  24.540  14.318   1.419
51150W        W10246  15.747  37.469   9.570
51151W        W10247  25.600  13.674  13.969
51152W        W10248  13.803  11.174  14.393
51153W        W10249  36.051  15.687  14.907
51154W        W10250  15.151  23.009   4.604
51155W        W10251  36.934  35.089   2.744
51156W        W10252  44.278   0.376   1.838
51157W        W10253  19.571  26.590  10.095
51158W        W10254  34.380  37.378   2.849
51159W        W10255  10.199  33.874   9.955
51160W        W10256   3.780  17.584  13.412
51161W        W10257  34.476  40.468   0.388
51162W        W10258   3.354   5.332  11.003
51163W        W10259  36.046  30.914  13.427
51164W        W10260   3.801  14.703  14.967
51165W        W10261  30.077  43.946   0.895
51166W        W10262  22.575   2.293  14.398
51167W        W10263   1.813  17.176   4.223
51168W        W10264   4.774  27.674  13.528
51169W        W10265   6.188   8.206   3.846
51170W        W10266   5.720   8.242   4.142
51171W        W10267  19.101   7.311   3.669
51172W        W10268  38.468  14.226   5.087
51173W        W10269  11.789  38.823  11.516
51174W        W10270  23.208  20.681   2.413
51175W        W10271  38.869   3.739  14.013
51176W        W10272  30.552  41.492  14.444
51177W        W10273  21.524   9.857   2.371
51178W        W10274  31.571  10.724  14.905
51179W        W10275  13.635   0.306  12.346
51180W        W10276  14.816  19.728   3.746
51181W        W10277  20.625  44.371   0.747
51182W        W10278  39.349  22.107   2.883
51183W        W10279  25.703   7.274  12.072
51184W        W10280   2.805  26.182  10.549
51185W        W10281  35.496  40.479  14.918
51186W        W10282  26.112   8.232  12.506
51187W        W10283  30.037  21.563   3.869
51188W        W10284  29.929  30.946   4.670
51189W        W10285   9.283  27.684   2.256
51190W        W10286   6.684  23.506   0.738
51191W        W10287  28.562   2.228  13.916
51192W        W10288   0.921  10.873   0.464
51193W        W10289  37.023   5.806  11.966
51194W        W10290   5.205  13.249   3.671
51195W        W10291  15.203  14.109   4.619
51196W        W10292  17.061  33.504   1.286
51197W        W10293  29.069  44.830  10.970
51198W        W10294  18.721   3.796   0.428
51199W        W10295  23.076  23.716  12.845
51200W        W10296  21.213  36.569   5.737
51201W        W10297   1.399  30.441   4.353
51202W        W10298   4.908  11.304   3.740
51203W        W10299  36.440   7.796  11.379
51204W        W10300  30.450   2.246   3.353
51205W        W10301  20.762  20.068  14.923
51206W        W10302  42.939  23.593   2.672
51207W        W10303   0.778   4.723  13.436
51208W        W10304  26.118  12.343  12.036
51209W        W10305   6.316  26.686  13.899
51210W        W10306  14.215  36.951  11.490
51211W        W10307  13.290  44.402  12.898
51212W        W10308  28.451  24.104   2.875
51213W        W10309  26.051  24.683  12.547
51214W        W10310  27.657  34.978   0.381
51215W        W10311   0.417   0.436   1.239
51216W        W10312  33.615  23.563   3.229
51217W        W10313  37.341  39.864  13.426
51218W        W10314  33.102  41.508  10.410
51219W        W10315  42.431  30.649   0.386
51220W        W10316   1.262  37.483   3.176
51221W        W10317  44.436   6.303  11.863
51222W        W10318   0.439   7.394   4.184
51223W        W10319  19.569   0.347   1.420
51224W        W10320   8.853   6.287   2.407
51225W        W10321  14.667  13.608   0.949
51226W        W10322  10.800  22.126  14.892
51227W        W10323  24.589  16.271   4.768
51228W        W10324  21.042   7.232   1.216
51229W        W10325  11.178  18.615   4.787
51230W        W10326  31.051  38.560   0.365
51231W        W10327  31.918  40.404   2.796
51232W        W10328   2.833  43.018  11.963
51233W        W10329  28.182  10.812   3.328
51234W        W10330  38.822  23.519  12.895
51235W        W10331  10.735  24.488  13.796
51236W        W10332  21.181  41.952  14.768
51237W        W10333   8.301   8.399  13.034
51238W        W10334  10.355   7.370   3.295
51239W        W10335  14.646   2.814  12.505
51240W        W10336  20.155   2.776  10.417
51241W        W10337  20.555  11.337   4.655
51242W        W10338  37.338  22.689  13.460
51243W        W10339   9.257  36.347  13.410
51244W        W10340  32.919  24.710  10.450
51245W        W10341  26.541   5.709  12.456
51246W        W10342   2.889  43.443  14.360
51247W        W10343  29.976   9.312   2.376
51248W        W10344  15.205  21.737  10.552
51249W        W10345   2.338  15.640   4.318
51250W        W10346  38.415  41.841   2.847
51251W        W10347  31.906  26.644   1.904
51252W        W10348  17.091  22.605   0.254
51253W        W10349   2.914   0.430   4.279
51254W        W10350  29.128  24.679   1.743
51255W        W10351  18.701  44.818  14.019
51256W        W10352  44.823  13.824  14.294
51257W        W10353  10.172  14.831   4.678
51258W        W10354   4.380  38.402  13.518
51259W        W10355  15.759  35.434  14.006
51260W        W10356   5.875   0.374   3.213
51261W        W10357  17.075  33.541   2.270
51262W        W10358  21.745  26.589  11.960
51263W        W10359  43.948  22.521  11.947
51264W        W10360  25.553   0.442   0.449
51265W        W10361   2.962  11.247  10.947
51266W        W10362  19.592  34.520   2.314
51267W        W10363  38.348  24.102  13.931
51268W        W10364  35.385  21.025   2.345
51269W        W10365   2.794  17.679  11.913
51270W        W10366  38.495   7.906  13.476
51271W        W10367  10.278  27.146  12.434
51272W        W10368  40.860  16.240   3.288
51273W        W10369   8.226  11.294  11.396
51274W        W10370  22.632  13.125   3.259
51275W        W10371  11.816  11.720   2.386
51276W        W10372   1.886  21.660   0.861
51277W        W10373   6.379   9.846  11.095
51278W        W10374  12.731  38.072   2.214
51279W        W10375  43.878  31.080   1.793
51280W        W10376  30.433  13.732  11.069
51281W        W10377  41.953  14.775  10.952
51282W        W10378  16.124  11.369  10.576
51283W        W10379  11.686  37.063   0.913
51284W        W10380  31.536  11.753   2.328
51285W        W10381  42.485  12.336  14.283
51286W        W10382  32.922  41.835   4.603
51287W        W10383  25.707  34.493  13.915
51288W        W10384  31.630  39.483   2.869
51289W        W10385  39.533  33.380  10.448
51290W        W10386  43.462   3.951   0.867
51291W        W10387  19.764  24.589  13.337
51292W        W10388  42.305   6.814   4.630
51293W        W10389  15.165  34.605  10.442
51294W        W10390  12.739  16.268   1.336
51295W        W10391  41.855  19.104   1.406
51296W        W10392  17.076  16.734  10.924
51297W        W10393  27.048  13.834  12.424
51298W        W10394  23.152  11.747   0.356
51299W        W10395   1.385  14.673  12.887
51300W        W10396  19.047  36.375  12.048
51301W        W10397  32.574   6.792  13.382
51302W        W10398  15.655  18.160  10.449
51303W        W10399  38.001  28.945  11.500
51304W        W10400  26.160  16.284   0.288
51305W        W10401  11.628  19.620   4.137
51306W        W10402   2.413   7.867  13.520
51307W        W10403  10.174  29.570  12.441
51308W        W10404  25.166  21.080  14.809
51309W        W10405  33.953  37.526  10.955
51310W        W10406  10.258   0.791   3.842
51311W        W10407  41.469  10.647   2.271
51312W        W10408  17.790   2.831  12.080
51313W        W10409  20.753   4.355  12.448
51314W        W10410  31.067   7.270  13.332
51315W        W10411   0.256   9.876   2.806
51316W        W10412  43.446  41.891  14.836
51317W        W10413  16.289  21.522  12.027
51318W        W10414   1.416  32.975  13.826
51319W        W10415  18.674  11.205  10.973
51320W        W10416   2.739  32.526   0.433
51321W        W10417  43.969  12.315   2.289
51322W        W10418   0.248  40.878  12.079
51323W        W10419   8.208  32.939  14.016
51324W        W10420   1.384  37.562  12.377
51325W        W10421  24.986  38.528  10.009
51326W        W10422  32.915  35.878   1.778
51327W        W10423  18.217  30.078  13.051
51328W        W10424   3.445  29.575   3.681
51329W        W10425  23.063  11.799   2.363
51330W        W10426  38.412  43.865   3.350
51331W        W10427  19.700  39.036   2.239
51332W        W10428  24.628  42.308  12.339
51333W        W10429  23.158  24.567   4.615
51334W        W10430  38.020  14.171  13.996
51335W        W10431  14.217  38.060   0.833
51336W        W10432  24.674  14.758  10.499
51337W        W10433  32.515  38.386  13.481
51338W        W10434   5.893  41.960   1.776
51339W        W10435  24.040  42.449  13.329
51340W        W10436  20.672  33.480  14.373
51341W        W10437  32.102   4.411   0.768
51342W        W10438  30.945  42.868   1.723
51343W        W10439  21.087  41.895   1.283
51344W        W10440  16.808  19.758  14.766
51345W        W10441  44.763  20.741  14.828
51346W        W10442   5.721  32.630   0.302
51347W        W10443   8.377  42.370  14.988
51348W        W10444  26.676  29.471  13.806
51349W        W10445  41.036  18.633  11.128
51350W        W10446  31.572  16.279  12.930
51351W        W10447   6.401  25.618   0.831
51352W        W10448  25.563  43.369  12.519
51353W        W10449  27.070  31.092   1.825
51354W        W10450  43.472  11.695  14.933
51355W        W10451   0.765  27.557   4.634
51356W        W10452   3.923   9.873  10.601
51357W        W10453  18.663  26.595   0.270
51358W        W10454  39.351  32.079   2.893
51359W        W10455  37.941  30.049   4.611
51360W        W10456  18.754  10.352   2.859
51361W        W10457   5.905   9.285  14.017
51362W        W10458   1.389  10.851  10.525
51363W        W10459  26.692  42.387  14.341
51364W        W10460  18.637  12.797  11.098
51365W        W10461   8.260  41.851   3.374
51366W        W10462  35.910   8.712  14.783
51367W        W10463   6.785  17.274  11.955
51368W        W10464   0.894  42.501   1.329
51369W        W10465  15.292   8.857   4.615
51370W        W10466  24.513  15.773   0.816
51371W        W10467  41.819  36.557   2.392
51372W        W10468  26.539  17.703   0.913
51373W        W10469   5.757  43.831   0.797
51374W        W10470  27.163  35.053  11.892
51375W        W10471  40.907  32.979  13.342
51376W        W10472   7.684  27.673   4.315
51377W        W10473  34.415   0.285   1.246
51378W        W10474  36.934  40.383  12.518
51379W        W10475  24.582  37.912  11.118
51380W        W10476   4.371   6.320   2.810
51381W        W10477  35.519   9.212  14.504
51382W        W10478  43.481  36.978   2.316
51383W        W10479  14.831  32.622  14.860
51384W        W10480  25.036  27.052   3.302
51385W        W10481  10.771  41.480   2.409
51386W        W10482  22.617  23.004   0.749
51387W        W10483   4.435   3.452  13.315
51388W        W10484   6.374  29.062   3.242
51389W        W10485  12.129  18.264   4.665
51390W        W10486  25.022  26.190   0.850
51391W        W10487  11.254  39.465  14.990
51392W        W10488  25.141  15.085  11.023
51393W        W10489  15.609   9.811   4.602
51394W        W10490  31.531  44.961   4.125
51395W        W10491  16.310  14.333   5.311
51396W        W10492  37.006   5.210  10.921
51397W        W10493  11.306  19.133  14.483
51398W        W10494   3.405   8.197  12.555
51399W        W10495  25.090  28.525  13.509
51400W        W10496   5.312  36.906  12.384
51401W        W10497   4.877   1.353   0.764
51402W        W10498   7.177   2.764  10.593
51403W        W10499   2.306  22.036  14.300
51404W        W10500  43.333  32.630  11.885
51405W        W10501   8.306  10.148   4.261
51406W        W10502  40.033  36.440  13.376
51407W        W10503   3.834  23.164  13.854
51408W        W10504  19.074  30.462   3.216
51409W        W10505   3.417   8.372  14.789
51410W        W10506  37.898  28.540  12.487
51411W        W10507   4.880  32.421  11.423
51412W        W10508  40.397  43.448  10.526
51413W        W10509  21.132  28.555   0.732
51414W        W10510  40.799  42.426   2.853
51415W        W10511  31.005   0.467   3.386
51416W        W10512  41.886  42.404   3.853
51417W        W10513  15.215  23.546  12.396
51418W        W10514  25.483  30.165   2.735
51419W        W10515   3.734  13.202  12.539
51420W        W10516  40.954  27.550  11.007
51421W        W10517   0.932   8.766   1.332
51422W        W10518  21.034  10.715  14.404
51423W        W10519  10.342  29.565   0.278
51424W        W10520  25.177   0.864  13.534
51425W        W10521   0.859  12.121   3.264
51426W        W10522   9.704  38.003   3.737
51427W        W10523  14.727  21.190   3.675
51428W        W10524  20.717   3.314  11.608
51429W        W10525  15.659  10.874   1.307
51430W        W10526  15.589  29.659  13.511
51431W        W10527  42.943  42.519   3.264
51432W        W10528   3.750  34.417   0.845
51433W        W10529   7.804  31.523  14.917
51434W        W10530  44.006   6.367  12.045
51435W        W10531  33.899  30.959   2.682
51436W        W10532  16.204  39.495  14.407
51437W        W10533  33.416  21.234   4.730
51438W        W10534  25.643   6.374   2.782
51439W        W10535   5.739  35.896  11.434
51440W        W10536  44.460   7.869  13.460
51441W        W10537  29.659  18.632  11.439
51442W        W10538  22.173  37.391   0.307
51443W        W10539   0.811  25.515  14.838
51444W        W10540  43.807  18.636  14.415
51445W        W10541  13.659  28.614  11.560
51446W        W10542   2.792  23.600  14.968
51447W        W10543  26.483  23.629   4.350
51448W        W10544   1.905  39.514   3.376
51449W        W10545  37.423  23.599  13.043
51450W        W10546   3.896  40.006  11.376
51451W        W10547  14.327   4.394   1.815
51452W        W10548  20.057  40.885   1.306
51453W        W10549  35.862  42.871   2.313
51454W        W10550  37.952  27.595   1.377
51455W        W10551  28.138  14.204   1.733
51456W        W10552  12.800  18.186  14.516
51457W        W10553  32.610  39.503   0.912
51458W        W10554  16.663  24.179   3.324
51459W        W10555  21.609  38.495  11.074
51460W        W10556  19.592  44.784   0.333
51461W        W10557  33.421  41.496  13.011
51462W        W10558  30.481  41.522  13.020
51463W        W10559   5.430  31.550  13.540
51464W        W10560  36.587  28.094  11.855
51465W        W10561  24.695  15.247   4.298
51466W        W10562  43.479  44.782  12.419
51467W        W10563  25.112  13.275  13.532
51468W        W10564   1.903  29.597  10.574
51469W        W10565  40.989  35.360   3.384
51470W        W10566   5.696  41.535  13.360
51471W        W10567   2.926  18.549  12.999
51472W        W10568  38.568  43.808  11.382
51473W        W10569  33.017  43.830  14.971
51474W        W10570   1.348  35.036  11.387
51475W        W10571  31.621  37.055   0.287
51476W        W10572  26.569  15.227   1.888
51477W        W10573  13.251   6.424  13.540
51478W        W10574  30.036   2.832  11.992
51479W        W10575  31.065  24.659   0.904
51480W        W10576  21.664  12.266   4.718
51481W        W10577  15.134   0.785   4.744
51482W        W10578  22.591  13.274  14.031
51483W        W10579  33.042  13.124  13.818
51484W        W10580  31.609  12.678  11.532
51485W        W10581  13.706  19.741  14.321
51486W        W10582  38.857   6.869  12.036
51487W        W10583   1.842   9.223  13.483
51488W        W10584   9.776  25.995  14.983
51489W        W10585  16.811  31.012   3.165
51490W        W10586   9.704   2.895  11.375
51491W        W10587   0.295  30.487   2.412
51492W        W10588  31.996   9.861  14.287
51493W        W10589  19.637  21.257   2.277
51494W        W10590   9.203  41.988  10.994
51495W        W10591  44.893  22.577  14.381
51496W        W10592  23.187   0.477  11.043
51497W        W10593  10.204  36.896   1.399
51498W        W10594  17.253   1.964   0.942
51499W        W10595  33.036   9.204  10.482
51500W        W10596  39.519   4.204  11.899
51501W        W10597  26.506  28.069  14.393
51502W        W10598  28.504  22.086  12.047
51503W        W10599   2.793  40.806   2.335
51504W        W10600   6.219  11.141   0.758
51505W        W10601  25.107  13.602  11.473
51506W        W10602  30.550  20.641  13.479
51507W        W10603  25.975  31.122   2.878
51508W        W10604  23.585  40.509  13.903
51509W        W10605  26.553  17.590   1.244
51510W        W10606  39.482   2.281   4.642
51511W        W10607  29.944   4.781  12.477
51512W        W10608   0.784  36.844   0.360
51513W        W10609  12.650   4.771   1.826
51514W        W10610  10.384  37.923  14.465
51515W        W10611   4.448  40.337  12.015
51516W        W10612  16.129  15.295  12.090
51517W        W10613  14.288  10.182  13.456
51518W        W10614  36.938   6.687   5.291
51519W        W10615  13.187   0.946  13.359
51520W        W10616   5.933  28.089   0.941
51521W        W10617  14.330  18.618  11.881
51522W        W10618   6.193  23.181  12.550
51523W        W10619   0.352  24.140  11.464
51524W        W10620   3.952  36.061  11.519
51525W        W10621  11.711   2.398  10.441
51526W        W10622   9.751   3.864   4.198
51527W        W10623  26.098  29.513   0.398
51528W        W10624  18.746  19.161  14.328
51529W        W10625  35.964  38.940  13.963
51530W        W10626  34.014  41.865  12.438
51531W        W10627   3.356  12.154   0.267
51532W        W10628  35.058  20.530  14.366
51533W        W10629  25.691  35.555   3.149
51534W        W10630  29.114  17.630  11.534
51535W        W10631  20.238  23.670  10.443
51536W        W10632  34.586   3.847  13.031
51537W        W10633  42.498  22.674  12.409
51538W        W10634  19.594   9.319  14.004
51539W        W10635  18.598   3.932   4.631
51540W        W10636   6.838  39.034   4.223
51541W        W10637  40.397  30.139  14.874
51542W        W10638  36.047  23.714   2.726
51543W        W10639  34.584  32.119   4.661
51544W        W10640  38.969   6.870  11.443
51545W        W10641  33.958  15.631  12.069
51546W        W10642   4.337  20.183   1.724
51547W        W10643  13.800   4.782   2.410
51548W        W10644   2.912  42.367   3.822
51549W        W10645  31.414  17.168   4.669
51550W        W10646  19.771   4.730   0.267
51551W        W10647   8.887  41.894  14.789
51552W        W10648  35.001   9.159   3.769
51553W        W10649  25.549  24.611  13.932
51554W        W10650  23.507   5.193   4.150
51555W        W10651  25.505  25.131  13.316
51556W        W10652  28.647  21.141   2.895
51557W        W10653   3.746  10.800   2.417
51558W        W10654   5.784   5.287   2.291
51559W        W10655  20.268   2.353  12.373
51560W        W10656  31.570  28.961   4.276
51561W        W10657  32.134   5.882   2.751
51562W        W10658  19.229  21.725   0.351
51563W        W10659  38.926  11.259   3.344
51564W        W10660   2.356  35.993  10.103
51565W        W10661  14.675  18.210  13.471
51566W        W10662  29.977  29.073   2.793
51567W        W10663   3.448  22.515  14.516
51568W        W10664  27.175  26.682  12.479
51569W        W10665  22.208  31.431   1.448
51570W        W10666   6.383  11.659  11.100
51571W        W10667  21.247  31.625  10.416
51572W        W10668  38.958  41.848  10.909
51573W        W10669  19.106   4.885   3.382
51574W        W10670  43.874  44.971  14.470
51575W        W10671  38.508  24.168   3.777
51576W        W10672  44.343  16.161   1.228
51577W        W10673  17.172  14.190  12.076
51578W        W10674   3.781  31.005  10.642
51579W        W10675   3.803  11.334   0.732
51580W        W10676   2.245   6.241   5.247
51581W        W10677   0.904  11.162   1.776
51582W        W10678  26.011  34.506  13.440
51583W        W10679  19.046   4.885  13.903
51584W        W10680  26.473  23.222   2.801
51585W        W10681  18.669  24.669   3.783
51586W        W10682  42.405  20.166  13.954
51587W        W10683   2.925  22.561   1.272
51588W        W10684  30.559  29.541  14.885
51589W        W10685  22.029  33.030   4.155
51590W        W10686  21.742  17.211   0.480
51591W        W10687  11.635   3.270   1.832
51592W        W10688  29.633   4.905   3.367
51593W        W10689  34.020  41.443  10.586
51594W        W10690  43.282   7.263  14.903
51595W        W10691  16.231  14.181  13.488
51596W        W10692   8.401  22.242  13.339
51597W        W10693  29.442  23.580   2.715
51598W        W10694  31.464  21.192  11.923
51599W        W10695  43.445  34.530  10.959
51600W        W10696  26.165  16.651   1.229
51601W        W10697  33.414  22.704  13.495
51602W        W10698   8.820   9.651  14.360
51603W        W10699  13.255  12.353   4.143
51604W        W10700  10.781  14.108  12.540
51605W        W10701  32.013  30.093   4.782
51606W        W10702  17.615  42.357  14.031
51607W        W10703  30.112   9.273   0.787
51608W        W10704  34.097   4.254  12.500
51609W        W10705   9.673  23.163  13.912
51610W        W10706   3.357  19.729   3.660
51611W        W10707   1.390   9.743  14.895
51612W        W10708   5.728  10.817   0.733
51613W        W10709  26.122  21.230  13.055
51614W        W10710   2.955  13.791  10.991
51615W        W10711  30.086  19.640   2.284
51616W        W10712  35.956  22.121  14.923
51617W        W10713   1.807   1.355   3.687
51618W        W10714  41.293  22.007   1.868
51619W        W10715   2.347  34.386   1.405
51620W        W10716  20.067  37.498  11.933
51621W        W10717  44.962  23.519   0.311
51622W        W10718  35.543  19.542   2.902
51623W        W10719  19.185  20.723  12.863
51624W        W10720  18.093  43.797   4.274
51625W        W10721   6.835  18.713  13.868
51626W        W10722  22.582  40.039   1.697
51627W        W10723  37.966  12.314   1.262
51628W        W10724  18.585  39.967  12.046
51629W        W10725  38.546  36.554  13.479
51630W        W10726  27.105  41.316  10.613
51631W        W10727  17.087  18.744  13.469
51632W        W10728  35.852  15.732  10.471
51633W        W10729  23.658  28.157   1.700
51634W        W10730  39.891  13.688   3.826
51635W        W10731  38.523  16.686   2.357
51636W        W10732  10.232  35.931  11.066
51637W        W10733  29.587   7.274  11.509
51638W        W10734   8.712  25.998  13.356
51639W        W10735  32.096  42.399  12.901
51640W        W10736  23.630  30.545  12.486
51641W        W10737  40.514   3.943  12.555
51642W        W10738   6.182  11.165   0.422
51643W        W10739  30.047  24.708  11.602
51644W        W10740  22.221  17.066  10.524
51645W        W10741   7.175   8.388   4.199
51646W        W10742  36.422  41.019  12.462
51647W        W10743   1.272  17.604   1.347
51648W        W10744  21.703   1.409  11.432
51649W        W10745  21.553  19.256  14.493
51650W        W10746  41.942  37.406  13.500
51651W        W10747  24.708  12.308   2.276
51652W        W10748   7.878  18.675   3.640
51653W        W10749  40.937   4.859   3.870
51654W        W10750   9.231  18.598   1.351
51655W        W10751   5.778   0.795  13.477
51656W        W10752  31.905   5.840  13.930
51657W        W10753  28.468  28.979   2.244
51658W        W10754   3.721  20.074   4.628
51659W        W10755  32.051   8.258  14.323
51660W        W10756  16.788  34.996   4.339
51661W        W10757  10.287   0.462   5.246
51662W        W10758  27.036   9.770  11.058
51663W        W10759   1.756   0.348   0.745
51664W        W10760   2.841  25.592  10.958
51665W        W10761  39.457  40.360  12.984
51666W        W10762  38.858  37.989  11.384
51667W        W10763  18.186  33.044   0.906
51668W        W10764  26.193   4.761  14.956
51669W        W10765  41.992  28.099  10.998
51670W        W10766  27.023  27.608   2.788
51671W        W10767   1.886  17.661   2.677
51672W        W10768  12.201  30.573   9.441
51673W        W10769  40.990   1.837  14.367
51674W        W10770   4.781  40.804  10.535
51675W        W10771  30.546  33.556   4.641
51676W        W10772  32.931  25.141   4.336
51677W        W10773  43.925   3.289   1.263
51678W        W10774  37.838  38.474   1.717
51679W        W10775  32.417  28.471   1.278
51680W        W10776  19.695  12.125  13.828
51681W        W10777  28.567  10.747   3.785
51682W        W10778  29.585  14.746   0.282
51683W        W10779  19.722   4.836  12.947
51684W        W10780  32.140  23.227   5.789
51685W        W10781  24.139  17.157   0.463
51686W        W10782  15.595  32.943  10.534
51687W        W10783  25.070  31.924   1.312
51688W        W10784  32.440  16.705   1.718
51689W        W10785  21.745  13.842   3.221
51690W        W10786  16.703  25.120  11.994
51691W        W10787   5.203  20.731   3.844
51692W        W10788  28.577   9.681   0.244
51693W        W10789  27.669  41.852  13.956
51694W        W10790   1.976  20.248   2.233
51695W        W10791  19.275  30.584  14.896
51696W        W10792  29.126  32.104   3.285
51697W        W10793  34.116  36.398   4.815
51698W        W10794  27.597   9.772  11.034
51699W        W10795  22.633  42.504  14.817
51700W        W10796  14.779  25.183   1.696
51701W        W10797  25.595  26.035  10.993
51702W        W10798  41.415  31.138  11.997
51703W        W10799  33.028  22.054   1.406
51704W        W10800  35.598  42.026  13.524
51705W        W10801  27.644   5.330   1.841
51706W        W10802  18.292  42.979   5.157
51707W        W10803   3.416  26.626   1.268
51708W        W10804  25.626  10.836  10.584
51709W        W10805   5.807  41.805   1.392
51710W        W10806  25.138   9.804   3.700
51711W        W10807  39.333  18.706   4.654
51712W        W10808  38.425  30.962   0.324
51713W        W10809  40.917  43.489  14.276
51714W        W10810  15.136  28.455  14.370
51715W        W10811   2.413  21.058   4.773
51716W        W10812  17.069  25.179   3.323
51717W        W10813  21.637  19.275  10.914
51718W        W10814   9.295  37.913  12.942
51719W        W10815  14.815  38.534  12.545
51720W        W10816  10.199  37.859  13.347
51721W        W10817   9.855  24.117  12.435
51722W        W10818  32.027  27.027  12.046
51723W        W10819  33.528  33.131   4.662
51724W        W10820   8.889  24.716  14.888
51725W        W10821   3.289   6.787   2.803
51726W        W10822  33.507  21.217  11.492
51727W        W10823  36.579   9.383   1.734
51728W        W10824  20.613   8.382  13.388
51729W        W10825   1.473  17.226  12.939
51730W        W10826  11.641   7.198   1.287
51731W        W10827  44.405   9.370  11.015
51732W        W10828  38.992  23.002  13.933
51733W        W10829  20.051  25.484  12.476
51734W        W10830   3.822  24.997   2.805
51735W        W10831   5.806  42.387   3.383
51736W        W10832  26.007  41.863   1.440
51737W        W10833   4.910  36.020   3.643
51738W        W10834  18.725   4.238  13.312
51739W        W10835  23.091  39.478   3.303
51740W        W10836  33.101  26.476  10.628
51741W        W10837  24.183  19.696  13.392
51742W        W10838  17.162  12.698  14.841
51743W        W10839   6.817  42.326   2.252
51744W        W10840  24.045  44.828  10.935
51745W        W10841  26.168  24.099  10.452
51746W        W10842  18.142   7.219   9.970
51747W        W10843  38.392   2.838  14.353
51748W        W10844  40.811   7.739  14.900
51749W        W10845  42.917   6.365   2.735
51750W        W10846  23.685  12.643  14.848
51751W        W10847  13.350   7.381   2.711
51752W        W10848   6.285  24.718  10.515
51753W        W10849  19.271  33.933  10.997
51754W        W10850  35.430  20.179  13.329
51755W        W10851  24.600  14.666  12.094
51756W        W10852  15.727   9.810   3.717
51757W        W10853  14.779  41.007  10.891
51758W        W10854  27.006  37.046  13.334
51759W        W10855  42.361  17.643   2.864
51760W        W10856  32.045   3.767  11.479
51761W        W10857  25.468  31.462   2.190
51762W        W10858  27.985  23.031  11.986
51763W        W10859   3.304  25.006   1.877
51764W        W10860  34.025  23.653  12.836
51765W        W10861  26.468  23.659   1.336
51766W        W10862   3.326  39.831   4.163
51767W        W10863  11.774  14.179  14.990
51768W        W10864  26.039  25.705  11.961
51769W        W10865  21.694  35.105  11.494
51770W        W10866  31.454  27.483   4.612
51771W        W10867  41.969  10.256  10.090
51772W        W10868  14.775  44.825  14.906
51773W        W10869  35.898  20.214   0.931
51774W        W10870  27.052  32.090   1.783
51775W        W10871  22.696  20.060  13.364
51776W        W10872  31.114  40.919  14.487
51777W        W10873  34.060  12.852  10.589
51778W        W10874   1.250  16.800   1.844
51779W        W10875  23.209   9.889   2.775
51780W        W10876  16.077   3.439   1.243
51781W        W10877  36.491   0.766  14.433
51782W        W10878  12.283  40.530   0.427
51783W        W10879  32.105  18.057   2.790
51784W        W10880   2.851  25.214  10.467
51785W        W10881  29.941  37.484  11.865
51786W        W10882  26.014  30.126  14.770
51787W        W10883   1.284  30.642   4.608
51788W        W10884   1.937  14.096   3.246
51789W        W10885  39.946  25.180   1.364
51790W        W10886  34.516  30.596   2.725
51791W        W10887  37.957  15.744   4.182
51792W        W10888   5.428  37.934   1.261
51793W        W10889   1.864  27.465  10.588
51794W        W10890  19.752  27.496   0.917
51795W        W10891  38.872   0.885   0.832
51796W        W10892  15.613   6.265   2.291
51797W        W10893  44.462   2.771   1.246
51798W        W10894  39.044   4.256  10.430
51799W        W10895  12.765   1.457  14.385
51800W        W10896   4.721  11.296  12.578
51801W        W10897  44.902  25.704  12.453
51802W        W10898  40.989  11.754  11.572
51803W        W10899  17.187  13.249  13.509
51804W        W10900  12.654  34.099  13.909
51805W        W10901  29.560  15.149   1.801
51806W        W10902  15.793  40.893   2.312
51807W        W10903  26.029   3.810  14.941
51808W        W10904  18.754  28.985  12.890
51809W        W10905   2.446  37.547  14.760
51810W        W10906  25.702  29.941  13.540
51811W        W10907  11.139  28.023  13.976
51812W        W10908  29.164  43.814  13.354
51813W        W10909   5.432  32.476   3.377
51814W        W10910   3.717   9.653  13.491
51815W        W10911  19.070  16.755   0.744
51816W        W10912   9.330  15.084   4.312
51817W        W10913  41.835   7.319  12.359
51818W        W10914  43.919  29.608   4.630
51819W        W10915  16.091  30.566  14.315
51820W        W10916   6.788  35.404   4.646
51821W        W10917   1.916  10.673  13.033
51822W        W10918  36.963  44.313  11.021
51823W        W10919  13.218  17.607  14.419
51824W        W10920  37.955  10.181  14.762
51825W        W10921  20.653   3.368  12.477
51826W        W10922  20.736  41.293  10.522
51827W        W10923   5.235  37.997   0.473
51828W        W10924  11.347  30.624   3.696
51829W        W10925  42.875  43.994  14.478
51830W        W10926  25.980   5.357   0.731
51831W        W10927   3.252  29.492  12.986
51832W        W10928   8.240  18.646  14.987
51833W        W10929  16.731   8.792  11.101
51834W        W10930  23.736  15.186  13.875
51835W        W10931   0.766   4.269  14.803
51836W        W10932  27.609  13.600  11.537
51837W        W10933  12.683  44.391  12.077
51838W        W10934   7.195   9.890   2.840
51839W        W10935  35.459  32.445   1.431
51840W        W10936  43.872   4.220  13.857
51841W        W10937  10.243  28.087   4.271
51842W        W10938   4.745  44.813   4.705
51843W        W10939  11.220  26.966  11.876
51844W        W10940  13.623  14.719  13.340
51845W        W10941  40.345   4.835  13.393
51846W        W10942  39.011  36.020   1.369
51847W        W10943  15.811  43.772   1.703
51848W        W10944   9.807   8.299  14.411
51849W        W10945  27.066  23.199  12.981
51850W        W10946  39.889   4.928  11.540
51851W        W10947  23.566  35.415  10.951
51852W        W10948  13.156  17.243   3.847
51853W        W10949  16.569  23.658   0.781
51854W        W10950   4.775   4.281  11.933
51855W        W10951  11.361  34.516  12.990
51856W        W10952  17.301  21.548  13.369
51857W        W10953  29.961  21.699   2.819
51858W        W10954  24.006  11.767  13.417
51859W        W10955  29.985  32.082  12.081
51860W        W10956  32.580  13.242  12.086
51861W        W10957  40.878   8.240  12.390
51862W        W10958  25.977  24.562   0.307
51863W        W10959  25.179   8.267   4.142
51864W        W10960  17.684  23.099  11.517
51865W        W10961  32.955  44.392   4.216
51866W        W10962  43.934  41.478   1.350
51867W        W10963  22.210  18.704   0.958
51868W        W10964  26.129  32.990   5.135
51869W        W10965   7.260   3.312  14.811
51870W        W10966  35.953  17.636   1.849
51871W        W10967  30.152   4.823   4.338
51872W        W10968   1.732   7.390   0.303
51873W        W10969  24.606  35.860  10.456
51874W        W10970  10.152  12.262   4.753
51875W        W10971   8.740  24.097  13.060
51876W        W10972  37.878  21.024  14.962
51877W        W10973  20.745  24.481   2.801
51878W        W10974  32.983  11.691   3.651
51879W        W10975  33.002  24.688   4.255
51880W        W10976  41.858   5.268  11.058
51881W        W10977   8.364  38.889  12.978
51882W        W10978  41.956  21.112  13.392
51883W        W10979  37.466  22.664   1.928
51884W        W10980  11.360  16.188   3.747
51885W        W10981  17.670   3.798  13.450
51886W        W10982  43.330  34.966   2.691
51887W        W10983  37.838  14.281   2.318
51888W        W10984  44.899  10.238  10.642
51889W        W10985  30.518  16.100  14.790
51890W        W10986  11.270  35.433   1.431
51891W        W10987  27.468   6.331  10.950
51892W        W10988  33.523  33.456  14.894
51893W        W10989  11.282  34.085   0.336
51894W        W10990   5.416   8.195   0.409
51895W        W10991   7.252   9.280   2.742
51896W        W10992  29.639  29.007  12.019
51897W        W10993   0.819  26.170  11.901
51898W        W10994  22.043  36.019   3.646
51899W        W10995  33.109  18.160  12.569
51900W        W10996  29.594  21.018  12.861
51901W        W10997   2.468  13.183   0.413
51902W        W10998   0.791  26.534   0.430
51903W        W10999  41.917  25.980   1.890
51904W        W11000  27.686  44.398  14.763
51905W        W11001   8.327  18.584  11.975
51906W        W11002  24.694  16.137  10.991
51907W        W11003  27.450   6.347  12.465
51908W        W11004  15.249  38.351   1.806
51909W        W11005  15.316  39.400   4.797
51910W        W11006   3.422  43.366   4.133
51911W        W11007   3.250   9.191   3.353
51912W        W11008  42.304   7.711   0.320
51913W        W11009  31.940  25.542  14.358
51914W        W11010  21.612   9.780   3.271
51915W        W11011  20.272  11.712   2.736
51916W        W11012  10.228  37.387  10.151
51917W        W11013   2.944  15.310   0.796
51918W        W11014   8.704  40.866  10.903
51919W        W11015  40.430  25.565  13.859
51920W        W11016  44.010  18.601  13.519
51921W        W11017  22.609  21.069   1.296
51922W        W11018  44.958  33.880  11.052
51923W        W11019  21.154   1.442  14.813
51924W        W11020  22.089   5.773  12.861
51925W        W11021  40.526  33.019  12.953
51926W        W11022  42.513  29.598   0.878
51927W        W11023  20.043  40.939  12.043
51928W        W11024   7.831  15.618  14.441
51929W        W11025  26.463  25.672   2.751
51930W        W11026  21.560  17.140  12.951
51931W        W11027  12.637  14.175  14.911
51932W        W11028  35.068  22.009  11.892
51933W        W11029  36.063  39.961  14.380
51934W        W11030  44.291  21.258  14.937
51935W        W11031  36.090   1.883   3.711
51936W        W11032  34.027  35.987   1.730
51937W        W11033  44.475  25.492   4.725
51938W        W11034  16.704  22.105   4.657
51939W        W11035  33.468   0.864  12.856
51940W        W11036  34.455   6.280  14.936
51941W        W11037  26.144  29.168   4.756
51942W        W11038  21.647  15.622  13.408
51943W        W11039   6.300   2.326   0.801
51944W        W11040  40.312  36.381  10.414
51945W        W11041  13.210  26.978   1.389
51946W        W11042  37.517  25.482  10.949
51947W        W11043  21.019  15.687  13.840
51948W        W11044  30.019   2.379   0.874
51949W        W11045  10.301  44.322   0.369
51950W        W11046  22.211  12.245   1.820
51951W        W11047  26.139  27.610   3.233
51952W        W11048  40.046   0.869  11.914
51953W        W11049  15.218  41.963   4.682
51954W        W11050  25.618  44.378   3.274
51955W        W11051  19.126   8.818  11.890
51956W        W11052  16.305  41.392   2.257
51957W        W11053   4.839  29.477   4.712
51958W        W11054  26.461  14.728   2.250
51959W        W11055   3.390  10.225   4.676
51960W        W11056  34.082   4.841  10.446
51961W        W11057  25.521  31.059   1.880
51962W        W11058  37.553  34.026  12.830
51963W        W11059  27.092   8.759   0.284
51964W        W11060  32.957  38.456  12.550
51965W        W11061  39.020   6.417   0.458
51966W        W11062  24.562  10.186  10.573
51967W        W11063   2.290  18.617   2.320
51968W        W11064  13.207  35.983  11.431
51969W        W11065  25.515  30.493   0.916
51970W        W11066  18.677  23.118  10.974
51971W        W11067  29.121  33.125   5.082
51972W        W11068   0.881  19.110  10.979
51973W        W11069  24.218   4.361  12.847
51974W        W11070  14.678  25.987   3.838
51975W        W11071  15.730  32.573  11.457
51976W        W11072  18.784  14.802   1.230
51977W        W11073  44.921  22.048   1.805
51978W        W11074  30.077  19.569  13.882
51979W        W11075   4.887   7.862   3.790
51980W        W11076  16.220   2.903  14.870
51981W        W11077   0.749  17.751  12.899
51982W        W11078  10.788  26.680  13.544
51983W        W11079   0.458  32.041  13.324
51984W        W11080   4.378  19.106  11.461
51985W        W11081  16.167  32.484   1.836
51986W        W11082   6.787  33.084  11.859
51987W        W11083  13.788  37.558  12.434
51988W        W11084  20.571  28.971  11.075
51989W        W11085  42.856  29.537  13.342
51990W        W11086  20.049  28.577  11.466
51991W        W11087  31.643  23.051  12.440
51992W        W11088  35.950  10.726  14.279
51993W        W11089  23.138   6.913   1.716
51994W        W11090  34.066  13.336  13.386
51995W        W11091  29.014  32.953  11.411
51996W        W11092  16.251  19.221  12.414
51997W        W11093  26.629   4.765   2.384
51998W        W11094   1.425   6.917  12.408
51999W        W11095  36.493  17.664  11.506
52000W        W11096   0.790   0.445   4.196
52001W        W11097  37.449  38.361  13.450
52002W        W11098  14.751  30.951   0.395
52003W        W11099  38.974  23.204   2.776
52004W        W11100  38.868  26.959  13.856
52005W        W11101  12.709  28.437   3.769
52006W        W11102  30.480  19.200  13.834
52007W        W11103  18.718   7.274  10.887
52008W        W11104  21.603  13.736   2.212
52009W        W11105  31.907   8.841  11.476
52010W        W11106  24.668  32.110   1.348
52011W        W11107  31.902  26.201   2.835
52012W        W11108  38.038  11.360   0.469
52013W        W11109  22.650  29.012   4.631
52014W        W11110  38.939  38.410  14.447
52015W        W11111  19.776   6.241   1.244
52016W        W11112  16.644   2.784   1.846
52017W        W11113  11.189  44.393   0.962
52018W        W11114  34.533  22.693  13.932
52019W        W11115  21.694  31.421   1.430
52020W        W11116  31.484  12.212  11.017
52021W        W11117  28.461  36.384   4.135
52022W        W11118  24.027  36.550   4.264
52023W        W11119  27.056   1.783   5.193
52024W        W11120  42.410  20.710   4.228
52025W        W11121  34.587  34.047   1.225
52026W        W11122  17.646  21.694   2.826
52027W        W11123  19.656  25.534   4.798
52028W        W11124  19.199  35.934  10.021
52029W        W11125  16.204  30.604   4.236
52030W        W11126  39.877  34.519  13.475
52031W        W11127  40.417  23.196  14.375
52032W        W11128  18.604  43.953   2.808
52033W        W11129  32.397  16.763   4.192
52034W        W11130  32.574  20.219   3.708
52035W        W11131   1.247  24.170   1.925
52036W        W11132  28.553  24.996   3.778
52037W        W11133  27.136  25.986   3.775
52038W        W11134  40.493  30.932  14.396
52039W        W11135  33.928  12.631   4.274
52040W        W11136  36.552  41.528   4.722
52041W        W11137   0.880  31.937  11.383
52042W        W11138  44.862  15.788   1.910
52043W        W11139  11.366  29.477  11.450
52044W        W11140   6.816  12.355  13.439
52045W        W11141  24.044  21.750  11.524
52046W        W11142  42.428  12.258  12.997
52047W        W11143   8.389   2.942  13.452
52048W        W11144  12.624  28.984   4.800
52049W        W11145  15.687  26.979   0.463
52050W        W11146   2.891  14.297  11.375
52051W        W11147  18.076  42.915  13.847
52052W        W11148  38.025  16.620  10.496
52053W        W11149  42.864  19.127   3.358
52054W        W11150  19.638  21.521  10.980
52055W        W11151   2.399   9.759   1.417
52056W        W11152  31.589  18.675   2.195
52057W        W11153   1.368  27.538  10.917
52058W        W11154  37.965  25.120   1.428
52059W        W11155  40.367  14.663  14.788
52060W        W11156   4.208  22.510  13.873
52061W        W11157   4.823  31.648  12.951
52062W        W11158  38.350  30.098  14.992
52063W        W11159   7.202  41.027  13.845
52064W        W11160   4.771  13.156   1.868
52065W        W11161  39.421   8.873  12.939
52066W        W11162  44.882   2.961  11.546
52067W        W11163  30.925  42.299  12.339
52068W        W11164   8.195  14.254  14.004
52069W        W11165  17.169  43.442   3.762
52070W        W11166  17.684  14.766  11.386
52071W        W11167  12.847  38.999   3.815
52072W        W11168   4.209   9.211   3.340
52073W        W11169   0.314   9.868  10.460
52074W        W11170  34.996  18.066   2.771
52075W        W11171  29.595  22.142   4.715
52076W        W11172  44.411  30.079  13.448
52077W        W11173  16.661   1.832  13.491
52078W        W11174  25.994  23.178   1.731
52079W        W11175  14.780  13.183  13.953
52080W        W11176  39.809  28.964   1.278
52081W        W11177  15.278   1.385   2.858
52082W        W11178  30.085  34.899  10.436
52083W        W11179  35.439  28.464   3.313
52084W        W11180  20.173  26.633   0.747
52085W        W11181  34.583  41.817  11.579
52086W        W11182  41.490  32.416   4.815
52087W        W11183  15.791  25.215  11.899
52088W        W11184  35.878  43.377   2.299
52089W        W11185  17.673  38.887  10.029
52090W        W11186   6.868  44.785  12.445
52091W        W11187  29.106  12.756   2.368
52092W        W11188  27.613  20.194   2.335
52093W        W11189  38.330  15.192   4.834
52094W        W11190  29.991  28.680   0.726
52095W        W11191  28.492  20.529   4.671
52096W        W11192  22.146  41.873   0.298
52097W        W11193  20.062  43.422   4.318
52098W        W11194  11.340   7.874  14.926
52099W        W11195  32.023  28.031   2.662
52100W        W11196  15.259   3.303   4.601
52101W        W11197  38.389  41.028  10.526
52102W        W11198  29.100   6.778   4.630
52103W        W11199  23.601  21.103  11.039
52104W        W11200  42.387  35.976  11.125
52105W        W11201   4.284  24.557  14.287
52106W        W11202  18.118  42.005  11.869
52107W        W11203   1.824   5.233  10.473
52108W        W11204  40.985  23.111  13.841
52109W        W11205  16.675  39.933   3.712
52110W        W11206  13.823  19.091  14.881
52111W        W11207  20.767  24.510   1.873
52112W        W11208   0.395  12.344   2.865
52113W        W11209  36.544  26.604   4.686
52114W        W11210  19.225   2.359   1.252
52115W        W11211   9.810  19.154  14.815
52116W        W11212   3.286   9.152   1.370
52117W        W11213  11.712  41.493   3.369
52118W        W11214  25.082  36.539   4.324
52119W        W11215  26.991   1.283   3.337
52120W        W11216  36.480  28.143  11.410
52121W        W11217  19.095  10.317   3.714
52122W        W11218  38.849  26.007  12.938
52123W        W11219   5.325  20.627  10.459
52124W        W11220  12.844   9.859   1.837
52125W        W11221  44.827  33.493  14.922
52126W        W11222   1.889  31.957   0.455
52127W        W11223  25.486  21.665  14.823
52128W        W11224  23.495  16.719   3.731
52129W        W11225  29.093  18.271   3.226
52130W        W11226  11.200  36.569   4.288
52131W        W11227  10.778   8.307   1.393
52132W        W11228  29.993  10.664  13.351
52133W        W11229   2.250  16.280   2.860
52134W        W11230   8.215  24.699  12.913
52135W        W11231   9.235   5.810   3.671
52136W        W11232  43.948  15.773  14.288
52137W        W11233  14.162  23.128  11.086
52138W        W11234  33.602  30.591  12.030
52139W        W11235  37.512  26.473  13.929
52140W        W11236  21.100  31.084   1.267
52141W        W11237  38.550  23.647   4.821
52142W        W11238  18.082  42.373  14.494
52143W        W11239  17.556   4.871  12.430
52144W        W11240  40.019  16.077  11.093
52145W        W11241  44.304  21.148  10.536
52146W        W11242  11.832  15.691   0.758
52147W        W11243  32.043  43.993   0.417
52148W        W11244  18.117   7.851  10.406
52149W        W11245  14.222  17.081   2.220
52150W        W11246  42.889   0.744  14.490
52151W        W11247  30.029  41.918  13.946
52152W        W11248  30.016  25.068   5.152
52153W        W11249   1.975   2.796  12.473
52154W        W11250  16.125  14.783   3.734
52155W        W11251  30.418   6.224  14.279
52156W        W11252  43.949  10.866  12.424
52157W        W11253   3.785  13.276   2.283
52158W        W11254   0.858   2.962   0.242
52159W        W11255  19.055  15.295   1.824
52160W        W11256   3.267  20.644  12.938
52161W        W11257  39.368   5.839   4.795
52162W        W11258  29.598   9.157   4.226
52163W        W11259  12.719   2.288   3.642
52164W        W11260  12.727  30.459  13.812
52165W        W11261  14.255  11.661  14.996
52166W        W11262  27.664  43.458  14.822
52167W        W11263  28.129  11.332   0.895
52168W        W11264  10.733  20.583  11.115
52169W        W11265  26.513  15.634   0.280
52170W        W11266  42.983   7.345   0.831
52171W        W11267  16.748   4.881   4.802
52172W        W11268   7.772  13.196   1.361
52173W        W11269   8.248  37.854   3.787
52174W        W11270  35.393  31.910   1.739
52175W        W11271  33.453  18.702  13.868
52176W        W11272  30.960  27.672   5.162
52177W        W11273  40.859   3.914   0.415
52178W        W11274   8.764   8.664  14.290
52179W        W11275  11.131  41.880   3.663
52180W        W11276  44.820   7.292  14.776
52181W        W11277  30.001  23.583  11.096
52182W        W11278   4.218   2.310  12.891
52183W        W11279  21.146  26.034   2.873
52184W        W11280  10.289   2.455  11.055
52185W        W11281  16.174  20.274   3.216
52186W        W11282  20.685   3.900   3.643
52187W        W11283  34.387   1.774  13.991
52188W        W11284   6.835  12.683  14.289
52189W        W11285  30.583  34.543  13.806
52190W        W11286  37.886  27.080  13.890
52191W        W11287  32.406  11.236   4.801
52192W        W11288   2.768  40.012  14.792
52193W        W11289  41.306  27.613  12.475
52194W        W11290  11.626  29.474  12.377
52195W        W11291  41.015  30.076   0.780
52196W        W11292  26.644  23.181   1.383
52197W        W11293  37.834  24.626   4.255
52198W        W11294  19.723  26.493   3.848
52199W        W11295  35.095   5.287  10.915
52200W        W11296  15.628  44.933   4.119
52201W        W11297  30.461   9.651  11.930
52202W        W11298  23.624  42.342  13.469
52203W        W11299  21.183  17.194  13.896
52204W        W11300  28.156  11.826  10.954
52205W        W11301  20.262   3.820   1.774
52206W        W11302  32.633  12.762  11.426
52207W        W11303  21.715  13.175  12.086
52208W        W11304  33.394  39.527  14.307
52209W        W11305  44.761   0.336  11.580
52210W        W11306  37.047  11.855   3.798
52211W        W11307  12.655  38.056   1.788
52212W        W11308   8.782  30.451   1.271
52213W        W11309   4.263  14.138  14.862
52214W        W11310  33.478  42.814  11.446
52215W        W11311  12.779  32.960  10.631
52216W        W11312   4.919  35.073  14.468
52217W        W11313  33.531   5.816   0.843
52218W        W11314  27.459   3.279  12.493
52219W        W11315  24.158  25.203   2.893
52220W        W11316  23.104   3.296  14.327
52221W        W11317  24.999   0.746   2.230
52222W        W11318  44.800  20.143  13.906
52223W        W11319  41.370  35.038   4.333
52224W        W11320  19.257  38.835   1.327
52225W        W11321  14.258  31.408   4.607
52226W        W11322   7.334  20.753  11.069
52227W        W11323   3.758  27.150   2.251
52228W        W11324  17.605  42.962  10.439
52229W        W11325  31.924   9.869   2.396
52230W        W11326  13.621  38.398  12.574
52231W        W11327   6.406  41.504  13.831
52232W        W11328   0.947  11.293  13.343
52233W        W11329  29.172  28.458   3.725
52234W        W11330  30.598  27.648   0.727
52235W        W11331   0.982   3.953   4.630
52236W        W11332  35.379  42.837  13.811
52237W        W11333  21.251  15.128  14.490
52238W        W11334  10.761  21.252  12.985
52239W        W11335  34.102  37.410  11.565
52240W        W11336   6.241  15.310   2.903
52241W        W11337   9.842   0.968   3.732
52242W        W11338  43.471   1.968  12.907
52243W        W11339   5.824  26.141  13.935
52244W        W11340  21.634  44.927   2.345
52245W        W11341  24.069  29.622   1.325
52246W        W11342  41.873  44.813  14.849
52247W        W11343  15.239  27.011  14.440
52248W        W11344  36.047   9.350  13.912
52249W        W11345  16.164  18.248  10.569
52250W        W11346   2.333  43.393   0.729
52251W        W11347  30.546  17.080  12.096
52252W        W11348  22.561  36.982  12.087
52253W        W11349  12.291   2.336   4.201
52254W        W11350  17.652   8.841  14.421
52255W        W11351  10.141  39.385  10.915
52256W        W11352  16.624  43.861   2.806
52257W        W11353  27.155  44.460   3.838
52258W        W11354  21.232  26.032   2.321
52259W        W11355   9.829   7.681   2.812
52260W        W11356  12.227  34.420  14.922
52261W        W11357   1.481   5.275   4.236
52262W        W11358  37.363  14.163  11.560
52263W        W11359  20.632   3.459  12.096
52264W        W11360   1.303  21.627  13.450
52265W        W11361  11.266   0.278   2.896
52266W        W11362  25.668  33.527   4.256
52267W        W11363   5.209  27.147   2.354
52268W        W11364  44.830  33.440  14.348
52269W        W11365   8.372   0.871  11.549
52270W        W11366  10.807  42.376   0.254
52271W        W11367  30.006  35.389   4.228
52272W        W11368   4.890  18.139  12.884
52273W        W11369  44.995  26.094   3.291
52274W        W11370   8.833   2.930  12.895
52275W        W11371   9.263  40.912  13.433
52276W        W11372  29.084  30.487   3.810
52277W        W11373   9.766  17.229   4.224
52278W        W11374  43.838  39.517   0.831
52279W        W11375  23.713  27.459   0.877
52280W        W11376  35.101  30.122  11.051
52281W        W11377  26.644  12.671  12.863
52282W        W11378  13.342   4.251   1.776
52283W        W11379  31.943  10.307  10.545
52284W        W11380  36.593  18.134   4.609
52285W        W11381   7.183  36.898   1.774
52286W        W11382  31.082  28.107  10.990
52287W        W11383  36.940  38.949  13.008
52288W        W11384  39.995  28.644  14.321
52289W        W11385   2.334  19.663  12.454
52290W        W11386  34.530  29.506   0.861
52291W        W11387  15.595  35.013  13.958
52292W        W11388  13.716  42.802  11.075
52293W        W11389  37.474  22.210  12.566
52294W        W11390  22.057  33.123   0.888
52295W        W11391  24.616  15.731  13.921
52296W        W11392   4.415   4.235  13.062
52297W        W11393  14.780  18.785  14.953
52298W        W11394  20.079  35.941   0.954
52299W        W11395  17.635  33.882   0.910
52300W        W11396  37.387  40.987  13.438
52301W        W11397  40.342  34.882   0.335
52302W        W11398  11.324  18.216  11.423
52303W        W11399   0.925  34.972  12.044
52304W        W11400  16.079  23.666  11.381
52305W        W11401   0.942  12.761   3.361
52306W        W11402  32.567  18.640   1.361
52307W        W11403  12.766  13.121  11.106
52308W        W11404   2.279  15.634   1.288
52309W        W11405  24.623  23.500   4.155
52310W        W11406   5.928  39.473  10.576
52311W        W11407  32.885  17.286   5.651
52312W        W11408  32.553  20.207  11.875
52313W        W11409  13.176  14.135   2.867
52314W        W11410  40.379  23.118   1.786
52315W        W11411  26.586   5.268   3.731
52316W        W11412  12.261   3.239  14.440
52317W        W11413   1.449  37.434   3.822
52318W        W11414  32.461  29.505  14.962
52319W        W11415  24.504  35.066  11.120
52320W        W11416  22.532  12.833   3.870
52321W        W11417  41.918  15.651   0.823
52322W        W11418  14.831  25.692   0.931
52323W        W11419  20.538  31.944   3.342
52324W        W11420  15.771  26.555   3.311
52325W        W11421  14.290  12.798   4.606
52326W        W11422  30.029  30.077  11.960
52327W        W11423  22.583  18.656   4.327
52328W        W11424  24.608  13.246   4.249
52329W        W11425  32.135  35.548   0.341
52330W        W11426   6.767  42.990  12.359
52331W        W11427  34.119   5.784  10.617
52332W        W11428  34.531  44.877  13.997
52333W        W11429  13.625  21.070   1.310
52334W        W11430  40.811   4.817   2.415
52335W        W11431  18.704  16.666   2.753
52336W        W11432  12.822  42.959  14.494
52337W        W11433  23.230  11.214   0.471
52338W        W11434  41.887  40.522  14.291
52339W        W11435  34.564  13.326   0.879
52340W        W11436  30.985  32.086   0.290
52341W        W11437  40.918  39.974  13.004
52342W        W11438  37.879  27.070  14.341
52343W        W11439   0.800  30.503  14.031
52344W        W11440  41.891  30.468  12.998
52345W        W11441  11.355   0.247   3.340
52346W        W11442   0.811  38.051  12.544
52347W        W11443   7.848  32.911   0.727
52348W        W11444  44.894  39.530   1.730
52349W        W11445  14.595   6.760  12.456
52350W        W11446  28.436  35.460   1.427
52351W        W11447   5.285  36.078   4.318
52352W        W11448   6.743  14.680   2.712
52353W        W11449  34.408  32.429   1.866
52354W        W11450  15.671  29.940  14.873
52355W        W11451  17.672  41.367  11.984
52356W        W11452  19.718  17.775   3.286
52357W        W11453   7.847  23.680  14.972
52358W        W11454   4.390   7.852  13.006
52359W        W11455  24.585   0.945   4.208
52360W        W11456  11.758  32.057   1.261
52361W        W11457  29.997  34.994   3.302
52362W        W11458  36.509  16.751  10.135
52363W        W11459  37.496  10.843  14.985
52364W        W11460  13.693  43.304   0.352
52365W        W11461   8.837  40.397   1.873
52366W        W11462  11.372  15.608  12.839
52367W        W11463  13.780   4.357  10.494
52368W        W11464  25.007  37.512   4.352
52369W        W11465   2.452  22.720  14.989
52370W        W11466  32.056  41.299   1.403
52371W        W11467   5.790  37.447   4.137
52372W        W11468  11.674  22.548   0.824
52373W        W11469  13.134  11.767  10.626
52374W        W11470   8.167  25.213  13.971
52375W        W11471  36.483  40.804  13.937
52376W        W11472   8.769  15.789   5.590
52377W        W11473   7.831  30.160  10.414
52378W        W11474  11.761  13.673   0.256
52379W        W11475   3.745  27.974   2.267
52380W        W11476   2.255  27.137   0.434
52381W        W11477  31.414  33.448   0.802
52382W        W11478   0.433  40.484  11.902
52383W        W11479  20.652  28.094   3.234
52384W        W11480  18.149  22.624  11.984
52385W        W11481   5.230  24.543   3.175
52386W        W11482  43.935   7.297   3.682
52387W        W11483  41.314  43.478  13.428
52388W        W11484  27.950  40.031   1.799
52389W        W11485  26.200  23.603   3.282
52390W        W11486  26.585  32.975   0.961
52391W        W11487  21.261  19.048  13.395
52392W        W11488  35.971  27.642  13.895
52393W        W11489   0.879  18.780   3.190
52394W        W11490  37.969  30.492   5.096
52395W        W11491  24.198  18.256  10.430
52396W        W11492  37.908  19.751  10.973
52397W        W11493  20.725  23.681  11.487
52398W        W11494  44.313   1.239  10.587
52399W        W11495  42.856  22.506   4.238
52400W        W11496  31.586  22.200   3.814
52401W        W11497   4.871   9.292  14.423
52402W        W11498   4.274   8.289   3.364
52403W        W11499  35.108  29.975   2.316
52404W        W11500  42.450  36.030   3.801
52405W        W11501  12.663   7.868   1.369
52406W        W11502   0.299   8.358   4.121
52407W        W11503  27.954  38.335  14.840
52408W        W11504   3.379  24.166   3.192
52409W        W11505  40.380  33.550  14.995
52410W        W11506  18.271   7.846   3.779
52411W        W11507  44.784  21.203   4.323
52412W        W11508  17.579   9.300   4.166
52413W        W11509  20.175   5.873  13.849
52414W        W11510   8.800  21.628  13.528
52415W        W11511  29.094  36.869   2.772
52416W        W11512  25.067  12.784  10.621
52417W        W11513   0.783   1.914  13.485
52418W        W11514  17.285   5.267  11.572
52419W        W11515  20.042  16.567   1.792
52420W        W11516  19.744  28.156  12.368
52421W        W11517   9.322  25.548   4.320
52422W        W11518  32.469   3.238  13.978
52423W        W11519  13.609  37.031  11.946
52424W        W11520  27.614  31.903   4.351
52425W        W11521  23.721  25.554   2.777
52426W        W11522  36.510  15.125  11.000
52427W        W11523  35.899  16.808   3.677
52428W        W11524  35.897  20.056   0.464
52429W        W11525  26.951  34.583   2.237
52430W        W11526  16.754  40.826   4.615
52431W        W11527  35.054  18.769  13.410
52432W        W11528   6.861   9.344  13.456
52433W        W11529  17.076  12.251  10.139
52434W        W11530  10.286  32.571  13.447
52435W        W11531  30.647  37.980  12.902
52436W        W11532  10.859  18.058  14.342
52437W        W11533  40.874  33.099   0.340
52438W        W11534  44.503  42.000   3.735
52439W        W11535  15.709  40.450  14.866
52440W        W11536  33.923  31.551   0.383
52441W        W11537  39.332  32.574  10.934
52442W        W11538  43.318  17.726   2.258
52443W        W11539  26.514  27.623   3.161
52444W        W11540  22.608   9.758   3.184
52445W        W11541   9.873   3.267  14.770
52446W        W11542   5.712  32.967  14.390
52447W        W11543  22.220   9.285  11.886
52448W        W11544  12.161  26.573  12.512
52449W        W11545   9.211   5.405  14.312
52450W        W11546   0.468  39.389  13.054
52451W        W11547  37.057  14.147  13.543
52452W        W11548  32.980  44.449   2.332
52453W        W11549   7.721  36.535   0.905
52454W        W11550  12.347  21.092  11.106
52455W        W11551   7.850  32.573  10.547
52456W        W11552  40.507  42.332  10.950
52457W        W11553  38.428  21.023   2.292
52458W        W11554  14.188  13.746  14.899
52459W        W11555  41.950  32.123  12.345
52460W        W11556  42.512  29.982  13.818
52461W        W11557  25.665  39.963   2.795
52462W        W11558  30.145  18.590   0.904
52463W        W11559  18.137  20.178  10.420
52464W        W11560  26.693  36.075  11.980
52465W        W11561  21.253  26.958   3.202
52466W        W11562  35.000   3.449   0.857
52467W        W11563  32.115  13.185   3.718
52468W        W11564  34.543  38.521  14.861
52469W        W11565  44.754  13.156   1.772
52470W        W11566  28.176  19.285   3.834
52471W        W11567  13.679   4.439  12.527
52472W        W11568   2.403  19.667   3.179
52473W        W11569  29.569  12.228  13.972
52474W        W11570  24.198  44.832   4.135
52475W        W11571  30.572  17.781   5.685
52476W        W11572  44.959  25.132   5.272
52477W        W11573   5.910  30.609  13.369
52478W        W11574  15.610  35.405   2.269
52479W        W11575  12.349  13.260  11.128
52480W        W11576  23.105   8.703   1.856
52481W        W11577  34.595  17.121  13.508
52482W        W11578  19.237  15.684   2.202
52483W        W11579   8.383  19.723  12.436
52484W        W11580  26.173  36.087   1.820
52485W        W11581  12.138  32.088  12.350
52486W        W11582  23.098  33.581  13.960
52487W        W11583  16.168  41.536   4.640
52488W        W11584  35.004  44.797  11.966
52489W        W11585  14.176  41.498   0.468
52490W        W11586  29.049  26.135   0.319
52491W        W11587  36.891  31.033  13.888
52492W        W11588  11.646  36.006   2.375
52493W        W11589  27.174  30.432  11.470
52494W        W11590   1.342  12.621  11.863
52495W        W11591  43.324   8.219  12.083
52496W        W11592  31.414   8.804  12.007
52497W        W11593  24.665  32.933  14.317
52498W        W11594  33.128   8.827   0.922
52499W        W11595  29.476  19.232  10.129
52500W        W11596  27.461  32.426  11.415
52501W        W11597   0.292  41.301   3.800
52502W        W11598  38.410  25.499  12.865
52503W        W11599  32.922  17.692   2.365
52504W        W11600   8.243  29.149  10.490
52505W        W11601  35.459  21.220   3.256
52506W        W11602  38.939   8.324  14.511
52507W        W11603  43.882   3.284   2.804
52508W        W11604  30.908   0.328  11.997
52509W        W11605  37.010  17.081  12.419
52510W        W11606  34.480  41.826  12.485
52511W        W11607  32.481  40.874  13.337
52512W        W11608  29.465  18.189  12.544
52513W        W11609  11.802  42.325   4.810
52514W        W11610  33.598  23.168  14.996
52515W        W11611  42.948  33.912   3.312
52516W        W11612  25.063  28.004  13.843
52517W        W11613  34.885  29.928   0.769
52518W        W11614  40.943  31.528   0.789
52519W        W11615  34.925  21.044   1.400
52520W        W11616  39.965   4.333  14.995
52521W        W11617  44.379  27.126   0.862
52522W        W11618  20.672  39.927   0.859
52523W        W11619   8.695  36.023  13.945
52524W        W11620   9.873  23.723   4.119
52525W        W11621  38.478  28.173   3.847
52526W        W11622  33.052  42.517   4.833
52527W        W11623   3.451  33.898  12.516
52528W        W11624  43.312  14.285  14.022
52529W        W11625  32.067  11.686  11.957
52530W        W11626  13.684   2.773   3.727
52531W        W11627  16.270   2.898   3.232
52532W        W11628   0.797  14.098  10.532
52533W        W11629  27.972  32.497   2.737
52534W        W11630   5.777  33.875   4.769
52535W        W11631  27.604  43.477   4.223
52536W        W11632  31.124  41.895  13.435
52537W        W11633  38.861  25.191   3.362
52538W        W11634  29.973  37.461  11.589
52539W        W11635  31.555  23.688   5.780
52540W        W11636  29.038   9.806   2.755
52541W        W11637   9.848  22.025   1.906
52542W        W11638  22.218  13.161   0.463
52543W        W11639  44.933  19.249   2.336
52544W        W11640  37.912  29.920  12.892
52545W        W11641  12.679  39.924  12.425
52546W        W11642  12.287   6.913  11.980
52547W        W11643  37.447  22.147   4.239
52548W        W11644  36.041  15.693   1.811
52549W        W11645  21.737   0.255   2.712
52550W        W11646  33.878  20.109   2.403
52551W        W11647   3.782   3.754  10.637
52552W        W11648  38.376   7.241  14.775
52553W        W11649  12.258  35.396   0.478
52554W        W11650  17.099  36.013  14.776
52555W        W11651  30.571  35.052   4.666
52556W        W11652  40.312   3.400   1.846
52557W        W11653  37.517  39.495  14.339
52558W        W11654  27.496  18.156  13.931
52559W        W11655  40.969  39.407   1.879
52560W        W11656  13.841  36.948   0.958
52561W        W11657  40.862  13.112   1.384
52562W        W11658  16.141  18.186  12.972
52563W        W11659   8.710  43.479   0.346
52564W        W11660  11.213   0.907   0.243
52565W        W11661  24.610  39.434  11.488
52566W        W11662  24.586  20.596   0.321
52567W        W11663  15.591   9.196  11.104
52568W        W11664  15.700  30.497  12.999
52569W        W11665  13.245  14.701  11.047
52570W        W11666   5.381  19.664   2.705
52571W        W11667  20.114   3.403  13.906
52572W        W11668  43.449   8.379   3.843
52573W        W11669   9.279   1.857  14.849
52574W        W11670  18.216  23.100   2.858
52575W        W11671  20.058  33.519  11.961
52576W        W11672  15.165  34.512   1.863
52577W        W11673  32.541  44.345  12.453
52578W        W11674   3.237  38.822   4.142
52579W        W11675   2.227  16.578  14.799
52580W        W11676  13.624  27.631  12.076
52581W        W11677   8.301  14.733  11.556
52582W        W11678  22.091  32.975  14.935
52583W        W11679   6.915   6.390   2.694
52584W        W11680   2.386  15.173  13.050
52585W        W11681  27.565  20.120   1.859
52586W        W11682  39.378  19.686   4.630
52587W        W11683  39.466  29.615  11.933
52588W        W11684  27.131   9.649  12.416
52589W        W11685  17.082  40.376   3.215
52590W        W11686  27.017  27.646   3.251
52591W        W11687  37.909  42.374  14.943
52592W        W11688  27.555  42.019   2.219
52593W        W11689  30.988  30.089  11.912
52594W        W11690  15.215  23.999   1.363
52595W        W11691  17.579  14.739   2.186
52596W        W11692  19.173  31.408   4.722
52597W        W11693  42.900   7.844   0.432
52598W        W11694  31.111  25.529  11.525
52599W        W11695  17.615  35.106   2.361
52600W        W11696  32.565  27.093  14.468
52601W        W11697  10.382  18.292   3.204
52602W        W11698   8.689  19.092   1.310
52603W        W11699   6.783  36.946   1.800
52604W        W11700  31.488   3.759  10.513
52605W        W11701  15.585  38.911  13.044
52606W        W11702  44.837  29.448   3.736
52607W        W11703   2.275  27.506   1.288
52608W        W11704  17.561  33.034   4.239
52609W        W11705  29.006  30.533  10.942
52610W        W11706   5.894   5.348  11.857
52611W        W11707  21.180  28.149  14.763
52612W        W11708  36.986  30.086   4.296
52613W        W11709  39.494   7.345   4.187
52614W        W11710  44.469  21.661   3.301
52615W        W11711  29.501  30.605  14.995
52616W        W11712  27.147   2.362  10.491
52617W        W11713  44.472  22.201   9.946
52618W        W11714  16.597  39.002  14.880
52619W        W11715  38.358  22.674   3.828
52620W        W11716  39.503  20.076  14.509
52621W        W11717  34.524  13.105   5.620
52622W        W11718  13.293  13.217   3.304
52623W        W11719  42.502  32.397   2.399
52624W        W11720  43.000   2.359   0.274
52625W        W11721   6.428  25.979  14.002
52626W        W11722  23.536  15.655  14.962
52627W        W11723  40.911  12.664   2.889
52628W        W11724  16.298   6.699  10.605
52629W        W11725  10.235   5.912   4.305
52630W        W11726  36.930   3.880   4.138
52631W        W11727  25.573   5.905  14.934
52632W        W11728   3.254  12.736  11.979
52633W        W11729  12.160   5.248  11.536
52634W        W11730  24.662  17.170  12.389
52635W        W11731  24.697  32.636  12.500
52636W        W11732   8.679  12.833  12.010
52637W        W11733  20.068   7.284  14.489
52638W        W11734  21.520  11.780  11.598
52639W        W11735   4.438  38.831  14.475
52640W        W11736  16.643   5.695   0.732
52641W        W11737  37.454  41.028   3.690
52642W        W11738  37.929  34.953  13.928
52643W        W11739  35.587  34.430   3.385
52644W        W11740  13.764  35.483  14.992
52645W        W11741   2.739  22.621   2.885
52646W        W11742  13.729  19.667  13.870
52647W        W11743  26.970  32.527   0.737
52648W        W11744  20.091   8.344   4.285
52649W        W11745  14.687  15.723   3.834
52650W        W11746  36.565   0.977  11.504
52651W        W11747  38.447   3.419  10.560
52652W        W11748  29.447  30.098   2.219
52653W        W11749  10.189  27.466   3.168
52654W        W11750   7.406  19.156   2.732
52655W        W11751   7.898  28.595   2.713
52656W        W11752   7.708  39.970  14.286
52657W        W11753  18.558  30.162  11.461
52658W        W11754  19.195  20.125   0.860
52659W        W11755  36.890  44.787   1.770
52660W        W11756  39.496  38.997  14.785
52661W        W11757  10.853  37.961  11.936
52662W        W11758   3.328  30.944  11.604
52663W        W11759  33.933   6.338   2.207
52664W        W11760   0.806  40.391  11.127
52665W        W11761  23.037  33.449   2.185
52666W        W11762   2.781   7.369  12.907
52667W        W11763  30.576  35.995  13.476
52668W        W11764  13.743   8.404   0.404
52669W        W11765  23.190   6.844  10.614
52670W        W11766  26.656  38.974  12.576
52671W        W11767  32.406  23.551   3.368
52672W        W11768  42.810  29.160  13.488
52673W        W11769  25.651  41.002  14.321
52674W        W11770  16.726   5.930  11.608
52675W        W11771  24.099  34.370  11.059
52676W        W11772  44.351  17.087   0.380
52677W        W11773  41.911  10.204  11.908
52678W        W11774   7.212   0.977  13.877
52679W        W11775  16.084   9.286   1.393
52680W        W11776  25.554  24.521   1.915
52681W        W11777  14.663  33.082  11.934
52682W        W11778   0.290  11.337  14.346
52683W        W11779  18.235  16.253  14.839
52684W        W11780   9.348  18.781  12.852
52685W        W11781  27.454  12.634   0.755
52686W        W11782   9.274  41.998   3.797
52687W        W11783  11.354  37.016  14.921
52688W        W11784  39.412  30.616   3.288
52689W        W11785  38.499  38.473  10.967
52690W        W11786  43.957  20.218  13.360
52691W        W11787   5.209  36.387  10.534
52692W        W11788  13.321  21.157  11.482
52693W        W11789  32.599  19.579   1.776
52694W        W11790   2.864  18.634  14.357
52695W        W11791  44.837   6.256   0.296
52696W        W11792  25.075  15.177   2.301
52697W        W11793   6.756   7.247   1.269
52698W        W11794  41.947  33.090   1.918
52699W        W11795  14.606  34.467  10.152
52700W        W11796  38.495  36.496  11.440
52701W        W11797  41.971  31.109  14.029
52702W        W11798  10.723  17.647   4.788
52703W        W11799   7.399  21.751   1.904
52704W        W11800  22.175  36.547   4.712
52705W        W11801  23.692  34.482  14.332
52706W        W11802  17.251   3.235   1.733
52707W        W11803  25.666   1.920   5.132
52708W        W11804  16.767  29.606  13.346
52709W        W11805   7.331   2.937   3.291
52710W        W11806  13.261  26.624  13.490
52711W        W11807  27.118  41.906  12.476
52712W        W11808  27.632  31.987  10.487
52713W        W11809  13.840   8.287  11.967
52714W        W11810  23.082  37.954   0.896
52715W        W11811   0.911  16.292   2.230
52716W        W11812   7.886  32.023  12.072
52717W        W11813  22.720  12.667   1.695
52718W        W11814  40.914  15.600   1.241
52719W        W11815   1.878  19.133  14.894
52720W        W11816  29.057  16.747   2.760
52721W        W11817  35.512  28.543   2.689
52722W        W11818   7.782   9.213  13.509
52723W        W11819  18.241  35.382   0.334
52724W        W11820  13.778  20.650   1.214
52725W        W11821  27.114  43.939   3.776
52726W        W11822  40.412  43.383   1.348
52727W        W11823  19.711  41.322   0.735
52728W        W11824  19.233  40.818  12.540
52729W        W11825  13.265  37.036  13.946
52730W        W11826  37.850  24.142   3.361
52731W        W11827  28.003  33.951   1.870
52732W        W11828  13.269  24.021  14.987
52733W        W11829  14.599  16.576  13.864
52734W        W11830   6.814  24.977  12.053
52735W        W11831  12.698   4.715  13.793
52736W        W11832  39.413  36.377  11.556
52737W        W11833   8.375  20.567   1.827
52738W        W11834  20.089  13.769  12.370
52739W        W11835  24.199  11.667   1.392
52740W        W11836  14.690  35.457  12.577
52741W        W11837  27.513  22.728  13.504
52742W        W11838   3.266  28.642   0.478
52743W        W11839  38.049  42.310  12.519
52744W        W11840  16.749   1.294   0.371
52745W        W11841  31.908  39.328  14.504
52746W        W11842  32.082  39.032   2.217
52747W        W11843  24.188   6.269   4.771
52748W        W11844   0.443  19.618   2.728
52749W        W11845  14.194  37.934   2.178
52750W        W11846  38.905  42.862   2.406
52751W        W11847  21.193  27.957  12.457
52752W        W11848  38.974  40.954   2.215
52753W        W11849  10.845  43.769   4.762
52754W        W11850   7.361  28.460   9.504
52755W        W11851  24.699   7.830   4.246
52756W        W11852  28.970  24.605  10.406
52757W        W11853   4.848  37.447  10.620
52758W        W11854  30.502  24.694  14.364
52759W        W11855  34.553   7.713   2.379
52760W        W11856  28.522  15.291  11.856
52761W        W11857   0.755  43.374  10.964
52762W        W11858  31.537  25.147  10.154
52763W        W11859  23.236  40.334   1.351
52764W        W11860  30.992   0.396   2.223
52765W        W11861   0.492  18.552  14.394
52766W        W11862  11.217  38.525   1.807
52767W        W11863  41.995  39.436   2.388
52768W        W11864  16.643  41.972  14.444
52769W        W11865   9.850  11.163   4.145
52770W        W11866   7.802  36.364  14.393
52771W        W11867   3.267  24.672  11.001
52772W        W11868  29.489  26.002  11.458
52773W        W11869  33.619  31.510   4.254
52774W        W11870  26.491   6.763  14.954
52775W        W11871  38.546  15.275   2.183
52776W        W11872  35.430   7.740  12.999
52777W        W11873  35.520  22.117   0.931
52778W        W11874   1.793   1.764   4.304
52779W        W11875   3.939  27.984  10.149
52780W        W11876   7.248  20.619   1.816
52781W        W11877  41.375  38.974   1.416
52782W        W11878  21.596  33.519  14.891
52783W        W11879  26.641   6.816  10.619
52784W        W11880  33.011  17.612  14.028
52785W        W11881  44.314  14.142   9.944
52786W        W11882  21.691  36.557   2.195
52787W        W11883  21.207  24.982  14.935
52788W        W11884  11.849   0.494   1.701
52789W        W11885  12.799  42.944   4.227
52790W        W11886  22.572  21.017  11.907
52791W        W11887  16.657  44.415   0.738
52792W        W11888   9.672  13.830  14.399
52793W        W11889  29.081   9.178   0.943
52794W        W11890  17.801   0.346   0.753
52795W        W11891  40.802  19.725  10.454
52796W        W11892  17.136  36.863   2.238
52797W        W11893  17.566   0.318   3.236
52798W        W11894  21.053   3.330   0.770
52799W        W11895  26.023  27.648  13.794
52800W        W11896  32.110   3.245   3.152
52801W        W11897   7.787  16.660   4.223
52802W        W11898  20.676  18.197  12.358
52803W        W11899  11.319  34.958   0.785
52804W        W11900  15.590  11.167  12.440
52805W        W11901  40.045  22.642  14.414
52806W        W11902  24.520   3.794   1.744
52807W        W11903  17.084   8.375   9.973
52808W        W11904  14.815  33.896  14.789
52809W        W11905  17.202  27.563  10.583
52810W        W11906  35.501  28.671  12.085
52811W        W11907  44.898   3.763  12.465
52812W        W11908  37.934  24.545  12.026
52813W        W11909  21.163  37.869  10.026
52814W        W11910   0.767  13.178   4.169
52815W        W11911   5.206  37.007  12.885
52816W        W11912  13.163  42.504   3.808
52817W        W11913  44.007  30.438   4.788
52818W        W11914   2.379  32.958   4.711
52819W        W11915  31.000  25.667  10.995
52820W        W11916  38.341  22.164   4.344
52821W        W11917   4.240   7.238  13.348
52822W        W11918  26.550  27.061   1.875
52823W        W11919  37.072   2.246   4.302
52824W        W11920  38.488   0.482  10.510
52825W        W11921   3.429  23.038   0.882
52826W        W11922   8.325  42.826   2.351
52827W        W11923  23.986  16.221  10.971
52828W        W11924  43.463  10.646   4.826
52829W        W11925  29.620  24.219   4.252
52830W        W11926  22.502  16.267   1.708
52831W        W11927  26.187  34.035  12.573
52832W        W11928  27.046  29.152   3.846
52833W        W11929  43.411  18.627   3.678
52834W        W11930  22.072  41.809   1.899
52835W        W11931  15.724   9.735   3.244
52836W        W11932  21.630   1.396   3.177
52837W        W11933   6.793   1.260  14.279
52838W        W11934  20.245  12.800   1.284
52839W        W11935   9.855  29.546  12.977
52840W        W11936   1.261   8.288   3.688
52841W        W11937   7.716  16.729  12.071
52842W        W11938   5.222  19.136   4.644
52843W        W11939  26.531   3.792   2.208
52844W        W11940  30.593  18.201  11.564
52845W        W11941  21.602  17.222  13.362
52846W        W11942   2.896  38.067   2.702
52847W        W11943  38.378  13.753  11.010
52848W        W11944  35.871  25.973   1.917
52849W        W11945  18.259  23.069   1.310
52850W        W11946   1.415  34.416  11.558
52851W        W11947  23.177   5.385   4.201
52852W        W11948  39.418  41.473   0.430
52853W        W11949  15.668  14.805   2.711
52854W        W11950  32.553  39.014  14.306
52855W        W11951  26.515  27.636   3.674
52856W        W11952  25.541  35.531  14.440
52857W        W11953   4.942  28.477   3.309
52858W        W11954  13.639  40.359  12.947
52859W        W11955  33.119   9.248  11.944
52860W        W11956  18.680  34.098   2.192
52861W        W11957   1.939   3.871   0.280
52862W        W11958  13.755  27.554  13.821
52863W        W11959  39.493   3.936  12.063
52864W        W11960  36.902  15.272  12.362
52865W        W11961  29.499  30.639   0.365
52866W        W11962   6.722  28.162  11.451
52867W        W11963  40.435  34.408  13.331
52868W        W11964  39.385  13.630   3.262
52869W        W11965  24.047   0.346  13.849
52870W        W11966  29.111  25.108  14.773
52871W        W11967  32.086  29.049   3.863
52872W        W11968  29.453  27.094  13.347
52873W        W11969  23.492  12.612  10.941
52874W        W11970  24.145   0.306   4.184
52875W        W11971  10.865  26.593   2.842
52876W        W11972   4.354  11.297   3.711
52877W        W11973  19.695  18.111  14.915
52878W        W11974  29.478  35.531  11.884
52879W        W11975  44.765   9.738  12.972
52880W        W11976   3.225  30.414  11.393
52881W        W11977  17.179  35.077   2.787
52882W        W11978  35.875  21.597   2.751
52883W        W11979  11.307   5.197   3.339
52884W        W11980  30.506  19.136   0.859
52885W        W11981  38.981  43.355  10.111
52886W        W11982  33.521   4.763  13.831
52887W        W11983  17.639  11.330  13.417
52888W        W11984  28.457  18.282  12.468
52889W        W11985  32.915   4.824  11.889
52890W        W11986  16.237  26.040  11.973
52891W        W11987  18.069   4.868   4.120
52892W        W11988   2.382   3.336   0.279
52893W        W11989  41.349  33.038   0.423
52894W        W11990   7.860  26.576  12.862
52895W        W11991   1.861  25.217   1.748
52896W        W11992  38.976  40.414  14.414
52897W        W11993  40.895  21.543   3.735
52898W        W11994   4.432  32.991  11.085
52899W        W11995  14.308   1.900  13.806
52900W        W11996  17.137  34.996  10.116
52901W        W11997  38.507  20.561  12.355
52902W        W11998  33.534  22.650  14.482
52903W        W11999  19.586  38.058   4.282
52904W        W12000  43.455  39.464  10.612
52905W        W12001  26.585  23.660  14.387
52906W        W12002  17.578  44.811  13.039
52907W        W12003  37.894   4.282  12.489
52908W        W12004  28.957  25.543   0.297
52909W        W12005  12.628  35.887   2.302
52910W        W12006   3.418  32.933  10.483
52911W        W12007  31.485  15.605  10.978
52912W        W12008  18.086  29.148  14.949
52913W        W12009   8.677  24.687   2.754
52914W        W12010   5.252   1.895   0.796
52915W        W12011  35.478   4.366   0.374
52916W        W12012  12.837  10.324   0.910
52917W        W12013  36.909  35.040   4.657
52918W        W12014   9.871  33.390  14.801
52919W        W12015  42.991  19.695   4.659
52920W        W12016  13.139  33.109  12.987
52921W        W12017  44.951  23.713  14.895
52922W        W12018  23.165   9.269  14.965
52923W        W12019  25.160  32.563   1.374
52924W        W12020  29.117  17.232  12.516
52925W        W12021  43.840  22.014   1.734
52926W        W12022  35.533  15.319   3.190
52927W        W12023  38.518  43.823   4.829
52928W        W12024   3.415   1.291  12.896
52929W        W12025   2.392  35.454  11.885
52930W        W12026  37.461  41.859   4.205
52931W        W12027  21.048   6.731   5.141
52932W        W12028   2.288  23.157  12.876
52933W        W12029  16.742  15.625   4.257
52934W        W12030  27.465  42.405  13.926
52935W        W12031  31.449   4.928   4.233
52936W        W12032   3.336  30.538   4.762
52937W        W12033   4.264  34.104  12.513
52938W        W12034  10.271   7.731  13.460
52939W        W12035  25.656  23.165  12.524
52940W        W12036  14.634  30.550  12.481
52941W        W12037  30.957  39.937  10.103
52942W        W12038  24.109  40.025   4.143
52943W        W12039  20.141  19.117  14.815
52944W        W12040   4.778  18.168   0.363
52945W        W12041   2.440  11.717  13.438
52946W        W12042  30.917  16.296   4.291
52947W        W12043   1.478   3.377  14.471
52948W        W12044  15.776  10.166  10.956
52949W        W12045   9.750  28.439  13.386
52950W        W12046  17.193  29.084   3.688
52951W        W12047   9.795  44.452   1.879
52952W        W12048  39.809  26.144  12.071
52953W        W12049   2.776  23.533  13.378
52954W        W12050  30.956  28.001  14.789
52955W        W12051   7.189  25.093   1.422
52956W        W12052  31.048  13.140  12.954
52957W        W12053  26.686  44.330  11.420
52958W        W12054  16.660   5.889   4.286
52959W        W12055  18.242  26.106   4.769
52960W        W12056  33.407   7.752   4.339
52961W        W12057  18.159   8.185   2.751
52962W        W12058  18.683  34.596  14.901
52963W        W12059   6.236  25.978   1.887
52964W        W12060  21.031   7.324  10.482
52965W        W12061   8.862  29.035   9.976
52966W        W12062  29.111  37.580   1.764
52967W        W12063   2.809  25.213  10.962
52968W        W12064   6.247  22.132   1.739
52969W        W12065  41.334  24.075   3.780
52970W        W12066   3.341  34.588  14.359
52971W        W12067  35.556  30.074  13.470
52972W        W12068  17.107  26.009  13.869
52973W        W12069  14.161  30.480  12.894
52974W        W12070  35.601  36.469  12.934
52975W        W12071   9.281   9.873   0.791
52976W        W12072  32.141  18.258   1.405
52977W        W12073  24.615  11.189  10.618
52978W        W12074  21.622  37.940  10.028
52979W        W12075   5.900   8.184  12.444
52980W        W12076   0.390  13.703   3.229
52981W        W12077  15.782  10.753   4.779
52982W        W12078  42.903  33.419   0.744
52983W        W12079  12.332  21.646  13.391
52984W        W12080   6.396  16.242   0.415
52985W        W12081  25.978  16.220   4.180
52986W        W12082  17.202  44.924   3.300
52987W        W12083  43.462  24.575   0.964
52988W        W12084  14.779   9.733  13.326
52989W        W12085   6.418  21.241  14.429
52990W        W12086  31.099  29.571   9.998
52991W        W12087  36.089  31.054   3.187
52992W        W12088  13.256  12.697   0.283
52993W        W12089  27.024  26.570   0.398
52994W        W12090  12.610  33.020  12.925
52995W        W12091  37.558  13.225  11.494
52996W        W12092  13.243  43.815   4.746
52997W        W12093   3.725  44.766  11.492
52998W        W12094  27.116  33.110  11.871
52999W        W12095  35.587  11.217  11.493
53000W        W12096  29.550  20.216   4.168
53001W        W12097  32.481  17.089   1.900
53002W        W12098   4.875  12.136  12.981
53003W        W12099  12.175  25.501   4.689
53004W        W12100  40.867  44.261   1.867
53005W        W12101  37.392   2.816  14.469
53006W        W12102  15.255  32.093  10.902
53007W        W12103  15.809  44.310   2.802
53008W        W12104  38.904  14.218   1.878
53009W        W12105  12.269  10.180  11.498
53010W        W12106  11.133  10.868  13.395
53011W        W12107  11.653  30.416  13.997
53012W        W12108   7.814   5.716   2.402
53013W        W12109  22.580  15.110  13.408
53014W        W12110   2.941  23.636  10.895
53015W        W12111   2.850  38.026  14.979
53016W        W12112  26.044   4.262   2.230
53017W        W12113   7.844   2.369  14.865
53018W        W12114   1.413  33.606  11.043
53019W        W12115  28.127  39.846  10.935
53020W        W12116  20.092  11.770   0.918
53021W        W12117  16.184  19.728   0.766
53022W        W12118  28.503  19.137  14.415
53023W        W12119  28.091  30.577  14.398
53024W        W12120  25.107  15.160  13.885
53025W        W12121  12.343  41.847   1.395
53026W        W12122  40.472  40.389  13.984
53027W        W12123  17.575  37.047  14.810
53028W        W12124  24.514  37.543  12.447
53029W        W12125   0.256  22.743   2.370
53030W        W12126   7.417  33.490  12.009
53031W        W12127   7.246  38.542   1.213
53032W        W12128  35.013   6.900   0.406
53033W        W12129  21.643   5.252  11.105
53034W        W12130  14.309  34.865  11.386
53035W        W12131   2.236  16.122  13.502
53036W        W12132  22.616  31.935  10.156
53037W        W12133  42.816  22.173  14.469
53038W        W12134  10.777  14.143   5.148
53039W        W12135  22.651  27.600   0.856
53040W        W12136  18.743  33.405   4.755
53041W        W12137   3.806  39.506  11.376
53042W        W12138  33.001  10.832   3.831
53043W        W12139  12.232  32.412  11.921
53044W        W12140   8.333  30.962  11.044
53045W        W12141  31.551  21.076   1.382
53046W        W12142  10.858   8.721  13.417
53047W        W12143  26.534  36.397   2.822
53048W        W12144   3.890   2.891   4.833
53049W        W12145  17.079  21.091  10.030
53050W        W12146   3.746  34.918   0.303
53051W        W12147  41.972  35.905  11.069
53052W        W12148  24.690  10.377   4.762
53053W        W12149  37.501  22.629  12.440
53054W        W12150   1.365  15.689   1.364
53055W        W12151  11.196  40.861  12.876
53056W        W12152  11.284   3.343  12.940
53057W        W12153   8.325  22.012  10.960
53058W        W12154  17.217   6.380  14.296
53059W        W12155  29.093   1.764   4.768
53060W        W12156  19.175   0.854   2.268
53061W        W12157  27.000  10.361  12.561
53062W        W12158  41.345   0.466  12.341
53063W        W12159   5.367   8.316  14.776
53064W        W12160  36.990  30.939  14.308
53065W        W12161  15.730  30.974   3.225
53066W        W12162  26.625  43.897  12.088
53067W        W12163  38.361  38.468   4.353
53068W        W12164  13.752  44.957  10.969
53069W        W12165  30.952  41.529   5.249
53070W        W12166  19.684  24.683   0.262
53071W        W12167   2.809  11.708   1.448
53072W        W12168   3.408  42.795   2.687
53073W        W12169   3.714  30.001  14.950
53074W        W12170  37.523  13.815  11.908
53075W        W12171   5.888   1.908   4.627
53076W        W12172   6.321  24.721  13.974
53077W        W12173   0.369  13.314   3.348
53078W        W12174   4.327   2.330   1.760
53079W        W12175   1.921  39.034   1.357
53080W        W12176  23.164  40.397   4.740
53081W        W12177  20.118  12.804  13.435
53082W        W12178   1.907  10.719   1.274
53083W        W12179  33.915  42.825   4.193
53084W        W12180   1.343  14.149  13.433
53085W        W12181  37.401  29.925  12.411
53086W        W12182   7.229  19.281   0.807
53087W        W12183   4.282  26.168   2.802
53088W        W12184  41.375   8.700   3.811
53089W        W12185  42.297   4.332  11.949
53090W        W12186  41.984  21.736   2.730
53091W        W12187  35.895   6.836   1.341
53092W        W12188  21.650   9.394   1.767
53093W        W12189  43.406  22.137  11.080
53094W        W12190   0.769   2.318  13.539
53095W        W12191  19.692  32.039   0.425
53096W        W12192  20.116  44.857   2.887
53097W        W12193   8.832  21.023   0.950
53098W        W12194  35.545   3.849  12.054
53099W        W12195  33.513  37.562   1.219
53100W        W12196  29.054   0.935   3.162
53101W        W12197  41.476  29.157   4.167
53102W        W12198  26.581  27.557  10.069
53103W        W12199  26.470  36.497   1.719
53104W        W12200  14.818  39.929   3.712
53105W        W12201  28.971  29.574   2.247
53106W        W12202  22.660  14.172  14.920
53107W        W12203  38.448  25.043  12.070
53108W        W12204   8.740  10.660   1.735
53109W        W12205   9.862  31.480  13.468
53110W        W12206   9.661  32.940   1.312
53111W        W12207  25.603  40.379  14.864
53112W        W12208  14.831  27.466   1.813
53113W        W12209   9.660  44.341  14.492
53114W        W12210  20.677  28.979  13.908
53115W        W12211  25.593  14.293  10.128
53116W        W12212  18.236   1.827   3.657
53117W        W12213   9.152   9.685   2.340
53118W        W12214   9.381  23.024  13.912
53119W        W12215  13.736  42.325   2.197
53120W        W12216  16.705  41.927  12.342
53121W        W12217  17.597  25.177  12.958
53122W        W12218   8.235   4.864   1.250
53123W        W12219   9.790  26.063  13.410
53124W        W12220  11.812  11.130  10.055
53125W        W12221  44.831  32.464  12.904
53126W        W12222  40.465   3.342  14.360
53127W        W12223  12.343   9.790   2.399
53128W        W12224  36.480  19.631  13.958
53129W        W12225  27.482  41.008  13.857
53130W        W12226  38.065  34.520  12.388
53131W        W12227  11.232  18.093   5.580
53132W        W12228  40.332  19.630  10.081
53133W        W12229  33.419  29.959  14.917
53134W        W12230  18.564  16.236  13.818
53135W        W12231  24.075   6.748   1.420
53136W        W12232  16.154  31.149  13.905
53137W        W12233  44.398  33.490   3.778
53138W        W12234  12.650  13.775  13.367
53139W        W12235  22.101  30.035   4.723
53140W        W12236   5.689  27.193  11.978
53141W        W12237  38.969  40.960   4.744
53142W        W12238  29.990  29.548   2.784
53143W        W12239  20.171  44.931  11.892
53144W        W12240   5.423  13.698  13.841
53145W        W12241  25.974  44.356  11.122
53146W        W12242  12.220  38.066  10.603
53147W        W12243   6.897  44.455  10.896
53148W        W12244   3.947  22.668  12.003
53149W        W12245  22.162  34.493  11.005
53150W        W12246  11.740  12.138  12.449
53151W        W12247   3.237  10.862  13.372
53152W        W12248  32.536  34.411   2.702
53153W        W12249  33.101  14.114   1.771
53154W        W12250   5.899  19.251   0.933
53155W        W12251  20.216  42.288  13.525
53156W        W12252  14.141  28.984  12.052
53157W        W12253  13.642  28.059  13.824
53158W        W12254  13.292   0.449   2.385
53159W        W12255  17.657  19.181  11.895
53160W        W12256  39.828  17.561  13.876
53161W        W12257  44.808  10.348  11.013
53162W        W12258   3.281  35.898   2.817
53163W        W12259  24.508  35.047  13.025
53164W        W12260   2.758  38.492   1.309
53165W        W12261  16.168   4.271  10.944
53166W        W12262   6.775  27.062  11.037
53167W        W12263   6.891  41.974  11.598
53168W        W12264  23.600  32.393   4.705
53169W        W12265  35.862  22.671   0.856
53170W        W12266  22.538  33.010  14.502
53171W        W12267   7.403  10.822   1.806
53172W        W12268  30.086  29.590   4.701
53173W        W12269  17.776  23.622  10.428
53174W        W12270  15.820  40.021   0.916
53175W        W12271  12.216  33.897   1.742
53176W        W12272   1.772  27.579   2.238
53177W        W12273   3.833  21.245  14.819
53178W        W12274   1.965  12.718   1.379
53179W        W12275   7.180  35.999   1.839
53180W        W12276  19.645  23.699   2.204
53181W        W12277  12.809  16.763   0.834
53182W        W12278  13.325   2.274  12.356
53183W        W12279   0.954  20.748  13.968
53184W        W12280  20.099  32.416   2.883
53185W        W12281  38.547  10.696  12.951
53186W        W12282  33.452  22.133  14.769
53187W        W12283  19.226  21.142   2.239
53188W        W12284   5.748  43.986  13.017
53189W        W12285  29.605  30.548  14.401
53190W        W12286  34.585   4.838   4.192
53191W        W12287  12.790   4.269   1.785
53192W        W12288  38.566  10.821  11.516
53193W        W12289  27.961  41.854   3.696
53194W        W12290  23.719  10.313   3.217
53195W        W12291  24.724  33.072  11.609
53196W        W12292   8.705  35.964   0.942
53197W        W12293  43.491  19.114  14.288
53198W        W12294   8.791  41.881  13.467
53199W        W12295  11.708  17.734  11.460
53200W        W12296  37.875   2.779  13.060
53201W        W12297  27.984  23.688   3.747
53202W        W12298  23.070  15.116  14.483
53203W        W12299  21.144  18.230   4.324
53204W        W12300  13.670  43.950   2.700
53205W        W12301  39.508  13.676  12.912
53206W        W12302  31.572   6.715   2.398
53207W        W12303   4.397   6.679   2.317
53208W        W12304  13.210  15.256   2.667
53209W        W12305  15.288  32.519   3.271
53210W        W12306   8.397  32.045   2.223
53211W        W12307  31.534  33.061   4.352
53212W        W12308  24.127  15.634   0.863
53213W        W12309  12.691  15.732  13.814
53214W        W12310  33.532   1.924  11.538
53215W        W12311  29.587  20.070  12.863
53216W        W12312  38.350   9.781   1.707
53217W        W12313  12.228  14.599  11.508
53218W        W12314  23.189  39.824   1.381
53219W        W12315   5.831  23.622   4.187
53220W        W12316  11.247  10.312   0.343
53221W        W12317   8.341  23.574   3.342
53222W        W12318   4.365  30.576  11.432
53223W        W12319   3.284  15.313   4.170
53224W        W12320  42.370  39.900   1.728
53225W        W12321   3.410  25.470  13.544
53226W        W12322   0.359  17.666   3.778
53227W        W12323  32.943  25.566  12.968
53228W        W12324   1.448  13.648   1.268
53229W        W12325  19.243  42.362   4.752
53230W        W12326  13.699  26.072   2.345
53231W        W12327   9.166   9.205  14.332
53232W        W12328  40.342   3.428  14.970
53233W        W12329  21.260   8.855   2.851
53234W        W12330   1.287  18.588   2.883
53235W        W12331  40.000  24.716  11.501
53236W        W12332  42.344  44.277  11.528
53237W        W12333  42.023  20.213   2.362
53238W        W12334  35.538  20.150  12.342
53239W        W12335  25.521  37.870   4.194
53240W        W12336   0.798   8.735  14.484
53241W        W12337   3.791  39.977   3.682
53242W        W12338  36.999  17.153   2.208
53243W        W12339  24.616  10.816   1.230
53244W        W12340  17.752   2.872   0.268
53245W        W12341   1.407  42.890  13.020
53246W        W12342   8.805  35.595   2.352
53247W        W12343  34.438  44.823   3.772
53248W        W12344   2.866  17.557   3.659
53249W        W12345  41.338  30.577   3.846
53250W        W12346   6.921  13.746  12.026
53251W        W12347  12.122  18.740  14.974
53252W        W12348   2.442  24.105  12.560
53253W        W12349  34.981  43.987  10.935
53254W        W12350  26.698  33.623  11.398
53255W        W12351  14.807   3.732  14.290
53256W        W12352  41.417  36.991  13.330
53257W        W12353   5.857  21.023   3.806
53258W        W12354  28.117  18.590  13.510
53259W        W12355  21.694  34.605  12.339
53260W        W12356  33.923  13.659  13.526
53261W        W12357  40.964  30.583  14.275
53262W        W12358  31.628  44.466   2.294
53263W        W12359  31.484  37.485   3.204
53264W        W12360  41.866   9.715  10.981
53265W        W12361  37.442   5.199  12.965
53266W        W12362  17.652  14.328  12.856
53267W        W12363  10.658   4.751   1.364
53268W        W12364  42.996  42.299  11.525
53269W        W12365   6.227  18.093   1.442
53270W        W12366  21.073  10.818  11.486
53271W        W12367  37.449  34.563  11.506
53272W        W12368   5.207  18.204   1.299
53273W        W12369  23.694   8.711  13.044
53274W        W12370  28.983  24.155   4.830
53275W        W12371  34.526  11.863  10.463
53276W        W12372  23.650  11.674   2.749
53277W        W12373   5.426  16.217  14.350
53278W        W12374  19.556   1.788   4.207
53279W        W12375  36.347  31.992  13.840
53280W        W12376  37.401  18.168  11.123
53281W        W12377  33.000  23.031  14.799
53282W        W12378  30.511  36.924   1.850
53283W        W12379  25.158  37.518  14.852
53284W        W12380  31.541  42.421  10.983
53285W        W12381  32.443  26.615  13.448
53286W        W12382  34.876  24.171   1.210
53287W        W12383  22.238   1.768  13.428
53288W        W12384  33.431  34.890   3.862
53289W        W12385  32.084  20.630   2.330
53290W        W12386  33.500  29.480  10.574
53291W        W12387   3.368   2.370   4.698
53292W        W12388  14.722  15.239   0.953
53293W        W12389  40.487  30.613  11.477
53294W        W12390  43.483  23.180  11.508
53295W        W12391  22.215   7.239  12.843
53296W        W12392  33.023  33.575  11.024
53297W        W12393   0.422   7.304  14.969
53298W        W12394  35.482  16.716  11.592
53299W        W12395  37.851   0.269   4.254
53300W        W12396  33.477  34.523  11.989
53301W        W12397  38.046  30.623   2.804
53302W        W12398  32.905  32.896  11.918
53303W        W12399  37.479   0.955  13.855
53304W        W12400  26.683  36.408  14.985
53305W        W12401  36.980  40.403   3.632
53306W        W12402   6.339  29.084  13.896
53307W        W12403  41.320   0.815   2.196
53308W        W12404  15.209   0.864   3.841
53309W        W12405   6.703  29.009   3.370
53310W        W12406  11.733  27.659   2.766
53311W        W12407   7.368  18.210   3.660
53312W        W12408  33.017   2.245  11.469
53313W        W12409  37.831  10.677   2.291
53314W        W12410   1.467  32.107  11.888
53315W        W12411  39.027  14.665  14.294
53316W        W12412  24.053  40.835   3.331
53317W        W12413   4.880  36.951  11.032
53318W        W12414  17.173  43.845   4.667
53319W        W12415   0.399  11.843   4.264
53320W        W12416  17.100  12.280  13.921
53321W        W12417  44.317  20.211   3.747
53322W        W12418   5.835  16.201   3.211
53323W        W12419  35.073  20.047   5.200
53324W        W12420   3.897  43.824   4.129
53325W        W12421   5.378  35.916   3.297
53326W        W12422  14.752  44.366  10.629
53327W        W12423   5.388  31.501   1.790
53328W        W12424   6.892   4.439   4.179
53329W        W12425  27.519   7.773   4.661
53330W        W12426  33.581  44.366   4.672
53331W        W12427  10.645  34.934  12.859
53332W        W12428   4.747  12.716  11.497
53333W        W12429   3.754   6.367   4.259
53334W        W12430  36.055  41.433  14.406
53335W        W12431  21.618  25.193   4.615
53336W        W12432  30.086  12.259   4.731
53337W        W12433  23.234  44.840  10.576
53338W        W12434  37.529  41.983  12.526
53339W        W12435  33.932   0.285   2.347
53340W        W12436  26.602   1.352   4.666
53341W        W12437  44.317   4.258  14.507
53342W        W12438  27.957  43.814   2.355
53343W        W12439  26.627  25.992   3.275
53344W        W12440  21.033  34.893   1.411
53345W        W12441  31.138  21.609   1.371
53346W        W12442  12.252  28.169  12.056
53347W        W12443   8.175  29.568   4.682
53348W        W12444  20.251  23.604   1.279
53349W        W12445  23.075  36.508   3.757
53350W        W12446  34.371  37.087  12.047
53351W        W12447  17.633  22.031   1.798
53352W        W12448  34.897   4.834   3.800
53353W        W12449   0.325  21.542  13.484
53354W        W12450  41.929  40.982   2.407
53355W        W12451  30.440   9.744   1.784
53356W        W12452  23.657  14.793  10.966
53357W        W12453  21.124   9.833  12.543
53358W        W12454  32.080  10.288   1.842
53359W        W12455  27.559  31.557   0.463
53360W        W12456  28.034  19.640  12.546
53361W        W12457   3.265   6.239   4.828
53362W        W12458  24.156  10.742   0.313
53363W        W12459  22.587  39.324  12.882
53364W        W12460  20.593   9.762  11.023
53365W        W12461  32.101   5.266  10.566
53366W        W12462  18.176   4.219  13.861
53367W        W12463  30.014  31.589   0.251
53368W        W12464  37.430  17.780  12.441
53369W        W12465  36.959   7.695  14.345
53370W        W12466  21.707  33.044  14.278
53371W        W12467  17.591  44.491  14.286
53372W        W12468  17.582  32.997  14.379
53373W        W12469  42.806  15.327   2.232
53374W        W12470   8.312  15.686   2.392
53375W        W12471   1.965  33.875   0.366
53376W        W12472   4.258   7.711   3.739
53377W        W12473  40.414  40.990  13.485
53378W        W12474  19.079  43.330   1.881
53379W        W12475  16.138  17.189  10.497
53380W        W12476  35.070  35.552   4.606
53381W        W12477  38.551  19.729  14.845
53382W        W12478  29.048  39.982  14.326
53383W        W12479  29.530   0.275   4.267
53384W        W12480  43.947  14.805   1.219
53385W        W12481  33.089  32.458  14.924
53386W        W12482  31.128  35.576  14.938
53387W        W12483  27.449  25.052   0.825
53388W        W12484   9.853  22.506  11.450
53389W        W12485  36.993  23.099   1.887
53390W        W12486  10.293  12.666   1.925
53391W        W12487  21.065   2.849  13.919
53392W        W12488  14.095  29.101  12.957
53393W        W12489  38.545  20.638   1.311
53394W        W12490  22.224  21.529  12.513
53395W        W12491  43.009  29.061  14.879
53396W        W12492  13.760  21.037   0.774
53397W        W12493  26.049  22.184   0.480
53398W        W12494  38.371   2.740  11.390
53399W        W12495   2.267  43.495  14.961
53400W        W12496  27.987   0.423   3.705
53401W        W12497  31.408  26.036  14.315
53402W        W12498  41.422  21.739   1.716
53403W        W12499   2.951  22.032   2.364
53404W        W12500   5.698  37.877  14.805
53405W        W12501  10.736  14.117  13.454
53406W        W12502  35.588   4.415  14.309
53407W        W12503  19.772  33.380   1.745
53408W        W12504  40.963  34.009   4.240
53409W        W12505  35.884  31.492  10.638
53410W        W12506  12.138  32.108  14.355
53411W        W12507  40.798  19.080   3.292
53412W        W12508  34.873  38.053   1.841
53413W        W12509   5.704   9.357  14.298
53414W        W12510  36.016  35.537  13.855
53415W        W12511  17.614  38.476  10.436
53416W        W12512  40.849  11.242   4.658
53417W        W12513   6.872  19.081  14.313
53418W        W12514  33.016  32.006  14.869
53419W        W12515  34.591  33.031   2.683
53420W        W12516  35.439  31.538  12.981
53421W        W12517  18.709   1.902   5.244
53422W        W12518  32.942  38.375  13.873
53423W        W12519  18.612  16.308   0.443
53424W        W12520  14.791  22.599  10.146
53425W        W12521   8.391   4.321   3.811
53426W        W12522  28.681  39.403  14.893
53427W        W12523  31.518  27.058  12.973
53428W        W12524  12.294   5.730   3.252
53429W        W12525   4.747   2.302   5.304
53430W        W12526  24.653   3.394   5.230
53431W        W12527  11.316  13.689   0.334
53432W        W12528  21.039  31.084   0.796
53433W        W12529  21.226  40.446   0.461
53434W        W12530  14.652  24.691   4.684
53435W        W12531  17.199   7.818  10.562
53436W        W12532  42.330   5.410   2.309
53437W        W12533  27.951  29.017  13.530
53438W        W12534  29.061   5.297   0.734
53439W        W12535  24.627  17.696   4.312
53440W        W12536   3.782  21.548   4.269
53441W        W12537   3.425  38.522   2.312
53442W        W12538   9.335  12.738   3.731
53443W        W12539  37.480  17.740   4.344
53444W        W12540   9.152  23.090  14.516
53445W        W12541  43.360  31.097  12.540
53446W        W12542  19.624   4.859   1.283
53447W        W12543  25.074   5.422  11.911
53448W        W12544  12.185  39.454  14.465
53449W        W12545  21.605  20.636   1.392
53450W        W12546   5.385  42.955  12.063
53451W        W12547  33.031  13.609   0.301
53452W        W12548  43.283   8.361  14.514
53453W        W12549   2.366  17.582   1.300
53454W        W12550   1.932  21.724   3.347
53455W        W12551   6.839  15.276   0.336
53456W        W12552  38.907  36.868   3.674
53457W        W12553  34.484  10.774  12.002
53458W        W12554  16.168  26.101   1.273
53459W        W12555  37.996  34.502  14.022
53460W        W12556  34.418   9.299   0.912
53461W        W12557  26.521  23.508  11.032
53462W        W12558  36.086  38.550   0.853
53463W        W12559  34.942  24.641  14.395
53464W        W12560  10.352  26.105   0.823
53465W        W12561  44.275  40.901   1.213
53466W        W12562   4.792  34.576  10.955
53467W        W12563  26.501   3.360  10.993
53468W        W12564  36.014  20.600   4.687
53469W        W12565   8.898  34.120   1.928
53470W        W12566  33.125  23.199   0.285
53471W        W12567  28.985  25.532   2.249
53472W        W12568  40.375  41.843  11.505
53473W        W12569  41.532   8.217  13.862
53474W        W12570  40.859  22.135  13.387
53475W        W12571  22.747  38.330   0.334
53476W        W12572  16.760  17.155  13.822
53477W        W12573  38.453  13.141   0.796
53478W        W12574  43.406   2.863   0.892
53479W        W12575  20.190  32.923   3.672
53480W        W12576  40.368  20.698  14.417
53481W        W12577  42.943  27.663  12.404
53482W        W12578  35.535  30.111   1.899
53483W        W12579   7.692  28.624   5.267
53484W        W12580   2.289  35.947  12.023
53485W        W12581  38.915  40.432   1.845
53486W        W12582  29.636  12.849   1.718
53487W        W12583  37.049  28.158   3.650
53488W        W12584  34.592  23.490   5.200
53489W        W12585  17.260   7.887   3.847
53490W        W12586  42.905  31.073  10.977
53491W        W12587  31.929  28.437   0.956
53492W        W12588  33.896  44.988  12.356
53493W        W12589  30.611  16.799   0.480
53494W        W12590  28.498  35.488  12.945
53495W        W12591   9.857   3.257  11.458
53496W        W12592  36.919   5.333  14.871
53497W        W12593  22.154  34.386  13.997
53498W        W12594  44.405  19.145  14.348
53499W        W12595  24.223  39.882  12.572
53500W        W12596  32.101  44.798  13.022
53501W        W12597  17.300  15.182   3.322
53502W        W12598  14.150  42.364  13.801
53503W        W12599  14.108  17.764  13.538
53504W        W12600   8.654   8.727  10.622
53505W        W12601  19.675  27.181  10.986
53506W        W12602  19.616   3.230  11.405
53507W        W12603  33.532  20.705   2.280
53508W        W12604   1.306   5.404  12.958
53509W        W12605   9.689  36.362   1.446
53510W        W12606  35.864  29.143   1.371
53511W        W12607  22.007   6.247   2.278
53512W        W12608  13.800  41.860  13.384
53513W        W12609  25.529  13.707   1.761
53514W        W12610  11.297  38.861  11.928
53515W        W12611  14.606  43.902   1.707
53516W        W12612  43.312  11.642   3.320
53517W        W12613  11.744  22.688   3.670
53518W        W12614  21.199   2.791   3.737
53519W        W12615  25.649  31.000  13.420
53520W        W12616  41.880  44.923   3.230
53521W        W12617  17.564  26.134   3.220
53522W        W12618  37.936  32.007  13.489
53523W        W12619   8.732  24.080   0.824
53524W        W12620   9.701  37.355  11.458
53525W        W12621  29.163  12.258   3.287
53526W        W12622  25.589  14.250  10.599
53527W        W12623   7.881   3.913   3.657
53528W        W12624  28.509   0.487  10.529
53529W        W12625  22.222   7.814  11.407
53530W        W12626  23.673  18.663  11.548
53531W        W12627  12.310   0.870  11.097
53532W        W12628   0.787  18.770   4.222
53533W        W12629  26.158  13.347   0.865
53534W        W12630  39.827  38.540  14.880
53535W        W12631  16.600  15.710   4.676
53536W        W12632  26.603  30.091  12.959
53537W        W12633  17.253  37.055  14.326
53538W        W12634  31.099  24.650   1.881
53539W        W12635   2.765  14.814  10.524
53540W        W12636   7.766  37.368  11.989
53541W        W12637   3.297  15.112  12.438
53542W        W12638  16.698  19.223   1.277
53543W        W12639   0.417  19.728  13.387
53544W        W12640  18.782  30.556   2.862
53545W        W12641  25.184   7.192   4.616
53546W        W12642  42.824  30.042  12.465
53547W        W12643  26.557   2.249  13.822
53548W        W12644  33.562  39.968  14.485
53549W        W12645  39.041   1.834  12.430
53550W        W12646   7.226  37.992   0.756
53551W        W12647   7.817   6.803  14.278
53552W        W12648  12.238  39.507   3.269
53553W        W12649  18.606  43.966  14.366
53554W        W12650  19.641  19.557  11.890
53555W        W12651  17.065  31.489  11.878
53556W        W12652  22.643  23.226  14.793
53557W        W12653   6.881  17.616   2.735
53558W        W12654  10.863  38.326  13.342
53559W        W12655  26.662  42.861   9.954
53560W        W12656   7.686  29.118   2.806
53561W        W12657  14.784  26.664  13.340
53562W        W12658   3.285  35.018  14.454
53563W        W12659  30.073  35.532   2.768
53564W        W12660  38.518  28.567  12.342
53565W        W12661  36.961  15.112  13.987
53566W        W12662  34.906   5.218   3.219
53567W        W12663  12.177  21.083   1.825
53568W        W12664  41.340  17.090   3.189
53569W        W12665  10.677  17.795  11.418
53570W        W12666  18.100  25.699   0.361
53571W        W12667  15.115  27.585   0.871
53572W        W12668  39.816  30.953   1.783
53573W        W12669  32.031  39.385  13.907
53574W        W12670   9.250  26.019  11.490
53575W        W12671   1.958   7.702  12.975
53576W        W12672  41.829  40.507   1.415
53577W        W12673  31.643  38.370  12.875
53578W        W12674   0.985   2.431  14.357
53579W        W12675  42.851   6.918   1.270
53580W        W12676   1.385  17.777   4.765
53581W        W12677   6.264   4.425   0.750
53582W        W12678  12.639  22.010   0.269
53583W        W12679   2.434  35.010  10.609
53584W        W12680   5.247  39.546   3.763
53585W        W12681  41.311  19.180  14.379
53586W        W12682   5.389  42.489  13.412
53587W        W12683  42.908  33.053  12.951
53588W        W12684   2.823  33.602  13.429
53589W        W12685  24.149  35.412  12.380
53590W        W12686  14.154  10.731  12.096
53591W        W12687  11.681   6.206  14.436
53592W        W12688  39.825  13.713  11.390
53593W        W12689  17.646  34.926   5.622
53594W        W12690  28.983  29.148  11.960
53595W        W12691  15.265  30.649  11.554
53596W        W12692   7.273  12.654  13.543
53597W        W12693  33.055  41.954  11.060
53598W        W12694  15.757  39.349   3.384
53599W        W12695   1.358  17.751  13.522
53600W        W12696  41.464   9.223   0.293
53601W        W12697  10.210  29.968   9.661
53602W        W12698   7.209   3.929   1.822
53603W        W12699  40.396  16.662   4.242
53604W        W12700  43.799   9.873  14.313
53605W        W12701  42.372  10.157   2.744
53606W        W12702  11.303  16.607   1.906
53607W        W12703   6.242   0.872   3.163
53608W        W12704  44.797  24.491   3.181
53609W        W12705  14.245  16.311  11.947
53610W        W12706  30.918  20.188  10.963
53611W        W12707   0.270  27.578  12.995
53612W        W12708  35.959  16.650   3.311
53613W        W12709   4.724  44.450   5.145
53614W        W12710  43.844  26.658  13.313
53615W        W12711   4.419  20.060   0.264
53616W        W12712  20.261   0.858  11.961
53617W        W12713  43.995  44.341  12.407
53618W        W12714  36.868  32.126   0.912
53619W        W12715  37.047  29.629  12.866
53620W        W12716  39.909  43.442   2.418
53621W        W12717   1.874  20.701   3.211
53622W        W12718  43.839   8.757  14.860
53623W        W12719  17.648  35.983  14.798
53624W        W12720   2.395  24.131   1.287
53625W        W12721  43.950  20.189   1.734
53626W        W12722  43.955  39.393   4.736
53627W        W12723  41.300  25.642  10.518
53628W        W12724   9.695  30.569   1.339
53629W        W12725  43.306  29.017   3.201
53630W        W12726  22.228   9.677   0.878
53631W        W12727  40.370  19.083   4.295
53632W        W12728  38.544  27.552   3.685
53633W        W12729  40.485  13.599  14.432
53634W        W12730  18.294  18.590  14.837
53635W        W12731  11.818  22.545   5.287
53636W        W12732  35.978  18.055  13.035
53637W        W12733  12.232   2.770  13.476
53638W        W12734  40.850  36.365  13.510
53639W        W12735  16.788   3.453   0.403
53640W        W12736  16.801  44.876  14.295
53641W        W12737  28.600  18.767  11.489
53642W        W12738   3.277  10.863   4.283
53643W        W12739  17.676   7.256  13.889
53644W        W12740   3.815  17.155   4.323
53645W        W12741  36.577   5.275   3.315
53646W        W12742   4.446  32.416   4.181
53647W        W12743  37.047  13.802  13.340
53648W        W12744  10.638  20.646   2.196
53649W        W12745  19.576  21.709  13.851
53650W        W12746  41.336  30.650   4.620
53651W        W12747  12.804  11.318  12.082
53652W        W12748  34.521  37.505  10.457
53653W        W12749  11.649  44.282   0.257
53654W        W12750  16.296   4.342  13.494
53655W        W12751   5.426   9.731   3.861
53656W        W12752  34.553  32.506  11.507
53657W        W12753  39.009  10.235  13.818
53658W        W12754  40.868   4.393  13.405
53659W        W12755   1.308  39.937  14.360
53660W        W12756  26.054   1.245  10.458
53661W        W12757  18.086  30.024   0.733
53662W        W12758  28.649  28.011  14.952
53663W        W12759  43.924  37.854  13.388
53664W        W12760  24.028  11.285  13.874
53665W        W12761  33.903   1.798  13.894
53666W        W12762  42.788  28.529   3.188
53667W        W12763   3.791  44.339   9.921
53668W        W12764  38.823  12.203   1.855
53669W        W12765   9.712   9.695   1.799
53670W        W12766  38.482   6.311  11.383
53671W        W12767   9.834  37.524   3.272
53672W        W12768  30.428   0.394  10.466
53673W        W12769   1.379   8.307  13.916
53674W        W12770  43.408   0.283   4.193
53675W        W12771   2.966   3.923  13.955
53676W        W12772  13.336   3.849   4.246
53677W        W12773   8.896  40.529   0.874
53678W        W12774  20.608  27.544   1.749
53679W        W12775   1.761  43.783   2.203
53680W        W12776  14.154  21.171   1.349
53681W        W12777  39.840  14.802  10.957
53682W        W12778  36.967   1.794   3.805
53683W        W12779   4.280  16.766  13.338
53684W        W12780   6.885  40.007   0.296
53685W        W12781  20.616  12.137   3.277
53686W        W12782  15.679   3.729   4.189
53687W        W12783  27.567   8.837  13.941
53688W        W12784  16.775  44.969  14.815
53689W        W12785   0.946  19.164   1.712
53690W        W12786  17.236  32.494  13.505
53691W        W12787   7.406  32.075   4.148
53692W        W12788  43.789  23.033  11.124
53693W        W12789   4.845  18.708   1.312
53694W        W12790  23.188  22.704  12.347
53695W        W12791   9.721  33.001  14.001
53696W        W12792   8.689  41.861   1.845
53697W        W12793  31.033  17.283  13.473
53698W        W12794  17.655  22.147   3.305
53699W        W12795  17.799  40.889   1.361
53700W        W12796  15.620   1.957  13.016
53701W        W12797  26.561  17.292   3.758
53702W        W12798  36.051  44.305  11.524
53703W        W12799  30.120  44.801   1.749
53704W        W12800  23.537  43.903  10.966
53705W        W12801  41.906   3.215   0.269
53706W        W12802   7.341   1.963  10.944
53707W        W12803  16.689  23.995  14.437
53708W        W12804  35.884   5.717  13.373
53709W        W12805  26.552   5.302  14.438
53710W        W12806  25.185  14.247   0.432
53711W        W12807  14.683  36.978  11.568
53712W        W12808  23.650  30.566   2.197
53713W        W12809  18.261  34.472   0.938
53714W        W12810  17.193  15.581  12.365
53715W        W12811   1.965  27.084  12.956
53716W        W12812  27.181  17.217  13.813
53717W        W12813  31.640   0.478  11.526
53718W        W12814  22.688  24.231  11.516
53719W        W12815   0.451  24.602   3.357
53720W        W12816  42.497  34.605   3.379
53721W        W12817  43.327  23.733   2.765
53722W        W12818  41.854   6.341  12.519
53723W        W12819   3.930   2.873  13.828
53724W        W12820  29.612   3.225   0.766
53725W        W12821  29.546  39.854  13.355
53726W        W12822  17.616  25.706  13.985
53727W        W12823  39.524  30.016   2.901
53728W        W12824  13.802  26.062   9.562
53729W        W12825  35.579  39.350   4.313
53730W        W12826  42.391  27.594   1.881
53731W        W12827  32.442  28.542  12.905
53732W        W12828  13.657   6.223  13.814
53733W        W12829  39.977  14.187   3.283
53734W        W12830  43.975   5.363  14.480
53735W        W12831  31.952  11.653  13.335
53736W        W12832  32.114  13.715   3.847
53737W        W12833   4.739   3.722  11.379
53738W        W12834  18.076  19.746   3.255
53739W        W12835  26.980  29.453   1.368
53740W        W12836  35.888  38.959   2.341
53741W        W12837  44.453  16.701  14.923
53742W        W12838  16.708  31.410  12.905
53743W        W12839  37.086  21.573   0.751
53744W        W12840  40.912   9.281  14.300
53745W        W12841  24.640  35.580   2.377
53746W        W12842  30.581  23.581   5.303
53747W        W12843  42.922  19.638   3.715
53748W        W12844  39.997  16.264   0.292
53749W        W12845  37.343  37.901  14.889
53750W        W12846  15.675  28.037   4.786
53751W        W12847  40.847  30.585   3.814
53752W        W12848  24.605  32.944   4.214
53753W        W12849   8.699  20.745  13.934
53754W        W12850  17.262  36.509   0.457
53755W        W12851   7.698  39.892  11.557
53756W        W12852  12.362   5.233  13.463
53757W        W12853  10.673  33.529   3.674
53758W        W12854  10.673   3.951   2.808
53759W        W12855   6.274  42.281   0.880
53760W        W12856  44.993  17.211   1.810
53761W        W12857  29.438  12.634  13.390
53762W        W12858  22.143  26.703  10.624
53763W        W12859  44.364  32.061   2.736
53764W        W12860  42.315  37.894  12.968
53765W        W12861  13.742  29.018  12.385
53766W        W12862  11.771  42.940  12.824
53767W        W12863  11.716   0.931   0.940
53768W        W12864  23.693  26.658  12.090
53769W        W12865  28.633  10.334  13.006
53770W        W12866   8.310   9.700  14.415
53771W        W12867  11.793  32.473   2.813
53772W        W12868  35.928  31.413   2.864
53773W        W12869  30.060  10.326   2.245
53774W        W12870  21.640  27.981  12.576
53775W        W12871  22.105  14.315   4.712
53776W        W12872  31.435  18.274   2.672
53777W        W12873  30.542   8.323   1.380
53778W        W12874  35.863  33.494  13.479
53779W        W12875  29.015  21.525   0.396
53780W        W12876  21.213  33.028   4.141
53781W        W12877  23.515  38.537   0.365
53782W        W12878  40.841   1.739  13.000
53783W        W12879  27.977  21.701  14.332
53784W        W12880   5.689   9.723  14.912
53785W        W12881  10.234   5.241   2.369
53786W        W12882  33.016  39.878   2.347
53787W        W12883  44.760  38.337  14.847
53788W        W12884  13.341  23.113   4.114
53789W        W12885  27.671  17.596  14.772
53790W        W12886  10.224  39.018   1.419
53791W        W12887   1.809  31.027   0.799
53792W        W12888   6.895   8.819   3.269
53793W        W12889   1.272  37.048   4.154
53794W        W12890   8.756  10.239  14.282
53795W        W12891  19.145  40.536   0.395
53796W        W12892   4.721   0.917   3.738
53797W        W12893  23.633  11.370  11.924
53798W        W12894  19.550  18.162   4.286
53799W        W12895  28.571   2.927  14.834
53800W        W12896   0.828  25.976   0.764
53801W        W12897   8.331   9.675  13.430
53802W        W12898  33.029  19.597   0.842
53803W        W12899  36.560  25.681   9.631
53804W        W12900  14.619  43.404  13.469
53805W        W12901   1.820   2.837  10.949
53806W        W12902  10.729   4.835  14.448
53807W        W12903  16.746  31.972  12.369
53808W        W12904   3.872  17.118   0.765
53809W        W12905  42.495   1.481   1.886
53810W        W12906  39.488  37.369  13.036
53811W        W12907  38.965  21.672   0.282
53812W        W12908  33.021   6.291  13.471
53813W        W12909  19.256   2.917  10.406
53814W        W12910  11.845  16.572  10.589
53815W        W12911   7.700  27.036  14.315
53816W        W12912   5.713  41.378  14.445
53817W        W12913  43.469  20.255  11.903
53818W        W12914   2.340  25.524  11.066
53819W        W12915  31.108  38.400   4.226
53820W        W12916   7.383  18.677   2.332
53821W        W12917   8.321   7.741   3.820
53822W        W12918  40.047  18.610  11.608
53823W        W12919   5.192  29.605   2.350
53824W        W12920   9.177  13.267  10.974
53825W        W12921  39.476  23.492  12.406
53826W        W12922   8.868  31.992  14.834
53827W        W12923  42.934   8.237   1.355
53828W        W12924   0.368  14.619   4.311
53829W        W12925  26.968  42.414   0.900
53830W        W12926  19.122   2.460  14.870
53831W        W12927  30.544  37.962  13.430
53832W        W12928  21.675  36.021  11.023
53833W        W12929  14.739  26.016  13.542
53834W        W12930  37.016  39.339  14.853
53835W        W12931  10.311  25.215  13.506
53836W        W12932  42.379   0.250   0.376
53837W        W12933  22.714  42.881   0.914
53838W        W12934  41.537   8.809   4.173
53839W        W12935   6.333  35.362   4.675
53840W        W12936  42.967  33.482   0.263
53841W        W12937  17.756  31.111  12.836
53842W        W12938  24.155  43.403  12.507
53843W        W12939  27.108  17.626  11.935
53844W        W12940  30.997  30.486  11.557
53845W        W12941  25.999  27.559   4.245
53846W        W12942  43.276  27.988   0.895
53847W        W12943  33.437  40.436  11.028
53848W        W12944  35.373  38.438   0.359
53849W        W12945  11.810   4.719  13.879
53850W        W12946  13.744  35.452  12.404
53851W        W12947  38.387  26.545  14.840
53852W        W12948  14.251  38.879   9.567
53853W        W12949  25.070  12.160   1.837
53854W        W12950  24.022  19.568  12.478
53855W        W12951  23.106  25.554  11.910
53856W        W12952  32.471   0.981  14.806
53857W        W12953   8.380   7.415  12.014
53858W        W12954  27.604  24.638   3.251
53859W        W12955  10.655  15.114  11.440
53860W        W12956  22.599  12.131  13.802
53861W        W12957  19.728   1.248  11.116
53862W        W12958  26.122  19.761   2.757
53863W        W12959  19.146  16.575   4.768
53864W        W12960  28.112  23.559   4.724
53865W        W12961  41.025  22.220  12.957
53866W        W12962   7.897  23.648   4.821
53867W        W12963  24.009  33.547  13.405
53868W        W12964  44.440  18.580  11.067
53869W        W12965  12.635  22.719  11.524
53870W        W12966  16.271   5.914   0.443
53871W        W12967  17.589  17.188   2.391
53872W        W12968  28.120   0.429  14.781
53873W        W12969  35.371   7.757   1.851
53874W        W12970   0.293   5.282   2.359
53875W        W12971  38.964  32.000  13.507
53876W        W12972  34.033  31.955  12.468
53877W        W12973  17.281  32.116  14.759
53878W        W12974  12.135   4.261   0.433
53879W        W12975  25.478  20.523   5.275
53880W        W12976  36.415  19.279   3.708
53881W        W12977   7.826   8.811  10.526
53882W        W12978   4.391  34.035   1.810
53883W        W12979  24.638  32.142  11.486
53884W        W12980  21.068  29.617   1.330
53885W        W12981  17.128  12.716   1.908
53886W        W12982  36.869  34.888   0.863
53887W        W12983  32.032  42.323   3.370
53888W        W12984  14.817  39.964   1.727
53889W        W12985  35.962  28.130   0.836
53890W        W12986  15.823  32.410   4.630
53891W        W12987  13.803  19.103  13.897
53892W        W12988  38.480  19.161   4.652
53893W        W12989  36.060  18.173  11.860
53894W        W12990  37.498  35.981  12.414
53895W        W12991  22.703  39.917   9.955
53896W        W12992  24.484  26.139   2.274
53897W        W12993   9.759  41.035   0.363
53898W        W12994   7.223  28.475  13.033
53899W        W12995  15.589  11.340  14.372
53900W        W12996  32.924  44.430  14.925
53901W        W12997  38.076  31.976  12.406
53902W        W12998  31.938  44.997   3.370
53903W        W12999  15.137  28.542   1.740
53904W        W13000  29.531   3.725   2.402
53905W        W13001   9.374  11.285   4.201
53906W        W13002  25.527   2.812  13.887
53907W        W13003  22.656  20.615   2.709
53908W        W13004  12.233   4.274  11.900
53909W        W13005   9.753  30.012  13.468
53910W        W13006  44.824  18.068  10.950
53911W        W13007  35.484  27.632  14.029
53912W        W13008  42.309   8.393  13.535
53913W        W13009  11.372  11.352   2.777
53914W        W13010  23.703  29.552  10.598
53915W        W13011  17.707   0.261   1.212
53916W        W13012   1.344  39.496   4.691
53917W        W13013   2.310   0.846   0.408
53918W        W13014   6.414  21.138   3.719
53919W        W13015   6.387   4.836  10.515
53920W        W13016   2.438  20.145  11.049
53921W        W13017  25.546  18.562  13.838
53922W        W13018  31.906   0.310  10.498
53923W        W13019  11.322   3.791  11.940
53924W        W13020   6.338   1.829   2.693
53925W        W13021   6.388  26.119   0.787
53926W        W13022  15.178   3.923   3.804
53927W        W13023  39.416  37.057   2.241
53928W        W13024  14.232  15.644  13.485
53929W        W13025   8.382   3.258   2.771
53930W        W13026  41.367  20.703  13.533
53931W        W13027   4.238  13.827  13.006
53932W        W13028  24.725   8.713  13.799
53933W        W13029  39.432   6.408  10.968
53934W        W13030   6.794  28.631  10.557
53935W        W13031  10.288  22.658   3.218
53936W        W13032  25.513  34.599  10.910
53937W        W13033  32.898   4.255  10.541
53938W        W13034  23.241  21.549   0.957
53939W        W13035  23.521   3.247  11.040
53940W        W13036  40.836  35.553   0.434
53941W        W13037  37.537  36.020   3.752
53942W        W13038   0.364  33.452  12.469
53943W        W13039  13.285   9.305   1.330
53944W        W13040   6.249  14.773   3.335
53945W        W13041  24.534  25.200   4.302
53946W        W13042  24.192  39.048  13.041
53947W        W13043  14.111   1.933  14.507
53948W        W13044  13.661  42.985  14.443
53949W        W13045  29.129  23.100  10.607
53950W        W13046  41.417  37.520   4.236
53951W        W13047  17.235   9.680   0.305
53952W        W13048  35.985  41.787   2.900
53953W        W13049  16.219  29.068   5.130
53954W        W13050  34.075  27.952   1.910
53955W        W13051  21.524   4.283  12.926
53956W        W13052   2.311  41.382   5.187
53957W        W13053  22.677  37.054   2.901
53958W        W13054  10.228  10.863   4.660
53959W        W13055  40.831  17.205  13.853
53960W        W13056  30.491  16.269   4.757
53961W        W13057  15.788  21.204  14.009
53962W        W13058  33.399  20.597  14.818
53963W        W13059  22.703  17.128  14.982
53964W        W13060  27.537   4.413  10.549
53965W        W13061  22.701   3.413  13.989
53966W        W13062   2.438  30.427   3.341
53967W        W13063   4.874  18.692   0.788
53968W        W13064  41.832  24.083   0.408
53969W        W13065  12.805  36.581   0.266
53970W        W13066  42.919  30.105   1.413
53971W        W13067  22.031  26.472   2.841
53972W        W13068   4.428  20.198   0.841
53973W        W13069  39.407  33.470   0.394
53974W        W13070  15.143  41.015   1.317
53975W        W13071  31.971   5.842   0.797
53976W        W13072  27.191  35.989   1.269
53977W        W13073  31.496  15.659   0.806
53978W        W13074  40.019  10.286   0.484
53979W        W13075   4.832  29.669  12.828
53980W        W13076  12.229   6.885  10.620
53981W        W13077  22.647   4.342   3.292
53982W        W13078  23.530  38.407   3.285
53983W        W13079   3.716  44.342  11.087
53984W        W13080  23.702  16.649  13.060
53985W        W13081   8.220   2.413   1.878
53986W        W13082  37.913  12.351   5.241
53987W        W13083  25.568  43.806  14.338
53988W        W13084  40.971  38.868  11.558
53989W        W13085   6.207  25.536  11.538
53990W        W13086  35.452  15.821  11.918
53991W        W13087  29.491  23.687   3.259
53992W        W13088  40.958  27.478  12.380
53993W        W13089  37.975   0.970   4.775
53994W        W13090  11.157  10.704  11.115
53995W        W13091  12.135  12.785  12.933
53996W        W13092  42.827  17.733  10.429
53997W        W13093  10.261  18.582   1.320
53998W        W13094  40.005  24.075   2.183
53999W        W13095  40.870  17.126   0.744
54000W        W13096   5.339   6.276  12.095
54001W        W13097  41.427   8.245  11.987
54002W        W13098  20.747   0.342  13.820
54003W        W13099  16.186  30.930  12.863
54004W        W13100  37.369  13.641  13.890
54005W        W13101  31.027  30.489  10.121
54006W        W13102  25.521  26.126   4.741
54007W        W13103  35.499  42.783   1.716
54008W        W13104  16.151  30.494   1.750
54009W        W13105  18.282  30.465   2.273
54010W        W13106  19.199  15.296  14.948
54011W        W13107  40.944  16.257   4.764
54012W        W13108  21.606   3.781  13.495
54013W        W13109  27.558  30.934  12.898
54014W        W13110  20.689  10.700  11.875
54015W        W13111  16.599  41.928   3.208
54016W        W13112  22.053   5.219  12.868
54017W        W13113  32.453  16.291  11.857
54018W        W13114   8.728   9.779   0.273
54019W        W13115  24.005  26.114   0.911
54020W        W13116  18.573  43.004  14.815
54021W        W13117  19.627  36.565  13.993
54022W        W13118  30.493  27.611  12.534
54023W        W13119   2.362  38.422  10.906
54024W        W13120  36.576   6.750   3.771
54025W        W13121  17.141   6.267   2.667
54026W        W13122  43.931  41.924   3.755
54027W        W13123  34.439  19.066   3.684
54028W        W13124  25.124  17.174  12.406
54029W        W13125   1.285  16.727  13.474
54030W        W13126   8.289  31.106  11.567
54031W        W13127  44.426  29.634  10.046
54032W        W13128   6.708  33.052  14.859
54033W        W13129  16.791   2.250   4.249
54034W        W13130  29.475   2.242   4.172
54035W        W13131  44.803   1.839   4.682
54036W        W13132  28.125   6.306   0.792
54037W        W13133  27.054   3.260   2.721
54038W        W13134  34.109  39.465   0.403
54039W        W13135  11.748  36.037  12.486
54040W        W13136  14.156  38.959   5.240
54041W        W13137   2.410  30.024  13.837
54042W        W13138  30.487  15.164  12.862
54043W        W13139  29.968  20.260  11.585
54044W        W13140  12.658  34.009  10.132
54045W        W13141   3.883  42.459  14.927
54046W        W13142  10.869  21.733   2.396
54047W        W13143  44.978   0.482   1.776
54048W        W13144   6.215  30.567   0.438
54049W        W13145  29.571  31.108   4.190
54050W        W13146  26.964  21.148  10.970
54051W        W13147  24.612  28.972  11.926
54052W        W13148  28.929  35.433   1.762
54053W        W13149  24.706  10.826  12.089
54054W        W13150  33.920  38.529   4.725
54055W        W13151  17.117   8.252   4.327
54056W        W13152  21.159  16.293   1.351
54057W        W13153   8.244   1.896  11.371
54058W        W13154  24.224  33.605   1.813
54059W        W13155  34.017  38.844   0.953
54060W        W13156  20.566   4.216  13.442
54061W        W13157  40.352  13.263  11.035
54062W        W13158  24.486  28.164   3.315
54063W        W13159  39.401   3.801  13.357
54064W        W13160  32.922  22.104   3.754
54065W        W13161  28.039   0.915   4.830
54066W        W13162  34.892  36.016   0.434
54067W        W13163   4.743  43.960   3.147
54068W        W13164  26.697  18.059   4.309
54069W        W13165  42.846  14.762  13.544
54070W        W13166  43.395  20.055  12.568
54071W        W13167  21.055  44.957   2.708
54072W        W13168  25.642   9.822   2.786
54073W        W13169   7.267  12.853  14.277
54074W        W13170   9.196   4.447   2.377
54075W        W13171  22.610  31.464   4.143
54076W        W13172  36.500  38.499  12.826
54077W        W13173   9.800   3.378   2.716
54078W        W13174  30.014  25.682  14.490
54079W        W13175   4.809  15.265   1.268
54080W        W13176  15.782  18.718   3.375
54081W        W13177  37.356  42.954  13.530
54082W        W13178  26.602  30.431   5.117
54083W        W13179  41.342  39.056   2.757
54084W        W13180  26.154  10.298  10.915
54085W        W13181  35.912  27.113   1.392
54086W        W13182  14.598  22.185   4.219
54087W        W13183  43.783  26.500  12.896
54088W        W13184  41.420   2.742  13.890
54089W        W13185  39.997  24.100  14.024
54090W        W13186  23.149   1.926  11.127
54091W        W13187  36.031   4.242  13.310
54092W        W13188   8.166  34.376  11.942
54093W        W13189  11.331  34.003   1.292
54094W        W13190  15.228  36.983   0.859
54095W        W13191  43.913  26.167   3.780
54096W        W13192  37.038  33.963   0.776
54097W        W13193   8.306  18.291  10.584
54098W        W13194  18.220  38.325   5.641
54099W        W13195   7.874  35.539  14.285
54100W        W13196   1.254  28.438   1.385
54101W        W13197  38.511  24.179   4.214
54102W        W13198   4.245   5.775  14.891
54103W        W13199  43.801  11.846   1.880
54104W        W13200  41.945  31.496  11.885
54105W        W13201  13.630  19.230  11.401
54106W        W13202   6.697  10.276   4.153
54107W        W13203  37.493  42.878   2.414
54108W        W13204  34.946  22.166  12.974
54109W        W13205  15.123   0.955   3.210
54110W        W13206  26.076  32.406  11.523
54111W        W13207  33.012  16.618   0.471
54112W        W13208   8.328  41.291  14.435
54113W        W13209  36.061   7.282  12.826
54114W        W13210  39.995  34.111  12.492
54115W        W13211  14.320  28.637  10.610
54116W        W13212  22.570  28.672   4.616
54117W        W13213  30.607   3.742  13.973
54118W        W13214  10.162  34.516  13.889
54119W        W13215  29.151  19.248   5.592
54120W        W13216  10.825   7.678   1.290
54121W        W13217  43.365  28.941   2.688
54122W        W13218  21.223  16.573   4.118
54123W        W13219  19.586  44.796  13.062
54124W        W13220   8.352  40.543   3.804
54125W        W13221   2.468  17.627  13.983
54126W        W13222  21.633  37.979  10.552
54127W        W13223   9.258  25.202  12.824
54128W        W13224  15.146  18.089  12.963
54129W        W13225  42.344  25.140  12.903
54130W        W13226  39.476  26.561   2.868
54131W        W13227  43.918  37.563   1.723
54132W        W13228  11.704   3.287   4.671
54133W        W13229  36.456   6.773   3.301
54134W        W13230  41.434  27.502   2.771
54135W        W13231   9.746  26.647   4.605
54136W        W13232  33.568  18.789  10.579
54137W        W13233   3.323  26.975  14.447
54138W        W13234  42.957  29.967  10.474
54139W        W13235  16.195  42.464  13.971
54140W        W13236   8.336  15.741  11.876
54141W        W13237  17.239  32.963   2.688
54142W        W13238  35.891  29.148   3.761
54143W        W13239  23.727  18.790  10.924
54144W        W13240  22.008  32.498  13.880
54145W        W13241  41.508  37.558  12.956
54146W        W13242  24.177  24.083  14.345
54147W        W13243   4.702  21.651   4.734
54148W        W13244  15.214  18.245  11.911
54149W        W13245   0.801  40.965   0.737
54150W        W13246  42.431  18.127   4.217
54151W        W13247  11.657   6.900   3.724
54152W        W13248  10.731  18.272   2.195
54153W        W13249  18.139  19.050  13.419
54154W        W13250  23.581  41.363   4.319
54155W        W13251  23.711   3.821   1.292
54156W        W13252  20.126  38.897  14.458
54157W        W13253  25.555   6.830  10.588
54158W        W13254  16.272  39.436   3.283
54159W        W13255  11.291  42.839   2.363
54160W        W13256  33.934  39.899   1.804
54161W        W13257   4.909  11.310   4.805
54162W        W13258  38.488   9.285   0.825
54163W        W13259  43.416  24.104  10.073
54164W        W13260  32.559  26.068  13.401
54165W        W13261  37.563   3.221   1.804
54166W        W13262  10.847  23.653  10.543
54167W        W13263  22.638   6.229  12.018
54168W        W13264  33.942  28.462  14.457
54169W        W13265  42.002  32.397   1.695
54170W        W13266  42.348  28.172   2.200
54171W        W13267  41.966   2.819  13.959
54172W        W13268  41.516  22.015  11.069
54173W        W13269  14.156  36.591   4.138
54174W        W13270   6.363  22.612  12.050
54175W        W13271  34.585  28.984   2.301
54176W        W13272   6.836  31.124   1.901
54177W        W13273  36.031  29.936   3.310
54178W        W13274  34.981  21.089   0.318
54179W        W13275  30.625  31.015   5.228
54180W        W13276   0.756   2.369  13.857
54181W        W13277  27.470  22.712  12.962
54182W        W13278   7.224  33.472   2.194
54183W        W13279  43.020  13.227   0.946
54184W        W13280   0.437  20.157  12.570
54185W        W13281  11.866  30.043  14.472
54186W        W13282  38.862  33.434  12.505
54187W        W13283  41.386   8.697   0.826
54188W        W13284  14.631  10.271   1.811
54189W        W13285  12.697  25.693   3.758
54190W        W13286  15.814   8.210  13.001
54191W        W13287  31.502  37.977   3.336
54192W        W13288  27.996   6.903   3.786
54193W        W13289  27.522  25.478   4.703
54194W        W13290  41.913  15.675  11.379
54195W        W13291  29.007  31.446   2.834
54196W        W13292  23.091  32.468  13.032
54197W        W13293  24.498  16.625  11.471
54198W        W13294  24.661   3.406  14.461
54199W        W13295  28.149  15.645  12.388
54200W        W13296  21.049  33.067   1.400
54201W        W13297  19.620  42.424   1.407
54202W        W13298  43.297   4.291  11.981
54203W        W13299  40.469   8.240   0.315
54204W        W13300  40.875  17.102   3.858
54205W        W13301  44.765  30.504   0.754
54206W        W13302  12.210  32.974  11.406
54207W        W13303  11.290  37.931  13.025
54208W        W13304  11.143  28.588   4.749
54209W        W13305  31.953   9.693  10.407
54210W        W13306  15.199  37.540   5.633
54211W        W13307  29.629  44.341  12.570
54212W        W13308  19.644  24.123  11.402
54213W        W13309  33.533  35.908   2.890
54214W        W13310  32.597  13.325   3.794
54215W        W13311  28.167  17.129   2.197
54216W        W13312  22.540  27.660  14.988
54217W        W13313  25.195  21.546   2.223
54218W        W13314  33.092  10.176   0.389
54219W        W13315  44.881  24.083  10.469
54220W        W13316  39.901  43.967   2.865
54221W        W13317   5.375   4.835  14.023
54222W        W13318   4.936  17.244   2.218
54223W        W13319  21.632  40.472   4.212
54224W        W13320  39.876  43.854  14.024
54225W        W13321  11.349  42.346  14.897
54226W        W13322  27.003   9.646   0.849
54227W        W13323  36.042  10.225  13.811
54228W        W13324  43.426  43.020  14.369
54229W        W13325  26.081   9.860  13.875
54230W        W13326  22.557  32.598  13.969
54231W        W13327  33.056  24.553  11.525
54232W        W13328  34.992  30.072  11.937
54233W        W13329  33.621  19.751   3.786
54234W        W13330  22.509  29.039  13.008
54235W        W13331  21.681  37.080  12.850
54236W        W13332   1.356  37.876   0.800
54237W        W13333  38.893  21.099   0.731
54238W        W13334  16.091  22.241   3.825
54239W        W13335   2.775  20.639   2.817
54240W        W13336  38.455  43.918   2.394
54241W        W13337  35.952   4.250  10.949
54242W        W13338  39.991  42.809   1.808
54243W        W13339  14.818  21.160  14.013
54244W        W13340  21.119  23.226  12.507
54245W        W13341  39.888  12.785  10.916
54246W        W13342  40.498  20.112  13.415
54247W        W13343  19.674  14.707  10.614
54248W        W13344  41.879  33.099  14.432
54249W        W13345  21.107   5.354  14.297
54250W        W13346  30.556  15.651  13.381
54251W        W13347  41.355  36.494  12.408
54252W        W13348  25.082  26.993  10.515
54253W        W13349  15.736  14.790  13.926
54254W        W13350  31.929  12.203   1.699
54255W        W13351  16.626  10.740   4.633
54256W        W13352  23.554  43.015   3.737
54257W        W13353  43.421  12.856   5.111
54258W        W13354  11.677   1.363  12.043
54259W        W13355  24.086  26.700  13.909
54260W        W13356  31.473  41.863   4.656
54261W        W13357  24.584  30.001  11.928
54262W        W13358  35.029  14.626  12.417
54263W        W13359  42.330   5.281   3.182
54264W        W13360   8.358  40.504  10.985
54265W        W13361   9.656  14.256   0.477
54266W        W13362   5.734  44.827  13.349
54267W        W13363  37.446  25.103   0.916
54268W        W13364  26.612  39.841  11.119
54269W        W13365  26.662   2.794  12.432
54270W        W13366   5.315   5.221  14.901
54271W        W13367   1.305  23.657   0.800
54272W        W13368  42.932  12.227  11.892
54273W        W13369  38.025  21.690   3.840
54274W        W13370  29.665  16.156  10.535
54275W        W13371  27.046  11.710  14.914
54276W        W13372   7.173  25.133   2.805
54277W        W13373   3.905  37.512   4.160
54278W        W13374  20.627   1.404   2.361
54279W        W13375  12.144   7.331  12.568
54280W        W13376  26.177   6.184   2.206
54281W        W13377  10.353   0.283  11.594
54282W        W13378   6.295  23.106  13.049
54283W        W13379  10.864  30.475   9.632
54284W        W13380  39.986  37.503   3.233
54285W        W13381  17.568  43.992   4.669
54286W        W13382  41.917  10.279  13.386
54287W        W13383  42.022  37.083   4.812
54288W        W13384  27.085   1.939  13.868
54289W        W13385  30.954  43.003  12.042
54290W        W13386  26.041  37.549  13.837
54291W        W13387  16.260  33.441  12.844
54292W        W13388  42.799  19.060  14.889
54293W        W13389  41.316   4.207  11.007
54294W        W13390  13.688  28.093   1.772
54295W        W13391  25.608  36.374  14.780
54296W        W13392  11.174  18.672  10.045
54297W        W13393  14.308  11.779   1.317
54298W        W13394  24.498  37.573  12.024
54299W        W13395  29.428  38.824  10.518
54300W        W13396  42.338  21.251   0.738
54301W        W13397  36.458  28.522   2.714
54302W        W13398   5.898  30.539  14.909
54303W        W13399  28.074   3.234  13.831
54304W        W13400  12.638  27.050   0.888
54305W        W13401  21.117  16.701  11.937
54306W        W13402  37.989  16.205  14.999
54307W        W13403  13.216  24.125   3.183
54308W        W13404  36.844  10.767   0.384
54309W        W13405   1.813  24.485   0.271
54310W        W13406   8.256  37.049   0.754
54311W        W13407  22.635  17.689  13.853
54312W        W13408  33.568   0.942  12.482
54313W        W13409  38.960   3.355  11.529
54314W        W13410  21.722  12.153   0.468
54315W        W13411  16.228   6.304  11.086
54316W        W13412   8.895  31.027   4.204
54317W        W13413  35.450  42.024   1.237
54318W        W13414  20.234  21.097   2.816
54319W        W13415  14.759  29.468   3.168
54320W        W13416  19.158  20.580   1.276
54321W        W13417  37.452  41.338  12.485
54322W        W13418   7.818  40.480   1.216
54323W        W13419   9.269  32.991  11.513
54324W        W13420   0.760  37.360  14.019
54325W        W13421  32.602  21.556  14.321
54326W        W13422  13.685  44.928  12.372
54327W        W13423  25.693  23.595  11.059
54328W        W13424   1.817  16.122  11.418
54329W        W13425  24.132  10.641  13.037
54330W        W13426  41.905   3.777   0.840
54331W        W13427  10.141   9.298   2.670
54332W        W13428  35.991  36.935  10.575
54333W        W13429  43.819  33.504   1.775
54334W        W13430  33.921  22.698   1.427
54335W        W13431  25.174  22.049   1.357
54336W        W13432  22.608  14.736   0.762
54337W        W13433  35.366  12.699  14.464
54338W        W13434  31.946  35.436  14.396
54339W        W13435  33.086  37.999  11.963
54340W        W13436   2.780  12.748  13.895
54341W        W13437  31.522  28.468   3.350
54342W        W13438   3.863   5.849  10.612
54343W        W13439  42.851  15.710   1.790
54344W        W13440  35.375   6.907  14.450
54345W        W13441  34.058  35.018  13.870
54346W        W13442  27.550  20.531  10.937
54347W        W13443  43.952  35.897   4.775
54348W        W13444  41.313  29.583  11.419
54349W        W13445  19.052   6.222  13.533
54350W        W13446  19.579  17.193   5.148
54351W        W13447  12.345   8.813  10.963
54352W        W13448  36.587  38.903   2.414
54353W        W13449  36.889  40.320  13.800
54354W        W13450  20.045  16.642  12.841
54355W        W13451  43.369  17.303  12.974
54356W        W13452  34.385  14.218  14.411
54357W        W13453  37.925  34.064   1.397
54358W        W13454   9.368  23.172   3.733
54359W        W13455  11.271  26.517  13.491
54360W        W13456  24.046  30.116  13.054
54361W        W13457  11.290  37.581  12.059
54362W        W13458  40.006   5.691  11.602
54363W        W13459  21.619  37.836  11.931
54364W        W13460  10.695  14.743  12.022
54365W        W13461  26.107  34.026   0.903
54366W        W13462  29.450  36.086   5.213
54367W        W13463  38.008  18.190   9.557
54368W        W13464  23.659  17.695   3.360
54369W        W13465  35.866  24.052  11.413
54370W        W13466  23.111  36.949  14.846
54371W        W13467  30.424  40.864   4.776
54372W        W13468  22.145  11.270   0.399
54373W        W13469  14.221   8.775   1.719
54374W        W13470  26.466  32.900   1.913
54375W        W13471  11.300   6.854   0.864
54376W        W13472  12.180  32.981   0.464
54377W        W13473   0.472   7.353  12.963
54378W        W13474   1.930  25.212   3.870
54379W        W13475  43.466  20.669   4.677
54380W        W13476  41.319  44.873   2.300
54381W        W13477  35.882  40.491   0.831
54382W        W13478   8.397  26.012   5.266
54383W        W13479  11.644   1.277  12.540
54384W        W13480   4.361  20.138  12.033
54385W        W13481  41.450  36.036  12.431
54386W        W13482  20.238  34.103  11.549
54387W        W13483  21.588  19.708   2.774
54388W        W13484  39.522  21.175  12.425
54389W        W13485  12.260  20.267  14.284
54390W        W13486  16.606  33.068  14.818
54391W        W13487  15.245  15.181  14.831
54392W        W13488  12.728   5.743   4.353
54393W        W13489   8.403  32.577  13.488
54394W        W13490  22.684  26.169   1.435
54395W        W13491  18.745  43.018   1.890
54396W        W13492   1.237  35.852   0.933
54397W        W13493   2.397  23.179  14.923
54398W        W13494  19.655  44.882   0.804
54399W        W13495  23.673  39.397  13.900
54400W        W13496   9.293  14.771   0.822
54401W        W13497   3.878  26.134  12.835
54402W        W13498   9.726  12.612   0.860
54403W        W13499   1.359  37.374   1.280
54404W        W13500  33.981  19.605  12.876
54405W        W13501  24.999  19.158   3.376
54406W        W13502  24.544  36.445  12.442
54407W        W13503  16.251  13.693  13.509
54408W        W13504  36.421   4.295  11.957
54409W        W13505  27.537  15.254  10.948
54410W        W13506  25.138   7.220  12.092
54411W        W13507  12.276  27.530  12.053
54412W        W13508   4.878  36.051   1.845
54413W        W13509  37.433  18.061   0.347
54414W        W13510  38.990  37.563  14.910
54415W        W13511  17.066   5.787   4.132
54416W        W13512  41.006  27.015   2.369
54417W        W13513  44.952  32.430   2.417
54418W        W13514  35.447  24.185  11.901
54419W        W13515   1.291  25.041  12.064
54420W        W13516  32.391  18.185  14.294
54421W        W13517  25.696   2.326   4.340
54422W        W13518   2.869   9.763   3.287
54423W        W13519  31.614  30.949   2.192
54424W        W13520   8.794  41.523  12.853
54425W        W13521  29.547  30.614   2.751
54426W        W13522  14.266  24.111  11.494
54427W        W13523  31.080  35.542   0.348
54428W        W13524  11.171  38.040   3.155
54429W        W13525  35.466  44.808   3.825
54430W        W13526  18.559  28.498   0.466
54431W        W13527   0.459  24.683   2.277
54432W        W13528  38.991  34.386   1.230
54433W        W13529  30.936   5.876   2.768
54434W        W13530  31.111  41.329  11.121
54435W        W13531  11.671  37.043  12.972
54436W        W13532  38.418   9.174  12.527
54437W        W13533  21.622  18.784   3.229
54438W        W13534   8.378  42.795   1.816
54439W        W13535   5.858  30.038   1.231
54440W        W13536  38.892  12.766   2.195
54441W        W13537  18.693  44.465  14.335
54442W        W13538  22.565  32.602   3.739
54443W        W13539  30.995   5.284   3.268
54444W        W13540  19.544  20.600   1.366
54445W        W13541  33.975  18.063  13.324
54446W        W13542  17.230  15.795  11.494
54447W        W13543   8.705  24.075   1.703
54448W        W13544  20.092  37.400  13.506
54449W        W13545  28.949  28.637  12.853
54450W        W13546   8.765   0.375   0.754
54451W        W13547  34.401  42.954  12.865
54452W        W13548   6.763  40.891   4.655
54453W        W13549  18.549  21.561   3.832
54454W        W13550  31.545  42.427   3.226
54455W        W13551  25.512  26.462  10.925
54456W        W13552  11.265   8.798  14.915
54457W        W13553  21.195   0.899   0.312
54458W        W13554  44.984  10.249  11.485
54459W        W13555  34.962   0.899  11.397
54460W        W13556  17.274  32.501  11.102
54461W        W13557   8.808  29.522   1.885
54462W        W13558   9.381   5.928  11.030
54463W        W13559  15.268  29.160  13.451
54464W        W13560  30.091  23.105   0.925
54465W        W13561  13.213  35.594   4.260
54466W        W13562  26.098  43.300  13.818
54467W        W13563   1.397  20.245  12.906
54468W        W13564  40.879  33.043  11.573
54469W        W13565  25.053  38.428   2.401
54470W        W13566   9.349   3.219   2.817
54471W        W13567  35.475   9.668  11.510
54472W        W13568  33.989  13.845  13.903
54473W        W13569  41.895  23.686   2.773
54474W        W13570  26.089  19.623   2.266
54475W        W13571  19.674  14.257   4.832
54476W        W13572  24.154   0.461   0.405
54477W        W13573   1.814  25.208  14.889
54478W        W13574   5.422  33.013   4.653
54479W        W13575   7.315  40.934   3.327
54480W        W13576  37.371  30.131  14.375
54481W        W13577  22.110  22.061   1.394
54482W        W13578  12.296  35.557   2.347
54483W        W13579  26.161  37.570   3.826
54484W        W13580  38.852  20.123   2.735
54485W        W13581  29.455  33.946   0.449
54486W        W13582  12.199   4.381  13.324
54487W        W13583   0.908  14.101  10.140
54488W        W13584  31.149  30.572  14.344
54489W        W13585  30.065  25.516   4.743
54490W        W13586  22.042   6.342   0.255
54491W        W13587  30.154  39.030  12.823
54492W        W13588  32.399   7.371  11.980
54493W        W13589   1.361  41.339  12.386
54494W        W13590  40.467   7.371   2.236
54495W        W13591  19.773  41.937   0.475
54496W        W13592  25.668   3.353   3.336
54497W        W13593  34.558  37.862   1.751
54498W        W13594  42.352  23.101  12.365
54499W        W13595  17.173  35.038   5.195
54500W        W13596  25.656  12.826  11.881
54501W        W13597  35.526  36.532   2.298
54502W        W13598   2.810   5.215   3.355
54503W        W13599  43.424  11.854  10.518
54504W        W13600  17.738   3.395  11.105
54505W        W13601  24.184  10.863  12.372
54506W        W13602  23.651  10.727   3.248
54507W        W13603  13.634   6.825   1.769
54508W        W13604  17.674  37.551  11.574
54509W        W13605   4.372  25.186   1.428
54510W        W13606  23.063  28.558  10.440
54511W        W13607   5.885   4.308   2.839
54512W        W13608  14.831   1.296  10.546
54513W        W13609  44.478   5.341  13.949
54514W        W13610  10.801  34.487  13.028
54515W        W13611  30.552   0.361   1.803
54516W        W13612  23.609   6.909  13.850
54517W        W13613  13.700  36.416   1.307
54518W        W13614  36.042   0.796   0.916
54519W        W13615  24.508  38.950   1.800
54520W        W13616  11.287  10.279   4.813
54521W        W13617  27.165  13.791  12.939
54522W        W13618  43.822   2.853   1.764
54523W        W13619  38.561  42.414   3.324
54524W        W13620  33.936  14.147   5.566
54525W        W13621  12.165  36.397   4.328
54526W        W13622  33.028   3.732  13.038
54527W        W13623  35.458  24.578   5.113
54528W        W13624  16.760   7.192  14.372
54529W        W13625  36.564  25.167   2.250
54530W        W13626  20.138  17.229   4.294
54531W        W13627  28.652  44.919   2.763
54532W        W13628   9.277  17.702   4.340
54533W        W13629  23.228  15.198   1.222
54534W        W13630  25.664   9.651   4.220
54535W        W13631  30.647  22.218   2.749
54536W        W13632   2.816  22.230  14.811
54537W        W13633  28.988  37.378   0.352
54538W        W13634  37.382  17.245   3.331
54539W        W13635  16.618  12.193  13.474
54540W        W13636  43.835  10.289   4.742
54541W        W13637  33.989  10.151   3.740
54542W        W13638  26.615  15.602   2.767
54543W        W13639  34.452  42.005   4.718
54544W        W13640   7.904  43.939  11.421
54545W        W13641   4.387  20.662   4.173
54546W        W13642  24.021  27.952  14.287
54547W        W13643  37.985  18.728  14.014
54548W        W13644   4.780   6.888   4.256
54549W        W13645  28.507   1.278  11.858
54550W        W13646  16.796  23.089  14.808
54551W        W13647   1.870  23.534   4.171
54552W        W13648  11.185  23.122  14.884
54553W        W13649  11.165  35.925   3.167
54554W        W13650  30.151  37.872  13.845
54555W        W13651  23.152  30.643   4.119
54556W        W13652  17.762   9.304   1.769
54557W        W13653  11.285  22.720   0.945
54558W        W13654  23.141   6.203   3.201
54559W        W13655  40.972  28.160  13.446
54560W        W13656  14.822  43.994  14.400
54561W        W13657   6.211   0.849   1.863
54562W        W13658   9.171  36.490  12.572
54563W        W13659   4.711  24.618  13.325
54564W        W13660  42.366  41.935   1.932
54565W        W13661  27.014   8.664   0.735
54566W        W13662  26.686  23.529   4.829
54567W        W13663  18.238  15.195  12.920
54568W        W13664  18.064  33.549   5.188
54569W        W13665  35.418  14.273   4.298
54570W        W13666   6.396  11.667  14.427
54571W        W13667   7.730  34.966   1.436
54572W        W13668  44.763  13.787   4.771
54573W        W13669  41.300  15.281  13.876
54574W        W13670  15.172  37.835   4.822
54575W        W13671  18.263  34.572  14.487
54576W        W13672  22.589  35.393  14.346
54577W        W13673  33.106  14.299  14.432
54578W        W13674  35.929  42.924   4.225
54579W        W13675  15.579  26.975   3.335
54580W        W13676  31.029   7.268  10.461
54581W        W13677  42.420   2.799   2.281
54582W        W13678  18.243   3.882   3.376
54583W        W13679   2.318   7.210   4.306
54584W        W13680  10.778  25.635   1.805
54585W        W13681  31.935  29.088   0.449
54586W        W13682  35.377  22.668   0.943
54587W        W13683  18.106   1.318  13.954
54588W        W13684  10.867  38.544  14.957
54589W        W13685  40.335  17.107   5.204
54590W        W13686   0.456   9.285   2.236
54591W        W13687  37.866   1.757   3.250
54592W        W13688  22.682  33.906  13.488
54593W        W13689  22.168  32.924   2.299
54594W        W13690  29.126  15.297   1.390
54595W        W13691  29.159   6.696  11.962
54596W        W13692  12.796  29.972   3.380
54597W        W13693  11.682  41.406  13.950
54598W        W13694   8.874  34.909   2.887
54599W        W13695  36.890  30.990   3.154
54600W        W13696  12.620  43.774   2.824
54601W        W13697   3.455  21.681   3.678
54602W        W13698  41.896  43.908  14.305
54603W        W13699   4.427  39.319   4.786
54604W        W13700  15.243  35.525  11.940
54605W        W13701  23.635  31.024   3.293
54606W        W13702  13.280  11.674   1.811
54607W        W13703  28.013   1.881  11.491
54608W        W13704  34.509  13.702   1.921
54609W        W13705   4.766  25.067  13.856
54610W        W13706  25.619  32.401   4.188
54611W        W13707   8.683  14.164   4.759
54612W        W13708  33.574   6.815  10.614
54613W        W13709   4.348   4.932   1.239
54614W        W13710   9.223  33.916   4.716
54615W        W13711   5.322  33.560   1.390
54616W        W13712  11.349  27.691  13.934
54617W        W13713  13.665  29.027   2.756
54618W        W13714  44.839  17.566  11.537
54619W        W13715  42.321   1.844  14.431
54620W        W13716  19.573   3.906   1.877
54621W        W13717  12.338  36.979   2.272
54622W        W13718  37.495   3.437  14.006
54623W        W13719  23.703  10.356  13.313
54624W        W13720  10.276  15.611   0.855
54625W        W13721  41.829  36.532  12.926
54626W        W13722   7.275  16.759  14.023
54627W        W13723  29.058   5.918   4.815
54628W        W13724  39.416  11.233  11.020
54629W        W13725  18.554  39.056   2.419
54630W        W13726   8.390  41.458   4.196
54631W        W13727  42.368  20.751   2.662
54632W        W13728  26.616   4.232  12.431
54633W        W13729  19.168   3.759  13.339
54634W        W13730  44.927  39.558   2.748
54635W        W13731  41.407  36.457   1.324
54636W        W13732  41.479  33.905  12.393
54637W        W13733  16.733  30.620   0.330
54638W        W13734   0.802   1.434  12.354
54639W        W13735  40.052  22.220   1.914
54640W        W13736  31.577  16.301   5.175
54641W        W13737  38.402  15.645   1.839
54642W        W13738  23.580   6.428  14.304
54643W        W13739  27.558  36.454   0.817
54644W        W13740  40.006  38.549   1.702
54645W        W13741  16.795  33.413   5.240
54646W        W13742  38.019  15.723  13.421
54647W        W13743  17.160  35.475   2.771
54648W        W13744   3.409  28.649  11.111
54649W        W13745  43.879  11.310  14.879
54650W        W13746  41.389  11.258   0.281
54651W        W13747  38.416  13.840  14.849
54652W        W13748   3.863   1.236  14.477
54653W        W13749  14.724  39.424  13.544
54654W        W13750   2.348  40.924   4.212
54655W        W13751   7.404  10.726  14.797
54656W        W13752  22.024  23.063  11.024
54657W        W13753  44.926   9.811  13.485
54658W        W13754   2.822  28.465   0.833
54659W        W13755  28.441  31.440   2.342
54660W        W13756  39.390  21.535  14.766
54661W        W13757  42.393  35.439   2.870
54662W        W13758  33.129  20.149   2.868
54663W        W13759  26.987  26.008   1.326
54664W        W13760  27.529   2.800   4.281
54665W        W13761  41.357  27.083   2.726
54666W        W13762   9.199  12.652   0.753
54667W        W13763  44.483   6.294   2.297
54668W        W13764   7.246  34.918  14.010
54669W        W13765   7.845  24.044  10.968
54670W        W13766   4.398   7.192  11.862
54671W        W13767  38.061  14.334  11.512
54672W        W13768  17.704  20.246  14.808
54673W        W13769   5.425   2.924  11.049
54674W        W13770  44.400  13.306  13.028
54675W        W13771  20.732  21.020  11.421
54676W        W13772   3.898  22.157  13.309
54677W        W13773  21.562  30.908  12.931
54678W        W13774  14.708  20.695   1.833
54679W        W13775  34.073   2.871   2.738
54680W        W13776  32.891   4.880  14.834
54681W        W13777  25.509  23.600   2.850
54682W        W13778  31.958  33.130   3.696
54683W        W13779  23.227   2.312  13.860
54684W        W13780  25.663  43.970  13.372
54685W        W13781  42.439  30.538  14.324
54686W        W13782  35.061   2.355  12.073
54687W        W13783  25.498  41.843  13.897
54688W        W13784  31.615  35.515   3.783
54689W        W13785  24.598  41.383  14.391
54690W        W13786   5.738  37.996   3.359
54691W        W13787  15.216   6.322   0.760
54692W        W13788   9.171  42.910   2.664
54693W        W13789  11.866  40.045  11.492
54694W        W13790  42.811  33.990  10.947
54695W        W13791  42.370  44.482  13.063
54696W        W13792  13.841   1.743   0.826
54697W        W13793  16.717   7.786   1.927
54698W        W13794  27.147  38.478   3.278
54699W        W13795  16.244  35.472  12.962
54700W        W13796  26.637  33.420  14.760
54701W        W13797  16.647  29.466   3.259
54702W        W13798   9.154  11.336  11.087
54703W        W13799  44.867  16.261  11.493
54704W        W13800  31.443  31.512   2.295
54705W        W13801  34.605  12.680  12.563
54706W        W13802   5.728  21.631  13.518
54707W        W13803  42.026  38.437  13.314
54708W        W13804  23.719   0.358   4.830
54709W        W13805  39.949  16.109   0.757
54710W        W13806  30.082   6.302   3.167
54711W        W13807  41.915  33.995  13.860
54712W        W13808  21.160   2.303  12.940
54713W        W13809  31.538   2.784  10.915
54714W        W13810  31.988  24.075   0.420
54715W        W13811  35.027  41.534  14.890
54716W        W13812  44.477   3.858  10.130
54717W        W13813   1.365  26.957   1.900
54718W        W13814  28.543  39.558   1.820
54719W        W13815  31.440  26.495   1.343
54720W        W13816  17.739   1.920  13.519
54721W        W13817  26.007  42.290  14.430
54722W        W13818  29.563  24.497   1.286
54723W        W13819  12.152  38.379   3.167
54724W        W13820  12.792   6.839   2.702
54725W        W13821   6.746  14.800  11.554
54726W        W13822  10.705   3.821  10.491
54727W        W13823  11.186  35.929   1.885
54728W        W13824   7.207  33.411   1.328
54729W        W13825  33.509  32.584   0.417
54730W        W13826  18.631   0.474   4.135
54731W        W13827  27.128  11.349  11.559
54732W        W13828  10.797  40.449   4.614
54733W        W13829   8.230  11.708   2.220
54734W        W13830  44.443  44.491   2.361
54735W        W13831  33.386  40.446  14.395
54736W        W13832  24.700   7.362  14.779
54737W        W13833  34.096  29.490  13.799
54738W        W13834   7.264  40.340  11.442
54739W        W13835  18.638  19.247  13.802
54740W        W13836  40.391   0.414  12.566
54741W        W13837  21.538  21.652  12.437
54742W        W13838  40.503  33.979  11.040
54743W        W13839   0.427  38.384   2.841
54744W        W13840  42.932  43.429   4.316
54745W        W13841  40.054  26.655  14.397
54746W        W13842  28.576   7.259   3.785
54747W        W13843  37.345  10.374  14.359
54748W        W13844  35.030   5.934   4.157
54749W        W13845  16.626  14.636  13.350
54750W        W13846  30.089   1.468   2.200
54751W        W13847  43.460  42.866  11.429
54752W        W13848  13.323   3.406   4.125
54753W        W13849  43.450  15.312   2.320
54754W        W13850  19.619  22.219   4.251
54755W        W13851  19.746  20.586  11.517
54756W        W13852  42.025   8.770   2.791
54757W        W13853  17.178  37.968   0.428
54758W        W13854  35.432  24.660  13.861
54759W        W13855  17.102  35.488  10.091
54760W        W13856   0.472  23.165   3.148
54761W        W13857  14.332   1.934   2.229
54762W        W13858  34.907  22.099   1.332
54763W        W13859  41.932  21.733   4.725
54764W        W13860  19.617   3.909  13.433
54765W        W13861  18.584  41.300   2.269
54766W        W13862  42.306  30.468   1.273
54767W        W13863   4.876  38.859  11.423
54768W        W13864  33.922   6.396  10.916
54769W        W13865  40.000  21.616   2.670
54770W        W13866  10.807   3.277   0.358
54771W        W13867   7.798  27.148  12.093
54772W        W13868  35.960  25.053  12.827
54773W        W13869  10.317  43.349   1.772
54774W        W13870   8.706  10.171   4.755
54775W        W13871  19.184  39.817  11.989
54776W        W13872   2.956   6.767   2.802
54777W        W13873  16.077  31.005   4.209
54778W        W13874   9.194   5.409  11.384
54779W        W13875  18.582  32.391  13.318
54780W        W13876  12.850  29.027   3.275
54781W        W13877  40.851  25.113   2.783
54782W        W13878  20.678  10.201  10.451
54783W        W13879  32.609  43.508   4.144
54784W        W13880   4.269  15.280   4.341
54785W        W13881  39.904  10.278  13.505
54786W        W13882  11.824  32.515   2.222
54787W        W13883  40.048  19.077   4.807
54788W        W13884  42.817  41.338   4.802
54789W        W13885  12.322  19.575   0.960
54790W        W13886  34.552  30.985   1.755
54791W        W13887  37.049  37.957   4.782
54792W        W13888  26.086  43.861  11.533
54793W        W13889  28.122   3.891   3.747
54794W        W13890  34.937  14.235  10.955
54795W        W13891  33.418  10.299  14.816
54796W        W13892  21.166   1.287   4.273
54797W        W13893   6.836  34.568   0.861
54798W        W13894   0.311  11.339   1.351
54799W        W13895  24.038  19.208   1.275
54800W        W13896  32.949   0.792   0.747
54801W        W13897  34.117   2.252   1.910
54802W        W13898  26.483   0.411  11.126
54803W        W13899  13.618  40.434  10.634
54804W        W13900  26.534  22.178  11.476
54805W        W13901  25.110  37.081   1.217
54806W        W13902  25.531  44.284  11.906
54807W        W13903   1.263  17.673  14.766
54808W        W13904   7.313  24.087   5.764
54809W        W13905  11.794  29.943  14.981
54810W        W13906   7.183   8.166  12.417
54811W        W13907   2.863  37.369  10.905
54812W        W13908   6.717  39.938   3.815
54813W        W13909  40.309  33.962  14.801
54814W        W13910  15.590  11.200  12.898
54815W        W13911   7.413  23.183   2.793
54816W        W13912  32.922  22.623  10.544
54817W        W13913  33.569  33.877  14.871
54818W        W13914  15.585  28.139   1.450
54819W        W13915  37.834   5.225  14.488
54820W        W13916  41.938  20.720   1.223
54821W        W13917  40.311   4.375  13.354
54822W        W13918  35.593   9.755   0.332
54823W        W13919  15.669   8.718   1.850
54824W        W13920  37.900  40.953  11.088
54825W        W13921  33.945  14.614  14.303
54826W        W13922   1.761  40.540   0.411
54827W        W13923  18.611  30.512  12.446
54828W        W13924  11.825  40.956   2.806
54829W        W13925  22.163   9.250   3.742
54830W        W13926   4.810   1.837  12.474
54831W        W13927  14.770  24.710  10.961
54832W        W13928  24.117   5.846  13.417
54833W        W13929   6.859  24.159   2.805
54834W        W13930  24.493   5.427   2.417
54835W        W13931  43.871  38.373  14.282
54836W        W13932   6.413  16.748  11.388
54837W        W13933  14.314  41.430  13.943
54838W        W13934  33.605  40.816   3.365
54839W        W13935  18.715  40.037   0.421
54840W        W13936  33.041  12.750   4.664
54841W        W13937  17.761  17.135  12.975
54842W        W13938  23.557  34.932  12.989
54843W        W13939  12.763   9.765  13.918
54844W        W13940  36.446  42.962  14.962
54845W        W13941  31.532  37.928  10.925
54846W        W13942  28.437   3.292   1.810
54847W        W13943  37.057  23.605  12.548
54848W        W13944  43.869  14.797  11.952
54849W        W13945  10.207   8.374   1.304
54850W        W13946  32.097  44.990   1.442
54851W        W13947  35.518  33.966   4.311
54852W        W13948  31.012  23.626   5.271
54853W        W13949  11.259   6.337  13.334
54854W        W13950  38.446  19.652  13.890
54855W        W13951  25.092   3.844  10.632
54856W        W13952  22.107   2.934   1.903
54857W        W13953  14.316  26.951  14.031
54858W        W13954  37.044  19.595   0.420
54859W        W13955   1.379  42.965   0.438
54860W        W13956  11.843  44.810  12.409
54861W        W13957  32.454  19.161  13.537
54862W        W13958  18.669  20.717   3.640
54863W        W13959  43.917  31.022   2.739
54864W        W13960  39.043  30.102   4.779
54865W        W13961  25.522  29.597   4.727
54866W        W13962   2.273  31.466  10.518
54867W        W13963  11.789  12.178  11.577
54868W        W13964  24.567  28.033   1.747
54869W        W13965  36.464  27.028  13.856
54870W        W13966  37.993  31.031  14.893
54871W        W13967  16.291  14.159  12.855
54872W        W13968  12.185  40.367  10.447
54873W        W13969  16.794  37.050   1.329
54874W        W13970  10.252  22.511  14.327
54875W        W13971   1.468  18.286   2.863
54876W        W13972   4.792  11.149   9.959
54877W        W13973  29.532   8.701  13.918
54878W        W13974  32.610  39.020  10.645
54879W        W13975  12.661  21.171   1.342
54880W        W13976  39.470  22.169  11.913
54881W        W13977   5.238  36.983  10.595
54882W        W13978  18.152  27.078  12.885
54883W        W13979   7.275  34.054   3.172
54884W        W13980  25.982   1.905   2.378
54885W        W13981   3.910  13.280   2.685
54886W        W13982  15.279  40.525  11.427
54887W        W13983  14.662  28.436  10.956
54888W        W13984  31.063   1.305  14.974
54889W        W13985  11.697   5.767  11.954
54890W        W13986   3.310   4.830  11.060
54891W        W13987  17.735  27.004   3.729
54892W        W13988  14.274  19.044   3.862
54893W        W13989  14.799  18.633  11.899
54894W        W13990  34.515  35.961  10.910
54895W        W13991  19.702  43.363  11.612
54896W        W13992   9.339   6.298   3.177
54897W        W13993  12.356   6.893  12.826
54898W        W13994   4.942  32.552  10.975
54899W        W13995  17.223   4.865   5.280
54900W        W13996  25.061  15.281  11.519
54901W        W13997  19.777  44.848  14.340
54902W        W13998  13.738  14.826   2.298
54903W        W13999  27.980  43.373  11.984
54904W        W14000  30.962  29.610   3.853
54905W        W14001   3.400   9.167  14.310
54906W        W14002  11.790  40.390  14.426
54907W        W14003  38.031   4.805   1.449
54908W        W14004   6.811  33.121   3.630
54909W        W14005   9.859  32.592   2.264
54910W        W14006  11.188  11.751  11.973
54911W        W14007  33.519  17.158   1.878
54912W        W14008  24.195  29.936  10.995
54913W        W14009  37.071  30.062  14.790
54914W        W14010  22.116   6.812   3.260
54915W        W14011   9.772   9.222   1.870
54916W        W14012  27.479  34.511   3.634
54917W        W14013  37.556  39.997  14.449
54918W        W14014   3.858   6.214  13.547
54919W        W14015  12.175  22.225   3.349
54920W        W14016   6.257  33.611  14.460
54921W        W14017  21.512  32.497   1.720
54922W        W14018  38.897  42.976  12.029
54923W        W14019  21.656  22.081   3.311
54924W        W14020   0.965  35.418   1.813
54925W        W14021   5.428   5.411  12.979
54926W        W14022  31.410   2.793  11.982
54927W        W14023  24.578  16.244   3.335
54928W        W14024  21.550  35.503  14.769
54929W        W14025  35.036  40.536  13.806
54930W        W14026  33.441  12.716   3.232
54931W        W14027  18.269  39.329  13.911
54932W        W14028  27.509  35.043  14.465
54933W        W14029  13.326  40.355   3.743
54934W        W14030   3.300   0.936   3.154
54935W        W14031  34.870  41.023   1.353
54936W        W14032   8.202  44.991  14.334
54937W        W14033   2.288  12.761   2.732
54938W        W14034  31.028  21.670  10.426
54939W        W14035   3.415  32.908   4.270
54940W        W14036  13.305  15.115  10.148
54941W        W14037   3.281  15.782  14.887
54942W        W14038  18.588  25.183   4.695
54943W        W14039   2.866  41.008  13.452
54944W        W14040  43.879  34.041   4.344
54945W        W14041  12.683   6.898   3.669
54946W        W14042  30.516  22.027   3.650
54947W        W14043  18.159   7.399  13.009
54948W        W14044  42.508  23.024  11.916
54949W        W14045  41.963  29.092   1.302
54950W        W14046  13.321  21.088  10.941
54951W        W14047  43.373   7.844  13.447
54952W        W14048  20.155   4.290   2.700
54953W        W14049  20.215  22.144   3.834
54954W        W14050  42.450  13.709   2.294
54955W        W14051   0.285  22.064   3.657
54956W        W14052  23.125   9.315   2.242
54957W        W14053  43.397  29.072  13.502
54958W        W14054  21.128  38.377   4.829
54959W        W14055  27.609  23.667   3.818
54960W        W14056  10.152  36.360   1.212
54961W        W14057  29.034  17.109  13.443
54962W        W14058  34.475  19.570  12.421
54963W        W14059  22.650   8.395  11.967
54964W        W14060   6.295   6.245  10.924
54965W        W14061  15.187  27.974  12.505
54966W        W14062  34.977  11.636  11.448
54967W        W14063  25.060  24.991   1.436
54968W        W14064   5.775  43.488  11.900
54969W        W14065  10.662  30.138   1.312
54970W        W14066  26.482  38.820  12.864
54971W        W14067  31.632  30.152  13.957
54972W        W14068  38.829  35.455  10.531
54973W        W14069   9.867  13.685  13.859
54974W        W14070  35.968  24.065   2.371
54975W        W14071   9.178   4.839   2.700
54976W        W14072   2.799  11.817   2.207
54977W        W14073  14.642  11.135  14.028
54978W        W14074  11.197  19.751  11.496
54979W        W14075   4.798  41.464  13.314
54980W        W14076  31.555   3.252  14.794
54981W        W14077  43.505   2.749   1.811
54982W        W14078  19.115  44.885  13.389
54983W        W14079   9.310   3.851  14.940
54984W        W14080  20.614  11.707   4.837
54985W        W14081   4.832  17.595  12.558
54986W        W14082  44.496   2.865   2.219
54987W        W14083  38.341   5.857  13.484
54988W        W14084  14.696  43.361   3.643
54989W        W14085   6.741  44.954  10.592
54990W        W14086  11.623  26.524   4.608
54991W        W14087   7.702  37.516  10.549
54992W        W14088  42.436  31.591   1.929
54993W        W14089  37.458  28.590   3.293
54994W        W14090  16.277  32.491  11.571
54995W        W14091  10.381  19.153   1.299
54996W        W14092  17.071  20.568  14.931
54997W        W14093  37.883  11.300  13.821
54998W        W14094  26.572   8.310   1.391
54999W        W14095  32.023  10.796  11.974
55000W        W14096   7.229  28.493  10.984
55001W        W14097  33.426  29.965   3.316
55002W        W14098  21.644  42.457   1.902
55003W        W14099  39.471  19.566   2.683
55004W        W14100  28.090  32.112  14.339
55005W        W14101  17.585  17.159   1.908
55006W        W14102  15.088   0.392   4.131
55007W        W14103  20.211   6.703   1.729
55008W        W14104  31.528  40.338   1.240
55009W        W14105  41.370   2.785   1.444
55010W        W14106  27.593   4.880   0.867
55011W        W14107  41.003  36.371  12.353
55012W        W14108  38.075   7.306   3.268
55013W        W14109  27.170  20.167  13.801
55014W        W14110   4.797  38.510   4.691
55015W        W14111  38.843  24.082  10.596
55016W        W14112  18.555  10.875   1.269
55017W        W14113   6.805  30.439   1.397
55018W        W14114  30.459  32.006   9.997
55019W        W14115  38.967  11.372   0.749
55020W        W14116  25.023   1.740  10.455
55021W        W14117  22.023  43.284   3.796
55022W        W14118   1.397   8.242   4.187
55023W        W14119  18.080   5.901   3.852
55024W        W14120  39.987  14.681   2.804
55025W        W14121  19.692  39.939  14.368
55026W        W14122  43.316  35.388  11.457
55027W        W14123  15.293  25.553  12.029
55028W        W14124   1.917  32.964  14.937
55029W        W14125  11.686   2.886  11.557
55030W        W14126  26.609  17.260   0.897
55031W        W14127  39.469  10.781   3.161
55032W        W14128  33.986  19.053   3.821
55033W        W14129   0.876   6.358  12.365
55034W        W14130  23.678  38.051  11.413
55035W        W14131  17.670   8.361   3.382
55036W        W14132  28.046  32.456   0.453
55037W        W14133  42.032  28.544  11.488
55038W        W14134  40.521  38.826  12.951
55039W        W14135  12.780   4.249   4.624
55040W        W14136  24.207   7.272  10.129
55041W        W14137   4.230   1.286  14.790
55042W        W14138   2.329  25.168  14.417
55043W        W14139  10.733  44.385  14.275
55044W        W14140   0.258  38.837  13.411
55045W        W14141  18.650  20.232   0.948
55046W        W14142  25.116  26.981   1.271
55047W        W14143  19.651  32.041  13.826
55048W        W14144  21.089  32.598  10.552
55049W        W14145  15.595   1.261  11.503
55050W        W14146   8.696   3.263   3.232
55051W        W14147   0.835   4.353  11.395
55052W        W14148  19.612   9.875   2.795
55053W        W14149  21.565  37.960  11.563
55054W        W14150   6.292  21.663  13.506
55055W        W14151  36.842  41.308  12.399
55056W        W14152  35.515  33.544   2.303
55057W        W14153  30.507  20.737  10.989
55058W        W14154   6.812  16.226   4.674
55059W        W14155  33.948  38.398   3.813
55060W        W14156  37.897  36.391   0.846
55061W        W14157   6.707  20.255   1.376
55062W        W14158  19.244  11.844  14.826
55063W        W14159  40.511   8.273  12.084
55064W        W14160  22.042  14.814   0.875
55065W        W14161   3.409  22.113   1.792
55066W        W14162   3.416  13.846  11.045
55067W        W14163  43.918   7.257  14.776
55068W        W14164  16.114   8.165   0.420
55069W        W14165  40.917  44.786   4.338
55070W        W14166  44.490  36.968   1.887
55071W        W14167   4.732   3.846  10.527
55072W        W14168  19.218   8.397   1.356
55073W        W14169  11.264  30.573   1.346
55074W        W14170  36.371  21.051  14.276
55075W        W14171  36.551  20.125  14.902
55076W        W14172  14.163   3.436  11.541
55077W        W14173   0.834   8.665   3.245
55078W        W14174  35.504  40.496   1.367
55079W        W14175  12.245  22.646  11.871
55080W        W14176  35.086  32.055   4.830
55081W        W14177  38.872  38.953   0.764
55082W        W14178  13.197  36.534   4.661
55083W        W14179   1.325  18.579   0.416
55084W        W14180  12.333  17.144  13.946
55085W        W14181  30.000  42.879  11.022
55086W        W14182   5.434   2.439  10.890
55087W        W14183  30.440   8.375  13.421
55088W        W14184  36.552   8.832  10.549
55089W        W14185   1.830  12.122   4.696
55090W        W14186   6.232  29.030   0.286
55091W        W14187  26.085  19.253  11.861
55092W        W14188  26.647  21.146   3.329
55093W        W14189   4.921  16.688  10.613
55094W        W14190  25.688   5.829  10.918
55095W        W14191  35.537   4.296   2.376
55096W        W14192  11.622  21.626  11.112
55097W        W14193  25.601  39.978   0.466
55098W        W14194  14.274   8.762   3.227
55099W        W14195   4.936  29.172   2.727
55100W        W14196   8.782  12.833   0.750
55101W        W14197  39.547   7.863   3.737
55102W        W14198   9.657  30.908  12.977
55103W        W14199  14.271  25.123   2.769
55104W        W14200  43.767  43.453   0.422
55105W        W14201   1.478  29.578   2.349
55106W        W14202  14.695  36.861   3.739
55107W        W14203  23.201  38.979  10.148
55108W        W14204  41.317  23.203   0.346
55109W        W14205  22.120   5.820   1.873
55110W        W14206   0.297  17.223   3.635
55111W        W14207  31.600   9.166   4.717
55112W        W14208   0.964  14.811  11.502
55113W        W14209  14.741  37.075  13.361
55114W        W14210   9.363   6.252   1.830
55115W        W14211  33.558   0.493  14.484
55116W        W14212  33.494  39.349   2.773
55117W        W14213  37.011  29.034   4.154
55118W        W14214   4.436   9.666   3.333
55119W        W14215  20.572  18.676   4.751
55120W        W14216  11.639  30.994  12.508
55121W        W14217  41.469  40.003   4.263
55122W        W14218  13.198  15.294  10.959
55123W        W14219  44.416  18.747  11.603
55124W        W14220   8.226  22.123  14.465
55125W        W14221  11.705  32.885   4.135
55126W        W14222  15.653  11.702   0.826
55127W        W14223  43.951  14.601   1.723
55128W        W14224   3.293  36.507   0.779
55129W        W14225  12.340   5.714  13.029
55130W        W14226   4.288   4.229   4.655
55131W        W14227  16.695  43.453  12.509
55132W        W14228   2.401  33.988   2.823
55133W        W14229  18.763  15.238   0.863
55134W        W14230  20.202  11.262   3.384
55135W        W14231   3.462  17.235   1.268
55136W        W14232   3.764  13.630  10.965
55137W        W14233  11.212  20.689  14.449
55138W        W14234  27.948  22.529   4.299
55139W        W14235  37.473  20.525  13.372
55140W        W14236   0.920  43.940   1.905
55141W        W14237  25.091  29.608   4.805
55142W        W14238   3.442  40.329  10.546
55143W        W14239  25.080  40.388  13.435
55144W        W14240  30.941  40.846  11.865
55145W        W14241  24.224  37.445   2.250
55146W        W14242  40.816   0.486   1.797
55147W        W14243   2.893  38.955   2.218
55148W        W14244  35.420  13.754   5.106
55149W        W14245  42.332   3.815   2.895
55150W        W14246  19.554  20.202   4.343
55151W        W14247  13.283  38.486   2.665
55152W        W14248  35.521  20.731  10.563
55153W        W14249   4.723  26.587   1.765
55154W        W14250  40.977  25.572  12.844
55155W        W14251  36.515  26.582   2.296
55156W        W14252  11.722   0.765  11.528
55157W        W14253  24.117  40.452   1.268
55158W        W14254   6.908  25.632   1.239
55159W        W14255   0.820  22.688   2.239
55160W        W14256   6.804  13.615  12.928
55161W        W14257  19.215  27.637   0.451
55162W        W14258   7.406   0.322   0.398
55163W        W14259  36.493  36.496   0.738
55164W        W14260  40.414   3.458  11.070
55165W        W14261   8.284  22.112  12.881
55166W        W14262   3.312  34.935  12.511
55167W        W14263  36.954  23.995   2.203
55168W        W14264   8.766   7.220  10.012
55169W        W14265   9.265   5.749   0.786
55170W        W14266   4.890   3.450  10.144
55171W        W14267  35.101   3.239  10.459
55172W        W14268  12.704  11.629   4.758
55173W        W14269  36.491   6.301  12.453
55174W        W14270   3.456  27.687  12.339
55175W        W14271   9.298  40.898   1.393
55176W        W14272  12.772  15.121   5.152
55177W        W14273  33.923   4.301   2.284
55178W        W14274   5.288  13.308   2.817
55179W        W14275  18.054  40.953  12.366
55180W        W14276  34.117  35.969   2.337
55181W        W14277  12.218  39.513   1.403
55182W        W14278   7.351  23.498   0.760
55183W        W14279  18.573  16.131   2.899
55184W        W14280   8.383  25.642   5.719
55185W        W14281   8.298   7.676  11.953
55186W        W14282   3.717  38.904  11.889
55187W        W14283  12.197  13.323  10.108
55188W        W14284  37.483  18.584   2.686
55189W        W14285  24.691  12.734  13.508
55190W        W14286  13.713  38.531  12.087
55191W        W14287   1.870   9.673  11.111
55192W        W14288  22.164  11.721  12.443
55193W        W14289   5.695  17.092   0.252
55194W        W14290  44.434   9.662   3.767
55195W        W14291   4.793  18.752   3.184
55196W        W14292  36.366  26.697   3.182
55197W        W14293   6.252  38.419  10.470
55198W        W14294  30.982  13.125  11.882
55199W        W14295  11.330  41.811  10.929
55200W        W14296  35.973  30.085  10.640
55201W        W14297  39.018   2.758   0.919
55202W        W14298  43.885  28.644   0.932
55203W        W14299  41.944  16.127   0.753
55204W        W14300   2.288  36.868   0.898
55205W        W14301  24.178  40.825  12.957
55206W        W14302  24.722  26.990  13.501
55207W        W14303  26.497   9.250   1.385
55208W        W14304   4.378  39.931  11.582
55209W        W14305   3.345   4.745   4.218
55210W        W14306   5.366  44.326   2.240
55211W        W14307  10.278  18.209  14.387
55212W        W14308   3.219  24.553   2.725
55213W        W14309  34.102  16.127   0.917
55214W        W14310   9.851  13.194  12.430
55215W        W14311   2.446  12.126  13.968
55216W        W14312  16.273  20.614   0.454
55217W        W14313  24.015  37.018   2.878
55218W        W14314   5.412  35.860   1.900
55219W        W14315  35.927  43.850   3.735
55220W        W14316  14.099  31.995  13.493
55221W        W14317  32.984   2.468   4.334
55222W        W14318  44.460   9.235   4.235
55223W        W14319  16.752  34.443  14.337
55224W        W14320  30.164  21.207  11.109
55225W        W14321  27.999   8.896  12.842
55226W        W14322   6.875  16.255   0.826
55227W        W14323  41.861  22.632   4.656
55228W        W14324  15.609  16.122  12.963
55229W        W14325  42.514  42.823  14.303
55230W        W14326  40.414  11.164   0.283
55231W        W14327  30.012  16.696  12.429
55232W        W14328  25.086   2.256  14.910
55233W        W14329  24.150  17.570   0.466
55234W        W14330  15.141   4.445   3.686
55235W        W14331  25.027  14.255  11.507
55236W        W14332  42.463   0.795  13.389
55237W        W14333   3.223  41.367   2.277
55238W        W14334  42.782  27.640   3.769
55239W        W14335  27.171  11.665   3.684
55240W        W14336  33.448  12.325  14.359
55241W        W14337  14.696  39.394  11.937
55242W        W14338  40.543  23.728  12.529
55243W        W14339  18.221  17.688  13.860
55244W        W14340  30.993  38.417   1.213
55245W        W14341  33.435  38.012  10.943
55246W        W14342  12.812  19.607   2.710
55247W        W14343  42.990  27.510   2.357
55248W        W14344  43.272  29.073   1.766
55249W        W14345  44.281  35.042  10.898
55250W        W14346  41.972  20.756  11.934
55251W        W14347  37.506   5.788  12.340
55252W        W14348  32.600   8.871   0.858
55253W        W14349  13.808  27.658  14.288
55254W        W14350   7.781  31.562  12.941
55255W        W14351  39.839  19.627  14.304
55256W        W14352  10.845   7.308  10.411
55257W        W14353  31.417  13.705   0.365
55258W        W14354  39.856  44.827  12.873
55259W        W14355  28.673   0.357  10.951
55260W        W14356  23.085  10.644  11.601
55261W        W14357  44.395  19.088  10.581
55262W        W14358   0.334  16.210  12.081
55263W        W14359  10.259  34.940  14.793
55264W        W14360  40.532   1.944   1.812
55265W        W14361   2.249  33.094  10.993
55266W        W14362  18.138  19.684   1.696
55267W        W14363  13.349  32.936  10.965
55268W        W14364   8.322   5.434   0.910
55269W        W14365  34.433   5.384   4.145
55270W        W14366  35.435   3.374   4.638
55271W        W14367  24.061  27.067   0.389
55272W        W14368  36.438  22.123   9.438
55273W        W14369  22.033   5.234  10.426
55274W        W14370  21.721   4.288  14.979
55275W        W14371  34.967   2.380  12.553
55276W        W14372  16.142  31.425  13.830
55277W        W14373  14.825  39.017  12.012
55278W        W14374  31.994  33.027   1.368
55279W        W14375  43.425  28.042   4.343
55280W        W14376  10.212  11.149  13.848
55281W        W14377  19.748   7.257  13.929
55282W        W14378  26.087  23.161   0.811
55283W        W14379  26.619  22.090  14.800
55284W        W14380  26.519   1.344   1.300
55285W        W14381  43.870   4.718   0.830
55286W        W14382  22.087  10.760  13.350
55287W        W14383  39.521  43.440  12.425
55288W        W14384  11.199  13.264  14.886
55289W        W14385  27.452  18.271   0.786
55290W        W14386   7.289  30.946  14.486
55291W        W14387  21.260  28.583   3.841
55292W        W14388   5.807  29.534  13.026
55293W        W14389  28.464  32.899   2.683
55294W        W14390   2.804  16.800   3.207
55295W        W14391  34.938  12.728  13.926
55296W        W14392  39.532  30.017  11.011
55297W        W14393  38.553  24.125   1.266
55298W        W14394  26.966   1.361  13.052
55299W        W14395  39.054   2.234  11.572
55300W        W14396  22.655  16.259   0.851
55301W        W14397   0.457  10.638   3.317
55302W        W14398  34.396  36.936   2.182
55303W        W14399   4.775  31.534  13.991
55304W        W14400  18.201   0.862   3.148
55305W        W14401   9.681  34.387   3.811
55306W        W14402   6.689  43.906  14.498
55307W        W14403  41.411   5.361   4.636
55308W        W14404  31.537  34.583  13.793
55309W        W14405  31.003   7.774  13.491
55310W        W14406  37.352  34.427   0.928
55311W        W14407  14.130   5.784  11.023
55312W        W14408  41.006  22.238   3.346
55313W        W14409  30.645  27.081   5.103
55314W        W14410  44.895  38.453  12.502
55315W        W14411  37.487  28.554   2.861
55316W        W14412  24.226  19.096  14.966
55317W        W14413   8.847  18.264   3.171
55318W        W14414  22.670  25.111   0.782
55319W        W14415  20.263   0.761  13.879
55320W        W14416  27.977  24.498  13.502
55321W        W14417  16.152  17.715  13.374
55322W        W14418   6.898  18.694   2.761
55323W        W14419   3.253  13.160   2.758
55324W        W14420   7.216  44.008   1.924
55325W        W14421  41.297  10.169  14.920
55326W        W14422  13.335   0.797  14.992
55327W        W14423   4.888   2.964   3.835
55328W        W14424  29.432  24.713   2.706
55329W        W14425  21.612  26.953  12.946
55330W        W14426   0.971  21.694   4.259
55331W        W14427   0.897  18.103  10.633
55332W        W14428   8.888   8.355  13.044
55333W        W14429  10.805  35.957  14.028
55334W        W14430  41.995  32.534  11.421
55335W        W14431  28.446   1.810  11.440
55336W        W14432  43.457  32.441   0.780
55337W        W14433  13.285  31.986   4.698
55338W        W14434   4.280   1.365   1.323
55339W        W14435  13.821  42.331   4.603
55340W        W14436   2.436  17.130  11.428
55341W        W14437  13.740  22.115   1.412
55342W        W14438  43.006  19.185  13.838
55343W        W14439  32.054  19.537  11.452
55344W        W14440  30.437  22.050   2.316
55345W        W14441   0.300  14.755   4.603
55346W        W14442  17.659  22.152   2.696
55347W        W14443  12.262  29.570   1.281
55348W        W14444  21.710  14.208  13.855
55349W        W14445  22.574   4.815   2.334
55350W        W14446  33.102  33.510   4.334
55351W        W14447  12.751   4.339  13.439
55352W        W14448  28.028   4.881   3.247
55353W        W14449  18.747   2.779   2.680
55354W        W14450  34.069  37.341  13.413
55355W        W14451  22.710  37.876   1.306
55356W        W14452   3.407  12.175   0.858
55357W        W14453  30.640   9.799   0.739
55358W        W14454  13.317   8.775   4.233
55359W        W14455   4.335  17.588  12.917
55360W        W14456   9.263  32.988   2.367
55361W        W14457  37.878  38.894  13.031
55362W        W14458   3.952  41.520  11.552
55363W        W14459   5.803   0.878   2.896
55364W        W14460  28.541  21.137   5.252
55365W        W14461   3.368  36.909  12.071
55366W        W14462  33.076  40.987   1.422
55367W        W14463   7.810  31.023   1.438
55368W        W14464  29.591  10.758   1.229
55369W        W14465  33.886  22.652   2.882
55370W        W14466  14.661  11.822   0.731
55371W        W14467  25.118   7.323   3.259
55372W        W14468  36.577   2.838   4.825
55373W        W14469   9.853   5.699  14.284
55374W        W14470   9.207  11.292   4.735
55375W        W14471  26.988  30.153  13.870
55376W        W14472  13.254  38.886  13.484
55377W        W14473  12.295  25.583   3.219
55378W        W14474  17.622  32.440   1.441
55379W        W14475  34.453  10.678  14.810
55380W        W14476  26.593  17.235   1.356
55381W        W14477  37.571  22.521   3.358
55382W        W14478  11.857  38.951   1.449
55383W        W14479  18.280  22.018   4.272
55384W        W14480  37.437  11.264   0.757
55385W        W14481  38.499  38.437  10.525
55386W        W14482   9.301   0.914  14.309
55387W        W14483  20.629  14.809  12.067
55388W        W14484  11.372  37.930  11.515
55389W        W14485   8.845   1.928   3.313
55390W        W14486  34.615   2.242  11.924
55391W        W14487   5.423  27.109   1.746
55392W        W14488  12.725   8.365   4.139
55393W        W14489   6.259  33.550   4.728
55394W        W14490  35.970  13.211   4.159
55395W        W14491   5.882   9.277  12.910
55396W        W14492  28.985  41.533  10.478
55397W        W14493  17.560  41.977  13.006
55398W        W14494  27.691  13.322  14.395
55399W        W14495   9.864  38.499   3.222
55400W        W14496   1.848   2.901   1.789
55401W        W14497  43.800  33.048   1.765
55402W        W14498  14.829   7.784  12.882
55403W        W14499  29.938  21.132  10.544
55404W        W14500  12.192  22.651  11.477
55405W        W14501  36.372   7.683   4.597
55406W        W14502  26.171  43.401   1.837
55407W        W14503  37.962  42.015  11.952
55408W        W14504  31.428  37.937  13.534
55409W        W14505  11.699   5.384   4.207
55410W        W14506  29.058  19.709  14.281
55411W        W14507  10.237  40.497  13.967
55412W        W14508  17.759  19.208  10.610
55413W        W14509  44.282  37.047   5.322
55414W        W14510  40.477  27.083  13.938
55415W        W14511  36.531  35.405   2.178
55416W        W14512  25.624  32.905  13.911
55417W        W14513   1.328   4.787  11.925
55418W        W14514  15.683  21.030  14.877
55419W        W14515  41.002  34.877  10.636
55420W        W14516  32.598   5.285  12.974
55421W        W14517  19.630  43.786  13.047
55422W        W14518  25.643  24.555   3.247
55423W        W14519  43.407  42.345   3.315
55424W        W14520  39.915  21.758  10.585
55425W        W14521  14.258   5.408   1.842
55426W        W14522   0.298  31.984   0.935
55427W        W14523  14.109  29.987  14.991
55428W        W14524   6.917  42.403   0.866
55429W        W14525  33.046  10.359   2.395
55430W        W14526  26.207  42.792   2.311
55431W        W14527  28.932  41.325   1.836
55432W        W14528  19.644  44.942  10.554
55433W        W14529  25.171  18.741  12.407
55434W        W14530  19.723  19.120   0.838
55435W        W14531  15.782  27.165  13.911
55436W        W14532  26.463  24.699   4.184
55437W        W14533  38.002   9.218   4.162
55438W        W14534  20.560  33.973   2.265
55439W        W14535  15.281  32.132  11.375
55440W        W14536   7.179  12.255  11.468
55441W        W14537  16.782   1.382   4.697
55442W        W14538  34.033  18.688   3.386
55443W        W14539  41.350   5.909  10.443
55444W        W14540  41.904   5.931   0.788
55445W        W14541   8.390  43.005  13.417
55446W        W14542  10.861  21.057   4.285
55447W        W14543   8.865  28.657  10.891
55448W        W14544  32.121  33.954  10.998
55449W        W14545  24.698  33.053   0.467
55450W        W14546  24.222   7.244  12.892
55451W        W14547  18.752   6.804  13.848
55452W        W14548  42.425  42.904  13.429
55453W        W14549   4.358  26.570  14.797
55454W        W14550  23.154  30.033  11.009
55455W        W14551   6.688   4.910   4.676
55456W        W14552   0.934  37.488  11.408
55457W        W14553   1.858  26.065  12.384
55458W        W14554  31.963   3.755  12.455
55459W        W14555  44.411  32.467  10.992
55460W        W14556  38.521  17.706  12.839
55461W        W14557  37.461  17.790   2.777
55462W        W14558  15.618  22.210  13.889
55463W        W14559   5.194  22.027  11.599
55464W        W14560  37.339   2.346  12.495
55465W        W14561  31.910   2.236  11.385
55466W        W14562  38.436  27.991  14.979
55467W        W14563  30.433  26.144  10.957
55468W        W14564  32.425  28.586  14.908
55469W        W14565   9.364  23.585  10.934
55470W        W14566  23.582  39.534  14.781
55471W        W14567  24.196  15.725  12.563
55472W        W14568   7.779   2.923  10.919
55473W        W14569  36.470  14.252  12.422
55474W        W14570  20.633  42.013   0.359
55475W        W14571   8.818  24.125   4.774
55476W        W14572  27.188  33.898  13.970
55477W        W14573   3.942  40.537  14.384
55478W        W14574  41.449  11.333   4.818
55479W        W14575  12.213   3.885  13.337
55480W        W14576  42.843  14.751  11.450
55481W        W14577  43.020  19.663  11.994
55482W        W14578  40.933   3.813  12.005
55483W        W14579  16.165  39.968   3.162
55484W        W14580   8.181  31.633  14.792
55485W        W14581  22.729   7.900  14.460
55486W        W14582  24.610  26.613  14.877
55487W        W14583   2.833  28.602  14.879
55488W        W14584  32.402  24.165  10.624
55489W        W14585  15.273  34.375  14.958
55490W        W14586  23.141  37.971   1.302
55491W        W14587  15.701  41.347   1.850
55492W        W14588   4.874  27.468   0.788
55493W        W14589  17.307  14.110   3.749
55494W        W14590  31.515  27.534  14.954
55495W        W14591  19.262  11.845   2.819
55496W        W14592  44.995  19.171  11.375
55497W        W14593   5.785  42.432   2.734
55498W        W14594  13.843  16.655   3.272
55499W        W14595  36.369  26.559  14.504
55500W        W14596  27.945  21.750   4.306
55501W        W14597  36.026  40.356   4.278
55502W        W14598  15.250  34.967  11.033
55503W        W14599   1.260   5.368   2.851
55504W        W14600   7.864  31.006   2.315
55505W        W14601  17.098  32.420   0.379
55506W        W14602  38.006   4.375  10.636
55507W        W14603  10.660  25.103   2.704
55508W        W14604  24.676  25.607  10.450
55509W        W14605  26.001   5.336   3.181
55510W        W14606  22.692  25.195  13.434
55511W        W14607   7.736   5.406   3.339
55512W        W14608  16.098  44.475  11.041
55513W        W14609  19.699   2.430   2.220
55514W        W14610   2.427  22.573  11.971
55515W        W14611  38.387  35.907   3.280
55516W        W14612  37.530  11.332   3.369
55517W        W14613  33.119  30.455  10.507
55518W        W14614  44.919  34.426   4.128
55519W        W14615  44.424  40.427   3.712
55520W        W14616  40.809  15.234   1.289
55521W        W14617  19.183   0.448  10.406
55522W        W14618  42.407  30.935  14.911
55523W        W14619  16.113  16.137   0.344
55524W        W14620  24.480  37.360  13.792
55525W        W14621  30.118  42.324   2.752
55526W        W14622  38.820  32.059   3.806
55527W        W14623   8.359   4.909   4.833
55528W        W14624  25.969   5.833  14.400
55529W        W14625  25.491   2.433  12.369
55530W        W14626  39.918   8.163   2.383
55531W        W14627  32.944   7.252  14.807
55532W        W14628  36.893  24.725  10.522
55533W        W14629  24.552  18.239   0.395
55534W        W14630   3.785  25.074   5.607
55535W        W14631  19.722  36.575   9.526
55536W        W14632  42.805   7.231  12.867
55537W        W14633  17.696   8.667   4.673
55538W        W14634   9.201  31.075   3.314
55539W        W14635  31.506   9.809   3.235
55540W        W14636   0.898  40.009  11.461
55541W        W14637  40.994   9.732   2.417
55542W        W14638  41.462  40.467   4.327
55543W        W14639  16.626  20.680  10.888
55544W        W14640  22.194  25.211   2.792
55545W        W14641  32.070  11.695  12.378
55546W        W14642  20.144  14.613   2.341
55547W        W14643   4.908  18.747   3.730
55548W        W14644  34.501  29.146  10.422
55549W        W14645  23.599  36.955   1.779
55550W        W14646  23.215  42.947   4.800
55551W        W14647  36.457  15.186   1.240
55552W        W14648  28.659  38.373  13.011
55553W        W14649  30.026  12.314   2.204
55554W        W14650  26.981   5.800   2.392
55555W        W14651  24.558  43.892  12.527
55556W        W14652   5.777  19.662  14.022
55557W        W14653  37.560   7.243   1.397
55558W        W14654  32.969  10.717  11.033
55559W        W14655   6.424  14.715  11.537
55560W        W14656  10.788   9.197  11.432
55561W        W14657   4.261  36.498  10.417
55562W        W14658  13.141   3.742   0.753
55563W        W14659  15.803  32.966  13.486
55564W        W14660  17.573  22.061  10.524
55565W        W14661   1.915  29.526   0.743
55566W        W14662   1.940  28.965   3.312
55567W        W14663  33.412   6.739   1.753
55568W        W14664  14.600  14.181   2.267
55569W        W14665   5.203  41.404  11.893
55570W        W14666  18.198  11.809  10.486
55571W        W14667   5.707  17.071   1.838
55572W        W14668  38.856   7.865   0.259
55573W        W14669   5.692  18.256  13.897
55574W        W14670   0.916  25.480   1.707
55575W        W14671  42.431  11.223   2.677
55576W        W14672  16.089  38.348  12.468
55577W        W14673  13.739  25.088  13.008
55578W        W14674  41.328  21.147  14.477
55579W        W14675  37.398  12.803   2.664
55580W        W14676  32.027   9.763   0.888
55581W        W14677   0.476  28.535  11.560
55582W        W14678  44.287  23.508  11.559
55583W        W14679  39.387   2.900   3.684
55584W        W14680  13.180  41.938   2.664
55585W        W14681   1.378  39.380   0.396
55586W        W14682  28.110   3.253  14.432
55587W        W14683  21.120  35.403  11.480
55588W        W14684  24.980  16.697   2.757
55589W        W14685  32.016   7.214  14.877
55590W        W14686   6.411   3.272   3.669
55591W        W14687  10.733  10.349   4.628
55592W        W14688  14.683  26.585   4.220
55593W        W14689  22.673  35.996   1.447
55594W        W14690  26.689  44.924   3.858
55595W        W14691  13.124  34.086   5.134
55596W        W14692   8.731  21.243  12.371
55597W        W14693  37.874   0.372  13.959
55598W        W14694  22.095  25.641  11.987
55599W        W14695  12.740   0.748  10.500
55600W        W14696  33.069  43.491  12.956
55601W        W14697  10.764  31.020   0.812
55602W        W14698  19.729  27.135   4.165
55603W        W14699   8.879  18.209  11.592
55604W        W14700  20.193  36.553   9.584
55605W        W14701  12.690  27.689   4.208
55606W        W14702  35.935  17.221   3.836
55607W        W14703   3.229  14.827   4.312
55608W        W14704  26.526  13.825   3.327
55609W        W14705  26.067   2.725  11.430
55610W        W14706   4.821   2.916  10.950
55611W        W14707   3.423  16.238   2.836
55612W        W14708   1.852   8.235   4.185
55613W        W14709  35.576   4.227  14.995
55614W        W14710  35.555  25.015  11.011
55615W        W14711  33.057  28.451  13.403
55616W        W14712  32.885  28.951   2.349
55617W        W14713  42.002   6.296   1.742
55618W        W14714  30.934   9.358   2.378
55619W        W14715  19.562  25.590   3.381
55620W        W14716  38.920  38.973   1.773
55621W        W14717  30.952   5.843  12.484
55622W        W14718  43.341  29.605  10.634
55623W        W14719  28.033  38.556  11.436
55624W        W14720  20.191   1.735   1.219
55625W        W14721  15.273  23.237  12.456
55626W        W14722  33.903   7.390  11.863
55627W        W14723   4.320   0.315  13.413
55628W        W14724  22.559   3.949   3.153
55629W        W14725  44.436   7.377  12.982
55630W        W14726  27.490  36.551  14.010
55631W        W14727   9.261  38.351  14.371
55632W        W14728  19.533   6.683  10.160
55633W        W14729  34.036  21.750  13.859
55634W        W14730  21.209  11.649   4.118
55635W        W14731  17.258   0.764  14.026
55636W        W14732  24.688  44.295   3.809
55637W        W14733  19.205  24.624  11.008
55638W        W14734  40.974  14.243   2.238
55639W        W14735  31.575   4.264  11.980
55640W        W14736  28.668  16.306   3.270
55641W        W14737  36.073  31.958  10.433
55642W        W14738  16.225  42.432   4.600
55643W        W14739  31.534  42.894   1.442
55644W        W14740  26.096  15.659  14.503
55645W        W14741  25.982  35.508   3.176
55646W        W14742  14.233  40.923  11.947
55647W        W14743   5.798  17.644   0.795
55648W        W14744  25.551  20.126  12.352
55649W        W14745  27.488   6.736  14.974
55650W        W14746  42.426   0.826   2.258
55651W        W14747  44.889  32.100  10.584
55652W        W14748   5.238  15.153  12.841
55653W        W14749   5.880  39.396  10.969
55654W        W14750   9.798  40.861  12.416
55655W        W14751  11.286  28.673  12.399
55656W        W14752  43.442  24.636  12.825
55657W        W14753  21.090  20.569  13.542
55658W        W14754  32.898  41.869   3.184
55659W        W14755   3.815  11.829  13.024
55660W        W14756   5.902  15.733  13.368
55661W        W14757  10.697  10.762   0.361
55662W        W14758  44.382  23.570   0.368
55663W        W14759  21.543  41.438  13.904
55664W        W14760  42.482  29.455   1.400
55665W        W14761   0.767  10.803  11.059
55666W        W14762  24.595  41.856   4.177
55667W        W14763  23.664  41.037   2.397
55668W        W14764  41.939  12.240  12.348
55669W        W14765   5.734  34.495  11.085
55670W        W14766  34.461  36.465   2.399
55671W        W14767  13.765  20.074   4.779
55672W        W14768  42.021  31.152  12.441
55673W        W14769  39.929  19.740   2.370
55674W        W14770  37.880  37.521   4.687
55675W        W14771  40.874  38.867  14.884
55676W        W14772  32.131  19.235   1.753
55677W        W14773  22.217  44.973  10.488
55678W        W14774   3.908  15.302   4.210
55679W        W14775   3.770  40.450   1.217
55680W        W14776  42.350  32.943   1.824
55681W        W14777  19.168  43.935   4.702
55682W        W14778  21.565   1.436  12.458
55683W        W14779  21.198   4.317   3.841
55684W        W14780   4.733   0.430   4.184
55685W        W14781  10.168  42.400  13.048
55686W        W14782  31.424  13.634   4.649
55687W        W14783  40.840  30.460   3.280
55688W        W14784  24.017   5.266   0.727
55689W        W14785  37.459  31.946  11.897
55690W        W14786  13.339   3.880  13.402
55691W        W14787   3.247  17.686   1.214
55692W        W14788   3.305  17.737  12.001
55693W        W14789  22.031   7.814   1.218
55694W        W14790  12.687   6.204  14.440
55695W        W14791  33.998  36.898   0.775
55696W        W14792  17.062  42.778  12.828
55697W        W14793  44.837  39.527  14.287
55698W        W14794  15.709  35.933  11.033
55699W        W14795  43.962  10.369   1.706
55700W        W14796  31.595  11.767  11.923
55701W        W14797  20.675  26.065  12.428
55702W        W14798   5.697  14.629   1.431
55703W        W14799  33.943   7.813  11.495
55704W        W14800  26.125  24.979   2.730
55705W        W14801  35.524   7.331   0.444
55706W        W14802  16.569  40.476   2.199
55707W        W14803  11.644  19.708  10.518
55708W        W14804  38.352  29.982   1.725
55709W        W14805  25.179  19.113  13.494
55710W        W14806  44.928  30.128  11.926
55711W        W14807  19.557  25.971  13.364
55712W        W14808  22.197  36.972   4.129
55713W        W14809   0.800  38.862   5.088
55714W        W14810  26.643  42.410   3.751
55715W        W14811  26.459   0.251  11.547
55716W        W14812  43.452   9.168  11.415
55717W        W14813  28.054  25.021   4.354
55718W        W14814  31.138   0.920  10.571
55719W        W14815  32.916  26.090   9.656
55720W        W14816  21.235  18.258  14.285
55721W        W14817   4.735  35.505   1.715
55722W        W14818  34.584  42.315   3.661
55723W        W14819   9.647  23.239   4.653
55724W        W14820  36.380   3.461   5.175
55725W        W14821   4.905  10.260  10.118
55726W        W14822   6.818  34.053   0.359
55727W        W14823  19.612  19.269   1.800
55728W        W14824  39.559  16.759  13.847
55729W        W14825  31.009  18.216  11.414
55730W        W14826  26.699  16.672  10.623
55731W        W14827  27.473   6.259   1.355
55732W        W14828  11.208   6.385   4.159
55733W        W14829  20.553   1.384   0.928
55734W        W14830  17.074  32.626   3.725
55735W        W14831   2.455  22.637   1.810
55736W        W14832  27.519  26.570   0.860
55737W        W14833   4.299  24.161  14.480
55738W        W14834  11.807  20.029  11.468
55739W        W14835  25.545   6.251   3.820
55740W        W14836  37.004  23.204   2.377
55741W        W14837   8.783   7.737   4.231
55742W        W14838  15.313  23.212  13.856
55743W        W14839  22.625  42.964   1.374
55744W        W14840  28.451   4.791  10.610
55745W        W14841  17.252  28.480   3.304
55746W        W14842  14.676  18.727  13.957
55747W        W14843  11.822  26.589   0.468
55748W        W14844  21.174  39.391  14.760
55749W        W14845  28.559  19.217   5.110
55750W        W14846  10.684  40.355  10.965
55751W        W14847  40.476  33.478   4.316
55752W        W14848  10.328  30.009  12.533
55753W        W14849   9.355   4.862   0.909
55754W        W14850  38.964  14.819  13.008
55755W        W14851  37.341   5.355   0.744
55756W        W14852  35.988  20.709  14.792
55757W        W14853  30.455  27.642  12.971
55758W        W14854  42.450  43.959  13.543
55759W        W14855  44.832  44.823   4.659
55760W        W14856  39.316  20.269   2.194
55761W        W14857  34.454  18.202   5.616
55762W        W14858  35.898  38.906   5.087
55763W        W14859  25.478  28.027   4.669
55764W        W14860  13.225  18.140  12.579
55765W        W14861  34.942  13.688  14.019
55766W        W14862   3.440  12.150   1.713
55767W        W14863   1.834  11.813  11.596
55768W        W14864  10.810  44.978   0.479
55769W        W14865  23.552   1.274  12.518
55770W        W14866  30.992   8.896  12.518
55771W        W14867  41.448  42.999   4.260
55772W        W14868  40.460  36.421   1.789
55773W        W14869  26.983  42.892   1.334
55774W        W14870  27.467  15.824   2.298
55775W        W14871  20.202  26.200   2.401
55776W        W14872  28.103  25.575  11.451
55777W        W14873  10.226  40.052  11.998
55778W        W14874  16.736  35.397   5.309
55779W        W14875  13.298  31.644   0.931
55780W        W14876   1.321  44.315  14.413
55781W        W14877  20.141  38.439   1.843
55782W        W14878  13.810   8.772   1.815
55783W        W14879  10.658  40.981  14.936
55784W        W14880  10.183  30.606  14.437
55785W        W14881  33.591  38.533  11.478
55786W        W14882  39.044  18.667  10.518
55787W        W14883   6.196  36.529  14.968
55788W        W14884   3.302  20.178  12.387
55789W        W14885  23.594  34.962  13.477
55790W        W14886   0.829  23.691   4.602
55791W        W14887  18.593   0.941  11.866
55792W        W14888   6.291   5.703  11.379
55793W        W14889   4.443   4.380   1.764
55794W        W14890   0.890   8.373   4.279
55795W        W14891   5.693  20.060  11.953
55796W        W14892   4.920  19.069   0.366
55797W        W14893   6.787  16.583   0.761
55798W        W14894   5.430  11.779   1.747
55799W        W14895  30.420  34.547   4.160
55800W        W14896  31.061  39.323  12.959
55801W        W14897  29.018  35.421  13.017
55802W        W14898  26.129  32.008   1.919
55803W        W14899  31.519  29.525   2.787
55804W        W14900  34.017   2.395   0.281
55805W        W14901  30.955  10.840  13.533
55806W        W14902  20.753  11.792   1.289
55807W        W14903  39.809  34.075   2.744
55808W        W14904  34.906  32.063  12.505
55809W        W14905  13.801   6.872  11.597
55810W        W14906  32.912   4.323   1.360
55811W        W14907  17.089  39.400   3.166
55812W        W14908  20.574  35.526  11.949
55813W        W14909  13.605   2.748   4.672
55814W        W14910  43.442   4.297   0.922
55815W        W14911  13.695  22.040  13.524
55816W        W14912   6.762   0.805  11.457
55817W        W14913  21.699  30.074   1.309
55818W        W14914  39.850  24.006  12.003
55819W        W14915   8.261   2.384  13.451
55820W        W14916   3.851  36.844   3.285
55821W        W14917  35.095  42.010  13.474
55822W        W14918  20.221   6.405   2.718
55823W        W14919  20.570  21.584   1.284
55824W        W14920   1.731  25.997  11.449
55825W        W14921   0.877  35.991   1.287
55826W        W14922  33.619  43.280   0.285
55827W        W14923  34.574   4.920   0.397
55828W        W14924  22.505  28.632  14.353
55829W        W14925  14.280  22.725  14.771
55830W        W14926  40.537  29.461  10.605
55831W        W14927  28.624  18.764   3.707
55832W        W14928  25.605  39.549   0.376
55833W        W14929  12.307  39.442  12.503
55834W        W14930  38.369  13.181   0.372
55835W        W14931  42.386  16.607   3.250
55836W        W14932   1.245  25.482   2.349
55837W        W14933  17.688  35.922   4.279
55838W        W14934   1.824  32.474  14.294
55839W        W14935  18.131  18.061   4.677
55840W        W14936  16.091  23.018   0.377
55841W        W14937  35.542  10.732   2.214
55842W        W14938  25.658  21.640  13.548
55843W        W14939  12.201  31.001   0.420
55844W        W14940  27.671  41.005   3.828
55845W        W14941  35.088  21.687   2.320
55846W        W14942  34.490  40.013   2.883
55847W        W14943  29.503  32.613  13.522
55848W        W14944  12.229  36.522   4.837
55849W        W14945   8.166  15.682  14.918
55850W        W14946   6.877  30.429  13.044
55851W        W14947  25.145  14.782  10.990
55852W        W14948   9.875   2.936   4.773
55853W        W14949  38.897  39.522   3.691
55854W        W14950  23.198  29.481  11.876
55855W        W14951  15.206  38.897   3.869
55856W        W14952  24.560  25.491  10.905
55857W        W14953   6.339  34.005   3.323
55858W        W14954  16.296  45.000  12.477
55859W        W14955  39.362  26.658  11.532
55860W        W14956   2.928  25.643  11.951
55861W        W14957  37.514  10.756  13.439
55862W        W14958   5.806  15.730  14.937
55863W        W14959  13.712  44.982   4.646
55864W        W14960   8.779  11.241  10.547
55865W        W14961  22.747   5.842   0.266
55866W        W14962  16.124  13.223   0.735
55867W        W14963   1.353  39.063  10.556
55868W        W14964  38.399  13.804   0.816
55869W        W14965   1.319  30.542  10.496
55870W        W14966  44.259  41.813  13.892
55871W        W14967  37.963  11.288  11.091
55872W        W14968   6.905  38.016  13.312
55873W        W14969  41.892  37.868  13.027
55874W        W14970  27.983  36.360  13.458
55875W        W14971  35.497  17.168   1.744
55876W        W14972  24.696   3.233  13.918
55877W        W14973   8.233   0.745  13.440
55878W        W14974  33.603  11.758   1.248
55879W        W14975   9.727   1.855  14.494
55880W        W14976   7.184  17.603  10.504
55881W        W14977  27.481   8.300  12.353
55882W        W14978  36.585  38.497   1.927
55883W        W14979  19.663  21.571  12.998
55884W        W14980  25.553  20.072  14.362
55885W        W14981  44.851  26.522   4.167
55886W        W14982  31.440  30.912   1.309
55887W        W14983  34.377  12.327  14.340
55888W        W14984   1.383  43.352  10.925
55889W        W14985   5.852  42.526  14.453
55890W        W14986  37.906  35.543  13.803
55891W        W14987  29.534   1.813  10.030
55892W        W14988  16.257  27.683  13.414
55893W        W14989  36.895  30.131   3.251
55894W        W14990   8.172  34.531   1.402
55895W        W14991   8.381  33.002  11.986
55896W        W14992  34.432  13.708   0.368
55897W        W14993  32.630  21.158   4.783
55898W        W14994  10.183  22.235  11.573
55899W        W14995  25.651  16.169   2.876
55900W        W14996  41.491  41.338   3.650
55901W        W14997  18.692  40.904  11.120
55902W        W14998  33.939   9.709  11.898
55903W        W14999   0.283  34.053   0.287
55904W        W15000  27.150  38.387   2.855
55905W        W15001  41.459  13.289  13.433
55906W        W15002   6.831  24.103   3.708
55907W        W15003  37.358  24.074  10.505
55908W        W15004   8.204   4.702  12.518
55909W        W15005  30.059   1.300   4.341
55910W        W15006  14.176  38.566   4.302
55911W        W15007  31.587   2.753   3.155
55912W        W15008  19.075   2.909   1.436
55913W        W15009  26.011  41.500  12.853
55914W        W15010  41.937   1.332   1.728
55915W        W15011   8.357  22.137   1.830
55916W        W15012  35.410  36.493   0.435
55917W        W15013  16.091   1.956  10.964
55918W        W15014   8.338  40.021  14.496
55919W        W15015  34.055  28.441  11.128
55920W        W15016  34.937  26.111   1.442
55921W        W15017  42.317  35.378  12.530
55922W        W15018   7.244   7.232   1.223
55923W        W15019   9.795  36.957  11.973
55924W        W15020  36.877  35.924  12.576
55925W        W15021  40.869  32.424   1.288
55926W        W15022  18.086  28.662   1.348
55927W        W15023   5.740   2.921  13.342
55928W        W15024  41.980  16.799   1.219
55929W        W15025  36.001  24.230  13.939
55930W        W15026  39.337  20.658   0.465
55931W        W15027  42.388  26.637  11.937
55932W        W15028  24.227  16.686   4.266
55933W        W15029  29.467  31.513   3.259
55934W        W15030  39.412   5.745  13.954
55935W        W15031  36.578  34.082  11.588
55936W        W15032  34.383  37.901  12.906
55937W        W15033  42.928  12.620   4.666
55938W        W15034  22.647   1.483  13.865
55939W        W15035  42.957  44.280   1.215
55940W        W15036  39.358   6.683  13.907
55941W        W15037  35.109  15.238  14.451
55942W        W15038  29.947  14.752  12.976
55943W        W15039  32.427  26.123   2.404
55944W        W15040  12.612   0.443   4.764
55945W        W15041  19.702  26.100  14.777
55946W        W15042  12.739  10.675  12.501
55947W        W15043  25.095  29.510  10.597
55948W        W15044  38.840   0.777  11.922
55949W        W15045  42.026  13.303  11.087
55950W        W15046   2.921  29.532   4.327
55951W        W15047  25.125  32.465  14.015
55952W        W15048   1.403  17.208   1.300
55953W        W15049  36.480  32.418  13.414
55954W        W15050  15.790  20.174   2.280
55955W        W15051   2.270  11.169   4.243
55956W        W15052  15.225   2.789  10.404
55957W        W15053  42.365  20.090  11.007
55958W        W15054   7.708  18.229   0.950
55959W        W15055  19.719  38.533  13.864
55960W        W15056   3.812  33.507   1.906
55961W        W15057  35.578  19.684   1.332
55962W        W15058   4.716  16.701   4.701
55963W        W15059  11.212  44.464  13.501
55964W        W15060  22.098  36.516  11.601
55965W        W15061  21.665  14.130  10.404
55966W        W15062  36.565  32.407   2.255
55967W        W15063   3.872  22.580   2.312
55968W        W15064  20.246  36.382   5.650
55969W        W15065  34.556  15.322   3.752
55970W        W15066  24.653  30.648  10.536
55971W        W15067  12.657  41.483   3.189
55972W        W15068  27.534  42.012  13.478
55973W        W15069  42.920  32.414  10.477
55974W        W15070   0.281  19.693   4.246
55975W        W15071  41.976  36.565  14.914
55976W        W15072  23.155  42.360   0.874
55977W        W15073  32.625  21.559  14.004
55978W        W15074   6.798   6.296  14.985
55979W        W15075   7.846  28.105   1.778
55980W        W15076  17.602   2.824   2.227
55981W        W15077  22.611  19.692   2.844
55982W        W15078  17.579  29.943  12.084
55983W        W15079  24.716  10.875  12.957
55984W        W15080  30.947  16.697  13.839
55985W        W15081  41.515  42.841   0.789
55986W        W15082  16.268  43.338   1.351
55987W        W15083  43.825  12.741  12.464
55988W        W15084  29.016  25.001   0.382
55989W        W15085  14.799  33.893  14.374
55990W        W15086  16.584  18.712   1.915
55991W        W15087   2.824   7.697   3.176
55992W        W15088  23.601   9.858  14.351
55993W        W15089  34.431  20.586   2.879
55994W        W15090  34.120  30.088   4.666
55995W        W15091  18.158   8.360  13.545
55996W        W15092   0.825  39.453   0.754
55997W        W15093  25.982  16.739   5.290
55998W        W15094  41.936  13.605   0.912
55999W        W15095   0.455  41.516  14.765
56000W        W15096   2.305  36.485  10.420
56001W        W15097  40.425   1.274  14.784
56002W        W15098  44.300   8.325  14.960
56003W        W15099  33.913  41.870   4.250
56004W        W15100  30.528  27.161  10.089
56005W        W15101  10.141  40.999  14.409
56006W        W15102   3.942  13.839  13.956
56007W        W15103  40.936   1.954  12.363
56008W        W15104  10.205  25.562  10.544
56009W        W15105  17.675  13.142   2.738
56010W        W15106  17.148  40.981  13.850
56011W        W15107  23.183   7.820  14.768
56012W        W15108  12.725  30.001  13.823
56013W        W15109  34.942  30.157  11.426
56014W        W15110   5.364  38.993   3.818
56015W        W15111   5.390  30.922   4.190
56016W        W15112  26.957  38.379   2.311
56017W        W15113  41.304  30.134   3.315
56018W        W15114  23.519  24.014   4.706
56019W        W15115  21.079  11.707  14.010
56020W        W15116  23.717   5.193   1.304
56021W        W15117  12.232  33.878  10.436
56022W        W15118  24.706  34.046  14.392
56023W        W15119  26.646  31.546  11.876
56024W        W15120  43.381  34.902   1.226
56025W        W15121  39.504  43.793   4.838
56026W        W15122   2.742  18.051   4.145
56027W        W15123  10.373  25.151   2.808
56028W        W15124  12.658  43.863   1.855
56029W        W15125  17.224  12.724   4.822
56030W        W15126  32.587   1.314   0.435
56031W        W15127  36.494  32.398  10.909
56032W        W15128  43.269  35.059  12.524
56033W        W15129  17.096   7.695   0.398
56034W        W15130  22.689   8.222  13.979
56035W        W15131  40.478  39.895  13.010
56036W        W15132  12.122  27.146  14.834
56037W        W15133  11.858   3.949  11.588
56038W        W15134  34.410   8.701   4.315
56039W        W15135   0.849  14.099   1.869
56040W        W15136  36.036  39.327   0.298
56041W        W15137  38.003  23.093  14.879
56042W        W15138  14.124  36.586   1.348
56043W        W15139  30.597  23.665  13.856
56044W        W15140   4.303  21.540   2.267
56045W        W15141  29.084   8.304  12.551
56046W        W15142  41.363  30.432  13.804
56047W        W15143  12.832   5.331  12.006
56048W        W15144  22.242   7.310   2.308
56049W        W15145  32.908  12.845  11.855
56050W        W15146   6.886  38.472  14.808
56051W        W15147  25.126  14.723   4.769
56052W        W15148  28.672  41.891  11.091
56053W        W15149  39.465  24.981   3.768
56054W        W15150  41.826  17.198   4.686
56055W        W15151  41.025   4.328   4.648
56056W        W15152  33.497  33.083   0.875
56057W        W15153  40.549  12.694   3.263
56058W        W15154   2.397  44.949  12.906
56059W        W15155   7.770  38.365   2.245
56060W        W15156  13.754   0.401   0.294
56061W        W15157  13.269   2.396   2.337
56062W        W15158   0.853   5.320   4.691
56063W        W15159   4.699  38.517   0.247
56064W        W15160  14.614  38.870  14.015
56065W        W15161  34.391   5.917  10.929
56066W        W15162  37.338  40.401  13.363
56067W        W15163  39.900  12.231  12.932
56068W        W15164  29.609  38.482  11.959
56069W        W15165  18.606  26.697   4.130
56070W        W15166   2.360   3.395  14.506
56071W        W15167  32.122  23.001   4.312
56072W        W15168   0.893  22.728  13.967
56073W        W15169   4.720  23.661  13.912
56074W        W15170  35.901  42.293  13.519
56075W        W15171  39.390  44.373   1.225
56076W        W15172  28.508  43.867   1.401
56077W        W15173  28.620   6.916   0.376
56078W        W15174  15.258  27.177  10.508
56079W        W15175  41.337  31.558   1.735
56080W        W15176  37.364  35.870  11.501
56081W        W15177  20.636  38.829   0.797
56082W        W15178   2.363  10.362   1.406
56083W        W15179  24.109  24.980   5.221
56084W        W15180  20.697   7.346  11.977
56085W        W15181  28.633  33.405   0.388
56086W        W15182   9.256  27.068   4.164
56087W        W15183  22.694  16.800  14.930
56088W        W15184  15.601  27.132  13.401
56089W        W15185  14.662  15.698   1.423
56090W        W15186  42.319  18.292  12.836
56091W        W15187   3.886  11.743   4.310
56092W        W15188   3.861  23.200   1.862
56093W        W15189  25.474  21.758   2.391
56094W        W15190  39.444  15.671  14.027
56095W        W15191  34.120  24.589  14.421
56096W        W15192  27.009  38.490   1.342
56097W        W15193   8.209  17.237  13.813
56098W        W15194  35.956  17.134  13.516
56099W        W15195  10.638   6.825   2.805
56100W        W15196   5.862  19.152   1.325
56101W        W15197  41.310  35.052   1.211
56102W        W15198  30.123  13.254  12.918
56103W        W15199  17.767  32.450  10.480
56104W        W15200  16.075  27.061   4.317
56105W        W15201  10.254  14.131  12.953
56106W        W15202  37.060  42.464   3.223
56107W        W15203   4.854   6.189   3.163
56108W        W15204  10.228  32.429   9.510
56109W        W15205  34.568  26.541  11.895
56110W        W15206  44.302  36.549   3.244
56111W        W15207  18.633   7.254   1.846
56112W        W15208  31.542  36.883  14.347
56113W        W15209  40.320  10.245   9.964
56114W        W15210  37.460   6.696  13.540
56115W        W15211  40.501  42.890   2.334
56116W        W15212   7.809  10.179   4.308
56117W        W15213  43.786  35.019   0.246
56118W        W15214   5.901  24.076   1.712
56119W        W15215   9.208  39.497   3.808
56120W        W15216  23.230  28.187  13.516
56121W        W15217   1.953  22.726   1.404
56122W        W15218   5.933  14.703   1.887
56123W        W15219  13.175  20.194   0.931
56124W        W15220  18.597  13.299   4.681
56125W        W15221  12.354  10.677   2.718
56126W        W15222  22.058  17.736  12.566
56127W        W15223  31.149   3.226  14.959
56128W        W15224  20.082  25.096   1.834
56129W        W15225  23.703  12.170   1.789
56130W        W15226  35.015  23.001   2.195
56131W        W15227   8.662  31.422   0.748
56132W        W15228  37.965  18.163  14.383
56133W        W15229  21.542  43.877  13.380
56134W        W15230  34.550  34.925   1.719
56135W        W15231  21.534  31.969   2.190
56136W        W15232  29.174  30.961   3.321
56137W        W15233  20.651  12.647  10.582
56138W        W15234  42.403  39.952   4.347
56139W        W15235  26.108  40.522   4.332
56140W        W15236  32.500  41.916  13.890
56141W        W15237   3.412  37.933   3.314
56142W        W15238   5.790  18.146   1.818
56143W        W15239  29.459  28.600   4.158
56144W        W15240  27.053  44.876  12.412
56145W        W15241  42.410  20.041  12.049
56146W        W15242  39.910  15.213  10.518
56147W        W15243  26.048  36.459  13.813
56148W        W15244  41.849  35.880  13.917
56149W        W15245  11.157  26.493  11.519
56150W        W15246  23.688  40.033  14.275
56151W        W15247  40.355  10.161   2.784
56152W        W15248  19.682   6.783  13.879
56153W        W15249  39.028  10.215  12.537
56154W        W15250   8.348   1.301  12.879
56155W        W15251  37.971   1.252  11.473
56156W        W15252   4.359  11.685   2.227
56157W        W15253  19.266   5.895   2.404
56158W        W15254  43.379  15.180  11.564
56159W        W15255  13.841   4.748  13.845
56160W        W15256  42.296  12.331   3.319
56161W        W15257   8.283  30.580   4.612
56162W        W15258  24.484  27.033  10.518
56163W        W15259  11.203  31.953  13.515
56164W        W15260  21.115  44.504  14.290
56165W        W15261   0.901   1.906  12.551
56166W        W15262   3.440  23.159   1.895
56167W        W15263  23.509  20.641   2.843
56168W        W15264   0.747  36.566  13.997
56169W        W15265  16.653  14.175  13.510
56170W        W15266  43.832  43.277   0.934
56171W        W15267  27.139  13.749   0.290
56172W        W15268  27.032  15.119  14.881
56173W        W15269  43.316  40.411   4.710
56174W        W15270   6.303  42.853   0.963
56175W        W15271  38.027  27.113   2.818
56176W        W15272   0.268  35.923   0.931
56177W        W15273   0.405  25.601   0.902
56178W        W15274  26.688  29.443  10.617
56179W        W15275  28.643   9.669  13.979
56180W        W15276  33.472  22.648   2.316
56181W        W15277  44.998  39.859  14.788
56182W        W15278  41.306  31.485  11.424
56183W        W15279  15.782  36.076   1.871
56184W        W15280  11.368  41.006  12.032
56185W        W15281   1.764  41.363  12.384
56186W        W15282   4.325   7.302   4.821
56187W        W15283  27.659  29.127   1.258
56188W        W15284  20.251  44.782   3.837
56189W        W15285  28.584  29.452   3.855
56190W        W15286  19.094  18.619   3.737
56191W        W15287  21.610  35.008   4.214
56192W        W15288  13.617  23.650  11.563
56193W        W15289   2.403  43.785  12.563
56194W        W15290  10.211  30.483  11.879
56195W        W15291   2.771  18.217  13.353
56196W        W15292  17.704  20.568   1.368
56197W        W15293  41.294  24.596  12.886
56198W        W15294  21.039  44.329   0.805
56199W        W15295  24.088  37.000   1.403
56200W        W15296  15.090  42.776  11.484
56201W        W15297   4.914  27.095   4.149
56202W        W15298  29.956  32.570   4.740
56203W        W15299  15.143   8.842  12.085
56204W        W15300  24.148  14.662   3.772
56205W        W15301   4.727  14.721  12.038
56206W        W15302   0.951  21.021   2.192
56207W        W15303   4.389   7.673   3.362
56208W        W15304  18.558  20.172  14.783
56209W        W15305   3.712   7.855  13.457
56210W        W15306  14.232   7.223   1.837
56211W        W15307  43.854  29.975   1.337
56212W        W15308   7.373   0.817  13.448
56213W        W15309  39.020  14.154  14.306
56214W        W15310  34.467  41.810   3.637
56215W        W15311  26.001   0.340  14.935
56216W        W15312  25.099   1.807  12.462
56217W        W15313  14.264   0.252  11.060
56218W        W15314  14.594  19.631  11.461
56219W        W15315  17.163  26.183   0.258
56220W        W15316   7.802  38.820  13.355
56221W        W15317  29.118  39.957   2.327
56222W        W15318   9.166  11.140   1.745
56223W        W15319  34.372  28.012   3.637
56224W        W15320   2.449  25.496  13.831
56225W        W15321  34.411   5.843   2.870
56226W        W15322   3.285  24.658   9.665
56227W        W15323  20.029  35.917  10.950
56228W        W15324   5.846  10.665   4.766
56229W        W15325  16.240  42.857  11.943
56230W        W15326  30.564  19.142   3.700
56231W        W15327  42.828  18.594   0.450
56232W        W15328  13.168  36.363   5.152
56233W        W15329  12.222  13.203  13.428
56234W        W15330  17.728  13.746  14.875
56235W        W15331  40.529  27.501  11.417
56236W        W15332  32.396   0.785   1.788
56237W        W15333  30.614  22.647  11.920
56238W        W15334  18.743  15.658   0.782
56239W        W15335  20.161   7.861  13.938
56240W        W15336  20.753   6.744   3.804
56241W        W15337  41.013  25.143   0.410
56242W        W15338   0.807  31.561  10.996
56243W        W15339  40.409   4.870  13.816
56244W        W15340  41.424  29.174   3.825
56245W        W15341  30.484  12.657  13.535
56246W        W15342  20.577  14.719   3.297
56247W        W15343  15.109   7.331   1.338
56248W        W15344   5.298  21.259   4.222
56249W        W15345  24.550  41.040  10.916
56250W        W15346  38.852   3.275   0.952
56251W        W15347  34.106  43.779  11.454
56252W        W15348   7.799  21.688   0.786
56253W        W15349  21.257  23.139  14.881
56254W        W15350  20.587   5.845  11.922
56255W        W15351  17.765   5.230   4.259
56256W        W15352  32.960  37.037  11.585
56257W        W15353  40.415   8.183  14.775
56258W        W15354  43.804  16.784  11.048
56259W        W15355  21.702  17.096   0.877
56260W        W15356  39.943   6.890   3.665
56261W        W15357  40.412  10.238   0.791
56262W        W15358   2.786  15.815   1.375
56263W        W15359  34.553   5.707  13.334
56264W        W15360  15.198  34.012  12.965
56265W        W15361   0.746  17.599   0.246
56266W        W15362  41.487  20.043   4.187
56267W        W15363  35.501  41.466  14.298
56268W        W15364  35.577  37.868  11.868
56269W        W15365  27.135  40.018  14.455
56270W        W15366  37.384  32.451   4.160
56271W        W15367   3.454  30.447  10.569
56272W        W15368  33.090  28.014  13.843
56273W        W15369  10.301  40.537  11.109
56274W        W15370  18.155  39.464   4.342
56275W        W15371  44.445  37.359  11.029
56276W        W15372  25.494  38.888  13.815
56277W        W15373  23.607  37.977   2.735
56278W        W15374   2.798  27.525   2.265
56279W        W15375   8.887  10.800   2.858
56280W        W15376  35.534  21.605  13.460
56281W        W15377   4.374   7.282  13.922
56282W        W15378  27.971   6.790   0.914
56283W        W15379  36.919  31.108   0.856
56284W        W15380  16.125   6.779   1.290
56285W        W15381   4.281  18.790   3.202
56286W        W15382  15.234   9.772  12.477
56287W        W15383  35.919   5.902  13.009
56288W        W15384  37.877   2.238   4.796
56289W        W15385   4.770  23.055   0.478
56290W        W15386   8.736  30.917   2.665
56291W        W15387  15.320  21.031  14.363
56292W        W15388  37.435   9.177  12.968
56293W        W15389  36.558  16.588  14.458
56294W        W15390  18.252  13.702  12.466
56295W        W15391  24.974  22.086  12.522
56296W        W15392   8.779  36.877   0.842
56297W        W15393  17.268  32.915  10.076
56298W        W15394  23.528  35.020  11.001
56299W        W15395  41.891  37.485   0.266
56300W        W15396  38.048  41.044  13.919
56301W        W15397  24.014  33.436   0.390
56302W        W15398   1.883  16.813   4.217
56303W        W15399  21.177  18.616  14.768
56304W        W15400  24.722   6.372   1.231
56305W        W15401  44.760   0.425   3.304
56306W        W15402   3.382   5.287   0.264
56307W        W15403  10.148  19.280   3.675
56308W        W15404   1.806  25.596   4.710
56309W        W15405   8.282  40.359   2.900
56310W        W15406  23.522  16.576  13.793
56311W        W15407  16.779  11.245  12.388
56312W        W15408  14.208  36.481   4.798
56313W        W15409  36.933  42.497   0.858
56314W        W15410  25.130  10.297  13.310
56315W        W15411  22.121   1.805  11.042
56316W        W15412  10.848  42.512  10.418
56317W        W15413  44.842  20.200   1.816
56318W        W15414  25.701  44.428  12.865
56319W        W15415  36.014  44.974  14.308
56320W        W15416  37.558  19.586   2.263
56321W        W15417   9.687   8.240   4.305
56322W        W15418  24.177  37.943   9.654
56323W        W15419  21.519  32.032   2.721
56324W        W15420  17.590  24.180  14.941
56325W        W15421  43.996  25.076  11.974
56326W        W15422  27.683  13.246   4.150
56327W        W15423  29.011  11.259  14.804
56328W        W15424  29.423  29.146  12.422
56329W        W15425  32.075   5.299   2.787
56330W        W15426  41.485  35.029  14.486
56331W        W15427  23.548  41.338  14.432
56332W        W15428  17.618  41.310   3.827
56333W        W15429  32.989  36.079  12.878
56334W        W15430  35.908   3.788  10.518
56335W        W15431  36.853  13.212   3.675
56336W        W15432  15.739  11.783  11.472
56337W        W15433  39.928   4.699   3.378
56338W        W15434  43.909  13.772  12.864
56339W        W15435   8.694  11.340  11.956
56340W        W15436   7.320   9.217   2.344
56341W        W15437  34.468  37.053  10.488
56342W        W15438  11.255   6.811  14.976
56343W        W15439  20.614  13.606   2.233
56344W        W15440  38.032  35.858   4.144
56345W        W15441  26.644  18.226   2.316
56346W        W15442  42.325   3.768   1.329
56347W        W15443   2.408   4.899   0.384
56348W        W15444  28.602   0.940  10.925
56349W        W15445  17.255   2.966   9.969
56350W        W15446  15.088  23.056  13.403
56351W        W15447  27.581   7.380  12.403
56352W        W15448  31.618  43.391   3.378
56353W        W15449   0.257  33.077   0.312
56354W        W15450  24.183  27.464   2.185
56355W        W15451   4.289  18.134   2.254
56356W        W15452   0.304  21.614   4.772
56357W        W15453  39.862   0.474  13.014
56358W        W15454  41.814  31.056   4.209
56359W        W15455   8.301  23.672  10.489
56360W        W15456  20.575  27.002  12.043
56361W        W15457   3.868  29.126   0.411
56362W        W15458  29.952  39.057  13.354
56363W        W15459  30.138  34.468   1.835
56364W        W15460  17.602  34.528  14.898
56365W        W15461   6.913  10.749  14.966
56366W        W15462  30.957  23.067   3.184
56367W        W15463  29.432  36.558  14.027
56368W        W15464  25.643  31.508  10.945
56369W        W15465  24.565   5.237  11.902
56370W        W15466  25.616  36.529  10.495
56371W        W15467  17.131  39.343   9.552
56372W        W15468  31.957   6.821   2.394
56373W        W15469  10.871  26.109  14.954
56374W        W15470  21.197  39.892  12.549
56375W        W15471   1.817  23.062   3.857
56376W        W15472  33.083  23.222   4.326
56377W        W15473  19.699  31.120  12.882
56378W        W15474  31.074  37.021  14.898
56379W        W15475  16.595   6.908   1.743
56380W        W15476  18.569   7.179  13.360
56381W        W15477  36.364  43.858  11.861
56382W        W15478   6.718  35.538   0.270
56383W        W15479  39.864  28.981  10.421
56384W        W15480  11.657   4.773   2.888
56385W        W15481   4.352  44.773  12.918
56386W        W15482   5.878  16.257   4.616
56387W        W15483   0.372   0.316  11.493
56388W        W15484   9.166  19.756   1.903
56389W        W15485  20.214  22.227  11.494
56390W        W15486   2.379   2.291   4.147
56391W        W15487  32.888  24.624   2.774
56392W        W15488  22.644   7.746  12.860
56393W        W15489   9.850  32.078   1.744
56394W        W15490   1.292  38.910   3.286
56395W        W15491   7.884   9.363  14.507
56396W        W15492  43.766  28.988   4.682
56397W        W15493  27.498  28.585   4.331
56398W        W15494  37.967  38.461   0.440
56399W        W15495  38.982  15.682  12.893
56400W        W15496  24.706  17.570   3.250
56401W        W15497  25.135  27.015   0.932
56402W        W15498  13.707  13.828  12.030
56403W        W15499  12.344  25.652  13.498
56404W        W15500  38.550  42.523  12.437
56405W        W15501  42.387   0.361   4.135
56406W        W15502  17.622   1.738   0.775
56407W        W15503   7.859  38.890   0.880
56408W        W15504  41.947   0.949  13.846
56409W        W15505  34.955  25.171   2.391
56410W        W15506  19.262  43.820   0.811
56411W        W15507  37.834   9.311  12.452
56412W        W15508  44.288  27.545   3.154
56413W        W15509  35.387   5.219  12.091
56414W        W15510  36.871  42.897   3.776
56415W        W15511  38.031  31.458   2.262
56416W        W15512  15.245  44.419   0.883
56417W        W15513  36.543  16.073   0.736
56418W        W15514  13.174  35.055  13.873
56419W        W15515  44.874   9.198   0.863
56420W        W15516  11.784  40.355  13.922
56421W        W15517  23.236  22.581  11.450
56422W        W15518   7.231  12.213  10.461
56423W        W15519  14.258  42.838  14.490
56424W        W15520  39.530   4.232  12.524
56425W        W15521  35.488  39.494  11.953
56426W        W15522  12.294   0.471   3.809
56427W        W15523  34.585  14.115  13.835
56428W        W15524  25.219  19.103   3.812
56429W        W15525  28.986  37.034   2.209
56430W        W15526  16.279   8.892   2.891
56431W        W15527  33.549  19.172  14.327
56432W        W15528   2.421  22.227  12.419
56433W        W15529  28.463  29.578   4.198
56434W        W15530  39.452  11.322   2.699
56435W        W15531  31.946  35.030   2.794
56436W        W15532  42.306  37.943  14.437
56437W        W15533  30.523  37.440  10.414
56438W        W15534  21.519  27.998  10.457
56439W        W15535  16.188   0.396   2.866
56440W        W15536  41.906  12.275  13.515
56441W        W15537  27.095  30.997  12.849
56442W        W15538  27.974  13.340   4.683
56443W        W15539  35.050  23.581   2.731
56444W        W15540  13.638  28.477   3.681
56445W        W15541  24.158  11.255  10.902
56446W        W15542  21.695  35.407  14.297
56447W        W15543  33.564  10.716  12.354
56448W        W15544  26.184  35.979  12.010
56449W        W15545  26.159  22.240   3.635
56450W        W15546  31.106   6.203  13.543
56451W        W15547  31.148  33.492  14.307
56452W        W15548  16.138  13.762   0.480
56453W        W15549  37.531  38.050   1.805
56454W        W15550  31.965  12.129   2.812
56455W        W15551  43.971  42.980  12.521
56456W        W15552   9.313  23.072  14.939
56457W        W15553  16.755   5.793  14.920
56458W        W15554   4.270  17.228  14.773
56459W        W15555  34.990   7.175   2.711
56460W        W15556  36.525  15.623  13.909
56461W        W15557   2.316  37.002   3.361
56462W        W15558   6.806  27.038   2.262
56463W        W15559  11.862  16.655  12.064
56464W        W15560  37.534   5.933   4.289
56465W        W15561   4.933  15.600  12.062
56466W        W15562  15.134   7.688   1.329
56467W        W15563  39.033  40.884   1.777
56468W        W15564  19.543   9.165   2.209
56469W        W15565  14.789  28.552   4.598
56470W        W15566  27.533  33.028   4.721
56471W        W15567  37.982  44.385   3.661
56472W        W15568  13.216   8.253   0.767
56473W        W15569   9.364  44.388   4.317
56474W        W15570  43.388   8.866   2.186
56475W        W15571  17.765  24.573  13.991
56476W        W15572   0.290  32.047   3.777
56477W        W15573   5.246  41.311  13.353
56478W        W15574  24.573   9.766  14.918
56479W        W15575  17.671  15.192  14.323
56480W        W15576  14.136  26.992  12.968
56481W        W15577  38.920   2.294  12.341
56482W        W15578  18.132  29.522   5.208
56483W        W15579  41.932   1.765  10.988
56484W        W15580  13.256   0.954   4.608
56485W        W15581  35.364   1.454  11.994
56486W        W15582   5.901  40.413  14.351
56487W        W15583  20.697  44.010   3.297
56488W        W15584  16.270   9.838  12.938
56489W        W15585  25.625  17.629  11.124
56490W        W15586  20.207   0.886   4.690
56491W        W15587  30.102  13.257  12.063
56492W        W15588   2.747   8.764   4.121
56493W        W15589  26.474  33.415  10.597
56494W        W15590  11.372  18.167  13.313
56495W        W15591   6.861  16.626   4.237
56496W        W15592  38.337  21.687  11.121
56497W        W15593  25.033  33.958  13.444
56498W        W15594  11.826  16.269  10.483
56499W        W15595  11.623  15.751  13.345
56500W        W15596   4.417  34.873   1.311
56501W        W15597  12.292  19.243   4.269
56502W        W15598   3.714  23.139   1.364
56503W        W15599  26.616  21.120   0.433
56504W        W15600  25.679  39.538  11.939
56505W        W15601  22.514   1.779  13.351
56506W        W15602  22.029  30.946   3.158
56507W        W15603  22.509  32.969   4.767
56508W        W15604   2.319   9.228  14.477
56509W        W15605   9.287  36.848   0.834
56510W        W15606  20.059   1.349   4.350
56511W        W15607  43.432   1.737  12.057
56512W        W15608  31.441  27.494   4.162
56513W        W15609  19.228  32.554  14.945
56514W        W15610  41.866  22.580  10.085
56515W        W15611  30.588   5.906  11.999
56516W        W15612   1.810   3.328   2.180
56517W        W15613  12.814  33.513   2.274
56518W        W15614  28.107   0.977   2.268
56519W        W15615  25.992  20.222   2.402
56520W        W15616  12.770   1.943   2.669
56521W        W15617   1.932  26.956   2.283
56522W        W15618  27.079  12.292   0.773
56523W        W15619  13.322  36.078  10.591
56524W        W15620   6.311  23.192  10.005
56525W        W15621  29.631  29.486   4.760
56526W        W15622  39.506  41.438   2.234
56527W        W15623   6.344  18.061  13.819
56528W        W15624  42.350  35.057   2.394
56529W        W15625  21.079  38.834  12.903
56530W        W15626   1.255  31.626   3.784
56531W        W15627  27.953   2.421   4.285
56532W        W15628  21.241  26.998   0.925
56533W        W15629  27.606  11.832   4.163
56534W        W15630  15.808  18.290  12.348
56535W        W15631  42.346  31.926   0.354
56536W        W15632   4.713  35.403  13.394
56537W        W15633  41.871  29.624   1.854
56538W        W15634  30.947  25.514  12.855
56539W        W15635  33.109  28.116  12.021
56540W        W15636  29.067  38.354  11.442
56541W        W15637  35.073  35.946  11.594
56542W        W15638  19.664  33.092  14.019
56543W        W15639  35.377  24.574   0.769
56544W        W15640  33.056  14.317  12.042
56545W        W15641  39.323  33.424   4.148
56546W        W15642  39.014  20.689  10.457
56547W        W15643   9.675  11.664   4.201
56548W        W15644  37.948  11.656   1.213
56549W        W15645  28.062  21.021   1.449
56550W        W15646  11.374  30.562  12.389
56551W        W15647   3.232  32.544  10.430
56552W        W15648   4.857  10.814  12.376
56553W        W15649   3.848   6.405  14.372
56554W        W15650  11.189  34.581  11.043
56555W        W15651  29.160  26.025  12.405
56556W        W15652  10.202  24.192   1.841
56557W        W15653  31.484  38.966   2.320
56558W        W15654  17.788  16.575  14.289
56559W        W15655   3.360  34.935   0.396
56560W        W15656   1.438  17.255  11.121
56561W        W15657  43.984   4.275   0.836
56562W        W15658  16.677  10.363  12.863
56563W        W15659   4.843  43.013   1.771
56564W        W15660  41.413  20.624  10.481
56565W        W15661   3.278  23.186  13.008
56566W        W15662  18.630  34.411   4.146
56567W        W15663   8.746  39.808  12.425
56568W        W15664  15.174  36.465   3.192
56569W        W15665  41.867  26.659   0.470
56570W        W15666  27.060  36.471  14.415
56571W        W15667   6.836  39.449  14.977
56572W        W15668  44.334  12.696  10.566
56573W        W15669  17.575  34.453  12.440
56574W        W15670  20.748  31.514  14.389
56575W        W15671  17.230  32.013  13.347
56576W        W15672  35.379  21.594  10.484
56577W        W15673   1.821  14.802  10.623
56578W        W15674   8.229   1.253  11.611
56579W        W15675  23.199   7.761  11.940
56580W        W15676  21.166  37.407  11.885
56581W        W15677  34.902  22.155  12.547
56582W        W15678  13.214  17.287  14.907
56583W        W15679  39.491   5.781   0.253
56584W        W15680  14.248   5.401  12.014
56585W        W15681  11.680  20.056   0.880
56586W        W15682   8.293  30.077   0.300
56587W        W15683  21.703  39.028  12.059
56588W        W15684  42.861   1.871  12.905
56589W        W15685  36.002   7.405  14.809
56590W        W15686  23.085  16.204   3.377
56591W        W15687  18.117  44.342   1.753
56592W        W15688  18.732   4.447  14.505
56593W        W15689  12.768  24.187   2.712
56594W        W15690   3.217  23.675  14.933
56595W        W15691  31.594  10.212  14.899
56596W        W15692  29.559   8.664  12.992
56597W        W15693  29.003  29.941   0.766
56598W        W15694  13.236  37.980   2.318
56599W        W15695  12.162  41.513  12.077
56600W        W15696  28.491  18.100   2.711
56601W        W15697  34.948  37.833  11.041
56602W        W15698   4.860  41.521   2.239
56603W        W15699   4.254  34.965  13.995
56604W        W15700   8.893   9.862   2.209
56605W        W15701   1.347   2.886   2.203
56606W        W15702  39.393  20.263  12.039
56607W        W15703  41.867  24.553  14.316
56608W        W15704  23.736   8.230   2.716
56609W        W15705  19.275  31.116  14.005
56610W        W15706  29.659   6.220   4.221
56611W        W15707  41.843  16.792  12.407
56612W        W15708  21.126  19.248   0.246
56613W        W15709  16.687  17.657  11.963
56614W        W15710   6.837  12.206   2.750
56615W        W15711  34.594  11.259   0.759
56616W        W15712  11.262   3.849  14.823
56617W        W15713  32.619  29.978   1.403
56618W        W15714   8.792  23.692  13.994
56619W        W15715  35.996  37.545  13.369
56620W        W15716   9.856   7.849  12.460
56621W        W15717   8.769  38.951  14.502
56622W        W15718  37.538  29.530   0.828
56623W        W15719  40.849  10.297  12.543
56624W        W15720  30.956  19.105   1.872
56625W        W15721  21.089  27.029   4.623
56626W        W15722  21.595  10.144   2.339
56627W        W15723  31.967  13.167  12.491
56628W        W15724  27.163  35.081   2.738
56629W        W15725   2.865  17.262  12.862
56630W        W15726   1.912  15.273   0.755
56631W        W15727   8.324  12.123  12.516
56632W        W15728   4.931   7.192  12.428
56633W        W15729  19.663  36.071   5.592
56634W        W15730  33.466  30.063   4.825
56635W        W15731  16.311   8.855  14.485
56636W        W15732  38.868  20.662  14.800
56637W        W15733  17.743  26.102  11.375
56638W        W15734  17.087  22.058   2.225
56639W        W15735  25.217  32.053   0.254
56640W        W15736  34.121  33.606   3.808
56641W        W15737  43.411  37.036  12.474
56642W        W15738  30.659  14.132  12.878
56643W        W15739  15.579  21.721  13.942
56644W        W15740  18.619  34.893   1.862
56645W        W15741  36.878  25.616   0.832
56646W        W15742  10.376  28.486  12.453
56647W        W15743  13.692  24.058  12.875
56648W        W15744  17.265  16.107  14.330
56649W        W15745  37.475  13.271  14.451
56650W        W15746  37.511  13.664   1.784
56651W        W15747  13.840  11.240   1.886
56652W        W15748  23.712  13.327   1.786
56653W        W15749  22.636  43.912  13.367
56654W        W15750  35.985  26.993  12.458
56655W        W15751  32.426  33.886  12.078
56656W        W15752  14.593  15.579  13.513
56657W        W15753  14.257  14.123  10.465
56658W        W15754  18.577  29.474  11.059
56659W        W15755  30.454  13.131   2.860
56660W        W15756  10.378  36.971  11.010
56661W        W15757   5.869  12.179   1.834
56662W        W15758  42.895   7.795  13.425
56663W        W15759  40.529  40.518  11.579
56664W        W15760  18.148  15.210  14.385
56665W        W15761   2.787  35.034   0.826
56666W        W15762  12.784  27.069   2.302
56667W        W15763  11.737  27.528   1.403
56668W        W15764  30.153  40.919   1.706
56669W        W15765  13.317   2.385  14.935
56670W        W15766  43.948  34.431  13.847
56671W        W15767   0.742  27.604  11.933
56672W        W15768  35.449   7.862   3.740
56673W        W15769  11.665  28.070   1.723
56674W        W15770  10.282  24.043   4.250
56675W        W15771  28.014  35.020   0.404
56676W        W15772   6.320  19.167   0.806
56677W        W15773   1.763  18.739  11.563
56678W        W15774  27.172   3.278  12.966
56679W        W15775  41.850  11.728   2.199
56680W        W15776  40.916  20.203   4.759
56681W        W15777  16.282  20.165   1.322
56682W        W15778  19.228   4.238   1.906
56683W        W15779   6.919   4.727  13.409
56684W        W15780  19.610  16.590  13.490
56685W        W15781   1.773  25.210  13.337
56686W        W15782  42.428   7.220   0.866
56687W        W15783  27.979  31.492   0.810
56688W        W15784  41.938  36.479   4.178
56689W        W15785  23.034   0.947   1.262
56690W        W15786  30.570  31.071   3.197
56691W        W15787  31.413  34.877   2.400
56692W        W15788  30.546  16.177   3.802
56693W        W15789   5.866   9.790   0.290
56694W        W15790   0.442  40.500   2.902
56695W        W15791  34.460  39.503  10.560
56696W        W15792   4.715   0.319   4.678
56697W        W15793  27.583  44.905  14.306
56698W        W15794  15.090  36.893   5.597
56699W        W15795   2.337  32.027   3.685
56700W        W15796  16.731  25.593   0.751
56701W        W15797  35.513  38.887   0.767
56702W        W15798   8.848  18.788  13.493
56703W        W15799  10.332  12.855  12.022
56704W        W15800  11.246  18.191   9.545
56705W        W15801  23.134  28.027   0.365
56706W        W15802  22.116  39.384  10.927
56707W        W15803   3.322  34.368   1.308
56708W        W15804  19.706  23.727   3.657
56709W        W15805  15.732  37.876  11.114
56710W        W15806   2.889  16.090   4.237
56711W        W15807  40.054   3.884   3.227
56712W        W15808  32.593  42.419  10.478
56713W        W15809  33.403  17.659  13.338
56714W        W15810   0.805   7.412  10.918
56715W        W15811   6.283  25.127   3.671
56716W        W15812  11.240   7.882  11.483
56717W        W15813  35.417  14.718   3.748
56718W        W15814   8.289  12.628   3.211
56719W        W15815  43.870  25.621   4.176
56720W        W15816   9.255  20.673   1.867
56721W        W15817  29.524  15.289   3.823
56722W        W15818  18.200  29.621  13.482
56723W        W15819  41.896   5.727   2.804
56724W        W15820  35.463  23.020  10.633
56725W        W15821  15.671  44.465  12.020
56726W        W15822  36.490  41.406  13.909
56727W        W15823   2.835   7.876   0.396
56728W        W15824  27.671  37.964  13.440
56729W        W15825  26.141   8.662  13.341
56730W        W15826  12.315   9.785   3.802
56731W        W15827   8.396  30.107   3.157
56732W        W15828   5.322  20.559   4.656
56733W        W15829   0.786   7.301   1.894
56734W        W15830  43.362  13.161   1.391
56735W        W15831   5.837  44.872  12.458
56736W        W15832  16.071  10.328  13.402
56737W        W15833   3.296  15.164  14.955
56738W        W15834   7.905  43.516  10.952
56739W        W15835  24.587  10.878   2.747
56740W        W15836  36.846  10.662   0.807
56741W        W15837   4.831  15.298  13.380
56742W        W15838   1.273   0.418   1.756
56743W        W15839   7.711  36.491   3.774
56744W        W15840  26.509  43.781   1.828
56745W        W15841  29.114  32.072  14.390
56746W        W15842  30.549  10.228   3.781
56747W        W15843  17.559   2.450   0.812
56748W        W15844  43.331  37.397   2.829
56749W        W15845   0.882  41.989  13.383
56750W        W15846   0.382  16.151   4.820
56751W        W15847  16.627  40.313   0.321
56752W        W15848   4.721  38.901  12.517
56753W        W15849   3.822  19.086   3.775
56754W        W15850  39.528  40.382   3.666
56755W        W15851  32.626  35.996  13.982
56756W        W15852  29.499  30.099   1.289
56757W        W15853  35.442  27.173  12.551
56758W        W15854  14.828   8.195  10.967
56759W        W15855  31.045  42.853  13.949
56760W        W15856  13.214  16.270  13.812
56761W        W15857  34.507   8.803  11.035
56762W        W15858  39.897  17.741  11.873
56763W        W15859  26.629  43.985   0.389
56764W        W15860  19.182  10.660  11.080
56765W        W15861  36.441   5.841   3.371
56766W        W15862  37.378  15.161  13.478
56767W        W15863  14.651   4.358  10.998
56768W        W15864  24.518  29.531   3.260
56769W        W15865   9.182   4.263   4.295
56770W        W15866  36.446  43.340  10.579
56771W        W15867   7.855  43.010  11.072
56772W        W15868  42.996  43.822   1.704
56773W        W15869   7.877  34.371   1.788
56774W        W15870  15.254   6.902   0.842
56775W        W15871  10.640  33.492  10.547
56776W        W15872  36.451  30.626   9.927
56777W        W15873  15.157   5.415   2.675
56778W        W15874  18.251   3.805  13.812
56779W        W15875  39.483  26.679  14.800
56780W        W15876  41.429  34.548  14.338
56781W        W15877   4.844  20.256  14.308
56782W        W15878  22.098  26.634   3.211
56783W        W15879  22.593  41.424   0.282
56784W        W15880  15.243  33.500   0.245
56785W        W15881  44.925  15.222   2.767
56786W        W15882  28.963   5.827   3.166
56787W        W15883  14.728  11.678   2.722
56788W        W15884  28.184  14.099  10.644
56789W        W15885  14.237   2.270  13.448
56790W        W15886  24.610   7.677   0.811
56791W        W15887   6.684  27.623  12.367
56792W        W15888   2.935  25.689   0.726
56793W        W15889   2.943  40.898  11.587
56794W        W15890  27.034  36.043   3.790
56795W        W15891  23.712  29.576  11.445
56796W        W15892   6.301  35.432   2.374
56797W        W15893   0.926   4.707   9.971
56798W        W15894  34.489  37.947   1.295
56799W        W15895   4.731  39.908   2.295
56800W        W15896  11.861  22.030  11.611
56801W        W15897  36.036  39.540  14.507
56802W        W15898  42.858   5.378  14.963
56803W        W15899  25.504  28.982   3.654
56804W        W15900  41.020  34.391  11.877
56805W        W15901  17.711  29.438  14.817
56806W        W15902  31.965  19.262  11.966
56807W        W15903  24.548  20.717  13.465
56808W        W15904  38.896   5.199  11.982
56809W        W15905  14.235  26.984  10.626
56810W        W15906   4.213  24.544   5.585
56811W        W15907   0.387  41.004   1.415
56812W        W15908  33.486  20.129  14.382
56813W        W15909   1.946   3.409   3.244
56814W        W15910  39.964  25.983   2.214
56815W        W15911  16.737  13.680  13.395
56816W        W15912  37.498  16.780  14.385
56817W        W15913  40.384  42.900  13.402
56818W        W15914  23.194  10.755   2.728
56819W        W15915   4.756  16.252  11.906
56820W        W15916  30.500  10.728   0.733
56821W        W15917  10.367  32.057   2.884
56822W        W15918   5.889  21.726   3.762
56823W        W15919  22.055  26.673   1.847
56824W        W15920   6.360  40.839   4.817
56825W        W15921  44.907  32.924   3.246
56826W        W15922   5.376  22.125  13.925
56827W        W15923  17.732   5.897  10.945
56828W        W15924  29.094  24.146  10.503
56829W        W15925  29.165  18.094  14.392
56830W        W15926  44.420  16.609   1.374
56831W        W15927  11.344   9.736   1.391
56832W        W15928   9.749  38.504  14.371
56833W        W15929  42.936   5.754  13.413
56834W        W15930  26.970  43.357  10.585
56835W        W15931  16.143   7.814  12.506
56836W        W15932  10.374   4.709  13.511
56837W        W15933  25.045  11.691   0.295
56838W        W15934  31.454  18.714  12.458
56839W        W15935  36.887  28.496   3.357
56840W        W15936  18.786  22.096   3.162
56841W        W15937   0.488  35.538   2.865
56842W        W15938  16.160  28.978   3.203
56843W        W15939   8.213  15.142   4.300
56844W        W15940  24.101  17.231   2.751
56845W        W15941  41.488  42.393  11.481
56846W        W15942  34.588  14.667  11.610
56847W        W15943  19.679  29.429   1.317
56848W        W15944  37.977  28.664   1.851
56849W        W15945  12.209  15.247  13.507
56850W        W15946  17.255  41.420   3.667
56851W        W15947  26.134  32.885  11.449
56852W        W15948   6.813  33.397  11.064
56853W        W15949  42.003   5.830   2.359
56854W        W15950  30.509  22.550   0.918
56855W        W15951  29.588   2.436   2.401
56856W        W15952  18.263   9.358   1.356
56857W        W15953  17.694  37.907  12.431
56858W        W15954  22.129  31.411  12.355
56859W        W15955   1.416  41.982  13.971
56860W        W15956   6.800   1.935   3.856
56861W        W15957  38.531   8.303   3.330
56862W        W15958  39.968  26.489  11.100
56863W        W15959  21.752   8.770   1.722
56864W        W15960  25.038  27.139  14.873
56865W        W15961  28.078  31.606  13.064
56866W        W15962  19.764  25.080   3.813
56867W        W15963  33.069  39.050  13.411
56868W        W15964  27.132  14.271   9.944
56869W        W15965  12.203  43.777   3.215
56870W        W15966   0.325  26.555  11.439
56871W        W15967  42.503  41.005   4.674
56872W        W15968  10.712   0.256   1.730
56873W        W15969   1.259  32.472  14.393
56874W        W15970  32.932  34.559  11.574
56875W        W15971   0.250  13.320  11.065
56876W        W15972  20.069   0.758  14.849
56877W        W15973   2.811  22.542  11.522
56878W        W15974  10.259   9.386   1.268
56879W        W15975  39.341  12.162  14.448
56880W        W15976  37.884  27.962   1.440
56881W        W15977   6.293  16.250   2.349
56882W        W15978  39.419  42.289   4.350
56883W        W15979  23.572  24.685   0.292
56884W        W15980   6.846   9.207   0.380
56885W        W15981  39.933  25.046  10.457
56886W        W15982  44.387  40.366   1.346
56887W        W15983  23.644   3.901  13.008
56888W        W15984  14.652  12.274   1.423
56889W        W15985  39.380  23.679   1.364
56890W        W15986   1.961  34.585   3.201
56891W        W15987  23.498  40.053  10.581
56892W        W15988  11.143  37.893  13.930
56893W        W15989   1.376  37.956  10.936
56894W        W15990  20.151  20.609  10.594
56895W        W15991  15.634  34.447   2.892
56896W        W15992  15.220  10.211   3.245
56897W        W15993  29.623  33.063   2.810
56898W        W15994  29.514  42.344  13.462
56899W        W15995   8.830  30.592   4.728
56900W        W15996  25.714   6.205   2.273
56901W        W15997  33.609  38.533   4.715
56902W        W15998  42.468  15.811  10.556
56903W        W15999  22.094  27.185   3.181
56904W        W16000   2.883  38.465   0.414
56905W        W16001  31.573  10.803  14.507
56906W        W16002   6.895  13.696  11.595
56907W        W16003  40.889  26.620   5.257
56908W        W16004  28.486  10.236   3.326
56909W        W16005   1.951  17.166  13.055
56910W        W16006  16.126  10.211   0.944
56911W        W16007   1.349  27.975   0.737
56912W        W16008  33.104  44.297   1.902
56913W        W16009  32.944  22.652  13.815
56914W        W16010  18.088  43.331  12.474
56915W        W16011  36.528  17.746  11.978
56916W        W16012  38.972  17.582  10.957
56917W        W16013  10.337   1.784  10.030
56918W        W16014  27.098  21.741  11.395
56919W        W16015  20.132  13.707  14.008
56920W        W16016  42.986   8.201  11.091
56921W        W16017   7.874  11.138  12.945
56922W        W16018  39.429  38.518   1.291
56923W        W16019  35.982  24.565  13.326
56924W        W16020  28.063  41.890  10.501
56925W        W16021  10.777  12.273  10.630
56926W        W16022  19.213  37.890   2.287
56927W        W16023  15.224  28.103  11.042
56928W        W16024  29.482   5.872  12.993
56929W        W16025  16.228  21.094   0.822
56930W        W16026  24.645   9.349   0.390
56931W        W16027  30.534  23.085   2.878
56932W        W16028  23.618  25.105  14.326
56933W        W16029  42.482  19.649  14.888
56934W        W16030  21.619  19.674  11.386
56935W        W16031  44.260  21.255  12.489
56936W        W16032   8.399  30.569   0.896
56937W        W16033   4.433  39.900   4.813
56938W        W16034  10.149  22.198  13.486
56939W        W16035   3.262  25.987  13.872
56940W        W16036  40.877  32.137  14.027
56941W        W16037   7.687  35.065   2.378
56942W        W16038  11.133   2.890  11.984
56943W        W16039  14.232  44.770   2.418
56944W        W16040  16.655  30.129   4.306
56945W        W16041  26.122   6.902   2.824
56946W        W16042  24.679   1.292  14.456
56947W        W16043   8.240  39.961  13.895
56948W        W16044  17.697  14.697  13.370
56949W        W16045  10.787   7.780  14.481
56950W        W16046   6.271  20.715   3.870
56951W        W16047  32.126  43.902  12.509
56952W        W16048  34.101  33.431   3.225
56953W        W16049  19.187  42.792   1.827
56954W        W16050  17.660  42.836  11.929
56955W        W16051   2.917  40.840   4.279
56956W        W16052  12.236  26.464   1.926
56957W        W16053   1.749  39.018   0.939
56958W        W16054   9.272  34.065  13.009
56959W        W16055  30.970  19.105  13.403
56960W        W16056  20.730  20.193   1.267
56961W        W16057  36.905  13.793   0.305
56962W        W16058   9.830  18.664   0.471
56963W        W16059  30.050  10.648   1.295
56964W        W16060  10.243  23.007  10.541
56965W        W16061  10.777  20.087  12.856
56966W        W16062   7.405  37.424  10.509
56967W        W16063   2.433  44.306  13.886
56968W        W16064  32.987  11.848   1.851
56969W        W16065  28.462  11.245  13.347
56970W        W16066   0.394  25.987  12.940
56971W        W16067  42.343  14.159   1.872
56972W        W16068  44.308  17.221  11.444
56973W        W16069  33.444  16.708   3.374
56974W        W16070  22.721  25.003   4.631
56975W        W16071   4.318  30.110   3.830
56976W        W16072  42.879  21.102   5.213
56977W        W16073  10.861  43.375  12.501
56978W        W16074  27.653  41.334  13.794
56979W        W16075  29.131  24.025  10.911
56980W        W16076  19.759  18.573   0.851
56981W        W16077  42.843   3.951   4.194
56982W        W16078  12.157  29.023  13.466
56983W        W16079  43.350  21.697   4.172
56984W        W16080  27.525   3.953  13.997
56985W        W16081   0.475  28.620  13.465
56986W        W16082   3.226  22.178   0.859
56987W        W16083  14.251  12.117   3.738
56988W        W16084  28.048  22.618  10.900
56989W        W16085  37.514  14.097   2.677
56990W        W16086  34.552   8.379  13.959
56991W        W16087  11.711   1.362   2.402
56992W        W16088   3.230  41.002   2.292
56993W        W16089  25.693  17.110  10.913
56994W        W16090  12.163   6.704  14.444
56995W        W16091   2.851  17.590   4.766
56996W        W16092  41.035  39.909  14.436
56997W        W16093   7.411  11.683  14.439
56998W        W16094   7.857  39.379  13.860
56999W        W16095  16.117   3.905  14.354
57000W        W16096   3.941  28.952  13.024
57001W        W16097  25.674  36.084   1.730
57002W        W16098  44.367  12.613   0.296
57003W        W16099  43.936  11.247   3.782
57004W        W16100  11.737  20.162  10.979
57005W        W16101  15.165  41.419   0.937
57006W        W16102  35.597  24.087  14.408
57007W        W16103  15.700  34.058  11.128
57008W        W16104   2.402  43.990   4.336
57009W        W16105  27.062  12.235  12.482
57010W        W16106  14.642   8.812  10.447
57011W        W16107   0.933   8.721   2.271
57012W        W16108   2.945  24.179   0.887
57013W        W16109  17.263  39.553  10.457
57014W        W16110   9.767  42.290  14.839
57015W        W16111  39.045  26.585   9.967
57016W        W16112  29.594  15.804   2.707
57017W        W16113  44.449  33.492  10.467
57018W        W16114  26.560   6.692   0.440
57019W        W16115   9.392  25.146   0.448
57020W        W16116  16.081  37.356  13.411
57021W        W16117  31.594   7.215  11.090
57022W        W16118  37.994   0.980   2.903
57023W        W16119  18.758  39.957   3.674
57024W        W16120   2.266  32.483   0.905
57025W        W16121  18.620  35.942   2.856
57026W        W16122  30.462  40.537   2.359
57027W        W16123  29.108  27.495   0.388
57028W        W16124   9.251  16.685  12.912
57029W        W16125  32.488   6.729  13.923
57030W        W16126  26.508  28.478  13.448
57031W        W16127  21.574  30.948   1.380
57032W        W16128   4.772  25.152   1.390
57033W        W16129  35.854  15.122  14.361
57034W        W16130  39.549  14.276  11.941
57035W        W16131   7.730   6.417  12.952
57036W        W16132  22.167   2.251  12.401
57037W        W16133   6.856  15.796   1.729
57038W        W16134  11.832  39.534  12.943
57039W        W16135  19.246  24.981   3.308
57040W        W16136  11.331   9.306   4.803
57041W        W16137  30.639  28.586   0.833
57042W        W16138  36.044   4.238   0.747
57043W        W16139  11.839  31.061  14.952
57044W        W16140  20.763   7.740   9.574
57045W        W16141   8.704  22.506   2.858
57046W        W16142  34.556   3.763   3.265
57047W        W16143  25.204  12.832  12.905
57048W        W16144  31.467   6.216  13.478
57049W        W16145  15.253  28.578  12.464
57050W        W16146  38.046  21.716   4.125
57051W        W16147  16.590  36.932  13.977
57052W        W16148  32.045  40.380  14.320
57053W        W16149  15.615  30.420  11.520
57054W        W16150   3.320  36.427   5.235
57055W        W16151  20.062  20.747   3.204
57056W        W16152  18.147   5.864  13.846
57057W        W16153  26.973  35.975   4.835
57058W        W16154  21.541  13.131  12.943
57059W        W16155  17.303   3.737  13.334
57060W        W16156  30.957  24.008   2.413
57061W        W16157  18.559  16.162  13.469
57062W        W16158  18.247  27.576  12.475
57063W        W16159  18.716  39.538  14.385
57064W        W16160  21.534   5.824   3.826
57065W        W16161  11.784   4.772   0.337
57066W        W16162  44.431   7.181   0.431
57067W        W16163  15.144  29.477   9.579
57068W        W16164   5.403   9.256  10.483
57069W        W16165  17.178  15.709  12.935
57070W        W16166  28.466  40.349  10.974
57071W        W16167   0.418  11.657  11.424
57072W        W16168  42.424  40.895   0.252
57073W        W16169  41.509  37.055  10.943
57074W        W16170   7.773   7.196   3.295
57075W        W16171  28.067  29.047   2.877
57076W        W16172   3.384  43.804   1.764
57077W        W16173  26.481  18.072   4.686
57078W        W16174  38.853   8.343   1.430
57079W        W16175  31.628   2.245   1.348
57080W        W16176  12.252  37.405  11.516
57081W        W16177  25.535  42.857  10.066
57082W        W16178  38.355  37.432   3.835
57083W        W16179  44.300  25.146   9.944
57084W        W16180  43.991  33.477   1.283
57085W        W16181  39.331  21.568   2.341
57086W        W16182  36.049  36.851  12.515
57087W        W16183  20.583  35.073   0.731
57088W        W16184   8.328  44.833  11.484
57089W        W16185  44.403  12.627  12.091
57090W        W16186  41.373   5.701  13.879
57091W        W16187  12.183  31.433  14.985
57092W        W16188  35.045  27.113   0.962
57093W        W16189  12.222  42.992  12.340
57094W        W16190  38.407  28.936   4.794
57095W        W16191  44.432   8.375   4.796
57096W        W16192  40.873   8.362   1.356
57097W        W16193  37.496  17.087   0.854
57098W        W16194  31.533  40.049  13.959
57099W        W16195  34.417  30.493   3.327
57100W        W16196  17.620  26.634  13.035
57101W        W16197  38.399  34.903  14.767
57102W        W16198  29.458  16.177  12.384
57103W        W16199  31.129  36.572   2.180
57104W        W16200  37.529  23.236  12.559
57105W        W16201   7.366  30.025   4.727
57106W        W16202  42.959  41.040  12.907
57107W        W16203  29.077  35.042   3.736
57108W        W16204  42.524  32.066  12.542
57109W        W16205  10.814  32.497   0.243
57110W        W16206  19.748  36.093   0.295
57111W        W16207  29.584  23.528  10.932
57112W        W16208  22.094   0.821   2.789
57113W        W16209  10.258  34.986  11.120
57114W        W16210  16.573  14.725  14.026
57115W        W16211  31.999  31.090  14.353
57116W        W16212  32.492  29.544   3.779
57117W        W16213  23.050  12.317   1.354
57118W        W16214  41.464  21.744   2.223
57119W        W16215  10.231  19.738   1.865
57120W        W16216  43.380  28.476   1.423
57121W        W16217  27.150  30.639  10.498
57122W        W16218   5.337  42.311  14.437
57123W        W16219  30.951  11.779   0.847
57124W        W16220  18.286  30.957  11.541
57125W        W16221  33.530  16.801  11.448
57126W        W16222   4.216  33.394  14.938
57127W        W16223  17.605   0.437   3.742
57128W        W16224   0.348   8.246  13.018
57129W        W16225  22.582   7.799  13.915
57130W        W16226   8.814  18.672   4.298
57131W        W16227   6.423  19.698   0.344
57132W        W16228   5.307  19.623  10.909
57133W        W16229  20.674  20.054  12.529
57134W        W16230   3.393  16.764  10.968
57135W        W16231  21.056  24.114   0.331
57136W        W16232  24.116  27.678  12.864
57137W        W16233  44.768  37.930  10.428
57138W        W16234  26.179  19.614   0.256
57139W        W16235  35.505  25.671  11.421
57140W        W16236  28.979   5.825  10.588
57141W        W16237  22.746   9.261  14.414
57142W        W16238  33.981  12.623  13.422
57143W        W16239   2.281  13.115  12.955
57144W        W16240   0.800   6.325  14.405
57145W        W16241   2.309   7.184   5.148
57146W        W16242  14.334  11.304  10.421
57147W        W16243  38.972  16.708   9.920
57148W        W16244  33.980  38.420   4.198
57149W        W16245   4.243  42.857   0.253
57150W        W16246  15.150  36.377   5.770
57151W        W16247  11.368  31.044  10.410
57152W        W16248  29.596  37.978  14.456
57153W        W16249  18.286  22.062   1.306
57154W        W16250  42.319  34.932  13.404
57155W        W16251  39.945   7.321  11.000
57156W        W16252  39.406   5.317  12.885
57157W        W16253  14.773  38.571   4.288
57158W        W16254  42.870  20.756  14.380
57159W        W16255  20.210  26.088   3.181
57160W        W16256  43.909  41.388   3.222
57161W        W16257   7.695   1.389  13.896
57162W        W16258  30.612  33.508   3.801
57163W        W16259  23.518   5.292  11.397
57164W        W16260  22.015   4.738   0.467
57165W        W16261  43.359  32.923   2.821
57166W        W16262  19.099  38.050  14.511
57167W        W16263  28.181  24.023   4.241
57168W        W16264   1.337  35.932  10.909
57169W        W16265  27.982  36.052  10.499
57170W        W16266  27.120   8.692  11.388
57171W        W16267   9.320  30.969   2.243
57172W        W16268  12.245  12.120  13.989
57173W        W16269  32.137  27.665   3.641
57174W        W16270   8.241  13.305   0.868
57175W        W16271  11.827  10.878  10.583
57176W        W16272  43.342  22.548   2.347
57177W        W16273  29.975  30.429  13.547
57178W        W16274   8.308  43.852  10.891
57179W        W16275   8.370  31.137  14.278
57180W        W16276  25.136  34.870   2.877
57181W        W16277   2.822  44.778   4.817
57182W        W16278  28.494   8.303   1.751
57183W        W16279   1.347  20.590  14.907
57184W        W16280  35.868  40.875  13.852
57185W        W16281  44.944  22.071   2.224
57186W        W16282  29.635   7.685   2.373
57187W        W16283  44.819  10.694  14.963
57188W        W16284  10.323  37.354   1.213
57189W        W16285   4.381  21.206   1.716
57190W        W16286  12.718  19.632  12.443
57191W        W16287  26.139  38.524  13.454
57192W        W16288  36.469  44.314   0.254
57193W        W16289  20.162   6.772  14.312
57194W        W16290   5.435  32.912   3.712
57195W        W16291  23.607  10.646  12.342
57196W        W16292  19.683  30.538   4.717
57197W        W16293  29.594  40.976  12.054
57198W        W16294  15.313  16.128   0.831
57199W        W16295  15.095  16.260  12.445
57200W        W16296   5.324  28.185  12.390
57201W        W16297  34.460   9.358  12.823
57202W        W16298   9.853  35.453  10.420
57203W        W16299  18.764  26.116   4.811
57204W        W16300  37.493  27.052   2.385
57205W        W16301   5.709   9.173  11.058
57206W        W16302  34.041  32.537  10.624
57207W        W16303   1.942   4.313  13.023
57208W        W16304   6.899  14.236  10.937
57209W        W16305  40.311  40.530   3.660
57210W        W16306  30.050   4.778  14.872
57211W        W16307  20.169  41.510   3.242
57212W        W16308  44.380  34.975  14.494
57213W        W16309   2.395  39.518   0.894
57214W        W16310  24.050  43.458   2.388
57215W        W16311   3.271  44.448   1.888
57216W        W16312  38.444  37.479  10.933
57217W        W16313  10.166  39.019   0.477
57218W        W16314  15.289   5.220   2.307
57219W        W16315  14.810  10.277   3.812
57220W        W16316  23.497  24.024  13.058
57221W        W16317   3.346  29.489   0.770
57222W        W16318  40.320   9.872   4.242
57223W        W16319  12.268  20.715   4.784
57224W        W16320  34.045  39.872   0.473
57225W        W16321  35.423  44.792  10.494
57226W        W16322   5.891  28.636   4.707
57227W        W16323   1.252  36.496   2.255
57228W        W16324   4.753  16.289  12.362
57229W        W16325  29.956   4.771  13.512
57230W        W16326  21.205   3.804   1.918
57231W        W16327  44.373   6.767  12.091
57232W        W16328  26.560  15.627   4.645
57233W        W16329  32.558  44.968  10.606
57234W        W16330  31.038  37.039  11.579
57235W        W16331  23.734  28.576  11.064
57236W        W16332  19.116  43.423  13.871
57237W        W16333  21.236  29.963   2.389
57238W        W16334  20.214  40.426  11.459
57239W        W16335  16.773  15.170   3.321
57240W        W16336  16.246  31.474   3.255
57241W        W16337  24.701  12.358  14.459
57242W        W16338  42.930  21.719   2.868
57243W        W16339  17.771  13.716   4.726
57244W        W16340  38.489  10.239  13.917
57245W        W16341  10.754   3.742  13.353
57246W        W16342  30.654  14.598  10.435
57247W        W16343  25.487  36.974  12.956
57248W        W16344  28.021  31.601   4.716
57249W        W16345  36.073  43.310   0.937
57250W        W16346  10.315  28.068   0.244
57251W        W16347  33.947  38.953   3.858
57252W        W16348   5.847  39.542   1.822
57253W        W16349  36.392  23.682  10.017
57254W        W16350  44.339   9.703  11.899
57255W        W16351  41.821  37.553   3.776
57256W        W16352   5.906  33.495  11.114
57257W        W16353  32.544   1.295  13.491
57258W        W16354  15.251  29.129   3.260
57259W        W16355  11.243  30.431  10.915
57260W        W16356  20.622  10.856  10.469
57261W        W16357   2.369  11.212  12.889
57262W        W16358  40.974   1.747   0.460
57263W        W16359   0.975  27.648  10.502
57264W        W16360  34.444   4.747   1.331
57265W        W16361  36.985   8.757  13.428
57266W        W16362  14.278   7.806   2.785
57267W        W16363  31.024   2.829  11.875
57268W        W16364  19.242  37.469  13.464
57269W        W16365  14.798   9.154   0.413
57270W        W16366  10.382  33.408   2.362
57271W        W16367  10.735  31.531  13.421
57272W        W16368   2.227  41.421   9.964
57273W        W16369  32.041  16.775  14.351
57274W        W16370  10.856  40.383  12.007
57275W        W16371  15.765   5.872  14.936
57276W        W16372  32.975  35.888   4.257
57277W        W16373  42.447  30.089   4.295
57278W        W16374  40.960   9.310  11.954
57279W        W16375  19.697  39.917   1.452
57280W        W16376  37.059  36.549  14.491
57281W        W16377  14.313  11.790  11.484
57282W        W16378  42.478  44.362  14.875
57283W        W16379  21.131  19.703  10.479
57284W        W16380  31.495  34.052  14.361
57285W        W16381  28.157   8.374  11.603
57286W        W16382  26.985  23.554  11.520
57287W        W16383   5.800  13.301  10.420
57288W        W16384  41.979   3.398   9.945
57289W        W16385  18.595  11.185   4.643
57290W        W16386  38.333  22.553  10.448
57291W        W16387  37.074  43.013  14.007
57292W        W16388  23.506  28.099   3.208
57293W        W16389  40.414  31.059  14.976
57294W        W16390   6.723   4.273  13.876
57295W        W16391  32.535  16.768   0.818
57296W        W16392  29.630  37.554   0.243
57297W        W16393  11.224  19.065   9.942
57298W        W16394   8.406   9.365  11.991
57299W        W16395  17.228  29.942  12.562
57300W        W16396  26.014  32.036   4.117
57301W        W16397  33.556  43.771   4.674
57302W        W16398  29.982   4.300  12.016
57303W        W16399   4.906  24.037  10.043
57304W        W16400  33.576  15.623  11.459
57305W        W16401  31.101  40.969  13.325
57306W        W16402  29.004  34.064  12.842
57307W        W16403  15.154  13.715  12.846
57308W        W16404   5.399  32.130  12.375
57309W        W16405  40.521  33.904   3.753
57310W        W16406  36.065   7.200   3.186
57311W        W16407  40.996  18.255  10.962
57312W        W16408   3.713  40.906  14.306
57313W        W16409   2.731  25.512  14.830
57314W        W16410  27.038  39.318  12.541
57315W        W16411  16.625  27.085   3.223
57316W        W16412  30.139  12.765   4.709
57317W        W16413   4.312  31.480  13.538
57318W        W16414  10.298  20.712  10.916
57319W        W16415  13.765  13.788  11.049
57320W        W16416  16.661  33.904  14.414
57321W        W16417  23.494  15.710   2.810
57322W        W16418  34.430  27.963  10.550
57323W        W16419  13.287  16.135   3.354
57324W        W16420  43.866  29.125  11.497
57325W        W16421  42.392  20.589  11.004
57326W        W16422  14.610  19.584  13.958
57327W        W16423  10.688  32.983  13.040
57328W        W16424  13.845   4.258  11.580
57329W        W16425   9.713  13.745   0.867
57330W        W16426  25.653   4.283  10.563
57331W        W16427  28.186  23.039   3.209
57332W        W16428  42.286  35.426   0.815
57333W        W16429  21.041   5.268  11.872
57334W        W16430  21.107  36.986  13.440
57335W        W16431  12.853  16.607  13.998
57336W        W16432   2.892  29.921  10.494
57337W        W16433   4.251  42.985  12.927
57338W        W16434  33.888  15.695   3.837
57339W        W16435  12.140  35.030  13.946
57340W        W16436  14.691  42.317  12.825
57341W        W16437  40.824  43.314   1.258
57342W        W16438   6.194  44.344   2.256
57343W        W16439  30.540   1.958   4.137
57344W        W16440  28.031  26.044  11.591
57345W        W16441  13.193  42.866   1.846
57346W        W16442  21.193   3.941   3.810
57347W        W16443  11.803  25.668   2.859
57348W        W16444  38.945  17.728   0.364
57349W        W16445  11.273  19.598  14.506
57350W        W16446  20.210  13.709   0.314
57351W        W16447  43.497  33.396  11.018
57352W        W16448  28.593  30.120   2.724
57353W        W16449  24.503  28.145   0.745
57354W        W16450  43.426  26.009   1.744
57355W        W16451  11.328   4.311  10.421
57356W        W16452   9.679  33.011   3.757
57357W        W16453  34.114  19.256  14.778
57358W        W16454  14.154  20.745   2.886
57359W        W16455  21.725  43.974  12.352
57360W        W16456  13.209  31.566  14.400
57361W        W16457  27.944  18.194  13.054
57362W        W16458   9.159   8.161  13.352
57363W        W16459  30.603  23.542   1.836
57364W        W16460   1.841  25.693  11.471
57365W        W16461  42.013  39.351  14.818
57366W        W16462  35.553  32.988  11.932
57367W        W16463   1.940  38.998  13.836
57368W        W16464   2.337  21.214   1.216
57369W        W16465   0.780  26.964   3.206
57370W        W16466  26.026  42.965  10.498
57371W        W16467  27.686  11.338   4.768
57372W        W16468  23.591  42.845   0.898
57373W        W16469  29.607  40.509  10.411
57374W        W16470  31.145  34.942  11.460
57375W        W16471  40.310  22.139  13.992
57376W        W16472  34.875  13.661  12.551
57377W        W16473  23.499  20.254  14.346
57378W        W16474  35.988   8.295  12.915
57379W        W16475  44.998  31.062   4.650
57380W        W16476  10.717  24.018   2.721
57381W        W16477  42.359  21.641   3.327
57382W        W16478  20.546  25.987  14.376
57383W        W16479  24.150   4.204   3.802
57384W        W16480  32.571  34.398   4.746
57385W        W16481   2.880  23.129  11.893
57386W        W16482  36.356  10.667  14.930
57387W        W16483  27.492  39.420   4.354
57388W        W16484  15.291  12.787   0.886
57389W        W16485  40.935  11.692   4.672
57390W        W16486  40.825  14.255  11.594
57391W        W16487  34.967  11.161   4.116
57392W        W16488   9.808  16.207  13.343
57393W        W16489  11.185  22.724  12.838
57394W        W16490   1.839  39.398   1.285
57395W        W16491   5.924  39.886   0.902
57396W        W16492  12.124  16.138  10.054
57397W        W16493   9.150   1.309   2.263
57398W        W16494  25.096  15.694   2.343
57399W        W16495  41.855  14.633   3.214
57400W        W16496   3.814  30.138  11.460
57401W        W16497   8.724   5.877   4.733
57402W        W16498  10.739   8.193  13.849
57403W        W16499   7.712  10.707  11.488
57404W        W16500  37.353  20.076  11.126
57405W        W16501  28.107  21.081  12.940
57406W        W16502   4.294  31.460  11.869
57407W        W16503  35.977  18.295  14.005
57408W        W16504  43.514  40.318  11.464
57409W        W16505  15.298  40.850   2.852
57410W        W16506  31.428  13.319  13.029
57411W        W16507  28.964   6.334  13.547
57412W        W16508  41.997  26.040  11.463
57413W        W16509  25.558   7.795  14.026
57414W        W16510  24.691  27.979  13.336
57415W        W16511  40.487  44.487  12.946
57416W        W16512  18.635  32.600   1.894
57417W        W16513  29.987   9.657  13.976
57418W        W16514   6.416  23.995   0.873
57419W        W16515  40.814  23.679   2.400
57420W        W16516   2.457  21.594  14.976
57421W        W16517  39.961   9.719   5.205
57422W        W16518   0.983  38.453  10.513
57423W        W16519  43.482  43.470  13.795
57424W        W16520  33.422   2.276   5.308
57425W        W16521  33.045  13.202   5.688
57426W        W16522  32.436  18.290  12.908
57427W        W16523  26.050  16.088  14.293
57428W        W16524  11.679  32.603  14.441
57429W        W16525  30.611  44.414   2.847
57430W        W16526   3.952  33.045  10.640
57431W        W16527  28.963  19.099   0.424
57432W        W16528  11.776   5.708   2.883
57433W        W16529   1.447  27.501   1.222
57434W        W16530   0.319  32.574   3.661
57435W        W16531  30.552  23.040   0.849
57436W        W16532  23.120  44.989  14.824
57437W        W16533   6.272  44.769  11.883
57438W        W16534   9.798  16.117  14.367
57439W        W16535  30.600  30.063  13.918
57440W        W16536  36.868  37.343   3.353
57441W        W16537  41.325  38.856  11.874
57442W        W16538  21.034  35.062   1.722
57443W        W16539  11.744  13.661  11.983
57444W        W16540   1.323  15.619  11.475
57445W        W16541  24.578  16.301   3.811
57446W        W16542  35.427  11.789  14.887
57447W        W16543  31.042  31.030  10.505
57448W        W16544  30.991  26.196   3.712
57449W        W16545  33.610  17.106  14.963
57450W        W16546  31.994  23.050  10.417
57451W        W16547   6.256  13.118  13.545
57452W        W16548  16.127  28.490   1.271
57453W        W16549  28.446  26.114  14.277
57454W        W16550  14.120  16.293   2.892
57455W        W16551  16.229  30.474   3.362
57456W        W16552  24.529   7.198  13.369
57457W        W16553  15.793  28.143  12.565
57458W        W16554  27.003  23.713  12.993
57459W        W16555   4.804  25.513  14.440
57460W        W16556  11.720   3.347   0.791
57461W        W16557  11.781  26.127   3.220
57462W        W16558   3.326  39.011   0.810
57463W        W16559  33.973  25.479  12.080
57464W        W16560   2.774  12.251  10.973
57465W        W16561  29.117  20.175   1.295
57466W        W16562  35.544  15.679   3.308
57467W        W16563  22.133  39.362   4.289
57468W        W16564  43.910  29.463  12.494
57469W        W16565  39.396  27.619   0.384
57470W        W16566  22.656   9.792   0.276
57471W        W16567  22.137  36.572  14.930
57472W        W16568   2.409  16.780  14.410
57473W        W16569  41.828  35.458  14.846
57474W        W16570  14.594  33.427   1.903
57475W        W16571  10.741   9.298  13.039
57476W        W16572   4.764   1.279   4.655
57477W        W16573  19.140  24.097   3.294
57478W        W16574  24.493  17.747  11.941
57479W        W16575  33.472   8.388  14.449
57480W        W16576   1.945  22.516   0.245
57481W        W16577  17.126  29.575  11.855
57482W        W16578  25.530  14.122  11.418
57483W        W16579  16.285  32.985   4.778
57484W        W16580   9.214  10.848   4.827
57485W        W16581  22.013  21.132   2.183
57486W        W16582  38.022  14.629  12.374
57487W        W16583  14.272  35.373   0.420
57488W        W16584  41.875  17.570  14.349
57489W        W16585  41.494  44.296   1.753
57490W        W16586  29.563  40.845   0.948
57491W        W16587  35.072  28.020  13.475
57492W        W16588   3.750  41.030  11.379
57493W        W16589  24.566  14.716   2.256
57494W        W16590  37.853  34.465  13.063
57495W        W16591  27.681  29.446  11.045
57496W        W16592   1.466  10.305   4.117
57497W        W16593  27.950   8.331   1.408
57498W        W16594  21.716  43.337   3.332
57499W        W16595   2.383  30.431   0.331
57500W        W16596  18.100  27.663  13.423
57501W        W16597  11.133  44.403   2.775
57502W        W16598  36.063   2.464  13.921
57503W        W16599  38.473   0.886  12.526
57504W        W16600  33.916   7.816  14.779
57505W        W16601  36.437  19.283  11.011
57506W        W16602  16.695   3.860   2.334
57507W        W16603  31.457  20.729  12.022
57508W        W16604  43.866   8.895   1.309
57509W        W16605  24.620  33.043  10.145
57510W        W16606  19.658  19.132   4.258
57511W        W16607  37.029   5.807  11.555
57512W        W16608   4.804  24.061  10.533
57513W        W16609   3.294  44.482  10.142
57514W        W16610   1.279  44.815   1.421
57515W        W16611  36.847  21.170   0.319
57516W        W16612  34.912  17.788  14.432
57517W        W16613  43.837   4.755  14.286
57518W        W16614   5.819  30.531   3.188
57519W        W16615  31.407  27.466  11.393
57520W        W16616   7.870  18.656  13.427
57521W        W16617  42.830  36.924   0.278
57522W        W16618  19.253  43.456   0.362
57523W        W16619   8.338  20.693   1.296
57524W        W16620  44.937  37.874  12.842
57525W        W16621   1.298  31.905   3.238
57526W        W16622  19.079  23.531   2.692
57527W        W16623  39.919  29.537   0.731
57528W        W16624  44.831   2.236  12.942
57529W        W16625  34.539  33.389  12.961
57530W        W16626  14.833  10.319   0.819
57531W        W16627  34.033  31.940   3.848
57532W        W16628   2.856  26.964   1.796
57533W        W16629  13.274  21.021   1.445
57534W        W16630  30.154  44.311  14.991
57535W        W16631  16.197  11.631   2.696
57536W        W16632  34.084   8.333  11.860
57537W        W16633  10.360  23.661   3.222
57538W        W16634  36.381  41.884  11.480
57539W        W16635   2.238  24.051   1.716
57540W        W16636  42.400  20.261  12.446
57541W        W16637   3.718  42.376   4.793
57542W        W16638  33.895  11.290   0.354
57543W        W16639  26.556  37.432  12.834
57544W        W16640   6.396  25.552  10.581
57545W        W16641  42.957  34.433  14.771
57546W        W16642  38.067  40.038   4.838
57547W        W16643  40.462  24.048  12.368
57548W        W16644  17.624  30.056   2.370
57549W        W16645  27.154  17.625   3.263
57550W        W16646   1.339  34.029   3.338
57551W        W16647  12.695  31.529   3.189
57552W        W16648   6.346   6.289  13.059
57553W        W16649  29.639  33.985  12.421
57554W        W16650  39.542  34.511   2.694
57555W        W16651  20.757  38.012  13.376
57556W        W16652  37.831   2.881  14.318
57557W        W16653  37.083  41.933  14.913
57558W        W16654  44.497   0.408  13.408
57559W        W16655  41.995  39.482   1.858
57560W        W16656  41.456  16.123   1.805
57561W        W16657   2.861   2.925  13.830
57562W        W16658  34.891  32.546  10.561
57563W        W16659  26.575   3.253  11.856
57564W        W16660  25.120  16.775   0.900
57565W        W16661  42.424  12.717  12.988
57566W        W16662  35.368   4.910   2.676
57567W        W16663  41.951   0.249  12.932
57568W        W16664  43.905  16.813  12.348
57569W        W16665  12.846  20.686   3.673
57570W        W16666  34.435   1.799  11.055
57571W        W16667  34.977   0.349   2.404
57572W        W16668  37.918  13.748   3.325
57573W        W16669  28.649   0.867   2.865
57574W        W16670   3.244  26.486  10.418
57575W        W16671  20.747  12.761   4.350
57576W        W16672  39.546  16.647  11.432
57577W        W16673  21.222  36.566  10.925
57578W        W16674  15.585   2.837  12.488
57579W        W16675  25.663  10.188  10.444
57580W        W16676  44.776   2.237  14.398
57581W        W16677   5.409  22.700  13.901
57582W        W16678  24.508  23.138  13.543
57583W        W16679  17.081   6.370  10.442
57584W        W16680   9.727  35.866   3.189
57585W        W16681   4.703  24.108  13.346
57586W        W16682   0.879  36.356   1.905
57587W        W16683  17.723  21.566  10.419
57588W        W16684  32.918  43.836   1.873
57589W        W16685  13.786  21.735  13.509
57590W        W16686   8.714  17.724   2.348
57591W        W16687  28.961  42.376   4.148
57592W        W16688  23.579   5.376  14.292
57593W        W16689  27.543  28.072  10.609
57594W        W16690  24.107  21.624  10.902
57595W        W16691  13.676  44.857   2.821
57596W        W16692   7.891  22.240   2.789
57597W        W16693  25.537  41.334   4.192
57598W        W16694  17.259  28.968   4.801
57599W        W16695  14.829  36.970  10.508
57600W        W16696  36.437   1.732   9.982
57601W        W16697  28.643   8.705   3.741
57602W        W16698   3.437  30.075   2.356
57603W        W16699  14.182  43.865   1.860
57604W        W16700  39.371  28.140  10.097
57605W        W16701  24.692  38.521   4.295
57606W        W16702  17.751  25.473  12.409
57607W        W16703  36.493  42.326   3.704
57608W        W16704  24.519   7.671   3.159
57609W        W16705  37.051  35.930   3.161
57610W        W16706  21.611  11.317   5.239
57611W        W16707  39.322  39.352  11.492
57612W        W16708  11.254  42.453   3.315
57613W        W16709  18.296  19.651   0.919
57614W        W16710   4.738  37.075  12.452
57615W        W16711   7.801  30.930  13.807
57616W        W16712  38.401  38.416   2.291
57617W        W16713  41.321  20.123   3.725
57618W        W16714  33.526  17.753  14.027
57619W        W16715  41.352   4.940  12.824
57620W        W16716  38.844   4.227  12.002
57621W        W16717  30.024  11.236   3.857
57622W        W16718  20.242  28.464  10.416
57623W        W16719  12.787  37.500  11.606
57624W        W16720   6.292   3.441   1.809
57625W        W16721  17.799   1.823   4.701
57626W        W16722  42.876  41.790   5.242
57627W        W16723  41.396  42.990  13.026
57628W        W16724  31.990   1.464  13.952
57629W        W16725  42.328  33.911  14.892
57630W        W16726  11.631   1.375   4.285
57631W        W16727   4.741  40.843  14.512
57632W        W16728  17.713  11.300   2.284
57633W        W16729  27.508  22.166  14.427
57634W        W16730   0.768  41.315   1.221
57635W        W16731  32.939  19.079  10.482
57636W        W16732  42.482  26.525   1.919
57637W        W16733  41.529  28.485  11.948
57638W        W16734  30.076  33.042   2.865
57639W        W16735  29.442  32.942  10.152
57640W        W16736  25.560  12.137   3.278
57641W        W16737  16.806  28.058  14.014
57642W        W16738  11.704  20.643   2.766
57643W        W16739  14.734   3.847   3.783
57644W        W16740  33.605  12.318   3.729
57645W        W16741  39.026  37.066   1.326
57646W        W16742  26.960  16.640   1.742
57647W        W16743  11.798   8.744  13.013
57648W        W16744  13.272  12.662   1.392
57649W        W16745   8.213  25.197  12.463
57650W        W16746  38.476  17.286   3.178
57651W        W16747  18.268   4.211   0.752
57652W        W16748  19.719  19.042  13.354
57653W        W16749  41.969  12.178   2.395
57654W        W16750  38.506  25.073  11.577
57655W        W16751   6.256   5.767   2.385
57656W        W16752   0.894  35.446  14.814
57657W        W16753  10.281  24.140   3.323
57658W        W16754  18.222  32.933   0.342
57659W        W16755   9.364  13.609   9.985
57660W        W16756  18.227  11.806  11.462
57661W        W16757  30.005  15.113  11.024
57662W        W16758   5.429  34.606   3.328
57663W        W16759  44.361   1.353  13.477
57664W        W16760  34.496  29.045   4.219
57665W        W16761  37.053  25.150  14.805
57666W        W16762   7.199  36.986   0.952
57667W        W16763  21.023  37.891  14.452
57668W        W16764  17.572  38.419   4.143
57669W        W16765  14.830  36.468   2.791
57670W        W16766  16.703  13.711  13.799
57671W        W16767  29.462  25.110   5.272
57672W        W16768  25.623   5.351  12.945
57673W        W16769   9.215  36.036   1.426
57674W        W16770  16.218  31.568   2.252
57675W        W16771   1.427   7.356   3.818
57676W        W16772  12.698  43.438  13.546
57677W        W16773  27.110  37.020   1.781
57678W        W16774  17.148  37.573   0.885
57679W        W16775   1.332  22.191   1.213
57680W        W16776  39.971  39.412  14.320
57681W        W16777  31.481  30.623  13.026
57682W        W16778  42.857  42.933   1.442
57683W        W16779   2.260  39.035  11.870
57684W        W16780  13.130  42.305   4.257
57685W        W16781  23.517   0.408  13.525
57686W        W16782  30.950  28.458   2.870
57687W        W16783  41.937   2.251   2.290
57688W        W16784   5.415  32.580   3.795
57689W        W16785  12.283  23.642   0.950
57690W        W16786  24.018  11.266   5.170
57691W        W16787   0.829  31.495   0.397
57692W        W16788  21.570   4.847   1.310
57693W        W16789  27.081  13.706  14.434
57694W        W16790  41.824   4.293  10.458
57695W        W16791  25.471  36.534  11.925
57696W        W16792  16.075   5.853   4.605
57697W        W16793  17.266  20.103   2.706
57698W        W16794  33.991  42.386   2.238
57699W        W16795   4.835  18.588  11.545
57700W        W16796  14.663  32.448  12.895
57701W        W16797  34.509  19.539   4.241
57702W        W16798  42.024  34.589  14.302
57703W        W16799  36.576  10.232  14.922
57704W        W16800   1.463  14.250   2.307
57705W        W16801  12.679  27.454   3.826
57706W        W16802   2.289   2.429  13.419
57707W        W16803  31.954  23.532   0.470
57708W        W16804  38.367  12.214   1.858
57709W        W16805  30.631   0.297  12.952
57710W        W16806   3.878  30.577  10.082
57711W        W16807  26.548  21.231   2.211
57712W        W16808  31.949  40.339  12.024
57713W        W16809  15.599  43.270   1.821
57714W        W16810   8.847  25.605   2.293
57715W        W16811  35.371  13.349   3.219
57716W        W16812  16.621  30.547  11.910
57717W        W16813  15.623  44.360  10.405
57718W        W16814  24.109  10.305  13.910
57719W        W16815   8.246   3.860  11.452
57720W        W16816   4.794  28.608   2.760
57721W        W16817  25.116  17.139   3.308
57722W        W16818  32.493  31.601  14.421
57723W        W16819  27.686  23.165   0.958
57724W        W16820  33.089   3.918   0.457
57725W        W16821   3.287  33.382  14.303
57726W        W16822  41.928  10.869   3.330
57727W        W16823  31.110  25.976   1.861
57728W        W16824  19.240   0.812  14.292
57729W        W16825  27.588  36.961   1.724
57730W        W16826  23.682   1.733  13.012
57731W        W16827  26.041  16.795   2.314
57732W        W16828  17.735   6.332   3.363
57733W        W16829  39.332  14.727   1.700
57734W        W16830   2.793  34.421  11.381
57735W        W16831  29.630   0.356  10.493
57736W        W16832   7.393  16.646   3.387
57737W        W16833   5.734  40.955   2.247
57738W        W16834  29.519  12.834   2.180
57739W        W16835   3.262   1.262   1.271
57740W        W16836   2.722  12.197   0.785
57741W        W16837   8.372  27.027   3.753
57742W        W16838  15.327  35.388  11.434
57743W        W16839  25.705  32.072  10.960
57744W        W16840  23.084   6.710   0.863
57745W        W16841  30.104  11.164   3.375
57746W        W16842   8.881   6.375  13.859
57747W        W16843  42.819   0.860  10.983
57748W        W16844  40.542  37.877  11.588
57749W        W16845  35.047  27.588  10.490
57750W        W16846  21.661   3.769  14.769
57751W        W16847  31.516  22.210  13.327
57752W        W16848   6.182   8.720   2.709
57753W        W16849   8.268  15.188   3.759
57754W        W16850  38.481  44.924   3.841
57755W        W16851  37.040  17.612   0.739
57756W        W16852  29.051  16.625  13.517
57757W        W16853  12.712  25.193  13.332
57758W        W16854  43.810   9.676  11.568
57759W        W16855   8.223   9.798  12.991
57760W        W16856  28.444  20.101   1.823
57761W        W16857  43.362  34.606  14.953
57762W        W16858  21.524  26.587  11.565
57763W        W16859   6.424  32.924   1.348
57764W        W16860  43.002   0.852  13.044
57765W        W16861  29.462  22.063   1.265
57766W        W16862  29.546  16.285  14.387
57767W        W16863  24.104  15.165  11.498
57768W        W16864  38.481   4.787  13.044
57769W        W16865   4.872   9.188   4.638
57770W        W16866  35.018  35.457   4.227
57771W        W16867  34.593  18.066   3.265
57772W        W16868  18.771  31.121  10.460
57773W        W16869  40.439  19.644   1.384
57774W        W16870   0.796  26.168   2.200
57775W        W16871  10.345  13.313  11.605
57776W        W16872   0.307  42.928   3.671
57777W        W16873  20.621  12.181   5.158
57778W        W16874   1.755  34.004   3.805
57779W        W16875  25.022   1.842   4.714
57780W        W16876  38.399  28.620   1.695
57781W        W16877  21.581  11.687   1.243
57782W        W16878   3.455  36.998  14.811
57783W        W16879  30.144  25.062  13.807
57784W        W16880  14.184  37.984   2.702
57785W        W16881  13.301   5.194   2.297
57786W        W16882   8.663   8.886  13.429
57787W        W16883  34.964  20.623   1.217
57788W        W16884  43.465   0.833  14.941
57789W        W16885  20.582  35.520   0.360
57790W        W16886  39.396   6.183   3.633
57791W        W16887   5.789   1.803  12.030
57792W        W16888  43.357  10.347  14.966
57793W        W16889  30.025  19.541   4.603
57794W        W16890  19.161  21.127   4.672
57795W        W16891  34.961   5.903   1.243
57796W        W16892   6.911  41.884   1.381
57797W        W16893   5.302  28.121   4.612
57798W        W16894  38.825  27.080   0.435
57799W        W16895  30.065  27.067   1.864
57800W        W16896   5.241  19.142  14.349
57801W        W16897   7.414  29.018  14.480
57802W        W16898  37.874   2.328  12.360
57803W        W16899  10.380  28.091   4.759
57804W        W16900  18.120   2.277  10.598
57805W        W16901  38.949  31.069  10.413
57806W        W16902  10.207   6.830  13.838
57807W        W16903  13.798  16.072   3.328
57808W        W16904  41.509  35.431  14.407
57809W        W16905  39.315  16.640  10.613
57810W        W16906  43.917  22.713  13.839
57811W        W16907   3.403  21.526   1.923
57812W        W16908  36.572   6.270  13.993
57813W        W16909  29.023  24.544  13.945
57814W        W16910  13.754  20.701  11.990
57815W        W16911  42.023   9.680   0.407
57816W        W16912  27.046  20.528  10.951
57817W        W16913  29.505  44.908   3.768
57818W        W16914   1.458   2.874   4.650
57819W        W16915  43.274  18.134  14.863
57820W        W16916  38.514   7.247   0.804
57821W        W16917  11.198  22.033   0.794
57822W        W16918   8.677  23.066   9.526
57823W        W16919  31.567   4.771  14.932
57824W        W16920  42.427  18.256  12.394
57825W        W16921  33.383  39.813  12.375
57826W        W16922   3.225   3.865   4.622
57827W        W16923  31.941  11.149  11.559
57828W        W16924  20.724  15.140  13.364
57829W        W16925  14.809   0.930  10.160
57830W        W16926   2.447  12.744   3.259
57831W        W16927   4.748  40.983   1.252
57832W        W16928   9.652  34.484  13.441
57833W        W16929  26.599  39.498   5.203
57834W        W16930  36.898  13.347  10.483
57835W        W16931   2.949   7.719   2.860
57836W        W16932  40.354  12.618   1.274
57837W        W16933  38.025  32.562  12.077
57838W        W16934   2.852  14.661  14.869
57839W        W16935  42.934  22.526  11.021
57840W        W16936  24.119  14.140   1.218
57841W        W16937   3.955   5.831   4.340
57842W        W16938   1.835  43.880  13.353
57843W        W16939  43.376   7.887   0.358
57844W        W16940   2.361  12.737   2.353
57845W        W16941  15.721  36.034  10.437
57846W        W16942   0.777  11.741   2.851
57847W        W16943   7.207  13.778   1.297
57848W        W16944  14.590  16.130   1.279
57849W        W16945   5.256  34.390  13.038
57850W        W16946   2.888  39.818   1.703
57851W        W16947  35.531  13.264  12.919
57852W        W16948  18.624  31.490  13.475
57853W        W16949  41.037  34.549  14.494
57854W        W16950  38.954   9.176   9.616
57855W        W16951  40.816   9.775   4.802
57856W        W16952  22.676  27.026  13.458
57857W        W16953  11.711   4.348   1.229
57858W        W16954  14.206  24.645   3.758
57859W        W16955  22.108  44.489  10.966
57860W        W16956  18.738   0.845   2.377
57861W        W16957  40.364  15.271  14.817
57862W        W16958  39.007  25.583   4.308
57863W        W16959  22.614  28.101  12.031
57864W        W16960   2.728  30.073  14.360
57865W        W16961  25.180  30.005  13.456
57866W        W16962  35.575   5.202   3.852
57867W        W16963  35.588  43.507   2.727
57868W        W16964  44.936  17.166  12.079
57869W        W16965  12.312  20.248   3.764
57870W        W16966  28.955   2.910   1.773
57871W        W16967  20.752  11.712   0.925
57872W        W16968   5.252  21.199  12.932
57873W        W16969  17.206  22.076  14.299
57874W        W16970   6.355  32.934   0.921
57875W        W16971  41.512   2.471   4.333
57876W        W16972  36.007   3.830   3.711
57877W        W16973  27.109  15.792   0.894
57878W        W16974  37.040  19.265   4.634
57879W        W16975  28.639  28.448   4.281
57880W        W16976  17.673   9.215   0.864
57881W        W16977  29.995  12.274   4.332
57882W        W16978  43.372  34.380  10.012
57883W        W16979   6.775   2.780  14.925
57884W        W16980   8.781  34.071  11.572
57885W        W16981  38.565  38.411  14.345
57886W        W16982   0.948   3.331   3.235
57887W        W16983  18.280  26.608   0.430
57888W        W16984  16.310  11.804   1.886
57889W        W16985   2.792  27.487  13.972
57890W        W16986  10.635  36.040  13.516
57891W        W16987  43.393  26.502  11.600
57892W        W16988  19.171   8.309  10.900
57893W        W16989  18.563  34.509   1.443
57894W        W16990  14.694  12.664   3.303
57895W        W16991  38.481  13.831  10.146
57896W        W16992  23.038  28.561   0.383
57897W        W16993  31.007  42.473   3.328
57898W        W16994  38.434   5.806   0.468
57899W        W16995   9.718  12.318  11.116
57900W        W16996  39.914  14.778   2.374
57901W        W16997   9.229  40.994  12.018
57902W        W16998  42.789  14.101   3.367
57903W        W16999   7.248  42.324   2.671
57904W        W17000   9.230  44.433   2.381
57905W        W17001  18.167  40.816  13.329
57906W        W17002  10.750  43.999  10.922
57907W        W17003  37.343  11.720   2.243
57908W        W17004  17.140  19.648  13.025
57909W        W17005  30.447  18.124  12.896
57910W        W17006  35.457  44.798  14.332
57911W        W17007  33.421   5.800   4.737
57912W        W17008  25.664  25.141   4.203
57913W        W17009  16.118  23.102   1.727
57914W        W17010  42.957  16.585  12.022
57915W        W17011  34.892   8.181  12.972
57916W        W17012  25.043  18.676   0.841
57917W        W17013  31.616  43.813  11.005
57918W        W17014  17.230   9.236   2.361
57919W        W17015  10.364  19.139  13.997
57920W        W17016  12.779  27.968  14.505
57921W        W17017   3.371  36.075  13.913
57922W        W17018  28.002  18.671   4.830
57923W        W17019  35.034  13.701  13.309
57924W        W17020  10.757   9.392  12.361
57925W        W17021  27.195  31.593   4.804
57926W        W17022   0.785   1.432   4.174
57927W        W17023  17.634  13.339  12.909
57928W        W17024   6.363  29.615   3.290
57929W        W17025  14.141  23.119   3.772
57930W        W17026  42.902  14.186   4.159
57931W        W17027  23.101   7.351   2.661
57932W        W17028  29.066  14.829  12.487
57933W        W17029  35.977   4.366   4.292
57934W        W17030  14.602  10.851   3.307
57935W        W17031  35.441   5.700   2.232
57936W        W17032  19.212   3.371   4.331
57937W        W17033  11.223  39.513   2.395
57938W        W17034  40.921  30.941  13.492
57939W        W17035  44.302  15.697   2.672
57940W        W17036   4.738  30.963  14.933
57941W        W17037  40.934  14.104  14.484
57942W        W17038  17.711  27.088   0.326
57943W        W17039  28.054   5.216   2.375
57944W        W17040  13.603   8.857   2.267
57945W        W17041  39.918   7.213  14.322
57946W        W17042   3.798  26.145  14.370
57947W        W17043   6.413  10.285  14.373
57948W        W17044  28.153  15.087  14.308
57949W        W17045   7.813  11.721   1.398
57950W        W17046  23.582   7.187  14.502
57951W        W17047   7.779   5.884   3.794
57952W        W17048  44.399   3.890   2.306
57953W        W17049   9.183   9.160   1.248
57954W        W17050  11.684  27.121   4.744
57955W        W17051   3.314   8.719   1.217
57956W        W17052   9.870   6.893   1.836
57957W        W17053  35.499  37.901   4.786
57958W        W17054   1.341  33.879  13.939
57959W        W17055   0.442  34.609  11.607
57960W        W17056   3.854  26.026  10.522
57961W        W17057  25.538  35.486   0.922
57962W        W17058   4.326  37.917  12.392
57963W        W17059  11.802  33.534   0.954
57964W        W17060  13.747  36.044  14.310
57965W        W17061  22.136   4.204   4.272
57966W        W17062  29.970  16.673   2.282
57967W        W17063  38.344   6.410   1.278
57968W        W17064  21.219   2.276  13.807
57969W        W17065  18.700  10.746   2.752
57970W        W17066  24.560  10.290  13.366
57971W        W17067  38.339  42.394  11.116
57972W        W17068   8.766  35.906   3.203
57973W        W17069  10.233  17.211   2.344
57974W        W17070   8.400   2.872  14.321
57975W        W17071  41.427   0.746   0.356
57976W        W17072  42.878  27.609  11.083
57977W        W17073  17.690  35.906   1.925
57978W        W17074   7.300  42.856   0.320
57979W        W17075  25.641  26.463  11.990
57980W        W17076  22.077  42.945  14.948
57981W        W17077  18.735  15.645  11.450
57982W        W17078   1.886  43.472  11.604
57983W        W17079   6.905  44.265   0.858
57984W        W17080  41.331   2.361  14.997
57985W        W17081  23.208   2.364   3.833
57986W        W17082  21.713   1.806  11.443
57987W        W17083   3.348  24.720  13.971
57988W        W17084  30.592   5.907   0.243
57989W        W17085  16.716  10.764   1.877
57990W        W17086  37.551  30.068   4.690
57991W        W17087  40.935  27.577  13.819
57992W        W17088  23.226  21.024  10.433
57993W        W17089  43.815  39.988  11.487
57994W        W17090  32.607  26.130  14.320
57995W        W17091  12.208  28.167  13.532
57996W        W17092  16.697  38.480  14.796
57997W        W17093  38.973  42.842   2.765
57998W        W17094  42.896   7.403  13.441
57999W        W17095  31.002  27.075   4.128
58000W        W17096  30.050  16.745  13.799
58001W        W17097  31.483  27.489   0.303
58002W        W17098  25.652  36.097  10.403
58003W        W17099   6.294  16.725  13.339
58004W        W17100  21.021  37.886  14.901
58005W        W17101  26.669  43.865   3.359
58006W        W17102  15.109  21.261   3.192
58007W        W17103   6.775  28.640  12.427
58008W        W17104   7.795  17.253  10.642
58009W        W17105  37.931  25.692   1.815
58010W        W17106   3.858  29.623  10.527
58011W        W17107  29.056  41.405   3.190
58012W        W17108  27.631  30.093  12.969
58013W        W17109  39.489  41.790  11.059
58014W        W17110  33.920   9.311  13.796
58015W        W17111   6.846  17.700   0.268
58016W        W17112  36.888  16.231  11.491
58017W        W17113   1.242  29.139  12.872
58018W        W17114  35.523   6.397  13.346
58019W        W17115  19.550  32.029  13.411
58020W        W17116  11.294  36.934   3.230
58021W        W17117   4.420  41.030  13.006
58022W        W17118  25.486  31.603  10.440
58023W        W17119  21.621  25.135   2.671
58024W        W17120  16.301  34.102   0.919
58025W        W17121  10.847  25.050   0.438
58026W        W17122  28.956  34.023   2.366
58027W        W17123  20.249  27.464  14.906
58028W        W17124  39.002  39.552   4.789
58029W        W17125  30.128  35.051   1.295
58030W        W17126   4.448  41.886   2.275
58031W        W17127  22.526  37.971  10.629
58032W        W17128  23.007  39.001  11.120
58033W        W17129  29.120   7.757  13.933
58034W        W17130  35.420  25.999   3.327
58035W        W17131  15.663  16.672  12.580
58036W        W17132   7.836  12.735   1.875
58037W        W17133  37.510  29.922  13.536
58038W        W17134  29.064  18.574   1.291
58039W        W17135  35.445  29.513   3.723
58040W        W17136  27.189  25.649  13.027
58041W        W17137  35.583  29.174  13.333
58042W        W17138   0.427   2.430   4.825
58043W        W17139  31.494   2.820  13.404
58044W        W17140  15.751  40.006  11.886
58045W        W17141  25.537  42.781   1.367
58046W        W17142  11.718  16.105  12.406
58047W        W17143  29.110  15.144  13.360
58048W        W17144  22.141   2.330   2.316
58049W        W17145  44.983  35.011   2.342
58050W        W17146   5.360  23.095   0.726
58051W        W17147  37.498  40.412  14.906
58052W        W17148   9.669  32.495  10.030
58053W        W17149  19.042  23.560  13.049
58054W        W17150  44.000  12.712  10.999
58055W        W17151  32.402  36.011  10.436
58056W        W17152  37.044  29.546  14.952
58057W        W17153   0.913  44.779  13.014
58058W        W17154  43.418  15.672   2.245
58059W        W17155  40.539  19.180   0.323
58060W        W17156  38.878  23.203  11.558
58061W        W17157  37.858  16.201   0.409
58062W        W17158  29.511  30.596  12.971
58063W        W17159  29.607   5.291  12.994
58064W        W17160  28.579   9.674  11.041
58065W        W17161  34.041   1.855   0.422
58066W        W17162   5.285  44.392   2.704
58067W        W17163   6.375  28.046   3.705
58068W        W17164  16.698   9.741  12.896
58069W        W17165  41.338   1.785  14.826
58070W        W17166  16.599  13.143  10.513
58071W        W17167  20.768  35.534   2.318
58072W        W17168  12.332  31.084  14.420
58073W        W17169  25.166  11.299   1.821
58074W        W17170  35.971  30.944   0.842
58075W        W17171  30.973   2.363   3.786
58076W        W17172  30.064  17.128  13.539
58077W        W17173   0.810  41.503   3.278
58078W        W17174  34.600  40.844   2.213
58079W        W17175  39.545  36.945   3.848
58080W        W17176  29.058   5.341  11.491
58081W        W17177  40.437  36.430   2.184
58082W        W17178  31.455  16.169   9.606
58083W        W17179   9.181  37.948  10.423
58084W        W17180  17.669  33.005  12.004
58085W        W17181  42.999  32.546   1.444
58086W        W17182  19.258  30.558   0.923
58087W        W17183  34.495  40.990  11.081
58088W        W17184  10.842  16.769  11.938
58089W        W17185  17.165  11.647   4.634
58090W        W17186  21.227  36.536   4.671
58091W        W17187   2.832  19.283   4.140
58092W        W17188  22.521   2.767  13.899
58093W        W17189  41.455  23.993   4.354
58094W        W17190  21.067   0.874   3.214
58095W        W17191  19.152   5.221   2.201
58096W        W17192  22.205  44.905  11.085
58097W        W17193  34.614  12.641   2.212
58098W        W17194  18.071  15.817  12.382
58099W        W17195  17.158  27.116   1.344
58100W        W17196   6.736  22.122  10.009
58101W        W17197  34.033   3.748  11.603
58102W        W17198  35.513  21.030   4.164
58103W        W17199  40.480   4.290   2.361
58104W        W17200  15.788   1.956   2.858
58105W        W17201  21.079   7.269  13.964
58106W        W17202  20.680   6.196   2.843
58107W        W17203  25.150   8.818   3.270
58108W        W17204  30.615   3.448   3.638
58109W        W17205  39.971  27.179   1.698
58110W        W17206  27.100  41.872  13.519
58111W        W17207  41.951  26.675   9.989
58112W        W17208  35.455  12.310   2.734
58113W        W17209  36.427  24.523   1.888
58114W        W17210  16.173   3.248   5.313
58115W        W17211   9.736  16.112   2.853
58116W        W17212   3.316  10.325   5.200
58117W        W17213  10.217  33.524   0.946
58118W        W17214   0.887  30.608  10.439
58119W        W17215   2.448  21.241  14.961
58120W        W17216  31.105   8.901   2.854
58121W        W17217  17.775  32.008   1.227
58122W        W17218  16.148  31.629  10.961
58123W        W17219  19.042   3.282   3.697
58124W        W17220  42.433  30.526   1.905
58125W        W17221  37.986   6.290  14.010
58126W        W17222  13.705  35.576  11.598
58127W        W17223  43.769  15.621   3.341
58128W        W17224  30.545  26.981   1.369
58129W        W17225  28.110  23.635  10.973
58130W        W17226  11.767  24.158   1.212
58131W        W17227  34.970  41.493   0.338
58132W        W17228  34.523   2.405  10.523
58133W        W17229  29.062  29.028   3.172
58134W        W17230  40.953   6.808  13.935
58135W        W17231  36.369   9.175   2.273
58136W        W17232   0.399   2.921  10.422
58137W        W17233   3.377  23.986   4.158
58138W        W17234  40.822  25.486  14.770
58139W        W17235  14.154  26.461  10.941
58140W        W17236  44.906  28.161  12.055
58141W        W17237  12.790   6.683   3.304
58142W        W17238  32.435   1.911   4.220
58143W        W17239  24.046   5.871   0.923
58144W        W17240  27.018   5.410   4.722
58145W        W17241  16.803   4.371   1.374
58146W        W17242  24.704  27.595  13.851
58147W        W17243  36.009  44.455   3.828
58148W        W17244  23.032   6.299  11.883
58149W        W17245  34.998  44.870  11.073
58150W        W17246  29.091  19.562  12.029
58151W        W17247  40.310  34.517   2.668
58152W        W17248  13.671  18.547  12.823
58153W        W17249   2.920  23.241   1.329
58154W        W17250  13.162  38.003   0.877
58155W        W17251  37.883   8.349   3.331
58156W        W17252  44.005  44.398  12.010
58157W        W17253  14.215  38.431   1.894
58158W        W17254  33.440  14.617   9.674
58159W        W17255   9.870  10.773  10.607
58160W        W17256  43.444  43.379  11.604
58161W        W17257  43.924  42.433  13.508
58162W        W17258  18.789   9.362   2.889
58163W        W17259  27.159  34.885   3.858
58164W        W17260   2.927  12.755  10.590
58165W        W17261  43.473   5.926   1.388
58166W        W17262  18.287  38.953   2.331
58167W        W17263  42.370  39.949  13.885
58168W        W17264   8.336   6.236  11.035
58169W        W17265  32.000  36.924   3.846
58170W        W17266  29.969  23.218  12.450
58171W        W17267   4.941  18.666  10.570
58172W        W17268   4.379  25.090  13.931
58173W        W17269  13.815  38.002   2.781
58174W        W17270  41.800  35.996  11.374
58175W        W17271  31.593  31.110   1.720
58176W        W17272  30.024  16.633  10.512
58177W        W17273   2.850   5.273  11.426
58178W        W17274  15.648  36.502   2.730
58179W        W17275   1.449  28.987  13.410
58180W        W17276  14.101  19.711   2.222
58181W        W17277  19.104  18.569  14.873
58182W        W17278  44.392  32.406  11.426
58183W        W17279  26.122  16.123   1.393
58184W        W17280   3.412  14.616   1.364
58185W        W17281  18.588  37.567  13.504
58186W        W17282  34.940  32.433  13.439
58187W        W17283  26.515  28.494  12.979
58188W        W17284  14.331  24.208   4.757
58189W        W17285  30.938   4.329  11.926
58190W        W17286  21.019   8.243  12.017
58191W        W17287  30.964  37.844   3.234
58192W        W17288  11.127  33.453  11.492
58193W        W17289  39.989  27.015   0.417
58194W        W17290  34.909   8.397   0.483
58195W        W17291  21.539  39.524  14.803
58196W        W17292   7.907  16.570   2.782
58197W        W17293   8.285   2.238  14.421
58198W        W17294  23.591  43.861  13.411
58199W        W17295  10.240  23.023   5.207
58200W        W17296  10.150  38.515  11.379
58201W        W17297  30.616   5.350   0.959
58202W        W17298  14.227  19.759  11.967
58203W        W17299  11.267   5.746  12.474
58204W        W17300  23.666  39.376   1.338
58205W        W17301   3.780  31.634  12.887
58206W        W17302  20.164  13.623   3.384
58207W        W17303  11.310  43.440   2.714
58208W        W17304  13.796  22.606  11.495
58209W        W17305   6.309  36.915  13.820
58210W        W17306  20.132  11.297   0.816
58211W        W17307  17.142  25.168  10.541
58212W        W17308  40.402  44.775   4.325
58213W        W17309  29.152   3.224  14.930
58214W        W17310  28.659  29.004   4.633
58215W        W17311   7.262  26.033  13.392
58216W        W17312  44.821  20.705   3.353
58217W        W17313  24.592  13.130  12.387
58218W        W17314  35.897  11.628  12.081
58219W        W17315   8.790  24.521  12.907
58220W        W17316  22.123   5.793   3.687
58221W        W17317  26.983   9.683  13.883
58222W        W17318  23.232  36.408  13.857
58223W        W17319  28.472  18.559   4.136
58224W        W17320   6.343   0.383   0.320
58225W        W17321  44.280  20.600  10.016
58226W        W17322   3.944   8.163  14.827
58227W        W17323  39.337  25.159  12.004
58228W        W17324  13.603   3.896  12.866
58229W        W17325   3.274  41.448  11.908
58230W        W17326  10.296  28.008  10.622
58231W        W17327  38.544  28.048  12.526
58232W        W17328  24.063  10.286   2.235
58233W        W17329  44.412   2.348   5.261
58234W        W17330  21.094  12.748   3.384
58235W        W17331  43.821   7.335   2.687
58236W        W17332  28.476  33.598   3.683
58237W        W17333  24.722  10.317   0.337
58238W        W17334   7.734  30.939  10.467
58239W        W17335  38.977  21.564  11.051
58240W        W17336  43.333  14.779   4.260
58241W        W17337  38.073  24.722   3.697
58242W        W17338   1.427  44.778  14.412
58243W        W17339  29.119  14.146   2.319
58244W        W17340  42.778  16.261  12.984
58245W        W17341  19.262  11.622   3.149
58246W        W17342  44.946  10.844   3.240
58247W        W17343  24.631  34.926  10.488
58248W        W17344  23.111  16.165   2.895
58249W        W17345   4.316   8.737   3.320
58250W        W17346  28.958  15.172  14.836
58251W        W17347  11.195  15.109  11.044
58252W        W17348   6.342  30.929   1.240
58253W        W17349   3.761  12.643   2.839
58254W        W17350   5.762  22.691  10.445
58255W        W17351  40.989  13.613   4.293
58256W        W17352  13.263  42.935   1.440
58257W        W17353  10.264   7.701   0.950
58258W        W17354   5.736   5.439  12.518
58259W        W17355   3.456  41.514   3.721
58260W        W17356   6.854   0.365  11.126
58261W        W17357   6.331   0.366   0.936
58262W        W17358  39.347  11.823  13.310
58263W        W17359  35.982  20.575  11.588
58264W        W17360  30.525   2.296  10.607
58265W        W17361   1.788  27.463  14.413
58266W        W17362  42.493   8.815  11.402
58267W        W17363   9.382  24.216  13.384
58268W        W17364  22.997  41.312  13.516
58269W        W17365   2.472  44.986   3.786
58270W        W17366  44.487  22.055  13.453
58271W        W17367  41.381  23.082   4.601
58272W        W17368  21.579  44.393   3.209
58273W        W17369   8.212   4.395  12.048
58274W        W17370  10.768  42.993   1.237
58275W        W17371  29.022  20.032   2.354
58276W        W17372   0.474  28.033  14.362
58277W        W17373  40.307  30.967  13.308
58278W        W17374  29.945  20.097  12.974
58279W        W17375  30.509  16.293   9.608
58280W        W17376  24.002  41.363   4.780
58281W        W17377  27.501  27.459  10.893
58282W        W17378  14.731  22.103   2.725
58283W        W17379  23.996  21.709  14.767
58284W        W17380  19.236   1.453  11.377
58285W        W17381  23.714  43.271  11.083
58286W        W17382  13.300  39.438   3.223
58287W        W17383  32.917  42.520  14.799
58288W        W17384  41.338  23.043   3.785
58289W        W17385   2.334   6.744   0.433
58290W        W17386  21.553  44.406  14.327
58291W        W17387  19.616  21.551   1.733
58292W        W17388   9.296   7.346   5.195
58293W        W17389  11.202  23.695   0.437
58294W        W17390   4.353  44.487  11.095
58295W        W17391   3.784  32.124  10.572
58296W        W17392  34.395  21.054   3.716
58297W        W17393  26.543  35.507  12.047
58298W        W17394  34.079   7.410  13.394
58299W        W17395  20.554  44.910  13.384
58300W        W17396  19.268  42.842  12.033
58301W        W17397   2.442  11.191  11.383
58302W        W17398  30.096  31.007   4.261
58303W        W17399  39.909  11.353   3.860
58304W        W17400   7.686  35.567   4.704
58305W        W17401  29.962  35.388   2.234
58306W        W17402  13.715   4.713  14.781
58307W        W17403  15.157  36.898   2.340
58308W        W17404  19.681   7.260   5.753
58309W        W17405  30.954  38.021  14.964
58310W        W17406  38.346  22.162  13.494
58311W        W17407  17.621  29.045  13.844
58312W        W17408   4.730  27.137   2.849
58313W        W17409  43.401  42.327  10.906
58314W        W17410  34.424  27.000  13.022
58315W        W17411  16.730   9.209   0.474
58316W        W17412   6.297   9.874   2.346
58317W        W17413  21.203  36.033   5.292
58318W        W17414  12.652  26.566   0.763
58319W        W17415  43.999  15.757  11.928
58320W        W17416  16.674  37.871   0.811
58321W        W17417  33.603   9.889   1.818
58322W        W17418  30.000  35.041  11.489
58323W        W17419  42.516  26.649   2.842
58324W        W17420  33.930  37.075  12.015
58325W        W17421  34.590   1.457  10.586
58326W        W17422   6.310   0.932  11.613
58327W        W17423  28.974  25.702  10.641
58328W        W17424  18.680  38.961   5.783
58329W        W17425  19.605  18.060  10.562
58330W        W17426  27.072   3.305  12.486
58331W        W17427  35.106  24.112   1.760
58332W        W17428   3.367  26.625   4.674
58333W        W17429   1.458  32.406  14.896
58334W        W17430  22.561   0.428   4.170
58335W        W17431  43.398  32.886   4.248
58336W        W17432  30.113  36.020  14.794
58337W        W17433   1.792  34.065   3.231
58338W        W17434  32.555  38.480   4.746
58339W        W17435   7.311  43.789  10.969
58340W        W17436  11.751  13.328  14.822
58341W        W17437  34.010  43.404  11.107
58342W        W17438  37.440  14.819   2.273
58343W        W17439  11.742   0.892   4.190
58344W        W17440   7.321  38.449   1.924
58345W        W17441  37.915   8.332  13.390
58346W        W17442  15.652  12.744  10.448
58347W        W17443  22.615   0.923  11.026
58348W        W17444  39.323  19.633  12.938
58349W        W17445  16.309  11.152   3.749
58350W        W17446  30.162  27.106  12.878
58351W        W17447   2.261  44.504  12.869
58352W        W17448  41.837   1.317   3.304
58353W        W17449  22.043  14.108   3.178
58354W        W17450  15.682  42.919   9.987
58355W        W17451  40.385  12.348   2.190
58356W        W17452  20.575   6.724   5.170
58357W        W17453   0.886  18.081   9.934
58358W        W17454  20.617   1.348   3.757
58359W        W17455   5.383  25.108   2.293
58360W        W17456  25.104  17.233   1.771
58361W        W17457  19.720  22.193   1.300
58362W        W17458  22.623  42.300   0.424
58363W        W17459  43.885  14.588   4.771
58364W        W17460   0.471  24.041  13.946
58365W        W17461  39.054  11.747   1.319
58366W        W17462   0.282  27.589   2.397
58367W        W17463  21.521  11.228  13.500
58368W        W17464  38.946  38.467   0.358
58369W        W17465  11.271   9.385   4.221
58370W        W17466  11.281  11.150   4.221
58371W        W17467   3.338  35.917  12.055
58372W        W17468  33.048  18.257  10.941
58373W        W17469  24.218   4.312  10.482
58374W        W17470  31.500   9.273   3.205
58375W        W17471  32.012  38.460   0.859
58376W        W17472  25.688   0.322  11.033
58377W        W17473  42.818   6.260  12.507
58378W        W17474  18.246  19.232   4.240
58379W        W17475  16.272  12.617  14.967
58380W        W17476  17.730  36.050  13.499
58381W        W17477  10.265  24.074  10.520
58382W        W17478  37.500  30.961   4.228
58383W        W17479  15.770  13.747  14.303
58384W        W17480  41.530  43.318   0.272
58385W        W17481  35.089  11.158  14.854
58386W        W17482  27.976  31.638  13.388
58387W        W17483  30.435  13.756  13.438
58388W        W17484  31.564  31.560  10.911
58389W        W17485  12.250  41.485  13.452
58390W        W17486   0.285  36.413   3.695
58391W        W17487  35.381  35.946   3.861
58392W        W17488  38.452   3.781   1.280
58393W        W17489  35.914  12.700   2.903
58394W        W17490  16.287  28.094  12.399
58395W        W17491  15.137  22.137   3.298
58396W        W17492  37.935   2.941   2.415
58397W        W17493  22.162   7.391   1.784
58398W        W17494  35.556  13.682   3.229
58399W        W17495   2.868  36.862  14.327
58400W        W17496  16.620  39.051  13.434
58401W        W17497  13.238   9.686   4.299
58402W        W17498  26.698  11.299  11.914
58403W        W17499  29.113  39.361   3.735
58404W        W17500  13.288  29.938  13.409
58405W        W17501  34.418   3.354  13.341
58406W        W17502  29.053  26.953  12.984
58407W        W17503  33.047  36.884  11.983
58408W        W17504   3.220   2.796  14.898
58409W        W17505  19.615  11.662  12.350
58410W        W17506  42.313  38.404   2.745
58411W        W17507   6.359   6.270   2.697
58412W        W17508   8.677  24.097   3.196
58413W        W17509  35.497  38.333  10.466
58414W        W17510  36.442  28.163   3.759
58415W        W17511  44.384   6.696   4.183
58416W        W17512  35.533  19.040  13.414
58417W        W17513  40.437  14.612  12.863
58418W        W17514  36.025  33.914  12.041
58419W        W17515  22.621   7.819   2.741
58420W        W17516  38.425  17.202  12.580
58421W        W17517  18.567  43.308  11.066
58422W        W17518  41.822  28.074   1.250
58423W        W17519  12.816   8.696  11.008
58424W        W17520  16.122  36.565   0.929
58425W        W17521  18.668  28.579  10.448
58426W        W17522  39.994  34.481  11.589
58427W        W17523  13.344  41.486  13.434
58428W        W17524   0.272   0.353  13.884
58429W        W17525   9.313   6.701  11.410
58430W        W17526  43.939  32.403  11.488
58431W        W17527  27.524  31.575   1.910
58432W        W17528  30.929  25.593  14.299
58433W        W17529  11.768  37.856  10.088
58434W        W17530  18.192  26.208  12.065
58435W        W17531  28.515   6.710   2.729
58436W        W17532  27.500  33.577  11.575
58437W        W17533  17.282   0.879   1.383
58438W        W17534  30.513  37.403  10.144
58439W        W17535  11.799  36.398  13.490
58440W        W17536  20.744  11.666  10.570
58441W        W17537  12.196  15.122   3.805
58442W        W17538  37.075  33.507   3.338
58443W        W17539  23.191   5.898   1.321
58444W        W17540  12.751  28.649   0.930
58445W        W17541  24.541  14.742   3.750
58446W        W17542  17.245  34.907  12.402
58447W        W17543  10.877  27.175  11.407
58448W        W17544  31.134  34.109   1.746
58449W        W17545   6.215  41.916  14.335
58450W        W17546  28.610  20.603   2.825
58451W        W17547   0.468  21.238  11.450
58452W        W17548  18.673  39.004  13.315
58453W        W17549  40.828  34.000  10.962
58454W        W17550  20.179  38.458  10.482
58455W        W17551  44.315  18.154  10.145
58456W        W17552  24.502  30.012  13.969
58457W        W17553   2.860   8.694   1.880
58458W        W17554  20.563  29.557  10.993
58459W        W17555   7.819  14.817   1.444
58460W        W17556  16.222  31.427   4.733
58461W        W17557  37.559  34.439   3.364
58462W        W17558  27.143  30.599  13.858
58463W        W17559  37.932  29.172  10.913
58464W        W17560   4.721  14.154  14.966
58465W        W17561  34.573   2.872   4.236
58466W        W17562  43.788  31.587   0.458
58467W        W17563  43.331  28.090  13.394
58468W        W17564   4.733   1.288  13.831
58469W        W17565  21.531  17.294  14.438
58470W        W17566  19.114  26.617   4.210
58471W        W17567  12.856  39.456   1.375
58472W        W17568  33.917   8.245   2.760
58473W        W17569  24.208  17.684   1.878
58474W        W17570  42.405  30.126   0.966
58475W        W17571  10.744  36.492   0.277
58476W        W17572  36.850  18.119  13.956
58477W        W17573  33.424  13.201  14.313
58478W        W17574   0.893  28.592   1.403
58479W        W17575   3.843  13.794   3.155
58480W        W17576  14.151  11.245   0.811
58481W        W17577  16.132  36.921   1.748
58482W        W17578  21.595  43.504  11.501
58483W        W17579  13.841  44.950  14.494
58484W        W17580  42.851  11.233   0.838
58485W        W17581  19.682  26.472   4.301
58486W        W17582  15.223  15.191  11.429
58487W        W17583  42.380  29.121  11.395
58488W        W17584  38.333  42.918  10.608
58489W        W17585  34.519  37.570  13.861
58490W        W17586  31.151  24.582   2.202
58491W        W17587  32.414  32.136   3.798
58492W        W17588  11.351  39.863  10.898
58493W        W17589   9.277   9.771   1.421
58494W        W17590   1.476   9.797   0.427
58495W        W17591   5.364  15.249  12.089
58496W        W17592  19.075  41.841   3.742
58497W        W17593  39.391  43.279  14.515
58498W        W17594   2.779  10.740   0.341
58499W        W17595  34.559  26.144   1.211
58500W        W17596   3.747  17.651   3.778
58501W        W17597  28.065   2.786   3.790
58502W        W17598  27.541   5.302   3.800
58503W        W17599  15.117  44.259   0.443
58504W        W17600  40.043  41.380  14.345
58505W        W17601  13.176   9.272  13.919
58506W        W17602   3.399  39.827   0.872
58507W        W17603  26.573  43.876  12.830
58508W        W17604   1.382  22.104  12.859
58509W        W17605  39.553   2.782  10.922
58510W        W17606  44.891  30.456  13.955
58511W        W17607  17.667  22.206  11.553
58512W        W17608  10.687  14.185  12.061
58513W        W17609  42.777  42.828   3.363
58514W        W17610  15.808  36.059  13.516
58515W        W17611  36.524  12.617   2.869
58516W        W17612  28.998  42.368  11.575
58517W        W17613  36.531   2.730  13.531
58518W        W17614  20.040  17.780   1.271
58519W        W17615  42.483  35.598  10.485
58520W        W17616  22.059  43.940  13.439
58521W        W17617  15.282  35.106   4.666
58522W        W17618  32.044   8.765  13.930
58523W        W17619  23.528  18.146   2.763
58524W        W17620  40.533  30.483   5.134
58525W        W17621   9.291   5.780  12.978
58526W        W17622   3.456   9.155   2.396
58527W        W17623   2.457  22.673   2.888
58528W        W17624  30.500  30.145  10.466
58529W        W17625   8.828   9.673   1.755
58530W        W17626  11.704  21.160  12.030
58531W        W17627  18.227  42.495   3.860
58532W        W17628  30.974  41.535   9.979
58533W        W17629   8.233  18.282   1.752
58534W        W17630  17.205  42.893  11.926
58535W        W17631  12.627   3.896  10.504
58536W        W17632  43.994   8.378  10.409
58537W        W17633  36.961  30.561   3.807
58538W        W17634  41.538  33.018  11.082
58539W        W17635  20.761  44.920   2.741
58540W        W17636  32.499  40.449  10.533
58541W        W17637  37.953   0.467  13.047
58542W        W17638  24.587  15.311   3.736
58543W        W17639   7.391  20.210   0.248
58544W        W17640  10.699  44.267  14.978
58545W        W17641   8.838   9.333  12.528
58546W        W17642  33.490  27.514  13.951
58547W        W17643  34.375  13.134  11.494
58548W        W17644  41.953  33.456  13.966
58549W        W17645   7.865   9.685   0.306
58550W        W17646  29.091  39.471   0.782
58551W        W17647  13.801  17.287   3.735
58552W        W17648  20.594  11.306  10.413
58553W        W17649  43.970   5.894   3.748
58554W        W17650  25.046  28.498  12.061
58555W        W17651  24.175   1.349   2.311
58556W        W17652  14.121   3.734  10.981
58557W        W17653   5.714  36.387   3.711
58558W        W17654  14.237  21.675  14.861
58559W        W17655  36.571   5.207  14.382
58560W        W17656  17.712   5.897  12.470
58561W        W17657  23.569  36.894   4.215
58562W        W17658  11.238  19.045  13.544
58563W        W17659   8.722   8.236   4.224
58564W        W17660  43.000  13.230   4.821
58565W        W17661  28.510  43.355   3.848
58566W        W17662  11.716  16.679   1.843
58567W        W17663  22.213  26.695  10.954
58568W        W17664  30.912  38.971  12.841
58569W        W17665  17.294   5.269  13.868
58570W        W17666   6.243  19.773  10.524
58571W        W17667  13.330  25.152  12.905
58572W        W17668  44.817  28.186  10.438
58573W        W17669   8.379  13.636  12.577
58574W        W17670  40.313  42.016  12.355
58575W        W17671  22.598  34.059   0.268
58576W        W17672  33.111  39.402  11.421
58577W        W17673  25.078  40.017   2.398
58578W        W17674   9.265   5.220   2.266
58579W        W17675  37.034  28.148  13.803
58580W        W17676  14.790  27.968  12.434
58581W        W17677  43.453  16.722  13.808
58582W        W17678   2.315  21.724   2.734
58583W        W17679  17.753   4.731   4.255
58584W        W17680   6.192   1.744  14.849
58585W        W17681   0.941  43.791   3.184
58586W        W17682  35.032  19.636  10.907
58587W        W17683  12.791  16.314  14.820
58588W        W17684  43.405  37.477  10.044
58589W        W17685  31.612  17.772   4.601
58590W        W17686   3.409  35.539  13.945
58591W        W17687  31.075  41.305   0.399
58592W        W17688  27.962  31.433  12.462
58593W        W17689  34.446   3.775  14.432
58594W        W17690   9.204  44.286  14.353
58595W        W17691  40.543  23.139   2.260
58596W        W17692  43.784  37.365  13.974
58597W        W17693  36.066  20.610  10.982
58598W        W17694  40.494  11.359  10.527
58599W        W17695  31.607  36.871  11.387
58600W        W17696  28.588  18.785  13.538
58601W        W17697   6.789  44.388   2.696
58602W        W17698  11.275  35.587  11.588
58603W        W17699   9.732   5.915  13.323
58604W        W17700  10.642  14.701   2.243
58605W        W17701  37.417  13.788   1.235
58606W        W17702   6.398   1.480   4.271
58607W        W17703   7.685  23.496   1.905
58608W        W17704  42.960   9.649  10.437
58609W        W17705  31.036  13.276  13.963
58610W        W17706  23.018   5.195   3.268
58611W        W17707  15.254  26.982  11.546
58612W        W17708  15.769  17.192  11.934
58613W        W17709  42.434  41.445  11.947
58614W        W17710  27.566  34.112   3.664
58615W        W17711   3.352  43.989  13.385
58616W        W17712  26.582  14.831   5.186
58617W        W17713   3.715  19.533   1.433
58618W        W17714  14.659  30.064   1.699
58619W        W17715   9.691   0.260  13.026
58620W        W17716  28.143  20.175   3.871
58621W        W17717   5.892   0.319   4.604
58622W        W17718   4.411  26.153  13.979
58623W        W17719  15.693  44.479   2.211
58624W        W17720   2.317  38.374   4.660
58625W        W17721  34.957  11.147   3.673
58626W        W17722  15.120  21.256   4.236
58627W        W17723   3.250   4.817  13.387
58628W        W17724  23.602  13.118  14.849
58629W        W17725   7.370  18.211   2.763
58630W        W17726  10.301  41.817   2.737
58631W        W17727  42.297  37.875   2.714
58632W        W17728   1.261  17.062   0.879
58633W        W17729  43.011   8.320  11.860
58634W        W17730  27.960  10.838  12.393
58635W        W17731  17.761   7.291  10.109
58636W        W17732   7.741  40.918  12.049
58637W        W17733  19.200   0.912   0.767
58638W        W17734  32.409  33.037   1.388
58639W        W17735  22.592  19.603  10.633
58640W        W17736   1.275  10.143   4.790
58641W        W17737  15.662   3.824  10.898
58642W        W17738   2.427  26.166   4.160
58643W        W17739  12.357  10.146   1.866
58644W        W17740  16.078  20.522  10.475
58645W        W17741  26.644  39.378   0.961
58646W        W17742  29.933  24.192   1.324
58647W        W17743  36.462  29.520  11.574
58648W        W17744   6.871   8.859  12.453
58649W        W17745  19.646  23.528  14.810
58650W        W17746  43.977  14.643   0.861
58651W        W17747   8.297  31.984  13.838
58652W        W17748  29.003   7.222   4.325
58653W        W17749  33.101  10.199  10.983
58654W        W17750  40.502  44.497   0.265
58655W        W17751  37.469   4.894   4.155
58656W        W17752  42.820  17.290   0.788
58657W        W17753   3.803  30.149  12.968
58658W        W17754  37.066  41.916  11.483
58659W        W17755  15.111   9.318  14.811
58660W        W17756  17.300   4.357   1.229
58661W        W17757   7.370  29.068   1.251
58662W        W17758  31.440  14.279  13.489
58663W        W17759  32.618   8.385   3.344
58664W        W17760   6.919   6.229  12.424
58665W        W17761  10.348  43.499   2.349
58666W        W17762  10.185  16.307  14.784
58667W        W17763  39.379  40.820   4.121
58668W        W17764  13.833  37.878   3.160
58669W        W17765  13.160   3.852   2.833
58670W        W17766  16.804  11.337  14.442
58671W        W17767  28.050  10.870  11.000
58672W        W17768  10.740  12.743   2.741
58673W        W17769  19.181  13.718  10.444
58674W        W17770  18.205   9.248  13.900
58675W        W17771  34.053  22.999   1.248
58676W        W17772  43.496  20.147   3.758
58677W        W17773  27.676  28.002   3.289
58678W        W17774  10.139   7.686   4.663
58679W        W17775  19.074  44.279  10.546
58680W        W17776  40.346  32.434  11.856
58681W        W17777   4.215  30.416   4.600
58682W        W17778   8.366  12.211   0.820
58683W        W17779  28.603  14.598   2.359
58684W        W17780  37.344  33.915  13.510
58685W        W17781  11.227  34.572   4.158
58686W        W17782  40.336  18.663  12.066
58687W        W17783  43.335  15.247  10.559
58688W        W17784  17.603   9.830  11.434
58689W        W17785  43.400  44.831  12.846
58690W        W17786  16.291   5.699  11.428
58691W        W17787  25.214  35.854  13.892
58692W        W17788  29.960  30.958   2.213
58693W        W17789  13.208  25.662  13.904
58694W        W17790  37.568  17.717  10.619
58695W        W17791  36.066  39.503  13.001
58696W        W17792  43.292  22.161   4.801
58697W        W17793  29.107  36.380   1.918
58698W        W17794  14.134  37.479   3.377
58699W        W17795   9.751  23.518  13.313
58700W        W17796   4.707  26.495  13.528
58701W        W17797  40.895  16.633   0.754
58702W        W17798  20.157  34.521  10.021
58703W        W17799  36.433  38.522   4.285
58704W        W17800  39.387  29.580   4.782
58705W        W17801   9.332  35.891   4.801
58706W        W17802  20.069   7.876  13.335
58707W        W17803   6.191  18.568  11.458
58708W        W17804  34.914  35.535  14.885
58709W        W17805   9.794  17.270  13.935
58710W        W17806  19.606  33.420   3.354
58711W        W17807  41.921   9.768   4.608
58712W        W17808  19.201  22.570  12.886
58713W        W17809  28.031  42.837  12.347
58714W        W17810   3.428  29.002   0.755
58715W        W17811  40.363  23.552   5.179
58716W        W17812  42.379   5.728   4.604
58717W        W17813  10.758  26.621   3.270
58718W        W17814  32.448  43.271  10.525
58719W        W17815  18.788  19.176   1.389
58720W        W17816   8.296  10.666  10.924
58721W        W17817  18.653  14.703   0.941
58722W        W17818  39.896  40.394  14.499
58723W        W17819   8.890  29.657  14.991
58724W        W17820  20.091  26.575   1.385
58725W        W17821   9.383   9.739   4.606
58726W        W17822  34.408  19.274   3.347
58727W        W17823   4.729  38.567   1.922
58728W        W17824  25.631  21.144   4.330
58729W        W17825  32.570  37.911  12.489
58730W        W17826  28.679  38.050   1.785
58731W        W17827   4.717  15.293   5.214
58732W        W17828   4.375  20.167  14.320
58733W        W17829  30.955  34.072   2.903
58734W        W17830  22.653   6.365   4.212
58735W        W17831  43.371  10.296  10.406
58736W        W17832  15.229  19.196  14.970
58737W        W17833  12.757  28.073   4.682
58738W        W17834  12.767   0.922   4.330
58739W        W17835  21.124  42.787   5.139
58740W        W17836  36.045  35.857  11.978
58741W        W17837  16.584  37.433  12.498
58742W        W17838  43.317   2.964  11.493
58743W        W17839  39.475  33.491   1.830
58744W        W17840  29.662  41.472  10.155
58745W        W17841  27.513  41.870  14.974
58746W        W17842  40.967  24.645  14.363
58747W        W17843  44.465   8.838  13.445
58748W        W17844   9.339   6.292  11.606
58749W        W17845  27.573  25.043  11.541
58750W        W17846   2.387  27.179   3.324
58751W        W17847  24.706  22.142  14.353
58752W        W17848   9.823  41.434   3.671
58753W        W17849   8.780  28.156   0.283
58754W        W17850  34.105  22.104  11.899
58755W        W17851  14.824  38.884  14.856
58756W        W17852  31.606  19.615   3.638
58757W        W17853   2.855  38.460   3.377
58758W        W17854  21.718  33.917  13.387
58759W        W17855  10.200   1.323  12.497
58760W        W17856  24.163   9.735   1.236
58761W        W17857  39.883  33.418  12.982
58762W        W17858   3.245  25.548  14.398
58763W        W17859   3.867   5.366  13.504
58764W        W17860   3.744   9.760   2.823
58765W        W17861  43.390  20.269   0.790
58766W        W17862  39.029  37.854  11.940
58767W        W17863  36.075   0.872   3.256
58768W        W17864   0.458  11.832  13.407
58769W        W17865  43.496  23.153   0.258
58770W        W17866  34.987  19.266  11.610
58771W        W17867   2.807   4.768  14.007
58772W        W17868  30.476  22.118  13.059
58773W        W17869  34.457  13.336  10.096
58774W        W17870  10.736  42.505   0.741
58775W        W17871  16.752   6.708  13.857
58776W        W17872  31.484  40.402  14.447
58777W        W17873  36.946   0.446   0.810
58778W        W17874  14.294  26.122   3.177
58779W        W17875  38.969  41.508  12.507
58780W        W17876  36.369  12.286   3.655
58781W        W17877  17.270   8.755   0.891
58782W        W17878  28.984  19.206   1.795
58783W        W17879  36.992   4.292  13.882
58784W        W17880  26.497  28.077  14.030
58785W        W17881  37.956  32.574  10.469
58786W        W17882  34.485  20.643  13.842
58787W        W17883   5.310  13.221  10.900
58788W        W17884   4.770  16.693  13.498
58789W        W17885  29.034  25.628  12.900
58790W        W17886  37.514   1.902  11.473
58791W        W17887  12.822  33.055  12.541
58792W        W17888  12.755  40.411   1.387
58793W        W17889  22.237   1.881   1.325
58794W        W17890  43.812  42.323   1.305
58795W        W17891  10.275   5.733  10.452
58796W        W17892  22.192  18.736   4.697
58797W        W17893  20.686  30.162  12.913
58798W        W17894  16.587  19.229   2.292
58799W        W17895  37.563   5.738  11.862
58800W        W17896  23.625  32.973   1.396
58801W        W17897  27.185  43.847   3.302
58802W        W17898  28.957  25.523   3.236
58803W        W17899   9.168  39.508   4.644
58804W        W17900   4.890  14.757  11.026
58805W        W17901  16.215  41.297  13.477
58806W        W17902  34.500  35.098  13.983
58807W        W17903  34.472  24.030  14.984
58808W        W17904  36.482  13.121  12.093
58809W        W17905  30.136  40.512   3.359
58810W        W17906  34.090   6.781   4.711
58811W        W17907  18.061  12.356  11.554
58812W        W17908  27.033  35.486   0.800
58813W        W17909  10.734  34.897   1.829
58814W        W17910  30.655  23.656  11.033
58815W        W17911  15.745  18.630  12.070
58816W        W17912   3.868  24.526   0.346
58817W        W17913  24.570   4.806  13.395
58818W        W17914  26.991  10.364  13.923
58819W        W17915  14.306  10.349   4.814
58820W        W17916  25.029  10.225  12.027
58821W        W17917   3.913  14.168  10.939
58822W        W17918  44.465  39.930   4.731
58823W        W17919   5.341   1.841  14.330
58824W        W17920  36.528  43.866   0.426
58825W        W17921  15.186  24.983   3.182
58826W        W17922  19.101  13.646  11.524
58827W        W17923  43.496   9.885  11.976
58828W        W17924   4.706   3.913  14.868
58829W        W17925  17.576  32.508  12.422
58830W        W17926  41.002  10.703  12.855
58831W        W17927   3.304  13.204  12.530
58832W        W17928  41.373  36.431  10.405
58833W        W17929  42.994  42.021   2.778
58834W        W17930   1.863  26.110   1.912
58835W        W17931  31.623  31.546   0.773
58836W        W17932  18.244  13.626  10.893
58837W        W17933  35.372  23.101   1.773
58838W        W17934   7.804  21.039  13.046
58839W        W17935  44.455  24.006  13.888
58840W        W17936  26.677  30.037  12.455
58841W        W17937  43.958  19.274  10.626
58842W        W17938  10.796  42.791   5.276
58843W        W17939  27.966   5.296   0.299
58844W        W17940  16.126  18.242   0.875
58845W        W17941  44.414  27.668  14.324
58846W        W17942  33.581   1.291  13.363
58847W        W17943  13.722   1.438   3.740
58848W        W17944   3.331   3.215   0.295
58849W        W17945   9.198  38.541   3.766
58850W        W17946  36.058  37.884   1.741
58851W        W17947  39.960  36.346   4.666
58852W        W17948   1.456   9.183   1.868
58853W        W17949  32.015  44.289  13.452
58854W        W17950  33.528   9.789   1.227
58855W        W17951  32.041  21.719  11.873
58856W        W17952   3.794  33.885  12.898
58857W        W17953  24.535   4.322   4.693
58858W        W17954  26.483  39.524  12.838
58859W        W17955  10.365  29.976  12.925
58860W        W17956   4.826  29.965   3.772
58861W        W17957  31.126  20.243   0.290
58862W        W17958  38.842  30.123  13.399
58863W        W17959  37.532  18.593   2.276
58864W        W17960  11.688  20.029   1.869
58865W        W17961  28.003  31.633   3.830
58866W        W17962  21.156   5.363   3.252
58867W        W17963  16.240   8.821  11.461
58868W        W17964  43.886  43.980   0.306
58869W        W17965  32.570  29.133   2.896
58870W        W17966  42.308  27.195   3.234
58871W        W17967  15.785   9.661  13.000
58872W        W17968  24.479   8.657  11.893
58873W        W17969  25.478   4.356  12.827
58874W        W17970  28.016  40.910  11.874
58875W        W17971  39.477  31.076  14.864
58876W        W17972  38.455   3.782   3.159
58877W        W17973  42.866  39.518   2.769
58878W        W17974  32.036  33.471   3.775
58879W        W17975  37.533  15.579  12.050
58880W        W17976   2.910  27.948   1.221
58881W        W17977   9.306  42.480  14.405
58882W        W17978  20.159  37.877  11.461
58883W        W17979  36.410   6.249   4.704
58884W        W17980  26.701  36.932   3.309
58885W        W17981  30.440  21.669  11.018
58886W        W17982  11.208  42.865   0.306
58887W        W17983  38.457   9.394  14.352
58888W        W17984  16.804  44.455  11.905
58889W        W17985  41.434  42.822  14.432
58890W        W17986  11.675   6.353   3.736
58891W        W17987  20.105   7.759  13.042
58892W        W17988  18.131   6.242   2.719
58893W        W17989  36.007  12.854   1.745
58894W        W17990  37.839  44.337  10.635
58895W        W17991  18.271  23.231  13.823
58896W        W17992  13.606  15.139   1.787
58897W        W17993   1.395   3.801   2.201
58898W        W17994  15.704  33.880  11.908
58899W        W17995  34.465  31.563  13.471
58900W        W17996  21.125  20.205  12.418
58901W        W17997  29.557  40.839   3.210
58902W        W17998  41.316  40.888  14.365
58903W        W17999   9.285   9.843   3.745
58904W        W18000  12.710  29.920  14.970
58905W        W18001  17.075  41.471   0.804
58906W        W18002  28.090   9.344  10.978
58907W        W18003  31.470  42.357  11.424
58908W        W18004  37.965   4.278  11.121
58909W        W18005  40.903  34.097  14.898
58910W        W18006  20.243  17.627   4.751
58911W        W18007  26.980  25.974   4.793
58912W        W18008  30.139  32.101  13.815
58913W        W18009  41.494   5.235   0.426
58914W        W18010  28.128   5.875  10.912
58915W        W18011   1.891  15.679   0.349
58916W        W18012  15.667  42.425   3.215
58917W        W18013  33.084  13.686  13.477
58918W        W18014   9.685   3.393   4.750
58919W        W18015   0.390  40.898  11.405
58920W        W18016  29.964  22.710   2.337
58921W        W18017  35.004   0.294   4.706
58922W        W18018   8.191   0.254   3.643
58923W        W18019  26.542  42.861   3.711
58924W        W18020  19.691  27.449  12.548
58925W        W18021  34.959   3.747   1.935
58926W        W18022  36.846  25.538  12.043
58927W        W18023  43.511  43.283  14.912
58928W        W18024  20.194  15.700  13.442
58929W        W18025  38.409  32.568  11.521
58930W        W18026  11.342  31.068   1.838
58931W        W18027  10.647   7.758  12.570
58932W        W18028  31.112  27.604   0.729
58933W        W18029   9.295  24.129  11.003
58934W        W18030  24.063  14.233  14.424
58935W        W18031  37.453   4.791  10.607
58936W        W18032  33.005   1.406   0.450
58937W        W18033  43.014  43.990   0.835
58938W        W18034  10.693  43.313   4.339
58939W        W18035  21.715  17.701  12.048
58940W        W18036  43.317  41.441   4.121
58941W        W18037  44.937  42.503   0.906
58942W        W18038   4.921  31.993   4.805
58943W        W18039   0.833   4.282   4.121
58944W        W18040  20.179  18.624   3.306
58945W        W18041  27.494  13.313  13.964
58946W        W18042   0.801  24.104  10.901
58947W        W18043   8.381   5.699   2.671
58948W        W18044   4.241  11.706   0.358
58949W        W18045  40.509  39.942   4.664
58950W        W18046  40.864   7.895  10.989
58951W        W18047  21.554   3.412   3.737
58952W        W18048   7.265  23.637  14.759
58953W        W18049  26.680  20.191  11.127
58954W        W18050  16.260   2.264  10.628
58955W        W18051  33.498  28.118   0.423
58956W        W18052  40.885  17.730   1.742
58957W        W18053   9.737   7.280  13.410
58958W        W18054  32.968  10.814   4.814
58959W        W18055   9.687   3.878   0.830
58960W        W18056  37.349  30.622   2.261
58961W        W18057  22.560  16.108  12.415
58962W        W18058  29.979   1.369  14.925
58963W        W18059  36.026  43.473  10.923
58964W        W18060  36.406  32.544  13.854
58965W        W18061  41.483  14.314   3.348
58966W        W18062   5.705  34.444   1.850
58967W        W18063  44.957  35.043  14.482
58968W        W18064   8.192  38.379  11.064
58969W        W18065  10.768  26.675  11.964
58970W        W18066   6.205   0.791  14.831
58971W        W18067  22.632  32.036   3.278
58972W        W18068  19.074  37.454   1.864
58973W        W18069  38.536   0.482  13.051
58974W        W18070  16.215  24.149   2.811
58975W        W18071  29.111  30.012  12.556
58976W        W18072  17.199  29.079  14.434
58977W        W18073  41.021  28.101   4.639
58978W        W18074   4.240  30.417   4.293
58979W        W18075  20.599  24.537  11.861
58980W        W18076  26.099  24.154   4.240
58981W        W18077   5.204  40.417   4.235
58982W        W18078  21.074   4.419  13.882
58983W        W18079  31.062  13.828  14.502
58984W        W18080   2.253  29.099   9.941
58985W        W18081  21.128  26.042   3.687
58986W        W18082  36.518  21.621   1.369
58987W        W18083   6.898   4.343   2.813
58988W        W18084   8.300  25.172   3.852
58989W        W18085  16.604  32.534   0.763
58990W        W18086   0.319  24.635  12.825
58991W        W18087   4.852  34.611  11.874
58992W        W18088  28.042  16.139  12.379
58993W        W18089  15.271  40.545   3.751
58994W        W18090   5.701   5.336  11.077
58995W        W18091  17.209  17.209   0.867
58996W        W18092   0.890   5.843   1.366
58997W        W18093  25.010  26.983  13.397
58998W        W18094  21.257   2.936   3.322
58999W        W18095  40.489  24.535  13.847
59000W        W18096  19.602  13.193   4.750
59001W        W18097  30.946   3.947   0.776
59002W        W18098  42.288  36.352  10.889
59003W        W18099   1.820  29.496  12.870
59004W        W18100   5.801   9.189   3.823
59005W        W18101  31.939  29.525  14.352
59006W        W18102  31.615  36.921   1.799
59007W        W18103   5.881  20.034  13.031
59008W        W18104   4.886  27.598   3.288
59009W        W18105  41.010   2.937  12.971
59010W        W18106  34.409  20.049  10.626
59011W        W18107  20.043  13.234   1.428
59012W        W18108  13.227  11.238  10.532
59013W        W18109  41.959  30.443  14.813
59014W        W18110  14.294  35.967   0.933
59015W        W18111  23.687   9.696  13.914
59016W        W18112  24.492  25.056  10.419
59017W        W18113   2.785  16.682   1.930
59018W        W18114  18.632  28.568   3.386
59019W        W18115  13.841  12.857   2.240
59020W        W18116  27.968  17.283   4.743
59021W        W18117  14.158  16.735   5.773
59022W        W18118  23.727  10.171  11.998
59023W        W18119   0.759  39.871  14.372
59024W        W18120   3.847   1.755   3.721
59025W        W18121  20.171  15.597  14.934
59026W        W18122   0.794  12.795   2.697
59027W        W18123  42.421  36.021   0.401
59028W        W18124  23.007  38.432  10.462
59029W        W18125   8.829   1.735  10.591
59030W        W18126  43.764  24.575  10.639
59031W        W18127  34.438  10.876  13.811
59032W        W18128  37.847  19.764   2.360
59033W        W18129  28.436   2.361  11.923
59034W        W18130  17.654   8.177   1.265
59035W        W18131  41.410  32.444  11.002
59036W        W18132  24.133  34.519  14.384
59037W        W18133   8.375  18.620  14.441
59038W        W18134  20.228   1.943  13.047
59039W        W18135  32.061  30.114  11.588
59040W        W18136  30.019   5.268  13.055
59041W        W18137  38.877  38.923  12.531
59042W        W18138   3.728  32.061   0.368
59043W        W18139  15.327  27.151   0.361
59044W        W18140  13.199  35.543  13.007
59045W        W18141  44.972  41.932   0.931
59046W        W18142  41.484  44.758   4.776
59047W        W18143  22.166  19.593  12.932
59048W        W18144  19.108  33.930  14.002
59049W        W18145  37.398  21.703   4.134
59050W        W18146  11.759   1.864  14.317
59051W        W18147   4.787  29.067   3.358
59052W        W18148   0.484  12.214   4.750
59053W        W18149  39.923  10.751   0.443
59054W        W18150   7.778   2.814   0.419
59055W        W18151  40.010  15.796  14.887
59056W        W18152   9.661   7.815  13.446
59057W        W18153   5.884  22.212  11.571
59058W        W18154   7.758  22.031   2.250
59059W        W18155  13.315  22.127   2.820
59060W        W18156   4.444  29.026   3.317
59061W        W18157  36.967   8.277  11.608
59062W        W18158   5.872  28.959   0.802
59063W        W18159   1.238  30.521  11.982
59064W        W18160  18.183  21.748  14.887
59065W        W18161   9.849  39.026  10.406
59066W        W18162   7.398  20.033   4.151
59067W        W18163   3.338  33.545  13.794
59068W        W18164  12.140  44.285   3.844
59069W        W18165  31.980  21.153   1.409
59070W        W18166  25.039  32.962  13.054
59071W        W18167  43.331  33.501  10.585
59072W        W18168   0.418   0.966  11.574
59073W        W18169  13.797  28.604  14.408
59074W        W18170   4.714  34.120  12.948
59075W        W18171   9.295   8.843   4.708
59076W        W18172  36.970   6.284   1.777
59077W        W18173  42.398  26.542  10.571
59078W        W18174   0.474  34.572   0.408
59079W        W18175   7.261  22.570  14.837
59080W        W18176  33.885   5.812  13.524
59081W        W18177   1.977  37.581  10.113
59082W        W18178  11.255  36.976   3.818
59083W        W18179  24.480  11.814   4.757
59084W        W18180  43.807  30.970   0.317
59085W        W18181  43.291  31.469  14.837
59086W        W18182   1.453  43.481   3.765
59087W        W18183  16.615  39.431   4.263
59088W        W18184  25.696  32.996   0.314
59089W        W18185  29.080   8.798   1.406
59090W        W18186  18.658  17.715   3.155
59091W        W18187  26.690   7.712   1.884
59092W        W18188  13.625  11.287  12.566
59093W        W18189  44.431  33.530  10.138
59094W        W18190  38.336  14.720   3.381
59095W        W18191  24.098  32.093  14.349
59096W        W18192  40.340   3.934  13.547
59097W        W18193  28.098   7.202  10.589
59098W        W18194  42.987  43.416  14.350
59099W        W18195  12.219  15.265  11.870
59100W        W18196  24.081  21.556   1.450
59101W        W18197  37.948  32.965  11.881
59102W        W18198  34.873  39.011  10.413
59103W        W18199  22.095   2.272  10.421
59104W        W18200  37.078  42.328  12.442
59105W        W18201   0.331  16.765  12.547
59106W        W18202   7.192   5.903   2.188
59107W        W18203   0.448  23.564  14.446
59108W        W18204  29.523  20.127  10.599
59109W        W18205  21.074  18.558   1.270
59110W        W18206  12.795  27.989  12.840
59111W        W18207  31.613   3.947   4.691
59112W        W18208  16.567  23.726   1.762
59113W        W18209  21.130  17.298  13.456
59114W        W18210  29.957   3.388   4.821
59115W        W18211   3.765  28.606   1.222
59116W        W18212   6.687   4.794  11.922
59117W        W18213  44.869   6.880   3.797
59118W        W18214  10.755  34.995   0.389
59119W        W18215   0.470  35.003   2.839
59120W        W18216  26.073  25.057   3.863
59121W        W18217   7.251  39.951   2.304
59122W        W18218  29.668  27.480  14.408
59123W        W18219  11.155  38.842   3.670
59124W        W18220  25.474  15.319  12.909
59125W        W18221  33.624  14.249  10.633
59126W        W18222   2.440  26.971  13.019
59127W        W18223  38.469  30.994   4.603
59128W        W18224  25.079  31.435  13.509
59129W        W18225   3.945   6.288  12.025
59130W        W18226   3.800  23.068   3.340
59131W        W18227  29.574  26.466   2.812
59132W        W18228  36.420  40.457   3.668
59133W        W18229  27.115  15.681   2.822
59134W        W18230  18.095  32.629  12.880
59135W        W18231  18.585  39.892   0.790
59136W        W18232   7.394   0.766   4.663
59137W        W18233  38.967  13.715  11.042
59138W        W18234  21.671  20.713   3.378
59139W        W18235  20.548  21.212  12.497
59140W        W18236  27.183   5.198   2.217
59141W        W18237  44.871  36.011   2.676
59142W        W18238  35.856   4.758   0.242
59143W        W18239   2.470  16.317  11.539
59144W        W18240  34.986  34.594  11.547
59145W        W18241  22.691  21.512   1.931
59146W        W18242   8.880   5.894   1.771
59147W        W18243  37.009  36.852   2.821
59148W        W18244  26.693  40.945   4.704
59149W        W18245  33.100  41.466  14.834
59150W        W18246   4.408   7.189  13.048
59151W        W18247  31.516   0.819  10.620
59152W        W18248  38.912  24.031  12.426
59153W        W18249  39.445  27.188  11.386
59154W        W18250  26.998  25.569   3.831
59155W        W18251  30.008   1.830  13.353
59156W        W18252   8.192  17.151  10.586
59157W        W18253   7.845  28.568  12.055
59158W        W18254  28.452  12.175  11.125
59159W        W18255  17.172  22.605  12.024
59160W        W18256  17.197   9.802  12.849
59161W        W18257   2.878  15.141  13.382
59162W        W18258  12.320  14.821  13.366
59163W        W18259  21.198  13.283  12.915
59164W        W18260   5.427  38.858  10.992
59165W        W18261   1.868  29.174  14.912
59166W        W18262  37.354  14.766   0.484
59167W        W18263  20.064  30.061  12.491
59168W        W18264  35.420  24.169   3.164
59169W        W18265  16.153  40.026  12.064
59170W        W18266   4.745  36.410  12.828
59171W        W18267   6.875  31.484   2.819
59172W        W18268  44.989   4.214  11.546
59173W        W18269  31.597  26.682  11.372
59174W        W18270  22.021   5.709  12.524
59175W        W18271  15.688   0.818   4.790
59176W        W18272  10.383  42.011   3.821
59177W        W18273   2.415  14.203   1.310
59178W        W18274  39.810  23.227  12.373
59179W        W18275   0.835  11.669  10.954
59180W        W18276   1.325   9.285  14.017
59181W        W18277  19.246   6.897  12.406
59182W        W18278   1.864  12.242   2.236
59183W        W18279  38.364  41.461   1.935
59184W        W18280  39.007  40.313   4.730
59185W        W18281  35.551  39.878  11.526
59186W        W18282  35.370  23.622   1.222
59187W        W18283  20.071  38.994   3.767
59188W        W18284  27.060   5.209  12.529
59189W        W18285  28.014  31.022  12.839
59190W        W18286   6.379   1.956   3.772
59191W        W18287  26.473  36.954   0.840
59192W        W18288  26.467  18.550   5.177
59193W        W18289  29.929  43.441   3.630
59194W        W18290  15.167  20.548  14.954
59195W        W18291  17.064  42.961   0.423
59196W        W18292  42.517  36.992   0.383
59197W        W18293   9.299  32.939  12.404
59198W        W18294  43.810  13.655   3.640
59199W        W18295   3.877   7.214  10.901
59200W        W18296  39.814  44.816  14.491
59201W        W18297  14.323  15.138   2.265
59202W        W18298  10.773  25.514   4.769
59203W        W18299  42.283  14.110  10.892
59204W        W18300  19.768  28.046  12.083
59205W        W18301  23.526  30.505  13.049
59206W        W18302  42.460  23.133   4.788
59207W        W18303  20.136  29.036  11.058
59208W        W18304  40.546  14.722  14.318
59209W        W18305  27.170  23.163  12.430
59210W        W18306  16.734   7.326   3.273
59211W        W18307  42.867  36.881   4.710
59212W        W18308  25.051  31.625   1.283
59213W        W18309  24.699  15.262  11.432
59214W        W18310  33.034  13.234   1.225
59215W        W18311  30.953   9.755   1.808
59216W        W18312  34.914   5.830  13.879
59217W        W18313  43.871  12.647   3.798
59218W        W18314  40.968  22.119   1.856
59219W        W18315  10.737  37.550   1.323
59220W        W18316  43.408  40.004   0.956
59221W        W18317  35.933   9.741   2.684
59222W        W18318  32.560   3.772  13.939
59223W        W18319  21.720   1.279  13.847
59224W        W18320  40.834  27.994   4.149
59225W        W18321  19.128   6.317  14.383
59226W        W18322  11.716  34.949   4.186
59227W        W18323  41.910  26.075   3.738
59228W        W18324  29.630  24.217  12.834
59229W        W18325  18.648  21.068   5.176
59230W        W18326  30.145   9.149  14.294
59231W        W18327  35.553  43.363  10.544
59232W        W18328  20.046  42.901   3.326
59233W        W18329   8.774  30.040   2.227
59234W        W18330  27.501  22.018  13.862
59235W        W18331  22.022   1.292  14.887
59236W        W18332  33.930  13.727  11.890
59237W        W18333  32.091  40.926  14.952
59238W        W18334  26.014  15.179   2.332
59239W        W18335  43.370  39.437   4.139
59240W        W18336  24.104  12.813  12.907
59241W        W18337  20.184  41.788  11.410
59242W        W18338  17.713  11.353   2.810
59243W        W18339   7.384  19.641   0.830
59244W        W18340  30.056  13.328   0.346
59245W        W18341   7.710  11.318   1.742
59246W        W18342  38.894  41.950   1.819
59247W        W18343  38.402  17.720   4.776
59248W        W18344  43.481  21.054   0.276
59249W        W18345  35.875  17.719   2.866
59250W        W18346  33.537  33.473   4.327
59251W        W18347  25.575  21.751   5.575
59252W        W18348  13.269  11.223   1.223
59253W        W18349  40.043  27.060   4.145
59254W        W18350  38.964  26.623   2.352
59255W        W18351   3.886  24.151  12.018
59256W        W18352  33.920   3.722  12.909
59257W        W18353  24.179  27.594  10.964
59258W        W18354  38.412  17.557  10.528
59259W        W18355  44.449  24.588  10.617
59260W        W18356  42.422  15.227   4.127
59261W        W18357  27.954   1.862   1.855
59262W        W18358  31.022  42.848   2.284
59263W        W18359  15.238  39.501  13.314
59264W        W18360  39.973   6.213   1.786
59265W        W18361  31.065   3.272   0.757
59266W        W18362  10.640  10.293   4.336
59267W        W18363   1.764  21.704  11.100
59268W        W18364  17.183  19.279   3.845
59269W        W18365  25.207  16.303   1.371
59270W        W18366   0.821  26.096  10.532
59271W        W18367  38.951  20.636   0.282
59272W        W18368  39.418   1.919  13.802
59273W        W18369  23.102   7.733  10.572
59274W        W18370  40.400  40.527  10.448
59275W        W18371  41.902  23.585   2.213
59276W        W18372  37.440   3.449   0.410
59277W        W18373  13.741  10.758  12.013
59278W        W18374  36.456  32.047  14.968
59279W        W18375   8.349   7.836   2.213
59280W        W18376   5.336  17.206  13.827
59281W        W18377  36.880  41.996   3.202
59282W        W18378  24.030   9.692   0.269
59283W        W18379  44.869  24.090  13.341
59284W        W18380  44.477  43.301   3.641
59285W        W18381  37.876  37.491  13.486
59286W        W18382  35.870  42.499   0.440
59287W        W18383  38.901   9.206  11.517
59288W        W18384  34.422  35.493   4.296
59289W        W18385  17.745  20.700  13.825
59290W        W18386  29.953  32.611  12.094
59291W        W18387  38.999  10.692  11.013
59292W        W18388  37.517   1.335  14.453
59293W        W18389  32.437  41.472   2.264
59294W        W18390  27.492  44.372   2.839
59295W        W18391  42.936   3.302  11.907
59296W        W18392  13.700  40.849  12.411
59297W        W18393  17.223   2.225   3.752
59298W        W18394  26.496  15.780   0.824
59299W        W18395   2.731  11.302  14.983
59300W        W18396  19.225  34.919   0.411
59301W        W18397  25.003  16.789   2.275
59302W        W18398  36.012  29.095  13.428
59303W        W18399  25.202  35.947  14.373
59304W        W18400  21.165   8.765   1.410
59305W        W18401  12.123   7.364   1.437
59306W        W18402  27.577  13.609   3.863
59307W        W18403  38.991  16.578   2.674
59308W        W18404  23.639  30.626  11.101
59309W        W18405   1.355  12.175   4.649
59310W        W18406  17.715  40.427   4.659
59311W        W18407   0.251  44.912  11.972
59312W        W18408  19.654   0.970  14.372
59313W        W18409  31.561   5.697  11.112
59314W        W18410   8.700  30.122  12.086
59315W        W18411   2.307  35.542   2.181
59316W        W18412  15.678  10.725   1.775
59317W        W18413  36.919  19.108  11.947
59318W        W18414  11.661   7.810   4.660
59319W        W18415  39.047  21.120  12.931
59320W        W18416  44.970  18.687   1.310
59321W        W18417  12.212  16.267   0.843
59322W        W18418   0.479  22.688   4.604
59323W        W18419  22.575   3.783   4.224
59324W        W18420  12.637  11.799   3.181
59325W        W18421  37.931  39.962  14.795
59326W        W18422  23.107   7.234  14.841
59327W        W18423  41.950  18.635   0.860
59328W        W18424  23.136   3.919   3.647
59329W        W18425  32.140  19.607   2.295
59330W        W18426  29.980   2.406   3.222
59331W        W18427  39.435   3.910   3.285
59332W        W18428  42.987  37.459  12.040
59333W        W18429  40.409  40.303  10.033
59334W        W18430  25.047  14.332  14.916
59335W        W18431  38.828   3.461   5.251
59336W        W18432  24.605   9.876  14.298
59337W        W18433  17.609   6.304  13.356
59338W        W18434  44.460  34.045   1.428
59339W        W18435  29.531  43.402  10.944
59340W        W18436  20.608  20.105   0.370
59341W        W18437   6.375  36.019   0.845
59342W        W18438  41.429   9.327   3.188
59343W        W18439  14.258  15.093  14.370
59344W        W18440  40.986  41.822   0.773
59345W        W18441  34.537  11.175  11.858
59346W        W18442  42.003  26.025  12.929
59347W        W18443  34.919  40.419  14.490
59348W        W18444  35.434  43.803   0.437
59349W        W18445  34.488  43.806   4.198
59350W        W18446  28.487  43.493  13.364
59351W        W18447  11.326  27.667  11.991
59352W        W18448  28.459  36.944  12.044
59353W        W18449  25.498  21.070  12.397
59354W        W18450  35.013  29.962   3.849
59355W        W18451  10.758  15.164  13.934
59356W        W18452   4.419  22.053   2.388
59357W        W18453  29.435  34.944  14.432
59358W        W18454  24.201  17.654   2.346
59359W        W18455   4.429  12.191  13.022
59360W        W18456  40.858  25.168   3.216
59361W        W18457  35.567  19.740   4.137
59362W        W18458  13.206  11.800   2.306
59363W        W18459  20.734  23.087   3.729
59364W        W18460  35.991  40.390  10.412
59365W        W18461  26.459  31.117   3.260
59366W        W18462   1.934  34.401  11.122
59367W        W18463  40.005   3.382  14.802
59368W        W18464  40.534   5.807  14.441
59369W        W18465  21.254  42.478  11.904
59370W        W18466  43.384  37.026   4.154
59371W        W18467  38.043   3.335   0.888
59372W        W18468  11.829  37.847   4.211
59373W        W18469  24.588  35.442   0.897
59374W        W18470   8.762   0.875  11.397
59375W        W18471  28.528  39.363   2.809
59376W        W18472  34.113   3.825   1.821
59377W        W18473  19.108  28.473  14.996
59378W        W18474  43.443  34.501   4.269
59379W        W18475  40.869  39.005   1.270
59380W        W18476  36.975  25.079  13.313
59381W        W18477  37.832  34.420  11.030
59382W        W18478   4.344  21.567  11.378
59383W        W18479  24.577  19.073   3.352
59384W        W18480  40.806  34.966  13.055
59385W        W18481  36.984  28.511   3.835
59386W        W18482  29.135  33.875   2.850
59387W        W18483  29.435   8.822   2.866
59388W        W18484  24.099   9.288   4.783
59389W        W18485  29.944  17.267  12.036
59390W        W18486   5.782  30.979   0.456
59391W        W18487   5.815  35.379   1.713
59392W        W18488  26.100   6.353   3.833
59393W        W18489  21.027  10.223   0.329
59394W        W18490   7.720  21.166  12.359
59395W        W18491  41.967  27.184  12.905
59396W        W18492   0.481  31.513  13.346
59397W        W18493  41.790  14.664  13.513
59398W        W18494  29.140  15.774  10.982
59399W        W18495  33.988   9.832  11.508
59400W        W18496   7.384   5.243   0.889
59401W        W18497  28.483  25.029  13.448
59402W        W18498  19.213  43.320  12.369
59403W        W18499  36.890  38.062   3.163
59404W        W18500  19.083  28.939   4.259
59405W        W18501  16.317  36.451  14.487
59406W        W18502  42.326  21.203   2.344
59407W        W18503   2.763  44.804   0.967
59408W        W18504   0.816  10.678   3.265
59409W        W18505  44.925  41.867   2.775
59410W        W18506  19.048  37.004  12.516
59411W        W18507   8.817  31.986   1.272
59412W        W18508  33.001  14.208  10.965
59413W        W18509  10.246  23.696   1.916
59414W        W18510   7.171  31.630   1.443
59415W        W18511   5.695  11.132   4.720
59416W        W18512  17.710  21.628   0.843
59417W        W18513  20.680  33.505   1.734
59418W        W18514  21.591  14.769  13.950
59419W        W18515  11.363   4.890   4.152
59420W        W18516  36.985  27.654   2.825
59421W        W18517  38.851  27.981   3.317
59422W        W18518  32.105  44.960  12.466
59423W        W18519   9.193  13.319  14.431
59424W        W18520   2.929  23.195   2.195
59425W        W18521  21.685  42.414  14.974
59426W        W18522  33.068  38.967   3.203
59427W        W18523  11.161  24.048   0.952
59428W        W18524  40.315  20.700   2.728
59429W        W18525  32.963  43.380  13.873
59430W        W18526  23.092  23.140   4.229
59431W        W18527   1.473  17.600   1.933
59432W        W18528  24.993   0.441   0.448
59433W        W18529   7.268  25.543  11.556
59434W        W18530  31.923   4.346  12.962
59435W        W18531  20.729   1.463  11.073
59436W        W18532  29.029  23.571   3.317
59437W        W18533   3.236  27.683   0.453
59438W        W18534  11.197  27.512   1.826
59439W        W18535  29.560  33.975  11.538
59440W        W18536  38.387  14.326  11.016
59441W        W18537  14.762  38.562   9.472
59442W        W18538  24.716  22.222  13.503
59443W        W18539  16.277  19.655   1.294
59444W        W18540  26.587   3.839  13.831
59445W        W18541  11.648  25.977   0.276
59446W        W18542   4.240  43.516  12.991
59447W        W18543  11.836  19.183  14.375
59448W        W18544  17.600  15.713  10.523
59449W        W18545   7.719  16.714   1.307
59450W        W18546   7.176  37.860   1.796
59451W        W18547  41.449  37.872  10.580
59452W        W18548  44.343   7.873  10.983
59453W        W18549  22.518  43.780   3.846
59454W        W18550  39.958  31.579   1.808
59455W        W18551  42.399  18.617   4.817
59456W        W18552  24.624  22.736  11.509
59457W        W18553  22.644  16.783   0.444
59458W        W18554  41.350  27.941  13.064
59459W        W18555  26.544   2.734  11.863
59460W        W18556  28.072  20.553   0.965
59461W        W18557  43.993  29.935   4.213
59462W        W18558   1.418   5.283   4.715
59463W        W18559  19.280  21.705  11.927
59464W        W18560  29.001  20.744   2.304
59465W        W18561  31.965  32.012  11.434
59466W        W18562  28.171  39.341   1.896
59467W        W18563  29.079  36.074   3.785
59468W        W18564   6.226   1.961  14.404
59469W        W18565  38.538  38.392   1.868
59470W        W18566  29.575  35.874  14.831
59471W        W18567   7.334  38.871  13.862
59472W        W18568  23.157   4.308  11.460
59473W        W18569  13.320  22.238   4.272
59474W        W18570  29.523   7.702   2.729
59475W        W18571   3.905  43.964  14.808
59476W        W18572  22.208  29.107   1.896
59477W        W18573  32.143   3.956   2.700
59478W        W18574  31.404  40.490   2.191
59479W        W18575  34.472  22.222  14.358
59480W        W18576  32.945  33.903   1.698
59481W        W18577   9.665  30.561  11.429
59482W        W18578  38.476  19.537   1.242
59483W        W18579  23.194  31.578  12.534
59484W        W18580  35.436  37.579  10.433
59485W        W18581  21.620  32.063  13.437
59486W        W18582   6.261   2.399  14.825
59487W        W18583  14.806   0.338   1.358
59488W        W18584  10.174   4.328   3.652
59489W        W18585  11.867  12.745   3.242
59490W        W18586  23.128   0.747   2.385
59491W        W18587   6.794  35.472  10.441
59492W        W18588  14.251  19.630  12.563
59493W        W18589  17.692  30.137  14.962
59494W        W18590  14.147   7.390   0.746
59495W        W18591   0.423  23.529   4.303
59496W        W18592  11.741  21.670  12.427
59497W        W18593  44.000   5.424   1.926
59498W        W18594   8.802  18.743  13.846
59499W        W18595   8.894  21.709   3.160
59500W        W18596  11.819  16.693   9.556
59501W        W18597  27.077  24.075  11.488
59502W        W18598  10.159  44.895  10.912
59503W        W18599  33.012  37.365   1.324
59504W        W18600   4.380  26.026  11.551
59505W        W18601   6.734  33.411   4.115
59506W        W18602  25.117   5.700   1.809
59507W        W18603  28.101   8.799   2.775
59508W        W18604  37.536   4.895  11.874
59509W        W18605  42.487  24.019  14.913
59510W        W18606  13.725  15.758   1.799
59511W        W18607  23.145  28.452  12.051
59512W        W18608   3.792  34.433   1.735
59513W        W18609  35.509   9.649   2.192
59514W        W18610  38.339  11.756   1.237
59515W        W18611  15.617   0.826   0.836
59516W        W18612   5.215  10.320  14.919
59517W        W18613  41.945   9.755  13.466
59518W        W18614  36.538  43.015  10.552
59519W        W18615  42.785   1.408  13.980
59520W        W18616  41.990   0.849   2.811
59521W        W18617   0.787  39.986   0.251
59522W        W18618  27.518   1.257  13.340
59523W        W18619  38.402  24.543  11.501
59524W        W18620  30.626   5.694   2.269
59525W        W18621  36.882   7.401   3.825
59526W        W18622  41.830   0.419   0.256
59527W        W18623  43.390  25.158   1.233
59528W        W18624  28.973  34.879   2.293
59529W        W18625  37.350  12.228  13.406
59530W        W18626   4.935  19.670  14.896
59531W        W18627  40.377   3.291   2.878
59532W        W18628  29.587  14.116  12.881
59533W        W18629  18.576  29.576  14.956
59534W        W18630  23.622  20.117   2.797
59535W        W18631  32.410  40.530   1.239
59536W        W18632  20.168  11.758  13.812
59537W        W18633  36.352  12.728   3.244
59538W        W18634  37.381  27.098  12.828
59539W        W18635   1.928   5.897   3.808
59540W        W18636  23.548  32.976   0.807
59541W        W18637  31.963  43.007   0.822
59542W        W18638  37.994  41.808  13.810
59543W        W18639  17.639   9.235   4.603
59544W        W18640  17.786  41.024  12.843
59545W        W18641  38.393  22.205   0.431
59546W        W18642  26.607  10.368   5.269
59547W        W18643  26.487  16.654  10.088
59548W        W18644  27.003   4.920  12.434
59549W        W18645   3.348  14.827   4.834
59550W        W18646  14.136  40.944  12.344
59551W        W18647  29.576  19.209  12.922
59552W        W18648  34.948  21.638  13.846
59553W        W18649   6.244  42.908   5.185
59554W        W18650  34.055  40.806   0.837
59555W        W18651  19.094  16.087  11.944
59556W        W18652  22.656  25.116   1.747
59557W        W18653   5.381  24.974  14.016
59558W        W18654  23.176   7.230  12.091
59559W        W18655  18.180   5.821  12.038
59560W        W18656  37.834  35.915  12.079
59561W        W18657  31.153  22.995   4.622
59562W        W18658  37.560  30.972   3.212
59563W        W18659   1.401  14.709  14.969
59564W        W18660  13.201  40.972  14.793
59565W        W18661   9.286  13.616  14.344
59566W        W18662  32.533  30.644   4.297
59567W        W18663  39.829  32.428  10.504
59568W        W18664  19.089  30.568   0.368
59569W        W18665  20.681  37.378  12.522
59570W        W18666  43.989   6.342   4.186
59571W        W18667   9.177  25.217  13.428
59572W        W18668   4.828  19.058  11.900
59573W        W18669   4.216   9.320   1.329
59574W        W18670  22.218   3.265   4.774
59575W        W18671   5.721  10.166  11.508
59576W        W18672   3.369  27.478  11.446
59577W        W18673  27.549  26.540  10.937
59578W        W18674   8.813  11.821  14.824
59579W        W18675  12.615  21.231   4.269
59580W        W18676  12.616  12.353   1.808
59581W        W18677  23.163  42.006  11.591
59582W        W18678  10.236  39.951  14.771
59583W        W18679  25.052  20.755   1.791
59584W        W18680  33.916  27.607  10.961
59585W        W18681  43.851   1.296   0.968
59586W        W18682  15.316  13.610  13.998
59587W        W18683   2.763  13.813  14.433
59588W        W18684   4.897  29.093  13.311
59589W        W18685   7.187   6.757  10.496
59590W        W18686  20.115  24.989   0.409
59591W        W18687  39.355  20.656   3.318
59592W        W18688  25.625   0.896   0.352
59593W        W18689  23.152  12.848  12.095
59594W        W18690  36.518  30.092   2.799
59595W        W18691  21.537  43.301  13.926
59596W        W18692  13.308  10.350  13.869
59597W        W18693   8.228  10.271  13.383
59598W        W18694  36.009  32.052  13.903
59599W        W18695  16.084   4.344   2.221
59600W        W18696   6.805  13.134   2.247
59601W        W18697  13.317   9.888  12.453
59602W        W18698  40.805  41.957   1.423
59603W        W18699  23.001  30.551  11.537
59604W        W18700  25.589  32.559   4.637
59605W        W18701  20.195  13.731   4.814
59606W        W18702  29.487  23.040   2.357
59607W        W18703  19.722   0.783  11.969
59608W        W18704   5.783  42.521  12.375
59609W        W18705  34.586  14.140   2.183
59610W        W18706  20.077   7.786   1.364
59611W        W18707   6.843   6.253  13.418
59612W        W18708   9.669  16.748   2.846
59613W        W18709  44.885  38.444   1.861
59614W        W18710  38.526  14.164  13.440
59615W        W18711  14.611  26.544  11.542
59616W        W18712  31.073  43.444  10.590
59617W        W18713   8.806  40.502  11.439
59618W        W18714  22.599  41.793  13.482
59619W        W18715  23.644  37.863  13.997
59620W        W18716  18.774  33.010  11.545
59621W        W18717  25.655   4.863   3.352
59622W        W18718   6.378  35.915  13.454
59623W        W18719  40.839   9.152   9.959
59624W        W18720  41.938  42.793  12.440
59625W        W18721  18.225   4.890   1.414
59626W        W18722  14.639  20.238  12.346
59627W        W18723  14.658  29.978  11.961
59628W        W18724   2.943   6.238   3.294
59629W        W18725  19.699   8.240   9.672
59630W        W18726  20.215  37.455   4.814
59631W        W18727  11.636  42.847  13.798
59632W        W18728  15.143   5.857   4.625
59633W        W18729  40.812   2.967   4.351
59634W        W18730   3.748   6.902   2.370
59635W        W18731  29.147   7.823  10.897
59636W        W18732  15.328   7.260   2.225
59637W        W18733   2.270  42.481  14.444
59638W        W18734  41.311  30.542  14.871
59639W        W18735  36.918  42.473  12.860
59640W        W18736  27.961   3.875   4.790
59641W        W18737   7.768  10.223   1.282
59642W        W18738  12.302  11.147   2.298
59643W        W18739  33.068   8.866   1.845
59644W        W18740   8.866  31.607  12.374
59645W        W18741  41.970  32.612  13.316
59646W        W18742   1.451  16.090   0.474
59647W        W18743  12.662  41.822   2.789
59648W        W18744  35.397  44.310   2.355
59649W        W18745  12.798  37.536  14.482
59650W        W18746  37.540  13.311   0.419
59651W        W18747  21.191  18.698  13.523
59652W        W18748  23.736  13.626   2.344
59653W        W18749  30.560  30.587   1.211
59654W        W18750  31.443  35.107   0.295
59655W        W18751  16.714   6.861   0.360
59656W        W18752  41.994   3.424   4.311
59657W        W18753  43.896  34.932  11.969
59658W        W18754  25.965  42.435  13.430
59659W        W18755  35.964  15.242  12.092
59660W        W18756  19.639  21.595  11.449
59661W        W18757  13.716  28.062  12.496
59662W        W18758   8.192  24.198   0.812
59663W        W18759   2.304  17.638   4.720
59664W        W18760  10.286  31.503  12.068
59665W        W18761   2.848  21.744   1.758
59666W        W18762  11.691   5.346  10.456
59667W        W18763   4.327  10.862  13.487
59668W        W18764  32.071  31.628  14.961
59669W        W18765  21.050   0.255  10.419
59670W        W18766   3.874  34.434  14.514
59671W        W18767  44.354  15.287  12.481
59672W        W18768  24.503  22.692   9.974
59673W        W18769   1.882  35.913   2.313
59674W        W18770   5.692  11.744   0.348
59675W        W18771  23.184   9.808   1.372
59676W        W18772  20.699  11.730  14.305
59677W        W18773   8.256  18.741  13.417
59678W        W18774  34.448  15.151   5.170
59679W        W18775  32.020  23.686  14.356
59680W        W18776  43.823   4.874  13.927
59681W        W18777  28.462  16.732   4.264
59682W        W18778  23.057  41.939   0.242
59683W        W18779  36.958  14.248  14.021
59684W        W18780  27.973  33.472  14.986
59685W        W18781  30.909  22.176   4.209
59686W        W18782   2.392  28.506  12.438
59687W        W18783  16.118   3.718   4.349
59688W        W18784  10.340  12.636   3.280
59689W        W18785   9.370  41.438  11.924
59690W        W18786  39.060  24.506   0.403
59691W        W18787  41.888  28.946  10.922
59692W        W18788  24.658   6.723  10.930
59693W        W18789   3.271  22.736   1.731
59694W        W18790  26.189  34.039   4.649
59695W        W18791   9.666  35.554  12.554
59696W        W18792  30.030  27.951   1.239
59697W        W18793  27.998   2.958  11.124
59698W        W18794   6.212   5.393  13.308
59699W        W18795  17.123  43.313  14.811
59700W        W18796   2.904  42.313  11.943
59701W        W18797   9.383  11.341  14.418
59702W        W18798  34.936  38.009   1.309
59703W        W18799   3.355  37.944  11.577
59704W        W18800  16.098   2.965   0.424
59705W        W18801  37.923  27.054  13.330
59706W        W18802  17.585  22.185   4.343
59707W        W18803  24.535  11.228  14.344
59708W        W18804  36.870  31.060  10.527
59709W        W18805  10.784   5.920  12.988
59710W        W18806  41.530  29.109   0.320
59711W        W18807  17.160  39.538   5.282
59712W        W18808   2.325   0.330   0.880
59713W        W18809  37.556  28.064   4.826
59714W        W18810   6.241  10.703  13.893
59715W        W18811  11.354  39.446  10.985
59716W        W18812  18.636   2.832   0.909
59717W        W18813  44.903  14.288   3.260
59718W        W18814  39.984  21.692  13.863
59719W        W18815  39.366  36.505  13.535
59720W        W18816  27.154   2.955  13.312
59721W        W18817  44.459   7.725   3.767
59722W        W18818  25.614  40.054  13.929
59723W        W18819   1.441   7.224  11.582
59724W        W18820  27.029  27.190   1.750
59725W        W18821   2.263  10.676  13.452
59726W        W18822  22.552  12.822  11.456
59727W        W18823  44.007   4.870  13.336
59728W        W18824   3.328  37.974  13.891
59729W        W18825  24.698  24.719  12.843
59730W        W18826  29.059   6.887   3.833
59731W        W18827  20.564  36.467  13.458
59732W        W18828  42.960  32.022  10.482
59733W        W18829   4.906  18.611  14.779
59734W        W18830  15.738  31.148   1.749
59735W        W18831  10.648  26.525   1.760
59736W        W18832  17.087   8.705   4.229
59737W        W18833  37.911  28.460   3.355
59738W        W18834  12.140  22.669  14.920
59739W        W18835  24.713  16.644  13.966
59740W        W18836  38.944  43.287  14.981
59741W        W18837  28.151  11.338  10.975
59742W        W18838   0.745  29.144   0.395
59743W        W18839  24.535  13.748   1.844
59744W        W18840  34.104   3.308  13.453
59745W        W18841  39.854  24.696  11.096
59746W        W18842  34.483  24.696   3.216
59747W        W18843  11.838   9.821   4.740
59748W        W18844  14.337   5.922   4.317
59749W        W18845  38.959  20.765   1.396
59750W        W18846   1.888  18.686   2.350
59751W        W18847  28.977  12.138  14.386
59752W        W18848  11.337  24.566  11.005
59753W        W18849  29.942  13.276   0.927
59754W        W18850  13.309   9.685  14.011
59755W        W18851   0.303   8.803  14.910
59756W        W18852  18.668  19.763   3.822
59757W        W18853  18.052   8.803  12.371
59758W        W18854   6.360  26.590   5.687
59759W        W18855  28.996  16.138   4.296
59760W        W18856  11.806   1.893  12.444
59761W        W18857  38.042  33.972  13.439
59762W        W18858  20.728  10.289  14.780
59763W        W18859  10.856   5.793  14.916
59764W        W18860  15.636  15.787  13.418
59765W        W18861  39.378  44.298  12.073
59766W        W18862  27.127  38.874   0.753
59767W        W18863  16.082  13.318  13.357
59768W        W18864  16.614   0.446  13.469
59769W        W18865  27.083  10.842  10.438
59770W        W18866  27.191  41.414  12.525
59771W        W18867  12.811  11.642  11.011
59772W        W18868  41.863  33.929  10.447
59773W        W18869  21.678  35.495  13.474
59774W        W18870  10.837  38.937   2.690
59775W        W18871  16.764  28.149   3.720
59776W        W18872   6.864   9.367  11.451
59777W        W18873   7.218  30.042   3.869
59778W        W18874  20.204  37.962  12.511
59779W        W18875  19.694   5.856   5.202
59780W        W18876  25.598  17.579  11.444
59781W        W18877   0.312  20.612   2.845
59782W        W18878  42.414  19.754  12.377
59783W        W18879   5.268  28.500  10.551
59784W        W18880  35.973  41.852   2.406
59785W        W18881   5.741  24.073  12.897
59786W        W18882  39.403  17.222  10.902
59787W        W18883   2.876  26.148  11.117
59788W        W18884  36.099  19.647   1.387
59789W        W18885  44.844  17.095   2.701
59790W        W18886  21.561  41.964   1.321
59791W        W18887  23.634  23.506   4.800
59792W        W18888  44.469  32.403  13.870
59793W        W18889   5.692  14.728   2.212
59794W        W18890  28.595  27.995   1.297
59795W        W18891  38.921  17.245  12.382
59796W        W18892  25.573   1.843   2.840
59797W        W18893   8.868  27.555   3.778
59798W        W18894  14.235  39.945   2.369
59799W        W18895   8.332  44.273  13.824
59800W        W18896  27.494  12.622  10.907
59801W        W18897  10.162  12.797   0.304
59802W        W18898  17.126  27.111  11.478
59803W        W18899  41.941  43.341   1.830
59804W        W18900  10.197  40.378  12.436
59805W        W18901   2.436   6.296   0.765
59806W        W18902  20.192  44.765   1.823
59807W        W18903  29.666  29.553  14.361
59808W        W18904   3.397  41.868   3.845
59809W        W18905  41.815  26.089  14.507
59810W        W18906  34.884  44.944  14.314
59811W        W18907  34.958  33.054  13.969
59812W        W18908   2.936  31.986   1.769
59813W        W18909   9.339  18.084  10.618
59814W        W18910  19.692  44.471   3.232
59815W        W18911  36.013  26.540  13.432
59816W        W18912  43.323  16.167   2.708
59817W        W18913  43.404   7.202   3.345
59818W        W18914  29.543  41.816  11.955
59819W        W18915  37.525  15.319   2.301
59820W        W18916  27.126  34.887  12.489
59821W        W18917   3.810   5.260  13.916
59822W        W18918  18.662  21.056  13.849
59823W        W18919   0.793  40.928  12.359
59824W        W18920  39.540  31.483   0.375
59825W        W18921  32.015  11.828  12.861
59826W        W18922  42.353  20.090   2.879
59827W        W18923  28.130  33.971   0.817
59828W        W18924  41.516  35.386   2.359
59829W        W18925   7.724  24.096  14.509
59830W        W18926  18.145  13.845   2.818
59831W        W18927  37.419  29.512   1.800
59832W        W18928  25.677  28.641  14.395
59833W        W18929  29.963  38.536   1.291
59834W        W18930  18.117  43.995  11.917
59835W        W18931  34.538  32.128  11.457
59836W        W18932   8.182  28.091   2.755
59837W        W18933  22.587  25.986  12.494
59838W        W18934  43.449   3.241   1.709
59839W        W18935  40.342  16.621  14.886
59840W        W18936  13.211  39.353   1.695
59841W        W18937  41.877  41.518   3.794
59842W        W18938  38.860  43.888   2.219
59843W        W18939  24.188  31.998  12.444
59844W        W18940  32.523  35.027  12.415
59845W        W18941   9.661  33.914  12.405
59846W        W18942  40.863  26.981   1.762
59847W        W18943  30.481  41.355  10.487
59848W        W18944  27.576   0.917  13.883
59849W        W18945  20.086  12.244  12.845
59850W        W18946  21.562  41.827  10.444
59851W        W18947  28.648  20.201  13.500
59852W        W18948  14.131  21.586   4.677
59853W        W18949  43.395  43.782  10.990
59854W        W18950  37.864   5.740  12.543
59855W        W18951  19.603   2.238   4.799
59856W        W18952  16.676  20.077   0.921
59857W        W18953   4.698  43.438   2.854
59858W        W18954  25.542  26.489  13.507
59859W        W18955  40.823   0.427  11.072
59860W        W18956  40.466  19.727  14.772
59861W        W18957  17.301  26.959  12.023
59862W        W18958  30.450  29.644  13.423
59863W        W18959  23.523  39.478   0.309
59864W        W18960  27.559   6.243  13.963
59865W        W18961  17.645  29.977  10.476
59866W        W18962  43.790  17.304  11.594
59867W        W18963  26.148  44.904   1.833
59868W        W18964  14.144  20.135  14.382
59869W        W18965  37.463  39.536   2.685
59870W        W18966   8.722   1.902   4.728
59871W        W18967  10.634  38.000  12.847
59872W        W18968  30.979  32.112   0.903
59873W        W18969  32.964  12.732   5.187
59874W        W18970  38.349  40.363  10.916
59875W        W18971   4.259  34.036   2.375
59876W        W18972  19.117  40.389   2.227
59877W        W18973  33.490   3.324   3.783
59878W        W18974  20.037  43.910  12.379
59879W        W18975  19.632  18.691   0.412
59880W        W18976  10.756   7.191   4.291
59881W        W18977  41.877   1.886   9.936
59882W        W18978  26.675  15.761  12.060
59883W        W18979   9.293  35.869  13.023
59884W        W18980  39.044  21.199   5.225
59885W        W18981   8.321  43.353   0.353
59886W        W18982  15.123   3.298  14.297
59887W        W18983  44.768  29.050   0.472
59888W        W18984  35.507  25.479   3.638
59889W        W18985  20.135  21.705   3.335
59890W        W18986  23.514  17.220   4.732
59891W        W18987  44.823  30.086  14.948
59892W        W18988  38.855  10.827   0.848
59893W        W18989   9.153  25.673  10.530
59894W        W18990  11.207  29.625  12.548
59895W        W18991  42.326   3.454  10.929
59896W        W18992  21.533   8.301  12.077
59897W        W18993  33.419  32.948  14.942
59898W        W18994  18.191  24.996   4.837
59899W        W18995  26.007  25.045   1.242
59900W        W18996  28.048  34.425  13.487
59901W        W18997   6.237  24.176  13.891
59902W        W18998   2.348  24.550  13.449
59903W        W18999  28.568   7.240  13.913
59904W        W19000  18.635  41.340  10.145
59905W        W19001  29.446  11.339   2.294
59906W        W19002   8.814  27.520  14.774
59907W        W19003  24.140  37.001  13.885
59908W        W19004  44.920  11.802  12.346
59909W        W19005  26.962  18.772   3.745
59910W        W19006  12.266  17.095   3.329
59911W        W19007   2.936  38.001   3.380
59912W        W19008  20.257  17.107   2.708
59913W        W19009  31.586  43.431  10.622
59914W        W19010  36.989  13.760   4.303
59915W        W19011  14.636  43.844   4.274
59916W        W19012  29.490   6.839  12.023
59917W        W19013  19.598  18.715  14.951
59918W        W19014  10.818   0.308  12.872
59919W        W19015   0.348   3.440   3.225
59920W        W19016  43.898  40.014   4.234
59921W        W19017  19.737   0.363   4.797
59922W        W19018  14.808  11.830   4.336
59923W        W19019  31.646  14.755  11.425
59924W        W19020  43.848  31.958  12.859
59925W        W19021   2.793   3.334  11.058
59926W        W19022  33.078  17.212   2.402
59927W        W19023  42.803   7.339   2.775
59928W        W19024   0.248  27.052  12.989
59929W        W19025  16.291  37.415   1.841
59930W        W19026  28.967  10.237  11.595
59931W        W19027  25.132   6.917  10.429
59932W        W19028   8.270  19.213   4.307
59933W        W19029  37.384  22.169   2.199
59934W        W19030   9.719  42.024  11.968
59935W        W19031  21.194  30.466   1.710
59936W        W19032  43.270  19.270   0.771
59937W        W19033  35.436   8.392   0.467
59938W        W19034   5.877  29.664  13.804
59939W        W19035  14.692  30.439   3.738
59940W        W19036  11.252  41.443   4.602
59941W        W19037  36.036  23.234  10.464
59942W        W19038   6.875  36.045   3.248
59943W        W19039   6.814  28.024   4.702
59944W        W19040  32.037  17.068  12.537
59945W        W19041  20.102  33.552  11.498
59946W        W19042   4.904  15.735   4.793
59947W        W19043  31.049   8.399  14.359
59948W        W19044  41.536   2.891   0.330
59949W        W19045   4.900  35.921   5.302
59950W        W19046  32.967   6.294  14.030
59951W        W19047  40.464   7.201  12.554
59952W        W19048  25.197   2.383   4.648
59953W        W19049  22.224  35.442   1.365
59954W        W19050  30.937  21.041  13.365
59955W        W19051  43.903  39.433   3.695
59956W        W19052  40.376   9.180   2.186
59957W        W19053   9.346   8.206   4.347
59958W        W19054   3.431   9.328  10.524
59959W        W19055  14.272   4.437  10.090
59960W        W19056   6.746  34.046   3.838
59961W        W19057   1.834  40.797  11.479
59962W        W19058  26.153  24.541   4.733
59963W        W19059  37.921  44.827   1.328
59964W        W19060  24.697  19.084  13.962
59965W        W19061  34.429  29.429  14.514
59966W        W19062   6.368  15.810   0.871
59967W        W19063  31.626  42.434  13.002
59968W        W19064  37.895  22.539   2.402
59969W        W19065   0.492  41.001   0.817
59970W        W19066  30.579  39.491  13.837
59971W        W19067  18.784   8.362  10.060
59972W        W19068   7.259  29.973  10.613
59973W        W19069  13.645  30.559   0.297
59974W        W19070   2.264  28.612   4.720
59975W        W19071  15.658  41.794  11.393
59976W        W19072  29.923   4.790  14.004
59977W        W19073  18.698  15.166  12.496
59978W        W19074  20.143  20.687  12.005
59979W        W19075  11.323  28.592   3.171
59980W        W19076  28.656  24.484   1.379
59981W        W19077   3.322  30.622   0.872
59982W        W19078  39.375   3.831  12.522
59983W        W19079  26.681   8.716   1.339
59984W        W19080  23.062  25.581  14.466
59985W        W19081  33.016  11.309   4.602
59986W        W19082  25.076  27.147  12.877
59987W        W19083   8.304  32.094  14.480
59988W        W19084  31.585  24.985  14.762
59989W        W19085  36.903  30.431  12.064
59990W        W19086  34.889  15.802  12.461
59991W        W19087  25.161  27.048   4.761
59992W        W19088  17.131  42.881  13.491
59993W        W19089  40.927  16.123   0.371
59994W        W19090  38.837  19.133   4.223
59995W        W19091  10.639   3.417  13.914
59996W        W19092   9.301  22.137  11.934
59997W        W19093  13.657   6.285   0.845
59998W        W19094  22.141  37.018  11.904
59999W        W19095  21.026  27.181  12.950
60000W        W19096  23.006  36.518  10.439
60001W        W19097   1.853   7.752   4.705
60002W        W19098   0.456  38.946  14.995
60003W        W19099   6.190   4.450  13.795
60004W        W19100  31.453  24.097   0.276
60005W        W19101  38.874  40.965  11.379
60006W        W19102  35.073  12.174  14.981
60007W        W19103  21.708  17.615   2.676
60008W        W19104  21.151  18.545   3.269
60009W        W19105  44.785  39.444  11.083
60010W        W19106  22.150  24.517  11.093
60011W        W19107  27.148  17.184  11.586
60012W        W19108  16.243   8.164  14.018
60013W        W19109  14.262  32.507   3.734
60014W        W19110   1.824   2.963  13.035
60015W        W19111  39.351  25.060   1.852
60016W        W19112   8.883   3.362   2.306
60017W        W19113  22.714  31.500   1.416
60018W        W19114  19.612  42.947   2.329
60019W        W19115  28.478  16.646  13.928
60020W        W19116  40.504   3.863  11.950
60021W        W19117  41.021  13.253  11.503
60022W        W19118  22.593  33.963   4.710
60023W        W19119  19.625  14.323  12.012
60024W        W19120   3.800  37.086  12.889
60025W        W19121  22.583  17.283  12.823
60026W        W19122  18.181  37.521   0.339
60027W        W19123  31.565  21.144  10.465
60028W        W19124   8.859  19.658  14.001
60029W        W19125  44.420   9.752   5.082
60030W        W19126  43.868  31.039  10.425
60031W        W19127  16.661   2.344   3.171
60032W        W19128  25.605   4.902   3.847
60033W        W19129  21.254   1.782   2.771
60034W        W19130  32.130  27.662  14.398
60035W        W19131   5.889  12.151  11.042
60036W        W19132  37.394  19.754  10.014
60037W        W19133  17.577  37.515  12.038
60038W        W19134   8.322   5.773  12.823
60039W        W19135  31.093  34.958  10.473
60040W        W19136  29.064  43.781  12.452
60041W        W19137   4.211  44.452  10.587
60042W        W19138  15.214  16.253   0.414
60043W        W19139   0.759  17.100  12.431
60044W        W19140  23.024  33.537   4.154
60045W        W19141  19.561  43.981   0.383
60046W        W19142  28.017   3.715  11.040
60047W        W19143  44.887  31.462   4.701
60048W        W19144  34.903   2.404  11.070
60049W        W19145   9.308   3.406  11.023
60050W        W19146  31.074  37.572   5.213
60051W        W19147  11.361  17.294  13.414
60052W        W19148  23.631  39.884   2.726
60053W        W19149  10.783  13.292  11.994
60054W        W19150  36.589  28.935  10.527
60055W        W19151  22.506  43.979  12.382
60056W        W19152   3.267   2.917   0.758
60057W        W19153   4.338  14.303   0.967
60058W        W19154  17.607  29.451  11.433
60059W        W19155  43.439  10.248  12.925
60060W        W19156  29.018  11.721  11.493
60061W        W19157   0.866  44.397   2.379
60062W        W19158  15.684  13.642  12.525
60063W        W19159  25.536  16.636  14.850
60064W        W19160   3.449   7.902   1.866
60065W        W19161  15.590  12.834  14.313
60066W        W19162  22.204   1.367  12.021
60067W        W19163  30.519   1.845  10.573
60068W        W19164  31.083  11.622  11.466
60069W        W19165  11.299  29.146  13.350
60070W        W19166  30.585  42.965  12.421
60071W        W19167  27.592  25.097  13.794
60072W        W19168  13.826  16.081  12.991
60073W        W19169  37.493  14.702  11.897
60074W        W19170  15.814   8.243  12.457
60075W        W19171  21.043  32.532  14.885
60076W        W19172  21.579  44.852   3.825
60077W        W19173  42.888   3.766   5.175
60078W        W19174  34.014  13.614  12.403
60079W        W19175  41.898  16.289  10.497
60080W        W19176  18.134  39.035  12.580
60081W        W19177   4.895  33.106  13.052
60082W        W19178  15.624  20.671   0.368
60083W        W19179   8.696  11.795   2.838
60084W        W19180  42.388  44.892   4.214
60085W        W19181  11.201  18.182   4.334
60086W        W19182  34.582  39.964  12.417
60087W        W19183  14.808  17.142  12.851
60088W        W19184  20.108  23.520   3.763
60089W        W19185  44.259  18.739   3.745
60090W        W19186  32.440  31.075   0.321
60091W        W19187   1.372  22.703   3.208
60092W        W19188   1.317  12.187  11.006
60093W        W19189  25.700  11.164   1.355
60094W        W19190  22.041  39.853   1.715
60095W        W19191  19.074   3.729  10.961
60096W        W19192  28.143  26.649  10.934
60097W        W19193  20.209  32.630  13.371
60098W        W19194  41.957  19.637   4.821
60099W        W19195  41.389   0.254  11.891
60100W        W19196   5.205  28.145   1.727
60101W        W19197  30.436  39.356   0.910
60102W        W19198   0.807  30.424  11.554
60103W        W19199   4.418   9.180  13.016
60104W        W19200  28.030  12.717  10.018
60105W        W19201  24.078  15.608  11.952
60106W        W19202  11.255  25.557  14.781
60107W        W19203  11.843  33.468  10.933
60108W        W19204  40.881   9.237   0.804
60109W        W19205   4.445  15.111  13.405
60110W        W19206  11.164  22.622   2.386
60111W        W19207  19.195   6.356  12.904
60112W        W19208  20.065  26.652  13.314
60113W        W19209   5.275   7.271   3.650
60114W        W19210  36.359  32.557  12.436
60115W        W19211  12.824  10.169  14.383
60116W        W19212  15.320  20.736  14.432
60117W        W19213  21.673   0.351   1.812
60118W        W19214  43.303  11.732  13.333
60119W        W19215  21.126  29.176   4.726
60120W        W19216  43.332   7.836   4.722
60121W        W19217  26.692   3.750   1.291
60122W        W19218   3.395  18.620   0.385
60123W        W19219  12.855  35.947   1.297
60124W        W19220  38.522  23.026   2.344
60125W        W19221   7.897  42.958   3.635
60126W        W19222   1.339  17.146   4.648
60127W        W19223  15.724  27.666   1.354
60128W        W19224  33.407  33.460  10.094
60129W        W19225  31.095  18.717  14.904
60130W        W19226   5.283  18.225  11.011
60131W        W19227  31.976  17.066   3.212
60132W        W19228  34.474   5.295   3.154
60133W        W19229  36.851  20.708  13.393
60134W        W19230  12.661  23.705  10.550
60135W        W19231   9.288  11.857   1.362
60136W        W19232  26.494  33.019  13.901
60137W        W19233  19.245  23.051  13.397
60138W        W19234  15.741   7.414  13.988
60139W        W19235  33.522  37.424  10.979
60140W        W19236   0.347  31.066  14.364
60141W        W19237   1.763  16.266   2.203
60142W        W19238   1.462   3.716  10.538
60143W        W19239  15.759   2.395   3.162
60144W        W19240  13.237  29.574   1.329
60145W        W19241  33.545  12.625   1.330
60146W        W19242  39.937  20.551   3.633
60147W        W19243  35.009  21.599   0.959
60148W        W19244  40.378  26.561  12.928
60149W        W19245   0.307  38.996   2.302
60150W        W19246  32.970  19.621  10.990
60151W        W19247   1.969   3.834  13.052
60152W        W19248  30.599   2.295  11.591
60153W        W19249  25.994  16.241  10.510
60154W        W19250  26.633   7.736   0.832
60155W        W19251  12.269  12.145  11.560
60156W        W19252  13.226   2.765   4.705
60157W        W19253  22.606  41.515   1.898
60158W        W19254  35.063  23.667  10.952
60159W        W19255   4.409  13.642   0.469
60160W        W19256   0.493  31.127   3.822
60161W        W19257  37.445   8.311  10.471
60162W        W19258  32.597   9.384  14.879
60163W        W19259  39.318  31.138   2.663
60164W        W19260  44.844  15.105   4.232
60165W        W19261  29.585   0.939  14.855
60166W        W19262  29.104   0.803  14.979
60167W        W19263  28.464  17.120   2.770
60168W        W19264  16.287   3.759   3.302
60169W        W19265  32.609  42.384   2.837
60170W        W19266  37.979   5.345  13.929
60171W        W19267  22.620  11.176   0.826
60172W        W19268  44.377  30.434   1.425
60173W        W19269  31.032  26.684  13.461
60174W        W19270  31.096  18.184  11.107
60175W        W19271  33.407  39.061  11.999
60176W        W19272  12.334  21.709   4.113
60177W        W19273   5.373   6.899   3.787
60178W        W19274  13.140  12.238  12.556
60179W        W19275  10.770  38.375   3.196
60180W        W19276  25.659  28.952  14.986
60181W        W19277  28.051  27.034  12.918
60182W        W19278  42.293  21.594   0.922
60183W        W19279  11.183  25.541  14.314
60184W        W19280  37.996   7.209  14.982
60185W        W19281  44.315  28.955  14.813
60186W        W19282  34.874   3.905   4.690
60187W        W19283  25.999  25.687   1.421
60188W        W19284  44.777  14.702   4.812
60189W        W19285  34.436   5.415  11.866
60190W        W19286  38.516  19.087  11.031
60191W        W19287  40.338  28.526   1.362
60192W        W19288  38.890  28.565  11.527
60193W        W19289  17.627  39.507   5.268
60194W        W19290  27.491  40.531   0.371
60195W        W19291   3.884  15.814  13.849
60196W        W19292  26.651  43.953   1.348
60197W        W19293  41.362  13.781  14.439
60198W        W19294   4.854  35.069  14.893
60199W        W19295  30.932   7.266   0.955
60200W        W19296  15.754  20.091   2.729
60201W        W19297  25.638  20.203   3.867
60202W        W19298  27.545  40.801   1.733
60203W        W19299   2.417  44.983   0.352
60204W        W19300  36.389  22.182   3.803
60205W        W19301  12.829  12.733  11.488
60206W        W19302  12.703  33.905   5.184
60207W        W19303   2.267  35.443   3.657
60208W        W19304  11.313  44.758  14.766
60209W        W19305  42.374  32.439   1.759
60210W        W19306  43.770  39.052  11.927
60211W        W19307  24.701  33.499  13.994
60212W        W19308  39.994  14.652  11.414
60213W        W19309  43.996  37.898   1.245
60214W        W19310  32.889  18.548   2.662
60215W        W19311  30.446  37.907  12.429
60216W        W19312  42.988  43.828   2.241
60217W        W19313  12.159  14.289   3.823
60218W        W19314  43.283  10.327  13.792
60219W        W19315   7.835  30.950   1.818
60220W        W19316  19.624   4.340   1.258
60221W        W19317  24.210  15.655  13.825
60222W        W19318  38.907  29.958   3.846
60223W        W19319   4.275   2.230   3.163
60224W        W19320   5.423  16.264   4.279
60225W        W19321  24.532  16.183  11.391
60226W        W19322  23.510  12.652  11.524
60227W        W19323  16.258  28.679   1.932
60228W        W19324  29.601   1.801   2.798
60229W        W19325   1.952   3.762   1.837
60230W        W19326  12.710  27.194   3.279
60231W        W19327   2.448  14.165   4.763
60232W        W19328  23.016   5.850  13.026
60233W        W19329   3.905   1.317   0.255
60234W        W19330  14.792  29.017   9.574
60235W        W19331  16.314   0.955   2.876
60236W        W19332  15.580  19.279   1.433
60237W        W19333  33.062   9.690   1.775
60238W        W19334  27.543   5.762  11.965
60239W        W19335  44.322  11.221  14.388
60240W        W19336  18.560   9.200  14.494
60241W        W19337  30.135  28.446   3.171
60242W        W19338  27.647  32.455   4.258
60243W        W19339  39.838   9.194   2.224
60244W        W19340  12.667  42.441   1.449
60245W        W19341  42.302  34.107   4.277
60246W        W19342  25.178  30.096   3.276
60247W        W19343  20.709   5.427  14.970
60248W        W19344   3.416  22.158  14.390
60249W        W19345   1.263  17.612   0.757
60250W        W19346   1.374  38.969  13.413
60251W        W19347  42.778  34.513   2.893
60252W        W19348  40.851   3.391   0.260
60253W        W19349  41.981  42.418   2.820
60254W        W19350  18.729  33.480   0.452
60255W        W19351  13.626  37.872  12.345
60256W        W19352  36.977  28.434  13.057
60257W        W19353   8.290   5.350   4.305
60258W        W19354  12.788  39.828  14.512
60259W        W19355  20.192  30.000  10.466
60260W        W19356   6.784  26.193  14.998
60261W        W19357  10.734  10.691   1.277
60262W        W19358  40.534  41.408   3.821
60263W        W19359  42.859  17.176   4.802
60264W        W19360  23.600  41.034   3.691
60265W        W19361   2.267  35.910   0.874
60266W        W19362  17.645   8.803   2.699
60267W        W19363  42.790   2.423  14.006
60268W        W19364  31.093  23.697   4.654
60269W        W19365  19.753  41.900  13.840
60270W        W19366   5.825  40.965   2.788
60271W        W19367   8.746  23.027  13.422
60272W        W19368  44.800  26.703  14.793
60273W        W19369  11.854  37.496  13.468
60274W        W19370  15.216  21.620   2.762
60275W        W19371  23.000  40.539  13.335
60276W        W19372  23.009   9.655   3.692
60277W        W19373  26.172   4.432  13.817
60278W        W19374  28.020  27.175  10.927
60279W        W19375  37.378  36.588   4.634
60280W        W19376  21.740  30.139   4.198
60281W        W19377  15.780   4.423   0.840
60282W        W19378  38.831  14.633  13.894
60283W        W19379   3.454  28.977  13.926
60284W        W19380  41.430  39.490  11.551
60285W        W19381   9.823   1.365   1.366
60286W        W19382  31.422   0.319   2.670
60287W        W19383  22.997   9.344  12.969
60288W        W19384  20.202  13.313   0.254
60289W        W19385  16.293  37.989   1.861
60290W        W19386   6.338  30.063   1.221
60291W        W19387  29.528  22.229   3.761
60292W        W19388  10.869  28.493  12.519
60293W        W19389  16.631  34.100  11.499
60294W        W19390  17.175   4.716  14.400
60295W        W19391  44.487  24.092   3.270
60296W        W19392  25.600   5.421   0.965
60297W        W19393   8.755  27.184   0.810
60298W        W19394  36.422  30.163   1.262
60299W        W19395  37.550  31.898   2.778
60300W        W19396  25.130  31.493   4.350
60301W        W19397   5.356  34.441  14.866
60302W        W19398  26.055  21.256   2.819
60303W        W19399  15.132  28.159   4.782
60304W        W19400   5.227  31.059  12.428
60305W        W19401   4.424  24.073  12.521
60306W        W19402  10.838   7.387  12.074
60307W        W19403   2.939  19.619   3.770
60308W        W19404  15.107   4.899  12.890
60309W        W19405  36.510  32.974   0.397
60310W        W19406  41.798   5.216  13.858
60311W        W19407   2.956  24.568  10.144
60312W        W19408  14.331   1.443  13.801
60313W        W19409   8.728  15.109   1.919
60314W        W19410  27.029   1.744   0.860
60315W        W19411  29.947  34.009  13.894
60316W        W19412  10.144  36.383  10.997
60317W        W19413  32.494  42.369   2.409
60318W        W19414  31.527  34.074   3.826
60319W        W19415   6.872  41.851  12.096
60320W        W19416   9.744  39.036  13.878
60321W        W19417  31.018  16.187  10.497
60322W        W19418  43.488  17.281  14.415
60323W        W19419  11.748   4.768  11.971
60324W        W19420  10.261  26.508   0.967
60325W        W19421  18.560  38.066   2.841
60326W        W19422  21.058  41.863   2.807
60327W        W19423  12.180  30.043   2.828
60328W        W19424   2.874  26.693  14.456
60329W        W19425  12.122  38.335  10.898
60330W        W19426  31.037  16.587   2.828
60331W        W19427  26.041  18.592  13.543
60332W        W19428  24.601   7.311   2.750
60333W        W19429  14.648   9.221   1.814
60334W        W19430   6.234  32.941  11.906
60335W        W19431   5.320  32.092  13.518
60336W        W19432   3.785  32.563  13.922
60337W        W19433  18.241   4.205   2.262
60338W        W19434  37.424  10.161   0.408
60339W        W19435  24.541   2.851   3.327
60340W        W19436  41.817  39.853  12.427
60341W        W19437   6.254  23.567  10.595
60342W        W19438  25.143  10.693  11.410
60343W        W19439  32.075  34.933  13.495
60344W        W19440   6.357   7.270  10.901
60345W        W19441  39.487  31.083   0.841
60346W        W19442  30.565  33.897   4.631
60347W        W19443  25.187  12.332   2.290
60348W        W19444  20.693  10.280   5.293
60349W        W19445  20.147  23.188  11.611
60350W        W19446  16.680  40.039  12.442
60351W        W19447  41.025  20.607   1.356
60352W        W19448  37.492   4.858  11.013
60353W        W19449  30.980  26.547   0.851
60354W        W19450  21.678  28.995  10.427
60355W        W19451  25.181   4.284  14.428
60356W        W19452  16.737  33.882  11.078
60357W        W19453  29.925  42.780   0.914
60358W        W19454  38.346  31.939   2.825
60359W        W19455  37.838  21.052   4.154
60360W        W19456  25.105   2.295   5.255
60361W        W19457  15.762  17.113  11.544
60362W        W19458   1.439  13.120  10.417
60363W        W19459  11.843  33.389  13.854
60364W        W19460  38.485  26.085   4.708
60365W        W19461   0.275  10.237  13.871
60366W        W19462  25.687  25.485  12.489
60367W        W19463  36.356  23.183  13.061
60368W        W19464  37.876  26.468  11.499
60369W        W19465  12.762  28.653   4.794
60370W        W19466  24.562  35.886   1.751
60371W        W19467   7.402  32.991  11.572
60372W        W19468  38.067  11.725   0.836
60373W        W19469  14.657  20.754  11.083
60374W        W19470  27.995  29.523  11.114
60375W        W19471  34.092  37.986   3.631
60376W        W19472  16.236   6.812   4.260
60377W        W19473  42.030  18.219  10.553
60378W        W19474  16.243  17.211   0.864
60379W        W19475   5.897  22.227   0.870
60380W        W19476   4.204  25.185  13.420
60381W        W19477  14.266  15.659  13.921
60382W        W19478  31.472  17.608  14.913
60383W        W19479  27.080  32.980   5.803
60384W        W19480  25.988  41.844  11.570
60385W        W19481   7.822   4.240   2.864
60386W        W19482  15.104  44.458   1.892
60387W        W19483  27.465  23.112   4.339
60388W        W19484  12.659  21.207   2.897
60389W        W19485  35.015  17.088  12.548
60390W        W19486  13.230  35.874  12.561
60391W        W19487  14.279  42.007  13.846
60392W        W19488   5.706  35.465  13.476
60393W        W19489   7.705  11.634   0.394
60394W        W19490   4.775  36.568  14.357
60395W        W19491  40.046  16.624   1.427
60396W        W19492  31.534  42.486   2.316
60397W        W19493   4.232  10.168  10.507
60398W        W19494  37.059  44.875   2.900
60399W        W19495  16.626  14.694   0.820
60400W        W19496  24.055  28.061   0.842
60401W        W19497  17.638  15.749  10.058
60402W        W19498  13.673  38.414   4.250
60403W        W19499  34.579  33.486  12.055
60404W        W19500  44.446  27.455   1.433
60405W        W19501  23.596  17.290   2.674
60406W        W19502  40.966  32.461   0.850
60407W        W19503  15.596   9.827   0.848
60408W        W19504  15.625  19.097  13.461
60409W        W19505  38.549   3.751   0.769
60410W        W19506   5.330  25.122  14.447
60411W        W19507  39.385  17.287  14.350
60412W        W19508  43.326  42.327  12.348
60413W        W19509  33.914  11.712  11.493
60414W        W19510   8.840  31.456  14.492
60415W        W19511  16.091   8.326  12.389
60416W        W19512  28.481   2.738   0.855
60417W        W19513  43.433   9.171  14.342
60418W        W19514  23.008  38.993   4.256
60419W        W19515  29.934  21.520  13.032
60420W        W19516   5.249   3.907  10.954
60421W        W19517  26.691  18.585   4.162
60422W        W19518  14.181  15.193   4.122
60423W        W19519   6.191  15.260  10.503
60424W        W19520  39.456  34.418  11.528
60425W        W19521  38.019  14.263   1.843
60426W        W19522  14.247  40.931   0.388
60427W        W19523   2.908   3.398   0.326
60428W        W19524  14.230   2.768   1.373
60429W        W19525  36.922   8.730  12.488
60430W        W19526  22.234   6.758   2.706
60431W        W19527  21.217   0.319   2.292
60432W        W19528  42.946  39.906  11.032
60433W        W19529  14.124  40.984  14.967
60434W        W19530  16.624   4.422  12.537
60435W        W19531   1.769  16.744   2.350
60436W        W19532  39.553  24.073  14.510
60437W        W19533  21.235  15.696   3.725
60438W        W19534  31.517  23.986  13.841
60439W        W19535  19.148  19.134  12.933
60440W        W19536   5.734  32.392  12.030
60441W        W19537   6.424  27.140  12.036
60442W        W19538  27.019  26.572  13.462
60443W        W19539  21.646   0.956   2.367
60444W        W19540   8.306  41.480   2.388
60445W        W19541  12.775  36.916   2.195
60446W        W19542  14.629  24.985  14.426
60447W        W19543  20.220   5.691   5.085
60448W        W19544   7.198  14.174   1.348
60449W        W19545   6.418   4.779   5.200
60450W        W19546  11.621  19.065  12.824
60451W        W19547   5.880  32.635   2.178
60452W        W19548  43.335  12.806   0.287
60453W        W19549   3.274  29.012   3.863
60454W        W19550  31.067  29.096  11.019
60455W        W19551   1.845  35.919   1.297
60456W        W19552  12.662  21.190   4.733
60457W        W19553  43.953  10.867   3.234
60458W        W19554  22.160  42.810   4.220
60459W        W19555  26.612  38.437   1.390
60460W        W19556  22.622  26.487   0.948
60461W        W19557  42.415  19.102   3.848
60462W        W19558  22.071  24.613   2.390
60463W        W19559   6.415  32.096   0.340
60464W        W19560  16.277  20.719  14.784
60465W        W19561   2.785  22.226   4.143
60466W        W19562  13.120  15.746  12.505
60467W        W19563  12.839  23.213  12.988
60468W        W19564  38.885  27.180  10.606
60469W        W19565  13.108  42.281   2.410
60470W        W19566   5.307   5.321   4.336
60471W        W19567   7.371  44.349  13.377
60472W        W19568  40.443  26.547   0.334
60473W        W19569  28.537  34.046   1.352
60474W        W19570  43.409  36.524   4.154
60475W        W19571  44.790  37.055   1.419
60476W        W19572  29.483  20.540  14.782
60477W        W19573  34.531  37.423   0.242
60478W        W19574  41.506  37.889   4.163
60479W        W19575  39.885   5.335  12.490
60480W        W19576  11.862  16.252   4.328
60481W        W19577  31.512  20.575   2.202
60482W        W19578  11.694   8.229   1.363
60483W        W19579  14.634  33.612   4.221
60484W        W19580  37.528  24.703   1.849
60485W        W19581  23.208   2.452   4.649
60486W        W19582  44.460  24.540   4.716
60487W        W19583  31.552  15.183  13.402
60488W        W19584  12.145  38.915   4.311
60489W        W19585  43.459  27.465  14.962
60490W        W19586  14.095  35.087  14.401
60491W        W19587  11.367  40.319   0.412
60492W        W19588  33.071  19.263  13.811
60493W        W19589  12.163  43.285   3.259
60494W        W19590   5.381  40.409   2.221
60495W        W19591  17.662  30.616  13.960
60496W        W19592   7.739  10.863   3.191
60497W        W19593  22.628   2.369  14.792
60498W        W19594  44.299  11.189   2.240
60499W        W19595  10.355  34.869  11.494
60500W        W19596  39.357  22.549   4.242
60501W        W19597  44.767  42.874  10.643
60502W        W19598  26.043  35.401   2.687
60503W        W19599  17.581   2.850  10.530
60504W        W19600  34.004   0.468   0.732
60505W        W19601  14.743  22.234   1.215
60506W        W19602  26.179   8.715   3.269
60507W        W19603  24.124  43.297  13.835
60508W        W19604  23.499  14.724  14.836
60509W        W19605  14.221  42.793   0.378
60510W        W19606  18.078  23.547  12.346
60511W        W19607  12.719  24.206  14.895
60512W        W19608  18.264  43.921  14.009
60513W        W19609   9.845  11.177  14.973
60514W        W19610  42.468  38.499   0.395
60515W        W19611  11.753   4.286   1.873
60516W        W19612  34.475  43.509  10.565
60517W        W19613  18.693   2.937   0.310
60518W        W19614  42.406  17.259  10.919
60519W        W19615  25.548  39.400  12.390
60520W        W19616  32.464  14.787   2.195
60521W        W19617  41.521  39.549   3.213
60522W        W19618  41.331  11.218   3.342
60523W        W19619  42.478  24.622  13.527
60524W        W19620  17.138  16.176   3.268
60525W        W19621  28.655  23.154   0.850
60526W        W19622   9.658  20.203   3.232
60527W        W19623  27.612  33.063  13.433
60528W        W19624  39.856  28.118  14.776
60529W        W19625  28.574  35.853  10.068
60530W        W19626  34.080   5.367  13.981
60531W        W19627  30.098  26.959   2.361
60532W        W19628  28.952  29.642   0.849
60533W        W19629  31.915  28.123   0.417
60534W        W19630   8.339  39.549  14.452
60535W        W19631  33.929   4.812   5.126
60536W        W19632   0.769   8.672  11.056
60537W        W19633  30.939  40.443  14.379
60538W        W19634  40.860  28.039   3.243
60539W        W19635  38.493  17.243   2.356
60540W        W19636  25.629  22.719  12.089
60541W        W19637   3.738  33.479   3.706
60542W        W19638  26.151   4.382   4.167
60543W        W19639  32.563  22.714   5.626
60544W        W19640  24.522  27.494  14.779
60545W        W19641   4.846  40.386  12.916
60546W        W19642  20.234  10.696  13.463
60547W        W19643  40.023   3.375   4.673
60548W        W19644  36.094  14.705  11.114
60549W        W19645   1.397   5.703  12.898
60550W        W19646  26.694  22.516  12.943
60551W        W19647  38.951  32.535  13.892
60552W        W19648  17.277  28.933  11.082
60553W        W19649   7.789  41.511   3.384
60554W        W19650   6.721  10.772  11.090
60555W        W19651  17.659  38.375  11.536
60556W        W19652  10.300  20.721   3.765
60557W        W19653  43.341   9.643   3.199
60558W        W19654  28.959  28.064   3.772
60559W        W19655  23.208  27.106  11.595
60560W        W19656   3.424  25.983   2.750
60561W        W19657  27.083  41.993   3.377
60562W        W19658  41.443  40.374  11.571
60563W        W19659  22.677  43.495   1.717
60564W        W19660  35.422  22.193   4.350
60565W        W19661  24.033  43.819  12.889
60566W        W19662  37.364  44.369  12.394
60567W        W19663  22.519  35.976   9.969
60568W        W19664  44.979   5.751  12.884
60569W        W19665   8.393  29.472   4.159
60570W        W19666   6.234   9.160   0.263
60571W        W19667  22.531  28.143  12.555
60572W        W19668  41.453  10.374   4.682
60573W        W19669   3.915   1.923   2.271
60574W        W19670  10.635  30.617  11.450
60575W        W19671  26.471  11.368   0.334
60576W        W19672  10.357  43.433   1.258
60577W        W19673   8.798  30.908   0.269
60578W        W19674  29.040  31.479  12.062
60579W        W19675  26.642  22.112   5.209
60580W        W19676  34.106  18.117   3.313
60581W        W19677  31.584  27.530  13.503
60582W        W19678  36.950  23.998   3.731
60583W        W19679  17.723  16.128   3.701
60584W        W19680   4.804   6.847   3.330
60585W        W19681  10.837   2.908   2.761
60586W        W19682  26.517  44.769  11.408
60587W        W19683  16.165  36.872  11.566
60588W        W19684  21.159  44.417  12.065
60589W        W19685  30.493  42.030   1.423
60590W        W19686  27.050  44.369  11.383
60591W        W19687  38.841  24.005   1.337
60592W        W19688  35.032  37.064  12.853
60593W        W19689  33.416   7.251   5.241
60594W        W19690  44.802  20.174  13.514
60595W        W19691  18.615  18.616   4.683
60596W        W19692  22.060   0.277  13.028
60597W        W19693  19.266  32.964   1.429
60598W        W19694   5.743  28.669  12.519
60599W        W19695  20.618  12.360   4.761
60600W        W19696  28.540  30.563  12.973
60601W        W19697  27.193  33.412  12.877
60602W        W19698  25.172  39.443   4.668
60603W        W19699  42.920   3.302  13.365
60604W        W19700   5.438  22.558   1.330
60605W        W19701  43.795  38.911   4.266
60606W        W19702  42.941  42.908  13.038
60607W        W19703  43.005   2.884   3.289
60608W        W19704  31.633  39.502  10.988
60609W        W19705  27.495   1.333   4.188
60610W        W19706  37.039  29.009  13.515
60611W        W19707  21.573  43.842   4.197
60612W        W19708   3.447  36.924   4.791
60613W        W19709  44.803   3.844   0.956
60614W        W19710  31.583  11.859  14.446
60615W        W19711   8.280  16.129   2.217
60616W        W19712  15.093  15.812  13.937
60617W        W19713  42.404  19.244  11.480
60618W        W19714  25.636  11.257  14.917
60619W        W19715  14.771  30.034   3.816
60620W        W19716  14.589  24.580  14.947
60621W        W19717  33.466  22.574   1.733
60622W        W19718   6.807  12.127  12.473
60623W        W19719  35.578  37.884   1.446
60624W        W19720  22.716  10.749  13.526
60625W        W19721  17.136  23.137  13.839
60626W        W19722  32.142  40.918   0.320
60627W        W19723  42.525   6.862  13.489
60628W        W19724   1.769  11.758  14.776
60629W        W19725   4.372  23.736   3.311
60630W        W19726  14.175  28.106   4.124
60631W        W19727   3.763  20.660   1.401
60632W        W19728  32.444  23.572   1.719
60633W        W19729  25.691  24.571  14.877
60634W        W19730  16.634  42.949   3.218
60635W        W19731  25.593  40.349   3.705
60636W        W19732   7.315  43.788  14.796
60637W        W19733   3.825  10.699   2.897
60638W        W19734  38.997  29.162  10.531
60639W        W19735  11.278  25.625  11.414
60640W        W19736  35.394  17.138  10.111
60641W        W19737  23.159  38.570   2.402
60642W        W19738  28.604  30.942   1.360
60643W        W19739  13.630   5.894   1.913
60644W        W19740  15.203   0.471  11.870
60645W        W19741   3.764  38.006  12.967
60646W        W19742  14.228  26.596   5.194
60647W        W19743  40.365  40.987  12.988
60648W        W19744   2.435  25.035   2.786
60649W        W19745  34.555  27.992   0.884
60650W        W19746   1.260  38.559   2.248
60651W        W19747  31.912  25.665  12.426
60652W        W19748  39.864  29.499  11.595
60653W        W19749  18.080  28.019  12.526
60654W        W19750  42.806   7.190   4.780
60655W        W19751  21.079  42.911   4.680
60656W        W19752  26.132   2.287   3.282
60657W        W19753  38.440  16.602   4.803
60658W        W19754   5.325  25.218   3.199
60659W        W19755   6.195  12.152  14.312
60660W        W19756  27.949   7.225   3.769
60661W        W19757  27.669  21.633  14.912
60662W        W19758  15.673  44.365   4.823
60663W        W19759  37.419  18.736   0.336
60664W        W19760  28.016  33.070  14.463
60665W        W19761  44.986  31.461  14.279
60666W        W19762  24.147  42.283   2.832
60667W        W19763  36.890  20.272  12.075
60668W        W19764   2.804  25.115  12.986
60669W        W19765  26.182  23.071  10.416
60670W        W19766   1.300  36.869   0.933
60671W        W19767   7.780  35.869  12.505
60672W        W19768  42.324   3.220  14.027
60673W        W19769  17.679  42.776  13.927
60674W        W19770  27.126  40.841   1.930
60675W        W19771  34.115   2.330   3.763
60676W        W19772  24.129  37.399  14.388
60677W        W19773  28.013   9.755   2.411
60678W        W19774  15.215  12.769  12.492
60679W        W19775  16.261  19.552   4.350
60680W        W19776  34.543  42.508  11.457
60681W        W19777  10.297  18.119  11.074
60682W        W19778  29.004  24.693   2.848
60683W        W19779  21.671   5.305   3.373
60684W        W19780  21.203  34.884  13.341
60685W        W19781  36.447  11.241   0.456
60686W        W19782  17.590  22.706  12.924
60687W        W19783  15.323  43.788   0.324
60688W        W19784  13.771  28.932  14.977
60689W        W19785  27.523   4.410  12.564
60690W        W19786  44.935   4.811   0.965
60691W        W19787  40.009   9.356   4.694
60692W        W19788  13.679  28.678  13.362
60693W        W19789  37.072   4.783   1.390
60694W        W19790  37.831   6.313  14.297
60695W        W19791  10.365  44.338   2.374
60696W        W19792  18.641  32.984   1.831
60697W        W19793   9.280  28.083   1.328
60698W        W19794  24.484  44.871   0.952
60699W        W19795  34.964   9.666   9.545
60700W        W19796  41.328   7.323  11.476
60701W        W19797   8.863  16.153   9.992
60702W        W19798  44.834  15.584   3.281
60703W        W19799  35.382  15.622   4.680
60704W        W19800   4.264  14.682   4.138
60705W        W19801  30.506  35.502   4.812
60706W        W19802  38.927  31.572   3.691
60707W        W19803   3.318   5.695   1.394
60708W        W19804  25.090   4.414   2.664
60709W        W19805  19.118  27.964   3.230
60710W        W19806  25.134  17.685   2.304
60711W        W19807  18.683  39.389   4.296
60712W        W19808  21.680  44.464  10.518
60713W        W19809  43.293   8.873   0.776
60714W        W19810  12.349  40.376   2.212
60715W        W19811  23.142  19.710  13.861
60716W        W19812  44.981  12.289  12.547
60717W        W19813  24.101   7.755   1.406
60718W        W19814  22.641  28.106  14.504
60719W        W19815  24.585  32.592   1.885
60720W        W19816  34.426  26.034   2.277
60721W        W19817  24.034   5.878  14.506
60722W        W19818  43.491  17.716   2.792
60723W        W19819  26.526  32.045  14.773
60724W        W19820  37.563   6.236   5.130
60725W        W19821  40.824   4.917   1.835
60726W        W19822  26.575  12.157  11.959
60727W        W19823   7.838  20.269  13.923
60728W        W19824  33.077  19.562  14.953
60729W        W19825  16.242  38.352   0.298
60730W        W19826   1.452  23.046  12.923
60731W        W19827  37.549  34.540  13.460
60732W        W19828  40.336  24.105   2.728
60733W        W19829   0.468  42.884  12.869
60734W        W19830  19.694   4.738  13.917
60735W        W19831   0.827  34.565   4.131
60736W        W19832  40.843  29.114   4.788
60737W        W19833  30.022  17.768   0.276
60738W        W19834  36.072   3.441  13.395
60739W        W19835  25.036  33.507   0.284
60740W        W19836  39.851  36.494   0.830
60741W        W19837  14.187  15.326  12.936
60742W        W19838  15.726   0.438  12.080
60743W        W19839  33.490  35.070   5.203
60744W        W19840  41.876   0.413  10.135
60745W        W19841  28.593   1.440   0.748
60746W        W19842   2.796  10.753  11.910
60747W        W19843  37.420  14.134   2.352
60748W        W19844  24.705  30.947   1.830
60749W        W19845  34.038  33.507  12.391
60750W        W19846  13.347  18.260  12.078
60751W        W19847  26.122  28.152   2.294
60752W        W19848  20.559   1.755  12.551
60753W        W19849  42.848  22.720  11.509
60754W        W19850  26.512  29.058  10.983
60755W        W19851  23.138  34.490   1.375
60756W        W19852  11.825  40.833  13.440
60757W        W19853   2.453   7.172   2.350
60758W        W19854  10.825  23.672  13.881
60759W        W19855  41.818  40.053  10.114
60760W        W19856  34.070  32.402   4.345
60761W        W19857  39.866   3.283  13.523
60762W        W19858  28.183   2.837   1.700
60763W        W19859  16.164   5.354  14.973
60764W        W19860  33.965  37.978   3.369
60765W        W19861  33.942  16.651  13.446
60766W        W19862  17.647  17.590  13.506
60767W        W19863  19.583  25.121   4.299
60768W        W19864   7.724   4.291   1.252
60769W        W19865  31.926   0.481   0.344
60770W        W19866  32.908  11.771  12.490
60771W        W19867  26.461  38.825   0.392
60772W        W19868  15.795  20.267   3.331
60773W        W19869  14.142  35.102   1.308
60774W        W19870  30.520   6.213  11.393
60775W        W19871  43.911  21.111  12.503
60776W        W19872  36.408   2.233   2.178
60777W        W19873  20.575  22.644   3.301
60778W        W19874  27.555  37.573  10.950
60779W        W19875  24.995   6.693   4.114
60780W        W19876  23.083  30.486  13.052
60781W        W19877  38.058  36.035   2.226
60782W        W19878   2.852  44.780  11.600
60783W        W19879  35.436  18.644   4.170
60784W        W19880   3.758   2.359   0.352
60785W        W19881   3.259   0.441  13.546
60786W        W19882  27.945  26.985   4.266
60787W        W19883   6.378  15.613  11.589
60788W        W19884  15.287   2.801  14.759
60789W        W19885  34.518  31.613  12.847
60790W        W19886  17.693   8.662  13.922
60791W        W19887  38.361  27.498   4.744
60792W        W19888  34.535  20.680  12.077
60793W        W19889  41.301  27.649  10.578
60794W        W19890   2.270   0.918  14.795
60795W        W19891  40.932  18.252  12.365
60796W        W19892  27.519  31.089   4.136
60797W        W19893  21.580  44.011  10.523
60798W        W19894  43.920  31.547  11.069
60799W        W19895  36.465  12.271   3.273
60800W        W19896  15.116  25.692  14.472
60801W        W19897  22.612   4.882   2.714
60802W        W19898  32.119   7.803   1.711
60803W        W19899  15.142  36.524   2.875
60804W        W19900  29.481  29.582   5.231
60805W        W19901  18.712  17.560   4.159
60806W        W19902   3.273   9.294   2.803
60807W        W19903  29.007  30.511   0.266
60808W        W19904  35.857   2.879   2.902
60809W        W19905  17.260  23.540  14.834
60810W        W19906  36.439  40.829  10.499
60811W        W19907  19.074  38.053  12.062
60812W        W19908  42.790  18.656  12.966
60813W        W19909  17.207   6.268   2.200
60814W        W19910  27.961  10.691  14.790
60815W        W19911  30.535  28.574   3.815
60816W        W19912   8.225  18.050   2.195
60817W        W19913   8.848  28.472  12.059
60818W        W19914   1.421   1.250   0.784
60819W        W19915  31.512  22.606   3.366
60820W        W19916   2.427  33.988   3.366
60821W        W19917   4.899  39.372  12.971
60822W        W19918  41.983  23.659  10.549
60823W        W19919  30.004  27.638  10.463
60824W        W19920  28.481  21.633   1.380
60825W        W19921  13.793  31.122  13.830
60826W        W19922  20.254   2.923   3.630
60827W        W19923  14.285   4.887   0.287
60828W        W19924  15.627   2.279  13.319
60829W        W19925  34.439  13.320   2.745
60830W        W19926   3.238  44.322   3.640
60831W        W19927  38.488  14.821   2.879
60832W        W19928  31.535   4.253  12.437
60833W        W19929  10.331  34.557  11.386
60834W        W19930   0.287  26.662   4.268
60835W        W19931  16.633  27.611   1.856
60836W        W19932  17.244  18.783   0.289
60837W        W19933  18.753  38.987  13.045
60838W        W19934  44.470  15.648   1.273
60839W        W19935  39.956  29.650   2.259
60840W        W19936  17.621  30.549   2.800
60841W        W19937  35.549  29.481  14.995
60842W        W19938  13.761  29.139  12.843
60843W        W19939  17.102  29.522  12.402
60844W        W19940  39.517  28.108  14.797
60845W        W19941  28.184  32.453  11.536
60846W        W19942  31.451   9.800   2.249
60847W        W19943  10.145  14.742   3.713
60848W        W19944  39.338  18.219   1.927
60849W        W19945  21.518  25.209   2.285
60850W        W19946   4.370  19.742   2.902
60851W        W19947  20.691  30.415  13.375
60852W        W19948  19.639  13.668   3.712
60853W        W19949   9.318  38.049   0.398
60854W        W19950  43.821  24.564   0.480
60855W        W19951   5.361   3.905   4.612
60856W        W19952  18.147  27.522  12.996
60857W        W19953   3.737  31.004   2.706
60858W        W19954  29.540  44.760  13.965
60859W        W19955   8.683   1.472  13.322
60860W        W19956   0.331  13.791   0.885
60861W        W19957  28.042   0.956   9.926
60862W        W19958   1.421  13.344   2.793
60863W        W19959  30.563  22.579  14.851
60864W        W19960  22.646  37.453  10.910
60865W        W19961  25.189   3.225   4.152
60866W        W19962  26.161   4.242   3.760
60867W        W19963  28.521  24.111   3.233
60868W        W19964   8.194  18.743   0.279
60869W        W19965  24.516  24.619  13.499
60870W        W19966  41.330  19.088  12.570
60871W        W19967  43.381  23.518   1.428
60872W        W19968  24.609   8.318   4.636
60873W        W19969  34.900  27.499  13.354
60874W        W19970  28.561  21.637   4.706
60875W        W19971  18.285  41.993   4.765
60876W        W19972  27.649  26.616   2.359
60877W        W19973  44.468  18.126   2.278
60878W        W19974   7.198  33.393  14.511
60879W        W19975  35.011  33.611   5.315
60880W        W19976   2.278  19.240   3.219
60881W        W19977  15.759  43.980  14.815
60882W        W19978  35.502  22.023   3.644
60883W        W19979  27.162  18.695  10.467
60884W        W19980  24.011  13.793   0.463
60885W        W19981  26.054   9.166   4.699
60886W        W19982  18.595  19.104   1.834
60887W        W19983  18.753   5.926   0.263
60888W        W19984  35.049   5.743  10.126
60889W        W19985  24.192   4.928   0.926
60890W        W19986  29.426  44.850   0.920
60891W        W19987  29.940  28.185  10.623
60892W        W19988  24.551  14.617  14.944
60893W        W19989  41.012   4.440   1.850
60894W        W19990   2.260  13.786   0.949
60895W        W19991   7.363  40.816  11.034
60896W        W19992  14.592  29.145  10.407
60897W        W19993  10.649   1.304   4.318
60898W        W19994  34.586  41.806   4.329
60899W        W19995  24.632  41.016  14.297
60900W        W19996  22.591   6.405   2.366
60901W        W19997  24.209  30.659  11.868
60902W        W19998  37.347  32.113   5.205
60903W        W19999   7.294   3.859   2.227
60904W        W20000  39.908  23.986  10.545
60905W        W20001  43.971  30.483   2.667
60906W        W20002  20.270  39.552   2.303
60907W        W20003  14.098   6.850  14.474
60908W        W20004  22.552  35.990   2.184
60909W        W20005  34.952   3.220  13.983
60910W        W20006  14.172  25.050   1.213
60911W        W20007  44.370  40.409  11.558
60912W        W20008  37.978   8.714  14.978
60913W        W20009  42.467  30.631   4.200
60914W        W20010  42.817  36.005   0.404
60915W        W20011  25.148   8.374   3.242
60916W        W20012  21.701  22.109   4.630
60917W        W20013  32.905  29.046  14.017
60918W        W20014  16.746  21.521   0.745
60919W        W20015  15.619   5.198  13.971
60920W        W20016   9.726  24.573   0.823
60921W        W20017   0.434  12.691   1.359
60922W        W20018  43.950  41.528  13.485
60923W        W20019  44.882   8.837   0.371
60924W        W20020  21.075   7.396  13.031
60925W        W20021  32.977  20.170   4.126
60926W        W20022   5.322  23.098   2.358
60927W        W20023  26.526  19.553   3.210
60928W        W20024   0.835   0.265   1.700
60929W        W20025  15.700  21.622  11.907
60930W        W20026  10.198   9.838   3.351
60931W        W20027  38.027  16.584   4.285
60932W        W20028  38.428  21.711   3.156
60933W        W20029  35.929  44.422  11.971
60934W        W20030   3.235  30.012  12.564
60935W        W20031  21.168   3.414   1.435
60936W        W20032   3.402  36.887  10.611
60937W        W20033  41.983  26.206  13.311
60938W        W20034  15.143  35.048  14.000
60939W        W20035  24.211  20.177   3.206
60940W        W20036  14.604   8.693  12.366
60941W        W20037  30.576  39.391   3.807
60942W        W20038  28.177  40.424   3.704
60943W        W20039  30.535  25.489   4.609
60944W        W20040  33.061  16.236  14.933
60945W        W20041  13.620  29.122   0.334
60946W        W20042  35.499   3.224  11.497
60947W        W20043  32.468  20.582   5.715
60948W        W20044  19.748  38.398   2.298
60949W        W20045  18.239   2.758  13.309
60950W        W20046  14.593   9.852  12.426
60951W        W20047  35.533  20.726  12.010
60952W        W20048  19.130  40.827   0.866
60953W        W20049  15.782  20.114   0.962
60954W        W20050  26.988  32.423   4.801
60955W        W20051   7.187   7.883   3.151
60956W        W20052   6.690  18.574   1.278
60957W        W20053  21.736  22.676   2.312
60958W        W20054   5.803  15.283   3.217
60959W        W20055  18.223   2.819  12.944
60960W        W20056  22.736  20.069  11.119
60961W        W20057  19.192  12.706  13.381
60962W        W20058  23.652  11.174   1.721
60963W        W20059  35.083  29.959  12.874
60964W        W20060  42.323  35.075   4.768
60965W        W20061  35.482   7.776   3.159
60966W        W20062  25.685  42.357   2.727
60967W        W20063  35.101  17.787   5.296
60968W        W20064  36.966   3.846   4.749
60969W        W20065  33.120  10.338  10.494
60970W        W20066  15.282   1.884   2.313
60971W        W20067   5.725  36.054  14.346
60972W        W20068  22.539  41.965  11.052
60973W        W20069  12.245   8.870  10.565
60974W        W20070   4.826  25.708  12.560
60975W        W20071   5.743  19.568  11.870
60976W        W20072  30.106  41.882   2.365
60977W        W20073  38.400  20.097   3.694
60978W        W20074  29.059  16.659  12.522
60979W        W20075  20.061  14.817  14.361
60980W        W20076  34.508   0.278  13.004
60981W        W20077  41.821   0.887   3.855
60982W        W20078  26.501  27.138  13.842
60983W        W20079  26.123   8.246  13.329
60984W        W20080   5.932   5.926   1.333
60985W        W20081  22.042  42.930   3.341
60986W        W20082  20.076  30.091  13.974
60987W        W20083  35.900  37.985  14.999
60988W        W20084  44.312  30.572  13.410
60989W        W20085  15.316  31.086   2.364
60990W        W20086  35.015  40.403  12.823
60991W        W20087  13.697  11.847  11.578
60992W        W20088  26.619  41.303  13.940
60993W        W20089   1.881  12.630  11.870
60994W        W20090  16.270  44.381  11.892
60995W        W20091  15.291  24.111  14.019
60996W        W20092  25.670  26.006   3.344
60997W        W20093  35.361  44.505  12.562
60998W        W20094   0.764  27.033  13.854
60999W        W20095  38.001  36.510   4.309
61000W        W20096   7.830  12.831   3.818
61001W        W20097  20.722  35.602  13.986
61002W        W20098  19.710  27.547  14.808
61003W        W20099  24.533   0.382   4.349
61004W        W20100  36.067  37.036   0.295
61005W        W20101  33.058  36.536  12.552
61006W        W20102  36.881   8.388   9.617
61007W        W20103  22.177  24.570   0.460
61008W        W20104  26.684  20.657   5.220
61009W        W20105  18.611  35.378   0.481
61010W        W20106  41.970  44.269   1.819
61011W        W20107  17.685  14.174   3.225
61012W        W20108   5.897  29.944   1.844
61013W        W20109  41.835  18.158  14.282
61014W        W20110  42.875  32.528  10.931
61015W        W20111  44.811  26.472  12.955
61016W        W20112   3.761  44.468  13.874
61017W        W20113  20.551  35.021  12.913
61018W        W20114  17.562  12.762  10.601
61019W        W20115  18.642  27.056   1.228
61020W        W20116  40.316   0.794  13.850
61021W        W20117  40.374  27.463  14.325
61022W        W20118  36.887  27.061   0.790
61023W        W20119  28.573  15.207  10.548
61024W        W20120  31.555   9.673   2.668
61025W        W20121  40.531  17.125  10.130
61026W        W20122   5.775  21.158  13.546
61027W        W20123   7.394   1.812   2.395
61028W        W20124   2.894  34.502  13.364
61029W        W20125  40.419  21.077   1.694
61030W        W20126  31.135  21.207   2.877
61031W        W20127  42.302  39.436  12.074
61032W        W20128   7.800  21.627  12.373
61033W        W20129  14.674  25.063  13.367
61034W        W20130  19.215   6.341  12.485
61035W        W20131  39.481  27.032   4.308
61036W        W20132   5.229  31.985  13.984
61037W        W20133  13.745  32.457  14.506
61038W        W20134  18.074  33.495   1.721
61039W        W20135   8.275  25.473   3.319
61040W        W20136  10.778   6.393   0.794
61041W        W20137   4.448  13.184   2.326
61042W        W20138   1.892  41.432   2.747
61043W        W20139   3.714  18.131  10.437
61044W        W20140   0.826  29.505   4.128
61045W        W20141   4.400   2.309   4.661
61046W        W20142  32.409  14.164   2.402
61047W        W20143  34.545  31.979   1.791
61048W        W20144  36.474  35.946   3.349
61049W        W20145  36.453   3.738  12.426
61050W        W20146   5.354  15.818  14.481
61051W        W20147   0.796  29.994   3.258
61052W        W20148  23.635  26.975   0.852
61053W        W20149  15.119  29.467   0.865
61054W        W20150   2.730  23.690  12.357
61055W        W20151  12.833  21.618  13.338
61056W        W20152  18.611   7.282   0.471
61057W        W20153   1.328  35.921  10.589
61058W        W20154   7.390   8.696   1.304
61059W        W20155  11.765  15.085  13.543
61060W        W20156  20.557   5.429  12.425
61061W        W20157  13.332  38.529  10.419
61062W        W20158  44.840  32.564   3.740
61063W        W20159   4.853  41.349  12.433
61064W        W20160  30.439  30.009   1.729
61065W        W20161  14.213  15.120  12.466
61066W        W20162   6.286   8.184   2.312
61067W        W20163  10.792  43.501  11.988
61068W        W20164   4.810  18.605   4.201
61069W        W20165   4.806   8.881   1.347
61070W        W20166  18.602  20.649   0.905
61071W        W20167   3.763  37.540  13.407
61072W        W20168  41.908   9.326   4.264
61073W        W20169   0.788   1.382  13.050
61074W        W20170  41.956  39.923   1.854
61075W        W20171  36.937   6.909   4.221
61076W        W20172  37.952  28.643  14.306
61077W        W20173  10.341  12.164  10.551
61078W        W20174  35.017  40.330   3.172
61079W        W20175  20.114  25.086  11.039
61080W        W20176  23.526   0.988  11.569
61081W        W20177  41.403  17.287   4.173
61082W        W20178  33.498   5.857  13.939
61083W        W20179  20.652  35.598  11.408
61084W        W20180  23.999  43.775  12.573
61085W        W20181   7.344  29.460  13.343
61086W        W20182  40.975  13.640  13.437
61087W        W20183  31.495  41.456   2.410
61088W        W20184  17.583  39.008   4.215
61089W        W20185  13.315  21.733  14.984
61090W        W20186  15.688  38.865  14.342
61091W        W20187  11.239  12.848  14.368
61092W        W20188  18.294  29.172  13.950
61093W        W20189  12.797  39.948  10.570
61094W        W20190  16.105  32.062  13.054
61095W        W20191  13.187  18.100  10.907
61096W        W20192  36.463   6.910  11.109
61097W        W20193   2.323  37.546  14.032
61098W        W20194  10.261   3.352   3.662
61099W        W20195  33.002  29.014  10.465
61100W        W20196   0.367  41.880   2.210
61101W        W20197  40.949  42.421  14.350
61102W        W20198  37.969  18.566   4.239
61103W        W20199  31.608  44.908   2.327
61104W        W20200   8.375  30.492   4.220
61105W        W20201  12.197  23.642  13.327
61106W        W20202  33.525  28.457   4.323
61107W        W20203  32.046  26.157  12.351
61108W        W20204  36.406  33.559  12.954
61109W        W20205   8.247  41.847   0.343
61110W        W20206   9.157   4.311   3.742
61111W        W20207  17.150  37.417  13.310
61112W        W20208  44.794   3.372  10.005
61113W        W20209  37.434  43.418  12.518
61114W        W20210  40.393   1.291  13.014
61115W        W20211  44.277  25.086   3.856
61116W        W20212   9.212  42.499  14.876
61117W        W20213  10.663  40.540   3.297
61118W        W20214  25.552   8.363   2.775
61119W        W20215   3.353   4.857   2.418
61120W        W20216   9.304  35.979   3.708
61121W        W20217  39.008  29.115   3.266
61122W        W20218  34.450  23.193  11.582
61123W        W20219  23.986   1.792   2.351
61124W        W20220  16.146  21.661   4.612
61125W        W20221  17.198  24.576  12.879
61126W        W20222  31.606  37.541   3.829
61127W        W20223  18.789  37.478   1.389
61128W        W20224  32.608  28.086   4.602
61129W        W20225  18.169   7.881   4.771
61130W        W20226  21.664  24.105  13.851
61131W        W20227  41.382   6.701  12.484
61132W        W20228  31.969   4.325  11.516
61133W        W20229  35.909  20.263  13.803
61134W        W20230   5.401  12.189  14.277
61135W        W20231  42.861  18.161  14.393
61136W        W20232  29.077  26.557  13.310
61137W        W20233  35.063  35.599   2.713
61138W        W20234  36.902   6.690  11.532
61139W        W20235  35.507   4.718   0.429
61140W        W20236  43.845   6.188   1.296
61141W        W20237  38.021   9.250   1.271
61142W        W20238  39.000  32.589   3.676
61143W        W20239  13.787   5.404  11.478
61144W        W20240  21.697  44.853   3.240
61145W        W20241  28.648  36.046   5.290
61146W        W20242  36.097  26.697   0.478
61147W        W20243  42.893  24.685   4.781
61148W        W20244  31.595  10.834   3.766
61149W        W20245  34.917   6.314  10.458
61150W        W20246   2.266  20.127  13.456
61151W        W20247   5.765   8.895   0.289
61152W        W20248  10.673  44.455  13.825
61153W        W20249  33.983  32.951   2.803
61154W        W20250  28.994   9.237  10.512
61155W        W20251  30.447   6.759   4.223
61156W        W20252   5.902  40.971   0.331
61157W        W20253  17.070   9.817  11.866
61158W        W20254   6.823  24.587  14.277
61159W        W20255  16.712  42.512   1.765
61160W        W20256  12.170  40.489   0.758
61161W        W20257  22.215   4.900  14.968
61162W        W20258  22.238  41.891   4.636
61163W        W20259   9.203   1.808   1.349
61164W        W20260   1.426  13.673  12.041
61165W        W20261  43.942  27.648  10.640
61166W        W20262  33.533  37.351  10.474
61167W        W20263  35.962   1.846  11.973
61168W        W20264  14.098  41.948   4.733
61169W        W20265  17.621  31.049  14.977
61170W        W20266  23.078  19.170  12.036
61171W        W20267  22.659  28.116  11.455
61172W        W20268  35.044  29.594   2.419
61173W        W20269  30.601   0.749   4.296
61174W        W20270  38.870  39.355  12.387
61175W        W20271  22.745  34.090   4.242
61176W        W20272  40.979  32.397   4.737
61177W        W20273  25.209  18.621  13.030
61178W        W20274  29.932  26.632   2.341
61179W        W20275  23.996  44.278  10.118
61180W        W20276  31.515  11.675   0.891
61181W        W20277  25.630  27.589   2.315
61182W        W20278   4.905   7.305   3.154
61183W        W20279  11.753  30.636   3.223
61184W        W20280  19.219  28.561   0.365
61185W        W20281  26.499   1.935  13.036
61186W        W20282  37.030   1.346   3.861
61187W        W20283  18.623  35.045   3.260
61188W        W20284   1.469  20.065  10.468
61189W        W20285   5.747   1.272   1.429
61190W        W20286  24.600  20.635   3.385
61191W        W20287  40.527  40.489  14.283
61192W        W20288  13.171  36.592  12.477
61193W        W20289   2.940  11.767  13.040
61194W        W20290   2.841  33.406  14.458
61195W        W20291   8.773  44.481  11.098
61196W        W20292  34.434  22.120   4.353
61197W        W20293   7.333   8.678  13.540
61198W        W20294  24.499   3.888  12.574
61199W        W20295  27.188  15.763   3.255
61200W        W20296  40.965  40.839  14.006
61201W        W20297  10.804  43.279   0.824
61202W        W20298  40.855   0.744   3.771
61203W        W20299  17.784  18.085  14.802
61204W        W20300   2.309  20.743  12.085
61205W        W20301  20.093  39.478   4.770
61206W        W20302  33.046  40.914  12.389
61207W        W20303  22.608  40.021   0.401
61208W        W20304  44.443  20.597   4.677
61209W        W20305  42.879  44.922   2.709
61210W        W20306  37.918  21.567   2.307
61211W        W20307  37.924  29.513   0.738
61212W        W20308  30.467  42.993  13.016
61213W        W20309  39.379  15.173   2.405
61214W        W20310  13.793  35.495  10.543
61215W        W20311  27.178  23.502   4.725
61216W        W20312  38.007  25.081   0.755
61217W        W20313  39.434  11.703   3.671
61218W        W20314  42.413  35.937   1.263
61219W        W20315   9.327  23.029  10.645
61220W        W20316  37.525  25.119  10.555
61221W        W20317  25.965  15.630   0.855
61222W        W20318  42.939   8.377   2.276
61223W        W20319  21.143  13.650   0.875
61224W        W20320  42.969  40.948  10.519
61225W        W20321  23.129  19.163   5.109
61226W        W20322  16.127  34.587   3.268
61227W        W20323   7.861   4.727  11.488
61228W        W20324  30.415  17.179  10.942
61229W        W20325  11.162  13.709   2.739
61230W        W20326  36.523  13.651  11.053
61231W        W20327  22.040  41.368  13.993
61232W        W20328  40.884  25.162   4.635
61233W        W20329  43.412  43.845  13.954
61234W        W20330  40.415  16.159  10.906
61235W        W20331  36.523  38.456   2.391
61236W        W20332   8.877   9.244   3.214
61237W        W20333  16.583  18.171   3.194
61238W        W20334  27.158  41.964  11.392
61239W        W20335  11.152  33.107   0.402
61240W        W20336  23.533   5.890   4.771
61241W        W20337  21.583  21.612   3.810
61242W        W20338  17.671  17.617   1.318
61243W        W20339  42.028  42.792   1.875
61244W        W20340  17.613   3.850  14.341
61245W        W20341  30.600  44.873  12.053
61246W        W20342  38.419  37.548   4.330
61247W        W20343  30.560   8.708   2.678
61248W        W20344   1.300  13.208   1.337
61249W        W20345   6.859   5.821   1.219
61250W        W20346  19.767   5.400   1.771
61251W        W20347   6.237  32.895  10.896
61252W        W20348  13.105   2.959   1.253
61253W        W20349  34.941  35.520   3.798
61254W        W20350  37.927  38.828   4.605
61255W        W20351   5.377   2.299   2.302
61256W        W20352   8.340  37.450   0.359
61257W        W20353  32.945  29.597  14.449
61258W        W20354  26.130  18.211   4.116
61259W        W20355   8.802  13.701   0.476
61260W        W20356   9.201  38.557   2.662
61261W        W20357   1.761  21.704  13.881
61262W        W20358  38.030   8.355   4.795
61263W        W20359  16.652  32.038  11.111
61264W        W20360  26.061  37.904  14.476
61265W        W20361  33.003  38.330  12.847
61266W        W20362  22.524  40.930   2.341
61267W        W20363  15.586  14.220   3.780
61268W        W20364  19.772  38.916  13.531
61269W        W20365  16.679  35.528  10.639
61270W        W20366  43.879  28.575   2.374
61271W        W20367  22.650  26.096   3.334
61272W        W20368  21.694  13.659  13.984
61273W        W20369  29.494  30.533   1.313
61274W        W20370   1.735  17.578  14.446
61275W        W20371  43.915  43.924   4.692
61276W        W20372  27.679  27.056  12.927
61277W        W20373  16.767   7.294  14.963
61278W        W20374   6.727   1.906   1.795
61279W        W20375   4.926  22.180   0.461
61280W        W20376  15.092   0.971   1.402
61281W        W20377   1.954  13.238   1.917
61282W        W20378  35.995   8.177   1.857
61283W        W20379   1.756  17.138   2.358
61284W        W20380  14.130  27.132   3.312
61285W        W20381   1.768  23.564  14.784
61286W        W20382  28.936  40.976  14.873
61287W        W20383  14.177  12.710  12.961
61288W        W20384  35.512  30.960  11.029
61289W        W20385  15.792  14.126   1.314
61290W        W20386  33.893  36.384  12.075
61291W        W20387  36.556  21.572  14.461
61292W        W20388  40.927   5.727  13.864
61293W        W20389  19.096  19.080   2.676
61294W        W20390  23.029   5.732   1.838
61295W        W20391   2.229   1.443  13.043
61296W        W20392   3.424  36.375  10.908
61297W        W20393   0.791   4.842   2.188
61298W        W20394  11.780   0.309  13.527
61299W        W20395  36.969  39.926   1.310
61300W        W20396  22.571   7.216  12.018
61301W        W20397  43.866  13.125   3.202
61302W        W20398  42.847   8.845  13.037
61303W        W20399  21.022  18.122   9.991
61304W        W20400  34.866   2.284  13.375
61305W        W20401  26.960  28.045   2.278
61306W        W20402   5.203  20.083   1.272
61307W        W20403  17.167  41.300   0.406
61308W        W20404  16.259  33.099   1.850
61309W        W20405  27.562   0.303   4.810
61310W        W20406  29.657   7.847  13.924
61311W        W20407  16.733  30.938  11.997
61312W        W20408  36.593  15.661   0.963
61313W        W20409  20.121  26.459   2.356
61314W        W20410  33.465  34.098  14.298
61315W        W20411   7.377  10.145   3.836
61316W        W20412  12.773  11.679  12.918
61317W        W20413  34.442  10.339   2.194
61318W        W20414   1.771  24.016  14.283
61319W        W20415  15.328  24.076   4.234
61320W        W20416   1.256  19.616   1.772
61321W        W20417  22.547  30.447  13.058
61322W        W20418   1.335  25.100   0.856
61323W        W20419  42.865   8.260   0.798
61324W        W20420   2.925  31.097  13.866
61325W        W20421  40.546  17.111  13.526
61326W        W20422  26.103  20.207  10.618
61327W        W20423  28.023  44.426   1.771
61328W        W20424  15.177  20.203  13.471
61329W        W20425   7.379  14.729   2.417
61330W        W20426  33.457  11.224   4.140
61331W        W20427  29.451  24.594  13.441
61332W        W20428  38.048  28.053  11.905
61333W        W20429  29.665  34.607   1.388
61334W        W20430  34.084  12.645   1.325
61335W        W20431  25.192  27.600  12.923
61336W        W20432  31.642  36.403  14.965
61337W        W20433  39.828   0.292  14.822
61338W        W20434  20.123  36.973   5.320
61339W        W20435   7.888   3.365  12.927
61340W        W20436  36.513  10.201  11.889
61341W        W20437  10.269  32.413  11.914
61342W        W20438   8.172  37.437  10.915
61343W        W20439  11.819  41.417  12.380
61344W        W20440  12.746  33.554  13.891
61345W        W20441  42.927  40.961   3.354
61346W        W20442  13.816   0.359  11.025
61347W        W20443  33.088  30.546   3.827
61348W        W20444   0.421  26.516   0.879
61349W        W20445  41.439  29.461   1.782
61350W        W20446  44.384  21.520  12.927
61351W        W20447  24.023  18.132   2.337
61352W        W20448   4.234   4.895   4.751
61353W        W20449   6.267  19.151   3.261
61354W        W20450   5.296  22.508   0.339
61355W        W20451   4.255  31.509   4.259
61356W        W20452  27.130  13.641  11.496
61357W        W20453   0.356   8.275  10.470
61358W        W20454  20.166  36.432  12.402
61359W        W20455  37.367  31.484  10.638
61360W        W20456  25.158  38.504   3.712
61361W        W20457  11.854  43.796  14.009
61362W        W20458  35.907  29.081  10.921
61363W        W20459  39.557  28.940  12.418
61364W        W20460  19.084  14.300   0.420
61365W        W20461  16.794   0.812  12.361
61366W        W20462   4.934  25.678   3.338
61367W        W20463  35.029   7.185  12.945
61368W        W20464  20.068  27.543   4.303
61369W        W20465  20.751  32.025  10.558
61370W        W20466  36.877  16.806   4.607
61371W        W20467  19.739  14.282  14.276
61372W        W20468   7.821  36.871  13.408
61373W        W20469   8.727  44.865   1.701
61374W        W20470   9.201  30.423   2.818
61375W        W20471  41.812  31.998  14.502
61376W        W20472  24.107  10.839   3.757
61377W        W20473  31.927  41.526   0.391
61378W        W20474  21.227  31.152  11.967
61379W        W20475  17.073  40.433  13.841
61380W        W20476  31.057   5.262  10.632
61381W        W20477  25.111   7.236   0.294
61382W        W20478  19.632  24.697   3.204
61383W        W20479  15.242  17.679  13.457
61384W        W20480  24.100   5.204   1.858
61385W        W20481  23.015  40.049   4.652
61386W        W20482  19.215  29.949   0.421
61387W        W20483  22.145  17.156  14.832
61388W        W20484  38.395  35.941  11.126
61389W        W20485  32.982  42.329  12.454
61390W        W20486  27.628  31.578   0.962
61391W        W20487   5.415  24.491   2.364
61392W        W20488   5.855  17.237   3.779
61393W        W20489  27.000  42.317   3.373
61394W        W20490  29.982  41.492  13.980
61395W        W20491   0.280   1.854  12.372
61396W        W20492  21.574  25.044   1.355
61397W        W20493  25.095  20.230  11.587
61398W        W20494  34.593   7.668  14.804
61399W        W20495   7.342   4.898   0.276
61400W        W20496  27.591  41.450   2.877
61401W        W20497   6.704  33.938   4.835
61402W        W20498  25.651  19.777   1.874
61403W        W20499   2.327  30.098  11.586
61404W        W20500   2.383   3.438   4.685
61405W        W20501   6.318  12.137  12.431
61406W        W20502   7.227  43.936  14.368
61407W        W20503   3.446  43.972  10.416
61408W        W20504  17.706  35.998   0.760
61409W        W20505  30.939  38.472   3.206
61410W        W20506  39.358  43.902  14.996
61411W        W20507  29.520   7.711   0.864
61412W        W20508   7.841  24.575  11.570
61413W        W20509  20.153   0.777   0.357
61414W        W20510  11.674  40.451  11.461
61415W        W20511  41.375  23.489  14.876
61416W        W20512  38.507  37.933   3.188
61417W        W20513  31.639  22.194   2.248
61418W        W20514  23.557  21.069   2.225
61419W        W20515  14.107   9.176   5.178
61420W        W20516  28.657  31.970  13.930
61421W        W20517  43.778  21.174  14.383
61422W        W20518  20.148   5.878   2.770
61423W        W20519  32.437  33.031   2.703
61424W        W20520  23.670  42.410  12.080
61425W        W20521  12.691   3.843  14.491
61426W        W20522  43.797  18.280  12.918
61427W        W20523  33.062   5.403  14.397
61428W        W20524  18.134  15.087  10.462
61429W        W20525   8.202  27.564  11.467
61430W        W20526  39.373   7.279   0.286
61431W        W20527   5.933   9.344   2.712
61432W        W20528  27.575  41.833  12.042
61433W        W20529  30.511   5.246   2.237
61434W        W20530  29.553  39.026   2.896
61435W        W20531  38.924   7.183  13.360
61436W        W20532  20.053  18.058   5.140
61437W        W20533  29.618   1.903  11.460
61438W        W20534  35.481  23.701   2.231
61439W        W20535  37.387   6.380   4.270
61440W        W20536  22.160  21.600  11.507
61441W        W20537  23.064  38.981  13.009
61442W        W20538  29.581  41.030   1.246
61443W        W20539  35.019  23.111   1.264
61444W        W20540  31.037  32.483  13.497
61445W        W20541  18.696  21.257  14.839
61446W        W20542  41.311  17.773   2.406
61447W        W20543  17.267   4.839   3.265
61448W        W20544  35.544  27.595  13.536
61449W        W20545  27.505  27.654   1.814
61450W        W20546  19.744  17.306  11.100
61451W        W20547  20.238  23.000  11.953
61452W        W20548  20.173  12.750  10.900
61453W        W20549  13.710   3.711   0.247
61454W        W20550  19.145  38.939   2.674
61455W        W20551  25.714  33.519   3.317
61456W        W20552  20.705  19.567  10.571
61457W        W20553   2.864  20.263  12.391
61458W        W20554  21.547  14.194  14.317
61459W        W20555   4.233  18.591   0.820
61460W        W20556  17.691  22.597   4.293
61461W        W20557  43.272  42.453  11.414
61462W        W20558  14.239  21.123   4.730
61463W        W20559  40.012   6.723   4.187
61464W        W20560  21.208  18.707   0.803
61465W        W20561   8.901   2.773   0.807
61466W        W20562   3.873  26.080   5.639
61467W        W20563  12.814   4.805  11.455
61468W        W20564  41.963  38.058  14.893
61469W        W20565  15.810  10.205   1.445
61470W        W20566  44.937  19.550   4.281
61471W        W20567  39.394  29.027   4.821
61472W        W20568  22.539  25.028  13.878
61473W        W20569  44.433  43.803  10.100
61474W        W20570  41.471  26.192   0.410
61475W        W20571  18.099  31.936  10.444
61476W        W20572  32.547   8.394  13.906
61477W        W20573   7.847  33.491  13.947
61478W        W20574  29.614  38.822  14.308
61479W        W20575  42.357  27.122   0.896
61480W        W20576  30.986  20.133   2.338
61481W        W20577  17.568   6.422  10.903
61482W        W20578   9.362  36.565  10.523
61483W        W20579  22.617   8.182  13.515
61484W        W20580  21.249  44.753  11.536
61485W        W20581   9.168   2.273  14.953
61486W        W20582   8.764  16.090   3.712
61487W        W20583  23.605  32.421  12.578
61488W        W20584  13.131  40.525   1.801
61489W        W20585  14.831  32.412  14.341
61490W        W20586  21.102  17.630   1.222
61491W        W20587  29.953  35.940  11.500
61492W        W20588  25.062   7.869   3.175
61493W        W20589  35.401   5.914  12.482
61494W        W20590  22.045  20.577   3.701
61495W        W20591  30.514   4.894  12.825
61496W        W20592  33.568   2.856   2.707
61497W        W20593  36.863  19.673  14.344
61498W        W20594   4.254  31.489   4.758
61499W        W20595   9.312  31.129   4.125
61500W        W20596  33.992   0.873   2.337
61501W        W20597  24.230  21.068   0.910
61502W        W20598  13.738  43.390   0.897
61503W        W20599  31.418  14.286   1.892
61504W        W20600   6.869  18.236  12.568
61505W        W20601  32.904   0.904  11.401
61506W        W20602  13.346  20.751  12.390
61507W        W20603   3.955  37.476  12.040
61508W        W20604  14.832  35.881  10.516
61509W        W20605   0.963   1.280  13.951
61510W        W20606  22.633  13.715   3.286
61511W        W20607  11.832   4.284   0.842
61512W        W20608   5.224  20.643  12.533
61513W        W20609  39.344  20.741  12.895
61514W        W20610   6.906  11.248   2.665
61515W        W20611  21.066  33.001   2.228
61516W        W20612  24.049  36.492  11.022
61517W        W20613  14.820  44.496  11.974
61518W        W20614   6.861  21.252   4.292
61519W        W20615  27.627  13.837   1.725
61520W        W20616  33.484   7.699  14.292
61521W        W20617   3.460  43.334   4.824
61522W        W20618  42.988  26.462   0.872
61523W        W20619   8.254  32.514   2.328
61524W        W20620  10.290   5.332  14.339
61525W        W20621   0.891  27.063  14.399
61526W        W20622   0.354  28.974  10.920
61527W        W20623  38.011   9.782   4.352
61528W        W20624  44.999  10.204   2.795
61529W        W20625   7.691  43.490   3.717
61530W        W20626   1.885  34.490  12.507
61531W        W20627  13.826  16.591   2.315
61532W        W20628  20.525  21.109  14.293
61533W        W20629  38.564  27.686  12.885
61534W        W20630  18.781  40.341  13.501
61535W        W20631  10.359  21.125   2.667
61536W        W20632  19.047  34.426  12.539
61537W        W20633  35.584  16.139   2.814
61538W        W20634   3.913  14.254   0.419
61539W        W20635  15.291  34.005   2.217
61540W        W20636  15.681  29.005   1.896
61541W        W20637  20.646  36.380   0.391
61542W        W20638  30.144  10.169   3.765
61543W        W20639  27.992  34.493   1.922
61544W        W20640  28.186  33.547  12.433
61545W        W20641  25.074  30.007   2.720
61546W        W20642  43.850  39.820   3.258
61547W        W20643  15.273  32.019   4.253
61548W        W20644   6.423  15.222   4.249
61549W        W20645  30.521  34.501  11.907
61550W        W20646   1.344  38.528  10.922
61551W        W20647   5.317  32.132   3.786
61552W        W20648  35.572  18.236   0.402
61553W        W20649  11.245  41.837  12.850
61554W        W20650  12.144  31.144   2.376
61555W        W20651  40.402  35.013   4.192
61556W        W20652   5.317   6.325  13.455
61557W        W20653   6.897   3.458  11.581
61558W        W20654  36.091  32.013  13.352
61559W        W20655  23.219  14.683   2.267
61560W        W20656  33.590   6.860   0.861
61561W        W20657  25.985  33.971   9.543
61562W        W20658  23.704  44.830  10.598
61563W        W20659  37.838  40.881   2.309
61564W        W20660  26.129  23.126  11.491
61565W        W20661  13.294  13.736  12.990
61566W        W20662  22.561  18.588   1.359
61567W        W20663  25.629  32.089  14.289
61568W        W20664  22.136  37.428   1.226
61569W        W20665  13.134  16.135   3.631
61570W        W20666  33.901  36.076  11.445
61571W        W20667  41.521   5.869   2.731
61572W        W20668  14.593  42.995   2.188
61573W        W20669  41.298  42.810  14.920
61574W        W20670  30.988   7.295  13.845
61575W        W20671  27.004  37.549  12.556
61576W        W20672  33.944  30.147   0.782
61577W        W20673   3.435  31.974  13.403
61578W        W20674  44.276   8.768   0.781
61579W        W20675  37.848   6.289   1.355
61580W        W20676  38.975   7.843   3.730
61581W        W20677  35.982   1.365   3.184
61582W        W20678  37.356  42.944   0.259
61583W        W20679  12.777   3.851   2.237
61584W        W20680  18.675  21.683  14.369
61585W        W20681  30.023  31.898  10.442
61586W        W20682  38.333  36.394  10.599
61587W        W20683  26.657   8.250  12.824
61588W        W20684  38.971  16.158  14.862
61589W        W20685  23.568  29.516  13.541
61590W        W20686  33.534  32.986  13.481
61591W        W20687  29.920  44.839  12.893
61592W        W20688   0.252  35.102   4.738
61593W        W20689  10.811  32.892  14.917
61594W        W20690  22.016  40.916  14.404
61595W        W20691   1.260  24.057  12.033
61596W        W20692  41.533  27.468   4.231
61597W        W20693  34.379  29.549  11.899
61598W        W20694  14.175   6.421   1.243
61599W        W20695   6.282  25.962   4.790
61600W        W20696  22.660  30.492  12.400
61601W        W20697  36.013   6.781  12.823
61602W        W20698  32.109  20.757  12.065
61603W        W20699   2.808  12.184  13.381
61604W        W20700  43.810   4.926   2.222
61605W        W20701   0.769  12.621   9.933
61606W        W20702  43.893  26.546   3.682
61607W        W20703  10.820   5.710  10.913
61608W        W20704  19.682  35.599  14.952
61609W        W20705   0.931  13.146  14.379
61610W        W20706   4.756  36.545   3.761
61611W        W20707   2.861  44.427   2.402
61612W        W20708  27.979   1.962   4.211
61613W        W20709   8.245  16.739  14.363
61614W        W20710  20.687  42.990  13.973
61615W        W20711  10.752   7.670   2.676
61616W        W20712  30.452   2.755   1.388
61617W        W20713   0.806  41.932   0.821
61618W        W20714  20.137   2.952   2.233
61619W        W20715  23.054  37.005  10.425
61620W        W20716   7.897  17.766   2.234
61621W        W20717  10.264  17.604   1.922
61622W        W20718  37.958  36.496   3.179
61623W        W20719   9.238  11.652  13.371
61624W        W20720  11.141  16.746   1.431
61625W        W20721  19.623   8.274   3.777
61626W        W20722  20.200  21.222   4.157
61627W        W20723  28.171   4.806   5.295
61628W        W20724   9.886  25.567   3.380
61629W        W20725  30.936  14.772   1.244
61630W        W20726  40.854  15.626   2.854
61631W        W20727  38.504  32.034   1.846
61632W        W20728   3.236   3.942   1.718
61633W        W20729  44.346  43.425  13.403
61634W        W20730  37.948  24.504  11.530
61635W        W20731  27.691  35.420   2.866
61636W        W20732  39.854  22.012   0.897
61637W        W20733  10.863  33.574   4.753
61638W        W20734  19.220  32.058  10.618
61639W        W20735   7.279  34.553   1.223
61640W        W20736  42.923  38.566  12.059
61641W        W20737   8.783  20.597   1.217
61642W        W20738  31.489   4.294  12.953
61643W        W20739  26.042  39.333  13.846
61644W        W20740   5.885  24.082  11.580
61645W        W20741  28.661  33.388   3.246
61646W        W20742  25.589  22.582  12.346
61647W        W20743  40.376  26.050   2.230
61648W        W20744  13.308   2.866  11.109
61649W        W20745  10.656   0.362   4.711
61650W        W20746  20.187  40.003  13.945
61651W        W20747  36.972  22.558   3.821
61652W        W20748   3.837   1.867  12.372
61653W        W20749  33.412  16.103   2.239
61654W        W20750   7.727  30.646   3.305
61655W        W20751  28.571   5.734  13.534
61656W        W20752   5.750   0.958   4.205
61657W        W20753   5.930  23.100  13.957
61658W        W20754  29.627  25.691  11.866
61659W        W20755  32.438  23.075   2.222
61660W        W20756  22.012  42.289   4.280
61661W        W20757  32.602  42.398   1.734
61662W        W20758  24.136   3.821  12.401
61663W        W20759  16.775  37.569  14.276
61664W        W20760  35.594  31.960  14.279
61665W        W20761  17.081  30.059   1.388
61666W        W20762  24.146  29.495  11.397
61667W        W20763  34.044  38.009   0.916
61668W        W20764   5.430  41.294   1.708
61669W        W20765  11.293  28.454   0.894
61670W        W20766  11.743   9.867  10.137
61671W        W20767  42.502   2.814  11.598
61672W        W20768   3.434  41.514  13.956
61673W        W20769  34.883  24.569   3.343
61674W        W20770  14.694  44.365  11.057
61675W        W20771   7.346   5.748  13.539
61676W        W20772   8.163  15.087  11.518
61677W        W20773  41.308   1.975   2.696
61678W        W20774  34.929   6.745   2.400
61679W        W20775  35.052  20.181   0.271
61680W        W20776  36.051  13.694  10.920
61681W        W20777   6.183  20.682  12.055
61682W        W20778  12.193   5.707  11.885
61683W        W20779   1.322  30.543   2.781
61684W        W20780  42.406  24.087  11.964
61685W        W20781  16.651  22.666  13.461
61686W        W20782   9.167  39.877   3.305
61687W        W20783  20.267  42.879   5.293
61688W        W20784  35.072   4.323   1.307
61689W        W20785  26.531  32.472   2.312
61690W        W20786  26.991  42.409  13.505
61691W        W20787  19.561  24.011   1.892
61692W        W20788  22.057  14.657  13.858
61693W        W20789  35.557  24.126   9.585
61694W        W20790  32.930  14.717  11.990
61695W        W20791  22.705  12.617   0.741
61696W        W20792  20.072  24.647   1.257
61697W        W20793  29.080  11.258   2.339
61698W        W20794  21.196  16.654  10.463
61699W        W20795  20.258   7.412  10.096
61700W        W20796  36.477  34.099  13.315
61701W        W20797  31.535  25.124  10.480
61702W        W20798  35.411  11.252   1.754
61703W        W20799  25.679  29.633   2.763
61704W        W20800  19.592  34.885  13.434
61705W        W20801  20.691   2.301  12.954
61706W        W20802   5.368  37.376   4.775
61707W        W20803  29.944  33.036  13.822
61708W        W20804  14.175  26.465  13.886
61709W        W20805  14.824  39.809   4.121
61710W        W20806  27.506  21.042  11.899
61711W        W20807   7.909  19.658   4.839
61712W        W20808  44.505   0.447  14.972
61713W        W20809   2.413  44.778  10.422
61714W        W20810   5.416  34.982   3.290
61715W        W20811  13.217   0.252   4.129
61716W        W20812  17.222  11.806   3.808
61717W        W20813   0.911   9.383  11.124
61718W        W20814  37.885   6.779   1.813
61719W        W20815  14.245  44.939  10.613
61720W        W20816  36.093  34.425   1.881
61721W        W20817  22.030  37.494  14.306
61722W        W20818   3.731   4.314  10.410
61723W        W20819  10.680  20.648  14.479
61724W        W20820  33.557  38.067   0.286
61725W        W20821  39.517  36.967   4.200
61726W        W20822  14.325  35.868  13.873
61727W        W20823  38.343  20.211  11.872
61728W        W20824  13.119  17.796  11.869
61729W        W20825  29.921  18.666  10.978
61730W        W20826  17.190  33.472   0.902
61731W        W20827   9.325   5.752   4.769
61732W        W20828   2.946  21.226   1.759
61733W        W20829  10.828   7.279   3.195
61734W        W20830  17.572  19.269  14.327
61735W        W20831   2.849   1.891   0.804
61736W        W20832  22.220  16.646  12.498
61737W        W20833   9.718  21.065   2.412
61738W        W20834  21.095   9.285  12.503
61739W        W20835  18.768   1.858   1.786
61740W        W20836   7.852  33.606  12.832
61741W        W20837  15.653  15.641  10.562
61742W        W20838  18.258  30.656   1.262
61743W        W20839   9.379  23.178  13.515
61744W        W20840  30.427  32.568   3.678
61745W        W20841  25.036   5.382  11.515
61746W        W20842  14.670  21.143   0.909
61747W        W20843  35.359  25.214  10.017
61748W        W20844  24.503  15.265  14.469
61749W        W20845  21.728   8.697  12.932
61750W        W20846  28.636  13.654   1.352
61751W        W20847  10.738  32.088  12.069
61752W        W20848  29.592  14.279  11.477
61753W        W20849   7.869   7.354   2.209
61754W        W20850   6.880  19.631   4.135
61755W        W20851  39.544   9.232  13.347
61756W        W20852  39.368  24.606  12.096
61757W        W20853  26.109  44.396   4.297
61758W        W20854   0.987  28.454  11.425
61759W        W20855   0.863  39.946   2.678
61760W        W20856  14.336  41.500   3.217
61761W        W20857  29.052   1.912   2.771
61762W        W20858  11.802  25.006   1.287
61763W        W20859  36.450   9.211   0.384
61764W        W20860  10.158  12.693   3.766
61765W        W20861  42.325  29.017   3.750
61766W        W20862  36.427  25.583   2.881
61767W        W20863  34.498   2.934   2.862
61768W        W20864   5.296   2.723  10.524
61769W        W20865   0.379  10.262   0.836
61770W        W20866  30.061  21.259  12.019
61771W        W20867  42.010  15.616  14.913
61772W        W20868  21.588  20.604   2.671
61773W        W20869  30.106  28.550   2.741
61774W        W20870  32.982  24.098   2.717
61775W        W20871   6.729  21.553  11.557
61776W        W20872  11.359  11.658   3.151
61777W        W20873  41.959  22.115   3.780
61778W        W20874  40.908   9.696   1.342
61779W        W20875  32.428  29.992   3.749
61780W        W20876  17.171  32.557  14.328
61781W        W20877  41.021   0.308   4.205
61782W        W20878   3.869  39.879   4.680
61783W        W20879  22.685   2.739  13.409
61784W        W20880  10.753  37.072   3.843
61785W        W20881   3.719  27.635  13.475
61786W        W20882  10.268  36.923   0.745
61787W        W20883   6.310  41.310  14.879
61788W        W20884  34.920  24.224   2.880
61789W        W20885  34.057  24.718   2.407
61790W        W20886   0.859  42.989  10.908
61791W        W20887  30.110  17.648   3.323
61792W        W20888   0.453  41.023  14.883
61793W        W20889  16.113   2.318   4.316
61794W        W20890  20.226  43.304   3.345
61795W        W20891  36.389   3.828  10.528
61796W        W20892   3.421   3.918   2.662
61797W        W20893  33.106   7.758  14.786
61798W        W20894  44.415  15.216   1.738
61799W        W20895  41.538  21.597  13.809
61800W        W20896   7.912   6.371   0.769
61801W        W20897  43.848  38.919   4.722
61802W        W20898  14.640  12.735   2.811
61803W        W20899  30.029   3.925  10.920
61804W        W20900   5.853  43.321  10.923
61805W        W20901   5.362   7.225   0.348
61806W        W20902  24.145   8.738   2.217
61807W        W20903  32.615  43.011   0.271
61808W        W20904  21.675  15.306   4.338
61809W        W20905  39.825  35.432  12.496
61810W        W20906  28.539  14.737  10.913
61811W        W20907  23.676  29.989  14.769
61812W        W20908  20.133   6.826  11.942
61813W        W20909   6.226  18.113   3.684
61814W        W20910  41.456  40.961  11.599
61815W        W20911   7.893  25.972  10.423
61816W        W20912   5.837  44.927  11.869
61817W        W20913  36.047  23.079  11.471
61818W        W20914  27.130  25.096   1.345
61819W        W20915  23.654  12.211  12.476
61820W        W20916  27.984  15.746  14.415
61821W        W20917  23.237  23.654  14.868
61822W        W20918  42.510  15.711   0.293
61823W        W20919  30.443  37.576  13.875
61824W        W20920  31.524  20.605  13.958
61825W        W20921  21.599  22.114  10.622
61826W        W20922   3.380  17.601  13.825
61827W        W20923   5.224  41.382  13.974
61828W        W20924   9.716   8.826  13.376
61829W        W20925  41.790  37.466   1.277
61830W        W20926  27.496  21.677  13.457
61831W        W20927   9.758  23.688   0.258
61832W        W20928  41.879   8.804  11.398
61833W        W20929  35.492  42.463   4.321
61834W        W20930  30.161  33.981   2.221
61835W        W20931  16.587  37.986   1.424
61836W        W20932  10.773  39.042   4.341
61837W        W20933  43.815  21.075   2.872
61838W        W20934  19.122  43.772  13.992
61839W        W20935  36.053  27.079  10.035
61840W        W20936  44.288  22.671   3.679
61841W        W20937  20.245  15.769  12.097
61842W        W20938  41.909   1.921  14.808
61843W        W20939  39.812  19.758   3.819
61844W        W20940  29.591   8.175  10.449
61845W        W20941   6.799  29.457   3.735
61846W        W20942   1.825  28.183   4.246
61847W        W20943  41.797  12.122   3.321
61848W        W20944  31.897  12.773  11.104
61849W        W20945  43.296  35.985   3.236
61850W        W20946  16.718   2.266   2.752
61851W        W20947  42.896  43.378  10.976
61852W        W20948   2.471  42.929   9.994
61853W        W20949  20.729  16.797   1.439
61854W        W20950  10.810  34.548   4.221
61855W        W20951   5.713   0.757  13.915
61856W        W20952  10.709  19.660  14.277
61857W        W20953  19.147  36.841   1.261
61858W        W20954   1.957  19.681   0.827
61859W        W20955  29.088  10.163  12.548
61860W        W20956  38.945  18.120  13.040
61861W        W20957  32.072  30.156   0.861
61862W        W20958  16.150  22.175  13.335
61863W        W20959  16.572  14.698  12.960
61864W        W20960  30.932  14.611   2.884
61865W        W20961   7.718  37.389  14.985
61866W        W20962   3.760  42.361  11.471
61867W        W20963   5.236  22.071   3.787
61868W        W20964  10.684  35.040   0.923
61869W        W20965  11.624  36.449  12.946
61870W        W20966   1.967  23.172   4.817
61871W        W20967   4.776  41.396  11.448
61872W        W20968  40.407   0.332  13.504
61873W        W20969  12.805  19.693  12.983
61874W        W20970  26.486  44.458  13.042
61875W        W20971   6.782  44.834  14.463
61876W        W20972   8.180  33.985  12.503
61877W        W20973  36.453   1.261  12.949
61878W        W20974  29.607  14.335  13.987
61879W        W20975  11.128  38.021   2.871
61880W        W20976  40.309  11.181   1.417
61881W        W20977  23.227  36.090   0.270
61882W        W20978   2.272  39.404   4.238
61883W        W20979   4.785  18.675  12.889
61884W        W20980   1.844  37.924  10.484
61885W        W20981  24.652   6.345   0.400
61886W        W20982   4.815  33.515   0.753
61887W        W20983   3.823  23.117   4.170
61888W        W20984  13.223  23.033  11.958
61889W        W20985  33.002  15.773   1.890
61890W        W20986  41.492  34.606  12.059
61891W        W20987  19.192   6.860  13.876
61892W        W20988   0.436   7.194  13.799
61893W        W20989  20.535  26.987  14.363
61894W        W20990   7.377   6.252   3.760
61895W        W20991  28.508  36.554  10.031
61896W        W20992  31.608   3.736   0.917
61897W        W20993  44.842  35.962   2.183
61898W        W20994  26.642  18.074  12.554
61899W        W20995  21.238  37.929   4.228
61900W        W20996  17.062  22.739   5.082
61901W        W20997  32.637  19.153  12.491
61902W        W20998  29.509  25.688  13.467
61903W        W20999  38.006  42.984  11.415
61904W        W21000  28.072   1.420  10.455
61905W        W21001  39.999  10.281   2.407
61906W        W21002  22.569  32.981   1.305
61907W        W21003  43.385   8.281  13.512
61908W        W21004  14.299   6.279   0.361
61909W        W21005  30.492   9.216   2.710
61910W        W21006   2.279   9.349  10.437
61911W        W21007  18.239   8.819  13.841
61912W        W21008  35.566   7.315  13.349
61913W        W21009  38.071  15.245   9.550
61914W        W21010  31.108  44.489  10.427
61915W        W21011  42.846   1.732   3.227
61916W        W21012  28.016   4.773   2.862
61917W        W21013  34.485  19.237  14.494
61918W        W21014  16.136   0.903  13.520
61919W        W21015  18.083   4.867  11.413
61920W        W21016   6.196  41.475  14.453
61921W        W21017  33.882  38.835   0.392
61922W        W21018  15.124  36.914  12.465
61923W        W21019  32.494  20.555   9.568
61924W        W21020  35.556  43.966  10.598
61925W        W21021  25.564  26.626   1.381
61926W        W21022  34.058  17.108   4.143
61927W        W21023  22.662  17.691   2.246
61928W        W21024  13.738  11.757  10.914
61929W        W21025   8.174   0.377  14.801
61930W        W21026  17.142  11.373   1.302
61931W        W21027  34.432  39.385  14.296
61932W        W21028  29.499  28.977   0.941
61933W        W21029   3.742  17.719  12.004
61934W        W21030  30.554  42.353  14.766
61935W        W21031   8.746  31.028   3.707
61936W        W21032   2.252   6.361   4.597
61937W        W21033  15.302  13.125  10.600
61938W        W21034  39.372  39.918   1.331
61939W        W21035  10.819   2.911   2.314
61940W        W21036   3.352  20.766   0.465
61941W        W21037  36.519  23.719   0.959
61942W        W21038   0.797  44.374   4.125
61943W        W21039  17.114  34.099  13.790
61944W        W21040   7.397  14.776   4.602
61945W        W21041  25.992  40.897  14.983
61946W        W21042  33.513  40.905  14.790
61947W        W21043  11.739  17.193   3.842
61948W        W21044  23.702  34.027  13.481
61949W        W21045  27.689  19.573   1.314
61950W        W21046   2.246  28.157  11.555
61951W        W21047  36.399   7.821  11.963
61952W        W21048  39.479  25.631  12.372
61953W        W21049   9.384   5.201  10.976
61954W        W21050  12.151  23.213   0.407
61955W        W21051  42.499  16.095  11.398
61956W        W21052  37.345  20.164   4.719
61957W        W21053  35.927  35.874  13.001
61958W        W21054  37.429  25.499   0.771
61959W        W21055  39.884  38.851  11.413
61960W        W21056  29.969  15.260  13.009
61961W        W21057  26.642  18.123  11.038
61962W        W21058  39.931  31.959   9.952
61963W        W21059   0.471  27.469  11.080
61964W        W21060  40.939  29.508   2.367
61965W        W21061   6.195   8.269  12.863
61966W        W21062   7.247  24.975  13.907
61967W        W21063  23.131  35.898  12.418
61968W        W21064  31.547   3.355  10.576
61969W        W21065  28.101  15.239   2.274
61970W        W21066  11.339  41.860   1.815
61971W        W21067  43.444  19.137   3.786
61972W        W21068  22.532  14.812   1.833
61973W        W21069  42.419  37.550   1.256
61974W        W21070  16.574  16.143  13.323
61975W        W21071  15.804  33.939  12.546
61976W        W21072  20.704  11.230  11.526
61977W        W21073  34.432   7.700  11.964
61978W        W21074  13.182  26.087   2.302
61979W        W21075  37.950  28.982  12.823
61980W        W21076  34.522  30.487  11.951
61981W        W21077   9.676  17.633   2.689
61982W        W21078  12.335   0.386  12.936
61983W        W21079   1.247  28.060  12.049
61984W        W21080   7.254  25.647  10.595
61985W        W21081   5.438  15.150   4.174
61986W        W21082   2.227  33.409   3.837
61987W        W21083  38.035  13.277  13.856
61988W        W21084   5.877  36.484   2.181
61989W        W21085  19.776  38.034   3.186
61990W        W21086   2.887  39.344   1.853
61991W        W21087  32.435  23.215  10.547
61992W        W21088  35.938  13.239   3.221
61993W        W21089   3.394  37.871   5.259
61994W        W21090  29.998  32.121  13.490
61995W        W21091  16.307   0.818  14.320
61996W        W21092  37.477  11.656   4.156
61997W        W21093   7.860  12.321  10.568
61998W        W21094  25.658  31.152  10.470
61999W        W21095  12.714   7.911   1.893
62000W        W21096  43.783   9.368   1.904
62001W        W21097  25.089  19.534   1.933
62002W        W21098  17.259  23.679  13.382
62003W        W21099  25.103  26.971  12.046
62004W        W21100  40.961  11.128  13.976
62005W        W21101  23.186  32.581  13.420
62006W        W21102  25.988   3.772   3.180
62007W        W21103   3.365  29.074   2.884
62008W        W21104   0.270  27.556   4.150
62009W        W21105   4.713  17.640  10.489
62010W        W21106  32.933  31.150  13.963
62011W        W21107   1.465  11.697   2.727
62012W        W21108   3.874  10.186  12.433
62013W        W21109  32.923  32.948   1.350
62014W        W21110  27.115  36.056  10.437
62015W        W21111  24.690  24.103   4.690
62016W        W21112  18.729   9.685   2.377
62017W        W21113  32.903  23.655   2.817
62018W        W21114  35.482   9.341   4.750
62019W        W21115   4.220  18.180  14.420
62020W        W21116  41.028  30.632  12.422
62021W        W21117   4.374  30.416  12.900
62022W        W21118   7.694   0.367   3.298
62023W        W21119  11.311  11.357   3.636
62024W        W21120   9.773   4.775   4.296
62025W        W21121  12.146  38.062   4.623
62026W        W21122  42.025  13.753   1.721
62027W        W21123  30.598  38.027   1.318
62028W        W21124   6.820  13.219  12.872
62029W        W21125  33.939  21.175   3.869
62030W        W21126  12.826   4.287   3.792
62031W        W21127  16.758  15.803   0.258
62032W        W21128   7.254  11.757   1.801
62033W        W21129  17.581   7.783  12.509
62034W        W21130  19.244  25.713   3.803
62035W        W21131  13.651  29.163   2.263
62036W        W21132  21.662   2.786   1.409
62037W        W21133  42.960  34.064   0.849
62038W        W21134  12.610   5.201  10.995
62039W        W21135  15.742  21.620   1.837
62040W        W21136   9.250  44.933   3.765
62041W        W21137  14.730  23.491  11.441
62042W        W21138  34.443  28.639   1.315
62043W        W21139   4.882   5.274  14.935
62044W        W21140  18.583  44.503   5.129
62045W        W21141  40.413  34.119  11.414
62046W        W21142  23.172  44.786   2.378
62047W        W21143   2.917   9.208   2.282
62048W        W21144  28.112   8.320  13.313
62049W        W21145  30.056  41.396  14.924
62050W        W21146  10.235  13.697   4.212
62051W        W21147  35.954  31.149  12.504
62052W        W21148  10.362  43.330   3.264
62053W        W21149  34.550  13.195  14.816
62054W        W21150  29.605  21.253  14.790
62055W        W21151  19.581  21.653  13.490
62056W        W21152  24.544  16.772  14.918
62057W        W21153  30.968   7.272   3.810
62058W        W21154  14.128  42.339  11.129
62059W        W21155  38.015  26.475   2.313
62060W        W21156   5.706  26.522   4.787
62061W        W21157  11.319  27.179   1.837
62062W        W21158  17.250  29.462   0.776
62063W        W21159  25.644   0.333  13.010
62064W        W21160  33.130  18.262   0.305
62065W        W21161  39.534  19.233  11.547
62066W        W21162  21.665   9.171   2.819
62067W        W21163   0.756  13.270   0.453
62068W        W21164  34.901  20.760   3.704
62069W        W21165  11.708   4.360   2.697
62070W        W21166  32.021  36.565   1.834
62071W        W21167  11.700   2.781  12.974
62072W        W21168   3.748  36.388  14.303
62073W        W21169  21.239  42.881  14.909
62074W        W21170  44.499  23.662   1.847
62075W        W21171   2.385  39.989   3.642
62076W        W21172  37.392  30.073   0.327
62077W        W21173  24.170   0.909   4.820
62078W        W21174   2.887  15.755   3.689
62079W        W21175  44.844  10.196   1.213
62080W        W21176  32.993  12.313  14.314
62081W        W21177  15.791  37.404  11.952
62082W        W21178  29.040   6.334  14.782
62083W        W21179  12.197  33.114  13.949
62084W        W21180  12.273  10.668  10.555
62085W        W21181   7.238  43.313   4.279
62086W        W21182   0.899  29.926  14.408
62087W        W21183   8.695  23.217  12.071
62088W        W21184  30.548   3.422  11.891
62089W        W21185  12.135   1.471   1.310
62090W        W21186   4.319  15.246  13.855
62091W        W21187   4.253   9.775   3.839
62092W        W21188  20.141   1.390  13.501
62093W        W21189   4.216  13.821   0.929
62094W        W21190  28.162   1.900   0.357
62095W        W21191  10.647   5.793  11.476
62096W        W21192   6.796  22.074   2.414
62097W        W21193  39.860  35.445   0.832
62098W        W21194  44.499  27.086  13.853
62099W        W21195  44.388   0.835  10.994
62100W        W21196   9.768  13.182  14.513
62101W        W21197  11.808  40.426   1.280
62102W        W21198  11.344  33.464  14.381
62103W        W21199   1.804  15.125   2.770
62104W        W21200  19.115  18.605   4.217
62105W        W21201  17.775  13.131  13.521
62106W        W21202  23.623   4.399   2.824
62107W        W21203  28.511  39.551   4.252
62108W        W21204  15.162  22.113  11.094
62109W        W21205  34.074  39.349  13.528
62110W        W21206  12.311  31.930  14.762
62111W        W21207  27.176   3.826   3.241
62112W        W21208  33.485  24.668  12.961
62113W        W21209  35.858  42.795  14.836
62114W        W21210   7.211   9.745  12.426
62115W        W21211  27.017  15.198   4.682
62116W        W21212  34.937  13.113   0.767
62117W        W21213  29.984  36.426  11.596
62118W        W21214   3.349   9.818   2.348
62119W        W21215  12.831  30.474   1.254
62120W        W21216  33.434  13.795  12.402
62121W        W21217  23.569  31.099   4.786
62122W        W21218  44.334  27.614  10.151
62123W        W21219   2.963  23.168  12.867
62124W        W21220   2.232  27.554   3.302
62125W        W21221  39.383  21.163  14.398
62126W        W21222  10.833  33.454  12.511
62127W        W21223  23.048   9.313  13.425
62128W        W21224  25.015  20.624   3.827
62129W        W21225  36.548  11.644   1.840
62130W        W21226   7.782   1.428   0.900
62131W        W21227   3.867  29.134  12.554
62132W        W21228  43.350  40.053  13.863
62133W        W21229  36.404   7.758   3.341
62134W        W21230  22.183  18.683   1.317
62135W        W21231  41.028  12.352   4.332
62136W        W21232  14.763  18.208  14.487
62137W        W21233  31.920  12.698   3.717
62138W        W21234  43.921  28.563  13.843
62139W        W21235  15.643   6.782   3.843
62140W        W21236  35.105  12.200   4.115
62141W        W21237  43.883  40.419  11.380
62142W        W21238  38.067  22.043   0.967
62143W        W21239  22.592   9.816  14.785
62144W        W21240  15.150  44.952   4.155
62145W        W21241  12.223  24.604   2.333
62146W        W21242  21.150  42.299  12.420
62147W        W21243  18.637  13.817  13.536
62148W        W21244  16.092   0.801   0.782
62149W        W21245   4.935  18.584   2.294
62150W        W21246  36.505  14.801   2.724
62151W        W21247  15.103  41.302  12.987
62152W        W21248   5.803  35.865   2.670
62153W        W21249  27.589  20.536   1.369
62154W        W21250  38.924  39.966   4.321
62155W        W21251  15.690  25.004   9.944
62156W        W21252  19.725  24.158  11.860
62157W        W21253  40.317  30.481   0.370
62158W        W21254  33.943   2.918   1.220
62159W        W21255   1.829  42.028   1.237
62160W        W21256  27.044  37.562   0.782
62161W        W21257   7.199  42.786   4.319
62162W        W21258   6.221  17.591  13.541
62163W        W21259  22.996  24.134  14.364
62164W        W21260  34.589  22.597   3.811
62165W        W21261  21.192  22.059  11.552
62166W        W21262  23.573  24.194   1.306
62167W        W21263  15.296  39.857   9.935
62168W        W21264  43.930  29.928  10.420
62169W        W21265  37.453  23.166   4.705
62170W        W21266  17.122  29.564  13.381
62171W        W21267  33.973  15.261   1.760
62172W        W21268  40.416   4.836   1.857
62173W        W21269  42.924   8.714   2.684
62174W        W21270  42.915   4.901  13.856
62175W        W21271  27.986  38.418  13.484
62176W        W21272  18.122  15.703   0.841
62177W        W21273  20.584  11.350   9.503
62178W        W21274   1.406   1.888  11.432
62179W        W21275  18.602  26.478   5.109
62180W        W21276  39.845  42.788   3.210
62181W        W21277  18.581  21.573   1.342
62182W        W21278  14.307   2.349  11.596
62183W        W21279  40.402  24.675  10.641
62184W        W21280  38.464  29.033   4.201
62185W        W21281  10.688   4.709   2.382
62186W        W21282  15.160  19.536   2.817
62187W        W21283  25.580   1.785   0.448
62188W        W21284  17.559  10.158   4.779
62189W        W21285  37.350  13.776   4.608
62190W        W21286   1.286  36.458   4.217
62191W        W21287   5.857  32.005  13.396
62192W        W21288  12.335   5.225   1.825
62193W        W21289  39.850  16.209  12.497
62194W        W21290  11.791  17.189  11.546
62195W        W21291   0.464  31.490   3.789
62196W        W21292  37.436  11.811   4.791
62197W        W21293  23.095  42.789  11.419
62198W        W21294  14.112  16.658  10.501
62199W        W21295  27.666   2.758   4.723
62200W        W21296  25.512   8.373   1.715
62201W        W21297  23.499  23.535   1.877
62202W        W21298  35.420  41.361   2.878
62203W        W21299  31.911  34.596  14.465
62204W        W21300  25.987  19.724  13.336
62205W        W21301  31.924  15.683  14.447
62206W        W21302   2.822  16.697  14.825
62207W        W21303  41.010  32.561   1.782
62208W        W21304  15.817   5.312  11.947
62209W        W21305   8.800  15.304  14.815
62210W        W21306  11.816  20.744  11.899
62211W        W21307  44.831  22.586  12.876
62212W        W21308  13.634  30.164   2.407
62213W        W21309  25.531   3.309   0.930
62214W        W21310  28.029  32.435  10.097
62215W        W21311  17.744  39.508   3.799
62216W        W21312   1.451  28.941   1.260
62217W        W21313  23.195  42.776  13.402
62218W        W21314  41.006   0.396   3.727
62219W        W21315  41.407  11.326  10.974
62220W        W21316  44.986  33.908   3.793
62221W        W21317  16.314  35.486  14.829
62222W        W21318  39.481  10.141  12.417
62223W        W21319  25.041  12.242  13.431
62224W        W21320  20.275   7.225   1.317
62225W        W21321  42.460   0.862   3.211
62226W        W21322  29.650  24.193  10.061
62227W        W21323  19.655  15.744  10.982
62228W        W21324  25.706  11.754   0.801
62229W        W21325  42.469   3.398   4.203
62230W        W21326   4.328  31.402   2.699
62231W        W21327  37.501  10.297  10.502
62232W        W21328  28.638  11.717   4.659
62233W        W21329  17.302  12.251   0.931
62234W        W21330   2.728  35.094   4.799
62235W        W21331  42.834  38.369   2.296
62236W        W21332  21.211  36.535  11.897
62237W        W21333  23.011  31.090   3.284
62238W        W21334  31.028  33.522  11.508
62239W        W21335   1.798  39.434   2.178
62240W        W21336  38.464  18.106   2.344
62241W        W21337   6.865  14.641  10.612
62242W        W21338  39.380  30.574   3.654
62243W        W21339  32.939   6.288  14.401
62244W        W21340   6.281  40.878   1.364
62245W        W21341   1.965  27.039   4.267
62246W        W21342  19.155  30.576  13.370
62247W        W21343  15.657  40.473   4.816
62248W        W21344   3.453  25.208  13.793
62249W        W21345  16.115  36.874  11.996
62250W        W21346   5.420   6.301  14.954
62251W        W21347  15.209  15.793  12.902
62252W        W21348  26.572  19.713   2.881
62253W        W21349   8.852  18.671   2.757
62254W        W21350   8.212  32.441   4.733
62255W        W21351   1.749  33.090  14.450
62256W        W21352  27.010  44.287  13.887
62257W        W21353  39.825   3.786  11.113
62258W        W21354  23.016  22.631  11.963
62259W        W21355  22.617  44.386   4.349
62260W        W21356  27.591  13.811   2.828
62261W        W21357  23.555   3.309   3.297
62262W        W21358  10.879   7.189  14.823
62263W        W21359   9.188  35.471  14.995
62264W        W21360  22.730  20.690  13.893
62265W        W21361  39.854   5.797   3.230
62266W        W21362  14.266  12.234  11.458
62267W        W21363  42.315   8.183  10.472
62268W        W21364  24.611  42.883  11.504
62269W        W21365  15.289  30.091   1.768
62270W        W21366  21.574  26.557  12.949
62271W        W21367  26.047   1.247  12.923
62272W        W21368  32.943  21.516   2.324
62273W        W21369   9.310  30.027   0.732
62274W        W21370  20.055  20.227   1.926
62275W        W21371  37.406   1.317  11.443
62276W        W21372  44.436   8.781   4.739
62277W        W21373  15.648  26.703   4.603
62278W        W21374   4.292   2.877   0.357
62279W        W21375   3.404  11.706  14.975
62280W        W21376   0.796  21.660  11.056
62281W        W21377  25.213  16.096   4.617
62282W        W21378  22.092   8.303   9.951
62283W        W21379   7.766  18.280  14.985
62284W        W21380  22.064  13.160  14.807
62285W        W21381  29.157   8.734  11.057
62286W        W21382   9.374   0.367   1.231
62287W        W21383   9.875  19.635   1.780
62288W        W21384  16.702   0.980   0.884
62289W        W21385  14.305   0.885   4.335
62290W        W21386  26.024  23.038   1.322
62291W        W21387   0.274   3.452  10.462
62292W        W21388  26.663  36.387  11.957
62293W        W21389  26.604  22.146   3.787
62294W        W21390  23.183  33.588  12.450
62295W        W21391  26.982   8.328  13.411
62296W        W21392  25.708  29.483  12.479
62297W        W21393  31.480  38.418   0.318
62298W        W21394  44.956   8.769   0.872
62299W        W21395  34.894  38.411   4.157
62300W        W21396  25.158  22.068  10.159
62301W        W21397  41.875  22.676  11.936
62302W        W21398   3.372  28.494   4.828
62303W        W21399   3.238  22.681   1.330
62304W        W21400   0.871  26.701  13.380
62305W        W21401  18.159  10.701   0.889
62306W        W21402  18.111  28.447   3.724
62307W        W21403  22.599  34.387  11.571
62308W        W21404  25.052  14.248  13.472
62309W        W21405  44.320  10.339   5.160
62310W        W21406  21.647  20.178  13.920
62311W        W21407  25.497  12.353  12.088
62312W        W21408  12.627  21.252   0.440
62313W        W21409   2.326  24.529   3.821
62314W        W21410   0.257  16.212   1.330
62315W        W21411  39.847  23.069   1.695
62316W        W21412  20.266  13.691   4.196
62317W        W21413   5.739  38.408  14.941
62318W        W21414   0.313   3.743   3.168
62319W        W21415  24.613  25.169  13.818
62320W        W21416  21.597  27.468  11.448
62321W        W21417  21.745  15.708   4.729
62322W        W21418  11.815  24.548  12.013
62323W        W21419  15.322  37.339  13.954
62324W        W21420  21.136  12.703   3.803
62325W        W21421  24.516  33.540  13.508
62326W        W21422  32.943  21.730   4.193
62327W        W21423   0.929  16.084  10.945
62328W        W21424  34.887   1.353  12.076
62329W        W21425  13.599  41.838   0.814
62330W        W21426  40.540  42.457  10.526
62331W        W21427  32.393   8.847  10.960
62332W        W21428   1.781  34.870  13.018
62333W        W21429  15.261  12.148   1.746
62334W        W21430  32.109  27.494   2.348
62335W        W21431   1.477  38.971  12.368
62336W        W21432   5.867  16.699   2.239
62337W        W21433   5.792  38.032  14.461
62338W        W21434  19.094   7.781  13.495
62339W        W21435   6.256  32.115   3.656
62340W        W21436  20.086  33.121   3.253
62341W        W21437   5.793   2.963   3.226
62342W        W21438   8.233  39.398   1.286
62343W        W21439  15.724  26.047   1.787
62344W        W21440  15.750  21.724  11.401
62345W        W21441   4.239  28.096  12.426
62346W        W21442  20.061  21.730  14.959
62347W        W21443  14.241  36.961   2.811
62348W        W21444  19.203  37.904  13.489
62349W        W21445   5.411  15.764  11.565
62350W        W21446  10.373  39.431   0.767
62351W        W21447  17.181  32.418  10.637
62352W        W21448   1.420  22.740  12.552
62353W        W21449  29.064  43.866  13.054
62354W        W21450  43.313  33.099   0.361
62355W        W21451  42.904  25.101   3.257
62356W        W21452  31.953  11.174   3.245
62357W        W21453  36.089  23.059  12.965
62358W        W21454  18.092  19.715   1.285
62359W        W21455  26.620  44.304   4.675
62360W        W21456  25.618  28.131   1.237
62361W        W21457  40.881  33.042  13.902
62362W        W21458  39.928  12.170  10.437
62363W        W21459  35.382  31.646   2.850
62364W        W21460  44.324  12.769  11.563
62365W        W21461  11.362  24.511   1.772
62366W        W21462  14.274  43.971  10.155
62367W        W21463  21.591  13.208   0.863
62368W        W21464  18.091   3.782  12.523
62369W        W21465  23.684  42.420   1.808
62370W        W21466  41.307  27.194   3.356
62371W        W21467   0.465   6.217   1.783
62372W        W21468  21.242  34.965  14.902
62373W        W21469  26.985  23.998  10.511
62374W        W21470  15.674  22.192   1.363
62375W        W21471   7.736   9.863  12.919
62376W        W21472  23.715  25.128   1.876
62377W        W21473  25.619   3.246  10.461
62378W        W21474   1.241  22.064   4.187
62379W        W21475  10.339  23.153   0.248
62380W        W21476  36.078   7.339   4.645
62381W        W21477  18.124  44.991  13.798
62382W        W21478  42.467  29.430   3.843
62383W        W21479  26.184  15.210   1.343
62384W        W21480  23.684  37.881  11.126
62385W        W21481  16.725  33.474  10.487
62386W        W21482  41.387  10.792  10.533
62387W        W21483  10.290  30.949   1.918
62388W        W21484  25.134  26.478   0.887
62389W        W21485  26.170   3.422   2.733
62390W        W21486   7.344   5.846  10.576
62391W        W21487   3.841  19.771  11.564
62392W        W21488   6.263  36.488   4.599
62393W        W21489  28.131  19.146  12.010
62394W        W21490  44.000  25.019  14.953
62395W        W21491  11.313  19.778  10.424
62396W        W21492  21.702  16.092   0.800
62397W        W21493   0.879  39.405  10.512
62398W        W21494  43.842   0.848   4.206
62399W        W21495  36.559  39.437   4.725
62400W        W21496   2.789  26.184  14.428
62401W        W21497  40.322  22.693  12.562
62402W        W21498  43.347  20.152  13.456
62403W        W21499   2.304  39.527  11.087
62404W        W21500  17.247  42.319  11.566
62405W        W21501  20.042  11.337  14.278
62406W        W21502  44.456  39.553   2.282
62407W        W21503  23.112  23.170  13.361
62408W        W21504  17.099  23.728   3.347
62409W        W21505  42.351  18.275   4.631
62410W        W21506  30.023   5.916  13.873
62411W        W21507   1.348   5.781  13.538
62412W        W21508  16.306  24.207   3.639
62413W        W21509  24.668  14.656  11.069
62414W        W21510   0.348  42.906  11.969
62415W        W21511  25.973  38.989   4.161
62416W        W21512  11.766  39.457  14.896
62417W        W21513  37.342  31.584   4.126
62418W        W21514   3.322  39.384   1.333
62419W        W21515  22.647  36.857  14.371
62420W        W21516  31.899  12.313  13.544
62421W        W21517  43.888  32.566  11.965
62422W        W21518  21.705  24.519  14.759
62423W        W21519  12.720  33.606   1.296
62424W        W21520   4.272  38.027  13.488
62425W        W21521   1.389   7.841  12.025
62426W        W21522   9.156  38.041   1.769
62427W        W21523  41.410  13.617  10.594
62428W        W21524  41.395  34.975  13.385
62429W        W21525  39.030  39.435  12.914
62430W        W21526  18.178  42.408  12.479
62431W        W21527   6.800  35.496   3.860
62432W        W21528  25.517  44.780   3.817
62433W        W21529   1.774  10.235   2.191
62434W        W21530  16.768  21.655  14.477
62435W        W21531  29.092  27.076  14.961
62436W        W21532  20.649   4.715  11.406
62437W        W21533  32.951  17.673   1.798
62438W        W21534  22.244   3.427  10.468
62439W        W21535  43.343   9.390  13.436
62440W        W21536  41.419  13.107  13.902
62441W        W21537  33.457   8.215   1.365
62442W        W21538  38.038   3.722  10.530
62443W        W21539  43.807  17.588   3.211
62444W        W21540  22.532   8.897  11.030
62445W        W21541  11.805  27.476  11.093
62446W        W21542  40.853  10.198  10.430
62447W        W21543  40.831  31.956   0.937
62448W        W21544  39.913  35.083  13.432
62449W        W21545  37.960  34.937  10.446
62450W        W21546  26.115  16.123   1.731
62451W        W21547  35.027  44.345  11.947
62452W        W21548  35.881  15.703  11.998
62453W        W21549  24.201  18.286  14.926
62454W        W21550  33.546  41.410   0.379
62455W        W21551  29.101  23.516   3.737
62456W        W21552  43.006  11.126  14.488
62457W        W21553  42.886  15.787  11.110
62458W        W21554   9.886  11.854  11.925
62459W        W21555  33.016   3.830  10.553
62460W        W21556  37.014  15.795   2.345
62461W        W21557  30.591  42.516   4.352
62462W        W21558  14.730  15.183   9.472
62463W        W21559   8.388  38.005  10.935
62464W        W21560   2.956  16.105  13.921
62465W        W21561  12.778  33.504   4.650
62466W        W21562   0.959   7.386   2.398
62467W        W21563  38.933   1.323   0.762
62468W        W21564  14.799   4.730   1.306
62469W        W21565   9.346  18.182   3.856
62470W        W21566   1.858  14.205   1.364
62471W        W21567  32.036  20.044   4.760
62472W        W21568  12.723  30.475   3.857
62473W        W21569  31.627  15.118   0.360
62474W        W21570   4.897  42.476  13.388
62475W        W21571  39.558  32.965   1.886
62476W        W21572  41.887  10.302   3.733
62477W        W21573  20.648  27.958   0.305
62478W        W21574  24.166  15.092   3.189
62479W        W21575   0.451  34.925  10.435
62480W        W21576  33.933  33.019  14.395
62481W        W21577  41.294  25.643  14.281
62482W        W21578   3.907  22.726  14.440
62483W        W21579  40.412  24.540  10.917
62484W        W21580   4.227  11.678  11.519
62485W        W21581  44.968   7.280  12.567
62486W        W21582  15.582  10.160  13.967
62487W        W21583  22.537  39.474   1.252
62488W        W21584  19.227  19.728  14.456
62489W        W21585  11.675  20.245  12.379
62490W        W21586   1.427  34.475   4.742
62491W        W21587  35.870  41.931   3.216
62492W        W21588   2.947  35.915   4.598
62493W        W21589  32.946  11.841   2.879
62494W        W21590   7.892  31.100  11.393
62495W        W21591  11.852  38.072   3.816
62496W        W21592   6.269  42.495  13.427
62497W        W21593   2.339  18.697   4.217
62498W        W21594  43.510   1.313   0.940
62499W        W21595  37.048   7.268   2.284
62500W        W21596   1.832  19.572  13.475
62501W        W21597   3.400  12.293  14.413
62502W        W21598  23.714  19.211   4.781
62503W        W21599   4.399  37.474   1.301
62504W        W21600  43.428  33.585   1.393
62505W        W21601  37.866  29.081   5.091
62506W        W21602   9.735  43.460  13.961
62507W        W21603  11.130  40.346  14.782
62508W        W21604  21.263   7.912   1.218
62509W        W21605   8.258   6.359   0.295
62510W        W21606  12.756  14.687  12.865
62511W        W21607  24.507  22.214   0.394
62512W        W21608   2.433  12.691   1.824
62513W        W21609  26.972  27.469   4.679
62514W        W21610  22.170  19.121  12.057
62515W        W21611  25.640  32.591   0.951
62516W        W21612  24.112  11.776   2.182
62517W        W21613  40.476  37.367  14.317
62518W        W21614  22.024  27.961   1.873
62519W        W21615  36.005  20.104   2.803
62520W        W21616  40.906  28.580  10.912
62521W        W21617  35.460  39.329  11.379
62522W        W21618  39.360  16.084  13.944
62523W        W21619   0.425  29.651  12.538
62524W        W21620  26.577  35.529  13.908
62525W        W21621  38.335  39.376   3.770
62526W        W21622   6.358   1.953  11.392
62527W        W21623  29.952  20.144   1.821
62528W        W21624  30.496  34.588  14.341
62529W        W21625  42.910  18.586   0.882
62530W        W21626  14.772   3.896  13.412
62531W        W21627   8.867  24.548  10.143
62532W        W21628   7.864  18.081  10.554
62533W        W21629  39.919  43.775  13.534
62534W        W21630  16.736  29.963  14.013
62535W        W21631  16.119  16.226   4.797
62536W        W21632   5.401   4.218  13.877
62537W        W21633  19.104  40.995  11.520
62538W        W21634  29.503  17.078   4.125
62539W        W21635   0.973  41.005  11.479
62540W        W21636   3.835   6.240   1.369
62541W        W21637   6.919  27.006   4.657
62542W        W21638  39.387  14.215   2.345
62543W        W21639  22.632  32.939  10.968
62544W        W21640  12.697  28.042  11.869
62545W        W21641  42.379  40.962   2.696
62546W        W21642  21.710   7.416   0.353
62547W        W21643   8.657   8.856   1.210
62548W        W21644  30.570  37.968   3.220
62549W        W21645  41.928  20.532  11.555
62550W        W21646   5.867  10.230   0.852
62551W        W21647  37.578  34.901   3.648
62552W        W21648  30.056  28.076   3.792
62553W        W21649  15.136  11.144  14.879
62554W        W21650  27.605  15.287  11.528
62555W        W21651  34.865  31.465  12.386
62556W        W21652  19.673   3.308  14.020
62557W        W21653  14.321  30.967   3.204
62558W        W21654  11.826  26.018  12.899
62559W        W21655  17.718  38.898  10.540
62560W        W21656  30.101  15.176   2.735
62561W        W21657  16.666  20.092  11.023
62562W        W21658  11.273  19.536   3.264
62563W        W21659   2.767  11.646   3.353
62564W        W21660  34.416  25.713   4.820
62565W        W21661   4.853  11.158  13.408
62566W        W21662  21.068  41.460  10.160
62567W        W21663   2.730  28.183  13.353
62568W        W21664   7.853  14.767   1.857
62569W        W21665  14.812  14.645   1.292
62570W        W21666  19.541  29.545   0.446
62571W        W21667  25.674   5.893   2.833
62572W        W21668  19.233  20.684   4.652
62573W        W21669  35.381  14.239   0.466
62574W        W21670  28.985  33.567  13.454
62575W        W21671  24.197  12.323  10.602
62576W        W21672  18.119  13.166  12.095
62577W        W21673  29.533  15.235   0.787
62578W        W21674  43.813  36.930   4.185
62579W        W21675  11.258   8.761   0.322
62580W        W21676  14.701  16.737   3.818
62581W        W21677  43.010  31.402  13.882
62582W        W21678  29.538  36.517   2.360
62583W        W21679  41.304  21.134   3.262
62584W        W21680  22.026  17.694  11.521
62585W        W21681  30.595  12.633   2.709
62586W        W21682   4.243   0.397   3.754
62587W        W21683  18.224   0.946  12.494
62588W        W21684  14.270  21.035  12.417
62589W        W21685  26.131  33.119   2.902
62590W        W21686   9.693   8.802  13.036
62591W        W21687  23.618   4.752  12.982
62592W        W21688  44.765  11.241   4.768
62593W        W21689  43.827  18.743   3.864
62594W        W21690  16.227  14.326   3.241
62595W        W21691  29.099   6.281   0.886
62596W        W21692  38.532   4.876  13.522
62597W        W21693  35.969   8.256   0.473
62598W        W21694   2.846   2.853  14.965
62599W        W21695  22.597   7.305   3.382
62600W        W21696  36.488  35.072  14.343
62601W        W21697  39.956  16.570   0.462
62602W        W21698  18.209  13.107  13.952
62603W        W21699  26.525  31.919   3.639
62604W        W21700  11.164  43.927   4.297
62605W        W21701  26.689  44.753  10.985
62606W        W21702  15.733  40.018  11.086
62607W        W21703  40.543  14.200   2.339
62608W        W21704   2.907  24.644   9.590
62609W        W21705  27.675  33.986   4.143
62610W        W21706   8.222  34.047  14.405
62611W        W21707  29.518   5.722  10.985
62612W        W21708  21.647  40.303   3.788
62613W        W21709  10.851  42.471  12.446
62614W        W21710  15.275  28.658   4.824
62615W        W21711  27.059   0.754  13.885
62616W        W21712  40.464  18.580  14.831
62617W        W21713  36.884  13.324   4.642
62618W        W21714   3.254  34.989   1.828
62619W        W21715   2.896  43.293   0.913
62620W        W21716   1.767  33.090   1.860
62621W        W21717  20.606   5.743   2.833
62622W        W21718  22.080  34.436  14.963
62623W        W21719  32.073  18.788  12.038
62624W        W21720  30.940   9.846  12.554
62625W        W21721  41.890  19.742   1.813
62626W        W21722  13.180   7.377   5.229
62627W        W21723   4.246   9.319  14.971
62628W        W21724  33.892   8.848   4.673
62629W        W21725  37.868   2.291   3.680
62630W        W21726  40.863  25.484   1.862
62631W        W21727  28.487  23.117   0.393
62632W        W21728  18.690  38.370   1.378
62633W        W21729   1.971   2.742   0.899
62634W        W21730   1.923  29.598   1.932
62635W        W21731  22.723   1.956   3.771
62636W        W21732  43.318  21.113   3.698
62637W        W21733  41.908  37.050  14.864
62638W        W21734  20.555  39.392   4.827
62639W        W21735  42.787  25.099   2.228
62640W        W21736  21.240  14.643  10.523
62641W        W21737  30.037  16.741   3.781
62642W        W21738   2.932   2.419  11.040
62643W        W21739  35.507  13.794  10.921
62644W        W21740   8.365   3.858  13.339
62645W        W21741  37.960  35.970  10.621
62646W        W21742  34.944   6.728  12.081
62647W        W21743  33.884  18.291  12.959
62648W        W21744   3.247   9.868   4.725
62649W        W21745  43.973   1.324  13.504
62650W        W21746  11.807  27.993  14.374
62651W        W21747   0.748  26.471  14.360
62652W        W21748   3.236  15.665  12.082
62653W        W21749  34.109  43.505  12.485
62654W        W21750  27.596  36.013   0.874
62655W        W21751  18.686  35.543  10.628
62656W        W21752  13.136  37.558   2.751
62657W        W21753   4.363  14.233  12.517
62658W        W21754  23.085  44.406  13.314
62659W        W21755  33.079  19.613   4.645
62660W        W21756  32.613  42.810  12.927
62661W        W21757  17.108   6.323   4.266
62662W        W21758  17.769  19.755  13.494
62663W        W21759  43.396   5.404  13.323
62664W        W21760  16.575  23.507   3.218
62665W        W21761  33.006  19.250   3.717
62666W        W21762  32.084  33.918   3.260
62667W        W21763  43.837  12.181   4.136
62668W        W21764  25.567  20.599  14.435
62669W        W21765  15.320  41.832  10.557
62670W        W21766  34.373  17.790   5.728
62671W        W21767  31.071  21.184   1.339
62672W        W21768  27.669  28.561  13.428
62673W        W21769  21.653  22.043  12.874
62674W        W21770  14.828   5.897   4.780
62675W        W21771  22.652  31.932  10.465
62676W        W21772   9.153  12.190  13.437
62677W        W21773   7.295   8.325  14.799
62678W        W21774  40.897  10.677   0.249
62679W        W21775  26.954  18.224   0.404
62680W        W21776  21.037  24.190  14.813
62681W        W21777  34.609  17.166   1.356
62682W        W21778  15.676   5.362   4.828
62683W        W21779  23.702  18.227   0.942
62684W        W21780  15.134   1.275   1.824
62685W        W21781  38.846  38.379  12.559
62686W        W21782  20.655   8.661  12.526
62687W        W21783  17.668  29.607  13.453
62688W        W21784  36.976  29.617   1.842
62689W        W21785  23.128  24.562  14.001
62690W        W21786  44.305  25.035   0.259
62691W        W21787  26.058  40.419   1.845
62692W        W21788   5.823  29.541  11.490
62693W        W21789  41.517  17.127   0.420
62694W        W21790   5.689  40.365  12.542
62695W        W21791  18.177  24.720  11.962
62696W        W21792  29.019   3.772   3.216
62697W        W21793  16.590  43.879  11.472
62698W        W21794  35.039  12.254  11.050
62699W        W21795  27.147   3.849  12.050
62700W        W21796   0.304   2.422  14.845
62701W        W21797  23.646  15.710   3.867
62702W        W21798  26.460   6.728  13.500
62703W        W21799   4.347   2.254   0.251
62704W        W21800  10.242  19.534  10.041
62705W        W21801  27.999  19.627  12.048
62706W        W21802   2.395  34.461   0.813
62707W        W21803   6.779   8.750   4.814
62708W        W21804  23.986   5.884  11.452
62709W        W21805  43.448  25.560   2.717
62710W        W21806   2.756  17.592   4.149
62711W        W21807  27.565  15.293  14.023
62712W        W21808  24.043  21.081  11.917
62713W        W21809  24.179   9.827   0.825
62714W        W21810   1.798  41.409   2.179
62715W        W21811  41.292  36.028  13.989
62716W        W21812  19.246  22.200   0.376
62717W        W21813  18.700  10.728  13.857
62718W        W21814  19.142  38.334  12.506
62719W        W21815  15.818  37.962  13.326
62720W        W21816   7.858  23.998  12.516
62721W        W21817  13.285  34.095   3.748
62722W        W21818   1.894  35.358   0.428
62723W        W21819  24.022  16.678   3.255
62724W        W21820  17.102  16.629  12.576
62725W        W21821  26.124  33.519  14.464
62726W        W21822  31.936   0.897  10.953
62727W        W21823   4.347  12.762  11.478
62728W        W21824   4.881  12.317  14.313
62729W        W21825   3.344   4.716   4.650
62730W        W21826  23.102  22.145   3.176
62731W        W21827  33.485  13.714  13.029
62732W        W21828  15.578   0.325  12.442
62733W        W21829  26.205  15.134   1.697
62734W        W21830  40.819  26.626  13.375
62735W        W21831  10.180   1.368   3.366
62736W        W21832  22.745  22.057   9.578
62737W        W21833  36.997  31.926   3.714
62738W        W21834  13.688  42.464  13.958
62739W        W21835  21.621  19.115  10.458
62740W        W21836  31.465  44.771  13.992
62741W        W21837  19.196  39.994  13.472
62742W        W21838   8.313   6.787   0.803
62743W        W21839  42.513   2.268  11.513
62744W        W21840   6.310   9.266  14.453
62745W        W21841  40.825   7.327   3.763
62746W        W21842  22.554  35.577   4.697
62747W        W21843  19.638  43.927   1.700
62748W        W21844   2.245  21.054   4.184
62749W        W21845  19.577  10.757  13.961
62750W        W21846  31.516  23.215   0.764
62751W        W21847   8.762  30.412  14.401
62752W        W21848  27.586  14.634   2.376
62753W        W21849   1.385  31.022  10.424
62754W        W21850  24.648  10.741  13.541
62755W        W21851  21.525   8.302   3.777
62756W        W21852  18.556   7.309   3.746
62757W        W21853  44.495  13.768   1.909
62758W        W21854  24.011   8.265  11.402
62759W        W21855   7.237  17.126  11.387
62760W        W21856  31.138  26.984   1.928
62761W        W21857   7.243   5.931   1.821
62762W        W21858  21.680  12.731  13.809
62763W        W21859  21.177   5.282  14.918
62764W        W21860  31.030  30.512   2.346
62765W        W21861  19.272  42.943   3.281
62766W        W21862  25.085  42.817  14.916
62767W        W21863   8.855  23.142   1.245
62768W        W21864  31.938  43.433  14.504
62769W        W21865  34.091  16.673  11.553
62770W        W21866  20.117  31.467   0.364
62771W        W21867  35.051  30.649   1.353
62772W        W21868   0.492   8.694   1.279
62773W        W21869  17.087  41.021  12.020
62774W        W21870  37.941  32.619  11.592
62775W        W21871   0.481   1.417  11.598
62776W        W21872  28.123  42.376   1.910
62777W        W21873  10.858  20.243  13.903
62778W        W21874   9.778  44.998  13.895
62779W        W21875   4.802  24.220   0.730
62780W        W21876  18.791  30.506  11.932
62781W        W21877  40.362   9.232   4.777
62782W        W21878   8.394  14.182  10.636
62783W        W21879   7.276   5.874  12.360
62784W        W21880  27.079  39.336  11.127
62785W        W21881  28.500  44.923   2.389
62786W        W21882  40.001  25.133   3.344
62787W        W21883  16.736  21.250   0.757
62788W        W21884  12.297  39.029  14.375
62789W        W21885  27.150  41.998   1.848
62790W        W21886  38.037  12.757   4.630
62791W        W21887  25.667  34.550   2.179
62792W        W21888  15.666  33.892   2.695
62793W        W21889  32.084  38.957   0.898
62794W        W21890  10.309  22.673   1.914
62795W        W21891  10.761   4.248   2.219
62796W        W21892  21.026  16.303   3.200
62797W        W21893   8.696  27.021   3.344
62798W        W21894  37.401  14.249   3.678
62799W        W21895  37.974  39.815   3.151
62800W        W21896  31.064  18.080   4.199
62801W        W21897  29.504  40.820  11.013
62802W        W21898   7.321  37.901  11.457
62803W        W21899  37.344  31.525   2.799
62804W        W21900  20.054  30.645  11.985
62805W        W21901  37.350  44.339   3.269
62806W        W21902  28.586  35.106   1.741
62807W        W21903  42.031  14.778   4.181
62808W        W21904  17.728  12.222   1.243
62809W        W21905  27.063  43.342   4.262
62810W        W21906   2.823  15.639  11.947
62811W        W21907  36.972  22.686   0.275
62812W        W21908  18.790  11.843   1.742
62813W        W21909  35.021  33.989  11.378
62814W        W21910  17.205  33.545  14.771
62815W        W21911   8.726  10.185   4.294
62816W        W21912  11.644  36.392  13.881
62817W        W21913  16.131  11.827  14.297
62818W        W21914  35.900   0.396   2.793
62819W        W21915  37.503  37.531  12.902
62820W        W21916  26.637  10.305  11.089
62821W        W21917   9.759  40.973  11.112
62822W        W21918  20.137  22.245   4.225
62823W        W21919   9.868  34.423  12.054
62824W        W21920  41.409  42.797  11.925
62825W        W21921   6.842   6.875  10.987
62826W        W21922  44.773   1.404   1.792
62827W        W21923  39.877   8.247   0.270
62828W        W21924  33.525  27.642  12.045
62829W        W21925  25.585  14.301  11.962
62830W        W21926   3.424   3.722  13.908
62831W        W21927   5.259  20.607  12.858
62832W        W21928  13.298  18.166   1.833
62833W        W21929  30.011  11.719   0.885
62834W        W21930  10.831  39.365  11.532
62835W        W21931  40.979  13.654  10.404
62836W        W21932  24.556  21.543  14.407
62837W        W21933  39.951  11.326  10.132
62838W        W21934  13.208   2.272   2.818
62839W        W21935  35.483  17.206  12.059
62840W        W21936  29.030  31.114  11.871
62841W        W21937  20.254  23.094  13.504
62842W        W21938   1.446  41.381  14.276
62843W        W21939  22.237  38.529  13.489
62844W        W21940  26.468   3.372   4.332
62845W        W21941  27.494  43.312  13.925
62846W        W21942   3.715   4.377  12.945
62847W        W21943  18.648   2.234   1.212
62848W        W21944  22.706  28.614   3.788
62849W        W21945  18.632   4.261   2.343
62850W        W21946  27.017  38.878   3.235
62851W        W21947  33.481  21.033  14.768
62852W        W21948  31.987  36.537   1.236
62853W        W21949  35.386   0.483  13.895
62854W        W21950  40.949  37.348   0.374
62855W        W21951   3.811   5.808  14.767
62856W        W21952  44.769  17.584   0.913
62857W        W21953  12.192  14.300  14.892
62858W        W21954  43.316  10.847   4.150
62859W        W21955  22.050  23.118   2.812
62860W        W21956  36.417  17.665  13.344
62861W        W21957  25.552   7.249   2.899
62862W        W21958  10.196  30.473   5.283
62863W        W21959  14.134  11.234  11.504
62864W        W21960  36.998  43.346   1.754
62865W        W21961  20.760  10.214  12.051
62866W        W21962  20.718  42.819   4.197
62867W        W21963  23.994  30.116   4.731
62868W        W21964  30.038  13.730   1.908
62869W        W21965  11.130  33.937   3.292
62870W        W21966  22.614  12.143   2.412
62871W        W21967  11.640   8.897   1.424
62872W        W21968  24.514  18.095  10.500
62873W        W21969  41.534  44.487  14.402
62874W        W21970   5.784  39.040   1.300
62875W        W21971  21.515  37.407  12.415
62876W        W21972  32.919  36.389  13.372
62877W        W21973  27.467   1.807  13.344
62878W        W21974  26.642  12.286  10.454
62879W        W21975  42.502  22.075   0.393
62880W        W21976  14.606  33.571  14.365
62881W        W21977  21.718   3.752   0.768
62882W        W21978  33.120  26.670  14.897
62883W        W21979  41.416  22.545   0.881
62884W        W21980  38.029   6.347  13.061
62885W        W21981  13.344   8.746   4.616
62886W        W21982   0.915   1.888   3.205
62887W        W21983  36.925  19.236   3.687
62888W        W21984   0.788   4.769  10.464
62889W        W21985   8.230  36.475  12.882
62890W        W21986   0.314  21.751  11.464
62891W        W21987  42.886  15.638   0.324
62892W        W21988  11.796  23.019   1.324
62893W        W21989  13.701  40.922   4.201
62894W        W21990  36.506  18.640  10.428
62895W        W21991  19.100  30.134   2.337
62896W        W21992  27.616  28.001   3.711
62897W        W21993  19.687  31.083   1.805
62898W        W21994  40.937  36.080   1.795
62899W        W21995  29.080  11.864  14.277
62900W        W21996  43.001  16.119  12.518
62901W        W21997   2.449  16.614  11.440
62902W        W21998  21.250  41.977   3.342
62903W        W21999  36.051  23.025   3.159
62904W        W22000  31.485  32.133  12.978
62905W        W22001  22.652  42.033   2.818
62906W        W22002   9.713  41.043  14.852
62907W        W22003   1.907  41.986   1.787
62908W        W22004  15.598  41.837   0.265
62909W        W22005  22.643  12.270  11.887
62910W        W22006  10.825  37.423   5.238
62911W        W22007  44.485  43.003   2.673
62912W        W22008  33.006  14.624  12.373
62913W        W22009   5.258   4.336  10.499
62914W        W22010  43.947   8.184   4.683
62915W        W22011  43.412   7.684  12.347
62916W        W22012  37.901  25.477  10.970
62917W        W22013  39.383  15.306  10.918
62918W        W22014  16.296  22.678  14.458
62919W        W22015  38.909  13.333  14.276
62920W        W22016  39.383  23.036  13.802
62921W        W22017  35.561   8.299  11.969
62922W        W22018   5.768  32.032   4.217
62923W        W22019  36.899   0.307   4.836
62924W        W22020  37.387  31.638  11.421
62925W        W22021  40.540   3.881  13.894
62926W        W22022  12.711  42.320   2.774
62927W        W22023  22.207  20.147   5.775
62928W        W22024  17.647   5.367   4.604
62929W        W22025  34.531  38.928   0.368
62930W        W22026  21.600   7.813  13.504
62931W        W22027   7.834  15.746   2.366
62932W        W22028   2.226  12.809  14.467
62933W        W22029   7.305   4.255   4.761
62934W        W22030  19.132  17.558   3.178
62935W        W22031  33.609  22.081  11.011
62936W        W22032  44.803  17.799  10.633
62937W        W22033   4.772  39.943   5.296
62938W        W22034  44.874  35.000  13.487
62939W        W22035  23.538   4.364   4.675
62940W        W22036  37.934   4.845   4.353
62941W        W22037   7.753  10.194  11.429
62942W        W22038  13.747   3.864   1.912
62943W        W22039  36.532  17.684   4.609
62944W        W22040  38.028   1.345   4.627
62945W        W22041  12.152  27.532   0.372
62946W        W22042  24.219  22.177  11.910
62947W        W22043   8.782  36.394  11.045
62948W        W22044  19.703  10.378  12.963
62949W        W22045  32.046  41.843  12.830
62950W        W22046  41.351  18.785  13.033
62951W        W22047  33.920  44.806  12.992
62952W        W22048  10.224  19.638   4.254
62953W        W22049  18.633  21.073   0.368
62954W        W22050   9.238  11.247   0.434
62955W        W22051  20.108  19.775   2.274
62956W        W22052  21.545  41.899   0.321
62957W        W22053  37.557  37.361  11.480
62958W        W22054  10.780   1.300   1.924
62959W        W22055   8.163  31.464  13.855
62960W        W22056  27.964   1.324  14.334
62961W        W22057  15.154  15.099  12.510
62962W        W22058   3.331  20.565   1.890
62963W        W22059  19.625  27.977  14.871
62964W        W22060  40.478  39.514  13.944
62965W        W22061   4.782  31.909   1.818
62966W        W22062   3.449   4.441  10.463
62967W        W22063  35.869   8.882   3.699
62968W        W22064  11.165   2.347  12.340
62969W        W22065  14.740  32.920  14.881
62970W        W22066  31.463  35.051  14.394
62971W        W22067  42.031  26.488  11.014
62972W        W22068  24.196  20.688  12.037
62973W        W22069  40.547  29.587   4.232
62974W        W22070  39.060  29.604  11.481
62975W        W22071  43.919  17.616   3.797
62976W        W22072  12.730   9.212   1.915
62977W        W22073  37.877   7.907  12.862
62978W        W22074   6.186  42.490   4.752
62979W        W22075  35.532  18.657  11.057
62980W        W22076  30.090  35.570  11.573
62981W        W22077  15.320  11.728   3.832
62982W        W22078  26.099  32.107  12.005
62983W        W22079  33.495  26.139   0.875
62984W        W22080  21.084  39.508  12.439
62985W        W22081  32.069   3.802  12.980
62986W        W22082  10.284   2.365  11.573
62987W        W22083  43.000  36.469   4.823
62988W        W22084  18.677   3.320  10.120
62989W        W22085  42.857  38.908   2.321
62990W        W22086  37.493  28.172   3.174
62991W        W22087  27.179  42.894   0.916
62992W        W22088  38.829  19.550   2.374
62993W        W22089   0.465  19.216  10.594
62994W        W22090  19.675   7.857   3.723
62995W        W22091  22.729  34.054   2.715
62996W        W22092  41.893   3.943   1.880
62997W        W22093  29.575  43.411   0.751
62998W        W22094  28.629   2.830  12.435
62999W        W22095   0.333   1.808  14.419
63000W        W22096   6.787   8.377   4.320
63001W        W22097  32.411  44.954  14.880
63002W        W22098  32.946   0.330   1.387
63003W        W22099   8.257   5.381   4.714
63004W        W22100   7.901  42.299  13.309
63005W        W22101  42.817  43.440  13.920
63006W        W22102   7.687  15.322   4.782
63007W        W22103  33.501  13.665   3.336
63008W        W22104  38.963   9.195  13.903
63009W        W22105  31.557  41.995  10.579
63010W        W22106  27.652  11.678  14.960
63011W        W22107   6.878  37.392  10.480
63012W        W22108  21.705  31.555   3.292
63013W        W22109  21.568  38.469  10.501
63014W        W22110  36.929  34.435  14.356
63015W        W22111  20.618  33.088   2.267
63016W        W22112   2.427   0.960   4.786
63017W        W22113  24.149  21.118   3.160
63018W        W22114  35.524  29.468  11.974
63019W        W22115  44.454  27.009   3.860
63020W        W22116   5.783  13.347  14.508
63021W        W22117  39.947   1.857  10.995
63022W        W22118  19.765  36.879   3.381
63023W        W22119  23.185   7.859   3.185
63024W        W22120  17.271   5.927   9.950
63025W        W22121  43.902  26.982   4.793
63026W        W22122  39.891  30.927   3.173
63027W        W22123  44.888  16.769   4.783
63028W        W22124  25.045   9.242   2.865
63029W        W22125  27.097  20.067  11.509
63030W        W22126  29.489  12.792  12.943
63031W        W22127  40.906  43.335   3.814
63032W        W22128  10.726  13.260  10.907
63033W        W22129  41.984  29.994  13.052
63034W        W22130   8.694  19.040  12.961
63035W        W22131  29.619  24.075   3.298
63036W        W22132  42.417  26.991   1.797
63037W        W22133  42.815   0.857   1.803
63038W        W22134  24.084   6.229   0.834
63039W        W22135  21.228  41.360  11.611
63040W        W22136   3.853   4.892   4.823
63041W        W22137  34.092  43.458   2.403
63042W        W22138  43.434   3.365   3.742
63043W        W22139  18.720  17.212  10.424
63044W        W22140  23.153  32.072   2.298
63045W        W22141  22.647  19.637  11.525
63046W        W22142  40.877  38.362   2.233
63047W        W22143   1.819   5.407   1.407
63048W        W22144  11.170  13.207  11.877
63049W        W22145  33.110  21.589   3.706
63050W        W22146  22.069  37.555  12.383
63051W        W22147  17.148  24.618   2.242
63052W        W22148   4.299  38.524   3.155
63053W        W22149  17.717   8.204   4.790
63054W        W22150  21.637  40.823  10.577
63055W        W22151  20.143  26.526   0.420
63056W        W22152  39.810  24.143   0.871
63057W        W22153  39.972  29.011  11.543
63058W        W22154  32.116  37.357   2.888
63059W        W22155   9.736  20.134   3.739
63060W        W22156  16.142  17.642  13.885
63061W        W22157  22.583   8.262   0.945
63062W        W22158  23.229  26.016   3.364
63063W        W22159  14.796  38.473   5.601
63064W        W22160  39.380  39.050   4.188
63065W        W22161   0.759  20.759   0.965
63066W        W22162  43.863  26.968   3.868
63067W        W22163   5.340   3.868   0.772
63068W        W22164  12.645  31.617  11.019
63069W        W22165  23.197  25.676   3.629
63070W        W22166  40.956  28.438  10.587
63071W        W22167  14.233  15.673   2.360
63072W        W22168  27.582  38.356  13.982
63073W        W22169  41.524   0.396   1.274
63074W        W22170  19.717   7.235   5.291
63075W        W22171  25.007   1.812  12.873
63076W        W22172  20.137  32.912   2.819
63077W        W22173  26.610  33.618   0.796
63078W        W22174  11.129  34.112  14.021
63079W        W22175   4.271  14.241   1.843
63080W        W22176  42.518  12.771  14.467
63081W        W22177  35.920  15.737  14.403
63082W        W22178  43.985  35.874   3.819
63083W        W22179  32.624  39.876   1.846
63084W        W22180  16.760   2.797  13.910
63085W        W22181  30.004  28.509  10.441
63086W        W22182  30.427   2.323   2.780
63087W        W22183  17.146   0.470   1.369
63088W        W22184  36.071   8.668  12.480
63089W        W22185  29.610  10.170  11.043
63090W        W22186  20.189  40.305   3.150
63091W        W22187  44.272   3.233  13.025
63092W        W22188  31.635   3.324  11.378
63093W        W22189   2.315   4.740  10.994
63094W        W22190  16.663  13.715  10.956
63095W        W22191  11.342   8.688  10.522
63096W        W22192  29.083  14.773  14.962
63097W        W22193   4.746  36.050  11.099
63098W        W22194  41.295  26.466   4.137
63099W        W22195  40.952  33.507  10.920
63100W        W22196   0.893  40.028   1.287
63101W        W22197  44.428  10.335  10.931
63102W        W22198  32.035   8.305   0.825
63103W        W22199  44.002  32.932   2.746
63104W        W22200  40.303  35.556   4.804
63105W        W22201  20.585  20.721  14.511
63106W        W22202   6.740  33.995  12.377
63107W        W22203  43.917  28.099  11.925
63108W        W22204   7.213  39.335  12.426
63109W        W22205  28.152  43.273  14.324
63110W        W22206  21.124  28.502   1.798
63111W        W22207  17.242  29.988  14.899
63112W        W22208  33.976  26.202   1.353
63113W        W22209  38.072  43.959  12.023
63114W        W22210  34.044  39.457  10.556
63115W        W22211   3.358  14.818  11.412
63116W        W22212   1.288  30.486  13.487
63117W        W22213  30.012  42.405  10.458
63118W        W22214  41.805  43.928   1.287
63119W        W22215  25.192  31.571  10.561
63120W        W22216   7.182  10.263   4.702
63121W        W22217   0.382  40.824  13.362
63122W        W22218   9.844  22.588   1.244
63123W        W22219   6.241  18.618  12.847
63124W        W22220   8.790  41.295   3.173
63125W        W22221  33.964  13.216  13.960
63126W        W22222  28.147  14.290   9.997
63127W        W22223  39.054  28.678  13.479
63128W        W22224  31.646  44.500   4.280
63129W        W22225  28.456   7.758  11.906
63130W        W22226   2.820  37.039  10.923
63131W        W22227  23.540  29.013   3.347
63132W        W22228   2.884   0.891   0.849
63133W        W22229  28.071  34.109   3.293
63134W        W22230  28.461  37.355  11.494
63135W        W22231   3.311  13.693   0.840
63136W        W22232  36.070   9.286   1.827
63137W        W22233  43.505  27.977   2.873
63138W        W22234   2.789  17.128   2.734
63139W        W22235  24.074  31.039  12.412
63140W        W22236  11.149   1.432   3.312
63141W        W22237  42.942  26.536  14.809
63142W        W22238   3.881  34.027   2.227
63143W        W22239  12.681   4.828   4.164
63144W        W22240  12.183  37.940  12.977
63145W        W22241  34.922  41.426   1.909
63146W        W22242   1.475  40.043   4.777
63147W        W22243  32.542   9.329   3.262
63148W        W22244  23.565   8.239  12.077
63149W        W22245  44.848  22.693   0.747
63150W        W22246  39.433  37.970   4.231
63151W        W22247  10.737  24.191   3.180
63152W        W22248   1.756   7.700  12.413
63153W        W22249  21.617   8.225  11.500
63154W        W22250  41.484  10.706  11.912
63155W        W22251  24.565  41.876  13.380
63156W        W22252   1.760   4.290  11.591
63157W        W22253   4.750  39.839   4.785
63158W        W22254  37.525   5.767  14.960
63159W        W22255   2.323  23.569   0.457
63160W        W22256  44.805  11.791   1.229
63161W        W22257  13.214   0.415  13.884
63162W        W22258  27.959  30.644   0.815
63163W        W22259  41.916  39.064   3.668
63164W        W22260  10.277  11.307   0.792
63165W        W22261  16.654  21.143   2.377
63166W        W22262  20.679  14.147  10.525
63167W        W22263  43.766   7.282   1.721
63168W        W22264   1.275  19.266   2.777
63169W        W22265   7.836  17.304  12.504
63170W        W22266  24.530  31.621   1.763
63171W        W22267  43.360  35.956   2.392
63172W        W22268  29.622  29.628   0.798
63173W        W22269  38.362  10.816  14.850
63174W        W22270  34.453   4.869  10.922
63175W        W22271  13.119   2.815  14.789
63176W        W22272   6.790   2.876   0.776
63177W        W22273  27.553  28.128  14.917
63178W        W22274  25.193  11.239   4.712
63179W        W22275   0.983  39.516   2.721
63180W        W22276  15.631  11.273  10.499
63181W        W22277   9.666   6.730  11.025
63182W        W22278   8.900  24.718  14.430
63183W        W22279  34.537  23.728  10.616
63184W        W22280  39.366  29.465   0.894
63185W        W22281  39.813  25.986  12.839
63186W        W22282  12.142  28.529   2.321
63187W        W22283  40.308  25.578   0.763
63188W        W22284  11.285  31.938   5.652
63189W        W22285  27.197  41.482   4.184
63190W        W22286  13.642  26.642   2.885
63191W        W22287  12.724  12.332   4.753
63192W        W22288  40.821  12.789  10.590
63193W        W22289  15.768   9.745  10.910
63194W        W22290  18.061  36.871   0.409
63195W        W22291  24.610   1.370   2.824
63196W        W22292  32.484  40.526  11.501
63197W        W22293   1.916   2.435   3.723
63198W        W22294  36.353   9.298   9.489
63199W        W22295  16.675  21.228  13.478
63200W        W22296  39.546  13.841   4.685
63201W        W22297  43.395  37.851   0.439
63202W        W22298   0.926  20.572   3.163
63203W        W22299  22.247   7.788   3.386
63204W        W22300  17.560  17.708   2.343
63205W        W22301  24.172  36.388  10.523
63206W        W22302  34.504   9.182   4.597
63207W        W22303  21.721   5.803  13.827
63208W        W22304   0.877   3.771  12.867
63209W        W22305  35.064  17.696  12.860
63210W        W22306   6.240  14.280  12.942
63211W        W22307   6.248  41.979   4.330
63212W        W22308  43.477  34.069   4.757
63213W        W22309   7.746  23.989  10.637
63214W        W22310  30.637   0.299   0.461
63215W        W22311   6.381  15.660   0.340
63216W        W22312  15.777   2.250  12.578
63217W        W22313  16.789  36.561   3.273
63218W        W22314  19.683   0.371   2.178
63219W        W22315  22.212  22.227   3.685
63220W        W22316  42.282   7.756  14.274
63221W        W22317   7.734  33.913  14.826
63222W        W22318  16.754   8.333  14.402
63223W        W22319  20.255  14.108  11.988
63224W        W22320  28.995  29.096   0.321
63225W        W22321  13.164  27.526   4.242
63226W        W22322   5.801  43.869   2.203
63227W        W22323  13.748   1.410   4.764
63228W        W22324  20.619  11.795   1.856
63229W        W22325  13.136  33.015  13.383
63230W        W22326  14.835  38.449  11.525
63231W        W22327  22.076  41.983  10.528
63232W        W22328  36.402  29.985  13.932
63233W        W22329  15.112   7.846   4.352
63234W        W22330  29.517   4.752  11.988
63235W        W22331   6.336  18.154  14.928
63236W        W22332  44.338  35.980   0.923
63237W        W22333   5.410  20.110   2.207
63238W        W22334  43.324  15.706  13.805
63239W        W22335  23.147  12.238  14.345
63240W        W22336   5.366  27.669   4.153
63241W        W22337  22.092  37.037  14.514
63242W        W22338  36.035  19.176   3.272
63243W        W22339  39.468   2.837  11.590
63244W        W22340  19.214  22.548  11.470
63245W        W22341   5.283   1.866   1.880
63246W        W22342   2.820  18.656   0.808
63247W        W22343  17.185  28.096   3.197
63248W        W22344  32.916  34.405   2.362
63249W        W22345  29.660   0.490  12.952
63250W        W22346  27.090  11.683   3.168
63251W        W22347   4.871  42.792   2.371
63252W        W22348  36.454  40.388   4.166
63253W        W22349   2.263   7.210  11.005
63254W        W22350  33.624   0.488   0.884
63255W        W22351  35.855  19.625  11.939
63256W        W22352  27.505  43.383   3.673
63257W        W22353  31.467  44.494   1.879
63258W        W22354  14.310  12.316   2.857
63259W        W22355  31.574   5.400  14.857
63260W        W22356  18.732  34.448  11.413
63261W        W22357  33.388  40.440   5.120
63262W        W22358  11.213  10.834  12.479
63263W        W22359  39.372   0.412   2.387
63264W        W22360  40.891   5.241   1.869
63265W        W22361  29.482   3.946  11.469
63266W        W22362   7.745  37.884   3.688
63267W        W22363  30.071  29.643  11.005
63268W        W22364   2.874  36.561   1.400
63269W        W22365  38.883  19.566   2.884
63270W        W22366  30.576   3.727  12.026
63271W        W22367  16.723   1.246  14.502
63272W        W22368  30.979   4.731   1.876
63273W        W22369  28.604  32.565  13.902
63274W        W22370  23.103  10.820  12.540
63275W        W22371  42.321  32.024   4.786
63276W        W22372   5.724   2.465   0.248
63277W        W22373  17.274  11.365  13.408
63278W        W22374  15.151   3.835   0.916
63279W        W22375  31.934  33.501   1.732
63280W        W22376   9.209  32.007  14.318
63281W        W22377  14.777  27.534  13.511
63282W        W22378  43.817   4.893   4.723
63283W        W22379  37.533  42.866   2.872
63284W        W22380   2.288   5.295  11.939
63285W        W22381  28.089  36.892  14.507
63286W        W22382  17.183  44.279  10.600
63287W        W22383  11.240   9.756   0.359
63288W        W22384   7.379   0.758   1.437
63289W        W22385   9.169  24.501  12.883
63290W        W22386   1.472  14.236  12.081
63291W        W22387  12.252  28.469  11.967
63292W        W22388  28.046  41.535  13.470
63293W        W22389  40.521  12.611  11.378
63294W        W22390  38.875  20.094   1.213
63295W        W22391  36.946  16.224  10.890
63296W        W22392   9.780   1.764   0.400
63297W        W22393  33.418  43.019  11.121
63298W        W22394  32.065  30.048  12.539
63299W        W22395  16.270  12.299   4.668
63300W        W22396   1.350  18.096  11.927
63301W        W22397   8.806   3.242  12.527
63302W        W22398  33.966  10.666   3.328
63303W        W22399  10.323  42.401   3.787
63304W        W22400  11.247  33.577   4.182
63305W        W22401  20.051  34.555  14.020
63306W        W22402  15.603  36.347   5.639
63307W        W22403  33.019   6.756  10.952
63308W        W22404  40.464   9.204   4.295
63309W        W22405   6.381  24.973  14.442
63310W        W22406  23.629  30.143   4.719
63311W        W22407  24.678   1.913   2.859
63312W        W22408  22.149  10.311  10.153
63313W        W22409   0.405  20.041   4.806
63314W        W22410  30.505  44.993   1.435
63315W        W22411  29.647   2.875   4.635
63316W        W22412  19.269  25.081   1.236
63317W        W22413  13.846  10.238   2.273
63318W        W22414  23.077  30.067  11.372
63319W        W22415  19.228  12.297  11.103
63320W        W22416  38.049  25.967  14.816
63321W        W22417  30.145   4.730  11.599
63322W        W22418  29.928  38.882  12.519
63323W        W22419  34.030  18.241  10.502
63324W        W22420  16.281   6.717  14.811
63325W        W22421   1.433  39.921   3.361
63326W        W22422   6.806  24.541  13.441
63327W        W22423  19.677  30.625   4.293
63328W        W22424  34.059  20.706  11.573
63329W        W22425  38.477  21.612   4.187
63330W        W22426  37.557  19.737  10.596
63331W        W22427  40.013  32.117  11.967
63332W        W22428   5.360  30.504  14.919
63333W        W22429   9.740   1.734   1.757
63334W        W22430  32.886  35.500   3.839
63335W        W22431  12.243   4.795  12.937
63336W        W22432   9.809  40.021  14.326
63337W        W22433   2.452  40.315  13.344
63338W        W22434  32.442  25.496   1.786
63339W        W22435   6.804  31.028  12.361
63340W        W22436  16.124  17.637  11.887
63341W        W22437  16.598   5.370   0.311
63342W        W22438  18.666  13.234  11.505
63343W        W22439  42.520  39.964  11.936
63344W        W22440   4.246  33.078  14.422
63345W        W22441  13.678  36.000  14.851
63346W        W22442   2.378  43.913   2.405
63347W        W22443  20.595  15.256   0.922
63348W        W22444  18.197  44.852   3.703
63349W        W22445  42.504   9.193  11.570
63350W        W22446  14.096  23.229   4.350
63351W        W22447  25.020   1.304  14.960
63352W        W22448  20.581  13.815  13.456
63353W        W22449  41.308  32.483   3.298
63354W        W22450  10.751  22.196  13.797
63355W        W22451  35.020  33.569   3.145
63356W        W22452  29.451  12.778  10.492
63357W        W22453  21.577  22.129  12.500
63358W        W22454  34.055  39.549  11.957
63359W        W22455  27.536  27.468   4.222
63360W        W22456   1.904   6.788  12.073
63361W        W22457  32.411  41.982   0.862
63362W        W22458  24.497  34.010  14.869
63363W        W22459  39.065  32.998  12.483
63364W        W22460  21.223   8.858   3.324
63365W        W22461  17.582  21.515   3.732
63366W        W22462  13.143  13.819  11.456
63367W        W22463  21.196  29.120  11.517
63368W        W22464   2.965  35.556  13.946
63369W        W22465   5.429  28.157  14.310
63370W        W22466   4.399  12.343  14.982
63371W        W22467  36.998  43.981   1.890
63372W        W22468  25.536  42.033   0.854
63373W        W22469   5.264  29.504   1.246
63374W        W22470  35.007  27.551  14.376
63375W        W22471  21.180  27.969  11.485
63376W        W22472  26.175  41.854  13.042
63377W        W22473  30.092   4.242   0.452
63378W        W22474  21.196  44.321   4.654
63379W        W22475  27.115  27.549  14.416
63380W        W22476  15.732  29.612   4.698
63381W        W22477   4.248   1.805   0.885
63382W        W22478   2.309  37.933   1.239
63383W        W22479  34.090   1.305  12.494
63384W        W22480  27.194  38.398  10.514
63385W        W22481  17.758   6.707  11.550
63386W        W22482  38.519   3.314   0.743
63387W        W22483  27.960  16.651   2.296
63388W        W22484  42.438  28.967  14.441
63389W        W22485  37.523  17.624  13.510
63390W        W22486  42.284  12.247  10.522
63391W        W22487  23.605  36.932  14.934
63392W        W22488   1.915  16.132   3.867
63393W        W22489  24.012  24.133  10.128
63394W        W22490  13.267  33.402   3.705
63395W        W22491  18.671  33.392   2.824
63396W        W22492  31.637  21.553  10.465
63397W        W22493  24.185   5.405   2.680
63398W        W22494  15.643   2.427  11.588
63399W        W22495  37.920  35.537   0.431
63400W        W22496   3.441  29.016   1.337
63401W        W22497  22.205   5.766   1.306
63402W        W22498  42.899   2.388   3.227
63403W        W22499  23.586  44.978   1.697
63404W        W22500  43.433  33.089   1.267
63405W        W22501  12.709  23.636   2.710
63406W        W22502   1.888   9.828  13.379
63407W        W22503  27.610  44.270   4.297
63408W        W22504  40.947  44.376  12.968
63409W        W22505  37.924  11.650  14.769
63410W        W22506  15.818  16.735  11.922
63411W        W22507   7.191  35.538   4.292
63412W        W22508  16.758   5.859   0.386
63413W        W22509  22.541  26.139  13.927
63414W        W22510  14.136   8.840   4.336
63415W        W22511  37.341  33.947   3.202
63416W        W22512  21.098  44.460   0.310
63417W        W22513  21.219  30.113  14.434
63418W        W22514  10.748  19.132   1.404
63419W        W22515   6.301   7.840   0.297
63420W        W22516  28.149  14.832   4.153
63421W        W22517   8.278   8.230  14.800
63422W        W22518  35.387  41.013   3.354
63423W        W22519  28.136  12.817  11.997
63424W        W22520   6.369   9.812   4.705
63425W        W22521  27.109  16.570  13.413
63426W        W22522  39.888  22.545  12.848
63427W        W22523  11.753   9.647   4.226
63428W        W22524  16.238  44.502   0.271
63429W        W22525  11.688  16.170  11.107
63430W        W22526  42.301  38.040   3.167
63431W        W22527   1.813  27.112  10.444
63432W        W22528  28.060  25.972   4.762
63433W        W22529   1.821   2.452   0.790
63434W        W22530  10.736   1.952   1.734
63435W        W22531   3.735  27.687  11.093
63436W        W22532  22.019  27.081   2.708
63437W        W22533   5.810  15.738  12.881
63438W        W22534  10.796  30.463  14.957
63439W        W22535  32.018  10.716   3.717
63440W        W22536   5.746  11.704  14.368
63441W        W22537   6.330  42.393  14.885
63442W        W22538  43.942   7.223   1.247
63443W        W22539   7.291  25.101  11.968
63444W        W22540  33.462   4.780  10.119
63445W        W22541  36.908  20.168   0.453
63446W        W22542  17.583  18.551   0.385
63447W        W22543  39.915  41.928  11.536
63448W        W22544  42.422  23.621  14.289
63449W        W22545  15.118  36.396  10.123
63450W        W22546   8.721  42.510   4.300
63451W        W22547  41.883   0.435   1.415
63452W        W22548  16.690  37.911   2.833
63453W        W22549  29.991  26.010  11.022
63454W        W22550  12.692   2.308   0.394
63455W        W22551  42.449  20.142   1.921
63456W        W22552  17.754  33.557   2.218
63457W        W22553  16.809  19.079  13.313
63458W        W22554  16.623  37.013   0.380
63459W        W22555  41.466  37.472   0.949
63460W        W22556  43.982   2.348  13.864
63461W        W22557  33.901  18.692   5.262
63462W        W22558  28.087  11.793  13.381
63463W        W22559  11.741  41.441   3.794
63464W        W22560  22.014  32.940   3.861
63465W        W22561  20.071  43.413  11.522
63466W        W22562  41.351   3.810  12.899
63467W        W22563  42.915   1.751  12.489
63468W        W22564  19.260  15.197  11.541
63469W        W22565   7.399   4.348  14.516
63470W        W22566  27.068   7.202   0.346
63471W        W22567   9.840   6.781  13.377
63472W        W22568  40.859   6.348   2.667
63473W        W22569   2.327  34.526   1.747
63474W        W22570  10.184   6.231   3.845
63475W        W22571  22.114  34.386  11.390
63476W        W22572  18.766  27.560   2.400
63477W        W22573  28.445  32.949  11.992
63478W        W22574  19.672  13.218  11.051
63479W        W22575   5.740  40.805  12.541
63480W        W22576   0.449  44.871   3.349
63481W        W22577  24.598  25.155   1.321
63482W        W22578  28.969  17.109   2.728
63483W        W22579  28.984   3.388  12.949
63484W        W22580  30.107   2.918  13.880
63485W        W22581  18.607  39.430  12.374
63486W        W22582  14.160  28.605   4.220
63487W        W22583  40.979  35.949  11.419
63488W        W22584  43.775  13.261  10.544
63489W        W22585  32.894  13.137  12.918
63490W        W22586   3.341  11.702  11.939
63491W        W22587   5.221   1.375   0.779
63492W        W22588  32.632  38.020   0.825
63493W        W22589  20.657  31.500   4.779
63494W        W22590  38.065  11.820  11.397
63495W        W22591  22.563  34.458  12.373
63496W        W22592  33.002   5.885   4.711
63497W        W22593  32.520   5.412   2.756
63498W        W22594  32.560  28.677  12.573
63499W        W22595  42.818   0.793  12.528
63500W        W22596  14.654  19.544   0.341
63501W        W22597   9.156  39.859  13.456
63502W        W22598   4.336   6.769  10.406
63503W        W22599  29.669  41.837  11.523
63504W        W22600  37.518  29.948   1.361
63505W        W22601  37.076  31.899  14.383
63506W        W22602  30.544   1.949  12.839
63507W        W22603  11.130  44.888  11.065
63508W        W22604  25.055  20.621   2.801
63509W        W22605  33.538   0.793   4.316
63510W        W22606  25.529  23.632  12.043
63511W        W22607  29.954  32.937   1.928
63512W        W22608  31.084  16.195  10.118
63513W        W22609  40.549  15.192   3.692
63514W        W22610  21.218   3.745  11.893
63515W        W22611  22.524  35.456  14.893
63516W        W22612  16.257  16.703  14.417
63517W        W22613   9.872  21.539  12.471
63518W        W22614  34.995  41.923  13.839
63519W        W22615  35.575  37.973   1.808
63520W        W22616   1.830   3.870   4.343
63521W        W22617  42.484   9.362   1.812
63522W        W22618  27.523  44.924   0.323
63523W        W22619   6.347  39.929   0.828
63524W        W22620  29.519   8.379   2.759
63525W        W22621  10.704  35.362   4.149
63526W        W22622  41.880  38.991  13.061
63527W        W22623  23.548   7.368  11.440
63528W        W22624   7.174  18.678  12.894
63529W        W22625  21.588  32.892   3.867
63530W        W22626   6.356  29.159  13.461
63531W        W22627  27.969  31.551  14.899
63532W        W22628  15.287  17.650  14.803
63533W        W22629  33.384  42.400   0.433
63534W        W22630   2.295  43.933   3.313
63535W        W22631   9.885  22.642  10.436
63536W        W22632  25.218  25.990   2.281
63537W        W22633  36.357   8.666   3.368
63538W        W22634  22.114  34.464  12.963
63539W        W22635  11.727  23.659  11.016
63540W        W22636  12.801  19.168  14.302
63541W        W22637  29.612  21.546  14.941
63542W        W22638  19.654  35.592   2.408
63543W        W22639   5.833  21.192  13.864
63544W        W22640  42.803  14.245   1.764
63545W        W22641  31.899  16.183  12.932
63546W        W22642  16.301  18.106   3.206
63547W        W22643  20.694  26.178  10.576
63548W        W22644   9.796  37.390   1.378
63549W        W22645  33.901  13.712   4.282
63550W        W22646  38.358  14.256  13.991
63551W        W22647   4.289  14.194   5.161
63552W        W22648  23.493  42.957  11.508
63553W        W22649  38.966  35.432  12.472
63554W        W22650  38.832   9.794   0.796
63555W        W22651  30.139   7.348   0.943
63556W        W22652  28.644  17.703  12.401
63557W        W22653  44.894  39.004  10.020
63558W        W22654   7.685  23.122   3.681
63559W        W22655  34.442  18.746  14.438
63560W        W22656   9.869  15.239   5.687
63561W        W22657   5.873  26.127   5.245
63562W        W22658   4.322  38.488   2.803
63563W        W22659  36.423  33.514   4.752
63564W        W22660   7.838  19.225  11.070
63565W        W22661  14.177   5.401   3.200
63566W        W22662  39.482  16.155  13.062
63567W        W22663  21.749  30.507  13.545
63568W        W22664  40.472  24.022  14.770
63569W        W22665  38.555   2.437  11.886
63570W        W22666  41.842  24.977  11.918
63571W        W22667  26.507   4.350   9.925
63572W        W22668  11.778  12.349  10.428
63573W        W22669  22.576  37.343   4.274
63574W        W22670  11.129  29.592   1.892
63575W        W22671  14.721  13.726   1.226
63576W        W22672  28.058   9.872  12.825
63577W        W22673  12.210   7.392  11.983
63578W        W22674  10.638  41.889  11.610
63579W        W22675   1.910  19.683   4.695
63580W        W22676  41.323   5.778  14.949
63581W        W22677  30.154  17.076  14.332
63582W        W22678  35.950  18.547  12.018
63583W        W22679   1.790  27.069   0.760
63584W        W22680  26.098  28.678  10.614
63585W        W22681  14.765  33.383  12.893
63586W        W22682  18.060  32.112  14.806
63587W        W22683  42.427  17.748   4.156
63588W        W22684   2.845  42.020   1.701
63589W        W22685  42.391  29.070   4.300
63590W        W22686  13.756  22.159  12.352
63591W        W22687   6.394  22.097  12.083
63592W        W22688  18.107  44.300  12.991
63593W        W22689   6.299   3.387  10.952
63594W        W22690  29.486   3.850  11.935
63595W        W22691  44.833  36.007   0.465
63596W        W22692  34.088  10.337  12.401
63597W        W22693  36.857  38.002  13.429
63598W        W22694  10.339   4.347   3.237
63599W        W22695  23.993  34.615   4.692
63600W        W22696  13.203  23.076  12.523
63601W        W22697  33.414   1.937   0.300
63602W        W22698   4.207   8.800   1.351
63603W        W22699  32.095  29.118   2.691
63604W        W22700  16.640   0.876   1.808
63605W        W22701  15.304  32.990  12.034
63606W        W22702  41.977  15.669  10.157
63607W        W22703  42.889  21.549   1.899
63608W        W22704  25.638  31.526  14.788
63609W        W22705  33.084  12.758  11.374
63610W        W22706  19.221  28.659  10.442
63611W        W22707  22.036   2.277  14.828
63612W        W22708  21.604   1.424   3.674
63613W        W22709  10.661   7.903   0.950
63614W        W22710  13.713  28.476   4.717
63615W        W22711  21.146  32.132   2.668
63616W        W22712  41.815  37.433  12.079
63617W        W22713  41.847  43.837   3.716
63618W        W22714  34.477  25.215  14.330
63619W        W22715  27.968  24.213   0.756
63620W        W22716  15.201  10.196  12.874
63621W        W22717  16.268  12.778   0.273
63622W        W22718  28.475  30.932  11.593
63623W        W22719  34.443  27.961  14.370
63624W        W22720  30.996  21.647  12.851
63625W        W22721  25.072  20.224   3.174
63626W        W22722  43.441  35.080   4.838
63627W        W22723  40.919  44.480  14.934
63628W        W22724  40.493   1.242   2.723
63629W        W22725  20.611  13.211   3.860
63630W        W22726  34.115   0.750  11.006
63631W        W22727  15.118  18.186   2.867
63632W        W22728  40.817   4.402  12.575
63633W        W22729  43.771  37.028   2.219
63634W        W22730  21.514  19.163  14.958
63635W        W22731  37.030  29.946  14.501
63636W        W22732  39.894  42.519  14.970
63637W        W22733   7.864   7.773   3.289
63638W        W22734  33.066   5.377   4.219
63639W        W22735  20.270  22.186  13.324
63640W        W22736  29.508  38.844   4.620
63641W        W22737  34.065   7.805  11.941
63642W        W22738  20.576   2.264  10.644
63643W        W22739  25.973  38.476  11.019
63644W        W22740  23.632   2.852  12.356
63645W        W22741  41.380  24.688  11.379
63646W        W22742  25.602  21.129  11.884
63647W        W22743  34.524  44.840  14.327
63648W        W22744  41.342  24.032  11.565
63649W        W22745  30.589  13.246   2.355
63650W        W22746  14.199  17.716   3.800
63651W        W22747  43.938  17.306   2.362
63652W        W22748  23.696  38.347  14.386
63653W        W22749  26.621  25.094   4.704
63654W        W22750  16.160   1.305   1.758
63655W        W22751  38.849   1.962   1.308
63656W        W22752  22.548  35.898  12.367
63657W        W22753  15.776   0.925   1.408
63658W        W22754  31.431  15.317   3.249
63659W        W22755  36.029   1.739  14.302
63660W        W22756   3.449   4.839  12.557
63661W        W22757  16.186   3.923  13.410
63662W        W22758   8.852   2.408   1.288
63663W        W22759  34.077  18.272  12.563
63664W        W22760   5.738  19.542   2.285
63665W        W22761   0.890  27.659   0.276
63666W        W22762  34.382  28.617   3.161
63667W        W22763  36.498   2.938   0.331
63668W        W22764  13.800  33.567   0.302
63669W        W22765  28.995  19.747  13.389
63670W        W22766  21.117  14.597   3.224
63671W        W22767  18.115   6.826  10.619
63672W        W22768   2.344  27.621   1.760
63673W        W22769  14.789  20.089  10.536
63674W        W22770  33.569  37.864  12.096
63675W        W22771  11.735  14.158   9.478
63676W        W22772   1.871   9.168  12.506
63677W        W22773  40.337  31.632  14.782
63678W        W22774  20.530  10.669  14.293
63679W        W22775  15.295   6.842  13.896
63680W        W22776  20.581  12.334  10.416
63681W        W22777  40.327  31.936   5.251
63682W        W22778  15.322  31.990  12.556
63683W        W22779  26.968  35.968   0.409
63684W        W22780  27.055   7.183  14.511
63685W        W22781   0.753  41.426   2.387
63686W        W22782  38.326  25.169  10.969
63687W        W22783  19.742   2.952   3.700
63688W        W22784  16.591  31.546   1.726
63689W        W22785   5.738  33.496  14.401
63690W        W22786   3.419  28.652  11.482
63691W        W22787  10.765  15.600   0.321
63692W        W22788  12.684  26.179   3.683
63693W        W22789   3.442   3.811   5.139
63694W        W22790  16.263   3.238   4.302
63695W        W22791  11.865  43.442   1.410
63696W        W22792  33.443  18.711   3.638
63697W        W22793   3.727  38.848   4.619
63698W        W22794  19.154  11.625   1.854
63699W        W22795  39.886   3.796   2.267
63700W        W22796  25.677  42.798   3.721
63701W        W22797  39.989  33.115  14.403
63702W        W22798  40.955  24.999  14.808
63703W        W22799  21.155  42.439  10.034
63704W        W22800   2.283  35.494  10.482
63705W        W22801  11.162  31.496  13.027
63706W        W22802  34.952  42.519  13.928
63707W        W22803   2.840  18.776   4.286
63708W        W22804  10.803  28.040   3.210
63709W        W22805  13.824  27.534  10.576
63710W        W22806  13.194   4.363   1.337
63711W        W22807  14.834  43.315   0.269
63712W        W22808  13.774  22.632  12.824
63713W        W22809  30.421  21.609   2.831
63714W        W22810  11.782  41.968  14.857
63715W        W22811  11.718   9.753  11.926
63716W        W22812  18.588  15.260   1.831
63717W        W22813  38.419  40.469  13.495
63718W        W22814  10.307   1.364   0.314
63719W        W22815  16.624  17.776  14.456
63720W        W22816  11.700  39.435   4.692
63721W        W22817  21.198  12.834  14.001
63722W        W22818  40.307  44.960  14.431
63723W        W22819   5.876  32.439   4.734
63724W        W22820   1.317   6.428  13.801
63725W        W22821   7.328   8.748   3.302
63726W        W22822  33.381  33.075  12.393
63727W        W22823  26.626  24.711   2.695
63728W        W22824  21.700  27.022   0.951
63729W        W22825   2.865  23.185   3.638
63730W        W22826  36.090   2.947  14.967
63731W        W22827  29.632   8.301   4.711
63732W        W22828   7.280  13.218   3.232
63733W        W22829   6.708   5.782   1.741
63734W        W22830  36.966   9.823  13.817
63735W        W22831  40.798  11.730  13.803
63736W        W22832   7.337   1.923  11.953
63737W        W22833  26.675  31.606  14.430
63738W        W22834  31.630  36.438   1.323
63739W        W22835   5.825   5.259   3.792
63740W        W22836  32.576  10.872  11.997
63741W        W22837  11.289   5.369   0.965
63742W        W22838  32.575  25.967  10.643
63743W        W22839  33.473   6.688  14.815
63744W        W22840  41.807  21.161   1.794
63745W        W22841  18.156  17.684  14.962
63746W        W22842  44.988   0.797  14.962
63747W        W22843  40.812   6.685   4.711
63748W        W22844  33.440  36.906  12.906
63749W        W22845   6.183  16.751  14.322
63750W        W22846   2.246   1.956   4.231
63751W        W22847  24.060  34.486  12.092
63752W        W22848   4.870  33.073   4.179
63753W        W22849  23.550  36.391  12.357
63754W        W22850  28.067  41.004   2.821
63755W        W22851   8.800  41.884  13.812
63756W        W22852  11.857   4.867   1.259
63757W        W22853   8.692   4.756  14.447
63758W        W22854  44.903   9.164  13.506
63759W        W22855  10.859  14.134   1.836
63760W        W22856  39.330  33.919   0.953
63761W        W22857  41.489  33.490   1.331
63762W        W22858  15.286  42.446  10.572
63763W        W22859  22.711   3.345   0.480
63764W        W22860  30.939  30.585   2.810
63765W        W22861  27.035  37.068  12.925
63766W        W22862  27.589  34.926  13.429
63767W        W22863  31.963   7.824  11.878
63768W        W22864  14.177  31.965  11.038
63769W        W22865  37.509  44.432   0.742
63770W        W22866  20.057   2.842   4.706
63771W        W22867  35.942  20.571  13.464
63772W        W22868  13.756  12.348   3.858
63773W        W22869  41.875  27.597   3.324
63774W        W22870  21.625  40.457   3.319
63775W        W22871  38.336  17.728   1.264
63776W        W22872  25.013  13.835   2.407
63777W        W22873  21.141  26.642   2.812
63778W        W22874  38.987  34.957   3.297
63779W        W22875  35.387  15.609   2.874
63780W        W22876  28.445  33.086   3.653
63781W        W22877   6.883  39.394  14.382
63782W        W22878  31.127   9.751   0.353
63783W        W22879  16.230  40.457  12.845
63784W        W22880  13.681  33.985   5.249
63785W        W22881  18.775  29.958   2.681
63786W        W22882  34.888  14.325  12.492
63787W        W22883  28.601  12.661   1.873
63788W        W22884  18.094   1.950   0.466
63789W        W22885  29.647  26.149  12.406
63790W        W22886  39.985  33.987   3.729
63791W        W22887  24.544  22.647  11.099
63792W        W22888  28.489  15.270  14.366
63793W        W22889  35.967  41.421   3.290
63794W        W22890  23.170  16.200  13.363
63795W        W22891  33.583  20.201   2.818
63796W        W22892   5.911   3.291  14.769
63797W        W22893  13.766   1.781   4.693
63798W        W22894  42.791  23.649   3.334
63799W        W22895   8.289  43.804  13.818
63800W        W22896  16.710   4.944  10.064
63801W        W22897  29.562  29.109  13.850
63802W        W22898  24.050   2.420   1.387
63803W        W22899   3.402   8.883  14.998
63804W        W22900   8.266   2.895   4.702
63805W        W22901   7.299  41.853  11.908
63806W        W22902  22.661  21.159   4.178
63807W        W22903   5.907   8.805   5.122
63808W        W22904   2.352  19.709  14.293
63809W        W22905   7.172  42.295   0.907
63810W        W22906  18.557  25.678  11.396
63811W        W22907  10.855  12.198  12.993
63812W        W22908  38.902  37.084   2.879
63813W        W22909  31.567  29.125  13.481
63814W        W22910   8.729   3.898   3.716
63815W        W22911  41.370  17.711   1.769
63816W        W22912  40.468  25.151  11.103
63817W        W22913  19.742  20.748   0.370
63818W        W22914  20.764  26.057  13.882
63819W        W22915  13.756  33.960   2.738
63820W        W22916  11.813  44.957   0.318
63821W        W22917  29.664  11.299  14.973
63822W        W22918   5.745  42.995  13.910
63823W        W22919  28.476  11.219   4.334
63824W        W22920  18.715  12.655   3.295
63825W        W22921   4.799  26.518   4.277
63826W        W22922   5.803  41.834  11.424
63827W        W22923  14.196  20.529   0.452
63828W        W22924  27.091  20.729  11.964
63829W        W22925  20.583  14.726   3.854
63830W        W22926  12.281  20.598  12.862
63831W        W22927  25.494  42.446  11.915
63832W        W22928  23.541  44.891   0.960
63833W        W22929  12.159  33.572  10.502
63834W        W22930  27.990  23.158  14.354
63835W        W22931   9.848  44.838  11.040
63836W        W22932   4.230  32.928  13.956
63837W        W22933  15.089  35.999   2.189
63838W        W22934   8.735  41.310   4.149
63839W        W22935  17.760  15.275  10.904
63840W        W22936  28.012  15.270   3.336
63841W        W22937  31.998  20.145  14.348
63842W        W22938  26.001  19.225   2.303
63843W        W22939  24.107  14.224  10.416
63844W        W22940  11.305  39.956  13.382
63845W        W22941  20.705  27.162   4.607
63846W        W22942  29.982   7.406   3.304
63847W        W22943  30.429  32.058  10.903
63848W        W22944  11.192  23.049   3.205
63849W        W22945  27.581  19.111  11.920
63850W        W22946   3.890  30.592   2.287
63851W        W22947  29.044  40.959   4.660
63852W        W22948  41.442  26.526  13.034
63853W        W22949   1.269  18.609   0.779
63854W        W22950   6.247  23.107   3.201
63855W        W22951  30.531   1.266   2.249
63856W        W22952   6.391  31.458   3.296
63857W        W22953  28.649  34.046  14.847
63858W        W22954  33.900   0.321  11.941
63859W        W22955   0.410  41.473   2.889
63860W        W22956   9.731  26.189   1.271
63861W        W22957  29.918  29.998   1.905
63862W        W22958  30.129  41.394   3.651
63863W        W22959   9.660  17.163  10.457
63864W        W22960   4.807   2.733  14.432
63865W        W22961   7.281  25.963   2.187
63866W        W22962  19.597  27.634   3.169
63867W        W22963  44.437   3.383   4.829
63868W        W22964  32.519  13.259  14.873
63869W        W22965  29.531  40.050  11.088
63870W        W22966  18.564   7.283   2.231
63871W        W22967  18.235  29.578  13.025
63872W        W22968  38.561  18.272   4.169
63873W        W22969  10.672   0.340   1.334
63874W        W22970   9.827  23.555  14.848
63875W        W22971   5.309  16.292  10.491
63876W        W22972   1.936  30.059  10.459
63877W        W22973  36.906  44.860  10.607
63878W        W22974  38.530   1.767   1.436
63879W        W22975  25.660   0.425   3.210
63880W        W22976  12.731  19.169   3.728
63881W        W22977  23.640  12.246   3.167
63882W        W22978   4.203   2.300  14.396
63883W        W22979  40.536  11.366  14.012
63884W        W22980  36.477  44.268  10.517
63885W        W22981  28.512   2.431  11.099
63886W        W22982  32.893  44.986  13.884
63887W        W22983   3.315  23.673  12.987
63888W        W22984   8.341  10.804   1.222
63889W        W22985   0.955  15.305  14.759
63890W        W22986  15.120  29.479  13.527
63891W        W22987  29.024  26.626  12.579
63892W        W22988  35.024  41.459  12.566
63893W        W22989  38.066   6.842  12.935
63894W        W22990  17.143  11.216  14.896
63895W        W22991  25.153  39.511   0.351
63896W        W22992   9.323  44.906   1.439
63897W        W22993  31.118  23.161  14.319
63898W        W22994   1.422  31.132   1.743
63899W        W22995   9.709  22.080   1.272
63900W        W22996  31.594   9.852  10.484
63901W        W22997  19.641  26.009  12.038
63902W        W22998   4.914  22.997  13.323
63903W        W22999  15.591   2.273   4.719
63904W        W23000  34.441  25.638  13.843
63905W        W23001  29.609  35.894  14.298
63906W        W23002  33.593  32.464  10.928
63907W        W23003  36.573  18.784  13.896
63908W        W23004  39.982  19.756   1.271
63909W        W23005  20.580  18.153   1.310
63910W        W23006  33.503  33.561   2.868
63911W        W23007  10.215  44.297  13.935
63912W        W23008   3.863  32.432  12.487
63913W        W23009  33.442  14.618  11.997
63914W        W23010  12.183  40.040   0.297
63915W        W23011   8.851  35.042  14.353
63916W        W23012  34.114  25.166  11.996
63917W        W23013  19.243  37.448   2.826
63918W        W23014  42.308  12.749  13.973
63919W        W23015  32.475   9.649   0.866
63920W        W23016  22.087  10.288   2.727
63921W        W23017   0.260  40.899  12.933
63922W        W23018  17.277  10.839   4.701
63923W        W23019  11.788  21.210  13.329
63924W        W23020   1.877  19.672  12.399
63925W        W23021   9.694   3.801   1.246
63926W        W23022  23.721  35.889   3.317
63927W        W23023  27.126  10.807  11.503
63928W        W23024  35.875  37.481   2.705
63929W        W23025  22.519  29.544   4.603
63930W        W23026  20.202  25.073   2.841
63931W        W23027  23.722  32.567   4.175
63932W        W23028  35.940  14.696   3.826
63933W        W23029  36.922  39.399   2.394
63934W        W23030   1.473  34.596  13.032
63935W        W23031  13.843  11.801  14.903
63936W        W23032  11.200  22.143   3.345
63937W        W23033  12.191  43.375  14.903
63938W        W23034   8.771   0.278  10.549
63939W        W23035  42.796  24.088   4.704
63940W        W23036  31.096   1.895   1.289
63941W        W23037  13.628   9.352   2.223
63942W        W23038   6.735  34.055  10.919
63943W        W23039   1.898   3.281  12.050
63944W        W23040  31.963  28.963   4.169
63945W        W23041  25.026  21.228   2.833
63946W        W23042   1.816  24.519  12.030
63947W        W23043   7.683  11.229  10.977
63948W        W23044  21.165  33.883  13.914
63949W        W23045  24.149  29.546   3.772
63950W        W23046  27.975  33.590   0.339
63951W        W23047  29.101  15.272  14.347
63952W        W23048  29.991  18.690  11.385
63953W        W23049  38.567  22.103  11.964
63954W        W23050  17.765  16.607  11.405
63955W        W23051   2.832   5.260   4.788
63956W        W23052  13.785  14.215  14.970
63957W        W23053  32.425   3.793  12.425
63958W        W23054  37.557   3.397  14.416
63959W        W23055  33.089  31.947   3.286
63960W        W23056  44.887   7.242  14.428
63961W        W23057  42.010   9.854   1.293
63962W        W23058  32.926  14.211   5.279
63963W        W23059  21.741   5.364  14.413
63964W        W23060  15.117  40.436  14.970
63965W        W23061   4.920  10.360   4.714
63966W        W23062  25.572  37.974   0.769
63967W        W23063  41.861  33.945   1.244
63968W        W23064  28.527  20.626  11.570
63969W        W23065  28.659  44.777   1.917
63970W        W23066  33.413   2.278   3.837
63971W        W23067   8.820  33.104   4.175
63972W        W23068  27.982  32.602   3.666
63973W        W23069  27.575  28.667  11.553
63974W        W23070  17.769  16.201  10.603
63975W        W23071  32.068  40.527   2.223
63976W        W23072  42.982   5.365   4.811
63977W        W23073  12.838  13.652  12.550
63978W        W23074  42.504  32.445  11.435
63979W        W23075   8.742   6.696  14.941
63980W        W23076  32.946  10.810   4.224
63981W        W23077  30.535  38.990   1.784
63982W        W23078   9.200  17.304   0.374
63983W        W23079  25.148  26.136   4.124
63984W        W23080  28.501  24.690   0.780
63985W        W23081  21.200  23.652  13.025
63986W        W23082  38.974   7.232  13.002
63987W        W23083  42.391   6.916  14.319
63988W        W23084  21.229  32.441  13.925
63989W        W23085  27.625  16.613  13.311
63990W        W23086  18.741  13.766  11.995
63991W        W23087   5.774  20.682  14.427
63992W        W23088  22.519  33.936  13.024
63993W        W23089  16.304  11.624   3.162
63994W        W23090  43.910  40.347   2.723
63995W        W23091  17.188  20.128   4.245
63996W        W23092  42.282  40.404  11.525
63997W        W23093  10.669  44.470   0.391
63998W        W23094  13.676  32.021  14.462
63999W        W23095  29.146  32.961   0.451
64000W        W23096  23.167  28.006   0.923
64001W        W23097  20.049  24.056   3.716
64002W        W23098  21.138  38.976   4.606
64003W        W23099   3.271  44.388   3.190
64004W        W23100  38.408  34.420  11.017
64005W        W23101   0.804   2.763  12.514
64006W        W23102  16.308  36.585  11.071
64007W        W23103  20.161  13.189   0.754
64008W        W23104   2.239  35.023   4.744
64009W        W23105  34.908  19.153  12.931
64010W        W23106  20.113  29.597   4.136
64011W        W23107  36.055  10.140  12.895
64012W        W23108   1.377  36.986  14.839
64013W        W23109  11.285  44.797   1.746
64014W        W23110  26.595   9.275  12.864
64015W        W23111  39.345   8.386  14.760
64016W        W23112  12.198  39.540  14.788
64017W        W23113  18.180  44.008   3.171
64018W        W23114  30.642  16.802   0.772
64019W        W23115   7.347  33.880   1.411
64020W        W23116   1.764  38.951  12.482
64021W        W23117   9.204  41.478   0.284
64022W        W23118  19.249  12.778   2.851
64023W        W23119   5.403  14.771   3.314
64024W        W23120  40.499   3.784   0.958
64025W        W23121  18.700  22.716   1.300
64026W        W23122  38.000  33.581   3.312
64027W        W23123   6.191  28.604   2.665
64028W        W23124  15.204  30.031  11.891
64029W        W23125   7.360  18.197  14.284
64030W        W23126   9.748   0.285  11.969
64031W        W23127  12.812   2.322  14.339
64032W        W23128  39.452   3.782   4.818
64033W        W23129  16.717  39.858   0.876
64034W        W23130  37.079  32.143   9.935
64035W        W23131  28.105  21.061  14.976
64036W        W23132  19.625  42.420  12.423
64037W        W23133  15.182  42.292  13.900
64038W        W23134  23.497  39.018   4.266
64039W        W23135  35.926  39.407   3.200
64040W        W23136  32.913  41.866  11.509
64041W        W23137   7.715  31.561   2.288
64042W        W23138   8.747   1.854  13.849
64043W        W23139   8.870  21.611   0.343
64044W        W23140  36.575  16.080   4.156
64045W        W23141  35.959  39.355   0.842
64046W        W23142  20.165  18.626  14.810
64047W        W23143  18.212  22.614  14.992
64048W        W23144  11.838  29.998  12.001
64049W        W23145  25.498   9.395  11.103
64050W        W23146  38.031  27.040   1.419
64051W        W23147   4.880  33.114   2.354
64052W        W23148  17.686   5.310   3.203
64053W        W23149   4.394  18.131   1.770
64054W        W23150  42.935  26.132  14.348
64055W        W23151  27.546   7.171  11.500
64056W        W23152  28.655   0.388  11.942
64057W        W23153   1.808  30.038   1.801
64058W        W23154  11.182  36.575   3.212
64059W        W23155  39.489   4.909   0.401
64060W        W23156   9.757  10.667  12.518
64061W        W23157  42.355  13.113  13.546
64062W        W23158  27.675  37.455   4.250
64063W        W23159  15.215   9.340   2.418
64064W        W23160  24.997  26.698   3.849
64065W        W23161  13.728  33.964   0.406
64066W        W23162  23.222   1.384  12.964
64067W        W23163   8.739   0.464  14.280
64068W        W23164  41.450   5.253   1.917
64069W        W23165  37.475   9.361   2.695
64070W        W23166  10.328  16.656   0.850
64071W        W23167  10.716   1.275  11.472
64072W        W23168  21.020  40.492  14.900
64073W        W23169   9.797  30.942   1.825
64074W        W23170   5.784   9.344   4.731
64075W        W23171  29.491   9.646   0.761
64076W        W23172  42.504  21.140  14.874
64077W        W23173  44.264   3.858  11.902
64078W        W23174  20.584   9.804   1.450
64079W        W23175   3.266  16.712  13.950
64080W        W23176   8.752   1.907  13.038
64081W        W23177  31.014   4.921  14.941
64082W        W23178  43.500   6.730  10.517
64083W        W23179  19.244  23.730   1.402
64084W        W23180  44.000   1.763   2.307
64085W        W23181  30.131  42.835  12.516
64086W        W23182  21.177  34.506  11.475
64087W        W23183  20.655  13.120  13.949
64088W        W23184  34.882  17.200  14.989
64089W        W23185  25.996   5.737   3.338
64090W        W23186   2.882   0.283   4.726
64091W        W23187  29.136  28.042  12.982
64092W        W23188   4.390  40.512   3.648
64093W        W23189   6.306   1.846  10.476
64094W        W23190  24.034  14.204  13.390
64095W        W23191   0.342  15.704  11.033
64096W        W23192  10.304  41.937  11.411
64097W        W23193  28.566  17.635  11.959
64098W        W23194  33.009  16.229  11.910
64099W        W23195  13.814   6.201   4.734
64100W        W23196  42.858   7.737  14.358
64101W        W23197  21.529  23.034  11.997
64102W        W23198  14.187  31.562   1.214
64103W        W23199  37.908   6.188  11.869
64104W        W23200  43.396   1.875   9.977
64105W        W23201  34.443  14.324   0.282
64106W        W23202   0.944  32.042  13.804
64107W        W23203  26.027  13.632   1.908
64108W        W23204  25.630  38.527   0.386
64109W        W23205   6.695  32.521   3.282
64110W        W23206   2.799   9.657   2.260
64111W        W23207  43.329  35.524   2.817
64112W        W23208  23.026   0.315  10.483
64113W        W23209  26.169  14.288   1.840
64114W        W23210  37.981  30.582  10.091
64115W        W23211  39.498  36.864   3.305
64116W        W23212   6.262  36.018  12.877
64117W        W23213  23.506  38.075  14.765
64118W        W23214  28.062   9.864   1.748
64119W        W23215  16.238  23.736  10.900
64120W        W23216  25.614  35.413  13.969
64121W        W23217  12.813  32.593  10.157
64122W        W23218  36.861  19.246  14.480
64123W        W23219  31.976  22.514  13.062
64124W        W23220  40.413  37.845   4.798
64125W        W23221  19.044  43.338  13.521
64126W        W23222   7.282   6.232   2.871
64127W        W23223  24.202  41.935   4.311
64128W        W23224  37.345  26.562   0.881
64129W        W23225  15.801  15.298  11.012
64130W        W23226  42.338  44.936  13.427
64131W        W23227  30.110  38.546   3.792
64132W        W23228  25.128   7.692   4.657
64133W        W23229  37.537  27.963   0.780
64134W        W23230  37.907  41.020  12.881
64135W        W23231  16.717   6.905   2.722
64136W        W23232  37.885  22.226   0.337
64137W        W23233  11.826  11.798   3.681
64138W        W23234   4.869   5.245   2.262
64139W        W23235  19.729  16.087   1.210
64140W        W23236   5.365  30.605  13.966
64141W        W23237  18.669  24.676  12.421
64142W        W23238  28.658   8.323  14.948
64143W        W23239  30.483   6.896  11.952
64144W        W23240   6.313  24.075  14.321
64145W        W23241  22.116  10.244   1.435
64146W        W23242  29.665   2.304  11.529
64147W        W23243  43.301  21.197  13.490
64148W        W23244   4.238  40.319   1.370
64149W        W23245  10.798  44.802  11.944
64150W        W23246   8.887  39.046  12.878
64151W        W23247   7.735   0.901  13.384
64152W        W23248  26.997  25.529   4.301
64153W        W23249   0.890   6.903   0.958
64154W        W23250   1.771  44.899   0.260
64155W        W23251  11.853  24.081  10.474
64156W        W23252   8.377  44.921   1.222
64157W        W23253   4.843   4.699   4.615
64158W        W23254  42.509  17.121   4.295
64159W        W23255   4.937  30.096   0.898
64160W        W23256  18.640  16.310  14.762
64161W        W23257  44.997  12.149  13.435
64162W        W23258  16.636  36.573   2.397
64163W        W23259  23.217  18.746   0.286
64164W        W23260  15.724  43.014   0.939
64165W        W23261  44.908  41.510   1.415
64166W        W23262  35.037  17.770  12.028
64167W        W23263  27.616  29.958   1.889
64168W        W23264  39.010  26.066  10.444
64169W        W23265  19.772  15.725  13.938
64170W        W23266  23.711  15.244  14.955
64171W        W23267  44.873  28.636   1.326
64172W        W23268  13.710  25.508  12.983
64173W        W23269  41.827  29.142  13.973
64174W        W23270  31.612  21.168   3.201
64175W        W23271  23.006  34.576   4.765
64176W        W23272  19.251  14.589  12.415
64177W        W23273  15.767  14.792   0.379
64178W        W23274  36.061  15.682   3.319
64179W        W23275  32.512   4.404   4.702
64180W        W23276  25.153   2.745   2.895
64181W        W23277  32.493  21.217   4.301
64182W        W23278  30.584  29.641  11.105
64183W        W23279  41.450  43.769   4.726
64184W        W23280  37.404  44.302  10.506
64185W        W23281  41.986   7.895   0.371
64186W        W23282  34.586  44.346   0.847
64187W        W23283  19.240   8.229   2.770
64188W        W23284  24.160  31.068   3.690
64189W        W23285   8.334  35.395  14.892
64190W        W23286   4.935  30.576  13.919
64191W        W23287  25.657  38.016  12.345
64192W        W23288  11.700  17.777  14.891
64193W        W23289  28.948  22.111   3.310
64194W        W23290   6.245  41.988   1.399
64195W        W23291   8.316   1.374  11.955
64196W        W23292  30.910  35.878   0.773
64197W        W23293  33.078  22.519   1.717
64198W        W23294  13.205  21.733   1.717
64199W        W23295  11.788  29.009  14.013
64200W        W23296  12.772  20.583  12.478
64201W        W23297  33.475  23.610  13.337
64202W        W23298   0.476  32.024  10.947
64203W        W23299  26.024  19.242  13.986
64204W        W23300  14.671   1.734  10.423
64205W        W23301  40.424  15.764   3.829
64206W        W23302  25.000  28.051   5.190
64207W        W23303  41.925  37.557  14.326
64208W        W23304   2.436  25.137   2.292
64209W        W23305  43.852  20.649   3.150
64210W        W23306  39.935  13.805  13.815
64211W        W23307   5.836  19.266   1.882
64212W        W23308  14.205  19.059   4.299
64213W        W23309  28.035  22.125   4.754
64214W        W23310   5.233  15.261   0.460
64215W        W23311   0.248  13.286  13.799
64216W        W23312  17.761  22.547   3.263
64217W        W23313  37.871  40.460   2.726
64218W        W23314  20.154  21.127  11.466
64219W        W23315   0.832   4.357  13.454
64220W        W23316  25.567  16.120  12.841
64221W        W23317  31.012   9.685  13.501
64222W        W23318  24.693  20.534  11.987
64223W        W23319  43.885  33.878  12.046
64224W        W23320  20.177  34.408  11.561
64225W        W23321  37.427  12.627  13.838
64226W        W23322  33.474   6.896  10.996
64227W        W23323  25.659   2.300  11.992
64228W        W23324  18.176  19.183  12.370
64229W        W23325   1.335  43.917  10.409
64230W        W23326  21.263   2.345   5.282
64231W        W23327  21.684   7.678   1.781
64232W        W23328   4.904  19.689   3.216
64233W        W23329  29.632  39.955   3.268
64234W        W23330  27.474  40.495   3.194
64235W        W23331  40.919  19.237   1.741
64236W        W23332  42.355  21.097   3.340
64237W        W23333   0.950  42.777  13.519
64238W        W23334  33.005  17.624  14.988
64239W        W23335  29.488  43.971  10.914
64240W        W23336   9.250  23.072  11.123
64241W        W23337  24.714   3.444   3.188
64242W        W23338   4.928   6.325  10.532
64243W        W23339  38.370  37.569  13.362
64244W        W23340   4.772  12.849   0.899
64245W        W23341  14.209  18.050   1.436
64246W        W23342  14.222  13.174  14.855
64247W        W23343   7.299   3.257   2.416
64248W        W23344   6.203   7.386   4.675
64249W        W23345  26.469  19.583  14.829
64250W        W23346  26.483  25.598  12.570
64251W        W23347  38.507  23.202   0.262
64252W        W23348  20.177  32.539   0.456
64253W        W23349  18.222  43.327   2.840
64254W        W23350  41.999  15.144   0.749
64255W        W23351   6.751  31.014   1.438
64256W        W23352  39.467  26.559   2.205
64257W        W23353  35.097  28.086   2.731
64258W        W23354  43.964  33.466  11.014
64259W        W23355  13.726   5.221   1.909
64260W        W23356  26.491   8.254   3.794
64261W        W23357   0.880  25.021  12.435
64262W        W23358   8.367  43.353  12.543
64263W        W23359  22.071  35.398   0.308
64264W        W23360  29.490  37.843   3.842
64265W        W23361  32.403  15.310  12.984
64266W        W23362  21.662   1.791   0.292
64267W        W23363  21.711  38.030  14.403
64268W        W23364   3.283  30.015  12.834
64269W        W23365   0.407  10.266  11.048
64270W        W23366  33.597  21.513   3.633
64271W        W23367   5.260   5.308   2.337
64272W        W23368  42.022  25.218  10.428
64273W        W23369  36.067  14.680  13.996
64274W        W23370   3.288  17.163   3.294
64275W        W23371  20.063  18.571  13.402
64276W        W23372   3.231   0.798   1.303
64277W        W23373  28.136  34.027   1.294
64278W        W23374   0.321  36.405   4.289
64279W        W23375  16.579  11.724  13.408
64280W        W23376  19.227  22.219   1.386
64281W        W23377  44.458  37.886  12.050
64282W        W23378   2.297  34.582   3.337
64283W        W23379  27.087  37.897  12.086
64284W        W23380  11.850  27.614   3.267
64285W        W23381  29.439   8.823   3.151
64286W        W23382  44.805  22.205   4.743
64287W        W23383  25.072  30.986  12.991
64288W        W23384  12.324   5.700   1.925
64289W        W23385  10.793  13.116   4.115
64290W        W23386  43.800  10.867   4.313
64291W        W23387  19.555  32.984   4.245
64292W        W23388  26.993  28.678   0.393
64293W        W23389  33.622  26.116  11.938
64294W        W23390  41.896  22.104  12.495
64295W        W23391  24.048   7.299  13.841
64296W        W23392  22.127  41.497  12.990
64297W        W23393  17.135  44.969  14.396
64298W        W23394  11.153  15.710  10.936
64299W        W23395  39.451  44.916   3.871
64300W        W23396  32.116  40.358   4.119
64301W        W23397  43.940  10.364   9.995
64302W        W23398  23.581  18.756   0.851
64303W        W23399   4.415  30.016   2.753
64304W        W23400  10.767  12.614   0.831
64305W        W23401  10.692  21.513  12.930
64306W        W23402  40.992  15.159  13.308
64307W        W23403   6.414  19.652   2.873
64308W        W23404   9.254  27.461   4.342
64309W        W23405  37.917   8.767  10.126
64310W        W23406  23.560   3.392  14.365
64311W        W23407  13.269  28.095  14.394
64312W        W23408  29.545  18.558   2.709
64313W        W23409   9.349  25.147  12.526
64314W        W23410  42.823  22.034  10.082
64315W        W23411  36.906  43.277  13.867
64316W        W23412  44.411  18.169  10.985
64317W        W23413   6.282  26.988  10.004
64318W        W23414  36.035  12.332  12.439
64319W        W23415  12.156  39.483  10.502
64320W        W23416  37.397  22.603  14.324
64321W        W23417  28.501  38.023  13.507
64322W        W23418  33.561   8.748   1.413
64323W        W23419  44.799  44.875  13.446
64324W        W23420  28.451  10.692   1.705
64325W        W23421  14.212   6.707  10.475
64326W        W23422  28.028  16.577  14.814
64327W        W23423   0.303  12.304   1.811
64328W        W23424  14.210  23.006  10.536
64329W        W23425   1.260  43.939  13.353
64330W        W23426  26.662  43.807  10.160
64331W        W23427  27.119  21.674  12.408
64332W        W23428  42.377  21.036  12.484
64333W        W23429  29.637  17.629   4.654
64334W        W23430  44.423   8.851  10.899
64335W        W23431  16.774  10.836   0.929
64336W        W23432  32.546  33.461  11.491
64337W        W23433  43.004   1.305   0.839
64338W        W23434  43.513  31.119  14.477
64339W        W23435   7.877  43.508   0.810
64340W        W23436  40.442  10.290  13.451
64341W        W23437   0.837  43.348  14.943
64342W        W23438  34.985  34.985   4.244
64343W        W23439  11.627  16.302   0.375
64344W        W23440  43.782  29.101  13.000
64345W        W23441  42.956  29.645  14.384
64346W        W23442  31.929  25.645  12.937
64347W        W23443   8.798  38.986  13.399
64348W        W23444  23.581  18.615   2.806
64349W        W23445  36.850  16.568  11.456
64350W        W23446  18.238   4.876  13.810
64351W        W23447  15.629  27.671  10.614
64352W        W23448  43.470  12.219   1.700
64353W        W23449  23.214  18.583   2.866
64354W        W23450  23.539  42.295   4.766
64355W        W23451   3.829  33.546   1.226
64356W        W23452  27.640  37.931  13.999
64357W        W23453  43.949  42.966  11.067
64358W        W23454  15.760  21.159  13.453
64359W        W23455   4.753  31.980  10.449
64360W        W23456   1.256  27.094  11.997
64361W        W23457  14.808  12.723   4.228
64362W        W23458   5.387  37.388  13.483
64363W        W23459  12.280  24.161   3.841
64364W        W23460  14.278   2.866   0.753
64365W        W23461  32.071  21.176   0.457
64366W        W23462  10.748  30.647  12.839
64367W        W23463  18.210  43.513   1.221
64368W        W23464  25.143   7.357  12.823
64369W        W23465  42.842  27.491  14.906
64370W        W23466   9.287  17.753   2.180
64371W        W23467  16.122   4.911   1.246
64372W        W23468   6.324   7.401   3.859
64373W        W23469  41.996  25.007   0.902
64374W        W23470   0.460  24.123  10.499
64375W        W23471  14.197  14.214   4.348
64376W        W23472  36.564  42.387   1.327
64377W        W23473  15.312   1.241  12.418
64378W        W23474  33.503  14.283   2.837
64379W        W23475  23.068  20.592  13.409
64380W        W23476  27.952  31.520   2.832
64381W        W23477  25.127  23.116  13.028
64382W        W23478  44.923  23.197  12.432
64383W        W23479  13.349   7.240  10.897
64384W        W23480  26.137  21.159  13.462
64385W        W23481  34.503  21.065   1.714
64386W        W23482  31.968  17.235   2.875
64387W        W23483  37.536  32.130   1.825
64388W        W23484  26.203   7.709   0.319
64389W        W23485   8.816  15.715  10.936
64390W        W23486  14.756  24.981   1.254
64391W        W23487  31.629  28.073   0.785
64392W        W23488  28.626  29.011   3.836
64393W        W23489  23.561   1.872   0.306
64394W        W23490  43.366  37.525  14.352
64395W        W23491  40.848   3.278  13.928
64396W        W23492  28.015  19.710   2.674
64397W        W23493  40.538  12.260   4.346
64398W        W23494  35.097  37.983   2.878
64399W        W23495  39.385  26.134  11.039
64400W        W23496  19.183   2.227   4.634
64401W        W23497  28.962  25.702   2.726
64402W        W23498  40.364  21.025   4.242
64403W        W23499   1.887  21.132  12.481
64404W        W23500  18.159  33.037  10.122
64405W        W23501  34.608   9.255   1.698
64406W        W23502  21.244   6.240   0.876
64407W        W23503  10.235  41.020   3.781
64408W        W23504  41.006  20.078  13.535
64409W        W23505  35.523  20.665   2.890
64410W        W23506  26.054  37.417  10.907
64411W        W23507  31.036   9.862  12.038
64412W        W23508  41.488  31.075   2.691
64413W        W23509  40.512   3.781   0.289
64414W        W23510  27.640  30.085  11.604
64415W        W23511   1.736  17.612  14.964
64416W        W23512  28.524   8.195  12.450
64417W        W23513  21.582  38.465   3.151
64418W        W23514  35.373  17.680   4.136
64419W        W23515   2.414  30.655  12.033
64420W        W23516  12.353  43.317  13.052
64421W        W23517  23.152  16.253   2.287
64422W        W23518  16.159  19.095   4.188
64423W        W23519  35.894  30.065  13.476
64424W        W23520   5.925  16.679   0.371
64425W        W23521  43.850  44.469  14.927
64426W        W23522  31.146  30.986   3.298
64427W        W23523  15.165  20.061   0.267
64428W        W23524  41.983  11.325   4.163
64429W        W23525  18.254  40.993  10.577
64430W        W23526  32.490  38.067  13.001
64431W        W23527  40.372  34.522  13.051
64432W        W23528   2.446   3.455  12.374
64433W        W23529  18.205   9.298   5.669
64434W        W23530  26.502  41.319  10.957
64435W        W23531  19.742  25.966  10.633
64436W        W23532  40.378  16.647  10.601
64437W        W23533  29.462  26.543   0.467
64438W        W23534  16.313  15.782  13.045
64439W        W23535  14.257  34.118   1.931
64440W        W23536  21.596  23.046   1.211
64441W        W23537  12.679  10.282  12.565
64442W        W23538   1.786  18.294   3.645
64443W        W23539  38.427  10.342  14.487
64444W        W23540   4.297  21.098   4.127
64445W        W23541  43.492  20.536   1.707
64446W        W23542  17.168  36.861  13.816
64447W        W23543  13.120  37.462  14.978
64448W        W23544  44.377  11.171   3.831
64449W        W23545  26.187  33.959   5.569
64450W        W23546  38.068  39.064  10.445
64451W        W23547  39.854  13.223   2.246
64452W        W23548  23.674  11.147  14.968
64453W        W23549  14.340   7.247   1.318
64454W        W23550  21.074   9.670   0.361
64455W        W23551  35.060  13.166   3.288
64456W        W23552  21.619  21.033   4.641
64457W        W23553  15.324   4.267  14.790
64458W        W23554   5.229  36.932  14.026
64459W        W23555  27.013  13.789  13.368
64460W        W23556  19.229  15.115  12.029
64461W        W23557  13.642   0.757   0.897
64462W        W23558  21.689   3.786  14.452
64463W        W23559   7.401   5.751  14.833
64464W        W23560  40.453  16.787   2.828
64465W        W23561  12.655  26.506  12.965
64466W        W23562  19.730  30.155   2.365
64467W        W23563  37.899  36.484  12.403
64468W        W23564  38.050  39.891  12.022
64469W        W23565   9.794  20.716  14.846
64470W        W23566  44.790   8.817   3.713
64471W        W23567  39.422   6.254   2.840
64472W        W23568   2.414  31.020  12.388
64473W        W23569  28.539  44.804   4.728
64474W        W23570  28.983  42.965   5.199
64475W        W23571  12.614   8.287  12.963
64476W        W23572  25.540   5.887   4.827
64477W        W23573  40.515   0.779  14.389
64478W        W23574  39.998  27.678   3.662
64479W        W23575  34.943  32.997   0.842
64480W        W23576   4.703  32.543   3.726
64481W        W23577  14.324  10.754  14.851
64482W        W23578  15.195   8.817   2.773
64483W        W23579   6.421  40.798   3.217
64484W        W23580  18.124  38.967  14.878
64485W        W23581   8.253  13.332  14.890
64486W        W23582  25.493   1.364   4.216
64487W        W23583  15.112  39.015   2.709
64488W        W23584  42.474   7.902   4.209
64489W        W23585  23.003  30.599  10.471
64490W        W23586  20.112  28.479  13.846
64491W        W23587  39.386  10.707   0.411
64492W        W23588  38.994  24.038  11.971
64493W        W23589  34.982   5.408   1.800
64494W        W23590  27.077   9.865   2.218
64495W        W23591  11.808  19.723  13.477
64496W        W23592   6.231  10.833  12.853
64497W        W23593  39.988  17.607   1.715
64498W        W23594  11.277  30.051  13.393
64499W        W23595   6.882   1.887   1.275
64500W        W23596  10.726  22.510   3.690
64501W        W23597  12.817  39.478   4.166
64502W        W23598  40.526  39.903   1.932
64503W        W23599  36.047  39.400   2.696
64504W        W23600  31.903  38.395   1.297
64505W        W23601  17.722  44.928   1.326
64506W        W23602  31.966   9.800  13.850
64507W        W23603   9.379  34.394  11.114
64508W        W23604  32.988   3.854  14.949
64509W        W23605  30.128  41.293  11.968
64510W        W23606  22.215   8.880  14.872
64511W        W23607  15.099  38.990  14.492
64512W        W23608  12.157  21.076   2.854
64513W        W23609  23.604  10.300  12.923
64514W        W23610  18.576  43.512  12.343
64515W        W23611  15.091  25.982   4.235
64516W        W23612  29.457  23.605  13.836
64517W        W23613  16.228  31.926  10.568
64518W        W23614  40.387   7.814  13.309
64519W        W23615  31.896  15.094   3.684
64520W        W23616  14.095  17.650   1.914
64521W        W23617  15.583  38.979  13.340
64522W        W23618   6.834  39.527   3.814
64523W        W23619  15.106  22.097   0.405
64524W        W23620  37.528  34.058   1.244
64525W        W23621  20.132  36.932  10.038
64526W        W23622   0.442  23.137  13.355
64527W        W23623  15.732   6.881  12.069
64528W        W23624  29.167  43.912   3.215
64529W        W23625  28.537  43.974  12.995
64530W        W23626  35.563  25.113  13.992
64531W        W23627   6.367  16.758   3.789
64532W        W23628  30.622  41.942   0.345
64533W        W23629  40.331  18.714  13.950
64534W        W23630  32.546  38.042   1.276
64535W        W23631  21.251  35.554  11.934
64536W        W23632  13.252   4.280   0.477
64537W        W23633  19.129  13.601   4.346
64538W        W23634   1.424  39.429   1.223
64539W        W23635  12.259   8.345  14.512
64540W        W23636  40.899  18.254  14.941
64541W        W23637   0.408  28.070  13.436
64542W        W23638   2.390  15.671  10.426
64543W        W23639  26.543  35.565   0.470
64544W        W23640   3.268  20.572  12.531
64545W        W23641  32.939  18.211  13.433
64546W        W23642  43.867  34.924  14.307
64547W        W23643  39.977  10.860   2.419
64548W        W23644  17.779   2.898  14.015
64549W        W23645  17.298  40.512  11.873
64550W        W23646   3.793  18.574  14.410
64551W        W23647  38.448  30.480   0.356
64552W        W23648  38.360  41.890   0.388
64553W        W23649  39.540  28.564   2.799
64554W        W23650  15.130   4.241  14.407
64555W        W23651   9.240  21.709  11.462
64556W        W23652  36.489  24.218  10.924
64557W        W23653  10.719   1.421  10.634
64558W        W23654  39.043  18.069   1.696
64559W        W23655  22.648  20.046  11.492
64560W        W23656  26.072  25.475  13.381
64561W        W23657  25.194  26.064  13.430
64562W        W23658  44.460  22.576  12.941
64563W        W23659  44.303  14.689   1.746
64564W        W23660  35.064   6.691  12.890
64565W        W23661   0.810  12.658   2.191
64566W        W23662  10.679  14.172  13.960
64567W        W23663   5.373  29.038  13.820
64568W        W23664   5.408  24.606  13.846
64569W        W23665  26.458  42.950   4.248
64570W        W23666   4.367  40.828  11.894
64571W        W23667  23.241  32.600   3.666
64572W        W23668  17.188  34.889  13.993
64573W        W23669   1.294  24.500  12.021
64574W        W23670  38.562  43.281   4.630
64575W        W23671  21.657  19.720   4.160
64576W        W23672  10.655  31.931  11.071
64577W        W23673   0.877   1.917   4.314
64578W        W23674  14.143  32.423  13.792
64579W        W23675  15.134  43.817   2.242
64580W        W23676  39.421   5.715   3.838
64581W        W23677   3.829  10.760   3.676
64582W        W23678  15.635  12.656   1.853
64583W        W23679  18.659   7.669   0.794
64584W        W23680  13.298  30.092  11.966
64585W        W23681  44.315  35.370   4.741
64586W        W23682   6.743  16.132   2.733
64587W        W23683  33.057  39.894  12.397
64588W        W23684  37.886  20.686  11.905
64589W        W23685  38.057  35.973  13.879
64590W        W23686  27.650   4.363   4.776
64591W        W23687  41.393  32.126   4.642
64592W        W23688  35.393  42.916   4.236
64593W        W23689  28.976  20.241   0.895
64594W        W23690  10.325   1.472  10.641
64595W        W23691  20.651  29.038  11.605
64596W        W23692  40.339  25.091   4.619
64597W        W23693  41.963  27.527   1.224
64598W        W23694   3.224  23.507  11.089
64599W        W23695  13.198  23.228   3.858
64600W        W23696  12.336  40.936  14.828
64601W        W23697  32.085  27.097   3.348
64602W        W23698   8.733  23.152  12.531
64603W        W23699  19.266  15.160  13.401
64604W        W23700   5.906   8.351   0.438
64605W        W23701  22.742  44.927   2.237
64606W        W23702  37.049  44.901  13.514
64607W        W23703  40.453  20.746   1.405
64608W        W23704  19.634  44.396  14.814
64609W        W23705  21.159  20.045  13.448
64610W        W23706  42.979  40.520  13.376
64611W        W23707  40.013  14.808   0.258
64612W        W23708  13.631  13.774  14.800
64613W        W23709  34.432   4.380  11.504
64614W        W23710  15.722  12.136  13.857
64615W        W23711  15.144  25.996  11.127
64616W        W23712   7.196  13.115   4.177
64617W        W23713   2.787  20.601   1.906
64618W        W23714  21.151  18.703   2.189
64619W        W23715  35.561  13.766   0.361
64620W        W23716   7.849  35.466  13.431
64621W        W23717   1.297  31.514  12.386
64622W        W23718   4.435  18.288   4.325
64623W        W23719   9.362  29.089   3.329
64624W        W23720  23.599  36.395   4.303
64625W        W23721  27.657  23.223  10.519
64626W        W23722  28.987  24.024   0.916
64627W        W23723  43.941  43.778   0.775
64628W        W23724   5.265  22.156   4.213
64629W        W23725  29.140  12.689   3.156
64630W        W23726  37.335  18.217  12.056
64631W        W23727  28.668  21.212   9.663
64632W        W23728  43.818   1.794  10.921
64633W        W23729  32.419  44.983   0.402
64634W        W23730   2.888   9.817   1.211
64635W        W23731  33.977  40.546   4.151
64636W        W23732  12.265  24.590   3.226
64637W        W23733  41.919   3.394  13.382
64638W        W23734  25.494  13.279   3.839
64639W        W23735  32.493  31.499  11.044
64640W        W23736  30.983  22.998  10.535
64641W        W23737  31.086  20.649  12.442
64642W        W23738   9.853  27.463  10.623
64643W        W23739  32.407  37.375   2.350
64644W        W23740  41.862  43.279  12.525
64645W        W23741  16.773  32.523   4.697
64646W        W23742  18.731  15.180  14.032
64647W        W23743  10.667  28.666  13.004
64648W        W23744  43.799  10.344   3.302
64649W        W23745  34.403   6.786   1.352
64650W        W23746  20.679  44.009   4.797
64651W        W23747  30.080  19.733   1.272
64652W        W23748  30.153  39.347  14.472
64653W        W23749  40.517  23.188  13.489
64654W        W23750  27.536   9.799   2.267
64655W        W23751  10.223  31.467   0.316
64656W        W23752  44.310  42.392  10.963
64657W        W23753  37.027  21.755  11.572
64658W        W23754  24.563  41.400   3.301
64659W        W23755  16.086  22.573   3.787
64660W        W23756  30.134  31.034   0.743
64661W        W23757   4.924  25.037   0.773
64662W        W23758   0.831  35.902   2.711
64663W        W23759  35.099  38.341   2.772
64664W        W23760   5.232  30.570  13.054
64665W        W23761  29.580  22.531   3.681
64666W        W23762  36.523  18.124  12.976
64667W        W23763  24.529  19.100  12.045
64668W        W23764  32.895  33.420   3.189
64669W        W23765  41.399  22.145  11.867
64670W        W23766  19.097  15.122   0.261
64671W        W23767  24.520   7.666   2.856
64672W        W23768  42.793   6.906  11.900
64673W        W23769  42.482   8.207   4.309
64674W        W23770   2.926  14.127   1.346
64675W        W23771  23.086   0.857  13.997
64676W        W23772  41.954   5.876   9.928
64677W        W23773  23.519  36.876  11.914
64678W        W23774  32.550  31.092  10.480
64679W        W23775  23.688  30.012  12.436
64680W        W23776  22.569  23.080   1.878
64681W        W23777   2.457  30.002  12.539
64682W        W23778  35.962  19.058  14.824
64683W        W23779   9.242  27.505   5.135
64684W        W23780  34.034  31.067  12.353
64685W        W23781  16.230  33.519   0.449
64686W        W23782  29.132  33.497   1.255
64687W        W23783  17.673  26.494   1.812
64688W        W23784  12.691  27.032  13.821
64689W        W23785  29.969   8.698  11.422
64690W        W23786  35.452  29.445  13.402
64691W        W23787  25.139   4.374  10.914
64692W        W23788  17.603  12.691  11.970
64693W        W23789  29.619  25.577   1.235
64694W        W23790   6.364  39.351  10.982
64695W        W23791  16.150  29.575   3.634
64696W        W23792  12.750  29.108  13.330
64697W        W23793  10.758  22.070  11.087
64698W        W23794   2.228   2.302   1.773
64699W        W23795  37.475  39.953   0.247
64700W        W23796   3.904  12.643   4.251
64701W        W23797  13.276  13.201  11.611
64702W        W23798  22.112  22.519   2.205
64703W        W23799  13.146   5.933  13.405
64704W        W23800  20.565  35.050   2.268
64705W        W23801  36.580  14.108  14.882
64706W        W23802  32.025  39.917   2.886
64707W        W23803   3.279  42.906   1.868
64708W        W23804  24.712  38.043  14.453
64709W        W23805  17.792  37.943   4.173
64710W        W23806   1.352  39.962   0.422
64711W        W23807   3.901  41.413  10.904
64712W        W23808  43.832  14.789  10.508
64713W        W23809  42.289  31.646   0.801
64714W        W23810  20.067  28.674  11.857
64715W        W23811  25.090  22.510  10.540
64716W        W23812  28.611  10.647   0.448
64717W        W23813  36.858  12.625   0.322
64718W        W23814  42.909  28.654   0.832
64719W        W23815   9.280  10.223  10.430
64720W        W23816  20.696  10.743   1.366
64721W        W23817  11.653   1.477   1.419
64722W        W23818  22.091  18.631   4.163
64723W        W23819  20.553  23.701   4.279
64724W        W23820  29.991   5.909   1.348
64725W        W23821  27.051  38.032   2.764
64726W        W23822   9.808  13.158   1.699
64727W        W23823  26.205  18.273   1.235
64728W        W23824  26.194  38.953   0.411
64729W        W23825  16.173  26.185  10.607
64730W        W23826  26.120   9.232  11.941
64731W        W23827  43.921  19.073  12.989
64732W        W23828  33.582   5.279  13.385
64733W        W23829  21.673  13.316   0.384
64734W        W23830  22.565  10.827   2.888
64735W        W23831  25.656  17.194  14.465
64736W        W23832  36.080  42.025   1.330
64737W        W23833  15.244   5.398  14.969
64738W        W23834  34.562   5.915  12.503
64739W        W23835   1.911  35.974  11.505
64740W        W23836  44.455   2.266  14.786
64741W        W23837   6.184   0.294  11.558
64742W        W23838  10.150  30.639   0.880
64743W        W23839  27.181  14.771  14.964
64744W        W23840  43.879   7.755  11.884
64745W        W23841  28.139  40.799  10.645
64746W        W23842  15.146  20.662   2.293
64747W        W23843  43.394  32.030   3.778
64748W        W23844  18.210   0.761  13.031
64749W        W23845  19.170  19.259   2.357
64750W        W23846  23.623  27.044   2.841
64751W        W23847   0.899  24.194   3.670
64752W        W23848  42.982   2.738  13.399
64753W        W23849  21.522   9.780  11.455
64754W        W23850   0.326  37.462   3.268
64755W        W23851  17.696  19.076  10.980
64756W        W23852  11.192  12.323   0.796
64757W        W23853  10.681   3.937  10.998
64758W        W23854  37.466  37.985  14.324
64759W        W23855  38.013  26.990   4.639
64760W        W23856  15.292  32.896  10.063
64761W        W23857  28.540  21.223   1.734
64762W        W23858  15.201  42.846  13.516
64763W        W23859  18.226  32.511  14.960
64764W        W23860  34.571  22.226   2.828
64765W        W23861  25.061   4.435  13.995
64766W        W23862  23.732  36.921  11.463
64767W        W23863  10.662  27.951  14.843
64768W        W23864  22.518  41.386   4.351
64769W        W23865  29.487  13.766  14.769
64770W        W23866   6.369   7.883  12.082
64771W        W23867  17.666  25.571   0.401
64772W        W23868   3.938  43.431   2.403
64773W        W23869  11.233  26.047   2.321
64774W        W23870   0.784  27.669   3.218
64775W        W23871  38.490  40.849  13.002
64776W        W23872   1.243  40.348   1.283
64777W        W23873  34.951  31.481   1.376
64778W        W23874  27.089  34.930  13.794
64779W        W23875   7.864  35.371   2.399
64780W        W23876   6.823  37.906   0.833
64781W        W23877  24.155  10.770   9.474
64782W        W23878  44.942  15.740  11.435
64783W        W23879  11.245   3.844   3.333
64784W        W23880   4.901   1.746   2.870
64785W        W23881  43.313  33.108  14.032
64786W        W23882  13.739  29.084   1.312
64787W        W23883  40.339  17.187  12.361
64788W        W23884  30.000  24.030  13.991
64789W        W23885  25.662  15.747   0.929
64790W        W23886  15.804  40.361  12.844
64791W        W23887   1.240  38.512  12.914
64792W        W23888   8.712   8.766  13.986
64793W        W23889   8.253  23.641  11.450
64794W        W23890  25.598  26.170   0.472
64795W        W23891  32.084  40.814  10.500
64796W        W23892   6.747  33.116   0.907
64797W        W23893  42.933   8.812   1.406
64798W        W23894  30.925  10.253  14.386
64799W        W23895  17.228  37.038   0.286
64800W        W23896  20.611  31.118  11.510
64801W        W23897   3.289   6.270  10.640
64802W        W23898  25.966   9.727  12.054
64803W        W23899  24.184   2.440  12.002
64804W        W23900  43.429  34.585   4.700
64805W        W23901  41.847   4.249   1.715
64806W        W23902  24.546  26.087   3.686
64807W        W23903  41.388  16.736   3.186
64808W        W23904  11.353  41.475  11.515
64809W        W23905  18.645  40.006  13.888
64810W        W23906  10.856  17.306   0.837
64811W        W23907  44.498  16.166   3.202
64812W        W23908  30.486  10.812  13.534
64813W        W23909  22.211   6.860   1.887
64814W        W23910  35.371  39.973  13.956
64815W        W23911  30.121  37.871   0.377
64816W        W23912  25.131  15.716  11.482
64817W        W23913  27.025   5.742   2.827
64818W        W23914  26.121  29.631  11.535
64819W        W23915  34.573  36.390  13.454
64820W        W23916  19.117  33.111   2.739
64821W        W23917  44.947  28.437   1.854
64822W        W23918  44.821  26.998   0.844
64823W        W23919  39.832   7.765   2.882
64824W        W23920  36.420  29.941  10.990
64825W        W23921  23.514  24.123  11.012
64826W        W23922  43.800  19.087  13.378
64827W        W23923  42.486   2.437  11.066
64828W        W23924  20.105  30.454   0.749
64829W        W23925  16.095   6.689  12.090
64830W        W23926  26.683   7.803  12.916
64831W        W23927   0.323   0.420   2.310
64832W        W23928  28.513  23.158  13.855
64833W        W23929  27.165  43.401   4.776
64834W        W23930  30.500  26.517   0.885
64835W        W23931  16.230  38.005  13.345
64836W        W23932  31.977  30.460   3.300
64837W        W23933  17.731  44.346  13.414
64838W        W23934   9.378  20.077  14.012
64839W        W23935  44.306  17.262  10.552
64840W        W23936  41.973  10.184  11.122
64841W        W23937   9.323   3.857  11.394
64842W        W23938   0.832  15.646   3.824
64843W        W23939  24.556  33.985   2.226
64844W        W23940  17.250  26.118   4.327
64845W        W23941  38.848  25.519   1.809
64846W        W23942  35.072  44.889  13.898
64847W        W23943  22.722  35.452  10.569
64848W        W23944  24.621   6.275  11.449
64849W        W23945  12.683  37.454   4.232
64850W        W23946   1.424  29.918  12.478
64851W        W23947  14.782   9.863   0.818
64852W        W23948  15.193  10.328  14.920
64853W        W23949  27.089  42.945  12.436
64854W        W23950  11.712  22.560  14.381
64855W        W23951   7.882   8.665   4.719
64856W        W23952  25.604   7.390  13.432
64857W        W23953  19.761  10.666   4.673
64858W        W23954  32.487   1.374   2.786
64859W        W23955  18.747  32.895  10.106
64860W        W23956   9.288  41.351  12.926
64861W        W23957  24.149  39.401   0.292
64862W        W23958  17.761  31.445   0.332
64863W        W23959  35.566  15.191  13.403
64864W        W23960  19.230   0.397   3.665
64865W        W23961   6.686  12.346  14.482
64866W        W23962  25.964  26.582   5.312
64867W        W23963  33.048  34.046  12.001
64868W        W23964   7.199   5.396  14.469
64869W        W23965  40.364   3.722  11.387
64870W        W23966   9.791  37.427   2.774
64871W        W23967  39.460  23.170  13.524
64872W        W23968   1.843  14.292   0.273
64873W        W23969  40.825  24.032  10.428
64874W        W23970  34.946  43.342   4.325
64875W        W23971   8.170  17.149   0.421
64876W        W23972  27.678  16.284   1.416
64877W        W23973   4.321   2.429  11.933
64878W        W23974   7.851  28.555   1.699
64879W        W23975  38.895  36.046  10.569
64880W        W23976  10.644  28.177  13.998
64881W        W23977  13.841  44.901  10.622
64882W        W23978  12.720  22.186   2.803
64883W        W23979  36.442  20.249  11.022
64884W        W23980  40.904  14.338  10.558
64885W        W23981  35.104   9.719  10.522
64886W        W23982  21.721  18.726   4.343
64887W        W23983  14.121  32.982  14.991
64888W        W23984  37.366  12.758  10.003
64889W        W23985  38.346  40.457   3.811
64890W        W23986  26.659  41.999   4.691
64891W        W23987  37.881  16.617  14.306
64892W        W23988  32.424  29.086   0.954
64893W        W23989  37.377  14.798  11.604
64894W        W23990  12.271   5.849   4.248
64895W        W23991  34.475  37.020  14.483
64896W        W23992  15.284  31.046  11.887
64897W        W23993  10.780  33.394  13.952
64898W        W23994  36.427   7.180   1.721
64899W        W23995  36.046   4.270   1.382
64900W        W23996  40.487  41.855   0.357
64901W        W23997  44.448   6.735  12.353
64902W        W23998  44.390  32.553   2.766
64903W        W23999   2.875  28.951  11.085
64904W        W24000  35.560   9.154   1.928
64905W        W24001  34.034   2.862  12.933
64906W        W24002  43.013  28.079  11.082
64907W        W24003  35.465  32.079   2.825
64908W        W24004  27.986  40.523  13.357
64909W        W24005  22.718  10.709   1.402
64910W        W24006  28.073  31.072   0.382
64911W        W24007   7.288  29.651   1.438
64912W        W24008  32.009  16.087   5.715
64913W        W24009   2.399  26.977   4.738
64914W        W24010  13.244  28.111   3.847
64915W        W24011  26.695  32.985  12.968
64916W        W24012  40.362  36.535  11.425
64917W        W24013  18.269  28.150   0.343
64918W        W24014  15.229  37.427  14.983
64919W        W24015  41.359   1.238   1.369
64920W        W24016  13.322  29.492  14.891
64921W        W24017  33.986  25.643   0.391
64922W        W24018   7.310  15.301  12.431
64923W        W24019  43.778   0.444  11.411
64924W        W24020  43.826  25.669  10.442
64925W        W24021  20.077   8.310  14.492
64926W        W24022   7.214  13.323   4.794
64927W        W24023  37.357  22.165  14.849
64928W        W24024  32.905  20.714   1.873
64929W        W24025  40.939   1.374   0.346
64930W        W24026   5.228  41.798  11.027
64931W        W24027  32.001  15.202   4.818
64932W        W24028  19.122  36.063  14.857
64933W        W24029  41.475  38.451   0.812
64934W        W24030  32.566  17.749   1.356
64935W        W24031  10.824   4.823  13.059
64936W        W24032  14.259  22.041   2.398
64937W        W24033  11.704   7.270  14.333
64938W        W24034  19.588  12.842  14.392
64939W        W24035  36.882   1.345   3.165
64940W        W24036  21.076   6.809  14.944
64941W        W24037  17.236  41.470   4.770
64942W        W24038   0.875  11.170  12.573
64943W        W24039  22.716  14.222   4.743
64944W        W24040  44.306  26.548  13.054
64945W        W24041  43.499  26.165  13.442
64946W        W24042   2.924  15.635   1.774
64947W        W24043   5.282  23.104   1.369
64948W        W24044  12.707  30.989  12.435
64949W        W24045  42.401   6.183  10.944
64950W        W24046   6.196  13.106  12.526
64951W        W24047  19.658  25.583   1.376
64952W        W24048  44.873   5.418  14.380
64953W        W24049  42.504  32.038  12.893
64954W        W24050  15.691  38.325  13.369
64955W        W24051  19.138  17.099   3.324
64956W        W24052  20.118  42.977  12.909
64957W        W24053   0.361  16.679   2.720
64958W        W24054  13.742   9.740  13.887
64959W        W24055  36.035  14.295   1.767
64960W        W24056  27.054  14.680  12.578
64961W        W24057  20.555  37.880  11.036
64962W        W24058  31.595  27.084   2.668
64963W        W24059  35.047  39.920  12.884
64964W        W24060  39.862  27.519  12.379
64965W        W24061  43.818  36.393  14.997
64966W        W24062  33.478  18.663   4.190
64967W        W24063   2.319  10.786   0.338
64968W        W24064  26.502  19.601  11.866
64969W        W24065  29.074  34.406  14.892
64970W        W24066   3.408  44.987  12.009
64971W        W24067  41.431  22.621  13.315
64972W        W24068  21.114  36.925   4.165
64973W        W24069  10.291  25.602   3.709
64974W        W24070  35.070  43.969  12.004
64975W        W24071  29.463  18.640   1.912
64976W        W24072  17.268  32.914  11.404
64977W        W24073  15.170  39.331  11.399
64978W        W24074  21.191  39.049  13.949
64979W        W24075  39.999  30.578  14.771
64980W        W24076   4.918  44.922  10.475
64981W        W24077  15.128  19.241  13.841
64982W        W24078  34.581  16.749  14.815
64983W        W24079  24.103  25.541  13.937
64984W        W24080  36.896  43.305  13.059
64985W        W24081  37.950  25.689  13.874
64986W        W24082  35.377  30.918  13.518
64987W        W24083  15.691  42.480   0.329
64988W        W24084  17.247  28.035   0.870
64989W        W24085   0.913   0.766  14.276
64990W        W24086  32.535  15.612   5.587
64991W        W24087  29.975  40.323   2.356
64992W        W24088  27.531  28.546  12.895
64993W        W24089   3.892  36.081   4.635
64994W        W24090  23.551   8.663   4.183
64995W        W24091  11.727  18.203  11.085
64996W        W24092   0.401  30.082  12.357
64997W        W24093  12.759   0.466  11.393
64998W        W24094  44.475   6.259  11.079
64999W        W24095   9.176  15.311   3.306
65000W        W24096  16.166  25.126   1.344
65001W        W24097  14.650  28.994   3.158
65002W        W24098  18.205  26.562   4.126
65003W        W24099   9.313  25.046   0.894
65004W        W24100  22.197  38.984  13.053
65005W        W24101  37.565  14.821  13.925
65006W        W24102  18.578  11.698  10.907
65007W        W24103   0.318   1.309  12.070
65008W        W24104   5.369  29.445  12.059
65009W        W24105  14.149  41.534  14.425
65010W        W24106  33.060  15.628   2.889
65011W        W24107  29.049  39.005  12.355
65012W        W24108   0.265   7.775   4.803
65013W        W24109  11.255   0.411  13.317
65014W        W24110  42.849  13.328   2.830
65015W        W24111  10.320  28.482   2.182
65016W        W24112  22.220  23.189  12.995
65017W        W24113  35.487   3.836   1.916
65018W        W24114  33.986  21.112  13.937
65019W        W24115  19.561  16.231   4.700
65020W        W24116   3.265  35.567   1.844
65021W        W24117   1.358  17.153  14.938
65022W        W24118   2.317   1.454   2.318
65023W        W24119   9.167  43.393  11.905
65024W        W24120  13.789  24.045   4.171
65025W        W24121  15.745  29.003  14.843
65026W        W24122  35.523  12.827  12.441
65027W        W24123  22.695  16.648  10.610
65028W        W24124   2.450   3.355   2.360
65029W        W24125  32.585  31.587  14.872
65030W        W24126  22.720   0.811  12.906
65031W        W24127  31.903  15.741  14.787
65032W        W24128  30.137   5.718   3.303
65033W        W24129  41.943   6.718   3.655
65034W        W24130  22.656  17.123   0.809
65035W        W24131   8.885  34.029  12.524
65036W        W24132  36.900  31.479  14.794
65037W        W24133   5.286   4.832   0.742
65038W        W24134  22.606  20.243   5.676
65039W        W24135  39.858  44.919   2.188
65040W        W24136  10.743  29.484   0.938
65041W        W24137  12.764  21.128  10.446
65042W        W24138  16.170  33.552  10.568
65043W        W24139  26.990  33.592   4.290
65044W        W24140  39.846  41.960  10.468
65045W        W24141  10.875  19.776   2.883
65046W        W24142  14.641  40.396   0.849
65047W        W24143   7.291  20.169  11.914
65048W        W24144  23.505  39.035  13.491
65049W        W24145  33.973   0.928  13.457
65050W        W24146  24.062   9.880  11.530
65051W        W24147  41.450   3.737  12.499
65052W        W24148  33.402  21.126  13.398
65053W        W24149  23.049  24.026  11.089
65054W        W24150  21.592  16.109  14.460
65055W        W24151   2.869  20.584   4.650
65056W        W24152  39.922   4.404   4.823
65057W        W24153   5.413  10.355   1.698
65058W        W24154  13.127  27.547   1.260
65059W        W24155  12.727  24.025  10.550
65060W        W24156  21.036  19.066   1.770
65061W        W24157  38.959  17.637  10.510
65062W        W24158  26.076   5.793   3.838
65063W        W24159  27.565  33.591   4.302
65064W        W24160  18.746   5.350   0.967
65065W        W24161   6.244  27.545  13.544
65066W        W24162  44.496  36.551   2.220
65067W        W24163  36.883  15.203  14.974
65068W        W24164  20.110  17.117  12.455
65069W        W24165  42.323  44.774  10.897
65070W        W24166  40.853  36.517   4.632
65071W        W24167  17.182  22.015  10.092
65072W        W24168  32.526  30.426   0.834
65073W        W24169  26.585  33.504   1.879
65074W        W24170  32.445  39.470  13.541
65075W        W24171  25.475  43.472  14.833
65076W        W24172  26.580  38.820  11.589
65077W        W24173  10.300  39.364  14.823
65078W        W24174  31.011   6.372   2.691
65079W        W24175  11.181  41.024   4.223
65080W        W24176  13.270  32.052  12.391
65081W        W24177  44.910  38.062  11.510
65082W        W24178  10.286  24.202  14.899
65083W        W24179  43.933  41.831   1.290
65084W        W24180  37.927   2.311   0.414
65085W        W24181  29.623  22.097   0.742
65086W        W24182  39.846  38.860  13.467
65087W        W24183  36.454  44.274   1.362
65088W        W24184  40.400  33.545   3.677
65089W        W24185  17.158  13.642  11.994
65090W        W24186  19.237  29.630   2.889
65091W        W24187   1.935  34.562  12.872
65092W        W24188  33.617  20.122   0.966
65093W        W24189  36.035  30.583   4.167
65094W        W24190   9.203  14.590   0.416
65095W        W24191  31.540  38.392   3.781
65096W        W24192  20.737  34.469  14.479
65097W        W24193   7.224  10.831   0.480
65098W        W24194  29.051  19.628  12.462
65099W        W24195  29.557  25.572  12.948
65100W        W24196  29.044   0.477   3.192
65101W        W24197  19.039  15.693  12.030
65102W        W24198  24.992  35.372   0.783
65103W        W24199   1.471  19.601  12.046
65104W        W24200  41.877  20.614  12.475
65105W        W24201  40.920  38.460  12.037
65106W        W24202  32.618   7.195  14.474
65107W        W24203  27.494  27.563  11.991
65108W        W24204  28.087  19.188   0.952
65109W        W24205  29.143  34.089   4.312
65110W        W24206  22.601  44.945   1.312
65111W        W24207   7.785  29.141  13.955
65112W        W24208  14.289   5.701  13.844
65113W        W24209   8.268  43.882   2.301
65114W        W24210  26.597   8.874  10.074
65115W        W24211   2.749  29.145  11.868
65116W        W24212   5.819  29.551   4.718
65117W        W24213  22.249  34.430  14.361
65118W        W24214  35.854   3.732  10.968
65119W        W24215  11.691  42.413  12.907
65120W        W24216  39.020  12.361  11.956
65121W        W24217  31.907  34.527  12.382
65122W        W24218  15.312  41.311   0.323
65123W        W24219  37.405  24.667  14.887
65124W        W24220  20.769   6.682  10.433
65125W        W24221  38.561  19.105  14.771
65126W        W24222   6.319   4.388  11.894
65127W        W24223   4.305  27.074  10.431
65128W        W24224  21.550  27.482  14.982
65129W        W24225  10.806  36.440  11.382
65130W        W24226   6.236  23.088  14.397
65131W        W24227   9.164  16.287   9.613
65132W        W24228  32.399   1.370   4.178
65133W        W24229  33.598   3.792  12.088
65134W        W24230  29.546   8.869   3.675
65135W        W24231  35.941  44.422   0.908
65136W        W24232  15.695  15.162   4.227
65137W        W24233  37.964  28.528   3.717
65138W        W24234  39.984  32.014  12.461
65139W        W24235  17.720   4.214   4.292
65140W        W24236   4.797  37.357  14.989
65141W        W24237  32.630  30.449  12.566
65142W        W24238   4.424   3.248   4.639
65143W        W24239  13.305  29.021   2.209
65144W        W24240  40.468  35.487  10.592
65145W        W24241  38.937  34.527  14.761
65146W        W24242  22.006  15.714   4.242
65147W        W24243  44.338  36.034   4.300
65148W        W24244   6.746  30.152   1.261
65149W        W24245  11.294   1.903  11.092
65150W        W24246  37.926   2.852  13.971
65151W        W24247  15.190  14.792   3.277
65152W        W24248   3.918   6.859   2.800
65153W        W24249  41.352  33.921  10.606
65154W        W24250  18.215  33.549  10.125
65155W        W24251  23.191  24.074   0.299
65156W        W24252  16.627  38.495  11.508
65157W        W24253  18.268   4.734  10.072
65158W        W24254   0.332  27.473  11.392
65159W        W24255  24.154  12.235   3.775
65160W        W24256  32.969  37.979   1.228
65161W        W24257  17.762  40.050   2.863
65162W        W24258  15.635  23.155   2.708
65163W        W24259  23.680  33.879  12.942
65164W        W24260   5.251  21.021  13.466
65165W        W24261  11.731  31.453  13.448
65166W        W24262  33.468  19.221  13.991
65167W        W24263   8.812  13.338  11.051
65168W        W24264  43.898  23.222   4.275
65169W        W24265   4.415  12.639  11.984
65170W        W24266  43.808  41.892  12.973
65171W        W24267  25.180  37.941   4.176
65172W        W24268  25.097  23.128  11.058
65173W        W24269  13.820  18.648  14.495
65174W        W24270  19.280  20.099   4.685
65175W        W24271  15.802  22.111   0.941
65176W        W24272  21.718  29.026  11.044
65177W        W24273   4.239  20.765  14.516
65178W        W24274  15.320  42.889  14.942
65179W        W24275  36.899  26.032  14.516
65180W        W24276  34.963  10.725   3.816
65181W        W24277   3.350  27.097   1.319
65182W        W24278  16.629   7.666  12.469
65183W        W24279  17.154  13.173  11.067
65184W        W24280  23.985  15.684   2.889
65185W        W24281  40.976  22.093   3.828
65186W        W24282  41.309  13.324  14.792
65187W        W24283   9.349   9.797   1.894
65188W        W24284  43.831  34.504  12.414
65189W        W24285  12.844  12.646   3.311
65190W        W24286  30.519  40.471  11.581
65191W        W24287  27.605   7.805   3.658
65192W        W24288  14.291  30.460   9.636
65193W        W24289  25.684  23.563   1.734
65194W        W24290  36.494  13.218   1.445
65195W        W24291  31.085  33.125  12.484
65196W        W24292  29.613  19.671   4.639
65197W        W24293  43.836  30.090   3.808
65198W        W24294  43.397  14.745   0.790
65199W        W24295  14.810  42.780  10.585
65200W        W24296  14.294  35.438  11.515
65201W        W24297  27.024  18.588   5.213
65202W        W24298  34.114  29.115  12.089
65203W        W24299  17.163   2.286   0.457
65204W        W24300   4.787  38.484   1.332
65205W        W24301  36.577  41.901  13.839
65206W        W24302  29.156   8.861  11.447
65207W        W24303   0.365   9.862  14.895
65208W        W24304  18.634   0.917   9.969
65209W        W24305   1.444  21.067  13.900
65210W        W24306  10.151   6.356   0.727
65211W        W24307  34.903  40.311   2.802
65212W        W24308  19.275   3.821  14.299
65213W        W24309   9.344  42.487  11.384
65214W        W24310   3.873  44.437  13.446
65215W        W24311  20.056   6.352   0.961
65216W        W24312  35.487  12.679   2.821
65217W        W24313  13.778  19.544   1.335
65218W        W24314   4.727  23.618   1.836
65219W        W24315  22.161   0.986   0.887
65220W        W24316  11.156  32.897  14.794
65221W        W24317  26.636  14.779   4.808
65222W        W24318  16.261  29.616   1.868
65223W        W24319  38.354  30.920   1.714
65224W        W24320  32.519  28.652  10.076
65225W        W24321  26.188  38.417   2.204
65226W        W24322   6.805  26.996  10.043
65227W        W24323  37.439  34.078  14.486
65228W        W24324  24.668  11.155  13.545
65229W        W24325   2.254   1.759  13.823
65230W        W24326  17.739  26.458   5.195
65231W        W24327   6.776   1.418   0.859
65232W        W24328  26.104  40.842   3.329
65233W        W24329   0.783  41.000  14.919
65234W        W24330  42.006   4.864  14.021
65235W        W24331  14.318  35.399  13.954
65236W        W24332  14.767  29.618  11.974
65237W        W24333  13.241   4.269  12.072
65238W        W24334   2.435  22.624   4.246
65239W        W24335  38.834  44.786  11.421
65240W        W24336  23.999  23.569  11.927
65241W        W24337   9.263   9.674  10.497
65242W        W24338   8.822  32.019   1.773
65243W        W24339  29.990  23.207  14.484
65244W        W24340  14.133  25.686  13.946
65245W        W24341  39.329  16.767  12.983
65246W        W24342  28.633  34.442   1.866
65247W        W24343  24.724  16.141  13.535
65248W        W24344   8.266  14.801  12.997
65249W        W24345  26.071  39.422   2.694
65250W        W24346  10.264  35.561  12.457
65251W        W24347   3.263  22.729   2.721
65252W        W24348  19.155  39.394  13.399
65253W        W24349  15.210  32.500   1.254
65254W        W24350  12.737  18.124   2.406
65255W        W24351  10.183  28.457   2.725
65256W        W24352  39.355  23.708   4.210
65257W        W24353  13.185  13.183   4.344
65258W        W24354  38.351  41.888   4.731
65259W        W24355  22.676   0.434   1.809
65260W        W24356  37.535   2.906   0.284
65261W        W24357   2.871  17.667  12.848
65262W        W24358   5.875   8.839  13.976
65263W        W24359  43.887   0.319  12.014
65264W        W24360  31.083  22.185  12.437
65265W        W24361  38.372  41.790   3.233
65266W        W24362  38.007  18.557   2.241
65267W        W24363  33.014   8.818   4.134
65268W        W24364  12.666   7.776   4.178
65269W        W24365   6.712  43.286  12.480
65270W        W24366  39.905  17.083   0.957
65271W        W24367  37.547  13.733   3.224
65272W        W24368  22.198  25.596   0.265
65273W        W24369  28.657  36.461  10.609
65274W        W24370  26.690  16.788   2.368
65275W        W24371   5.799  35.062   4.647
65276W        W24372   3.272   2.885   0.404
65277W        W24373  41.481  15.115  14.412
65278W        W24374  11.237   9.820  13.532
65279W        W24375  40.906  11.834  13.402
65280W        W24376  39.483  16.571   1.865
65281W        W24377   6.886  37.876   2.691
65282W        W24378  21.536  37.887  13.887
65283W        W24379   9.184  28.466   1.306
65284W        W24380  31.896  33.487   0.950
65285W        W24381  37.050  29.918  11.558
65286W        W24382   5.221  18.057  12.507
65287W        W24383  34.885  23.645  12.993
65288W        W24384  31.526  44.324  13.883
65289W        W24385   6.212   0.813   0.797
65290W        W24386   7.288  29.000  11.574
65291W        W24387  37.368   1.433  12.431
65292W        W24388  17.556  44.828  14.859
65293W        W24389  26.690  13.348   0.769
65294W        W24390  18.739   5.364   4.617
65295W        W24391  42.499   9.747  10.906
65296W        W24392  25.986  36.471   4.724
65297W        W24393  17.213  11.855  11.589
65298W        W24394  31.591  38.999  12.840
65299W        W24395  16.615  42.914  14.343
65300W        W24396   6.711  41.036  13.946
65301W        W24397  10.739  31.433  13.883
65302W        W24398   4.351  10.203  10.925
65303W        W24399  19.069  26.060   1.261
65304W        W24400   7.352   8.377   4.838
65305W        W24401  15.087  14.635   1.283
65306W        W24402  13.284  19.219  11.401
65307W        W24403   1.899  19.088  13.795
65308W        W24404  12.224  34.385  12.015
65309W        W24405  19.759  32.135   4.719
65310W        W24406  12.616  27.463  11.930
65311W        W24407   2.239  40.043  10.490
65312W        W24408  11.730  29.158   0.823
65313W        W24409  40.410  25.684   1.285
65314W        W24410  42.290  13.787   0.454
65315W        W24411  16.303   3.769   0.850
65316W        W24412  40.434  12.851  14.310
65317W        W24413  10.736  43.386  10.436
65318W        W24414  14.651  37.936  13.520
65319W        W24415   3.803   2.297   2.893
65320W        W24416  10.224  32.449   1.744
65321W        W24417  33.384   8.314  11.467
65322W        W24418  27.636  34.453  14.325
65323W        W24419  32.590  10.659   0.730
65324W        W24420  11.161  41.509   3.176
65325W        W24421  29.664  14.623   1.873
65326W        W24422   8.341  31.450   4.727
65327W        W24423   4.940  14.151   2.826
65328W        W24424  27.493  24.551  13.469
65329W        W24425  39.469  16.276   1.915
65330W        W24426   7.809  13.181   0.893
65331W        W24427  33.604  31.152   1.783
65332W        W24428  20.180  29.081  12.919
65333W        W24429  16.283  34.872   3.321
65334W        W24430   8.846  29.993   0.366
65335W        W24431  15.250  30.159   0.746
65336W        W24432   7.231   1.914   0.393
65337W        W24433  37.470   3.949  12.425
65338W        W24434  14.172  17.165   1.833
65339W        W24435   4.768  29.173   2.266
65340W        W24436   4.214  37.035  11.499
65341W        W24437  24.632   4.386  13.511
65342W        W24438  34.403  28.499  12.480
65343W        W24439   8.308  34.884  11.395
65344W        W24440   1.835   0.910  11.486
65345W        W24441  22.225  20.112  12.826
65346W        W24442  20.735   9.202   4.289
65347W        W24443  32.083  38.966  11.496
65348W        W24444   3.709  23.059  12.999
65349W        W24445  27.551   4.797   3.735
65350W        W24446  20.602  20.164   0.824
65351W        W24447   0.893   3.757  14.368
65352W        W24448  22.686  28.168   1.829
65353W        W24449  30.612   7.819   4.122
65354W        W24450  25.496  42.941   3.219
65355W        W24451  36.891  35.441  10.523
65356W        W24452  33.127  21.146  10.483
65357W        W24453  17.214  19.222  14.462
65358W        W24454  32.129  18.165  14.315
65359W        W24455   8.364  11.158   2.277
65360W        W24456  39.503  26.184   2.775
65361W        W24457  13.616  28.101   2.363
65362W        W24458   6.716  27.603   5.180
65363W        W24459  11.146  22.095  14.295
65364W        W24460   9.302  18.063  12.888
65365W        W24461  23.654  28.104   0.900
65366W        W24462  18.571  14.104  10.488
65367W        W24463   3.947   0.968  13.869
65368W        W24464  43.286   8.378   3.333
65369W        W24465  21.255  32.979   0.449
65370W        W24466  30.128   6.338   4.178
65371W        W24467  21.647  19.661  11.979
65372W        W24468  42.319  15.584  13.998
65373W        W24469  29.149   9.712   4.782
65374W        W24470  42.966  14.305  12.496
65375W        W24471  21.627  14.162   2.693
65376W        W24472  17.250  33.448   3.378
65377W        W24473  41.466   0.839   4.145
65378W        W24474  11.798  41.010   2.245
65379W        W24475  36.424   9.176  11.521
65380W        W24476  14.661  21.554  11.538
65381W        W24477  14.810  35.393  11.934
65382W        W24478  36.082  23.673   1.250
65383W        W24479  38.940  44.460  10.526
65384W        W24480   3.309   0.317   0.347
65385W        W24481  28.040  36.000   9.631
65386W        W24482  43.823   9.264   0.462
65387W        W24483   1.337  26.672   2.311
65388W        W24484  23.223  33.541  10.470
65389W        W24485  15.212   8.173  13.047
65390W        W24486  23.494   3.806  11.580
65391W        W24487  44.493  20.198   4.122
65392W        W24488  21.141  38.006  11.003
65393W        W24489  33.063  11.767   4.221
65394W        W24490   2.324  18.236  13.410
65395W        W24491  11.303  44.765  13.985
65396W        W24492  14.147  41.880  10.938
65397W        W24493  15.586   2.261  14.912
65398W        W24494  38.016  20.244  14.437
65399W        W24495  10.304  33.016  14.958
65400W        W24496  28.970  27.568  14.021
65401W        W24497  38.923   7.866  11.993
65402W        W24498  29.015  28.665   2.243
65403W        W24499  30.158   0.976  13.506
65404W        W24500  19.704   1.797   2.879
65405W        W24501  43.765  15.203  12.569
65406W        W24502   1.950   9.388  11.084
65407W        W24503  21.528   9.249  14.502
65408W        W24504  23.529  20.152   2.299
65409W        W24505  18.285  44.001  14.915
65410W        W24506  26.055  21.559   3.340
65411W        W24507   9.710  19.768   2.280
65412W        W24508  13.705  44.301  11.874
65413W        W24509  34.574   9.659   5.725
65414W        W24510  43.484  36.035  11.418
65415W        W24511  10.323   4.305  13.985
65416W        W24512  25.678  42.790   4.614
65417W        W24513  38.570  34.390  12.415
65418W        W24514  12.360   7.298   3.751
65419W        W24515  14.118  33.898   2.373
65420W        W24516   4.381  44.907   3.270
65421W        W24517  18.570  16.584   4.293
65422W        W24518  23.691  32.421  11.388
65423W        W24519  27.537   0.758  13.440
65424W        W24520  24.601  29.516   3.815
65425W        W24521  30.570  22.728  13.909
65426W        W24522  41.365  10.850  13.798
65427W        W24523  17.065  25.153  13.470
65428W        W24524   6.340  18.184   5.226
65429W        W24525  19.671  18.702   4.280
65430W        W24526  20.262  35.899  13.020
65431W        W24527  16.091  24.544   3.827
65432W        W24528  31.919  15.643   2.280
65433W        W24529  15.322  14.651  14.889
65434W        W24530  12.143  14.276  13.315
65435W        W24531   1.768   7.852   3.230
65436W        W24532  40.429   2.384   1.335
65437W        W24533  12.130  21.175   4.205
65438W        W24534  37.003   3.715   0.376
65439W        W24535  29.924  23.647   1.255
65440W        W24536  35.562  22.045  14.764
65441W        W24537  44.338  41.897   1.924
65442W        W24538   6.684   7.192  12.024
65443W        W24539  21.118  19.553  13.058
65444W        W24540   1.811  37.853   5.174
65445W        W24541  42.975  22.556  14.434
65446W        W24542  11.349   5.379   2.380
65447W        W24543  25.190  42.025  11.866
65448W        W24544  40.012   4.292  14.377
65449W        W24545  12.202  41.884   0.804
65450W        W24546  12.266  15.244   1.891
65451W        W24547  27.510   6.270   1.905
65452W        W24548  31.622  43.505   4.694
65453W        W24549  44.889  28.579  11.123
65454W        W24550   2.817  30.593  13.547
65455W        W24551  43.981  35.387  14.389
65456W        W24552  20.579   6.713   0.360
65457W        W24553  13.607  38.907  10.627
65458W        W24554  20.097  16.639  11.902
65459W        W24555  16.747   5.351   3.774
65460W        W24556  21.198  41.323   2.697
65461W        W24557  13.714  25.969  13.906
65462W        W24558  33.948   7.766   1.385
65463W        W24559  42.871  18.644   3.251
65464W        W24560  34.085  34.378  14.834
65465W        W24561  16.719  23.233  10.637
65466W        W24562  21.630  12.218  11.085
65467W        W24563  36.988  16.756  10.517
65468W        W24564  42.898  36.554   2.694
65469W        W24565   5.355  37.408  12.083
65470W        W24566  19.539  43.492  12.483
65471W        W24567  17.703   8.311   1.852
65472W        W24568  22.102  13.663  10.492
65473W        W24569  21.151   2.358  12.524
65474W        W24570   2.423  31.040   4.781
65475W        W24571  12.180  23.021  13.012
65476W        W24572   9.698  30.990   2.194
65477W        W24573  13.744  20.123   3.815
65478W        W24574  43.997   0.347  14.001
65479W        W24575  19.661   3.782   2.265
65480W        W24576  28.950  36.961  10.901
65481W        W24577  32.073   3.858   0.354
65482W        W24578  28.507   2.733   3.855
65483W        W24579  28.473  20.595   0.865
65484W        W24580  22.192  23.552   0.863
65485W        W24581   4.735  39.533   1.292
65486W        W24582  38.539  41.450   3.642
65487W        W24583  30.593  36.352   3.206
65488W        W24584  38.388  24.500  12.480
65489W        W24585  10.759  20.131  14.999
65490W        W24586  24.183   5.840  12.866
65491W        W24587  37.835   9.649  13.034
65492W        W24588  24.644   2.281  10.928
65493W        W24589  29.033  14.783   0.410
65494W        W24590  34.947  32.558   4.346
65495W        W24591  42.783  33.439  11.892
65496W        W24592  40.014  14.149  14.881
65497W        W24593  39.413   2.286  10.497
65498W        W24594  21.571  44.833   1.783
65499W        W24595  13.822  23.523   0.368
65500W        W24596  32.092   8.260  11.930
65501W        W24597  19.245   7.235   3.377
65502W        W24598  11.705  25.009   5.195
65503W        W24599  12.644   8.670  11.403
65504W        W24600  17.691  13.691   1.240
65505W        W24601  40.502  37.949   4.317
65506W        W24602   9.728   2.953   0.357
65507W        W24603  10.384  24.617   2.719
65508W        W24604   7.409  13.664   4.234
65509W        W24605  25.025  20.191  12.031
65510W        W24606  18.749  25.650  13.847
65511W        W24607  37.580  22.219   0.398
65512W        W24608  14.727  37.457   9.951
65513W        W24609  12.622   5.346   1.926
65514W        W24610  11.322  38.995   4.128
65515W        W24611  29.428  41.463  14.503
65516W        W24612  10.147  36.002   3.191
65517W        W24613  30.925   0.417   4.169
65518W        W24614  13.221   0.424   3.834
65519W        W24615  25.472  10.231   1.816
65520W        W24616  14.254  11.239   1.234
65521W        W24617  44.433  27.467  10.562
65522W        W24618   4.343  29.576   4.191
65523W        W24619   2.832  37.485   0.353
65524W        W24620  31.492  36.485   0.321
65525W        W24621  31.096  21.739   4.639
65526W        W24622   5.822   6.376   2.841
65527W        W24623  10.307  44.864   3.235
65528W        W24624   8.332  24.205  11.064
65529W        W24625  27.995  38.461   1.781
65530W        W24626  44.865  32.411   3.227
65531W        W24627  17.789  38.984   0.886
65532W        W24628  37.407  11.867   3.735
65533W        W24629   1.732  14.794   2.240
65534W        W24630  14.734  42.367   3.157
65535W        W24631  30.601  10.637  14.927
65536W        W24632   7.264   7.210   0.256
65537W        W24633  39.014  36.351   3.198
65538W        W24634  23.712  10.178  11.399
65539W        W24635  10.375  31.566   3.631
65540W        W24636   1.279  44.448   1.704
65541W        W24637  11.250  10.322  12.969
65542W        W24638  39.921  33.909  13.439
65543W        W24639   2.945  41.920   2.223
65544W        W24640  42.025  12.296  13.871
65545W        W24641  30.083  14.264  11.951
65546W        W24642  10.312   9.684  13.891
65547W        W24643  30.962   4.381   1.308
65548W        W24644  42.396  35.107   4.124
65549W        W24645   9.162  22.620   3.304
65550W        W24646  32.927  42.314  11.048
65551W        W24647  40.835  13.804   3.639
65552W        W24648  15.582   7.256  14.323
65553W        W24649   3.923  10.348   3.641
65554W        W24650  12.234  11.286   2.758
65555W        W24651   4.258  38.845   3.207
65556W        W24652  36.421   3.817   1.740
65557W        W24653  40.804  29.455   0.917
65558W        W24654   4.745  38.844   4.270
65559W        W24655  29.050  14.097   4.707
65560W        W24656  26.480   4.337   1.320
65561W        W24657   6.705  20.675   0.403
65562W        W24658   3.943  17.276  13.949
65563W        W24659   6.787   1.480  11.941
65564W        W24660  11.627  42.989   2.854
65565W        W24661  43.801  31.014   3.681
65566W        W24662  25.132  44.902   0.394
65567W        W24663  43.783  33.113  13.400
65568W        W24664   9.366   8.360   0.455
65569W        W24665   9.813  11.755  13.858
65570W        W24666  39.860  29.167  12.514
65571W        W24667  36.939  14.304   2.345
65572W        W24668  41.022  29.924  11.108
65573W        W24669   2.785  28.490  13.481
65574W        W24670   7.236   2.798  12.078
65575W        W24671  25.522  34.582  14.830
65576W        W24672  36.961  38.509   1.377
65577W        W24673  40.851  40.303   2.385
65578W        W24674  36.529  36.928  11.473
65579W        W24675  31.457  39.314   2.302
65580W        W24676  14.616  23.585  13.898
65581W        W24677  25.502  19.169   0.938
65582W        W24678   4.904  21.710  10.131
65583W        W24679   7.881  41.967   4.178
65584W        W24680  43.459  37.356   2.246
65585W        W24681  31.416  41.873  11.550
65586W        W24682  26.551  22.203   0.328
65587W        W24683  11.747   6.241  10.063
65588W        W24684   8.181   9.691  10.461
65589W        W24685  33.410  14.702   4.215
65590W        W24686  13.129  22.713  11.100
65591W        W24687  11.864  26.060   1.358
65592W        W24688  32.968   8.725   3.656
65593W        W24689  28.044  29.946   1.428
65594W        W24690   0.369  17.629  13.505
65595W        W24691  42.420  16.137   3.862
65596W        W24692   2.836   7.295   1.390
65597W        W24693  21.054  36.878   1.246
65598W        W24694  42.984  27.630  13.970
65599W        W24695  24.677   0.297  10.973
65600W        W24696   6.753  16.216  10.428
65601W        W24697  18.111  35.374  11.387
65602W        W24698  41.375   3.807  13.446
65603W        W24699  32.044  41.871  11.988
65604W        W24700  12.254   3.720   4.764
65605W        W24701  34.966   9.819  11.492
65606W        W24702  21.124  23.070   1.260
65607W        W24703  32.947   1.789  12.015
65608W        W24704   0.468  37.057  12.912
65609W        W24705  11.247  35.510  13.461
65610W        W24706  12.834  21.565  10.456
65611W        W24707  14.675  13.839  14.907
65612W        W24708  15.817  17.710  13.355
65613W        W24709  26.694   2.752  14.995
65614W        W24710  14.221  22.521  12.878
65615W        W24711  34.483  23.989   3.667
65616W        W24712   2.821  15.599  12.995
65617W        W24713  11.197  29.498   3.302
65618W        W24714  35.109  17.182  11.991
65619W        W24715  13.330   9.748   2.300
65620W        W24716   3.739  42.314  12.866
65621W        W24717  41.393  39.386  14.001
65622W        W24718   1.978  33.890  12.021
65623W        W24719  30.110   6.696   3.809
65624W        W24720   5.920  28.545   0.745
65625W        W24721  31.525  27.151   4.186
65626W        W24722   9.874  14.651  11.933
65627W        W24723  26.096  22.238   2.410
65628W        W24724  41.929  22.121   2.211
65629W        W24725  43.310  42.504  12.824
65630W        W24726  35.581  42.026   3.747
65631W        W24727   4.719   3.316  12.348
65632W        W24728   8.371  39.324  12.562
65633W        W24729  35.454  37.082   3.809
65634W        W24730  10.696  16.666  13.042
65635W        W24731  15.144  11.690   1.327
65636W        W24732  17.773  30.152  14.397
65637W        W24733   2.848  34.048   3.744
65638W        W24734  32.616  24.676  11.554
65639W        W24735  27.615  10.324  10.558
65640W        W24736   7.372  41.837   0.895
65641W        W24737  23.505  37.335  11.951
65642W        W24738  25.600  13.164   1.416
65643W        W24739   1.451   8.837   4.131
65644W        W24740  43.461  30.049   3.813
65645W        W24741  26.030  30.515   1.892
65646W        W24742  11.757   3.303   3.369
65647W        W24743  13.314  12.197   0.421
65648W        W24744  43.410  36.878  11.048
65649W        W24745  38.072   8.680   2.249
65650W        W24746  35.860  21.674   3.360
65651W        W24747  32.135  29.580   4.326
65652W        W24748   1.309   1.275   2.797
65653W        W24749  11.242  15.188  14.933
65654W        W24750   0.980   0.918  10.582
65655W        W24751  25.501  32.446  11.464
65656W        W24752   5.799  30.472  12.983
65657W        W24753  24.717  13.777   0.419
65658W        W24754  11.853  28.621   3.237
65659W        W24755  30.983  11.347   0.911
65660W        W24756   3.719  35.405   4.192
65661W        W24757  38.891   8.809  14.015
65662W        W24758  16.151  37.877   0.728
65663W        W24759  19.117  39.895  14.369
65664W        W24760  37.565  14.260  13.855
65665W        W24761  22.049  25.541  14.489
65666W        W24762  15.099  19.103   4.307
65667W        W24763  34.009   3.867  10.904
65668W        W24764  30.532   8.808   4.257
65669W        W24765   9.731  38.493   0.316
65670W        W24766  25.993  28.000  10.548
65671W        W24767  13.272   6.302   2.722
65672W        W24768  37.068  34.892  14.915
65673W        W24769  32.006  28.016  12.849
65674W        W24770  13.753  17.629   1.328
65675W        W24771   7.834  16.107  10.433
65676W        W24772   4.881  40.873  10.987
65677W        W24773  14.793  39.848  13.942
65678W        W24774  12.646  24.158   3.765
65679W        W24775  42.356  39.536  14.309
65680W        W24776  21.198  34.550   1.921
65681W        W24777  40.452  19.251   3.663
65682W        W24778  28.480  19.608  12.468
65683W        W24779  25.590   3.239  11.041
65684W        W24780   3.914  21.097   4.832
65685W        W24781   1.977  34.465  13.403
65686W        W24782  26.577  33.910  11.080
65687W        W24783   1.946   9.813  11.868
65688W        W24784  12.256   7.697  14.023
65689W        W24785  18.590  29.525   4.238
65690W        W24786  14.637   6.378  13.484
65691W        W24787  16.703   2.245  13.327
65692W        W24788  12.253  26.196   2.699
65693W        W24789  29.597  22.530   2.820
65694W        W24790  32.623  40.345   2.377
65695W        W24791  37.488  38.492  10.638
65696W        W24792  38.520   1.803   2.708
65697W        W24793  38.900   9.240   5.688
65698W        W24794  18.620  25.029   1.779
65699W        W24795   0.495  35.954   2.315
65700W        W24796  36.353  14.213  13.050
65701W        W24797  40.466  15.808   1.804
65702W        W24798  19.070   0.265   2.416
65703W        W24799  38.535   3.802  12.531
65704W        W24800   9.828  31.577  14.445
65705W        W24801  44.414   8.687  12.007
65706W        W24802   7.210   3.882  11.583
65707W        W24803  34.026  32.541  10.987
65708W        W24804  17.762   4.406  14.801
65709W        W24805  27.108   5.333   1.389
65710W        W24806  16.700   7.740   4.174
65711W        W24807  36.037   0.292   2.304
65712W        W24808  21.715  29.594  10.006
65713W        W24809  13.639  14.835  11.393
65714W        W24810  26.161  12.294   3.710
65715W        W24811   4.726  42.962  13.445
65716W        W24812  24.191  31.920  14.958
65717W        W24813  36.061  44.353   3.297
65718W        W24814   9.767  13.700  13.455
65719W        W24815  32.506  24.538   0.359
65720W        W24816  33.416  22.139  10.491
65721W        W24817   8.698   7.792   4.691
65722W        W24818  12.681   3.415  13.869
65723W        W24819  23.596  29.526   1.251
65724W        W24820  18.767  16.747   1.265
65725W        W24821  10.850  32.127   1.860
65726W        W24822   4.890  35.480  13.965
65727W        W24823  43.802  26.992  11.939
65728W        W24824  24.493  37.054   1.438
65729W        W24825  20.273   5.321   4.346
65730W        W24826   0.349   9.780   4.262
65731W        W24827  15.164  41.901  11.936
65732W        W24828  36.875  41.437  11.012
65733W        W24829   2.437  40.041   2.268
65734W        W24830  21.154   6.199   3.356
65735W        W24831   9.759  28.099  14.894
65736W        W24832  18.164  37.067  11.441
65737W        W24833  15.592  34.492  12.487
65738W        W24834  12.808   5.235   4.221
65739W        W24835   6.733   8.824   0.365
65740W        W24836  31.047   6.187   3.193
65741W        W24837   3.777   6.367  11.520
65742W        W24838  20.643  40.959  11.508
65743W        W24839  22.234  20.664  13.537
65744W        W24840  15.322  42.417  14.410
65745W        W24841   1.419   3.456  13.007
65746W        W24842  17.691  27.561  13.031
65747W        W24843  41.862  44.347  12.897
65748W        W24844  16.219  12.742  12.551
65749W        W24845   3.374   0.270   3.838
65750W        W24846  25.181  34.938  12.882
65751W        W24847  31.462   5.835   1.282
65752W        W24848  20.048  30.958  10.450
65753W        W24849  40.820  11.332  10.639
65754W        W24850  36.029   2.893   1.793
65755W        W24851  14.253   0.894   0.819
65756W        W24852   6.733  28.956  11.036
65757W        W24853  24.107  41.391  10.952
65758W        W24854   2.247  23.142   2.401
65759W        W24855  43.390  11.363  13.058
65760W        W24856  22.144  16.759   4.735
65761W        W24857  39.904  33.454   0.866
65762W        W24858  15.324  40.424   1.350
65763W        W24859  18.135   2.390   2.769
65764W        W24860   9.747  27.100  11.989
65765W        W24861  23.103  15.780   0.847
65766W        W24862  39.390  30.461   1.322
65767W        W24863  31.575  15.204  14.866
65768W        W24864  44.269  17.564  14.409
65769W        W24865   6.238  21.085  13.853
65770W        W24866  34.489   0.485   4.668
65771W        W24867  11.157  24.533  13.459
65772W        W24868   3.440  23.676  12.069
65773W        W24869  34.950  24.018   5.710
65774W        W24870  42.363   6.229   0.470
65775W        W24871   0.430  41.831  14.322
65776W        W24872   6.806   5.426  11.474
65777W        W24873   5.802  34.488   3.757
65778W        W24874  15.786  44.996  11.891
65779W        W24875  11.835   1.929   0.768
65780W        W24876  42.518   2.840   4.149
65781W        W24877   8.730  34.942  10.955
65782W        W24878  31.636  17.082   1.352
65783W        W24879  32.614   6.713  10.511
65784W        W24880  17.767  22.200  12.981
65785W        W24881  30.000   6.919  10.925
65786W        W24882  28.100  15.215   0.459
65787W        W24883  27.520  19.054   3.175
65788W        W24884  18.064  18.759   1.223
65789W        W24885  15.266  35.495  10.544
65790W        W24886  18.084  28.571   3.353
65791W        W24887  26.027   6.913  10.499
65792W        W24888   6.802  38.941   0.816
65793W        W24889  30.056  44.480   2.666
65794W        W24890  31.450   9.726   3.838
65795W        W24891  31.074   1.754  13.999
65796W        W24892  24.533  19.096   1.736
65797W        W24893  19.589   2.318   5.084
65798W        W24894  29.637   7.403   4.645
65799W        W24895   4.837  31.032   1.232
65800W        W24896  39.873  16.601   3.218
65801W        W24897  16.246  24.047  14.304
65802W        W24898  29.987  16.158  13.469
65803W        W24899  22.139  31.420  13.868
65804W        W24900  17.206  12.147  12.984
65805W        W24901   7.810  34.533   5.295
65806W        W24902   7.755  35.542   3.268
65807W        W24903  17.103   9.355  11.037
65808W        W24904   0.282  35.104  14.877
65809W        W24905  43.514  12.764  11.961
65810W        W24906  37.570  18.166   0.906
65811W        W24907  40.446  40.434   1.343
65812W        W24908  27.995  27.638   1.339
65813W        W24909  34.429  23.021   3.759
65814W        W24910  25.000   8.884  12.970
65815W        W24911  12.343  26.622   4.684
65816W        W24912  22.023   3.391  12.963
65817W        W24913  16.251  30.945   2.281
65818W        W24914  12.161  28.609  13.524
65819W        W24915  16.307  30.551   0.803
65820W        W24916  29.543   2.350  12.920
65821W        W24917  42.810   3.215   0.961
65822W        W24918   6.723  25.963   3.220
65823W        W24919  37.435  42.303  11.488
65824W        W24920  32.519  31.898  12.871
65825W        W24921  36.961  35.040   4.123
65826W        W24922  39.328   4.339   4.831
65827W        W24923   2.344   0.913  10.411
65828W        W24924   5.910  13.321   2.863
65829W        W24925   6.216   3.752   1.894
65830W        W24926  16.792  40.948   0.907
65831W        W24927  41.501  24.054   1.380
65832W        W24928  28.136  18.615  14.370
65833W        W24929  42.881  20.541   4.606
65834W        W24930   7.807  24.985  13.518
65835W        W24931   9.684  29.991  13.946
65836W        W24932  32.433  12.277  12.883
65837W        W24933  25.200  10.872  11.953
65838W        W24934  36.909  19.591  13.014
65839W        W24935  10.166   9.768   1.408
65840W        W24936  15.756   6.700  14.445
65841W        W24937  18.749   3.362  10.541
65842W        W24938  27.159   4.758   1.705
65843W        W24939  43.951  11.756  10.449
65844W        W24940   1.357  36.420   3.634
65845W        W24941  10.175  11.254   0.260
65846W        W24942  17.616  18.181  11.905
65847W        W24943  37.416  30.524  11.425
65848W        W24944  24.107  41.479  12.353
65849W        W24945  41.442   0.791   4.806
65850W        W24946   1.259  39.525  14.762
65851W        W24947   8.884  36.846  13.817
65852W        W24948   4.720  36.995  14.506
65853W        W24949   8.356   2.358   2.727
65854W        W24950  25.595  43.448   0.426
65855W        W24951  37.916  31.469  11.926
65856W        W24952  14.309  20.661   3.694
65857W        W24953   4.807  15.323   0.370
65858W        W24954  18.065  21.163  14.301
65859W        W24955  30.950  40.535  10.983
65860W        W24956   2.728   8.278  11.592
65861W        W24957  10.308  13.327   2.723
65862W        W24958  24.721  16.730   1.270
65863W        W24959   0.790  31.087   2.669
65864W        W24960   3.415  14.278  11.556
65865W        W24961  26.046  30.148   0.358
65866W        W24962  18.171  10.299  13.971
65867W        W24963   9.373  22.220  14.815
65868W        W24964  31.925   5.843  11.419
65869W        W24965  25.672  41.534   4.820
65870W        W24966  15.258  39.435  14.823
65871W        W24967  23.720  27.115  12.516
65872W        W24968  17.217  32.600  12.451
65873W        W24969  42.956  10.158   2.403
65874W        W24970  14.325  11.207   4.714
65875W        W24971  29.147   0.901  13.840
65876W        W24972  32.907  38.896  13.957
65877W        W24973  28.456  29.085   2.702
65878W        W24974   1.316   7.798   3.749
65879W        W24975  20.234  39.338   4.286
65880W        W24976  38.982  37.857   2.836
65881W        W24977  37.970   7.793   5.784
65882W        W24978  43.852  21.148   4.325
65883W        W24979  37.553   2.725   4.279
65884W        W24980   0.778   8.363  12.069
65885W        W24981  44.480  35.097   0.788
65886W        W24982   3.449  27.100  12.061
65887W        W24983   0.289   5.740   1.790
65888W        W24984  27.120  42.016  11.107
65889W        W24985  14.610  41.793   0.744
65890W        W24986   5.708  10.813  14.281
65891W        W24987   8.896  35.391  14.885
65892W        W24988   8.744  32.545  14.405
65893W        W24989   4.789  18.227   3.696
65894W        W24990  15.262   8.882  11.085
65895W        W24991  10.704  30.999  12.559
65896W        W24992   7.668   2.384  11.951
65897W        W24993  28.658  29.982   0.910
65898W        W24994  24.633  19.722   3.364
65899W        W24995  34.903  27.532   3.633
65900W        W24996  25.154  33.450   2.277
65901W        W24997  13.833  27.480   1.438
65902W        W24998   4.809  30.025   3.146
65903W        W24999  13.155  37.479  12.839
65904W        W25000  28.541  37.029  14.822
65905W        W25001  34.869  25.141  10.519
65906W        W25002  27.466  39.491   2.894
65907W        W25003   9.249  17.070   2.353
65908W        W25004   9.296  34.564   0.733
65909W        W25005  12.264   6.923   2.894
65910W        W25006  31.990  15.713  10.895
65911W        W25007  33.591  21.126   0.261
65912W        W25008  43.931  39.949  11.866
65913W        W25009  38.328  39.850   4.134
65914W        W25010  17.684  38.529   5.201
65915W        W25011   8.706  35.479   0.375
65916W        W25012  40.953  14.230   3.793
65917W        W25013  36.976  16.238  14.346
65918W        W25014   9.378   4.904  10.460
65919W        W25015  44.009  33.462  12.373
65920W        W25016  38.014   5.300  10.620
65921W        W25017  42.474  18.628  10.888
65922W        W25018  33.935   1.885   3.659
65923W        W25019  32.493  31.566   2.355
65924W        W25020  41.531   0.871  14.444
65925W        W25021  34.048  29.635   0.340
65926W        W25022  26.697  39.461   3.190
65927W        W25023  28.655   2.773   4.264
65928W        W25024  12.813  42.515   3.253
65929W        W25025  26.169  17.730   4.191
65930W        W25026   7.810  42.401  11.884
65931W        W25027   4.240  34.591  14.300
65932W        W25028  35.982  20.550  14.308
65933W        W25029  33.624  18.181  11.966
65934W        W25030  29.972  29.954  11.003
65935W        W25031  26.542  23.689   2.854
65936W        W25032  26.547  24.685  11.885
65937W        W25033  37.069  33.023  12.041
65938W        W25034  23.163  11.812   4.319
65939W        W25035   5.272  29.125   2.327
65940W        W25036  26.056  41.839   2.720
65941W        W25037  37.843  11.204   3.742
65942W        W25038  13.148  10.158  12.522
65943W        W25039  13.678  31.450  12.949
65944W        W25040  27.054  27.577  12.839
65945W        W25041  17.104  39.431   5.663
65946W        W25042  24.213   4.844  12.466
65947W        W25043  41.513  14.201   1.442
65948W        W25044  25.089  38.826  12.989
65949W        W25045  31.125  19.643   0.922
65950W        W25046   4.335  14.790   1.319
65951W        W25047  20.647  15.684   1.229
65952W        W25048  25.706  11.776  10.949
65953W        W25049   2.261  12.280  11.412
65954W        W25050  36.415   8.757  11.523
65955W        W25051  11.706  24.169  13.924
65956W        W25052  28.040  37.510   1.926
65957W        W25053  36.560   1.975   4.626
65958W        W25054  21.538  33.054  12.833
65959W        W25055  24.600  31.645   3.743
65960W        W25056  12.326   8.699   2.785
65961W        W25057  37.997  28.163  12.939
65962W        W25058  31.093   9.250  14.954
65963W        W25059  35.943  44.892   2.408
65964W        W25060  13.760   4.865  11.383
65965W        W25061   4.741  44.487  12.922
65966W        W25062  33.056  29.516  11.902
65967W        W25063  19.198  31.575  11.380
65968W        W25064  11.766   4.403   4.661
65969W        W25065  32.423   4.276  14.919
65970W        W25066  20.228  35.913  14.435
65971W        W25067  24.632   4.845   4.777
65972W        W25068  27.145  12.147   0.249
65973W        W25069   5.932  43.809   0.416
65974W        W25070  21.036  31.053  14.340
65975W        W25071  18.693   1.447   0.946
65976W        W25072  34.494  33.445   4.777
65977W        W25073  32.602   9.264  12.472
65978W        W25074  40.818  40.007   2.747
65979W        W25075  38.451  32.570   4.142
65980W        W25076  37.475   2.730   0.820
65981W        W25077  40.009  15.656  11.902
65982W        W25078  33.971   7.760   3.150
65983W        W25079  16.787  14.623   4.114
65984W        W25080  21.149  14.132  12.522
65985W        W25081   0.864  10.384  13.386
65986W        W25082  44.939  14.282   4.317
65987W        W25083  31.476   8.261   1.289
65988W        W25084   1.333  39.865   3.641
65989W        W25085   7.696   1.881   1.906
65990W        W25086  19.130   3.301  12.530
65991W        W25087  11.623   7.245   0.845
65992W        W25088  14.187  25.010  13.897
65993W        W25089  24.060  28.656   3.855
65994W        W25090   9.744   1.479  13.840
65995W        W25091  10.145  16.622   1.407
65996W        W25092  15.097  30.988   1.355
65997W        W25093  35.435  44.367  11.900
65998W        W25094  34.077  40.834   1.218
65999W        W25095  32.100  29.098  14.821
66000W        W25096  21.583  18.728  11.373
66001W        W25097   8.697   4.219   4.147
66002W        W25098  19.125  11.756  13.870
66003W        W25099  43.480  40.422  12.350
66004W        W25100  38.934  24.094  12.878
66005W        W25101  31.402  24.038   0.756
66006W        W25102  11.721  38.341   4.726
66007W        W25103  35.576  11.350  12.417
66008W        W25104   1.375  28.614  13.368
66009W        W25105  31.101  37.977  14.361
66010W        W25106   4.709   0.437   3.213
66011W        W25107  40.034  21.156  12.877
66012W        W25108  38.837  44.279   1.729
66013W        W25109  28.027   0.411  14.374
66014W        W25110   2.253  15.809  14.473
66015W        W25111  28.163  40.005   0.247
66016W        W25112  10.808  33.570  11.543
66017W        W25113  42.872   1.935   4.642
66018W        W25114   4.703  39.065   3.295
66019W        W25115  23.212  20.575  12.986
66020W        W25116  16.755  34.577  10.570
66021W        W25117  19.726  17.718   2.696
66022W        W25118  16.706  18.241   1.907
66023W        W25119  33.605   2.907  12.979
66024W        W25120  25.003   5.343  12.840
66025W        W25121  35.429  40.949  13.451
66026W        W25122  28.133  26.116  14.974
66027W        W25123  37.413  16.623   4.206
66028W        W25124   4.925  36.441   4.205
66029W        W25125  26.029   8.690  12.968
66030W        W25126  21.238  15.183   4.807
66031W        W25127  41.338  34.488   0.838
66032W        W25128  19.167  12.673   4.235
66033W        W25129   4.420  14.758  13.795
66034W        W25130   0.455  17.579  11.999
66035W        W25131  30.958  29.459  13.980
66036W        W25132  23.734  36.931   1.326
66037W        W25133  23.147  16.763  12.888
66038W        W25134  31.479  17.162  14.846
66039W        W25135   7.298  35.545   2.822
66040W        W25136  41.508  26.961  13.454
66041W        W25137   1.787   1.792  12.013
66042W        W25138  25.070   7.901   5.254
66043W        W25139  34.112  32.962  11.466
66044W        W25140  17.282  42.520   2.187
66045W        W25141  29.048  11.215   0.335
66046W        W25142   8.326  26.677   0.460
66047W        W25143  10.754  38.429  12.992
66048W        W25144   4.772  35.942   4.210
66049W        W25145   5.740  14.278  13.391
66050W        W25146   4.728   6.853  12.340
66051W        W25147  28.035  28.128   2.209
66052W        W25148  19.663  22.008  14.443
66053W        W25149  44.332  12.689   1.359
66054W        W25150  30.522   4.761   2.768
66055W        W25151  24.128  18.606   3.692
66056W        W25152  39.328  42.944   0.751
66057W        W25153  35.492  32.956  14.765
66058W        W25154  22.167  16.627   3.850
66059W        W25155  35.905  25.588  11.567
66060W        W25156  27.588  26.058  10.583
66061W        W25157  11.144  28.503   4.285
66062W        W25158  17.250  28.519   0.779
66063W        W25159  23.109  10.749   0.427
66064W        W25160  12.653   7.193  12.464
66065W        W25161  37.525  32.542  11.403
66066W        W25162   9.880  22.023   2.877
66067W        W25163  21.024   6.881   1.743
66068W        W25164  26.954   3.894   0.472
66069W        W25165  30.118  15.259  14.427
66070W        W25166  21.599   7.335   1.333
66071W        W25167  35.427   1.775   1.816
66072W        W25168  22.063   0.272  10.981
66073W        W25169   3.262  20.079  13.978
66074W        W25170  25.042  36.858   3.234
66075W        W25171   6.895  15.581  11.088
66076W        W25172   0.437  39.396  13.336
66077W        W25173  44.349  40.961   3.635
66078W        W25174  34.929  43.334  14.993
66079W        W25175   1.975  31.056   4.614
66080W        W25176  42.482  31.029   1.289
66081W        W25177  33.431  24.571  13.993
66082W        W25178  14.676  40.335   2.755
66083W        W25179  21.172   4.372  14.374
66084W        W25180  15.237   8.881   2.417
66085W        W25181  16.746  36.954   2.698
66086W        W25182  11.656   8.785  10.547
66087W        W25183  12.281  39.051  13.898
66088W        W25184  11.177  30.990  14.388
66089W        W25185   9.832   2.856  13.491
66090W        W25186  29.591  35.364   1.924
66091W        W25187   7.800  44.942   3.315
66092W        W25188   4.284  39.812   1.737
66093W        W25189   5.268  26.662   0.410
66094W        W25190  29.149  26.201   1.746
66095W        W25191  44.853  37.376   4.816
66096W        W25192  40.962   2.302   4.824
66097W        W25193  30.428  36.471  10.960
66098W        W25194  44.755  43.277   1.771
66099W        W25195  42.952  33.985  14.444
66100W        W25196  24.576  41.499   0.473
66101W        W25197  27.092  17.778  14.903
66102W        W25198  11.208   1.761   3.161
66103W        W25199  23.491  34.966   2.806
66104W        W25200   1.841  20.137   0.890
66105W        W25201   7.900  44.957   0.413
66106W        W25202  25.516  27.564   3.775
66107W        W25203  30.944   3.852   4.120
66108W        W25204  41.801  35.993   3.751
66109W        W25205  29.073  22.237  11.473
66110W        W25206  17.202  44.859  13.051
66111W        W25207   5.828  23.698  14.450
66112W        W25208   5.407  33.544  11.501
66113W        W25209  39.886   7.751   5.287
66114W        W25210  36.584  22.710   2.754
66115W        W25211  18.687  23.705   3.791
66116W        W25212  43.871   7.334   2.179
66117W        W25213  13.228   4.299   4.772
66118W        W25214   1.836  36.925   3.689
66119W        W25215  32.934  35.457   4.141
66120W        W25216   7.689   4.915  12.865
66121W        W25217  14.162  21.754  13.494
66122W        W25218   9.281   5.721  11.552
66123W        W25219  21.546  10.360   1.240
66124W        W25220  33.546   3.328  13.352
66125W        W25221   3.282  17.669  10.625
66126W        W25222   3.818   9.213   3.866
66127W        W25223  35.062  11.775   1.270
66128W        W25224  12.170   8.811  12.502
66129W        W25225   1.853  36.582  10.601
66130W        W25226   6.224  36.471  12.894
66131W        W25227  44.499  19.568  12.990
66132W        W25228  44.756   1.928  13.802
66133W        W25229  29.521   0.847  10.953
66134W        W25230   0.857  37.060  14.372
66135W        W25231  44.905  19.736  13.908
66136W        W25232  13.762  15.230  13.901
66137W        W25233  23.722  41.830  13.987
66138W        W25234  12.845  31.616   0.255
66139W        W25235  11.686  21.703  13.975
66140W        W25236  27.544  14.322  10.586
66141W        W25237  32.424   8.810  11.905
66142W        W25238   5.758   0.799   0.936
66143W        W25239   2.247  39.905  11.434
66144W        W25240   2.790  14.763   4.775
66145W        W25241   5.931  15.718  11.413
66146W        W25242   7.723  17.596  13.874
66147W        W25243  25.582  36.876   2.376
66148W        W25244  43.824  14.204   2.293
66149W        W25245  40.838  18.200  11.860
66150W        W25246  28.519   5.806   1.753
66151W        W25247  40.474  12.732  13.380
66152W        W25248   3.883  11.758  12.393
66153W        W25249  42.397  44.408  11.935
66154W        W25250  28.991  36.361  10.950
66155W        W25251  24.031  26.083  10.569
66156W        W25252  39.822   7.703   0.302
66157W        W25253  17.728  40.394   2.225
66158W        W25254  33.485  29.138  13.541
66159W        W25255  24.724  38.948  13.816
66160W        W25256  22.545  39.973  11.495
66161W        W25257  31.004  16.157   1.728
66162W        W25258  24.614  38.433  11.063
66163W        W25259  20.661   2.357   4.812
66164W        W25260  20.683  25.640  10.963
66165W        W25261  42.998  42.889  13.943
66166W        W25262  22.622   8.661  12.477
66167W        W25263  32.987  31.923  11.399
66168W        W25264   6.325   4.414   1.226
66169W        W25265  36.540  32.609   4.211
66170W        W25266  33.515  32.890  10.475
66171W        W25267  15.147  17.198  11.602
66172W        W25268  39.988   8.703  14.829
66173W        W25269  24.702  40.337   4.114
66174W        W25270   1.317  37.992   4.188
66175W        W25271  29.034  11.173   1.354
66176W        W25272  43.949  30.485  12.050
66177W        W25273  38.834   5.703   1.769
66178W        W25274   7.869  20.730  11.419
66179W        W25275  24.127   8.787   3.327
66180W        W25276  39.015   2.888   1.392
66181W        W25277  23.531   5.696  12.449
66182W        W25278  30.120  14.620   0.329
66183W        W25279  26.177  22.191  12.394
66184W        W25280  31.920  37.379   0.346
66185W        W25281  16.137  33.573   2.730
66186W        W25282   7.326  15.257  12.990
66187W        W25283  28.091  18.054   2.791
66188W        W25284   1.844  35.580   3.772
66189W        W25285  10.172  13.322  12.423
66190W        W25286   5.311  14.306   1.252
66191W        W25287   5.915   7.334  10.600
66192W        W25288   0.810   1.840  14.884
66193W        W25289   0.778  12.158   2.676
66194W        W25290  11.252  44.334  13.049
66195W        W25291  31.420  33.969   2.255
66196W        W25292  27.096   0.762   4.311
66197W        W25293  35.970  36.393   1.360
66198W        W25294  14.106  35.379   3.665
66199W        W25295  42.796  28.614  10.984
66200W        W25296   0.863  11.770   3.668
66201W        W25297  42.999  43.825   3.224
66202W        W25298  34.466  33.536   1.236
66203W        W25299  35.547   8.402   0.775
66204W        W25300  17.196  33.020  13.443
66205W        W25301  34.428  24.116   0.412
66206W        W25302  28.026  23.526   3.274
66207W        W25303  30.653   2.446  13.838
66208W        W25304  37.849  28.007   0.428
66209W        W25305  15.239   7.307  10.432
66210W        W25306  44.949  17.612   2.210
66211W        W25307  11.846  38.341  14.306
66212W        W25308  21.571  12.306  11.386
66213W        W25309  17.119  21.061  14.438
66214W        W25310  30.978   5.895  12.834
66215W        W25311   0.401   8.899   2.832
66216W        W25312  14.161  31.909   3.725
66217W        W25313  26.012   4.444  11.422
66218W        W25314  31.603  10.223  12.907
66219W        W25315  44.850  29.555  13.911
66220W        W25316   6.867  18.782   4.703
66221W        W25317   7.737  24.521  12.444
66222W        W25318   9.791  37.368   4.803
66223W        W25319  18.243  12.217  12.501
66224W        W25320  33.891  17.293   3.334
66225W        W25321  11.196  13.157  14.300
66226W        W25322  29.564  25.042  11.895
66227W        W25323   4.816  42.025  14.305
66228W        W25324  41.472  22.246   0.819
66229W        W25325  28.992  41.531  11.917
66230W        W25326  17.790   1.833  11.120
66231W        W25327  14.193   6.261   4.331
66232W        W25328  29.047  17.683   4.166
66233W        W25329  38.964   3.451  14.798
66234W        W25330  32.067  15.118   3.370
66235W        W25331  25.040  20.757  12.435
66236W        W25332  30.542  12.192   2.409
66237W        W25333  38.915  14.293   5.194
66238W        W25334  20.221  30.438  14.791
66239W        W25335  11.679   3.935   0.307
66240W        W25336  18.098  41.492  11.380
66241W        W25337  27.193  28.958   2.261
66242W        W25338  43.973  19.232   4.147
66243W        W25339   2.464  11.370  13.947
66244W        W25340  14.814  21.187   1.221
66245W        W25341  21.155  10.649   4.296
66246W        W25342  35.990  38.482   4.624
66247W        W25343   6.765  19.109   0.932
66248W        W25344  42.995  34.072  12.849
66249W        W25345   3.274  15.229  10.978
66250W        W25346  44.808  28.082  10.000
66251W        W25347  26.014  36.995  12.900
66252W        W25348  34.000  31.142   4.236
66253W        W25349   7.284  43.465  11.980
66254W        W25350  18.643  29.069  13.402
66255W        W25351  44.813   1.333  12.826
66256W        W25352  27.971  21.022   2.664
66257W        W25353  14.325   4.823  14.492
66258W        W25354   1.823  40.399   4.211
66259W        W25355  41.379  35.571  12.025
66260W        W25356   4.881   2.288   4.192
66261W        W25357  32.108   8.811   3.702
66262W        W25358  39.477  31.613   4.636
66263W        W25359  42.818  34.603   0.831
66264W        W25360  18.052   5.269  14.363
66265W        W25361  18.696  39.812   2.405
66266W        W25362   8.256  43.480   4.802
66267W        W25363  11.715  39.542  10.897
66268W        W25364   6.352   9.644  13.393
66269W        W25365   8.320  28.001  13.001
66270W        W25366  14.322  26.202  13.910
66271W        W25367  21.051  18.121  10.566
66272W        W25368   5.758  32.495   4.183
66273W        W25369  32.430   3.821  14.340
66274W        W25370  12.676  44.368   1.761
66275W        W25371   4.931  32.607   1.718
66276W        W25372  20.141  17.252   1.876
66277W        W25373   6.738  31.525   3.230
66278W        W25374  15.583   7.336  14.875
66279W        W25375  14.094   9.743   1.878
66280W        W25376  24.210  16.575   0.382
66281W        W25377   9.239   0.986  10.531
66282W        W25378  18.781   4.212   1.370
66283W        W25379  24.129  20.100  13.338
66284W        W25380  22.564  12.743   1.223
66285W        W25381  25.160  36.980   0.780
66286W        W25382  16.102  43.468  10.571
66287W        W25383  17.795   8.710   3.192
66288W        W25384  19.189   1.297   3.689
66289W        W25385  14.170  32.081  13.059
66290W        W25386  34.880  19.685   1.931
66291W        W25387  25.710  35.009   2.337
66292W        W25388  24.710   8.199   0.341
66293W        W25389  17.215   7.364  10.637
66294W        W25390  18.239   6.732   4.673
66295W        W25391  29.066  43.376   1.304
66296W        W25392  22.052  12.622  14.006
66297W        W25393   3.720   1.903  13.485
66298W        W25394  37.967  22.670  13.486
66299W        W25395  42.373  25.555  12.046
66300W        W25396  26.645  35.486  14.358
66301W        W25397  20.567  15.614   2.297
66302W        W25398  15.625  23.606   3.334
66303W        W25399  34.877  17.141   5.648
66304W        W25400  26.181  23.630   3.690
66305W        W25401  32.129   5.365   3.692
66306W        W25402  17.796  28.163   0.347
66307W        W25403  27.145  22.505   0.401
66308W        W25404  16.770  40.406  10.436
66309W        W25405  35.393  38.448   4.835
66310W        W25406  14.768   9.651   0.466
66311W        W25407  18.596  40.542  12.837
66312W        W25408  30.654  23.998  13.328
66313W        W25409   0.389  31.556   4.759
66314W        W25410  28.984  12.154   1.780
66315W        W25411  23.113  20.753   9.437
66316W        W25412  14.208   9.886   0.302
66317W        W25413  14.659  17.066  11.878
66318W        W25414  14.227  20.032   2.869
66319W        W25415  42.880  35.466   2.717
66320W        W25416   9.726  35.371  11.391
66321W        W25417  23.555  16.083   4.203
66322W        W25418  41.823  19.256  14.390
66323W        W25419  35.049  19.548  13.417
66324W        W25420   8.339  23.162   2.677
66325W        W25421  21.735   3.820   2.675
66326W        W25422  38.324  43.948  13.930
66327W        W25423   9.863  42.002   1.419
66328W        W25424  31.125   7.345  11.100
66329W        W25425  28.025  30.653  11.016
66330W        W25426  40.531  37.017  14.465
66331W        W25427  19.280  35.585  10.412
66332W        W25428  26.120  13.346   3.811
66333W        W25429  21.060   4.420   3.375
66334W        W25430  14.193  38.406   1.440
66335W        W25431  27.967  33.921  11.459
66336W        W25432   8.851  19.133   1.756
66337W        W25433  15.159  13.739   4.753
66338W        W25434  18.087  33.972  12.032
66339W        W25435  44.902  42.423  13.792
66340W        W25436  12.347  28.973   1.213
66341W        W25437  10.656  36.903  11.072
66342W        W25438  12.304  31.472  14.445
66343W        W25439  31.071   4.278  12.566
66344W        W25440  40.373  43.978  12.090
66345W        W25441   3.298  37.487   2.828
66346W        W25442  34.971   8.268  14.441
66347W        W25443  13.302  38.346  13.473
66348W        W25444  38.013   9.850  12.486
66349W        W25445  40.518  41.042   4.752
66350W        W25446  36.998   0.256   3.834
66351W        W25447  28.523   5.337   3.307
66352W        W25448  42.282  38.369  13.402
66353W        W25449  29.590  31.993   5.277
66354W        W25450  32.544  29.638   0.833
66355W        W25451  15.300  10.190   4.239
66356W        W25452  20.146  11.629  10.410
66357W        W25453  20.146  29.481  10.617
66358W        W25454  34.571  25.673  12.015
66359W        W25455   8.784  21.064  13.873
66360W        W25456  44.828  42.482  12.918
66361W        W25457  19.585  42.339   1.892
66362W        W25458  35.099  18.125   4.771
66363W        W25459   4.421  30.508   3.867
66364W        W25460  21.036   8.209  11.049
66365W        W25461  13.732   8.238   2.348
66366W        W25462  17.590  40.838   2.887
66367W        W25463  37.919  21.547   4.737
66368W        W25464  25.635  13.310   0.309
66369W        W25465  17.111  34.570  10.611
66370W        W25466  40.506  15.259  14.353
66371W        W25467  21.641  19.191   1.431
66372W        W25468  15.621   8.856  14.849
66373W        W25469  18.078  25.087  13.416
66374W        W25470  26.676   8.709  13.851
66375W        W25471  36.911  34.008   3.861
66376W        W25472  34.111  43.992  14.289
66377W        W25473  25.492   9.189   3.169
66378W        W25474  10.328  38.017   3.227
66379W        W25475  11.268  43.986   2.315
66380W        W25476  27.045  16.776  11.513
66381W        W25477  13.199  27.009   2.321
66382W        W25478  18.125  12.735  10.969
66383W        W25479  17.746  28.086  13.827
66384W        W25480  15.667   7.233   4.693
66385W        W25481  13.281  34.543  10.471
66386W        W25482  29.032  39.872   3.753
66387W        W25483  23.221  26.959   4.818
66388W        W25484  18.766   6.415  10.984
66389W        W25485   1.939   4.711  12.398
66390W        W25486   7.322  16.690  13.364
66391W        W25487  23.234   7.679   0.462
66392W        W25488  13.182   3.214   1.351
66393W        W25489  35.045   1.333  14.001
66394W        W25490  43.886  11.168  12.572
66395W        W25491  17.614  24.662  13.346
66396W        W25492   9.751  27.006   3.175
66397W        W25493   7.870   8.235   0.462
66398W        W25494  19.702  17.068   3.784
66399W        W25495  26.093  26.962  11.378
66400W        W25496  27.452  30.558   3.663
66401W        W25497  26.958  23.996   3.729
66402W        W25498  35.859   0.311   4.242
66403W        W25499  31.426  24.191  14.297
66404W        W25500   2.387  39.406  12.884
66405W        W25501   0.987   1.464   3.368
66406W        W25502  36.006  43.367   3.222
66407W        W25503  19.719   2.251  11.893
66408W        W25504  30.024  20.549  12.882
66409W        W25505  33.927  36.428   2.690
66410W        W25506  11.706  36.480   2.859
66411W        W25507  12.764  39.364  12.534
66412W        W25508  35.478   0.493  12.486
66413W        W25509  27.047  25.510   2.747
66414W        W25510   8.268  27.614   0.955
66415W        W25511  31.999  23.149   0.397
66416W        W25512  37.369  20.196   0.851
66417W        W25513  13.155  27.961   9.455
66418W        W25514  26.094  38.902  12.569
66419W        W25515  12.805  35.540   1.415
66420W        W25516  41.528  30.466  11.952
66421W        W25517  14.307   0.974  13.318
66422W        W25518  28.674  17.152   2.226
66423W        W25519  25.193   6.346  10.986
66424W        W25520  33.011  21.548  14.934
66425W        W25521   7.296   6.265   1.253
66426W        W25522  34.966  16.254   2.900
66427W        W25523  27.692  11.643   0.843
66428W        W25524  23.106  13.711  13.323
66429W        W25525  13.695  19.281   2.790
66430W        W25526  25.024  30.417  14.817
66431W        W25527   0.835  10.281   2.736
66432W        W25528  21.595  14.636  13.446
66433W        W25529  42.005  34.091   3.716
66434W        W25530  44.906   4.843  13.053
66435W        W25531  17.720  11.656   4.232
66436W        W25532  19.093  23.139  14.427
66437W        W25533   2.851  28.078  12.045
66438W        W25534  16.143   6.783   0.414
66439W        W25535  26.601   0.846   0.402
66440W        W25536  21.224  16.707   4.747
66441W        W25537  32.995  35.062   1.800
66442W        W25538  11.635  40.518   2.399
66443W        W25539  20.716   6.803  10.929
66444W        W25540  26.021  20.561   0.352
66445W        W25541  32.997   4.937   2.833
66446W        W25542   4.879  28.964   0.803
66447W        W25543  25.004  23.717   2.304
66448W        W25544  17.296   9.659  12.410
66449W        W25545  12.735  11.623  12.026
66450W        W25546  20.065  11.660  11.412
66451W        W25547   8.218  13.261   2.333
66452W        W25548  11.794  26.638  14.497
66453W        W25549  15.322  29.528   2.823
66454W        W25550  37.016  38.028   3.812
66455W        W25551  38.883   0.885  10.471
66456W        W25552  24.130  23.595   2.207
66457W        W25553  20.245  30.571   2.229
66458W        W25554  40.326  27.641   3.146
66459W        W25555  32.435  35.853   4.179
66460W        W25556  33.877  30.449   2.222
66461W        W25557   7.276  21.674  10.411
66462W        W25558  24.586  16.229   0.903
66463W        W25559   0.450  28.058   3.178
66464W        W25560  41.961  44.345  13.839
66465W        W25561  32.974  32.430   4.642
66466W        W25562   3.353   4.214  13.391
66467W        W25563  18.220  35.579   9.966
66468W        W25564  16.106  18.146  13.860
66469W        W25565  37.387   6.729   1.713
66470W        W25566   7.836  22.547   1.335
66471W        W25567  15.793  20.648  11.555
66472W        W25568   9.665  29.130   3.289
66473W        W25569  13.249  22.726   0.417
66474W        W25570   2.811  43.478   3.227
66475W        W25571  43.021  31.111  12.862
66476W        W25572  19.065  11.251  11.393
66477W        W25573   9.347  14.176   1.790
66478W        W25574  40.003  12.339   0.443
66479W        W25575  21.633  35.906   2.350
66480W        W25576  29.451  13.662   4.153
66481W        W25577  40.819  44.320   2.743
66482W        W25578  44.444   9.698  11.032
66483W        W25579  16.219  35.048   2.771
66484W        W25580  12.699  40.906   0.373
66485W        W25581   9.724  29.542  14.296
66486W        W25582  28.487  41.376  13.528
66487W        W25583  11.692  21.238   3.155
66488W        W25584  27.060  19.189  12.545
66489W        W25585  22.590  17.698   4.140
66490W        W25586  25.597   8.308   2.282
66491W        W25587  19.046   4.251   1.363
66492W        W25588  33.064  24.022   4.833
66493W        W25589  33.087  30.054   4.673
66494W        W25590   2.928  33.446  10.636
66495W        W25591  29.115  36.390  12.552
66496W        W25592   6.195  19.562  13.843
66497W        W25593   4.298  11.757  12.999
66498W        W25594  22.710   3.407  13.322
66499W        W25595  26.036  42.389  12.390
66500W        W25596  43.013  19.636  13.353
66501W        W25597  41.502  37.042  12.894
66502W        W25598   8.251  41.454  11.108
66503W        W25599  15.766  24.598  13.812
66504W        W25600   7.723  13.695  13.845
66505W        W25601   4.869  23.045   1.820
66506W        W25602  42.851  37.924  13.808
66507W        W25603  21.755  44.386   1.761
66508W        W25604   0.311  33.594   1.811
66509W        W25605  14.233  15.822   4.643
66510W        W25606  42.520  17.214   0.943
66511W        W25607  13.721   6.919  14.020
66512W        W25608  16.175  20.254  10.908
66513W        W25609   6.343  26.132   1.269
66514W        W25610  39.044   3.330   2.896
66515W        W25611  21.031  30.629   0.859
66516W        W25612  32.141   9.846  13.433
66517W        W25613   3.352  13.308  13.997
66518W        W25614  27.057  28.467  10.459
66519W        W25615  15.812  29.960  11.000
66520W        W25616  23.016  13.605   3.845
66521W        W25617   0.281  13.686  10.609
66522W        W25618  33.526  19.587   2.842
66523W        W25619  27.667  28.073  11.972
66524W        W25620  24.062   0.837   0.322
66525W        W25621  27.966  10.810   0.304
66526W        W25622  16.130  39.548  13.900
66527W        W25623   2.352  30.630  12.364
66528W        W25624  42.507  19.772   1.764
66529W        W25625  18.749  26.619   0.957
66530W        W25626  37.857  20.678  14.994
66531W        W25627   3.850   2.938   2.400
66532W        W25628  39.982  25.187  13.863
66533W        W25629  27.082  16.782  12.939
66534W        W25630  18.780  40.823  13.976
66535W        W25631   1.397  17.215   4.328
66536W        W25632  15.097  28.482   0.941
66537W        W25633   5.281  11.368   1.747
66538W        W25634  16.695  33.079  12.066
66539W        W25635  41.024  10.709   1.238
66540W        W25636  35.530  15.770  12.516
66541W        W25637  29.623  18.099   2.293
66542W        W25638  16.171  40.868  11.450
66543W        W25639  41.420  14.611  10.436
66544W        W25640  31.546  10.162   1.820
66545W        W25641  27.162  29.504  10.902
66546W        W25642   9.733  42.945   1.785
66547W        W25643  11.745  26.693   3.673
66548W        W25644  24.699  37.560   0.773
66549W        W25645  30.079  21.191   2.328
66550W        W25646   7.683   8.821   2.669
66551W        W25647  38.939  17.274   1.336
66552W        W25648  41.895   3.360   2.253
66553W        W25649  15.151  18.769   1.815
66554W        W25650  24.180  15.272  10.570
66555W        W25651  44.949  17.588   1.216
66556W        W25652  38.447  26.604   1.792
66557W        W25653   8.715  27.106   4.699
66558W        W25654   3.791  18.145   3.743
66559W        W25655  13.844  20.586  13.854
66560W        W25656  35.010  42.840  12.978
66561W        W25657  36.507   9.393   2.892
66562W        W25658  21.557  12.203   4.270
66563W        W25659  42.820  41.864  11.381
66564W        W25660   8.257  11.800  11.456
66565W        W25661  37.347  18.757   5.159
66566W        W25662  36.480  11.621  10.539
66567W        W25663  20.136  33.609   9.921
66568W        W25664   7.859   9.257  12.988
66569W        W25665  28.568  44.283   3.356
66570W        W25666  13.662  24.181  10.633
66571W        W25667  14.299  38.031  11.985
66572W        W25668  10.847  26.959   1.875
66573W        W25669  23.155   3.841  11.582
66574W        W25670   3.944   9.811  12.883
66575W        W25671   8.262  20.618  14.409
66576W        W25672  36.586  22.190   1.727
66577W        W25673  11.710   8.352   3.660
66578W        W25674  29.125  37.435  12.557
66579W        W25675  26.171  18.773   3.751
66580W        W25676  23.152  17.688  14.391
66581W        W25677  32.967   5.344   0.381
66582W        W25678  36.057  20.178   1.329
66583W        W25679   0.746   5.770  13.012
66584W        W25680   1.399  33.585  14.759
66585W        W25681  22.239   4.280   0.882
66586W        W25682  23.008  17.162   3.799
66587W        W25683  20.728  41.821  10.947
66588W        W25684  19.181  30.929  14.352
66589W        W25685  23.993  37.993  12.021
66590W        W25686  19.744  15.192  13.046
66591W        W25687  26.005  44.350  12.914
66592W        W25688  39.913  19.571   0.296
66593W        W25689   1.420  35.010   0.453
66594W        W25690  39.002  15.171  11.867
66595W        W25691  18.571  35.502   3.774
66596W        W25692  19.101  34.095   3.363
66597W        W25693  25.508   7.407   3.654
66598W        W25694  42.909   8.695  12.449
66599W        W25695  23.640   8.293   3.785
66600W        W25696  37.515  12.191  10.100
66601W        W25697  18.729   0.875  11.591
66602W        W25698  36.085  15.667  12.551
66603W        W25699  34.874   0.770  10.636
66604W        W25700  16.732  34.486  14.895
66605W        W25701   4.791  41.002  11.489
66606W        W25702   1.398  20.614   3.866
66607W        W25703  42.393   8.369   3.854
66608W        W25704  12.835  24.061  12.433
66609W        W25705  26.660  26.112  13.393
66610W        W25706  32.121  43.486   3.856
66611W        W25707  42.442   4.261  14.999
66612W        W25708  34.489  39.353  14.979
66613W        W25709   5.316  34.404  11.585
66614W        W25710  10.680  12.770  13.504
66615W        W25711  44.303  11.270  12.477
66616W        W25712  23.516  32.922  13.977
66617W        W25713   8.260  14.099  13.441
66618W        W25714   4.368  36.855  14.283
66619W        W25715   6.402  29.661  11.874
66620W        W25716  42.872  40.347  10.634
66621W        W25717  10.874  28.566   0.840
66622W        W25718  25.162  27.678   4.816
66623W        W25719  16.638  35.400  10.942
66624W        W25720  25.580   8.881  11.571
66625W        W25721  38.042  26.609  10.615
66626W        W25722  17.212  44.454   0.888
66627W        W25723   9.658   7.327  12.469
66628W        W25724  17.205  34.425  14.461
66629W        W25725  12.782  34.969   0.274
66630W        W25726  10.280  29.603   0.877
66631W        W25727   1.765  24.499   1.400
66632W        W25728  17.203  17.638  12.505
66633W        W25729  32.450  21.245  12.879
66634W        W25730  27.518  43.890   2.876
66635W        W25731  24.504  26.487  12.851
66636W        W25732   1.252   7.668   2.189
66637W        W25733  42.018   6.253   3.662
66638W        W25734  10.284   2.340   3.154
66639W        W25735  33.425  23.235  12.509
66640W        W25736  31.931  31.950   1.258
66641W        W25737   2.315   5.796  11.051
66642W        W25738  29.152  33.024  14.001
66643W        W25739  12.718  31.489   2.843
66644W        W25740  44.500  38.464   0.885
66645W        W25741   0.434   6.776   4.791
66646W        W25742   7.404  26.670   3.175
66647W        W25743  42.302   6.857  12.390
66648W        W25744  19.138  44.448  13.005
66649W        W25745  11.637  44.267  13.485
66650W        W25746   7.226  36.556  11.452
66651W        W25747  22.620  29.605   2.302
66652W        W25748   8.295  40.908  11.082
66653W        W25749  31.032  35.021   4.191
66654W        W25750   7.355  38.952  11.517
66655W        W25751   1.469   2.348   0.409
66656W        W25752  24.190   1.309  11.114
66657W        W25753  14.823  19.235   4.300
66658W        W25754   2.842   8.845  11.576
66659W        W25755   9.713   5.766  13.872
66660W        W25756  20.563  24.647   0.959
66661W        W25757  19.739  37.947   0.913
66662W        W25758   9.714   2.924  14.803
66663W        W25759   0.273  11.703   3.650
66664W        W25760  35.047  28.084   0.770
66665W        W25761  20.243   2.467   2.718
66666W        W25762  26.105  44.356  12.520
66667W        W25763  10.689  41.990   2.720
66668W        W25764  31.519   5.315  14.022
66669W        W25765  43.411  40.968   4.693
66670W        W25766  11.674  30.095   0.807
66671W        W25767  19.119  12.793   2.291
66672W        W25768  36.019  39.956  13.997
66673W        W25769  34.984   3.422  12.934
66674W        W25770  23.637  21.534  12.903
66675W        W25771  29.051  21.560   1.346
66676W        W25772  44.395  33.066   3.212
66677W        W25773  43.792  13.704  14.426
66678W        W25774   0.781  31.928  13.446
66679W        W25775  19.266  11.699  12.930
66680W        W25776  40.335   1.474  13.348
66681W        W25777  30.578  38.462   2.775
66682W        W25778  12.834  44.921  13.514
66683W        W25779  17.202  32.002  11.543
66684W        W25780  25.610   7.324   3.199
66685W        W25781  10.333   5.438   5.131
66686W        W25782  12.833   2.749  13.009
66687W        W25783  11.199  14.814   2.274
66688W        W25784   2.833  36.550  11.550
66689W        W25785   5.847  22.741   2.835
66690W        W25786  33.428   7.265  10.907
66691W        W25787  31.464  33.533  12.012
66692W        W25788  18.070  16.303  10.643
66693W        W25789  24.688  38.991  10.992
66694W        W25790  19.264  33.989  13.518
66695W        W25791  22.536  28.983   4.352
66696W        W25792   4.292  33.491  11.587
66697W        W25793  36.902   2.416   0.301
66698W        W25794  33.966  18.689   0.415
66699W        W25795  21.236  31.518  14.994
66700W        W25796  39.973  21.197   2.775
66701W        W25797   8.756  20.621  12.423
66702W        W25798  42.920  20.619   0.874
66703W        W25799  18.093  12.725   4.146
66704W        W25800  14.814  24.635  11.507
66705W        W25801  30.007  10.153  14.373
66706W        W25802  34.475  23.140  13.861
66707W        W25803  31.514  39.541  13.418
66708W        W25804  43.501  28.610  11.117
66709W        W25805   7.833  28.594  13.435
66710W        W25806  31.982  23.069  11.035
66711W        W25807   3.882   9.731  14.299
66712W        W25808  17.719   5.244   1.698
66713W        W25809  43.323  21.738   4.766
66714W        W25810   9.661  29.664  11.409
66715W        W25811  22.526  42.787  13.403
66716W        W25812  18.617  33.038  10.977
66717W        W25813  26.057  25.590   4.228
66718W        W25814  33.457  28.106   1.758
66719W        W25815  14.661  13.301  12.862
66720W        W25816   5.876  39.340   0.461
66721W        W25817   5.425  38.409  14.916
66722W        W25818  42.808  13.695   4.743
66723W        W25819  30.619  12.197  14.424
66724W        W25820   6.898  35.864  11.995
66725W        W25821   2.792  20.073  11.580
66726W        W25822  18.214  42.284  13.368
66727W        W25823  33.431  36.961   3.792
66728W        W25824   8.279  12.721   3.857
66729W        W25825   2.250  36.950  13.951
66730W        W25826   1.414  20.167   1.445
66731W        W25827  17.269   3.757   4.664
66732W        W25828  20.580  25.129   2.667
66733W        W25829  15.606   7.748   0.333
66734W        W25830  44.420  17.624   2.198
66735W        W25831  35.068  32.436  11.038
66736W        W25832   6.883   8.777  11.374
66737W        W25833  35.857  40.454  14.426
66738W        W25834  19.727  37.996   1.905
66739W        W25835  34.020  27.663   5.792
66740W        W25836  11.773  26.962   0.785
66741W        W25837  12.247  26.563  14.478
66742W        W25838   9.164  36.384   3.150
66743W        W25839  11.797  34.555  10.632
66744W        W25840   4.278  17.226   0.425
66745W        W25841  15.189   0.433   0.905
66746W        W25842  19.699   1.931  12.929
66747W        W25843  17.636  27.092  12.436
66748W        W25844   5.932  32.898  12.380
66749W        W25845  21.623   2.954   4.219
66750W        W25846  24.170  26.676   4.288
66751W        W25847  44.832  21.591  12.882
66752W        W25848   8.250  38.566   1.836
66753W        W25849  14.646  18.095  12.078
66754W        W25850  12.801  17.741   3.272
66755W        W25851  43.305  35.893  14.420
66756W        W25852  34.061  33.569  13.062
66757W        W25853  35.529   6.789   2.770
66758W        W25854  41.850   1.847   2.665
66759W        W25855  31.985  12.614   2.814
66760W        W25856  16.761  33.004  11.588
66761W        W25857  35.390   2.329  14.466
66762W        W25858  20.085  28.613   2.198
66763W        W25859   5.338  40.327   3.721
66764W        W25860  41.992  30.913  11.955
66765W        W25861  14.127   4.945  14.024
66766W        W25862  17.302  29.559  13.930
66767W        W25863  19.071  14.184  10.540
66768W        W25864   4.314   8.707  10.934
66769W        W25865  31.147  32.490   3.702
66770W        W25866  13.802  13.327   2.813
66771W        W25867  17.106  19.129   0.796
66772W        W25868  21.072  39.436   2.814
66773W        W25869  42.481  23.541  11.885
66774W        W25870  11.816   0.776  10.008
66775W        W25871  41.387  34.599  13.532
66776W        W25872  16.656  41.308   0.324
66777W        W25873   8.243  14.643  13.807
66778W        W25874  31.935  25.529   2.715
66779W        W25875   5.323  31.515   0.429
66780W        W25876  26.024  17.135   0.402
66781W        W25877  44.401  40.006  10.645
66782W        W25878  39.553  40.517   4.113
66783W        W25879  36.058  31.648  12.090
66784W        W25880   2.428   0.867  12.507
66785W        W25881  30.119  25.065   2.684
66786W        W25882  34.863  25.119   5.213
66787W        W25883   0.359  33.404   4.801
66788W        W25884  15.681   5.728   3.732
66789W        W25885  28.959   8.806   2.718
66790W        W25886   2.727   9.646  10.571
66791W        W25887  21.215   4.308   4.277
66792W        W25888  35.999  35.077   3.317
66793W        W25889  15.755  32.612   0.771
66794W        W25890  34.110  14.138  11.885
66795W        W25891  13.217  29.615  12.903
66796W        W25892   3.757  27.977  11.891
66797W        W25893  18.629  17.624   0.926
66798W        W25894  40.494  24.639   0.484
66799W        W25895  16.149  32.949  12.050
66800W        W25896  21.581   5.214   3.860
66801W        W25897   8.658  39.484   0.771
66802W        W25898  30.602  32.527  11.039
66803W        W25899  20.140   7.888   2.787
66804W        W25900  21.587  40.888  11.496
66805W        W25901  23.113  38.340  14.772
66806W        W25902  26.682  14.221  14.876
66807W        W25903  12.692   8.278   2.289
66808W        W25904   6.367  26.511  12.097
66809W        W25905  40.959  25.187  13.866
66810W        W25906  26.480   1.818  12.036
66811W        W25907  15.230  29.582  14.947
66812W        W25908  35.973  20.678   3.822
66813W        W25909  26.666  37.853   0.368
66814W        W25910  10.173  25.034  12.428
66815W        W25911  41.006   6.251  14.496
66816W        W25912  40.984  42.833  10.054
66817W        W25913   1.298   8.172  11.885
66818W        W25914   5.875  36.398  13.394
66819W        W25915  41.869  40.469  13.804
66820W        W25916  32.420  19.219   2.841
66821W        W25917  30.555  21.204   0.845
66822W        W25918   0.430  20.115   1.267
66823W        W25919  18.659  19.169   0.376
66824W        W25920  12.836  20.736  12.088
66825W        W25921  15.610  16.701  13.486
66826W        W25922  27.539  26.098   2.861
66827W        W25923  13.190   3.236  14.785
66828W        W25924  28.186  37.016  14.927
66829W        W25925  10.775  39.329   2.246
66830W        W25926  34.490  40.840  13.941
66831W        W25927   6.686   3.382   0.356
66832W        W25928  12.349  16.583  12.974
66833W        W25929  13.175  26.170   3.190
66834W        W25930   0.407  41.444   2.206
66835W        W25931   0.458  35.511  10.457
66836W        W25932   6.214   9.388  13.369
66837W        W25933  24.124  11.150   1.904
66838W        W25934   8.290  41.369  12.381
66839W        W25935  30.085  30.466  14.921
66840W        W25936  10.213  29.953   5.235
66841W        W25937  36.038  23.128   1.431
66842W        W25938   4.917  17.739  12.868
66843W        W25939   5.688  11.826  14.893
66844W        W25940  30.151  24.642   2.346
66845W        W25941   6.682  29.498   5.088
66846W        W25942  13.149  35.467   1.234
66847W        W25943   7.800  13.231  13.525
66848W        W25944  42.292  41.923   0.398
66849W        W25945  38.571   9.836   2.854
66850W        W25946  36.562  38.483   0.354
66851W        W25947  41.038  16.577   4.210
66852W        W25948  22.552  13.235   0.925
66853W        W25949  29.448  29.603  12.959
66854W        W25950   6.410  25.040   4.837
66855W        W25951  35.028  38.983   2.265
66856W        W25952   2.885  32.420  13.840
66857W        W25953  43.282  25.676   0.839
66858W        W25954  38.987   5.786   0.273
66859W        W25955  12.617  41.982   2.288
66860W        W25956  37.999  29.084   1.804
66861W        W25957  32.478   4.840   4.765
66862W        W25958  27.509  34.008   5.227
66863W        W25959  42.922  37.351   0.925
66864W        W25960  18.758  26.968  10.918
66865W        W25961  34.610   3.825  11.122
66866W        W25962  10.350  24.988   0.733
66867W        W25963  10.756  36.376   1.714
66868W        W25964  12.357  31.063  11.967
66869W        W25965  12.626  26.563  11.115
66870W        W25966   8.850  16.183   9.608
66871W        W25967  12.831  36.983   3.361
66872W        W25968  37.951   8.816  11.398
66873W        W25969  35.992   7.906  14.012
66874W        W25970  28.087  14.643   3.195
66875W        W25971  10.138  27.197   4.346
66876W        W25972   3.816  23.985  10.514
66877W        W25973  30.479   2.838  11.520
66878W        W25974   3.916  25.057   0.741
66879W        W25975  27.521  12.351   4.315
66880W        W25976   5.328   8.299   1.288
66881W        W25977  23.114  15.122  13.492
66882W        W25978  40.808   0.948   1.739
66883W        W25979  13.705  17.128   3.334
66884W        W25980  39.351  30.140  14.990
66885W        W25981  35.857  26.177   3.149
66886W        W25982  33.459  17.707   1.924
66887W        W25983  21.666  42.952   4.752
66888W        W25984  17.100  26.012  14.872
66889W        W25985  35.541  16.734  12.094
66890W        W25986  32.473  26.098   4.314
66891W        W25987  25.060  12.322  11.425
66892W        W25988  44.970  11.273  14.445
66893W        W25989  14.713  32.045   0.261
66894W        W25990  27.468  14.234  11.062
66895W        W25991  18.221  36.931  14.376
66896W        W25992  19.075  15.630  14.865
66897W        W25993  42.974  37.008  11.605
66898W        W25994  21.023   3.809  11.531
66899W        W25995  16.754  22.528   4.668
66900W        W25996  27.033  16.151   2.377
66901W        W25997  22.140  15.142  13.891
66902W        W25998  44.445  40.925  14.810
66903W        W25999   7.209  13.643  14.324
66904W        W26000  16.635  31.045  12.953
66905W        W26001   4.421   4.766   1.889
66906W        W26002   8.743  41.821   4.793
66907W        W26003   1.849  32.982   0.946
66908W        W26004  23.125  44.953   3.272
66909W        W26005   8.195  24.076   2.717
66910W        W26006  22.526  21.076  10.137
66911W        W26007   1.320  30.000  10.889
66912W        W26008  10.876  34.578   2.775
66913W        W26009  21.190   3.839   2.808
66914W        W26010  25.147  28.527   2.267
66915W        W26011  11.211  42.389  14.477
66916W        W26012  18.680   2.251   1.802
66917W        W26013  40.932  12.752   4.798
66918W        W26014  42.799  17.161  10.530
66919W        W26015   8.374  17.629  10.412
66920W        W26016  44.917  25.078  10.560
66921W        W26017   4.917   9.739  13.482
66922W        W26018  42.287  21.755   2.739
66923W        W26019  22.167  25.206   2.204
66924W        W26020   9.710   8.780  13.824
66925W        W26021  36.873  24.538   4.142
66926W        W26022   6.333  26.505   3.684
66927W        W26023  12.220  37.951   0.796
66928W        W26024  16.793   8.791   2.695
66929W        W26025  10.804  23.165  13.016
66930W        W26026  42.916  18.764  11.058
66931W        W26027  22.548   4.416  12.885
66932W        W26028   9.206  12.193  12.956
66933W        W26029  15.725  26.075   4.701
66934W        W26030   8.687   4.846   9.953
66935W        W26031  29.429  14.601  10.966
66936W        W26032  12.361  18.668   5.318
66937W        W26033  34.014   2.735   2.208
66938W        W26034  30.093   5.845  14.848
66939W        W26035  16.698  37.484  12.843
66940W        W26036   9.885  44.474  14.787
66941W        W26037  10.304  23.720   4.627
66942W        W26038  35.909   0.967   3.704
66943W        W26039  34.962  11.746   2.746
66944W        W26040   0.747  36.577  10.589
66945W        W26041  28.627  23.057   3.264
66946W        W26042  41.521  33.880   2.362
66947W        W26043  11.867  15.144  13.833
66948W        W26044  43.317   5.272  14.447
66949W        W26045  25.492  40.504  12.963
66950W        W26046  28.165  29.576   2.832
66951W        W26047  43.382  27.631  11.529
66952W        W26048  24.220  43.393  10.433
66953W        W26049  36.478  33.430  10.899
66954W        W26050  22.995  27.016   3.817
66955W        W26051  12.761  15.795   0.483
66956W        W26052  29.938   9.755   1.804
66957W        W26053   3.801  35.942   3.274
66958W        W26054  15.169  43.514   4.650
66959W        W26055  25.076   2.280   0.893
66960W        W26056  28.049  12.754  13.349
66961W        W26057  34.496   3.307  14.938
66962W        W26058  12.146  18.250   1.823
66963W        W26059  33.425  44.355   1.866
66964W        W26060   6.359  22.744  11.439
66965W        W26061  29.103  16.211   2.325
66966W        W26062  33.618  44.464  12.411
66967W        W26063  41.452   0.409  13.872
66968W        W26064  32.016   4.440   1.218
66969W        W26065  37.035  38.434  14.424
66970W        W26066  36.943  14.714   4.289
66971W        W26067  32.030  41.379  12.547
66972W        W26068  16.100  12.357  11.491
66973W        W26069  37.387  27.016   2.759
66974W        W26070   8.827  33.603  12.829
66975W        W26071  31.953  30.013   0.393
66976W        W26072  35.371  28.139  14.387
66977W        W26073  30.425  43.012  13.522
66978W        W26074  33.542  37.873   1.215
66979W        W26075  36.494  25.685   4.643
66980W        W26076  34.493  20.669  10.527
66981W        W26077  41.041  33.431  14.775
66982W        W26078  30.459   5.829   3.708
66983W        W26079   4.345  35.602   4.201
66984W        W26080   3.338  35.040   1.406
66985W        W26081  28.034   2.295  12.980
66986W        W26082  10.703  14.218  11.120
66987W        W26083  10.717   0.856   3.845
66988W        W26084   9.157   5.219  14.012
66989W        W26085  28.114  12.749   3.657
66990W        W26086  11.164  42.958   1.921
66991W        W26087   5.884   1.377   4.743
66992W        W26088  22.229  25.983  14.499
66993W        W26089  17.597  37.478   3.256
66994W        W26090  22.177  28.470  10.503
66995W        W26091  41.448  25.595  11.875
66996W        W26092  41.839  10.337  14.762
66997W        W26093   0.256  21.132  14.849
66998W        W26094  31.580   7.677  10.557
66999W        W26095  15.780  39.852   2.218
67000W        W26096  21.253  33.414  12.086
67001W        W26097  33.113  24.991  11.447
67002W        W26098  18.156   5.209  10.515
67003W        W26099  22.015   9.744  12.854
67004W        W26100  21.723   8.781  12.511
67005W        W26101  36.377  32.050  10.954
67006W        W26102  27.128  33.962   4.791
67007W        W26103  44.375   0.432   3.806
67008W        W26104  42.907  14.282  11.413
67009W        W26105  12.615  32.442   2.884
67010W        W26106   1.822  20.059  14.449
67011W        W26107  36.009   3.848   1.252
67012W        W26108  29.102  22.006   4.666
67013W        W26109  24.530   1.319  13.432
67014W        W26110  18.090  10.809   1.838
67015W        W26111  38.439  37.452   4.669
67016W        W26112  40.345  29.534  12.997
67017W        W26113  17.170  27.074  12.361
67018W        W26114  33.897  38.958   1.236
67019W        W26115  13.834  34.398   1.717
67020W        W26116  14.098  33.426  10.906
67021W        W26117  23.529   2.732  13.929
67022W        W26118  40.843  18.126   2.871
67023W        W26119   5.866  34.022  11.568
67024W        W26120  28.528  44.458   1.823
67025W        W26121  40.333  19.622   3.847
67026W        W26122  15.719  36.564  14.397
67027W        W26123  36.452  31.586  11.113
67028W        W26124  29.555  41.876   2.778
67029W        W26125   6.918   7.285  11.077
67030W        W26126  40.976   8.673   1.218
67031W        W26127   2.815   6.680  11.476
67032W        W26128  19.772  25.598  14.374
67033W        W26129  13.641  22.062  14.023
67034W        W26130  32.888  18.670   0.410
67035W        W26131  14.338  31.070  14.343
67036W        W26132  38.460  16.282   3.199
67037W        W26133  34.549  44.279   3.795
67038W        W26134  20.697  25.613  10.499
67039W        W26135  19.576  18.278   0.362
67040W        W26136  35.361  10.284  12.841
67041W        W26137  16.760   8.223   3.664
67042W        W26138  43.425  24.580   3.326
67043W        W26139   0.278  32.069  10.621
67044W        W26140  32.548  15.710   0.965
67045W        W26141  36.503  35.013   1.357
67046W        W26142  39.382   2.787   2.733
67047W        W26143   4.707  40.343   0.773
67048W        W26144  13.816  32.128   3.385
67049W        W26145  20.054  40.340   2.851
67050W        W26146  19.637  23.588   2.787
67051W        W26147  25.685  17.088   0.269
67052W        W26148  35.862  35.071  11.084
67053W        W26149  10.189  42.905   1.866
67054W        W26150  31.505   3.227  10.978
67055W        W26151  19.090  19.650  13.935
67056W        W26152  12.332   2.878  13.026
67057W        W26153   5.859  38.073   3.777
67058W        W26154  20.614  16.589  10.614
67059W        W26155   4.403   9.816  14.500
67060W        W26156  13.755  35.453  12.065
67061W        W26157   7.667   8.375   3.753
67062W        W26158  22.252  42.788  13.449
67063W        W26159  30.046  27.065  13.428
67064W        W26160   1.771   8.840  12.578
67065W        W26161  11.733  15.285  14.916
67066W        W26162  14.235  19.249   0.356
67067W        W26163  31.524   0.328   3.243
67068W        W26164  28.076   2.809  12.065
67069W        W26165  28.031  10.669  11.602
67070W        W26166  22.114  26.673   1.259
67071W        W26167  11.199  28.067   3.207
67072W        W26168  11.334  40.880   3.859
67073W        W26169  35.570  17.644  14.424
67074W        W26170  36.083   0.801  13.975
67075W        W26171  39.502  24.653   1.829
67076W        W26172   9.318  39.456   1.323
67077W        W26173  23.006  24.229  14.917
67078W        W26174   2.318   1.825   2.690
67079W        W26175  31.043  31.898   3.859
67080W        W26176  41.445  44.283   1.309
67081W        W26177  17.599  42.810  11.529
67082W        W26178  40.346  14.739  10.435
67083W        W26179   4.901   2.734   4.276
67084W        W26180  25.167  11.624   1.338
67085W        W26181  16.150  44.334  14.489
67086W        W26182  35.495  32.573  10.553
67087W        W26183   9.862  27.483  14.799
67088W        W26184   1.783  38.859  13.450
67089W        W26185   8.293  36.014  14.334
67090W        W26186   7.747   8.802   1.845
67091W        W26187  37.003  38.523   3.227
67092W        W26188  39.878  25.962  12.540
67093W        W26189  28.491  39.033  12.078
67094W        W26190  24.052  21.547  13.950
67095W        W26191  31.144   3.914   2.803
67096W        W26192  35.451  13.718   4.707
67097W        W26193   7.831  25.133   2.855
67098W        W26194   3.803  35.574  11.049
67099W        W26195  16.255  38.392  11.469
67100W        W26196  11.799   0.914   3.658
67101W        W26197  15.172  15.766   2.851
67102W        W26198  15.228  25.044  12.941
67103W        W26199  35.020  32.537   0.430
67104W        W26200  14.810   8.788   0.735
67105W        W26201  43.997  26.545   1.290
67106W        W26202  32.041   6.377  11.045
67107W        W26203  33.559  14.197  10.134
67108W        W26204  33.897  23.181  11.084
67109W        W26205  43.840  11.672  11.560
67110W        W26206  29.509  19.574  13.540
67111W        W26207  40.386  17.627  13.930
67112W        W26208  42.447  32.113   1.450
67113W        W26209  30.938  41.305   2.700
67114W        W26210   0.898  23.006  10.469
67115W        W26211  30.991   7.705  11.392
67116W        W26212  19.151  37.915   0.463
67117W        W26213  36.890  16.100   3.266
67118W        W26214  34.006   2.340   2.845
67119W        W26215   1.310   1.390   2.382
67120W        W26216  26.143   4.897  12.862
67121W        W26217   7.308  39.854   1.310
67122W        W26218  17.280   3.224   2.778
67123W        W26219  37.468  40.419   4.685
67124W        W26220  22.636  25.214  11.993
67125W        W26221  25.520   5.430   3.694
67126W        W26222  16.135   3.879  11.059
67127W        W26223   0.304  21.726  13.914
67128W        W26224  29.525  32.927  14.462
67129W        W26225   8.400  21.544   4.685
67130W        W26226   8.881  39.946  14.364
67131W        W26227  22.188  34.872   0.437
67132W        W26228  25.096   2.402   0.344
67133W        W26229  31.062   5.363  10.974
67134W        W26230  31.038  43.316   0.774
67135W        W26231  13.798  18.638  11.498
67136W        W26232  36.456   2.904  14.510
67137W        W26233  17.745  37.863  12.024
67138W        W26234  19.630  30.624  13.854
67139W        W26235  14.241  12.611  14.940
67140W        W26236  21.207  13.217  13.812
67141W        W26237   3.775  20.228   1.256
67142W        W26238  29.511  29.130   0.300
67143W        W26239   9.770   2.802   3.280
67144W        W26240  23.050  16.298  10.924
67145W        W26241  23.532  14.716   3.675
67146W        W26242  39.881  44.490   1.739
67147W        W26243  11.718   8.263  12.001
67148W        W26244  43.929   4.290  11.086
67149W        W26245   6.278  24.068   3.778
67150W        W26246  37.898  28.469   1.288
67151W        W26247  35.972  36.869   4.693
67152W        W26248  35.429   0.901   0.809
67153W        W26249  19.130  11.195   0.245
67154W        W26250  19.612  21.190  11.385
67155W        W26251  22.534  33.078  13.038
67156W        W26252   8.257  18.240   1.384
67157W        W26253  13.607  36.578  12.094
67158W        W26254  18.189  44.385  10.450
67159W        W26255   0.750  16.148  14.918
67160W        W26256  31.025  24.187   5.653
67161W        W26257   2.460  29.597   2.846
67162W        W26258  41.908  25.138  11.519
67163W        W26259  42.338  27.682  10.989
67164W        W26260  10.260  41.391  12.054
67165W        W26261  34.047  26.642   2.865
67166W        W26262  39.489  39.975  11.553
67167W        W26263  41.940  43.511   2.792
67168W        W26264  22.210   5.747  14.377
67169W        W26265  30.967   4.251   2.337
67170W        W26266  33.395  14.686   0.404
67171W        W26267  22.698  11.152  13.914
67172W        W26268  31.930  34.435   1.904
67173W        W26269  29.531  34.898   3.351
67174W        W26270  30.968  29.606  14.778
67175W        W26271  43.975   6.341  11.528
67176W        W26272  17.707  40.894   9.955
67177W        W26273  28.597  27.543  14.766
67178W        W26274  18.584  17.120   3.683
67179W        W26275  16.162  40.850   0.848
67180W        W26276  20.086  18.295   4.204
67181W        W26277   2.463   5.879  11.592
67182W        W26278  23.681  22.715  13.470
67183W        W26279  21.552  36.022  12.946
67184W        W26280  44.477  23.013   0.922
67185W        W26281  13.806  19.130   1.762
67186W        W26282   9.340  15.761  12.829
67187W        W26283  12.127  16.668   0.812
67188W        W26284  27.005  15.272  13.976
67189W        W26285  39.551  13.793   1.281
67190W        W26286  32.054   4.892   3.202
67191W        W26287  23.549  30.074   0.952
67192W        W26288   3.250   8.357  11.549
67193W        W26289  24.491  34.897   5.752
67194W        W26290  31.425  13.304  14.865
67195W        W26291  26.600  28.056   4.309
67196W        W26292   5.799   0.936  10.587
67197W        W26293  18.196  25.685  10.521
67198W        W26294  27.077  28.169  14.511
67199W        W26295  40.329  10.636   4.175
67200W        W26296  40.463  33.111   1.409
67201W        W26297   7.752  35.968   2.368
67202W        W26298  29.615  35.360  14.473
67203W        W26299  44.800  15.213   1.862
67204W        W26300  33.016   9.176   3.200
67205W        W26301  34.370  39.398   4.275
67206W        W26302   6.706   0.400   4.160
67207W        W26303   7.676  35.362   0.912
67208W        W26304  31.990   4.821  12.994
67209W        W26305  43.381  26.482  10.948
67210W        W26306  33.393  34.603   1.911
67211W        W26307  43.999  38.915   2.278
67212W        W26308   5.784  32.499   3.820
67213W        W26309  21.674  38.438   1.259
67214W        W26310   6.714   8.301  10.576
67215W        W26311  16.183   4.279   1.802
67216W        W26312  30.547  43.000   2.885
67217W        W26313  42.949  11.830  14.388
67218W        W26314  30.422  21.064  12.383
67219W        W26315  32.107   6.390   2.405
67220W        W26316  23.641  11.718   4.744
67221W        W26317   4.229  21.222  10.067
67222W        W26318  39.333  19.256   2.284
67223W        W26319  30.003  31.923  14.298
67224W        W26320  25.548   7.821  12.851
67225W        W26321  44.430  14.289   4.773
67226W        W26322  41.982  18.775   4.259
67227W        W26323  26.130  10.171   3.290
67228W        W26324  33.075  19.764   2.334
67229W        W26325   2.857  10.754   3.668
67230W        W26326  23.566  17.088  12.001
67231W        W26327  10.183  10.271   3.195
67232W        W26328  26.061   9.663   0.804
67233W        W26329   6.291   4.709   0.745
67234W        W26330  42.951   4.699   2.342
67235W        W26331   3.410  18.637  14.789
67236W        W26332  36.347  12.252  12.003
67237W        W26333   7.261  28.931   2.379
67238W        W26334   2.226  26.627  12.013
67239W        W26335  16.649  35.505   0.739
67240W        W26336  39.463  37.533  14.343
67241W        W26337   4.245  36.551  14.950
67242W        W26338  12.772  41.983   3.245
67243W        W26339  20.043  39.868   4.769
67244W        W26340  34.032  40.517   3.797
67245W        W26341  13.749  27.549  11.581
67246W        W26342  20.720  13.770   4.697
67247W        W26343   7.760   3.361  10.526
67248W        W26344  16.571  41.518   4.226
67249W        W26345  33.050  19.179  13.038
67250W        W26346  42.393  16.699  14.804
67251W        W26347  43.801  18.685   1.732
67252W        W26348  22.040  35.390   3.221
67253W        W26349   4.721  11.183   1.807
67254W        W26350  16.643  28.546  12.089
67255W        W26351  22.690  26.662   1.307
67256W        W26352   3.379  42.800   4.714
67257W        W26353  12.125  27.016  10.444
67258W        W26354  25.124  13.845  13.404
67259W        W26355  16.080  36.375   1.712
67260W        W26356   7.277  42.831  12.094
67261W        W26357  20.751  44.981  12.355
67262W        W26358  21.621   5.713   0.472
67263W        W26359   1.854  21.178   0.263
67264W        W26360  23.069   8.813   3.685
67265W        W26361  44.971   9.199  14.861
67266W        W26362  15.291  21.046   4.648
67267W        W26363  13.671  44.293   3.820
67268W        W26364  32.598  22.625  10.907
67269W        W26365  34.113   8.657   3.764
67270W        W26366  40.501  35.532  12.575
67271W        W26367  14.601  34.896  12.483
67272W        W26368  32.049  12.854  13.381
67273W        W26369  17.161   3.774   0.894
67274W        W26370  37.921  11.205   5.293
67275W        W26371  11.845  41.015  10.506
67276W        W26372  34.509  27.478  12.838
67277W        W26373  37.996  40.916   4.199
67278W        W26374   7.886   8.689  12.836
67279W        W26375  22.209  38.073  13.893
67280W        W26376  20.601  14.315   3.264
67281W        W26377  34.981  29.453  14.472
67282W        W26378   8.381  12.642   1.253
67283W        W26379   0.262  16.592   0.914
67284W        W26380  27.006  18.718  14.280
67285W        W26381  24.193  33.935   3.780
67286W        W26382  28.036  33.907  13.489
67287W        W26383  32.504  30.475   0.298
67288W        W26384  43.785  40.900  11.049
67289W        W26385  15.114   6.353   3.785
67290W        W26386  15.199  36.865  13.977
67291W        W26387  30.045  36.983  14.370
67292W        W26388  31.026  18.686  12.558
67293W        W26389  13.121  26.589   2.411
67294W        W26390  23.178  37.441   3.366
67295W        W26391  39.424   3.444  13.852
67296W        W26392  27.666  41.397  11.097
67297W        W26393  18.586  35.574  11.497
67298W        W26394  44.314  43.943   0.442
67299W        W26395  29.175  40.801   3.725
67300W        W26396  29.453  30.545  11.481
67301W        W26397   5.260   0.966   0.377
67302W        W26398   6.287  32.003  14.402
67303W        W26399  14.154  31.439   3.189
67304W        W26400  12.761  28.659   1.365
67305W        W26401  17.218  18.127  10.599
67306W        W26402   1.954  32.022   2.870
67307W        W26403  31.015  44.841  14.434
67308W        W26404  23.613  36.886  13.924
67309W        W26405  41.995  35.547   3.356
67310W        W26406  22.067  11.814  12.059
67311W        W26407   4.724  20.533   1.398
67312W        W26408  30.483  18.160   3.716
67313W        W26409  38.457  34.962   2.398
67314W        W26410  12.648  30.949  10.510
67315W        W26411  27.023  19.088   5.618
67316W        W26412  28.529  28.970   0.765
67317W        W26413  29.030  25.086  11.953
67318W        W26414   4.360   2.762  10.636
67319W        W26415  24.588   3.853  12.922
67320W        W26416  26.040   3.837   0.289
67321W        W26417  22.567  34.387   5.231
67322W        W26418   0.285   8.332   3.750
67323W        W26419  24.142  24.198   5.196
67324W        W26420   0.383  38.338   4.159
67325W        W26421  15.700  13.613  12.992
67326W        W26422  27.616  24.598  12.902
67327W        W26423  24.143   3.300  12.039
67328W        W26424  19.741  41.307  10.615
67329W        W26425  44.914  37.938   1.799
67330W        W26426  29.533  23.120  13.044
67331W        W26427   0.359  12.168   1.432
67332W        W26428  42.383  39.493   0.363
67333W        W26429  41.491  10.321  12.933
67334W        W26430  14.319  13.137   3.314
67335W        W26431   2.845  39.403   4.228
67336W        W26432  31.903  34.554  13.025
67337W        W26433   5.392  37.408  11.543
67338W        W26434  31.953   2.310  10.605
67339W        W26435  10.652  27.688  14.981
67340W        W26436  35.887  10.743   0.799
67341W        W26437  28.994  17.752   4.798
67342W        W26438  21.601  17.160   4.825
67343W        W26439  19.073  15.609   3.634
67344W        W26440  44.965  22.222  11.419
67345W        W26441  10.760  30.570   1.785
67346W        W26442  12.260  22.236   4.152
67347W        W26443  21.658  39.405  10.633
67348W        W26444  29.963   9.790   4.168
67349W        W26445  38.946   9.323   4.311
67350W        W26446   9.810  41.940   1.705
67351W        W26447  10.874  40.025   0.769
67352W        W26448  18.104  41.913   0.740
67353W        W26449  22.726   1.834   4.740
67354W        W26450  20.247   2.890  12.434
67355W        W26451  40.439  20.214   3.700
67356W        W26452  26.125   1.916   3.816
67357W        W26453   5.296   1.246   3.148
67358W        W26454   8.260   5.381  10.563
67359W        W26455  34.993  10.847   0.760
67360W        W26456  12.173  28.542   3.367
67361W        W26457  35.386  22.173  12.840
67362W        W26458  39.384  26.566  13.519
67363W        W26459  29.598  36.999   3.321
67364W        W26460  33.949  27.602   2.730
67365W        W26461  10.218  29.041  10.134
67366W        W26462   5.931  38.429  13.334
67367W        W26463  15.326   2.308  12.543
67368W        W26464   7.317  15.301  13.994
67369W        W26465  23.555  31.099  12.071
67370W        W26466  43.883  19.059   2.230
67371W        W26467  13.722  25.077  10.951
67372W        W26468   1.245  20.098   0.390
67373W        W26469   4.739   5.307  13.498
67374W        W26470   1.471   5.209   3.680
67375W        W26471   7.725  30.610   5.224
67376W        W26472   4.818  12.628  14.504
67377W        W26473  11.712   8.350  12.473
67378W        W26474  34.976  20.044   0.733
67379W        W26475  25.006  43.291   3.728
67380W        W26476  33.874  44.954   1.320
67381W        W26477  31.961  37.861   0.925
67382W        W26478   9.745   8.867  10.995
67383W        W26479  28.567   1.734   2.285
67384W        W26480  30.928  20.722  13.349
67385W        W26481   0.750  24.170  13.330
67386W        W26482   5.358  15.238   3.215
67387W        W26483  24.635  16.110   0.389
67388W        W26484  30.443  29.634   0.323
67389W        W26485  17.231  13.809  14.410
67390W        W26486   3.953  37.570   1.729
67391W        W26487   0.951  24.116  13.863
67392W        W26488  14.728  35.449  11.096
67393W        W26489  34.989  12.679  11.562
67394W        W26490   3.276  37.550   4.704
67395W        W26491  25.217   3.945  11.559
67396W        W26492  34.601   6.386   2.236
67397W        W26493  21.610  19.673  10.982
67398W        W26494  40.873  44.428   1.230
67399W        W26495   8.662  29.123  14.357
67400W        W26496  13.267  30.087   4.635
67401W        W26497  14.330  12.348  10.542
67402W        W26498  23.071  23.211  13.855
67403W        W26499  12.184  39.919  12.982
67404W        W26500   2.294  14.292  12.408
67405W        W26501   3.431  39.374   4.134
67406W        W26502  33.602   9.244  13.884
67407W        W26503  32.924  36.085   2.824
67408W        W26504   0.960  18.784   1.884
67409W        W26505  35.004  25.640  14.881
67410W        W26506  29.938  40.429   3.762
67411W        W26507  15.676   0.462  13.327
67412W        W26508  30.441  10.791   3.738
67413W        W26509  26.986  31.143  11.914
67414W        W26510   9.806  12.695   2.385
67415W        W26511   5.884  31.553   1.250
67416W        W26512  28.502  28.597   2.812
67417W        W26513  41.902   7.889   1.897
67418W        W26514  43.883  29.142  14.994
67419W        W26515   7.280  32.407   1.906
67420W        W26516  10.246   7.323  12.413
67421W        W26517  33.442  26.190   2.204
67422W        W26518  10.228  35.397   2.839
67423W        W26519  39.020   6.188   2.209
67424W        W26520  27.950  44.286  14.985
67425W        W26521   6.861  22.244   4.660
67426W        W26522  18.716  36.507  12.577
67427W        W26523  17.150   2.875  10.964
67428W        W26524  14.763  18.247   9.648
67429W        W26525  27.682  37.075  14.300
67430W        W26526  20.672  27.532   4.680
67431W        W26527  32.092  21.681   0.930
67432W        W26528  17.120   0.855   1.918
67433W        W26529  36.855  16.802   1.376
67434W        W26530   1.325  15.183   3.252
67435W        W26531  34.934  43.985  11.542
67436W        W26532   8.740  11.372  11.533
67437W        W26533  36.431  13.229   0.351
67438W        W26534  23.670  34.876  11.922
67439W        W26535  22.034  27.680  13.505
67440W        W26536  32.086  25.973   0.761
67441W        W26537  34.104   2.800  12.490
67442W        W26538  35.383  37.418   4.687
67443W        W26539  26.125  42.426   2.253
67444W        W26540   2.814  17.742   1.405
67445W        W26541   0.385   6.361  14.359
67446W        W26542  28.594  42.908  14.937
67447W        W26543  23.578  22.530  10.888
67448W        W26544  10.699  34.379  14.501
67449W        W26545   4.930   3.912   4.702
67450W        W26546  35.562  41.877  12.511
67451W        W26547  44.804   4.320   3.345
67452W        W26548  35.060  26.492   1.815
67453W        W26549  16.173  43.941  11.508
67454W        W26550   0.303  42.991  11.434
67455W        W26551  34.461  38.504  13.817
67456W        W26552  37.494   2.833  12.505
67457W        W26553  35.985  37.020  12.020
67458W        W26554   9.337  20.556  12.407
67459W        W26555  31.555  27.540   1.914
67460W        W26556  31.549   2.445  14.457
67461W        W26557  11.215  38.558   1.388
67462W        W26558  26.474  13.294   4.733
67463W        W26559  37.023   1.367  14.828
67464W        W26560  16.764  20.640  11.606
67465W        W26561  10.299   7.836  14.507
67466W        W26562  23.039  22.143   4.777
67467W        W26563  24.080  36.383  12.939
67468W        W26564  23.046  11.770  10.893
67469W        W26565  18.777  41.422   4.668
67470W        W26566  14.249   9.337  11.373
67471W        W26567  25.045  41.910  14.852
67472W        W26568  18.743   7.872   1.280
67473W        W26569  13.642  15.692   5.166
67474W        W26570  35.477   2.841  13.391
67475W        W26571  27.975  10.315   5.265
67476W        W26572  38.899   8.733  10.463
67477W        W26573  44.777  11.214  10.622
67478W        W26574   8.878  28.438  14.347
67479W        W26575  44.463  10.192  13.937
67480W        W26576  44.287   1.395  11.867
67481W        W26577  30.622  30.946   4.283
67482W        W26578  29.656   1.748   0.878
67483W        W26579   8.274  24.008   2.340
67484W        W26580  18.273  20.652   3.262
67485W        W26581  37.503  39.960   2.822
67486W        W26582   4.322  14.207   3.334
67487W        W26583   9.186  30.549  10.972
67488W        W26584   0.914  39.516   2.410
67489W        W26585  17.664  35.450   2.220
67490W        W26586   9.670   8.789  10.437
67491W        W26587  21.200  17.297  12.433
67492W        W26588  13.635   2.321   2.183
67493W        W26589  44.929  21.600  10.606
67494W        W26590  30.033   8.293  11.428
67495W        W26591  26.020  16.259  11.008
67496W        W26592  11.822  38.892   0.340
67497W        W26593   4.207   6.396   1.226
67498W        W26594  34.603  17.250  12.466
67499W        W26595  25.476  18.633   0.424
67500W        W26596  19.759  30.157   0.363
67501W        W26597   4.327   4.827  11.575
67502W        W26598  19.656   0.800   2.326
67503W        W26599  12.244  12.341  14.371
67504W        W26600  25.027  31.093   2.677
67505W        W26601  29.048  44.818  11.519
67506W        W26602  27.034  24.700  10.999
67507W        W26603  19.186  27.076  10.932
67508W        W26604  16.737  18.120  14.375
67509W        W26605  16.581  39.987  13.441
67510W        W26606  33.106  26.167   2.733
67511W        W26607  28.165  20.721   2.822
67512W        W26608  11.355  22.588  13.919
67513W        W26609  11.657  18.697   3.267
67514W        W26610  25.133  19.231  11.526
67515W        W26611  38.416  28.437  12.057
67516W        W26612  18.119  14.317   0.340
67517W        W26613  37.015  33.983   4.607
67518W        W26614  30.013   1.422  12.451
67519W        W26615  22.706  32.994   3.794
67520W        W26616   0.976  39.971  14.967
67521W        W26617  14.811   8.193  13.495
67522W        W26618  21.689  26.632   4.778
67523W        W26619  23.555  18.212  14.514
67524W        W26620  18.143  27.685   0.275
67525W        W26621   8.880   3.724   3.309
67526W        W26622   3.377  29.464   2.198
67527W        W26623  15.289  30.621  13.356
67528W        W26624   0.253  34.867  11.080
67529W        W26625  15.639  41.799   4.209
67530W        W26626  20.711  19.624  14.300
67531W        W26627  27.965  28.615   1.225
67532W        W26628   6.887   2.376   4.808
67533W        W26629  40.810  16.751   2.833
67534W        W26630  23.141  35.011  13.510
67535W        W26631  11.724  33.005  10.986
67536W        W26632  17.098  36.411   0.825
67537W        W26633  26.163  22.132  11.040
67538W        W26634  21.127  40.406   3.379
67539W        W26635   6.677   1.786   2.702
67540W        W26636   2.805  31.101  12.023
67541W        W26637  43.276   4.413  13.885
67542W        W26638   8.742  44.993   1.222
67543W        W26639  21.582  33.425   3.648
67544W        W26640  43.456  26.590   0.903
67545W        W26641   9.393   1.858  11.914
67546W        W26642  15.151  25.527   1.784
67547W        W26643  26.115  33.593  13.517
67548W        W26644   9.253  13.284  12.888
67549W        W26645  11.789  17.100   5.581
67550W        W26646  10.723  31.987  13.368
67551W        W26647  13.670  22.999  12.400
67552W        W26648  42.351  26.059   4.786
67553W        W26649  19.149  30.650   2.903
67554W        W26650  38.381  35.882  12.877
67555W        W26651  36.861   9.164   2.790
67556W        W26652   8.714   3.435   0.798
67557W        W26653  19.681  29.493  13.811
67558W        W26654  31.503  38.484   3.344
67559W        W26655  19.095  21.135   1.304
67560W        W26656  29.166  22.538  14.806
67561W        W26657  16.784  13.257   0.807
67562W        W26658  18.156  14.768  10.498
67563W        W26659  44.266  11.623   2.210
67564W        W26660  22.741  42.002   1.923
67565W        W26661  10.165   4.765   0.414
67566W        W26662  27.991  35.088  11.899
67567W        W26663   1.886  30.071   4.729
67568W        W26664  18.162  35.864   0.836
67569W        W26665   9.298  21.040   0.821
67570W        W26666   6.734  42.982   2.672
67571W        W26667  39.040   0.286   1.874
67572W        W26668  41.451  15.213   0.883
67573W        W26669  32.416  11.308   1.837
67574W        W26670  29.485  27.544   2.383
67575W        W26671  29.989   0.276   3.680
67576W        W26672   8.793  22.704  11.961
67577W        W26673   7.704   5.876   1.300
67578W        W26674  42.813  35.887  13.504
67579W        W26675   1.477  31.422   2.771
67580W        W26676  33.951  42.814  13.039
67581W        W26677  18.775  24.642   1.930
67582W        W26678   6.369  29.012  14.301
67583W        W26679  19.223  28.118   4.635
67584W        W26680  13.796  32.962   0.357
67585W        W26681  43.346  19.670   0.415
67586W        W26682  31.015  14.746  10.571
67587W        W26683  38.985  24.220  14.432
67588W        W26684   6.801  44.775   2.855
67589W        W26685  23.038  18.244   2.771
67590W        W26686  10.193  17.625   2.214
67591W        W26687  38.511   4.709  12.515
67592W        W26688  16.186  36.530  11.951
67593W        W26689   3.710  31.482   1.404
67594W        W26690  18.145  34.549  10.487
67595W        W26691  25.147  41.296   4.177
67596W        W26692  42.990  34.484   3.190
67597W        W26693  27.016   6.818  14.970
67598W        W26694  44.931  19.117  13.407
67599W        W26695  18.157  18.554  12.056
67600W        W26696  41.835  14.127  12.910
67601W        W26697  23.667  22.065   3.630
67602W        W26698   3.913  26.568  12.535
67603W        W26699   4.768   6.807  11.963
67604W        W26700  25.215  11.131  11.066
67605W        W26701  16.137  24.594   1.888
67606W        W26702  29.471   6.873  14.484
67607W        W26703  11.727  20.163  13.432
67608W        W26704  22.061  36.991   3.233
67609W        W26705  17.091  40.008  13.009
67610W        W26706  19.618  25.105  14.762
67611W        W26707   2.254  19.767  12.960
67612W        W26708  21.579  36.031   1.926
67613W        W26709  10.260  17.715  11.972
67614W        W26710  22.189  29.957  10.900
67615W        W26711  40.380  29.033  11.516
67616W        W26712   7.205   4.409   3.207
67617W        W26713  22.008   4.705   4.776
67618W        W26714  18.262  43.920   4.648
67619W        W26715  29.055   6.394   4.739
67620W        W26716  18.197  14.786   1.370
67621W        W26717   2.835   8.667  12.932
67622W        W26718  12.839  41.815   0.425
67623W        W26719  39.955  23.560   3.707
67624W        W26720  34.594  44.775   1.712
67625W        W26721  19.229  37.951   1.363
67626W        W26722  18.675   3.345  13.529
67627W        W26723  36.879  34.893  10.461
67628W        W26724   4.235   5.269  11.880
67629W        W26725  19.053  43.456   0.819
67630W        W26726   0.447  13.785   4.769
67631W        W26727  26.160  41.798  11.041
67632W        W26728  35.568  37.358  13.035
67633W        W26729  19.184  26.465   3.276
67634W        W26730  34.046  27.963  13.821
67635W        W26731  17.128  12.757   5.233
67636W        W26732  44.477  26.143   0.351
67637W        W26733  16.793   6.855   2.308
67638W        W26734  21.042  42.415  13.541
67639W        W26735  27.150  23.061   4.723
67640W        W26736  19.250  33.603   3.275
67641W        W26737  32.569  13.698   0.273
67642W        W26738  33.118   9.276  13.989
67643W        W26739  17.199  31.943   1.807
67644W        W26740  18.550  28.057   4.117
67645W        W26741   7.686  23.715  14.394
67646W        W26742  17.252  26.621   4.223
67647W        W26743  20.643  43.277  10.977
67648W        W26744   1.316   8.275   1.218
67649W        W26745  12.231  20.087   4.705
67650W        W26746  21.164  30.586   2.188
67651W        W26747  37.908   7.381   2.383
67652W        W26748   6.369  24.642  14.411
67653W        W26749  22.113  38.473   2.251
67654W        W26750  39.469   6.199   2.218
67655W        W26751  24.501  30.959  12.560
67656W        W26752  37.549   9.374  12.486
67657W        W26753  21.619  12.180  11.956
67658W        W26754   5.238   7.771  14.936
67659W        W26755  32.078  28.445   3.721
67660W        W26756  26.683  26.186   0.812
67661W        W26757  16.089  11.862  11.574
67662W        W26758  36.521  15.222  12.502
67663W        W26759  37.495  21.259  12.843
67664W        W26760  38.986  43.843   4.824
67665W        W26761  39.808   6.239  14.942
67666W        W26762  30.114  27.632  12.956
67667W        W26763  18.290  37.944   4.222
67668W        W26764  25.203   0.857   0.446
67669W        W26765  30.414  14.600  11.102
67670W        W26766   2.936  33.010   4.781
67671W        W26767  11.671  22.007   2.191
67672W        W26768  36.046  14.108  11.566
67673W        W26769  12.625  11.293   0.787
67674W        W26770   0.753  31.126  12.522
67675W        W26771   3.871  41.528   3.817
67676W        W26772   6.793   0.940   0.882
67677W        W26773  19.175  32.122  14.920
67678W        W26774  33.548   3.879   4.785
67679W        W26775  37.077  16.078   2.367
67680W        W26776  10.199  25.179   1.430
67681W        W26777  20.636  38.486  13.024
67682W        W26778  24.115  22.164   0.448
67683W        W26779  23.049  13.176  10.604
67684W        W26780  10.845  38.938  10.130
67685W        W26781   0.266  26.616  10.560
67686W        W26782  20.630  41.340   3.377
67687W        W26783  31.408  42.519   3.631
67688W        W26784  25.593  15.700   3.312
67689W        W26785  13.277  17.761   1.869
67690W        W26786  35.527  14.640  12.894
67691W        W26787  28.526  35.582  14.395
67692W        W26788   6.187  35.052   1.724
67693W        W26789  28.930  37.018   1.741
67694W        W26790   7.875   4.838   0.341
67695W        W26791  12.321   8.334  10.448
67696W        W26792  36.888  23.718   2.667
67697W        W26793  23.584  43.430   2.374
67698W        W26794  17.303  32.585   1.301
67699W        W26795  34.538  28.121   4.158
67700W        W26796  12.670  33.070   4.737
67701W        W26797  40.045   1.832  14.303
67702W        W26798  21.077  10.325  13.835
67703W        W26799  17.189  20.191   3.150
67704W        W26800  13.280  38.897  13.792
67705W        W26801  37.342  38.003   3.369
67706W        W26802  33.421  22.705   3.281
67707W        W26803  11.138  14.306   4.135
67708W        W26804  29.617  42.379   2.389
67709W        W26805  31.539  12.273   1.302
67710W        W26806   9.856  27.543  13.452
67711W        W26807  23.224  16.745   2.858
67712W        W26808  15.747  11.341   4.224
67713W        W26809  23.141   7.393  13.919
67714W        W26810  14.208  21.615  12.435
67715W        W26811  29.065  12.298   1.396
67716W        W26812   0.364   3.281   4.173
67717W        W26813  10.785   8.299  13.466
67718W        W26814  16.202  29.055   0.291
67719W        W26815  16.279  26.504  14.879
67720W        W26816  19.696  19.627   2.871
67721W        W26817  18.133   0.257  11.556
67722W        W26818  29.141  27.446  14.811
67723W        W26819  27.964  20.263   4.683
67724W        W26820  28.580  21.036   9.928
67725W        W26821  17.189  20.602  10.637
67726W        W26822  22.079  38.549   3.226
67727W        W26823  32.482  32.403  14.998
67728W        W26824   8.765  21.651   2.772
67729W        W26825  38.026   7.237   4.286
67730W        W26826  43.904  23.129  11.914
67731W        W26827  27.004   7.217  13.947
67732W        W26828   5.259  38.991  13.501
67733W        W26829  41.450  27.131   3.646
67734W        W26830  15.578  44.445  12.567
67735W        W26831  41.307   4.372  13.382
67736W        W26832  30.015  37.437   2.271
67737W        W26833  15.671  25.696   1.750
67738W        W26834  26.528  25.474  12.935
67739W        W26835  18.076  38.071   0.809
67740W        W26836  43.810  34.472  13.402
67741W        W26837   5.385  37.880   4.703
67742W        W26838   1.413  33.382   1.415
67743W        W26839  25.010  42.474   3.652
67744W        W26840   1.345   8.832   0.429
67745W        W26841  27.186  13.116   0.951
67746W        W26842  42.451   7.400   1.873
67747W        W26843  30.015  19.699   0.456
67748W        W26844  11.828  17.711   2.300
67749W        W26845   3.827  37.079  14.416
67750W        W26846  39.026  44.890   3.287
67751W        W26847  11.770  41.040  11.962
67752W        W26848  23.522  31.534  13.442
67753W        W26849  26.560  12.232   2.182
67754W        W26850  29.105  31.506  10.904
67755W        W26851   1.923  19.565  14.464
67756W        W26852  20.561  38.955  11.008
67757W        W26853  16.138   9.321   2.698
67758W        W26854  11.632  33.574   2.727
67759W        W26855  12.791  16.131  12.847
67760W        W26856  19.536  41.343   1.777
67761W        W26857   0.901  35.109   2.224
67762W        W26858  22.200   0.770   4.664
67763W        W26859  19.072  38.545  14.878
67764W        W26860  36.017  44.801  13.945
67765W        W26861  11.174  41.874   0.411
67766W        W26862   1.447  43.910   0.455
67767W        W26863  30.956  14.270   4.314
67768W        W26864   4.771  41.476  14.879
67769W        W26865  14.781   0.419   1.738
67770W        W26866  42.876  12.750   1.728
67771W        W26867   2.869   0.794   3.334
67772W        W26868  11.690  34.907   3.850
67773W        W26869  28.146   8.782  10.934
67774W        W26870   2.445   9.734   1.705
67775W        W26871  32.117   1.812   2.365
67776W        W26872  18.240  11.341  13.986
67777W        W26873  34.901  39.528   1.881
67778W        W26874   8.746   9.869  13.479
67779W        W26875  19.724  19.109  11.904
67780W        W26876  12.679   7.902  13.056
67781W        W26877  44.761  25.515   1.316
67782W        W26878  28.098  32.953   1.388
67783W        W26879  40.470  27.483   0.827
67784W        W26880  38.874  13.820  14.322
67785W        W26881  33.038  26.057   1.236
67786W        W26882  24.578  39.903  11.467
67787W        W26883  30.473  42.488  13.905
67788W        W26884  44.789  29.470  11.424
67789W        W26885  38.444   5.764  13.973
67790W        W26886  29.634  38.492   0.922
67791W        W26887  10.845  34.923  14.008
67792W        W26888  39.437  14.237   4.793
67793W        W26889  22.735  22.506  13.802
67794W        W26890  25.560  21.733   3.843
67795W        W26891  30.088  19.063  10.906
67796W        W26892   6.403   1.947   0.268
67797W        W26893  31.508  36.573  10.447
67798W        W26894  30.967  12.822  11.004
67799W        W26895  14.830  15.752   0.370
67800W        W26896  28.639  32.417   4.291
67801W        W26897  26.023  13.770  13.812
67802W        W26898   3.879  40.964   3.790
67803W        W26899   2.923  18.259   1.801
67804W        W26900   4.246  32.538   1.298
67805W        W26901  14.635  19.772  13.376
67806W        W26902  28.068   0.411   0.456
67807W        W26903   2.882  27.496   3.246
67808W        W26904  14.311  27.607   3.340
67809W        W26905  38.967  30.093  12.866
67810W        W26906  12.618  35.484   0.964
67811W        W26907  43.403  22.179   1.745
67812W        W26908   1.436  35.574  11.070
67813W        W26909   6.230  12.693   5.173
67814W        W26910  37.520  21.138   4.716
67815W        W26911  18.057   5.725   0.362
67816W        W26912   4.847  21.023   2.191
67817W        W26913   8.245  16.191   9.478
67818W        W26914   3.229  25.697  14.938
67819W        W26915   0.427  39.401   4.697
67820W        W26916  37.427  21.061   2.816
67821W        W26917  16.808  35.913   0.277
67822W        W26918   9.283  12.708  11.103
67823W        W26919  35.056  34.915  14.349
67824W        W26920  30.530  37.382   1.268
67825W        W26921  29.659   9.822  13.916
67826W        W26922  18.198  32.536   4.779
67827W        W26923   8.863  42.515  12.063
67828W        W26924  33.942   6.277   3.738
67829W        W26925   5.319  15.612   2.824
67830W        W26926  39.947  35.893  11.922
67831W        W26927  29.040  19.763   3.785
67832W        W26928  21.518  31.614  13.893
67833W        W26929  25.033  10.874   2.364
67834W        W26930  38.848   6.692   0.842
67835W        W26931  17.583   6.813   1.430
67836W        W26932  37.443  16.618  10.049
67837W        W26933  28.561  19.575  11.542
67838W        W26934  12.123   2.882   0.850
67839W        W26935  15.615  31.554   0.735
67840W        W26936   0.306  42.899  14.838
67841W        W26937  40.304  21.221  11.490
67842W        W26938  11.177  14.775  10.021
67843W        W26939  39.515  20.058  11.450
67844W        W26940  13.305  21.126  11.930
67845W        W26941  10.366  43.509  14.377
67846W        W26942  14.733  33.086  13.397
67847W        W26943  31.608  19.231   4.332
67848W        W26944  27.654   2.760   3.220
67849W        W26945  29.576  27.974  14.405
67850W        W26946  13.268  30.476  12.929
67851W        W26947  27.171  18.195  12.568
67852W        W26948  18.546  39.498   4.801
67853W        W26949  37.920  15.166  13.481
67854W        W26950  18.077  42.805   3.750
67855W        W26951  20.229  26.046  14.409
67856W        W26952   8.872  21.062   0.388
67857W        W26953  25.703  25.507   1.238
67858W        W26954  37.546  35.475  10.964
67859W        W26955  21.118  34.374   3.842
67860W        W26956  29.526  14.631  11.934
67861W        W26957   2.304  18.619  14.339
67862W        W26958  26.693  32.034  12.519
67863W        W26959   5.829   5.906  14.488
67864W        W26960  39.871  20.573  12.881
67865W        W26961  38.838   0.276   3.857
67866W        W26962  22.581   4.910   3.694
67867W        W26963  10.768   8.900   4.269
67868W        W26964   9.216  26.050  14.296
67869W        W26965   2.342  39.490  11.401
67870W        W26966  13.742  29.168  11.938
67871W        W26967  36.034  40.530  12.878
67872W        W26968  12.330   0.962   3.180
67873W        W26969  18.155  38.456   5.266
67874W        W26970   0.879  33.036   0.814
67875W        W26971  25.538   2.921  12.556
67876W        W26972  10.800   7.197   0.454
67877W        W26973  34.501  26.974   2.849
67878W        W26974  31.565  25.131  13.038
67879W        W26975   1.816   9.299   4.735
67880W        W26976  42.463  24.050  14.307
67881W        W26977  10.166  13.744   0.297
67882W        W26978  36.589  16.113  14.953
67883W        W26979  24.711  27.180   0.855
67884W        W26980  18.187  29.511   1.300
67885W        W26981  30.536  19.067  12.845
67886W        W26982  18.277   2.410  12.024
67887W        W26983  43.937  42.513   0.770
67888W        W26984  43.488  33.400  12.087
67889W        W26985  44.468  14.284   0.765
67890W        W26986   2.838   4.328  12.984
67891W        W26987  12.770  10.811   1.265
67892W        W26988  18.246  28.092   1.830
67893W        W26989  25.219  43.829  13.485
67894W        W26990   5.296   7.866   0.338
67895W        W26991  19.679  17.747  12.562
67896W        W26992  27.674   1.911   3.741
67897W        W26993   4.822  15.135  12.930
67898W        W26994  30.027  27.553   4.669
67899W        W26995  24.030  34.519   0.961
67900W        W26996  33.960  13.623   2.843
67901W        W26997   2.739  13.811   1.800
67902W        W26998  25.669   0.345   3.780
67903W        W26999  12.804  44.757  13.917
67904W        W27000  25.149  30.909   1.304
67905W        W27001  33.395   1.873   2.675
67906W        W27002  25.126  21.650  11.459
67907W        W27003  44.382  13.276   2.665
67908W        W27004  40.541  36.054   2.685
67909W        W27005   7.330  19.159  12.878
67910W        W27006  21.607  42.033  13.506
67911W        W27007  17.285  16.186   1.349
67912W        W27008   8.844  26.471  11.579
67913W        W27009  34.599  23.216  12.389
67914W        W27010  12.178  34.902  14.425
67915W        W27011   1.434   4.422  14.788
67916W        W27012  19.595  23.187  10.525
67917W        W27013  17.141  39.951  11.527
67918W        W27014  38.954  34.945  14.380
67919W        W27015   7.211  21.584   0.750
67920W        W27016  25.218  39.937   3.784
67921W        W27017  32.410   5.751   1.426
67922W        W27018  12.317   4.714  10.633
67923W        W27019  44.335  26.045   3.304
67924W        W27020   2.959  24.555  11.557
67925W        W27021  10.654  10.155  13.343
67926W        W27022   9.333  41.974   2.212
67927W        W27023  39.882  20.581  13.435
67928W        W27024  29.040  36.432   3.285
67929W        W27025  36.467  15.714  13.530
67930W        W27026  11.345  28.558  14.334
67931W        W27027  37.975  17.672  13.444
67932W        W27028  24.224   8.223  12.851
67933W        W27029  12.759   2.285   4.833
67934W        W27030  10.855  27.479  12.838
67935W        W27031  30.930   7.870  14.842
67936W        W27032  25.032  25.626  14.319
67937W        W27033  13.180  22.169  11.406
67938W        W27034   5.894  40.353   1.820
67939W        W27035  13.232  36.081   1.368
67940W        W27036   3.949  43.509  11.474
67941W        W27037   8.697  16.223   3.329
67942W        W27038  38.016  40.499  11.116
67943W        W27039  15.687  40.870   4.241
67944W        W27040  13.675  33.387  14.405
67945W        W27041   1.873  13.132  14.387
67946W        W27042  29.509  15.233  13.523
67947W        W27043   4.427   0.280  11.603
67948W        W27044  15.273  32.892   4.268
67949W        W27045   0.881  39.346   1.220
67950W        W27046  11.142  28.033  14.376
67951W        W27047  11.164  15.261   4.681
67952W        W27048  11.704  33.500  14.850
67953W        W27049  25.047  11.705  10.490
67954W        W27050  36.507  15.814  10.953
67955W        W27051  35.446  28.554   4.622
67956W        W27052  29.946  33.941  11.988
67957W        W27053   5.910  29.662   1.896
67958W        W27054  33.388  29.621   1.380
67959W        W27055  42.807  15.792   1.225
67960W        W27056  42.446  20.738   3.200
67961W        W27057  34.961  26.201   4.720
67962W        W27058   6.307  33.501   0.400
67963W        W27059  21.237  36.408   9.930
67964W        W27060   8.341   5.790   0.470
67965W        W27061  29.926  20.223  14.934
67966W        W27062  34.906   0.443   9.959
67967W        W27063  41.498  12.334  12.418
67968W        W27064  35.389   4.931   1.397
67969W        W27065  37.485  35.582   0.823
67970W        W27066  28.047  10.720  13.926
67971W        W27067  37.533  12.786   4.329
67972W        W27068   0.298  29.560   2.851
67973W        W27069  10.836   6.691   4.732
67974W        W27070  38.886  35.046  13.906
67975W        W27071  13.659  32.440   4.634
67976W        W27072  41.345  37.977   0.748
67977W        W27073  24.697  33.585   9.919
67978W        W27074   7.796  14.614   4.633
67979W        W27075  33.890  27.087  13.531
67980W        W27076   6.745  37.079  14.840
67981W        W27077  17.693   6.884  12.882
67982W        W27078   2.258   9.656   3.148
67983W        W27079  44.987  24.534   4.194
67984W        W27080   7.243  20.722  12.968
67985W        W27081   5.198   3.438   3.353
67986W        W27082  33.429  25.099  12.359
67987W        W27083  17.578   1.815  14.899
67988W        W27084  26.130  15.797  14.767
67989W        W27085  27.690  26.569  11.447
67990W        W27086  38.431   2.863  14.813
67991W        W27087   9.289   0.371   3.335
67992W        W27088  14.787  17.093  13.996
67993W        W27089  35.582   5.375   0.816
67994W        W27090  15.221  40.406   5.201
67995W        W27091  33.887  35.550  12.344
67996W        W27092  40.355   0.770  12.853
67997W        W27093  23.594  38.457  13.913
67998W        W27094  34.939  24.711   0.864
67999W        W27095  24.079  28.626  10.903
68000W        W27096  10.637  24.563  11.394
68001W        W27097  36.470  30.116  14.796
68002W        W27098  37.363   5.229  13.816
68003W        W27099  33.577   6.705  14.509
68004W        W27100  19.180  14.758   2.284
68005W        W27101  33.903  17.131  14.843
68006W        W27102   6.810  18.560  11.396
68007W        W27103  38.342  31.517  13.442
68008W        W27104  18.239  34.927  10.528
68009W        W27105  35.400  12.349  13.874
68010W        W27106  20.089  41.995   2.742
68011W        W27107  27.524  40.950   1.218
68012W        W27108   9.696  11.745   4.622
68013W        W27109  32.567  30.142  11.095
68014W        W27110  38.387  12.314   0.466
68015W        W27111   7.887  19.050   0.830
68016W        W27112  17.225  16.111   4.245
68017W        W27113  17.734  18.182   2.778
68018W        W27114  40.985  39.391   0.834
68019W        W27115   4.722  24.069   1.918
68020W        W27116  11.763  18.629  11.058
68021W        W27117  35.034  33.904   0.390
68022W        W27118  25.538  38.024  11.383
68023W        W27119  43.764  41.808   4.140
68024W        W27120  38.464  16.739  14.280
68025W        W27121   4.745  22.564  11.873
68026W        W27122   7.378  37.472  11.380
68027W        W27123  19.100  41.340  13.499
68028W        W27124  27.096  32.095   3.167
68029W        W27125   1.407  33.579  12.860
68030W        W27126  40.033  43.818   0.813
68031W        W27127  42.326  44.302   4.789
68032W        W27128  13.613  13.146  11.534
68033W        W27129  42.906  36.369   2.259
68034W        W27130  41.373  43.975   1.719
68035W        W27131   4.293  37.884  14.938
68036W        W27132  37.365  44.413   1.371
68037W        W27133  38.979  12.352   3.242
68038W        W27134  25.033  38.516  11.078
68039W        W27135  26.511  20.224  13.059
68040W        W27136   3.755  19.714   4.337
68041W        W27137   8.708  13.338   1.412
68042W        W27138  43.304  16.246  14.497
68043W        W27139  21.649  30.126   1.887
68044W        W27140  36.901   4.261  13.419
68045W        W27141  31.087   6.828   2.371
68046W        W27142  28.929  40.014  11.091
68047W        W27143   3.305  25.072  14.414
68048W        W27144   1.834   6.411  14.330
68049W        W27145  17.789   1.741   2.230
68050W        W27146   0.749  17.795   1.338
68051W        W27147   3.800   0.936   3.373
68052W        W27148  26.675  21.248   1.251
68053W        W27149  36.581   4.878  11.959
68054W        W27150   4.427   5.200   2.860
68055W        W27151  18.743  22.244   1.294
68056W        W27152  36.904   0.434  12.506
68057W        W27153  33.085   2.764  14.005
68058W        W27154  29.450   4.907  13.479
68059W        W27155  15.602   7.795  14.420
68060W        W27156  14.158  28.010   4.639
68061W        W27157   8.220   3.954   3.870
68062W        W27158  42.338  21.260  11.499
68063W        W27159  19.262  21.570   3.353
68064W        W27160   5.877  23.178   1.445
68065W        W27161  28.668  26.592   3.846
68066W        W27162   3.736   2.457   4.132
68067W        W27163  35.922  28.522  11.049
68068W        W27164  11.669   6.214  12.032
68069W        W27165  28.585  17.718  13.527
68070W        W27166  11.140   9.366   3.783
68071W        W27167   8.728  20.713   2.360
68072W        W27168  25.083  43.938   4.264
68073W        W27169   6.415  36.884  11.899
68074W        W27170  17.763   6.897  11.925
68075W        W27171  32.985   8.803   0.333
68076W        W27172  15.757  33.993   2.351
68077W        W27173   2.842  15.765  11.112
68078W        W27174  40.966   7.907   2.298
68079W        W27175  29.534  18.143  14.918
68080W        W27176   7.767   2.929   3.332
68081W        W27177  27.139  29.955  14.366
68082W        W27178  25.207  10.669   2.757
68083W        W27179  13.178  18.267  11.435
68084W        W27180  36.914  44.852  13.038
68085W        W27181  43.501   1.754  14.439
68086W        W27182   3.747  11.345  11.099
68087W        W27183  44.404  11.185   4.176
68088W        W27184  42.927  34.877  11.390
68089W        W27185  25.690  32.043   0.756
68090W        W27186  28.081   2.766  14.289
68091W        W27187  30.599  13.123  13.885
68092W        W27188  44.954  36.928   4.312
68093W        W27189  16.801  40.470   2.664
68094W        W27190  34.023  39.829  11.520
68095W        W27191  17.559  25.608  13.015
68096W        W27192  20.614   8.222   0.887
68097W        W27193  16.810  35.369  13.330
68098W        W27194  37.830  34.035   0.879
68099W        W27195  21.612  12.830   4.186
68100W        W27196  40.429  42.957   5.232
68101W        W27197  23.641  19.167  10.015
68102W        W27198  14.191  42.947   2.380
68103W        W27199  37.430  19.669   1.261
68104W        W27200  24.549  10.811  14.924
68105W        W27201  42.775  15.254  11.087
68106W        W27202   5.231   5.803   0.797
68107W        W27203  36.542   0.828  10.940
68108W        W27204  21.095  43.362  13.809
68109W        W27205  42.379  19.749  11.542
68110W        W27206   3.278  42.020  11.028
68111W        W27207  38.525  17.753  12.003
68112W        W27208   2.829  39.370   2.380
68113W        W27209  33.923  20.046  14.781
68114W        W27210  39.903  38.967  11.899
68115W        W27211  16.655  28.646   4.815
68116W        W27212  36.426   0.935  12.949
68117W        W27213  23.520  27.592   3.334
68118W        W27214  31.019  42.872   1.443
68119W        W27215   4.320   3.328  12.343
68120W        W27216  27.026  44.835   1.397
68121W        W27217  23.181  19.225   4.640
68122W        W27218  10.174   8.663   4.761
68123W        W27219  18.067   8.870   9.578
68124W        W27220  32.523   9.184  10.562
68125W        W27221  27.944  30.148  13.483
68126W        W27222  27.158  44.304  10.542
68127W        W27223  16.805   9.365  12.967
68128W        W27224  26.679  43.984   3.666
68129W        W27225  39.415   1.885   0.416
68130W        W27226  44.982  27.105   2.737
68131W        W27227  18.272  17.724   0.266
68132W        W27228   0.789   2.442  10.985
68133W        W27229   9.854  27.540   2.322
68134W        W27230  16.726   7.371   4.730
68135W        W27231  15.725  40.451   3.298
68136W        W27232  21.106  27.038   3.672
68137W        W27233  26.156  28.586  12.087
68138W        W27234  23.071  33.438   3.795
68139W        W27235  35.533  12.347  12.086
68140W        W27236  33.621  20.601   1.305
68141W        W27237  35.439  13.115   0.938
68142W        W27238  28.954  19.610   0.855
68143W        W27239  32.106  15.733  10.540
68144W        W27240  31.506  23.645  13.320
68145W        W27241  23.167  31.899  13.408
68146W        W27242  23.621  11.833  12.973
68147W        W27243  43.875  13.621   2.412
68148W        W27244  39.393  35.485  10.593
68149W        W27245  23.694   1.828  12.551
68150W        W27246  36.976   2.944  10.486
68151W        W27247  15.749  35.603  12.883
68152W        W27248  15.592  28.625  12.580
68153W        W27249  25.468  21.195  14.371
68154W        W27250  19.706  37.524  13.544
68155W        W27251  40.407  31.488   1.902
68156W        W27252  36.355   2.409   1.733
68157W        W27253  15.290  35.073   1.698
68158W        W27254   0.283  25.034  11.484
68159W        W27255   0.944   4.930  13.822
68160W        W27256   4.719  17.192  11.909
68161W        W27257  38.450   3.375   1.844
68162W        W27258  15.777  11.281  11.419
68163W        W27259  30.938  10.853   4.738
68164W        W27260  13.126  42.350  12.550
68165W        W27261  11.859  13.341   1.233
68166W        W27262  37.996  32.085  10.974
68167W        W27263  14.200  12.842  12.006
68168W        W27264  39.971  25.994   1.887
68169W        W27265  11.233  15.190   5.670
68170W        W27266  26.557   5.260   4.828
68171W        W27267  22.668  18.053  10.594
68172W        W27268  36.448  40.489  12.948
68173W        W27269  21.536  13.743   4.160
68174W        W27270  19.190  13.239  11.095
68175W        W27271   8.699  43.464  14.892
68176W        W27272  26.486  13.137  10.585
68177W        W27273  29.098  12.652  11.874
68178W        W27274  36.425   0.798   0.274
68179W        W27275   2.296   2.365   0.911
68180W        W27276   9.740  20.226  13.509
68181W        W27277  22.608  25.695  11.443
68182W        W27278  38.937  21.624   2.260
68183W        W27279  21.104   6.916  13.836
68184W        W27280   6.268  37.573  10.145
68185W        W27281  22.568   7.857  10.934
68186W        W27282  12.727  37.535   0.840
68187W        W27283  29.601   1.750  12.885
68188W        W27284   8.702  36.000   4.284
68189W        W27285  31.086   2.964  12.985
68190W        W27286  19.777  29.466  12.824
68191W        W27287  25.693  28.943  12.930
68192W        W27288  28.068   0.270  11.054
68193W        W27289   9.223  11.720  10.943
68194W        W27290  20.559  18.295  12.971
68195W        W27291  17.134  41.866  11.957
68196W        W27292  36.556  10.859   2.327
68197W        W27293  15.202  39.410   1.914
68198W        W27294  44.817   6.237   3.226
68199W        W27295  17.601  23.729   0.748
68200W        W27296  29.951   2.389   2.834
68201W        W27297  16.223   9.245  10.642
68202W        W27298  36.099   4.248   2.858
68203W        W27299   1.258  30.421  12.892
68204W        W27300   8.764  36.088  12.929
68205W        W27301  32.993   1.840  11.057
68206W        W27302   8.194  12.280  14.793
68207W        W27303  43.885  22.607  10.929
68208W        W27304  31.936  20.265  13.837
68209W        W27305  40.549   2.227  11.408
68210W        W27306  40.880  25.061  10.927
68211W        W27307  26.547   4.883   4.785
68212W        W27308  35.491  30.050   2.347
68213W        W27309  32.117  40.817   3.344
68214W        W27310  17.677  41.866   2.357
68215W        W27311  14.217  31.473   2.853
68216W        W27312   9.667  10.351  11.115
68217W        W27313  13.806  34.513  10.418
68218W        W27314  23.735  32.925  12.056
68219W        W27315  44.392  29.600  13.045
68220W        W27316  22.243  18.294  14.975
68221W        W27317  20.686  14.624  11.116
68222W        W27318  30.067  43.469  11.548
68223W        W27319  10.327  20.683  14.806
68224W        W27320   2.792  15.800   0.776
68225W        W27321  13.341  32.531  14.364
68226W        W27322  42.370  29.569  11.033
68227W        W27323   3.715  20.230  12.486
68228W        W27324  37.081  14.740   0.305
68229W        W27325  28.077   8.845  13.952
68230W        W27326  11.210  12.780  11.997
68231W        W27327   2.299  37.436  14.453
68232W        W27328  44.818   0.875  10.521
68233W        W27329  25.604  22.700  11.550
68234W        W27330  34.536  38.343   0.322
68235W        W27331  24.158  28.131  12.472
68236W        W27332  30.551   0.271  12.419
68237W        W27333  30.619   3.255  13.925
68238W        W27334  44.803  37.565   4.220
68239W        W27335  14.710  25.529  12.510
68240W        W27336  13.763   8.192   1.810
68241W        W27337  25.553  25.180   3.206
68242W        W27338   9.197  26.576   1.879
68243W        W27339  30.008  28.469   1.325
68244W        W27340  40.307   8.657  12.854
68245W        W27341   6.705  22.647  14.460
68246W        W27342  29.068  39.371   1.743
68247W        W27343   4.381   3.745  12.918
68248W        W27344  24.546  40.817  12.824
68249W        W27345  24.990  34.546   1.362
68250W        W27346  24.211  23.985   0.415
68251W        W27347  17.203   7.733  14.325
68252W        W27348  23.218  43.498  14.784
68253W        W27349  23.236  27.059  10.440
68254W        W27350   2.305  15.313  11.604
68255W        W27351  10.223  40.045  10.055
68256W        W27352  27.504  37.580  14.830
68257W        W27353  37.078   2.301  10.518
68258W        W27354  16.305  33.963  11.373
68259W        W27355  31.509  34.434  12.549
68260W        W27356  11.625  14.264   0.267
68261W        W27357  29.499  43.333  12.959
68262W        W27358  35.393  30.111   4.834
68263W        W27359   2.244  42.877  12.451
68264W        W27360  35.010  42.951  14.322
68265W        W27361  22.747  16.740  11.028
68266W        W27362   2.384  44.501  14.350
68267W        W27363   9.787   0.787  12.530
68268W        W27364   9.740  29.658  11.938
68269W        W27365  25.145  30.993  13.840
68270W        W27366   1.450   8.379   0.262
68271W        W27367   9.275  26.019  10.621
68272W        W27368  44.991   8.213  13.792
68273W        W27369  22.012  35.063  12.436
68274W        W27370  28.141   0.490  13.023
68275W        W27371  23.062  39.355  11.905
68276W        W27372  25.022  17.768   1.219
68277W        W27373  26.154  33.553   9.549
68278W        W27374  37.997   5.245   2.757
68279W        W27375  27.104   2.931   2.674
68280W        W27376  38.826  11.362   5.090
68281W        W27377   8.720   0.975  12.384
68282W        W27378  31.431  38.499   1.762
68283W        W27379   8.740  30.465  11.489
68284W        W27380  12.746   6.390   3.780
68285W        W27381   0.388   9.822  12.885
68286W        W27382   8.245   2.770  10.624
68287W        W27383  26.006  43.909  11.935
68288W        W27384  31.622  24.067  12.371
68289W        W27385  43.861  30.958  11.067
68290W        W27386  15.148   8.306  11.392
68291W        W27387  39.396  38.365  10.644
68292W        W27388  20.157  35.090  12.071
68293W        W27389  42.494   8.659  11.961
68294W        W27390   4.439  35.529   2.322
68295W        W27391  16.080  35.367   0.474
68296W        W27392   1.393  40.312   4.159
68297W        W27393  31.932  16.643   3.273
68298W        W27394  12.818  23.599   2.243
68299W        W27395  44.320   7.176   3.306
68300W        W27396  44.447  17.737   0.321
68301W        W27397  28.606   8.257  12.052
68302W        W27398  32.019  15.084   1.279
68303W        W27399  22.522  31.413  14.989
68304W        W27400  40.446   5.887   2.377
68305W        W27401  12.770  37.860   1.213
68306W        W27402   4.409  38.449  11.578
68307W        W27403   8.356  30.417  11.083
68308W        W27404   9.651  22.597  11.917
68309W        W27405   6.849  24.075  12.516
68310W        W27406  19.251  10.715   0.786
68311W        W27407  29.061  42.938  12.942
68312W        W27408  20.271  41.350   2.294
68313W        W27409  10.659  43.813   0.785
68314W        W27410  16.315  30.953  10.958
68315W        W27411   4.231  32.598  11.466
68316W        W27412  13.713  12.840   1.907
68317W        W27413  14.280  27.467  11.063
68318W        W27414  13.308  11.208  12.963
68319W        W27415  31.085   6.371   2.290
68320W        W27416  10.315   5.295   0.868
68321W        W27417  38.907   3.758   4.192
68322W        W27418  33.959  27.945  11.464
68323W        W27419  28.451  15.813  13.383
68324W        W27420  22.744  38.067   2.382
68325W        W27421  25.071  17.175  12.919
68326W        W27422  29.948  34.034   4.341
68327W        W27423  16.635  33.112   5.706
68328W        W27424  39.976  16.606  13.405
68329W        W27425  43.318  44.988   3.368
68330W        W27426  22.252  31.958  11.494
68331W        W27427   1.889   6.912   3.841
68332W        W27428  17.619  32.081  14.515
68333W        W27429  13.842  28.573   1.794
68334W        W27430  29.598   0.335  13.390
68335W        W27431  31.981  42.852   4.639
68336W        W27432  11.171  15.776   3.740
68337W        W27433   2.459   3.326   2.802
68338W        W27434   6.773   3.733   2.805
68339W        W27435   9.761  44.865  12.014
68340W        W27436  36.373  23.040  10.511
68341W        W27437  21.572  19.126  11.452
68342W        W27438  30.427  17.741   1.417
68343W        W27439  38.924  21.140  14.770
68344W        W27440  23.583   9.270   1.273
68345W        W27441  22.023  10.156  12.433
68346W        W27442  39.013  19.054   0.938
68347W        W27443  18.242  33.029  13.490
68348W        W27444  31.412  30.505   2.847
68349W        W27445  17.636  39.879   4.128
68350W        W27446  26.475  33.125   3.672
68351W        W27447   0.317   3.372   0.814
68352W        W27448  11.298  38.383  14.878
68353W        W27449   0.372  30.656   1.278
68354W        W27450  20.262  39.342  14.322
68355W        W27451  38.847   2.822  11.011
68356W        W27452   7.287   8.749  10.408
68357W        W27453  23.165  19.076  10.419
68358W        W27454  32.441   8.874  13.820
68359W        W27455  36.964  25.029  11.582
68360W        W27456   2.230  27.562   2.416
68361W        W27457  27.526   3.430   0.878
68362W        W27458   6.768  27.480  13.948
68363W        W27459  30.914  31.016  11.866
68364W        W27460   9.756  44.925   0.870
68365W        W27461  37.088   1.240  13.984
68366W        W27462  43.335  17.629  11.491
68367W        W27463  36.423  19.633  13.507
68368W        W27464  29.541  11.164   3.228
68369W        W27465  16.094  20.142   2.848
68370W        W27466  11.850  10.375  11.468
68371W        W27467  18.197  42.801   2.413
68372W        W27468  12.771  43.939   3.335
68373W        W27469  21.533  25.515  12.339
68374W        W27470  42.437  32.561  14.010
68375W        W27471   9.342  44.280  10.024
68376W        W27472  39.870   0.311   3.859
68377W        W27473  32.444  35.548  13.904
68378W        W27474   8.253   1.978   2.743
68379W        W27475  15.209  33.096  13.911
68380W        W27476  31.647  29.121  14.833
68381W        W27477  39.390   7.695   3.248
68382W        W27478  33.061  44.961   3.630
68383W        W27479  13.763  21.135  10.618
68384W        W27480  29.959   8.861  12.563
68385W        W27481  28.634   2.298  10.464
68386W        W27482   5.793  32.958   2.806
68387W        W27483  13.190   2.957  12.934
68388W        W27484   2.430   6.399  12.030
68389W        W27485  22.654  44.996  10.457
68390W        W27486   7.291  18.784  13.811
68391W        W27487  29.935  44.863   0.459
68392W        W27488   4.271   0.774  11.543
68393W        W27489  10.192  28.038  14.816
68394W        W27490  18.193  24.116   4.274
68395W        W27491  26.019  43.967   3.162
68396W        W27492  32.466  13.718   1.272
68397W        W27493   2.931  40.497   4.309
68398W        W27494   3.436  44.905   0.415
68399W        W27495  28.952   5.227   1.889
68400W        W27496   1.247   7.824   4.700
68401W        W27497   0.756  34.447   5.319
68402W        W27498   0.925  43.375  11.382
68403W        W27499  17.615  24.228  12.390
68404W        W27500  26.620  26.694   1.220
68405W        W27501  13.734  19.259  10.567
68406W        W27502   4.798  42.435  13.034
68407W        W27503  25.681  42.877   0.391
68408W        W27504  15.198  40.037  12.491
68409W        W27505   1.955   7.240   3.856
68410W        W27506  21.547   8.778  12.088
68411W        W27507  17.094   9.888  14.314
68412W        W27508  35.859  10.675  13.022
68413W        W27509  11.736  22.508  11.510
68414W        W27510  36.575  15.194   0.882
68415W        W27511  11.674  38.341  11.920
68416W        W27512  38.362   1.802  12.949
68417W        W27513  10.745  40.027  10.553
68418W        W27514   2.925  41.496  10.515
68419W        W27515   8.889  33.103  11.065
68420W        W27516   1.966  41.347   4.304
68421W        W27517  38.425  23.172  14.767
68422W        W27518  39.520  40.034   3.198
68423W        W27519  32.495  43.352   2.747
68424W        W27520  20.143  31.509  12.890
68425W        W27521  43.781  42.284   3.282
68426W        W27522  40.825  23.044   3.351
68427W        W27523   2.304  43.915  14.352
68428W        W27524  40.000   7.196   2.397
68429W        W27525   4.702  36.459  13.320
68430W        W27526  40.318   2.849   4.221
68431W        W27527  37.068  32.986   0.766
68432W        W27528  15.812   3.947  14.876
68433W        W27529   4.228  25.468  12.358
68434W        W27530  19.569  43.516   3.683
68435W        W27531  17.249  19.682   4.729
68436W        W27532  12.715  43.381   0.275
68437W        W27533   2.262  43.886  11.973
68438W        W27534   6.836  24.034  12.916
68439W        W27535  15.593  42.326  11.921
68440W        W27536  40.454  24.162  13.425
68441W        W27537  39.911   7.894  13.052
68442W        W27538  21.619  36.575  11.388
68443W        W27539  30.090  43.857   2.302
68444W        W27540   7.234  22.082   2.280
68445W        W27541  24.229   4.782   1.368
68446W        W27542  22.181  41.512  13.378
68447W        W27543  23.048  31.073  13.936
68448W        W27544  25.982  36.428   1.284
68449W        W27545   4.312  22.568   3.722
68450W        W27546  44.861  11.349  14.866
68451W        W27547  26.636  42.351   2.241
68452W        W27548  17.672  30.533  14.772
68453W        W27549  15.245  35.943   1.930
68454W        W27550  30.134  31.032  12.013
68455W        W27551   2.740  25.683   3.355
68456W        W27552  14.124  17.132   1.429
68457W        W27553  30.059  12.774  14.930
68458W        W27554  35.088  24.039   9.483
68459W        W27555   8.778  29.007  11.030
68460W        W27556  31.486  15.610   2.735
68461W        W27557   8.279   2.888   0.389
68462W        W27558   8.174   6.823  13.011
68463W        W27559  43.996  35.580   2.838
68464W        W27560   1.832  39.818  11.906
68465W        W27561  37.893  30.621   3.323
68466W        W27562  30.146  22.518   4.649
68467W        W27563  12.634  36.407   2.832
68468W        W27564  43.878  35.459  12.447
68469W        W27565  34.378  34.462  12.025
68470W        W27566   1.864  11.835  13.949
68471W        W27567  23.211  17.735   5.317
68472W        W27568  14.319  43.442   1.304
68473W        W27569  35.411  28.070   3.826
68474W        W27570  37.980  27.560   2.792
68475W        W27571   9.383  11.765  12.934
68476W        W27572  25.080  24.173   1.886
68477W        W27573  35.041  36.459   2.858
68478W        W27574   2.881  23.170   4.218
68479W        W27575   6.732  40.894  12.060
68480W        W27576  42.798  10.203  12.439
68481W        W27577   9.298  12.261  12.406
68482W        W27578  10.276  41.377  12.867
68483W        W27579  33.507  29.534  14.765
68484W        W27580   7.227   6.910  14.960
68485W        W27581   9.884  20.658  12.419
68486W        W27582  12.247  23.631   3.636
68487W        W27583   8.694  12.803   2.836
68488W        W27584  17.116  34.985  13.332
68489W        W27585  36.498  35.927  12.956
68490W        W27586  34.966  31.598  11.917
68491W        W27587  20.270  40.513   4.307
68492W        W27588  22.677  26.956  10.449
68493W        W27589  18.172  42.356   3.280
68494W        W27590  34.514   7.881  14.415
68495W        W27591  15.120  19.047  14.503
68496W        W27592  35.909  32.076  11.391
68497W        W27593  25.492  26.524  12.507
68498W        W27594  38.930  19.717   0.878
68499W        W27595  22.144  31.970  11.972
68500W        W27596   0.474  29.617   1.850
68501W        W27597  37.903   5.359   4.765
68502W        W27598  43.996  16.099  11.378
68503W        W27599  22.166   0.258   3.229
68504W        W27600  35.398   7.905   0.431
68505W        W27601  31.487   7.855   1.334
68506W        W27602  25.571  20.662   2.183
68507W        W27603  21.237  44.331  11.399
68508W        W27604  38.833   8.290   3.687
68509W        W27605  11.162  30.617  12.929
68510W        W27606  16.229  44.340  13.041
68511W        W27607  10.804  39.896   3.722
68512W        W27608  33.118  14.627  12.868
68513W        W27609   8.258  15.659   3.870
68514W        W27610  33.930  40.343   2.418
68515W        W27611   4.208   9.288  14.327
68516W        W27612  12.357  18.591   3.265
68517W        W27613   8.228  34.401   0.856
68518W        W27614  11.308  44.454   1.755
68519W        W27615  28.616   8.166  14.469
68520W        W27616  21.654  42.500  12.987
68521W        W27617  43.919  43.514  12.474
68522W        W27618  30.141   5.767   3.798
68523W        W27619  20.223  36.054   5.672
68524W        W27620  23.679  35.070   1.734
68525W        W27621   6.190  27.616  13.040
68526W        W27622  42.012   4.447   4.253
68527W        W27623  15.801  36.057   9.932
68528W        W27624  41.984  34.409  10.990
68529W        W27625   2.247   1.241  12.518
68530W        W27626  35.538  29.613   4.177
68531W        W27627   4.825  14.120   1.872
68532W        W27628  17.752  42.407  11.884
68533W        W27629  21.727  28.119  12.835
68534W        W27630   3.259  37.469   3.849
68535W        W27631   4.437   7.686   1.305
68536W        W27632   4.866   3.218  14.411
68537W        W27633   4.275  22.023  13.514
68538W        W27634  10.644  15.166   0.469
68539W        W27635  33.075  37.538  12.990
68540W        W27636  37.893  40.949   2.675
68541W        W27637   6.265   2.243   1.304
68542W        W27638  41.821  26.156  12.389
68543W        W27639   2.287  19.714   4.631
68544W        W27640  13.202   5.389   1.249
68545W        W27641  15.784  24.588   4.287
68546W        W27642  13.698   0.357  11.476
68547W        W27643  21.115  18.251  13.972
68548W        W27644  40.934   0.358  11.951
68549W        W27645  24.064  12.686  11.469
68550W        W27646  10.176  37.396  13.953
68551W        W27647  34.915  12.204   3.718
68552W        W27648  32.108  19.285   0.840
68553W        W27649  16.266  24.007  11.011
68554W        W27650   7.899   7.788  10.523
68555W        W27651  24.206  19.687  12.831
68556W        W27652  33.116  30.431   4.683
68557W        W27653  25.137  23.664  10.557
68558W        W27654  17.286  25.071  11.017
68559W        W27655  27.501  24.053   4.640
68560W        W27656  12.717   8.308  11.094
68561W        W27657  41.987   5.392   1.859
68562W        W27658  13.204   9.313  11.562
68563W        W27659  35.475  40.927   0.300
68564W        W27660  10.653  43.811  11.553
68565W        W27661  26.603   2.963  11.557
68566W        W27662  31.432   4.756  10.901
68567W        W27663   2.923  22.669   0.861
68568W        W27664  25.212  33.892  12.577
68569W        W27665  19.049  22.740  11.965
68570W        W27666  14.721   5.907   2.280
68571W        W27667  32.071   6.858  11.055
68572W        W27668   1.931   3.302   0.726
68573W        W27669   3.307  38.563  10.048
68574W        W27670  21.676  21.519   3.380
68575W        W27671  35.383  13.603  10.460
68576W        W27672   5.283  42.807   2.811
68577W        W27673   6.743  27.004  12.379
68578W        W27674  24.675  41.481  13.040
68579W        W27675  13.209  36.065  11.988
68580W        W27676  26.559   1.482   0.795
68581W        W27677  33.592  41.522  14.798
68582W        W27678  35.004   2.794   2.305
68583W        W27679   8.805   0.874  13.038
68584W        W27680  35.862   9.154  11.585
68585W        W27681  18.767  14.203   3.630
68586W        W27682   0.485  39.528  11.047
68587W        W27683   2.938  31.629  13.006
68588W        W27684  30.539   6.679  11.528
68589W        W27685  22.079  43.313  13.313
68590W        W27686  35.541  39.338  12.418
68591W        W27687  24.180  35.368   2.826
68592W        W27688  39.880  40.881  14.919
68593W        W27689  35.017  20.597  13.871
68594W        W27690  33.927  12.713  12.894
68595W        W27691  25.681  12.758  14.857
68596W        W27692  13.683  43.359  14.288
68597W        W27693   1.880  25.650   2.254
68598W        W27694  23.077   0.473   1.889
68599W        W27695   0.930   3.783  10.443
68600W        W27696   7.719  36.903  10.586
68601W        W27697  12.258  27.148   3.733
68602W        W27698  34.459  28.444   2.390
68603W        W27699   2.301   1.733   3.684
68604W        W27700   4.904  19.581  10.133
68605W        W27701   2.320  32.067  12.908
68606W        W27702  10.869  21.694  12.007
68607W        W27703  29.599   8.368  11.005
68608W        W27704  25.078  40.333  10.635
68609W        W27705  14.613   1.293   3.678
68610W        W27706  40.480  15.219   1.878
68611W        W27707  28.631   9.368   1.258
68612W        W27708   2.412  11.304   3.698
68613W        W27709  36.476   9.184   3.639
68614W        W27710  11.305  19.668   1.332
68615W        W27711  37.072  35.085  14.348
68616W        W27712  26.596  34.013  14.341
68617W        W27713   5.261  35.470  13.841
68618W        W27714   0.365  28.560  14.854
68619W        W27715  29.458  34.442   0.370
68620W        W27716  40.022  38.058  14.307
68621W        W27717   0.921   2.812   2.410
68622W        W27718  33.875  37.540  14.349
68623W        W27719  23.240  43.986  13.884
68624W        W27720   6.729  10.848   0.839
68625W        W27721   8.223  27.559  14.810
68626W        W27722  11.812  18.652  10.055
68627W        W27723  10.874  21.147   3.350
68628W        W27724  14.705  28.051  13.003
68629W        W27725   2.347  17.561   4.171
68630W        W27726   5.847  23.689  10.457
68631W        W27727   7.414  31.471   0.402
68632W        W27728  35.069   7.814   0.262
68633W        W27729  23.008  42.306   2.784
68634W        W27730  20.612   1.456  13.943
68635W        W27731   7.839  23.055   1.400
68636W        W27732  21.176  39.000  12.567
68637W        W27733  21.135   4.211  13.348
68638W        W27734  18.570   8.760  12.001
68639W        W27735   5.404  11.353  13.002
68640W        W27736  39.030  14.142   1.300
68641W        W27737  10.356  38.885   1.708
68642W        W27738  29.594   1.841  13.985
68643W        W27739  32.462  26.555  12.839
68644W        W27740  17.612  17.108   2.842
68645W        W27741   5.742  28.655  14.777
68646W        W27742  41.428   6.316   1.876
68647W        W27743   8.775  19.225   3.256
68648W        W27744  29.950   3.239  14.361
68649W        W27745  14.271  20.583  12.350
68650W        W27746  37.458  19.214   1.388
68651W        W27747   9.767  35.853  11.502
68652W        W27748  28.528  23.107  12.913
68653W        W27749  28.973  33.461   0.938
68654W        W27750  39.838   6.344   3.203
68655W        W27751  14.663  28.520  12.481
68656W        W27752   1.739  14.142  11.082
68657W        W27753   3.762  15.632  11.952
68658W        W27754  14.627  28.572  11.523
68659W        W27755  17.284   8.177  10.497
68660W        W27756  23.565  41.873  14.289
68661W        W27757   0.300  30.600   4.114
68662W        W27758  35.491  44.342   0.955
68663W        W27759  39.977  32.924  11.861
68664W        W27760  40.501  42.893  11.495
68665W        W27761  11.641  16.245  14.026
68666W        W27762   1.922  25.199  10.589
68667W        W27763  37.084  28.485   0.915
68668W        W27764  27.982  31.470  11.880
68669W        W27765  21.758  39.431  13.969
68670W        W27766  20.259  42.283   4.768
68671W        W27767   9.395  36.404  14.016
68672W        W27768   4.777   3.291  10.938
68673W        W27769   7.259  35.007  11.867
68674W        W27770  27.671  11.251  13.444
68675W        W27771  31.421  35.417   4.265
68676W        W27772  12.215  26.596   0.272
68677W        W27773   7.702   7.200  10.021
68678W        W27774  32.894   7.712  11.054
68679W        W27775  42.408  33.902   0.350
68680W        W27776  27.686  37.507  12.040
68681W        W27777   1.933  25.215   3.273
68682W        W27778  22.583  43.314  12.347
68683W        W27779  11.166  27.027  13.952
68684W        W27780  25.486  40.353  14.323
68685W        W27781  39.991  19.599  12.525
68686W        W27782  35.943  22.690   4.803
68687W        W27783   4.346  37.953  13.967
68688W        W27784  39.003  38.984  14.364
68689W        W27785  40.849  10.767  11.866
68690W        W27786  13.331  26.084   1.892
68691W        W27787  19.763  17.293  14.499
68692W        W27788  11.144  42.955  13.949
68693W        W27789   2.371  36.099   4.786
68694W        W27790   2.834  22.628   3.375
68695W        W27791   7.227  30.997   1.327
68696W        W27792  43.492  27.530   3.705
68697W        W27793   0.417   0.488   0.331
68698W        W27794  23.642  10.760   2.201
68699W        W27795  36.496  21.683  12.854
68700W        W27796  10.358   6.373  11.526
68701W        W27797  27.010   8.697  12.525
68702W        W27798  15.185  44.889  10.917
68703W        W27799   4.206  29.428  12.031
68704W        W27800  36.905   9.721  14.423
68705W        W27801  20.654  34.907   3.366
68706W        W27802  40.381  11.795   3.324
68707W        W27803  37.993   0.962   0.275
68708W        W27804  41.999  27.476  11.954
68709W        W27805  19.577  13.255   0.356
68710W        W27806  37.968  34.950   4.658
68711W        W27807   6.731  40.531  13.835
68712W        W27808  31.545  34.969  14.791
68713W        W27809   7.295  19.051   3.291
68714W        W27810   2.736  24.669  13.377
68715W        W27811   3.236  35.461  11.946
68716W        W27812  22.047  28.613  12.434
68717W        W27813  31.986  26.170   1.256
68718W        W27814   3.771   0.850  12.408
68719W        W27815  31.974  21.578   0.296
68720W        W27816  39.355   1.839   4.305
68721W        W27817   1.364  21.149  11.375
68722W        W27818  17.255  36.571   2.232
68723W        W27819  44.308  39.314  13.941
68724W        W27820  30.942  26.610  12.496
68725W        W27821  43.896   9.720  14.822
68726W        W27822  35.880  32.490  12.382
68727W        W27823  29.974   0.378   2.286
68728W        W27824   1.245  19.577   5.155
68729W        W27825  13.173   3.342  12.966
68730W        W27826  41.022   6.726   1.791
68731W        W27827   1.893  35.371   4.124
68732W        W27828  41.794  15.250  14.836
68733W        W27829  12.143  42.804  10.905
68734W        W27830  33.963  32.926   1.694
68735W        W27831  11.337   8.209   4.318
68736W        W27832  17.795  12.291  13.036
68737W        W27833  10.359  31.128  10.509
68738W        W27834  40.488  39.514   1.854
68739W        W27835   6.688  16.293   4.239
68740W        W27836  32.404  36.978   3.265
68741W        W27837  24.140  30.642  14.876
68742W        W27838  15.245  23.582  10.529
68743W        W27839   8.776  40.055   0.460
68744W        W27840  18.290  12.818  12.366
68745W        W27841  42.504  41.535   0.761
68746W        W27842   8.255  32.996  14.984
68747W        W27843  40.830  18.734   3.319
68748W        W27844  40.444   3.915  10.905
68749W        W27845  18.576  26.468   4.732
68750W        W27846  33.460   0.986  14.909
68751W        W27847  43.441  33.546  14.018
68752W        W27848  19.143  10.197  14.420
68753W        W27849  29.107  20.619  12.883
68754W        W27850  29.544  30.061  12.425
68755W        W27851  17.175  28.552   3.756
68756W        W27852  37.530  43.985  14.981
68757W        W27853  32.447  24.222  11.045
68758W        W27854  28.972  44.805  13.886
68759W        W27855  32.508   7.879  12.950
68760W        W27856  16.148  43.857  14.001
68761W        W27857  25.468   2.437   1.212
68762W        W27858  19.743  18.253  13.306
68763W        W27859  28.129  29.586   0.744
68764W        W27860   2.364  32.523   1.878
68765W        W27861  13.721   4.698   4.323
68766W        W27862  17.635  33.036  12.377
68767W        W27863  20.062  40.514  14.786
68768W        W27864  30.488  24.981  11.056
68769W        W27865  11.653  24.071   4.720
68770W        W27866  42.877   7.716   1.770
68771W        W27867   9.820   4.339  13.417
68772W        W27868  43.413  17.233   1.794
68773W        W27869  35.887   6.734  11.912
68774W        W27870  23.074  34.908  12.920
68775W        W27871   8.229  18.211   0.881
68776W        W27872   6.206  43.912  10.512
68777W        W27873  11.366  36.862   4.114
68778W        W27874  23.206  31.438  10.912
68779W        W27875  33.058   6.365  12.363
68780W        W27876  40.507  39.400   2.286
68781W        W27877  19.774  11.645  14.815
68782W        W27878  16.183  15.155  13.491
68783W        W27879  40.468   5.432  12.348
68784W        W27880  16.597   3.940  11.063
68785W        W27881  11.230  26.606  11.072
68786W        W27882  20.720   9.723  12.898
68787W        W27883  24.555  31.948  10.130
68788W        W27884  16.182  24.510   3.384
68789W        W27885  37.561   3.395   3.869
68790W        W27886  10.207  22.523  10.506
68791W        W27887  27.600  35.377   1.405
68792W        W27888  29.650  21.115   0.893
68793W        W27889  10.364  33.579  10.973
68794W        W27890  15.178  27.062   3.181
68795W        W27891  28.516  10.234   4.197
68796W        W27892   9.699  32.017   4.740
68797W        W27893   4.739  15.085  12.452
68798W        W27894   0.821  25.645  11.069
68799W        W27895  20.224  37.834   0.312
68800W        W27896   2.798  25.479  11.507
68801W        W27897  41.029   1.369  12.464
68802W        W27898  10.278  37.013   4.795
68803W        W27899  25.566  36.416   1.694
68804W        W27900  24.688  26.661  13.975
68805W        W27901   5.419  10.370   0.745
68806W        W27902  31.042  37.582  10.443
68807W        W27903   9.259  23.702  11.897
68808W        W27904  11.153  15.208  13.462
68809W        W27905   0.380   5.933   4.783
68810W        W27906   5.345  29.018  14.426
68811W        W27907  23.058   6.752  12.880
68812W        W27908  26.177  15.129   3.666
68813W        W27909   4.247  19.670  11.933
68814W        W27910  35.962  20.110   3.636
68815W        W27911  11.639  31.942  14.295
68816W        W27912   9.345   4.744   2.238
68817W        W27913   6.216   2.913  11.871
68818W        W27914  38.407  19.172  13.329
68819W        W27915   9.687  20.613   0.873
68820W        W27916  40.306  24.495  13.406
68821W        W27917  41.496   2.852   4.196
68822W        W27918   0.841  12.706  11.941
68823W        W27919  24.717  11.668  11.576
68824W        W27920  30.928  40.304   1.925
68825W        W27921  41.481  41.942  14.516
68826W        W27922  18.633   8.871   1.432
68827W        W27923  42.790  41.907  14.773
68828W        W27924  43.807  36.419  12.473
68829W        W27925  39.062  29.051   2.847
68830W        W27926  11.280  11.737  12.413
68831W        W27927  41.809  15.613   1.822
68832W        W27928  28.461  21.650  14.972
68833W        W27929  39.980   0.332   0.779
68834W        W27930   1.292   2.234  11.390
68835W        W27931  35.602  20.078   2.903
68836W        W27932   8.882   1.742   2.411
68837W        W27933  16.158  36.085  12.494
68838W        W27934  19.776  21.061   4.703
68839W        W27935  43.012  27.458   4.158
68840W        W27936  39.539  17.170   1.384
68841W        W27937  22.730  13.640  12.003
68842W        W27938  20.755  16.626  11.606
68843W        W27939   3.847  20.586  12.342
68844W        W27940   5.829   0.282   2.265
68845W        W27941   8.278  19.702  13.519
68846W        W27942  19.146  18.201  11.420
68847W        W27943   6.379  30.611  11.437
68848W        W27944  17.095  15.138  11.556
68849W        W27945  22.592  40.438  14.398
68850W        W27946   5.776  31.545   3.696
68851W        W27947  44.868   3.758  12.865
68852W        W27948  22.519  34.597   3.147
68853W        W27949  38.851  12.656  14.010
68854W        W27950  36.904  13.108  14.378
68855W        W27951  26.545   7.401  11.024
68856W        W27952  43.336  20.561   1.355
68857W        W27953  19.691   6.704  10.427
68858W        W27954  39.351  23.155   0.847
68859W        W27955  42.894  12.745  12.896
68860W        W27956  21.549  11.672  14.462
68861W        W27957  11.196  29.108   0.249
68862W        W27958   6.270  38.455  11.988
68863W        W27959  36.075   5.890   1.218
68864W        W27960  36.407  25.676   0.806
68865W        W27961  20.578  18.061  11.996
68866W        W27962   0.799   7.786   3.219
68867W        W27963  15.646  36.055   0.959
68868W        W27964  25.579  42.977   5.122
68869W        W27965  21.740  13.784  10.044
68870W        W27966  29.084  28.028  14.787
68871W        W27967   4.874  42.841  11.914
68872W        W27968  29.004  15.318   4.777
68873W        W27969   1.976  22.505   3.827
68874W        W27970   8.790  37.359   2.831
68875W        W27971   2.851   7.787   4.325
68876W        W27972  30.440  37.483  14.399
68877W        W27973  17.608  40.444  14.411
68878W        W27974  12.356  34.521  13.990
68879W        W27975  42.951  36.014  10.951
68880W        W27976  13.328   7.824  10.969
68881W        W27977  13.768  18.627   2.865
68882W        W27978  37.876  26.544   3.644
68883W        W27979  37.364  15.768  14.968
68884W        W27980  13.169   1.299  10.454
68885W        W27981  42.421  35.042   0.331
68886W        W27982  40.864  30.547  13.518
68887W        W27983  39.827  28.132  14.018
68888W        W27984  26.959  38.336  14.824
68889W        W27985  12.671  34.472   2.313
68890W        W27986  40.442  19.748  12.544
68891W        W27987  31.638   1.272  13.060
68892W        W27988  31.018  20.706   1.336
68893W        W27989  31.596  40.932  11.061
68894W        W27990   2.253  23.186   4.294
68895W        W27991  25.667  16.773  13.384
68896W        W27992  42.030   8.859   1.216
68897W        W27993  43.340  28.068  10.122
68898W        W27994  35.475  10.226  14.301
68899W        W27995   2.465  42.431   0.761
68900W        W27996  29.499  14.799   0.744
68901W        W27997  12.682  31.910  10.044
68902W        W27998  12.838   4.757   5.265
68903W        W27999   6.853   8.789   2.186
68904W        W28000  34.595  23.665   9.934
68905W        W28001  41.432  36.067   0.825
68906W        W28002  37.446  43.286  13.491
68907W        W28003  13.116  17.233  11.446
68908W        W28004  22.686  32.022  13.433
68909W        W28005  39.940  28.960   3.210
68910W        W28006  14.153  36.560   5.160
68911W        W28007   8.406  41.455   0.314
68912W        W28008  27.582   1.351  11.874
68913W        W28009  29.652  15.607  11.978
68914W        W28010  38.405  12.829  12.439
68915W        W28011  12.155  42.400  14.845
68916W        W28012   2.918   8.841  10.502
68917W        W28013  15.133  19.774   1.854
68918W        W28014   9.298  27.675  13.830
68919W        W28015  26.164  40.350  13.444
68920W        W28016  15.812   1.285   4.641
68921W        W28017  27.535  27.095   3.760
68922W        W28018  20.757   7.814   2.215
68923W        W28019  20.028  29.499  11.902
68924W        W28020  41.038  35.905   3.728
68925W        W28021  30.001  36.045   2.803
68926W        W28022   2.304  41.952   1.423
68927W        W28023  13.176  44.907  13.437
68928W        W28024   3.834  12.653   1.881
68929W        W28025  16.153  35.447  11.429
68930W        W28026   4.903  29.505   4.200
68931W        W28027  32.991   0.313  13.892
68932W        W28028   5.369  32.006  10.585
68933W        W28029  12.761   2.862   4.299
68934W        W28030  43.513  38.995  12.431
68935W        W28031  30.469  37.421   0.779
68936W        W28032  18.076  40.454   2.715
68937W        W28033  24.186  41.805  11.859
68938W        W28034  43.981   2.326   0.332
68939W        W28035  31.918   0.988  12.997
68940W        W28036   1.282  42.508   0.365
68941W        W28037  34.487  39.855   0.904
68942W        W28038  12.225  11.623   4.320
68943W        W28039  23.509  28.059  13.832
68944W        W28040  43.413  40.420  11.855
68945W        W28041  12.351  28.512   9.982
68946W        W28042  14.623  26.984  10.417
68947W        W28043  26.604  41.521   4.290
68948W        W28044  43.507  26.085   2.719
68949W        W28045  19.538   4.783   2.808
68950W        W28046  36.463  35.969  10.135
68951W        W28047  15.169  38.451   3.816
68952W        W28048  41.512  37.402   3.176
68953W        W28049  33.027  14.663  14.966
68954W        W28050  42.783  31.951   3.307
68955W        W28051  21.667  27.166  10.587
68956W        W28052  15.784  35.393   0.747
68957W        W28053  15.143   8.830   3.783
68958W        W28054  35.580  10.237   0.450
68959W        W28055  10.741  19.679   2.254
68960W        W28056  28.080   4.750   1.720
68961W        W28057   2.419  38.822   3.635
68962W        W28058  27.523  35.946   9.554
68963W        W28059  12.659  37.488  12.542
68964W        W28060   8.323   4.401  14.392
68965W        W28061  21.021  12.361  11.060
68966W        W28062  16.676  19.640   3.274
68967W        W28063  27.489   7.199   2.302
68968W        W28064  27.947  42.451  10.623
68969W        W28065  25.586   7.409  10.143
68970W        W28066   3.249  26.590  12.017
68971W        W28067  24.566  30.968   0.754
68972W        W28068   9.675  27.487   4.755
68973W        W28069  20.179  30.979  12.406
68974W        W28070   0.410  40.515   3.824
68975W        W28071  10.370  11.346  12.520
68976W        W28072  39.052  25.643  12.524
68977W        W28073  36.491  13.188  13.344
68978W        W28074   0.961  33.398   1.396
68979W        W28075  13.607  12.210  14.801
68980W        W28076  44.872  23.134   0.945
68981W        W28077  33.935  10.299  14.005
68982W        W28078  27.157  21.134  14.958
68983W        W28079   4.208  18.745  11.902
68984W        W28080   1.258  18.230   3.671
68985W        W28081   3.409  39.326  10.437
68986W        W28082  38.369  43.005   3.316
68987W        W28083  31.024  38.836  10.142
68988W        W28084  43.883  42.309   3.688
68989W        W28085   1.902   6.409   1.287
68990W        W28086  21.541  28.127  11.879
68991W        W28087  39.433  24.611   2.232
68992W        W28088  40.875  42.886   3.235
68993W        W28089  20.711  15.270  11.568
68994W        W28090   0.317  35.943   0.374
68995W        W28091  39.959  19.641   2.885
68996W        W28092   0.386   1.947   4.320
68997W        W28093  27.094  22.673   3.243
68998W        W28094  40.393  27.140   0.850
68999W        W28095  25.159  35.981  12.931
69000W        W28096   8.266  41.301   3.652
69001W        W28097  26.094  29.056  12.836
69002W        W28098  12.269  39.826   2.288
69003W        W28099   9.667  29.594   1.266
69004W        W28100   6.228  14.128  12.384
69005W        W28101  35.030  31.955   1.814
69006W        W28102   4.293  44.863  13.520
69007W        W28103  37.345   4.306   3.281
69008W        W28104  41.819  33.981  11.047
69009W        W28105  15.123  44.850   3.730
69010W        W28106   7.187  21.577  13.883
69011W        W28107  35.948   1.423  13.459
69012W        W28108  35.403  11.291   0.903
69013W        W28109   7.874   6.243   3.744
69014W        W28110  42.522  38.554   2.410
69015W        W28111  26.506  16.174  11.488
69016W        W28112   5.790   1.421  13.423
69017W        W28113  12.740  31.108   1.866
69018W        W28114   0.927  41.930   4.694
69019W        W28115  35.446  25.550   0.339
69020W        W28116  29.575  14.807  14.471
69021W        W28117  23.732  24.008  14.363
69022W        W28118  41.344  11.763  12.397
69023W        W28119  26.529  41.482  13.339
69024W        W28120  23.658  38.046   0.393
69025W        W28121  22.573  15.174  12.007
69026W        W28122  15.123  29.519   5.698
69027W        W28123  37.378  41.407  11.909
69028W        W28124   5.384  30.426   2.742
69029W        W28125  15.602  34.066   9.954
69030W        W28126  14.703  30.072  13.476
69031W        W28127  32.072  23.550   1.332
69032W        W28128  17.068  40.888   0.796
69033W        W28129   3.277   3.910   4.346
69034W        W28130  38.051  11.830  12.858
69035W        W28131  27.147  36.013   1.731
69036W        W28132   6.920  35.067   3.857
69037W        W28133  11.642  39.035   5.249
69038W        W28134  31.448  17.193   0.461
69039W        W28135  31.043  27.120   2.321
69040W        W28136  14.753   6.283  10.054
69041W        W28137  18.141  39.974   1.274
69042W        W28138  34.577  43.767   1.274
69043W        W28139  24.210  28.440  13.358
69044W        W28140  44.276  12.633  14.859
69045W        W28141  37.024  12.676  11.494
69046W        W28142  16.755   5.330   4.832
69047W        W28143  38.381  28.969  14.476
69048W        W28144  39.980  14.703   3.633
69049W        W28145  37.434   1.796   2.805
69050W        W28146   7.338   8.899   2.204
69051W        W28147  17.618  14.707  12.478
69052W        W28148  30.456   3.931   3.756
69053W        W28149  28.643  33.456  11.069
69054W        W28150  30.510  30.625  14.359
69055W        W28151   0.268   2.271  11.978
69056W        W28152  11.355  30.526   2.394
69057W        W28153  36.422   7.289  11.933
69058W        W28154  18.656   3.783  11.594
69059W        W28155   6.200  40.903  13.455
69060W        W28156  43.387  16.630   4.788
69061W        W28157   9.328  21.200  11.596
69062W        W28158  28.512  43.822  10.459
69063W        W28159   4.322  15.622  14.948
69064W        W28160  22.706   1.299   3.277
69065W        W28161   5.812   6.181  13.383
69066W        W28162  43.882  39.940   2.667
69067W        W28163  28.056  30.519   1.233
69068W        W28164  44.264  17.704   3.683
69069W        W28165  11.334  28.521   1.777
69070W        W28166  19.051   0.465   0.929
69071W        W28167   3.930  32.939   1.734
69072W        W28168  39.459  14.225   3.863
69073W        W28169  20.217   4.259  14.381
69074W        W28170   2.939  28.632   2.669
69075W        W28171  22.062   6.732  13.834
69076W        W28172  24.696  41.913  13.839
69077W        W28173   6.342  11.132   3.767
69078W        W28174  19.207  17.794  13.486
69079W        W28175   9.361   6.712   0.858
69080W        W28176  33.946  27.616   0.943
69081W        W28177   1.839  18.637  11.995
69082W        W28178   0.879   6.741  14.022
69083W        W28179  30.014   1.477   0.257
69084W        W28180  34.447  27.506   0.346
69085W        W28181  19.195  31.109  10.424
69086W        W28182  28.999   7.245   0.832
69087W        W28183  12.227  33.521   1.732
69088W        W28184  10.211  28.101   0.808
69089W        W28185  35.593  38.997   3.385
69090W        W28186  29.469  37.500  10.515
69091W        W28187  17.611  34.518   3.694
69092W        W28188  11.812  25.514   0.365
69093W        W28189  24.129  14.279  10.066
69094W        W28190   3.755   6.336   0.789
69095W        W28191  24.563  40.026   4.617
69096W        W28192  17.210  33.913   0.953
69097W        W28193  14.669  28.458  14.290
69098W        W28194  10.859   4.284  12.041
69099W        W28195  23.006  23.996  13.909
69100W        W28196   7.749   4.249   0.253
69101W        W28197  12.697  37.465  11.936
69102W        W28198  36.378  20.055  12.966
69103W        W28199   4.386  43.966   3.321
69104W        W28200  40.020   0.283   1.291
69105W        W28201   3.440  38.834   1.906
69106W        W28202  15.271  11.266   4.825
69107W        W28203  23.606  42.974   2.751
69108W        W28204  25.123  19.608   2.245
69109W        W28205  31.147  18.213   1.249
69110W        W28206   8.877  10.231  11.585
69111W        W28207  43.274   4.841   3.817
69112W        W28208  20.721   7.867   3.176
69113W        W28209  40.810  17.061  11.534
69114W        W28210   4.781  22.508   1.308
69115W        W28211   7.827  26.526  13.513
69116W        W28212  28.167  28.026   0.437
69117W        W28213  23.177  26.028   1.845
69118W        W28214  19.733   6.866  11.424
69119W        W28215  11.364  31.431  14.473
69120W        W28216   2.273   6.693  14.413
69121W        W28217   3.268  37.973   3.734
69122W        W28218  12.737   5.868   3.690
69123W        W28219  30.000  16.632   1.764
69124W        W28220  23.498  43.865   3.258
69125W        W28221  20.693  25.074  13.975
69126W        W28222   8.402  44.326   3.184
69127W        W28223  16.078  28.535   4.822
69128W        W28224   7.354   2.396  10.488
69129W        W28225  42.401  40.893  12.880
69130W        W28226  28.967  22.608   2.689
69131W        W28227   4.896  18.087  14.969
69132W        W28228  35.056  35.924  12.932
69133W        W28229  18.698  41.366  11.515
69134W        W28230  41.014   0.935   3.180
69135W        W28231  23.661  33.570   2.339
69136W        W28232   9.238  24.180   1.416
69137W        W28233  20.273  19.122   1.226
69138W        W28234  38.891  37.081  11.425
69139W        W28235  41.036  13.791  11.396
69140W        W28236  34.539  42.289  11.903
69141W        W28237   8.329   4.747   4.329
69142W        W28238  20.674  25.002  13.514
69143W        W28239  38.328  36.471  14.427
69144W        W28240   1.785  23.699   1.420
69145W        W28241  28.526  44.405  11.415
69146W        W28242   0.386   8.793  10.419
69147W        W28243  44.817  44.926  12.378
69148W        W28244   4.862   7.221  10.562
69149W        W28245  26.493  20.122  14.922
69150W        W28246  20.688   4.837   2.352
69151W        W28247  29.968   0.400  12.550
69152W        W28248  20.112  25.096  12.563
69153W        W28249   8.246  41.875  14.387
69154W        W28250  12.210   5.702  13.320
69155W        W28251  19.592  17.739   1.238
69156W        W28252  14.677  41.013   0.773
69157W        W28253  42.316  17.230   3.707
69158W        W28254   7.799   2.380   0.304
69159W        W28255   2.446  41.935  11.985
69160W        W28256  39.833   7.232  11.929
69161W        W28257  12.285  27.550  13.345
69162W        W28258   3.832  38.023  10.957
69163W        W28259  11.191   5.850   1.395
69164W        W28260  30.469  15.251  10.557
69165W        W28261  22.613  43.879   2.809
69166W        W28262   1.466  40.009  10.409
69167W        W28263   2.951  14.752  13.358
69168W        W28264   5.217  22.746  13.013
69169W        W28265  40.017  40.387  11.974
69170W        W28266   8.742  40.508   3.708
69171W        W28267  34.438  37.985  12.536
69172W        W28268  25.145   4.766  11.005
69173W        W28269  40.923  24.130   2.737
69174W        W28270  12.232  28.140   3.270
69175W        W28271  11.222  27.554   3.172
69176W        W28272  39.520  11.733  11.377
69177W        W28273   3.803  10.706   4.697
69178W        W28274  24.546  10.829  10.088
69179W        W28275  44.490  10.380   0.835
69180W        W28276  31.497   1.394   3.821
69181W        W28277  12.132  14.254   4.710
69182W        W28278  17.190  35.010   5.666
69183W        W28279  17.685  12.141   9.482
69184W        W28280  22.050  33.380  14.851
69185W        W28281  35.417   6.274   4.694
69186W        W28282  42.884  16.612   1.390
69187W        W28283   3.389  37.515  11.510
69188W        W28284   6.261  37.393  11.572
69189W        W28285  20.245  42.945   4.339
69190W        W28286   6.378   8.860   1.379
69191W        W28287  22.589  13.640  12.928
69192W        W28288  29.167  27.068   3.852
69193W        W28289  41.437  44.779  13.860
69194W        W28290  35.854  10.185   3.672
69195W        W28291  41.886   3.804  10.959
69196W        W28292   1.346   5.898  12.059
69197W        W28293   9.346  25.495  13.008
69198W        W28294  28.150  12.170  14.338
69199W        W28295   7.267   3.738   0.377
69200W        W28296  17.645  13.666   2.844
69201W        W28297  27.499  43.831   3.301
69202W        W28298  41.021  11.291   1.247
69203W        W28299  21.119   3.310  14.968
69204W        W28300  15.722  25.694   4.161
69205W        W28301   0.931  40.023   2.363
69206W        W28302  24.577   1.915  12.877
69207W        W28303  15.311  28.024  11.405
69208W        W28304   4.812  39.314  12.050
69209W        W28305   4.246  33.463   3.285
69210W        W28306  39.863  44.435  13.830
69211W        W28307  38.944  23.552   0.774
69212W        W28308   5.381  17.647  13.967
69213W        W28309  19.757   0.417   1.895
69214W        W28310  25.091  23.036   4.663
69215W        W28311  10.278   3.855  11.381
69216W        W28312  21.048  20.108   2.795
69217W        W28313  21.602  13.800  12.055
69218W        W28314  33.563  14.185  11.117
69219W        W28315  13.349  11.738  14.807
69220W        W28316  36.843   0.949  13.893
69221W        W28317  34.041   8.296   4.719
69222W        W28318  12.248   6.415   4.180
69223W        W28319   9.212  42.816   4.326
69224W        W28320  22.215  30.160  14.896
69225W        W28321   4.740  11.775   1.897
69226W        W28322  18.593  17.608   1.434
69227W        W28323  23.175  10.772   3.276
69228W        W28324  27.029  23.031   0.731
69229W        W28325  33.542  43.338  14.377
69230W        W28326  40.529  44.782  12.510
69231W        W28327  40.000  39.336  10.440
69232W        W28328  39.956  24.629  12.035
69233W        W28329  15.176   9.259   1.857
69234W        W28330  25.039  42.431  11.971
69235W        W28331  36.415   6.288  11.454
69236W        W28332  11.785   7.732  14.974
69237W        W28333  35.565   3.271   2.320
69238W        W28334   7.250  35.994  14.996
69239W        W28335   5.802  40.460   3.796
69240W        W28336  29.471  43.951   0.475
69241W        W28337  32.516  18.249   0.923
69242W        W28338  28.047  42.945  14.453
69243W        W28339  24.692  32.032   2.722
69244W        W28340  27.979  11.262   3.838
69245W        W28341  10.235   9.385   0.818
69246W        W28342  22.123  23.171   2.283
69247W        W28343  35.522  18.116   3.815
69248W        W28344  27.111  19.684   1.920
69249W        W28345  34.100  32.005  13.398
69250W        W28346   3.221  33.423   5.249
69251W        W28347  21.045  25.608  12.877
69252W        W28348  43.455  11.142   4.619
69253W        W28349  34.569  23.689   4.599
69254W        W28350   2.373  27.069   2.804
69255W        W28351   7.366  19.705  12.035
69256W        W28352  28.661   9.677  13.450
69257W        W28353  33.005  35.069  10.960
69258W        W28354   5.897  24.993   3.658
69259W        W28355  35.073  14.259  13.980
69260W        W28356  10.832  21.695   1.437
69261W        W28357  22.185  39.965   1.448
69262W        W28358  39.321  20.695   2.882
69263W        W28359  12.662  10.374   3.221
69264W        W28360  28.605   0.945  14.319
69265W        W28361  31.605  17.095  10.998
69266W        W28362  40.329   7.248   0.290
69267W        W28363  18.779  29.143   3.382
69268W        W28364   1.767  34.869   4.182
69269W        W28365   3.828  11.307   4.264
69270W        W28366  43.004   0.402   4.179
69271W        W28367  41.980  23.081   1.226
69272W        W28368   4.903  41.791  12.379
69273W        W28369  33.464  22.035   1.716
69274W        W28370  10.237  15.224   2.288
69275W        W28371  21.172  23.064   0.443
69276W        W28372  30.078  12.812  12.542
69277W        W28373  22.093  28.025   0.737
69278W        W28374   6.300  26.203   4.290
69279W        W28375  32.955   8.777   2.287
69280W        W28376   5.704  18.237   1.435
69281W        W28377  33.466  10.236   0.955
69282W        W28378  41.392  20.757   2.765
69283W        W28379  34.410  30.032   2.870
69284W        W28380  29.973  42.777  14.795
69285W        W28381  33.524   6.695   1.368
69286W        W28382  31.515  28.034  14.455
69287W        W28383  40.473  16.803   0.904
69288W        W28384  20.133   5.751   5.802
69289W        W28385  32.571  16.258  14.806
69290W        W28386   7.381  15.711  14.413
69291W        W28387  16.090  16.137   0.800
69292W        W28388  40.352  30.626   4.613
69293W        W28389  35.083  20.602  11.386
69294W        W28390  26.115  13.731   2.250
69295W        W28391  30.133  18.103  12.415
69296W        W28392  25.080   7.327   3.683
69297W        W28393  25.193   0.434  11.583
69298W        W28394  17.691   9.372   3.222
69299W        W28395  37.511  12.704   0.457
69300W        W28396  15.106  30.040  10.060
69301W        W28397  44.910   0.936   1.726
69302W        W28398  39.532   3.800   1.401
69303W        W28399  27.553  19.216   2.708
69304W        W28400  20.225  37.528  12.901
69305W        W28401   1.346  12.206  12.866
69306W        W28402  33.874  15.182   3.645
69307W        W28403  42.834   5.353  12.861
69308W        W28404  39.988  41.970   2.834
69309W        W28405  33.605   1.813  14.297
69310W        W28406  27.051  16.306   3.323
69311W        W28407   3.745   9.291  14.506
69312W        W28408   7.791  39.467  12.390
69313W        W28409  30.419  41.385  12.360
69314W        W28410   9.231  25.576  13.993
69315W        W28411  17.747  39.895  13.909
69316W        W28412  22.735  18.568  10.962
69317W        W28413  41.296  41.856  13.030
69318W        W28414  34.078  15.648   0.400
69319W        W28415  38.327  34.437   2.351
69320W        W28416  16.228  15.597  13.858
69321W        W28417  42.354  37.558   4.228
69322W        W28418   0.841  27.984   3.330
69323W        W28419  27.632  24.182  12.976
69324W        W28420  44.915  29.108  12.393
69325W        W28421   8.723  15.771   1.874
69326W        W28422  12.183  19.538   5.162
69327W        W28423  23.534  40.361  11.412
69328W        W28424  32.895  12.829  12.562
69329W        W28425  14.590   0.369   4.739
69330W        W28426  16.747  35.103  11.859
69331W        W28427  17.272   9.351   5.653
69332W        W28428  33.066   0.967   1.398
69333W        W28429   8.195  15.632  13.868
69334W        W28430   2.854  14.688   3.336
69335W        W28431  42.013   4.731  13.007
69336W        W28432  40.499  10.155   4.222
69337W        W28433  12.147  37.460   4.642
69338W        W28434  33.500  39.506  10.615
69339W        W28435   9.287   3.855   4.329
69340W        W28436  39.420  19.741  10.643
69341W        W28437  21.658  41.530   4.776
69342W        W28438  44.763  43.786   2.283
69343W        W28439   4.828  44.838  12.563
69344W        W28440  13.736  31.540   0.761
69345W        W28441  16.209  13.144  11.938
69346W        W28442   6.876  14.214  10.453
69347W        W28443  31.606  34.430   4.786
69348W        W28444  44.763  22.173  12.384
69349W        W28445  41.032  43.876  14.481
69350W        W28446  28.551  41.344   4.661
69351W        W28447  44.400  16.131  10.442
69352W        W28448   0.468  23.513  12.903
69353W        W28449   9.257  24.152   2.725
69354W        W28450  11.863   2.876   1.447
69355W        W28451   5.714  11.646   2.353
69356W        W28452   5.709  28.473   2.813
69357W        W28453  44.334  43.771  11.390
69358W        W28454  32.119   1.747   1.916
69359W        W28455  43.855  42.940  11.403
69360W        W28456  16.774   4.330   2.743
69361W        W28457   6.422  35.012   3.699
69362W        W28458  37.361  34.606   4.329
69363W        W28459   0.775  20.267  12.075
69364W        W28460  17.265  43.879  10.519
69365W        W28461  25.191  29.109   4.261
69366W        W28462  21.602  44.302  11.935
69367W        W28463  41.945  19.117   3.718
69368W        W28464   6.748  11.200   1.728
69369W        W28465  12.262  14.158   3.280
69370W        W28466  33.540  26.463   2.892
69371W        W28467   2.815  12.795   0.275
69372W        W28468  43.430  23.089   0.884
69373W        W28469  36.492   5.201  11.099
69374W        W28470  38.459  14.209   0.440
69375W        W28471  21.020   3.864  14.415
69376W        W28472   4.744  39.887  11.857
69377W        W28473  33.933  19.113  12.528
69378W        W28474  29.631  19.638   1.795
69379W        W28475   8.164  43.999  14.922
69380W        W28476  21.693  35.437  11.989
69381W        W28477  20.567  22.671   0.472
69382W        W28478   2.437  36.955   1.760
69383W        W28479   8.809  30.485   3.773
69384W        W28480   5.272   1.828   0.448
69385W        W28481   1.478  35.586   1.790
69386W        W28482  15.296   0.840  12.039
69387W        W28483   5.875  11.363   0.959
69388W        W28484  40.909  30.098  11.585
69389W        W28485  30.608   2.810  10.441
69390W        W28486   1.852  12.171  12.985
69391W        W28487  33.016   5.301   2.802
69392W        W28488   6.367  20.150   3.823
69393W        W28489  32.566  14.266  12.384
69394W        W28490  36.498  14.801   1.901
69395W        W28491  39.847  22.567   3.164
69396W        W28492  37.044  19.134   1.247
69397W        W28493  23.028  24.592  12.834
69398W        W28494  17.202  11.668   4.229
69399W        W28495  11.814   0.893  12.452
69400W        W28496  20.579  11.263  14.026
69401W        W28497   4.795   3.850  12.561
69402W        W28498  15.303  12.785   2.663
69403W        W28499  12.814  16.657  12.405
69404W        W28500   0.837  35.078  14.878
69405W        W28501  40.029   5.368   2.865
69406W        W28502  42.822  16.120   2.701
69407W        W28503  37.048  17.627  10.496
69408W        W28504  44.008  35.904   2.321
69409W        W28505  31.458  25.023   0.251
69410W        W28506  26.073  34.439  14.992
69411W        W28507  38.967  24.006   2.193
69412W        W28508  36.891  15.649  11.552
69413W        W28509  37.573  38.021  12.349
69414W        W28510  27.534   1.793  12.389
69415W        W28511  12.616  33.470   3.655
69416W        W28512   8.850  30.481  10.989
69417W        W28513  12.236  25.644   0.479
69418W        W28514  34.051  10.701  12.483
69419W        W28515  22.614   9.877   3.816
69420W        W28516  32.610  30.125   0.795
69421W        W28517  35.415   3.434   3.672
69422W        W28518  34.054  33.028  10.491
69423W        W28519  30.489  12.128   2.669
69424W        W28520  38.417  16.632   2.733
69425W        W28521  26.688  21.544  14.970
69426W        W28522  23.500  37.899   3.305
69427W        W28523   0.378  20.146  13.951
69428W        W28524   3.332  17.158   2.263
69429W        W28525  35.469  28.449  10.563
69430W        W28526  19.711  44.328   4.787
69431W        W28527  19.556  44.941   2.662
69432W        W28528   8.342   2.429  11.462
69433W        W28529  31.006  32.584   1.935
69434W        W28530  12.716  22.097   1.813
69435W        W28531   8.728  34.028  13.921
69436W        W28532  13.345  36.861   0.747
69437W        W28533  21.036   8.207   3.216
69438W        W28534  44.999  19.626  12.828
69439W        W28535   4.335  36.422  11.921
69440W        W28536  35.965  36.912  14.897
69441W        W28537  30.946  31.573   0.339
69442W        W28538  14.311  34.954  12.419
69443W        W28539  35.369  35.974  14.301
69444W        W28540  25.079   3.940  14.883
69445W        W28541  21.593  40.364  11.527
69446W        W28542  28.149   7.850  12.964
69447W        W28543  30.616   6.246   3.696
69448W        W28544  40.055  27.472  11.545
69449W        W28545  44.504  19.592   0.777
69450W        W28546  31.565  38.468  14.409
69451W        W28547   8.221  19.681  10.975
69452W        W28548  11.327  37.582  10.946
69453W        W28549  29.993  25.973  12.825
69454W        W28550  25.490  41.967   1.827
69455W        W28551  42.838  41.822  12.009
69456W        W28552  34.501  39.395   1.824
69457W        W28553  18.275  22.209   2.665
69458W        W28554  23.631  25.702   0.854
69459W        W28555  25.673  36.037  12.006
69460W        W28556  28.596   3.773   1.784
69461W        W28557  21.746  42.788   1.297
69462W        W28558  20.258  13.777   2.366
69463W        W28559  13.728   8.345   3.367
69464W        W28560  18.160  22.639   3.345
69465W        W28561  32.582   6.231  14.466
69466W        W28562  35.372   9.795   0.872
69467W        W28563  35.882  12.819  10.902
69468W        W28564   9.694  18.725  14.854
69469W        W28565  42.018  37.526  12.340
69470W        W28566  42.015   9.185   2.272
69471W        W28567  34.387  21.122   5.130
69472W        W28568   3.930   4.808   2.249
69473W        W28569  42.822  11.311   1.427
69474W        W28570  42.365  43.906   0.885
69475W        W28571  30.996  41.803   2.782
69476W        W28572  39.856  18.625   0.361
69477W        W28573   3.876  10.638   1.290
69478W        W28574  42.795  30.608  12.464
69479W        W28575  14.328  27.096   1.302
69480W        W28576   0.945  23.562  11.570
69481W        W28577   5.783  27.057   4.831
69482W        W28578   2.459   3.884  10.561
69483W        W28579  11.672   8.690   3.861
69484W        W28580  27.046  15.233   2.780
69485W        W28581  26.536   2.907  13.864
69486W        W28582  22.643  28.071   2.256
69487W        W28583  44.951  12.129   0.398
69488W        W28584   4.742  36.506   0.860
69489W        W28585  39.008  24.996   1.868
69490W        W28586  39.047  31.427  14.898
69491W        W28587   8.244  43.318   1.356
69492W        W28588   0.925  38.925  12.930
69493W        W28589   4.408   7.413   1.812
69494W        W28590  44.803  18.706   3.686
69495W        W28591   5.812  29.508   4.290
69496W        W28592  41.317  12.246  14.940
69497W        W28593  19.627  30.602   1.781
69498W        W28594  18.588  33.972  14.902
69499W        W28595  37.485   9.211   5.782
69500W        W28596  10.246  20.192   1.289
69501W        W28597  12.838  13.289  12.458
69502W        W28598  21.749  42.842   0.931
69503W        W28599  16.145  24.991   2.886
69504W        W28600  16.187  25.670   1.343
69505W        W28601  35.406  33.031   3.294
69506W        W28602  17.786  15.597  14.304
69507W        W28603  21.194  10.361   1.841
69508W        W28604   8.817  34.870   5.128
69509W        W28605  43.365   3.236   0.315
69510W        W28606   8.856   2.907  12.428
69511W        W28607  24.131  18.787  14.357
69512W        W28608  20.245  41.370  14.374
69513W        W28609  11.704  21.201   1.919
69514W        W28610  41.442  41.794  11.018
69515W        W28611  19.268  31.059   1.782
69516W        W28612   7.708   4.430   0.935
69517W        W28613  27.050  10.713   2.799
69518W        W28614  16.741   2.846  12.580
69519W        W28615  12.754  37.029   1.294
69520W        W28616   3.730  25.662   0.901
69521W        W28617  42.899   7.903   0.768
69522W        W28618  37.880   3.771   0.809
69523W        W28619  30.958   8.764  11.073
69524W        W28620  20.050  12.222  11.546
69525W        W28621   8.361  44.774  13.052
69526W        W28622  27.588  34.481  12.825
69527W        W28623  17.135  20.120   4.748
69528W        W28624  31.591  40.393  10.408
69529W        W28625   9.657  25.602  11.038
69530W        W28626  26.502  26.963   4.634
69531W        W28627  36.592   4.700  13.308
69532W        W28628  31.565  14.320   3.721
69533W        W28629   5.402   7.404  11.375
69534W        W28630  30.433  37.877   2.398
69535W        W28631   7.814   0.327   2.294
69536W        W28632   4.237  12.215   2.841
69537W        W28633  31.055   3.285  12.433
69538W        W28634   8.197   5.422  12.559
69539W        W28635  30.622  42.395  12.982
69540W        W28636   7.834  40.459   4.186
69541W        W28637  26.519   9.220   3.646
69542W        W28638  20.233   4.282  13.878
69543W        W28639  25.646  36.878   1.268
69544W        W28640  33.970  36.445   0.477
69545W        W28641  38.977   3.240   4.176
69546W        W28642  40.400  38.851   4.756
69547W        W28643  33.398  15.624  14.352
69548W        W28644  33.947  21.217   0.366
69549W        W28645  43.838  10.837  14.921
69550W        W28646   0.314  39.339   1.301
69551W        W28647  29.423  43.768   0.767
69552W        W28648  10.356   1.956   0.896
69553W        W28649  33.940  34.899  12.466
69554W        W28650   4.792  35.881  14.859
69555W        W28651  16.142  32.614   2.789
69556W        W28652  42.000  17.592  13.484
69557W        W28653   2.768  16.639   3.820
69558W        W28654  37.484   2.438   1.871
69559W        W28655  36.053  24.138  12.411
69560W        W28656  17.786  27.673   2.806
69561W        W28657  18.715  36.550   2.725
69562W        W28658  42.401  38.413   4.340
69563W        W28659   7.769  35.536   1.807
69564W        W28660  21.710  33.438   4.833
69565W        W28661  30.584  12.345  14.759
69566W        W28662  15.225   5.372   0.941
69567W        W28663  36.548  23.135  13.902
69568W        W28664  20.528   8.865   9.939
69569W        W28665  22.645  20.267   9.526
69570W        W28666  41.385  30.978   0.416
69571W        W28667  25.613  25.048   4.724
69572W        W28668  19.722  26.032  12.999
69573W        W28669  12.709  15.230  12.448
69574W        W28670  27.042  22.527   1.932
69575W        W28671  24.991  21.196   2.323
69576W        W28672  14.340   2.727  14.448
69577W        W28673  26.636  19.208   3.268
69578W        W28674  16.192  26.632   3.236
69579W        W28675  21.080  16.766   0.370
69580W        W28676  20.087  25.591  14.810
69581W        W28677  21.734  17.083  10.472
69582W        W28678  12.314  19.684   2.368
69583W        W28679  12.684  35.864   4.353
69584W        W28680   6.676  31.403   2.341
69585W        W28681  18.747  21.578  14.892
69586W        W28682  25.543   3.283   4.250
69587W        W28683  40.886  32.636   4.299
69588W        W28684  33.501  11.181   3.151
69589W        W28685  23.229  17.562   2.784
69590W        W28686   9.203   7.768  13.341
69591W        W28687   0.279  16.271   3.351
69592W        W28688  38.357  24.539   3.381
69593W        W28689  25.138   6.843   0.922
69594W        W28690  17.231  12.740  10.513
69595W        W28691  32.490   4.326  11.459
69596W        W28692  36.455  18.268  12.395
69597W        W28693  27.102  42.820  12.858
69598W        W28694  31.074   8.195   1.697
69599W        W28695  34.393   6.316   3.353
69600W        W28696  25.049  27.611  13.862
69601W        W28697  39.314   4.840  10.458
69602W        W28698  40.532   8.245  10.941
69603W        W28699  36.394  42.880   1.839
69604W        W28700  39.971  17.579   2.266
69605W        W28701   6.808  13.218  14.385
69606W        W28702  41.456   3.773   3.338
69607W        W28703  31.090   6.346  13.909
69608W        W28704   4.357  32.127   5.165
69609W        W28705  14.812  11.199  10.510
69610W        W28706  16.764   5.424  12.354
69611W        W28707  20.123  26.488  10.638
69612W        W28708  23.047  35.904   1.724
69613W        W28709   0.418  39.858  14.349
69614W        W28710  13.718  36.367  10.415
69615W        W28711  17.219  13.138   4.309
69616W        W28712  29.593  20.589   0.379
69617W        W28713   7.287  13.329   5.313
69618W        W28714  12.303  16.725  11.901
69619W        W28715  27.612  44.376  13.931
69620W        W28716  39.320  28.662  14.310
69621W        W28717  38.903   5.258  14.952
69622W        W28718  21.624  28.046  14.834
69623W        W28719  41.873  31.528   2.723
69624W        W28720  42.991  36.480  11.532
69625W        W28721  27.487  21.534   3.333
69626W        W28722  13.721  24.649   4.165
69627W        W28723  44.349   2.787  13.794
69628W        W28724  30.421  10.843   1.320
69629W        W28725  28.639  35.966   1.330
69630W        W28726   3.439  13.635  14.884
69631W        W28727  17.578  40.958  14.903
69632W        W28728  18.590   0.326   1.748
69633W        W28729  27.942   9.735   1.381
69634W        W28730  28.160  32.911  11.024
69635W        W28731  11.147   1.361  12.446
69636W        W28732  27.686  41.326  10.409
69637W        W28733   1.344  41.041   3.649
69638W        W28734  30.624  30.038  13.493
69639W        W28735  42.520  15.120  12.348
69640W        W28736  32.136  32.968   3.145
69641W        W28737   9.742  18.703  11.380
69642W        W28738  42.984  21.551   4.309
69643W        W28739  42.898  26.552  13.867
69644W        W28740   2.967   5.342   3.791
69645W        W28741  44.384  33.442  14.344
69646W        W28742  38.832  25.570   3.683
69647W        W28743  23.645  43.443  12.510
69648W        W28744  43.017  40.446   4.690
69649W        W28745   1.881  35.406  11.968
69650W        W28746  11.641  28.675  12.873
69651W        W28747  30.477  24.094  11.539
69652W        W28748   6.831   3.354   2.372
69653W        W28749  13.216  29.580  11.612
69654W        W28750  19.072  36.066  10.622
69655W        W28751  33.482   4.782   2.875
69656W        W28752  23.119  15.728   1.843
69657W        W28753   0.776   6.404   3.354
69658W        W28754  31.436   5.762  11.548
69659W        W28755  42.339   9.275  14.986
69660W        W28756  41.349  42.833  10.562
69661W        W28757   4.293  26.000  13.531
69662W        W28758  36.072   8.217  11.942
69663W        W28759  20.108  40.488  10.637
69664W        W28760  21.580   1.824   4.786
69665W        W28761  30.130   3.432  11.996
69666W        W28762  42.001  16.595   3.854
69667W        W28763  18.161  33.491  14.006
69668W        W28764  33.121  39.325   1.766
69669W        W28765  21.088  36.516   2.191
69670W        W28766  22.054  21.241   2.894
69671W        W28767  40.494  26.167  12.480
69672W        W28768  37.942  13.334   2.736
69673W        W28769  29.447  20.578  12.402
69674W        W28770  32.141   0.759   0.814
69675W        W28771  40.435   0.904  11.110
69676W        W28772  35.051  11.788   1.932
69677W        W28773  28.093  17.577  13.367
69678W        W28774  36.443  27.142  13.477
69679W        W28775   8.715  16.316  11.061
69680W        W28776  30.625  38.019   1.736
69681W        W28777  11.823  22.160   4.214
69682W        W28778   2.954   7.681  12.898
69683W        W28779  21.718  37.440  13.861
69684W        W28780  32.474  13.152  12.377
69685W        W28781  11.639  11.778  10.470
69686W        W28782  39.042  34.597   2.872
69687W        W28783  38.346  10.178   0.326
69688W        W28784  44.388  19.206   1.823
69689W        W28785  25.993  40.471   3.803
69690W        W28786  14.183  36.351  11.528
69691W        W28787   5.822   2.755  12.487
69692W        W28788  21.119  24.721  12.475
69693W        W28789  34.508   8.229   3.184
69694W        W28790   3.949  43.395  13.981
69695W        W28791   5.261  18.699  11.019
69696W        W28792  16.184   4.945   0.450
69697W        W28793  39.983  29.452  13.980
69698W        W28794  31.085  37.381  14.285
69699W        W28795   7.743   8.772  13.416
69700W        W28796  15.738  26.208  10.526
69701W        W28797  36.480  39.810   0.801
69702W        W28798  26.557  42.522   4.782
69703W        W28799  30.501  18.687   2.264
69704W        W28800  41.444  29.145  11.438
69705W        W28801   2.303  28.574  13.980
69706W        W28802  12.332  22.705  14.009
69707W        W28803  12.780  25.202  11.043
69708W        W28804  22.167  30.112   0.273
69709W        W28805  41.956   6.292   5.176
69710W        W28806  21.525   6.402   1.438
69711W        W28807  32.559  20.729  10.143
69712W        W28808  35.952   0.874   0.477
69713W        W28809  21.062  35.987   2.668
69714W        W28810  10.178  14.622  14.999
69715W        W28811  43.823   5.878   2.875
69716W        W28812   4.744  25.133  14.473
69717W        W28813  43.918   0.797   4.640
69718W        W28814  33.092  36.517  11.895
69719W        W28815  42.495  10.735   0.914
69720W        W28816  15.579  10.178   4.215
69721W        W28817  23.666   3.327  10.587
69722W        W28818  34.978  12.152   2.257
69723W        W28819  21.163  24.552  13.797
69724W        W28820  23.066  14.282   4.192
69725W        W28821  24.671  30.975  13.448
69726W        W28822  29.065  37.841   3.280
69727W        W28823  44.322  23.700  10.918
69728W        W28824  35.933   8.690   0.748
69729W        W28825   4.307  27.595   1.784
69730W        W28826   2.761  10.745   1.931
69731W        W28827  14.215  34.447  11.081
69732W        W28828  44.818   5.934   3.263
69733W        W28829  13.660   9.712  10.936
69734W        W28830  10.183  15.273   0.408
69735W        W28831  34.015  37.577   0.362
69736W        W28832  24.623  27.672  14.465
69737W        W28833  19.065  29.940  11.390
69738W        W28834   8.250   0.752  12.024
69739W        W28835   1.434  35.390  13.505
69740W        W28836  18.549  43.351  11.406
69741W        W28837  43.963  13.801  10.516
69742W        W28838  43.348   7.771   1.450
69743W        W28839  40.913   8.167  10.947
69744W        W28840   7.879  42.526  10.920
69745W        W28841  28.678  17.753  11.087
69746W        W28842  40.536  38.344  12.368
69747W        W28843   4.943  12.121   1.253
69748W        W28844  44.831   3.240   4.829
69749W        W28845  44.449   4.395  10.987
69750W        W28846  29.988   1.915   4.808
69751W        W28847  29.092  24.584  14.948
69752W        W28848  35.871  35.526   0.394
69753W        W28849  17.121   6.345  13.905
69754W        W28850  25.079   7.305  10.914
69755W        W28851  44.499  41.294  13.533
69756W        W28852   4.717   1.290   3.206
69757W        W28853  40.946  28.122  11.505
69758W        W28854   2.898  19.162  12.824
69759W        W28855  29.465  37.904   1.294
69760W        W28856   3.899  12.126  14.286
69761W        W28857  17.184  11.353   2.268
69762W        W28858  34.109  33.566  10.600
69763W        W28859  43.825  12.692  13.334
69764W        W28860   9.368  15.670   5.220
69765W        W28861  12.257  14.107  12.866
69766W        W28862  13.190  11.181  12.059
69767W        W28863  26.129  18.675  11.122
69768W        W28864  28.929  37.379  13.542
69769W        W28865  15.230  12.626   4.327
69770W        W28866  31.615  42.359   4.673
69771W        W28867  10.776  20.216  10.600
69772W        W28868  10.156  34.438   1.440
69773W        W28869  14.685   6.342  11.415
69774W        W28870  23.017  30.919   4.764
69775W        W28871   2.447  30.610   2.234
69776W        W28872  41.429   9.663  13.439
69777W        W28873  40.000   1.958   1.837
69778W        W28874  13.764   7.774   1.805
69779W        W28875  24.217  18.717   5.317
69780W        W28876  16.623  41.911   3.773
69781W        W28877  28.659   3.762  12.379
69782W        W28878  16.248  11.662  13.462
69783W        W28879  37.369  29.123  14.966
69784W        W28880   9.149  16.633   1.761
69785W        W28881  27.173  29.030  13.529
69786W        W28882  15.711  23.715   4.782
69787W        W28883  34.435  20.618  12.990
69788W        W28884  16.654  12.350   3.836
69789W        W28885  29.046   6.803   0.280
69790W        W28886  32.126  22.041  14.394
69791W        W28887   2.447  29.139   2.735
69792W        W28888  26.483  25.676  11.970
69793W        W28889   6.286   6.815   0.867
69794W        W28890   7.827  15.770   3.230
69795W        W28891  23.725   7.173  10.632
69796W        W28892   6.718  13.149   0.407
69797W        W28893  10.363   2.880   2.361
69798W        W28894  28.065  40.031  13.046
69799W        W28895  20.094  20.656   1.855
69800W        W28896  40.918  11.711   1.353
69801W        W28897  14.159  18.734   3.302
69802W        W28898  31.457   1.799   0.771
69803W        W28899  36.524   6.273   0.770
69804W        W28900  37.491   3.272   5.133
69805W        W28901  40.441  34.566   2.292
69806W        W28902  19.757  25.584   0.322
69807W        W28903  14.634  30.430  14.796
69808W        W28904   8.899  26.018   0.847
69809W        W28905  19.158  24.022  14.916
69810W        W28906  25.186  32.886   2.679
69811W        W28907  20.659   6.351  14.927
69812W        W28908  25.038  22.199  13.446
69813W        W28909  22.119  16.794  10.591
69814W        W28910   8.329   8.801  12.990
69815W        W28911   3.927   5.357   2.878
69816W        W28912   2.936  32.637  14.335
69817W        W28913  29.587  44.792  14.453
69818W        W28914  16.256  13.679  14.431
69819W        W28915   8.789   0.820   0.312
69820W        W28916  23.118  37.951  14.935
69821W        W28917  25.656   9.206  11.526
69822W        W28918  34.892   9.751  13.811
69823W        W28919  31.022  35.910   2.308
69824W        W28920  15.683  32.552  13.325
69825W        W28921  42.955   9.175  13.891
69826W        W28922  44.943  12.692  10.495
69827W        W28923  11.229   0.870  13.479
69828W        W28924  21.186   0.809  14.304
69829W        W28925  39.946  35.397   4.717
69830W        W28926   7.743  34.099   3.816
69831W        W28927   4.247   4.761   2.365
69832W        W28928  14.765  12.163   0.439
69833W        W28929  33.126   4.864   4.330
69834W        W28930  22.033  19.149  11.059
69835W        W28931   9.185  26.960   3.197
69836W        W28932  22.692  40.804  12.071
69837W        W28933   8.295  36.493   4.199
69838W        W28934  31.072  29.489  10.494
69839W        W28935  36.488  28.639   3.822
69840W        W28936   4.312   2.767  13.995
69841W        W28937   0.260  34.426   2.292
69842W        W28938  20.712  26.096  11.585
69843W        W28939  18.682   2.395   2.800
69844W        W28940   6.405  26.151  11.521
69845W        W28941  36.998   8.217   1.226
69846W        W28942  17.562  32.065  14.875
69847W        W28943   2.381   7.276  14.461
69848W        W28944   9.260  29.633   2.355
69849W        W28945  23.175   2.932  12.981
69850W        W28946  16.291  41.877   0.417
69851W        W28947   8.868  25.610   0.740
69852W        W28948  14.175  42.379  14.385
69853W        W28949  40.303  41.798  10.524
69854W        W28950  37.918  19.548   4.744
69855W        W28951  43.863  14.616   2.322
69856W        W28952  18.228  13.612  13.946
69857W        W28953  14.285   8.200   4.165
69858W        W28954  19.134  38.391   1.422
69859W        W28955   1.885  25.003   2.393
69860W        W28956  14.804  15.200   5.768
69861W        W28957  30.937   3.788  14.999
69862W        W28958  31.420   6.192   3.239
69863W        W28959  35.094  28.054   3.780
69864W        W28960  34.888  10.797  12.928
69865W        W28961  18.714  35.106  11.068
69866W        W28962  40.459  33.609  14.318
69867W        W28963  39.896  28.935  13.330
69868W        W28964  38.361  38.864  11.519
69869W        W28965  17.595  19.244   3.363
69870W        W28966  12.171  34.044  14.798
69871W        W28967  37.558  20.242   0.439
69872W        W28968  39.974   9.205  11.096
69873W        W28969  38.452  28.121  11.457
69874W        W28970  31.911  16.237  14.868
69875W        W28971  25.594  14.711   1.304
69876W        W28972   4.772   5.760   2.287
69877W        W28973  27.557   6.826   1.223
69878W        W28974   6.219  19.700   5.103
69879W        W28975  17.769  10.182   1.751
69880W        W28976  21.183  30.548   4.318
69881W        W28977  26.635  43.995  14.814
69882W        W28978  25.650  37.858   3.842
69883W        W28979  14.326  22.129   2.697
69884W        W28980  10.191  23.052  11.578
69885W        W28981  34.609  13.770   4.332
69886W        W28982  42.375  38.486   3.357
69887W        W28983  15.293   2.287  10.425
69888W        W28984  41.834  37.054  10.533
69889W        W28985  28.133  38.555  14.303
69890W        W28986   0.768   0.391  13.334
69891W        W28987  13.832  18.670  13.402
69892W        W28988  22.217  28.668  14.022
69893W        W28989  18.767  32.461  11.924
69894W        W28990  14.323  13.702  11.381
69895W        W28991  37.535  43.485   2.778
69896W        W28992  10.683  18.122   3.210
69897W        W28993  21.114  40.922  14.319
69898W        W28994  30.050  14.589   4.779
69899W        W28995   4.777  33.992   0.385
69900W        W28996  25.675  40.477  13.450
69901W        W28997   9.200  37.049  14.808
69902W        W28998   2.318  37.338   3.761
69903W        W28999   4.852   3.794   2.722
69904W        W29000  25.053  23.998   3.203
69905W        W29001  13.252  38.942   4.713
69906W        W29002  15.697  26.479   2.359
69907W        W29003  23.197   6.768  10.943
69908W        W29004   3.780  42.336  10.897
69909W        W29005  31.096  22.519   2.217
69910W        W29006  38.518  15.130  10.590
69911W        W29007   3.309   5.345   1.350
69912W        W29008   2.796  43.973  13.974
69913W        W29009  42.436  44.924   1.922
69914W        W29010  13.647   8.878  10.403
69915W        W29011  39.019  40.853   0.259
69916W        W29012   2.263  19.074  11.916
69917W        W29013  26.125  17.282   2.204
69918W        W29014  40.884  14.137   3.285
69919W        W29015  12.755  35.486  10.514
69920W        W29016  22.518  41.374   9.945
69921W        W29017  43.895  19.658   0.321
69922W        W29018  23.080  31.035   1.326
69923W        W29019  39.019  42.371  12.564
69924W        W29020  13.233  17.197   4.748
69925W        W29021  40.906  30.044  11.884
69926W        W29022  10.251  14.653   2.347
69927W        W29023  26.655  12.291  11.101
69928W        W29024  35.438  25.509  13.337
69929W        W29025  30.617  39.429  14.488
69930W        W29026  43.957  38.516   3.354
69931W        W29027  23.138  23.548  13.923
69932W        W29028  40.327   4.330  14.975
69933W        W29029  27.681  38.545   1.911
69934W        W29030  21.052  24.173   5.109
69935W        W29031  31.555  38.380  10.425
69936W        W29032  22.724  27.470  14.016
69937W        W29033  21.249  18.577  13.793
69938W        W29034   8.406   7.281   0.272
69939W        W29035  20.250  28.543   4.147
69940W        W29036  16.232  37.507   4.279
69941W        W29037  42.324  25.144   4.745
69942W        W29038  33.877   3.940  12.083
69943W        W29039  34.406  31.010  12.440
69944W        W29040   7.786  12.643  14.763
69945W        W29041  22.615  14.681  13.391
69946W        W29042  29.056  28.559  14.367
69947W        W29043   0.856  18.670   3.656
69948W        W29044  12.830  23.143   0.333
69949W        W29045   5.201   2.408   1.859
69950W        W29046  42.875  32.096   0.469
69951W        W29047  19.185  38.860   3.672
69952W        W29048  30.085  14.216  13.420
69953W        W29049   9.768  37.384   0.828
69954W        W29050   1.934   3.238   0.464
69955W        W29051  39.532  31.914  12.020
69956W        W29052  26.059  16.277  12.435
69957W        W29053  35.890   2.875   1.297
69958W        W29054  16.254  38.925   3.165
69959W        W29055  11.843  19.179   1.830
69960W        W29056  41.023  41.822   3.787
69961W        W29057  43.950   1.948  13.023
69962W        W29058  28.587  16.190   4.624
69963W        W29059  25.551  20.747  12.841
69964W        W29060   8.232  10.382  11.585
69965W        W29061  33.926   6.882  13.876
69966W        W29062  33.004  43.332  14.285
69967W        W29063  30.927  30.073  13.893
69968W        W29064  26.544  39.967   0.305
69969W        W29065   1.822   3.301  11.100
69970W        W29066  33.943  22.525   0.325
69971W        W29067   5.385  23.025   1.921
69972W        W29068   0.361   7.722  12.091
69973W        W29069  26.089  20.685  14.990
69974W        W29070  42.902   9.384   2.199
69975W        W29071  16.170  16.105  11.076
69976W        W29072  41.332  19.679   0.781
69977W        W29073   0.825  19.083  12.092
69978W        W29074   3.272  11.751   0.748
69979W        W29075  18.237  10.305  10.448
69980W        W29076  23.100  21.113  13.910
69981W        W29077  18.742   7.795  12.973
69982W        W29078  17.125   7.299  11.565
69983W        W29079  40.998  36.977   4.829
69984W        W29080  14.698  25.127   4.741
69985W        W29081  30.128  36.483   5.724
69986W        W29082   0.312  19.713  11.926
69987W        W29083  30.974   0.439  14.886
69988W        W29084   7.843   8.362  13.381
69989W        W29085  20.564  17.196  13.393
69990W        W29086   7.353  20.543   0.468
69991W        W29087  38.363   4.250  11.405
69992W        W29088  40.327   9.690  11.440
69993W        W29089  26.080  27.493  10.938
69994W        W29090  34.476  40.009  14.505
69995W        W29091  30.642  32.569   0.729
69996W        W29092  36.973  14.281   4.315
69997W        W29093  22.530  18.280  10.936
69998W        W29094  26.693  25.982   3.640
69999W        W29095   1.300  14.154  14.878
70000W        W29096  11.737  33.035   2.358
70001W        W29097  10.776  13.834   0.818
70002W        W29098  41.477   1.281  13.327
70003W        W29099   9.759  10.807  10.971
70004W        W29100   4.882   3.779  12.939
70005W        W29101   1.778  43.854  14.513
70006W        W29102  28.111  19.156   9.486
70007W        W29103   5.212  36.856   0.395
70008W        W29104  16.279  22.249  14.866
70009W        W29105  14.778  21.740  14.865
70010W        W29106  13.329  24.523   2.667
70011W        W29107  40.371  43.974  10.553
70012W        W29108  22.546  29.443   3.823
70013W        W29109  11.255   1.371   2.764
70014W        W29110  41.998  39.390   4.659
70015W        W29111  25.193  16.243  14.514
70016W        W29112  24.173  17.723   1.393
70017W        W29113  27.063  16.606  10.464
70018W        W29114  40.974  28.586   4.237
70019W        W29115  37.974  36.500  13.832
70020W        W29116   6.360  44.818  13.943
70021W        W29117  22.193  12.263   1.393
70022W        W29118  38.447  18.141   2.889
70023W        W29119  28.159  29.990   1.767
70024W        W29120   3.358   6.742   4.792
70025W        W29121  43.007  26.486   4.259
70026W        W29122  23.049  31.564   1.900
70027W        W29123  14.739  14.823   3.278
70028W        W29124  33.993  19.200   4.805
70029W        W29125  40.998   9.777  12.989
70030W        W29126  31.111   5.696   4.282
70031W        W29127  41.513  41.361   2.827
70032W        W29128  11.302  21.084   5.090
70033W        W29129   2.258  13.290   4.774
70034W        W29130   0.766  38.052   2.237
70035W        W29131  26.006  10.263   2.815
70036W        W29132  44.755   7.847  14.939
70037W        W29133  34.914  14.610  13.038
70038W        W29134  38.002   1.367  11.977
70039W        W29135  27.134  25.118  13.795
70040W        W29136  44.497  31.477  13.925
70041W        W29137  32.599   6.778  10.981
70042W        W29138  29.065  37.406   2.772
70043W        W29139  41.429  18.569  13.337
70044W        W29140  13.142  21.560  11.053
70045W        W29141   3.933   9.234  11.546
70046W        W29142  28.009  27.192   9.991
70047W        W29143   3.749  43.354   0.329
70048W        W29144   3.333  19.039  12.865
70049W        W29145  33.051  11.668   3.331
70050W        W29146   5.774  13.327   0.889
70051W        W29147  17.275  37.981  11.871
70052W        W29148  40.313  44.390   1.330
70053W        W29149  18.664   3.734   3.640
70054W        W29150  12.180   4.873   2.899
70055W        W29151  22.507   2.447   2.367
70056W        W29152  33.934   1.970  13.321
70057W        W29153   2.424  22.140   2.264
70058W        W29154   7.689  42.394   1.268
70059W        W29155  27.988  25.701  13.875
70060W        W29156  31.564  44.865  14.339
70061W        W29157  36.073  33.098  14.429
70062W        W29158  32.617  41.319  11.411
70063W        W29159   9.851  42.881   3.726
70064W        W29160  23.128  19.722   2.296
70065W        W29161  15.791   7.729  12.829
70066W        W29162  39.006  43.309   4.259
70067W        W29163  41.888  12.666   3.692
70068W        W29164  25.483  23.594  14.876
70069W        W29165   8.313  25.986  11.394
70070W        W29166   6.788  20.177  14.022
70071W        W29167  27.572  35.034   2.230
70072W        W29168  14.277  34.940   2.260
70073W        W29169   8.277  24.574   9.535
70074W        W29170  16.762  44.416   2.348
70075W        W29171  38.019  25.125  12.004
70076W        W29172  19.132  32.058  13.953
70077W        W29173   8.795  38.942  10.901
70078W        W29174  44.787  43.469  14.347
70079W        W29175  13.802  30.140   3.645
70080W        W29176  24.599  17.765  13.002
70081W        W29177  20.136  37.048   0.800
70082W        W29178  18.226  45.000  11.089
70083W        W29179   7.175  15.763  13.504
70084W        W29180  37.358   7.782  12.984
70085W        W29181  41.842   4.739  13.414
70086W        W29182  12.787  44.400  11.056
70087W        W29183   9.388  35.104   3.825
70088W        W29184  43.892  24.050  10.918
70089W        W29185  34.106  36.920  14.808
70090W        W29186  34.062  41.345   0.962
70091W        W29187   8.703  35.538   4.659
70092W        W29188  33.578   9.810  13.515
70093W        W29189  27.576  32.535  14.431
70094W        W29190  44.999  41.418  12.022
70095W        W29191  19.558  12.123  12.564
70096W        W29192   2.898  42.962   3.847
70097W        W29193  21.144  15.302   0.258
70098W        W29194  18.565  36.565   0.925
70099W        W29195  27.990  11.858   0.375
70100W        W29196  12.752  39.550  11.053
70101W        W29197  24.634  23.529  14.774
70102W        W29198  23.583  39.959  11.542
70103W        W29199  39.455  17.694   2.304
70104W        W29200  40.903  33.581  12.012
70105W        W29201   9.198  40.827  11.053
70106W        W29202  34.412  24.683  12.988
70107W        W29203  10.690  36.544  11.097
70108W        W29204  13.793  12.799   0.465
70109W        W29205  27.513  13.234  13.033
70110W        W29206  42.507  33.967  10.913
70111W        W29207  14.674  37.011   1.324
70112W        W29208   8.893   3.286  10.905
70113W        W29209  28.596   9.862   0.846
70114W        W29210  33.402  42.031   1.873
70115W        W29211   5.907  15.781   4.715
70116W        W29212  22.512  11.622  11.084
70117W        W29213   8.773  23.577   4.247
70118W        W29214   2.243  27.942  13.002
70119W        W29215  27.063   6.256   4.720
70120W        W29216  39.439  28.152   4.624
70121W        W29217  22.519  18.719  14.378
70122W        W29218  24.589  41.489   4.763
70123W        W29219  20.665  33.989  10.563
70124W        W29220  38.034  10.773   9.988
70125W        W29221  15.772  14.150  11.387
70126W        W29222  27.479  18.565   2.368
70127W        W29223  12.634  24.695  12.374
70128W        W29224   0.960   9.338   4.338
70129W        W29225  30.584  25.517   3.700
70130W        W29226   6.421   4.907  10.112
70131W        W29227  23.727  23.525  11.528
70132W        W29228  43.444   9.841   1.837
70133W        W29229  39.524  32.605   4.792
70134W        W29230  31.978  34.572  11.964
70135W        W29231   5.760  19.185  11.915
70136W        W29232  37.937   3.227   4.619
70137W        W29233  11.330  29.095   3.295
70138W        W29234  39.941  15.788  14.460
70139W        W29235  34.883  42.440  12.082
70140W        W29236  44.792   4.813   1.253
70141W        W29237  43.838  36.482   3.715
70142W        W29238  40.958  19.641   3.379
70143W        W29239  40.863  37.519  13.793
70144W        W29240  44.446  32.966  14.425
70145W        W29241   7.758   6.384  10.054
70146W        W29242  36.066  29.952  14.839
70147W        W29243  28.167  26.061  11.069
70148W        W29244  11.738  42.837  10.044
70149W        W29245   2.913  12.810   3.376
70150W        W29246  37.509   1.790   1.771
70151W        W29247  32.397   2.317  12.862
70152W        W29248  39.346  26.962  12.502
70153W        W29249  27.041  29.955  10.527
70154W        W29250  36.388  41.337   0.753
70155W        W29251  17.628   3.913  10.609
70156W        W29252  34.481   1.857  11.474
70157W        W29253   1.338   4.227   3.316
70158W        W29254  18.160  35.087   2.207
70159W        W29255  30.909   9.759   4.194
70160W        W29256  38.335  27.023   4.183
70161W        W29257  18.276  20.240   3.379
70162W        W29258  21.041   6.908   1.227
70163W        W29259  32.028  36.404  14.498
70164W        W29260  43.796  10.151  12.371
70165W        W29261  41.468  20.619  11.568
70166W        W29262   3.289  38.003   4.126
70167W        W29263  37.915  26.515   1.432
70168W        W29264  11.727  17.639  13.062
70169W        W29265  28.161   4.910   4.213
70170W        W29266  28.636  11.802  13.519
70171W        W29267  32.100  10.759  14.387
70172W        W29268  14.221  26.069  14.934
70173W        W29269  35.553  31.591  12.496
70174W        W29270  33.456  14.746   2.248
70175W        W29271   0.477   8.687  14.370
70176W        W29272  21.652   1.736  14.509
70177W        W29273  18.747   1.282  11.977
70178W        W29274  28.598  41.469   1.696
70179W        W29275  11.137  17.089  10.480
70180W        W29276   2.411   7.200   3.212
70181W        W29277  39.482   0.836   2.686
70182W        W29278   7.862  26.459   1.800
70183W        W29279   3.403  13.315   4.727
70184W        W29280  26.648  30.519   2.674
70185W        W29281   4.733   8.802  12.574
70186W        W29282  15.685  38.922   2.874
70187W        W29283   0.968   0.861  12.925
70188W        W29284  43.301  11.369   1.250
70189W        W29285  39.972   9.862   5.758
70190W        W29286  37.547  41.324  14.860
70191W        W29287  12.208  32.439   0.764
70192W        W29288   4.350  10.281   3.174
70193W        W29289  21.251  29.100  13.381
70194W        W29290  32.637  12.772  10.606
70195W        W29291  25.598   1.814  10.127
70196W        W29292  39.449  39.495   4.607
70197W        W29293  21.227  13.217   3.326
70198W        W29294   3.279  15.731   2.826
70199W        W29295   2.326  13.322   3.261
70200W        W29296  33.509   4.442   1.760
70201W        W29297  32.012  37.071   1.247
70202W        W29298  12.742  20.214   3.816
70203W        W29299   1.876  13.793   1.272
70204W        W29300  38.845   6.843   5.314
70205W        W29301  22.085   2.794  14.984
70206W        W29302   4.936  44.809   0.333
70207W        W29303  40.867  26.484   0.277
70208W        W29304  35.386  37.026   3.255
70209W        W29305  10.819  31.640  10.481
70210W        W29306  44.761  25.599   3.694
70211W        W29307  30.160  43.820   4.622
70212W        W29308   8.238  14.752   0.789
70213W        W29309  36.473  14.660   3.342
70214W        W29310   8.689  19.059  10.501
70215W        W29311  23.986  23.656  11.075
70216W        W29312   8.737  23.034   2.768
70217W        W29313  16.721  31.485  13.847
70218W        W29314   7.319  44.910   3.320
70219W        W29315  32.094  40.394   4.619
70220W        W29316   3.460  31.914  14.946
70221W        W29317  41.331   4.241   3.250
70222W        W29318  21.651  23.561   0.324
70223W        W29319  35.490  26.124   0.479
70224W        W29320  33.058  22.720   1.223
70225W        W29321  42.297  21.589  11.588
70226W        W29322   6.699   7.255   0.820
70227W        W29323   3.390  44.487   5.261
70228W        W29324  18.227  35.364  10.492
70229W        W29325  38.381   5.771  14.280
70230W        W29326  22.155  28.470   4.810
70231W        W29327   1.841  28.053  10.613
70232W        W29328  42.367  31.952   2.385
70233W        W29329  30.107   8.852  14.999
70234W        W29330  37.520  16.074   4.690
70235W        W29331  18.546  39.811  12.852
70236W        W29332  24.480  33.069   0.803
70237W        W29333   6.193  34.508  11.416
70238W        W29334  19.730   7.672  10.593
70239W        W29335  22.173  19.609   5.665
70240W        W29336  17.272   7.252  11.973
70241W        W29337  41.989  32.093  11.430
70242W        W29338  21.659  18.143   4.665
70243W        W29339  32.052  13.111  10.486
70244W        W29340  23.106  36.491   2.390
70245W        W29341   0.892  37.500   4.764
70246W        W29342  36.943  12.195   3.762
70247W        W29343  38.069  16.579  11.127
70248W        W29344  24.022  12.837  10.981
70249W        W29345  16.148  42.878   3.812
70250W        W29346   2.393   5.354   3.223
70251W        W29347  35.594  24.695   3.178
70252W        W29348  17.075  25.038  13.983
70253W        W29349  24.484  35.415  14.991
70254W        W29350  23.063  43.835  13.537
70255W        W29351  40.845  20.646   2.709
70256W        W29352  44.925   7.391   1.804
70257W        W29353   0.289  37.934   4.715
70258W        W29354   1.243  15.813  11.007
70259W        W29355  22.635  21.112  14.486
70260W        W29356  35.439  24.661  14.786
70261W        W29357  38.327  34.006  14.285
70262W        W29358  39.044  29.003  12.872
70263W        W29359  10.858  37.343   3.761
70264W        W29360  30.624   2.310   0.397
70265W        W29361  11.143   4.253  12.557
70266W        W29362  32.580  20.144   4.697
70267W        W29363   8.687  27.972  10.546
70268W        W29364  18.684  11.356  13.058
70269W        W29365  24.086  36.546  12.447
70270W        W29366  41.861  18.620  14.925
70271W        W29367  26.952  32.970   1.740
70272W        W29368  41.793  31.134   2.214
70273W        W29369  29.607  20.632  13.058
70274W        W29370   1.859  29.594   2.349
70275W        W29371  23.076  44.893  14.446
70276W        W29372  36.570  24.222   3.816
70277W        W29373  16.241   7.184  12.063
70278W        W29374  16.658  35.595   3.655
70279W        W29375  11.312  14.275  14.355
70280W        W29376  31.929   3.402   3.764
70281W        W29377   9.677  27.526  12.411
70282W        W29378  35.399  32.101   3.162
70283W        W29379  27.130   4.931  10.985
70284W        W29380  13.196   4.347  14.849
70285W        W29381  14.771  23.644  13.381
70286W        W29382  33.963  31.896   2.877
70287W        W29383  27.455  44.945   0.737
70288W        W29384  21.046  34.449  10.130
70289W        W29385   1.442  29.521  14.803
70290W        W29386  17.665  35.533  12.519
70291W        W29387  43.430  40.468   3.197
70292W        W29388  33.579  23.172  13.494
70293W        W29389  38.512  12.181  12.523
70294W        W29390  19.280   5.408  10.485
70295W        W29391   9.279  13.731   1.383
70296W        W29392  39.916   6.718  12.428
70297W        W29393   0.340  41.979  14.971
70298W        W29394   4.944  22.224   3.677
70299W        W29395  15.607  12.230   0.417
70300W        W29396  41.792  44.834   1.287
70301W        W29397  36.898  28.141   1.256
70302W        W29398   3.869  23.618  12.043
70303W        W29399  37.887  33.522   9.930
70304W        W29400  31.064   2.463  14.000
70305W        W29401  15.643  28.129  14.952
70306W        W29402  21.104  35.952  13.925
70307W        W29403  15.321   7.372   0.790
70308W        W29404  13.634  10.293  10.940
70309W        W29405  20.718  18.173  10.972
70310W        W29406  28.664  37.467  12.081
70311W        W29407  36.020  19.711  13.920
70312W        W29408  20.696  20.659   2.179
70313W        W29409   5.749  30.515   4.250
70314W        W29410   0.844  35.096  10.541
70315W        W29411  12.802  26.533  14.003
70316W        W29412  21.047  14.590  14.391
70317W        W29413  10.797   0.383  10.480
70318W        W29414  39.368  24.042  11.446
70319W        W29415  24.982  41.419   1.804
70320W        W29416  38.542  12.725  11.024
70321W        W29417   7.239  21.102   4.773
70322W        W29418  27.960  27.469   0.807
70323W        W29419  10.643  44.998  14.910
70324W        W29420   2.327  24.078  14.822
70325W        W29421   4.900  37.932   5.288
70326W        W29422  26.206  39.870  12.548
70327W        W29423  33.016  29.976  14.842
70328W        W29424  41.934  29.574   3.741
70329W        W29425  16.284  42.424   0.966
70330W        W29426  36.377  37.012  14.413
70331W        W29427  39.446  37.969  13.438
70332W        W29428   3.220  17.615  10.954
70333W        W29429  24.487  37.046  12.054
70334W        W29430  41.031  37.552  13.033
70335W        W29431  29.992  20.524   0.817
70336W        W29432  10.174   3.401  11.993
70337W        W29433  31.442  10.180   4.139
70338W        W29434  25.691   4.826  11.077
70339W        W29435  33.618  22.017  12.045
70340W        W29436  39.396  10.709   5.705
70341W        W29437  42.927  20.030  14.413
70342W        W29438   6.864  37.576  13.915
70343W        W29439  15.679   1.970   1.366
70344W        W29440   8.765  16.683  10.900
70345W        W29441  27.971  30.939   3.719
70346W        W29442  21.043  35.483  13.373
70347W        W29443   3.380   5.832   4.295
70348W        W29444   2.792  30.457   3.232
70349W        W29445  20.763  18.099   4.327
70350W        W29446  12.664  14.619  10.438
70351W        W29447  12.677  42.366  12.340
70352W        W29448  14.236  44.479  13.923
70353W        W29449   0.450  14.637   3.703
70354W        W29450  12.630   7.322  15.000
70355W        W29451   5.898  21.539  14.835
70356W        W29452  12.222   8.770  14.500
70357W        W29453  15.772  25.536   2.195
70358W        W29454  42.458  39.391  11.591
70359W        W29455  42.872  31.081   2.827
70360W        W29456  36.910  27.538  13.880
70361W        W29457   7.269  41.291  14.337
70362W        W29458  39.065  41.412   2.256
70363W        W29459  37.982   0.946  11.443
70364W        W29460  27.492   2.849   0.370
70365W        W29461  33.963   7.260   2.777
70366W        W29462  21.524  12.685  12.930
70367W        W29463  10.369  25.155  12.823
70368W        W29464  27.495   4.705   1.375
70369W        W29465  27.483  32.139   2.890
70370W        W29466  23.502  35.040   9.520
70371W        W29467   1.456  19.274  13.387
70372W        W29468  12.252  22.240   0.823
70373W        W29469  43.942  33.526   2.209
70374W        W29470  34.071  21.178   1.913
70375W        W29471   4.426  40.037   4.126
70376W        W29472   8.661   2.913   1.706
70377W        W29473  37.943  31.619  10.924
70378W        W29474  19.655  40.519   4.810
70379W        W29475   4.788  25.081  12.489
70380W        W29476  33.529  27.684   3.298
70381W        W29477  28.179  19.068   2.877
70382W        W29478  11.147  20.251  11.531
70383W        W29479  25.682  42.877  11.577
70384W        W29480  21.733  30.613   4.291
70385W        W29481  23.217  35.064   1.835
70386W        W29482  41.809  35.468  14.007
70387W        W29483  43.818  12.332  11.482
70388W        W29484  29.113  18.603  11.962
70389W        W29485  26.671  24.597  13.543
70390W        W29486   5.771  16.570  12.393
70391W        W29487  28.486  27.519  10.467
70392W        W29488  30.627  33.397   1.228
70393W        W29489  37.367   1.778   0.459
70394W        W29490   8.332  25.990  10.566
70395W        W29491  16.234  42.410  10.535
70396W        W29492   4.895   1.947   3.698
70397W        W29493  10.244  36.899  10.591
70398W        W29494  36.384  12.666   2.350
70399W        W29495   5.323   1.315  13.382
70400W        W29496  37.473  30.613  10.428
70401W        W29497   3.276   1.358   0.264
70402W        W29498  40.334  37.508  10.439
70403W        W29499  28.037   7.335   0.410
70404W        W29500  32.617  39.997  11.884
70405W        W29501  42.921  33.057   1.330
70406W        W29502  17.682   8.220  13.527
70407W        W29503  19.618  28.007  13.839
70408W        W29504   1.955  44.841   1.751
70409W        W29505  18.274  44.409   2.298
70410W        W29506  17.732  16.695   4.620
70411W        W29507  12.704   2.353   1.887
70412W        W29508  18.716  41.950  14.823
70413W        W29509  16.138   4.260   3.241
70414W        W29510  30.986  23.557   3.653
70415W        W29511  31.150  38.418  11.404
70416W        W29512  44.873   2.282   3.310
70417W        W29513   5.805   9.308  10.435
70418W        W29514  32.126  27.142  14.935
70419W        W29515  29.664  40.419  12.403
70420W        W29516  20.712   9.697  14.987
70421W        W29517  25.518  20.089  10.932
70422W        W29518  30.489  23.514  14.826
70423W        W29519  33.431  19.638   2.189
70424W        W29520   3.315  44.871   1.716
70425W        W29521  34.398  16.289  12.924
70426W        W29522  27.512  33.068  10.998
70427W        W29523  14.289  38.044  13.800
70428W        W29524  34.431   7.171   2.847
70429W        W29525  14.663  37.470  13.514
70430W        W29526  24.156  33.492   4.789
70431W        W29527  27.591   1.416   0.282
70432W        W29528   3.239  18.219   2.360
70433W        W29529   5.712   7.332   0.871
70434W        W29530  15.775  27.111  12.921
70435W        W29531  32.476  41.984   3.150
70436W        W29532  31.958   9.689   0.415
70437W        W29533  36.039  17.798  11.536
70438W        W29534   3.942  10.751  10.542
70439W        W29535   3.415  30.985  13.478
70440W        W29536   1.315  10.729   0.382
70441W        W29537  30.509  30.532  10.433
70442W        W29538  17.205  43.434   0.902
70443W        W29539   0.813  34.893  10.137
70444W        W29540  20.758  29.578  12.430
70445W        W29541  36.390  39.929   1.441
70446W        W29542  30.965  25.120  14.819
70447W        W29543  42.493  13.114   2.741
70448W        W29544   3.729  39.863   2.708
70449W        W29545  10.687  26.695  12.501
70450W        W29546  20.033   8.852   1.826
70451W        W29547   3.776  29.440  12.548
70452W        W29548   4.799  21.105  12.949
70453W        W29549  44.835  37.022  10.974
70454W        W29550   5.778  28.005   2.419
70455W        W29551  37.880  15.091   2.737
70456W        W29552   3.449  25.555  10.938
70457W        W29553   1.448  41.807   0.746
70458W        W29554   2.846   8.787  10.127
70459W        W29555  35.566  33.525  14.015
70460W        W29556   7.353  32.458   0.381
70461W        W29557  28.681  19.608   0.816
70462W        W29558  12.757   7.698  13.851
70463W        W29559  22.032  16.180   4.813
70464W        W29560  28.464  36.954   4.601
70465W        W29561  39.543  28.138  13.438
70466W        W29562   5.849  15.137   4.777
70467W        W29563  44.376  37.896   2.844
70468W        W29564  21.695  34.398  10.614
70469W        W29565   0.369  41.301   0.786
70470W        W29566  11.747  25.192  11.950
70471W        W29567  22.227  18.090   0.860
70472W        W29568   3.235  15.736  12.393
70473W        W29569   3.909  34.588  11.926
70474W        W29570  37.037  32.051   2.266
70475W        W29571   6.371  30.601  13.373
70476W        W29572  13.160  18.782   0.341
70477W        W29573   5.758   8.766   3.763
70478W        W29574  25.581  17.180   4.833
70479W        W29575   3.318   7.863   2.827
70480W        W29576  13.312  27.523  10.546
70481W        W29577  21.674  18.590   2.318
70482W        W29578  41.521  39.974   1.882
70483W        W29579  22.119   4.400   4.760
70484W        W29580   6.783  26.467  13.907
70485W        W29581  23.106  36.050   2.754
70486W        W29582   6.224  45.000  14.483
70487W        W29583  32.131  30.111   2.207
70488W        W29584  12.857  43.790  12.450
70489W        W29585  17.739  19.688  14.920
70490W        W29586  38.924  22.041  11.975
70491W        W29587  36.046  36.876  12.889
70492W        W29588  39.972  27.054  11.050
70493W        W29589  26.480  32.523   3.233
70494W        W29590  33.954   8.164   1.882
70495W        W29591  38.569  22.178   4.683
70496W        W29592  18.244  42.898   0.856
70497W        W29593   2.453  35.861  12.492
70498W        W29594  26.460  31.585  14.016
70499W        W29595   1.322  11.803  14.911
70500W        W29596   3.256  11.690  12.377
70501W        W29597  39.910  44.284  11.118
70502W        W29598  33.972  42.959   3.161
70503W        W29599  13.670   7.757  11.395
70504W        W29600  18.165  21.644   1.832
70505W        W29601  17.216  25.215   9.926
70506W        W29602  31.021  30.518  14.947
70507W        W29603  13.208  19.117   0.318
70508W        W29604  24.043  21.080   2.803
70509W        W29605  44.916  28.485   0.457
70510W        W29606  32.547  11.197  12.506
70511W        W29607  22.559  38.841  13.373
70512W        W29608  44.492   5.928  11.386
70513W        W29609  15.820  26.998   9.932
70514W        W29610  27.640  23.115  13.520
70515W        W29611  34.117  21.045  14.375
70516W        W29612  24.563   7.179  14.321
70517W        W29613  25.682  23.053  12.841
70518W        W29614   9.307   8.318  14.018
70519W        W29615  38.566  23.078   4.619
70520W        W29616  37.047   7.756   2.391
70521W        W29617  25.122  23.210  11.990
70522W        W29618  41.364   5.913   1.868
70523W        W29619  36.060   3.308   0.465
70524W        W29620   4.877  37.500   2.806
70525W        W29621  31.566   8.712   5.264
70526W        W29622  29.086  14.610  11.404
70527W        W29623  28.121  35.551   2.238
70528W        W29624   3.842  20.571   1.816
70529W        W29625  29.666  25.143   4.322
70530W        W29626  24.568  33.986   1.731
70531W        W29627  42.019  44.421  14.442
70532W        W29628   3.355  25.107   1.340
70533W        W29629   0.368   4.433  14.931
70534W        W29630   1.284  38.493   4.261
70535W        W29631   3.388  12.779  13.888
70536W        W29632   4.762  42.827  11.465
70537W        W29633  42.371   8.394   3.376
70538W        W29634  19.056  18.157  12.954
70539W        W29635  10.702   9.321   1.731
70540W        W29636  43.831   9.305  13.026
70541W        W29637   8.747  25.032  12.348
70542W        W29638  36.087  40.850  13.013
70543W        W29639  19.739  16.225  13.467
70544W        W29640   4.228  27.154  14.508
70545W        W29641   8.359  11.779  10.567
70546W        W29642  27.550  25.039  10.521
70547W        W29643  21.194  35.077  13.799
70548W        W29644  19.552  39.936  10.570
70549W        W29645   4.308  16.798   1.324
70550W        W29646  36.386  26.601   4.258
70551W        W29647  43.995  18.288   2.851
70552W        W29648  39.868  12.156  11.924
70553W        W29649  15.286   5.715  13.526
70554W        W29650  36.096  40.849   0.259
70555W        W29651  29.638  39.890   4.221
70556W        W29652  44.259  44.474  14.446
70557W        W29653   4.934  18.702  14.357
70558W        W29654  31.089  31.440   4.296
70559W        W29655   9.815  22.571  12.835
70560W        W29656   9.738  31.413   2.679
70561W        W29657  40.493  32.077  11.934
70562W        W29658   9.789  41.846  12.407
70563W        W29659  42.431  23.613   1.798
70564W        W29660  32.971  38.998  10.526
70565W        W29661  27.684   1.967   2.742
70566W        W29662  34.980  37.846   3.782
70567W        W29663  33.468  39.874  14.959
70568W        W29664  17.161  15.596   3.736
70569W        W29665  31.980  31.420   4.807
70570W        W29666  36.377  14.257   1.357
70571W        W29667  42.350   9.203  10.532
70572W        W29668  18.707  24.124   1.426
70573W        W29669   4.797   7.291  13.845
70574W        W29670  30.937  36.884  14.302
70575W        W29671  26.683  11.631  13.899
70576W        W29672  13.203  30.620   1.411
70577W        W29673  18.183  20.199  14.903
70578W        W29674  43.891  29.925  11.484
70579W        W29675  43.495  16.738  10.534
70580W        W29676  22.017  35.377   2.705
70581W        W29677  31.574  42.304   0.385
70582W        W29678  33.985   9.827   3.159
70583W        W29679  30.656   5.783   3.365
70584W        W29680  26.460   6.251  10.516
70585W        W29681  20.127  27.461   0.251
70586W        W29682  27.599  44.937   2.325
70587W        W29683  27.612  29.667  14.471
70588W        W29684  11.176  10.855  12.034
70589W        W29685  26.034  14.309   0.957
70590W        W29686  40.376  15.250   4.347
70591W        W29687  19.763  42.963   1.257
70592W        W29688  32.947  13.283   4.782
70593W        W29689  12.654   0.959   4.623
70594W        W29690  12.830  26.096   0.789
70595W        W29691  21.697   2.468  12.003
70596W        W29692  36.507  26.029  13.433
70597W        W29693  25.012  41.859   1.873
70598W        W29694  24.092  42.947   2.197
70599W        W29695  33.922  27.028  12.027
70600W        W29696  18.255  17.289  14.017
70601W        W29697  18.681  16.258   1.743
70602W        W29698  42.884  44.940   3.744
70603W        W29699  12.180   8.247   3.317
70604W        W29700  23.549  39.320   2.206
70605W        W29701  29.072  36.997   1.450
70606W        W29702  39.550  34.564  13.897
70607W        W29703  22.648  29.026  11.584
70608W        W29704   9.217  23.503   4.823
70609W        W29705  11.811   8.380  13.859
70610W        W29706  15.156  30.964   2.843
70611W        W29707   7.676   3.895  13.031
70612W        W29708   8.340  35.532   4.306
70613W        W29709  26.016   8.802  12.069
70614W        W29710  41.447  11.774   0.760
70615W        W29711  34.384  25.125   2.736
70616W        W29712  15.090   9.723  14.768
70617W        W29713  27.143  37.893   4.655
70618W        W29714   6.352  18.194  14.457
70619W        W29715  44.764  42.358  11.923
70620W        W29716   5.351   6.228   1.826
70621W        W29717   2.381  44.466   3.241
70622W        W29718   8.396  44.343   4.817
70623W        W29719  25.087  37.540  11.934
70624W        W29720  36.539  21.704   0.438
70625W        W29721  27.044  42.898   1.724
70626W        W29722  32.447  27.657  11.506
70627W        W29723   6.691   2.244  12.552
70628W        W29724   1.813  22.068  11.997
70629W        W29725  13.314  32.440  10.437
70630W        W29726  33.947  32.399  13.940
70631W        W29727  16.163  18.624  11.098
70632W        W29728   0.813  24.200   2.340
70633W        W29729  31.582  14.738   4.258
70634W        W29730  13.205  41.970   2.391
70635W        W29731  17.765  14.254  10.964
70636W        W29732  42.337  24.696   4.201
70637W        W29733   0.858  24.602   0.779
70638W        W29734  15.656  10.276  11.978
70639W        W29735  12.331  11.662  11.513
70640W        W29736  31.451  38.505  12.575
70641W        W29737  44.900   1.901   2.310
70642W        W29738  23.543  17.100  14.423
70643W        W29739  35.961   2.347  12.063
70644W        W29740   5.374  39.539   0.451
70645W        W29741  13.213  30.937   2.212
70646W        W29742  10.667  34.039  14.790
70647W        W29743  16.237   8.777   3.726
70648W        W29744  39.398  29.425   3.801
70649W        W29745  42.917  10.264  11.091
70650W        W29746  16.729   9.282  14.376
70651W        W29747   1.855  40.963  14.408
70652W        W29748  24.599  33.962  13.826
70653W        W29749   9.804  43.975   3.310
70654W        W29750  23.191  10.785   4.812
70655W        W29751  26.126  24.008  14.867
70656W        W29752  22.247  22.740  11.010
70657W        W29753  29.548  17.665   2.285
70658W        W29754  30.518  28.948  14.500
70659W        W29755  10.792  36.063  12.395
70660W        W29756  21.071   0.397  11.863
70661W        W29757  22.175   2.725   3.242
70662W        W29758  15.136  24.208   3.234
70663W        W29759   4.731  23.734  14.780
70664W        W29760  18.673  43.386  13.923
70665W        W29761  22.096  32.082  14.767
70666W        W29762  43.822  35.858  14.351
70667W        W29763   4.939   0.427  10.511
70668W        W29764  37.444   3.365   2.711
70669W        W29765  44.269   8.898  14.967
70670W        W29766  23.200  13.200  13.962
70671W        W29767  26.666  37.898  10.428
70672W        W29768  10.790  41.886  12.396
70673W        W29769  25.641   5.721  11.982
70674W        W29770   8.798  12.328  13.044
70675W        W29771   5.311   7.217  14.982
70676W        W29772  42.526  16.168   3.168
70677W        W29773  16.722  34.549  12.343
70678W        W29774  15.280  20.135  12.891
70679W        W29775  25.093  40.027  12.920
70680W        W29776  38.551  43.498   3.869
70681W        W29777  15.648  26.495  13.426
70682W        W29778  24.027  38.427  11.085
70683W        W29779  39.930  29.076   0.355
70684W        W29780  12.642  33.110   4.188
70685W        W29781  29.473  28.455  13.920
70686W        W29782  41.411   3.940  14.286
70687W        W29783  12.769  16.644   1.695
70688W        W29784   2.246  14.793  10.893
70689W        W29785  27.109  29.948   4.731
70690W        W29786   8.357  15.589   0.799
70691W        W29787  43.282   2.933   1.322
70692W        W29788  44.921   1.438   3.243
70693W        W29789  31.551  13.670  11.504
70694W        W29790  23.097  36.387   1.701
70695W        W29791  35.923  21.514  10.583
70696W        W29792  15.700  36.074   9.540
70697W        W29793   6.182  23.154  14.902
70698W        W29794  32.479  31.114  14.408
70699W        W29795   8.786  36.971   1.322
70700W        W29796   2.284  26.956  14.279
70701W        W29797  14.664  22.052  10.528
70702W        W29798   9.385  19.283   3.762
70703W        W29799  31.911   8.304  11.408
70704W        W29800  39.476  24.015  14.981
70705W        W29801  21.087  19.279  10.110
70706W        W29802   8.714  12.159  14.803
70707W        W29803  13.336  21.535  13.838
70708W        W29804  23.129  26.527   3.731
70709W        W29805  31.049  19.167  10.535
70710W        W29806  35.073  30.532  11.443
70711W        W29807  22.553  15.226  12.374
70712W        W29808  41.872  33.480   1.847
70713W        W29809  34.419  43.301   2.373
70714W        W29810  22.163  11.218   4.249
70715W        W29811  36.446  43.883  11.054
70716W        W29812  44.793  30.985  11.009
70717W        W29813   4.237   1.817   1.751
70718W        W29814   9.352  11.229  12.860
70719W        W29815   9.318  17.239   3.182
70720W        W29816  36.439  24.064  14.473
70721W        W29817   3.951  44.281   3.703
70722W        W29818  26.103  15.695  13.474
70723W        W29819   7.900  22.172  10.439
70724W        W29820  21.120  23.042   5.316
70725W        W29821  10.779  33.112   1.753
70726W        W29822  13.814  43.006  10.469
70727W        W29823  33.948   1.454   1.900
70728W        W29824  14.826  42.981   2.821
70729W        W29825  15.187  33.068   1.709
70730W        W29826  44.924  12.655   0.428
70731W        W29827  43.816  15.637  12.517
70732W        W29828  28.003  38.916  13.334
70733W        W29829  25.702   6.409   4.268
70734W        W29830  40.969  17.182  13.060
70735W        W29831  28.955  20.548  14.026
70736W        W29832  40.460  31.588  13.936
70737W        W29833  10.332  18.100   2.797
70738W        W29834   6.829   8.342  11.123
70739W        W29835  22.105   4.369   3.638
70740W        W29836  32.548  35.405  14.285
70741W        W29837   8.735  13.139   2.419
70742W        W29838  15.317  12.309   4.679
70743W        W29839  34.515  25.617  13.444
70744W        W29840  34.013  19.247  12.054
70745W        W29841  11.320  24.659   3.379
70746W        W29842  21.198  33.048   2.857
70747W        W29843  23.731  30.134   0.261
70748W        W29844  11.181  31.554   2.402
70749W        W29845  28.485  40.845   2.284
70750W        W29846   8.285  30.017   3.641
70751W        W29847  28.934  30.642   2.817
70752W        W29848   2.366  41.920  13.798
70753W        W29849  44.926  31.595  13.435
70754W        W29850   0.358  23.685   4.669
70755W        W29851   0.305  33.942  10.510
70756W        W29852   9.710  38.850   3.308
70757W        W29853  33.988  38.959   2.805
70758W        W29854  41.943  28.142  12.096
70759W        W29855  29.542   3.413   5.204
70760W        W29856  39.906  15.767  12.900
70761W        W29857  21.650  30.493   2.779
70762W        W29858  26.981  39.361   4.262
70763W        W29859  43.344  26.635   4.175
70764W        W29860  40.803  23.701   0.380
70765W        W29861  31.511  16.708   3.227
70766W        W29862  39.827  35.390   2.299
70767W        W29863  41.800  16.092   4.325
70768W        W29864  21.070  20.608   4.732
70769W        W29865  16.285  44.474   2.259
70770W        W29866  34.964  27.473  12.393
70771W        W29867   7.369  12.673   3.763
70772W        W29868  30.536  15.134   3.640
70773W        W29869  12.776  28.644  14.495
70774W        W29870  29.953  29.082  11.127
70775W        W29871  16.739  11.644   2.384
70776W        W29872  26.155  12.727   1.720
70777W        W29873  41.432  13.241   1.807
70778W        W29874   6.337   9.169  14.815
70779W        W29875  30.014  18.082   4.137
70780W        W29876   2.370  21.128  11.996
70781W        W29877   2.435  14.318   4.290
70782W        W29878  10.372  33.605  13.940
70783W        W29879  41.393  18.165   3.654
70784W        W29880  42.437  21.068   0.291
70785W        W29881  21.116   0.276  13.477
70786W        W29882  32.459  23.598   2.288
70787W        W29883  28.073  11.782   3.696
70788W        W29884  31.149  17.565   1.449
70789W        W29885  29.013  42.327  11.994
70790W        W29886   5.320  40.877  11.019
70791W        W29887  14.604  41.291  12.878
70792W        W29888  15.193  32.141  10.628
70793W        W29889  20.656  37.461  10.128
70794W        W29890  38.916   3.870   0.736
70795W        W29891  13.707   5.231  14.507
70796W        W29892  44.337   3.312  10.115
70797W        W29893   5.885  21.221  14.937
70798W        W29894   4.869  38.982  10.590
70799W        W29895  37.447  20.548  10.543
70800W        W29896  24.000  39.497   1.321
70801W        W29897  39.042  41.891   2.290
70802W        W29898  29.449  10.319   2.302
70803W        W29899  28.123  36.027  12.935
70804W        W29900  10.808  13.772  13.799
70805W        W29901  36.872  38.048  12.410
70806W        W29902  24.044   2.860   0.872
70807W        W29903  40.919  42.336  14.849
70808W        W29904  32.928  42.522  11.467
70809W        W29905   5.280  30.000   3.375
70810W        W29906  43.852   3.327  12.904
70811W        W29907  14.637  12.358  11.398
70812W        W29908  28.595   5.352  12.044
70813W        W29909  37.998  35.911   4.686
70814W        W29910  16.592  42.914  10.640
70815W        W29911  28.582  21.076   5.630
70816W        W29912  35.890  39.959  13.545
70817W        W29913  18.102   9.297   4.804
70818W        W29914  29.027  17.708   2.194
70819W        W29915   2.818   4.250   3.201
70820W        W29916  33.434  10.254  13.957
70821W        W29917  42.845   9.236  13.538
70822W        W29918  19.240  33.992   1.873
70823W        W29919   8.776   6.202  12.377
70824W        W29920  18.573  11.179   4.164
70825W        W29921  19.758   0.785  12.503
70826W        W29922  38.370  30.598   2.301
70827W        W29923  15.234  13.698   3.321
70828W        W29924  20.212  10.849  14.485
70829W        W29925  11.691  37.466   2.210
70830W        W29926  10.341  18.689   3.311
70831W        W29927  13.258  16.761   5.260
70832W        W29928  13.769  36.496   3.761
70833W        W29929  31.007  12.310  10.594
70834W        W29930   5.397  36.485   3.352
70835W        W29931  26.495   2.828   0.422
70836W        W29932   9.352  19.640   0.362
70837W        W29933  31.955  29.929  12.925
70838W        W29934  44.299  43.889  12.912
70839W        W29935  30.562   9.729  11.487
70840W        W29936  39.487  22.200   3.258
70841W        W29937  33.550   9.731  12.057
70842W        W29938  37.035  15.621  12.411
70843W        W29939  14.166  12.178   2.308
70844W        W29940  27.051   5.835  12.837
70845W        W29941  43.817  33.884  11.599
70846W        W29942  33.945  23.492   0.891
70847W        W29943  20.616  43.352   0.374
70848W        W29944  29.647  44.801   2.762
70849W        W29945  16.268  11.342   2.362
70850W        W29946  23.196  24.647  11.437
70851W        W29947   3.226  17.665  11.472
70852W        W29948  28.446  36.974  11.006
70853W        W29949   8.809  22.517  10.581
70854W        W29950  26.129  28.452  12.527
70855W        W29951  13.607  44.885  14.925
70856W        W29952  22.652  19.682   2.328
70857W        W29953  13.739   3.438   0.267
70858W        W29954   1.858  26.105  10.414
70859W        W29955  38.941  42.912  14.916
70860W        W29956  24.101   3.747   3.151
70861W        W29957  34.462  20.687   0.871
70862W        W29958  32.049  25.192   0.811
70863W        W29959  32.119  30.530  13.372
70864W        W29960  12.301  24.635   2.811
70865W        W29961  30.420  34.907   1.340
70866W        W29962  13.151  42.964   0.355
70867W        W29963  22.244  38.847   2.208
70868W        W29964  44.986   3.860  14.321
70869W        W29965  36.859  26.523   2.195
70870W        W29966  43.884  16.203   2.333
70871W        W29967  13.148  31.999  13.320
70872W        W29968  12.292  26.677  13.421
70873W        W29969  21.179   8.264   4.285
70874W        W29970  29.919  13.689  10.906
70875W        W29971  32.475  16.075   1.286
70876W        W29972  31.514  29.125   2.813
70877W        W29973  18.257  42.301  14.825
70878W        W29974  29.019  22.681  12.096
70879W        W29975  11.241  33.982   0.879
70880W        W29976  11.680  42.422   2.359
70881W        W29977  25.176  17.556  12.572
70882W        W29978  33.916  38.420  13.446
70883W        W29979   5.878  31.585   0.912
70884W        W29980  16.117  19.123  11.440
70885W        W29981  14.167  14.156   0.270
70886W        W29982  27.485  43.998  10.469
70887W        W29983  26.103   1.768   3.346
70888W        W29984   6.770  38.992  11.857
70889W        W29985  30.075   5.399  12.376
70890W        W29986  36.873  16.766   1.710
70891W        W29987  11.193  43.826   3.254
70892W        W29988  32.594  44.904  13.941
70893W        W29989  18.113  39.529   1.247
70894W        W29990  27.589  23.093   3.671
70895W        W29991  42.420  33.579   0.963
70896W        W29992   5.378  39.367  11.964
70897W        W29993  30.472   0.887  13.480
70898W        W29994  41.893  34.919   0.305
70899W        W29995   6.792  31.603   1.426
70900W        W29996  19.642  30.033  12.871
70901W        W29997  36.576  29.145  13.486
70902W        W29998  24.526  44.399  13.039
70903W        W29999  13.708  32.586  11.900
70904W        W30000   2.894  28.551  10.987
70905W        W30001   9.383  38.952  13.471
70906W        W30002   6.283  22.998   1.214
70907W        W30003  37.010  36.525  11.472
70908W        W30004  43.012  34.906   2.394
70909W        W30005   3.301  24.545  12.515
70910W        W30006  13.622  40.402   3.361
70911W        W30007  27.146  26.700   4.294
70912W        W30008  44.453  40.917  13.526
70913W        W30009  15.174  24.650  13.044
70914W        W30010  26.461  36.561   4.812
70915W        W30011  19.706  11.177   2.211
70916W        W30012  33.474  36.479  13.510
70917W        W30013  19.723  42.793   4.719
70918W        W30014  19.746  34.935   4.134
70919W        W30015   4.327   8.299   4.303
70920W        W30016  43.992  16.790  12.926
70921W        W30017  42.972  20.229   2.870
70922W        W30018   0.400   9.220  11.501
70923W        W30019   0.251  17.702   0.378
70924W        W30020  38.976   1.737   0.772
70925W        W30021  19.710  38.523   1.840
70926W        W30022  27.628  28.979  14.455
70927W        W30023  42.897  37.002   3.640
70928W        W30024  32.926  31.037  12.956
70929W        W30025  42.990   9.810   0.460
70930W        W30026  22.228   7.359   1.365
70931W        W30027  39.495  18.564  12.064
70932W        W30028  15.598  10.379  13.363
70933W        W30029  16.569  24.178  13.815
70934W        W30030  26.141  27.122  12.870
70935W        W30031  37.850  15.194  10.147
70936W        W30032  16.148  24.482  11.514
70937W        W30033  44.005  39.009  14.474
70938W        W30034  31.969  36.883  11.962
70939W        W30035  43.414  38.372  12.904
70940W        W30036  16.294  42.890   1.384
70941W        W30037  18.640  34.404  11.997
70942W        W30038  44.929  13.266  14.994
70943W        W30039  32.560  12.278  13.887
70944W        W30040  20.109   5.314   0.276
70945W        W30041   6.344  26.202  10.602
70946W        W30042  42.969  15.653  12.968
70947W        W30043  31.421  27.556   2.661
70948W        W30044  24.142  17.146   0.879
70949W        W30045  30.532   6.752  12.851
70950W        W30046   5.750  39.396   3.227
70951W        W30047  33.570  17.788   3.688
70952W        W30048  10.318  20.165   2.672
70953W        W30049  26.015  18.056  12.480
70954W        W30050  17.124  16.222  13.434
70955W        W30051  29.514  40.527  12.986
70956W        W30052   6.839  11.171  14.810
70957W        W30053  34.455  32.617   2.783
70958W        W30054  39.923  14.832   4.631
70959W        W30055  12.616  27.572  13.325
70960W        W30056  25.672   8.279  10.416
70961W        W30057  13.602  41.343   0.827
70962W        W30058  39.988  17.095  13.938
70963W        W30059  37.959  17.090  14.343
70964W        W30060  29.118  40.880  13.022
70965W        W30061  32.625   9.748  14.427
70966W        W30062  41.408  39.486  10.613
70967W        W30063  33.443  38.973  11.609
70968W        W30064  15.239  13.193   0.847
70969W        W30065  18.708  43.915   4.186
70970W        W30066  26.990  33.525   5.748
70971W        W30067  23.093  44.390   0.381
70972W        W30068   5.825  32.005   2.292
70973W        W30069  18.695  30.019   3.181
70974W        W30070  41.925  29.941   3.842
70975W        W30071  18.704  32.462  11.500
70976W        W30072  42.992  38.450   1.319
70977W        W30073  43.340   8.801   3.341
70978W        W30074  32.940  34.052  12.947
70979W        W30075  35.412  33.017  10.540
70980W        W30076  20.613  13.331   3.269
70981W        W30077  40.340  17.154  12.050
70982W        W30078  18.631   6.414   5.205
70983W        W30079  22.747  43.971  14.290
70984W        W30080  41.987  28.461   3.785
70985W        W30081  43.273  44.873   0.880
70986W        W30082  35.006  40.355  11.873
70987W        W30083   0.984   7.880  13.815
70988W        W30084   4.882  30.930  11.921
70989W        W30085  31.419  43.843   4.669
70990W        W30086  37.502   9.869   4.678
70991W        W30087  28.465  16.116  14.002
70992W        W30088  39.517  13.779  14.999
70993W        W30089  43.888  41.347   1.805
70994W        W30090  42.319   5.429   1.701
70995W        W30091  38.441  17.726   0.918
70996W        W30092  40.349  23.535  14.948
70997W        W30093  23.085  30.944   2.778
70998W        W30094  33.923  23.071   4.742
70999W        W30095  44.484  42.960  10.946
71000W        W30096  26.538  44.375  11.952
71001W        W30097  30.444   2.933  13.487
71002W        W30098  13.338   6.800   2.782
71003W        W30099  16.253   9.322   3.785
71004W        W30100  39.826  26.692  10.075
71005W        W30101  13.673  43.940  11.448
71006W        W30102   6.329  33.129  11.555
71007W        W30103  39.502  12.170   2.385
71008W        W30104  32.579  27.470   0.896
71009W        W30105  43.831   3.754   4.142
71010W        W30106  40.904  23.057  12.346
71011W        W30107   3.784  10.877  10.906
71012W        W30108  36.913   6.239   4.166
71013W        W30109  33.947  25.061  13.961
71014W        W30110  27.569  11.841  13.458
71015W        W30111  37.388  30.990   3.685
71016W        W30112  36.382  16.749   0.728
71017W        W30113  10.736  44.341  13.402
71018W        W30114  33.574  40.798   1.906
71019W        W30115  41.305  44.890  11.049
71020W        W30116  30.092  41.372  14.397
71021W        W30117  39.476  13.174   1.320
71022W        W30118   3.832  40.402   4.599
71023W        W30119  12.141  20.248   1.757
71024W        W30120  17.780  33.589   3.786
71025W        W30121  28.526  21.733  11.977
71026W        W30122  33.898  26.623   5.783
71027W        W30123  20.075   5.252   3.202
71028W        W30124  36.890   8.401  11.077
71029W        W30125   0.913   6.710   2.835
71030W        W30126  25.696  18.628   4.713
71031W        W30127  33.953  37.342   3.632
71032W        W30128  32.055   8.295   1.217
71033W        W30129  19.148  11.224   3.317
71034W        W30130  17.296  36.971  13.475
71035W        W30131  32.958   9.862   1.255
71036W        W30132   4.776  12.332   3.751
71037W        W30133  32.566  31.095   4.817
71038W        W30134  36.997  42.858   1.265
71039W        W30135  11.236  39.557  10.628
71040W        W30136  18.747  38.558  12.928
71041W        W30137  19.607  21.022   0.920
71042W        W30138  28.651  25.174   3.281
71043W        W30139  35.476  23.640   2.798
71044W        W30140  22.620  34.585   4.218
71045W        W30141  21.590  39.346  11.455
71046W        W30142   4.883   5.866  12.553
71047W        W30143  41.388  33.036  10.502
71048W        W30144   7.909  11.215   0.875
71049W        W30145  32.025  36.567   3.728
71050W        W30146  25.575  29.631  13.530
71051W        W30147  14.625  34.906   4.190
71052W        W30148  44.417   7.265   4.785
71053W        W30149  28.172   2.394  10.423
71054W        W30150  25.088   9.801  14.779
71055W        W30151  18.177  43.009   4.805
71056W        W30152  28.494  35.024   0.383
71057W        W30153  10.249  12.704  14.784
71058W        W30154  42.383  19.554   1.215
71059W        W30155  36.890   9.299   2.357
71060W        W30156  24.128  18.132   4.751
71061W        W30157  30.935  36.438  12.892
71062W        W30158  36.422  39.329   4.149
71063W        W30159  16.127  22.130   4.786
71064W        W30160  36.012  39.810   1.820
71065W        W30161  32.977   9.200  13.488
71066W        W30162  39.975  34.949   4.134
71067W        W30163  43.833  18.785   2.245
71068W        W30164  13.609   9.823   0.880
71069W        W30165  23.554   0.840  12.370
71070W        W30166  33.551   7.802   0.396
71071W        W30167   0.843  30.038   4.799
71072W        W30168   5.922  18.585  13.363
71073W        W30169  12.761  21.062  12.982
71074W        W30170  23.995  41.002   4.656
71075W        W30171  34.455   7.261   1.770
71076W        W30172  40.035  36.511   1.745
71077W        W30173  27.117  35.414  11.430
71078W        W30174  12.221  10.165  11.936
71079W        W30175  36.081  34.904   4.784
71080W        W30176  12.333  13.330   3.730
71081W        W30177  10.238   1.318  11.537
71082W        W30178   6.890  27.115   4.218
71083W        W30179  33.459  24.043   3.156
71084W        W30180  15.216  14.760  13.020
71085W        W30181  24.544  12.133  10.983
71086W        W30182  39.371  29.658  12.494
71087W        W30183  25.059  29.547   1.446
71088W        W30184  41.980  11.168  10.638
71089W        W30185  28.969  15.194   0.967
71090W        W30186  27.574  32.913  14.463
71091W        W30187  29.164  28.516   4.689
71092W        W30188   2.854  13.808   2.303
71093W        W30189  20.123   7.196   3.772
71094W        W30190  31.595  19.567  10.888
71095W        W30191   7.903  31.634  10.985
71096W        W30192  18.733  16.140   0.872
71097W        W30193   7.398   7.694  13.511
71098W        W30194  33.877  17.780  11.005
71099W        W30195  16.301  21.083   2.317
71100W        W30196  43.898  36.921   0.846
71101W        W30197  42.030  41.885  12.509
71102W        W30198  32.568   5.262   2.204
71103W        W30199   0.763  33.468   4.656
71104W        W30200  32.428  27.177  11.480
71105W        W30201  23.569   5.363   0.272
71106W        W30202  38.919  42.448   1.343
71107W        W30203  22.997  36.007  13.312
71108W        W30204  32.423   5.925   2.313
71109W        W30205  33.559   9.775  10.160
71110W        W30206  20.623  29.546   1.734
71111W        W30207   5.809  15.265  11.593
71112W        W30208  37.400  19.165  10.480
71113W        W30209  37.848  37.952   1.354
71114W        W30210  19.276   9.854   3.292
71115W        W30211   8.756   8.705   2.816
71116W        W30212   7.409  17.124  14.465
71117W        W30213  39.516  32.979  14.289
71118W        W30214  36.475   4.883   1.393
71119W        W30215  19.631  25.112   2.678
71120W        W30216  16.600  13.224   2.760
71121W        W30217  27.661  44.795  13.403
71122W        W30218  27.050  34.001   4.209
71123W        W30219  30.964  31.488   1.451
71124W        W30220  18.062   2.847   4.756
71125W        W30221  20.707   3.871  13.794
71126W        W30222  18.693  33.428  14.026
71127W        W30223  23.202  10.236  10.161
71128W        W30224  41.472   4.811  12.468
71129W        W30225   9.861  16.278  11.387
71130W        W30226   2.414  20.565   4.755
71131W        W30227   3.308   8.705  14.469
71132W        W30228   2.734   9.799   1.825
71133W        W30229   1.743  16.656  11.571
71134W        W30230  22.112  16.254  11.579
71135W        W30231  16.264  29.129   0.881
71136W        W30232   0.444  15.614   0.464
71137W        W30233  39.361  35.479  12.524
71138W        W30234   5.226   0.863   3.203
71139W        W30235  35.935  43.942  13.523
71140W        W30236   5.891   2.941   4.261
71141W        W30237  31.632  13.814  14.827
71142W        W30238   2.915  34.919   2.849
71143W        W30239  11.760  36.514   1.429
71144W        W30240  42.367   6.209  13.437
71145W        W30241  41.869  21.242   0.918
71146W        W30242  11.197  24.562   3.861
71147W        W30243  10.692  26.607  10.940
71148W        W30244  10.173   5.919  12.412
71149W        W30245  39.909  30.057  13.031
71150W        W30246  17.301   3.223  11.418
71151W        W30247   7.178  14.142   0.785
71152W        W30248  34.486  42.783   4.275
71153W        W30249  20.231   4.217   4.810
71154W        W30250  41.325  10.667  13.391
71155W        W30251   2.862  18.050  11.062
71156W        W30252  29.637  27.674   2.698
71157W        W30253  25.577  43.929   1.423
71158W        W30254  35.512   5.230   4.823
71159W        W30255  37.846  17.762   9.457
71160W        W30256  29.508  25.673   4.793
71161W        W30257  11.354  41.950  14.955
71162W        W30258  42.355   4.438  11.505
71163W        W30259  10.876  18.180   3.678
71164W        W30260  15.684   2.967   3.705
71165W        W30261   2.735  10.701  13.356
71166W        W30262  17.148  26.202  11.391
71167W        W30263  26.005  33.527  12.902
71168W        W30264  21.208  41.396   5.151
71169W        W30265  11.365   7.681   0.324
71170W        W30266   3.808  26.196  14.867
71171W        W30267  26.039  14.161  13.981
71172W        W30268  38.407  43.350   3.297
71173W        W30269  14.820  26.547  14.779
71174W        W30270  27.045  28.033  10.126
71175W        W30271  13.613  22.679   3.845
71176W        W30272   7.310   0.365  14.426
71177W        W30273  39.540  11.181  14.384
71178W        W30274  36.039   3.264   1.743
71179W        W30275   1.421  26.101  13.919
71180W        W30276   8.178  13.708   2.233
71181W        W30277  23.067   5.355  13.795
71182W        W30278   5.330  11.799  10.047
71183W        W30279  30.439  12.233   3.195
71184W        W30280  37.550   0.395  14.018
71185W        W30281  27.674  38.008   0.250
71186W        W30282   2.447  34.872  12.067
71187W        W30283  41.789   0.411   4.167
71188W        W30284  38.331  27.149  12.574
71189W        W30285  30.549  26.205  14.477
71190W        W30286  18.144   1.803  11.881
71191W        W30287   4.725  25.041  11.978
71192W        W30288  32.619   8.226  11.610
71193W        W30289  35.083  43.884   4.641
71194W        W30290  20.678  39.870   3.314
71195W        W30291  39.907   1.876   0.748
71196W        W30292   5.369   1.881  12.460
71197W        W30293  14.663  30.979  10.976
71198W        W30294   9.657  26.523  12.892
71199W        W30295  26.561   4.345   3.240
71200W        W30296  24.186  25.091  11.382
71201W        W30297  22.194  12.300  11.396
71202W        W30298  28.074   5.283   4.236
71203W        W30299  10.742  18.099  14.941
71204W        W30300  26.502  38.890   4.736
71205W        W30301  13.255  44.841   1.828
71206W        W30302  19.774  39.019  13.905
71207W        W30303  42.903  26.082  10.629
71208W        W30304  10.383  18.761   0.471
71209W        W30305  21.669  19.609   2.418
71210W        W30306  11.255   5.319  11.444
71211W        W30307  42.522  29.613  13.996
71212W        W30308  24.199   3.922  14.880
71213W        W30309  12.783  14.115   4.159
71214W        W30310  16.683   1.429   3.775
71215W        W30311   6.371  44.447  13.989
71216W        W30312   9.797  21.531  12.049
71217W        W30313  30.440  14.287   3.732
71218W        W30314  35.557  39.468   2.679
71219W        W30315  39.370  36.861  12.567
71220W        W30316  25.489   6.190   4.668
71221W        W30317  44.858  34.452  13.442
71222W        W30318   5.347  17.744  10.507
71223W        W30319  20.725  39.537  14.367
71224W        W30320  28.543   0.411  13.530
71225W        W30321  13.666  17.144   5.271
71226W        W30322  22.080  21.560  14.019
71227W        W30323  15.185  31.012   3.846
71228W        W30324   9.847  13.289   3.644
71229W        W30325   7.741  28.536  10.975
71230W        W30326   1.902  39.390  14.841
71231W        W30327  10.377  36.855   0.378
71232W        W30328  34.049   2.362  10.473
71233W        W30329  23.143  38.913  12.491
71234W        W30330  41.398  26.095  14.994
71235W        W30331  20.265  19.135  11.928
71236W        W30332  29.579  10.877  10.959
71237W        W30333  10.284  14.313  11.930
71238W        W30334  28.534  42.408  14.850
71239W        W30335  43.439  25.019  12.465
71240W        W30336  36.554  22.632  13.548
71241W        W30337   3.743  26.958   0.334
71242W        W30338   7.366  34.599  10.611
71243W        W30339  16.786  15.754  14.411
71244W        W30340  44.989  27.088  11.855
71245W        W30341  34.467   7.723   3.656
71246W        W30342  41.896  33.538  13.012
71247W        W30343   0.309  20.624  12.373
71248W        W30344  39.412   0.320   0.340
71249W        W30345   7.882   0.945  13.901
71250W        W30346  12.702  31.097  11.520
71251W        W30347  29.446   4.418  10.407
71252W        W30348  42.321   1.294  11.566
71253W        W30349  39.454  24.191  12.403
71254W        W30350  44.292  16.100   3.702
71255W        W30351   0.313  43.889   1.783
71256W        W30352  41.005   9.674   3.286
71257W        W30353  25.600   1.971   2.281
71258W        W30354  15.177   7.311   4.730
71259W        W30355  38.060  24.676   1.416
71260W        W30356  11.782  25.537  12.033
71261W        W30357   2.841  28.441   4.826
71262W        W30358  31.076   3.830  11.963
71263W        W30359   3.231  32.012  13.001
71264W        W30360  20.735  29.953  14.856
71265W        W30361  17.232   3.850  11.482
71266W        W30362  13.817  44.436  14.305
71267W        W30363  19.642   0.766   3.262
71268W        W30364  10.311   9.681  10.453
71269W        W30365  25.647   7.897  14.441
71270W        W30366  11.264  28.108  14.851
71271W        W30367  30.593  37.471  11.372
71272W        W30368  14.646   7.874   4.728
71273W        W30369  37.982  33.542   0.285
71274W        W30370   3.397  35.014  13.009
71275W        W30371   9.224  38.965  12.553
71276W        W30372  43.312   3.248   2.751
71277W        W30373  16.223  38.402  14.459
71278W        W30374  14.694  37.386   1.323
71279W        W30375  37.484  44.006  14.397
71280W        W30376  37.037  19.090  12.350
71281W        W30377   9.338  44.913   2.734
71282W        W30378  31.495   8.329  11.968
71283W        W30379  28.995  32.440  11.066
71284W        W30380  28.533  24.209  14.980
71285W        W30381  40.054  19.627   1.770
71286W        W30382   5.366  21.556  13.832
71287W        W30383  37.524  39.909  11.979
71288W        W30384   8.228  39.004  14.970
71289W        W30385  39.895  34.492  12.564
71290W        W30386  14.805  40.407  10.494
71291W        W30387  35.383  37.566   0.736
71292W        W30388  17.652   3.763   0.866
71293W        W30389  10.839  10.167   3.160
71294W        W30390  15.262  36.496  14.860
71295W        W30391  17.778  14.740   3.668
71296W        W30392  38.365   3.839  10.497
71297W        W30393  14.270  33.622  12.925
71298W        W30394  38.436  11.344  13.930
71299W        W30395  18.219  24.547  10.890
71300W        W30396  26.104  39.391  12.539
71301W        W30397   6.678  34.380   1.718
71302W        W30398  12.141  27.550  12.396
71303W        W30399  27.535   0.982  13.037
71304W        W30400  38.857  27.171   3.277
71305W        W30401  39.941  35.432  14.922
71306W        W30402   4.376  12.191   0.269
71307W        W30403  15.138  36.511   0.346
71308W        W30404  33.093  27.623   3.258
71309W        W30405  28.150  35.067  13.377
71310W        W30406  30.917  41.352   3.857
71311W        W30407  14.163  22.144   1.357
71312W        W30408  43.856  34.528   2.806
71313W        W30409  14.279  22.528  10.972
71314W        W30410  17.250  23.584   2.847
71315W        W30411  15.792  42.808   2.681
71316W        W30412  36.957   1.424   0.733
71317W        W30413  33.601  15.263   1.903
71318W        W30414   0.380  43.383  12.948
71319W        W30415  23.097  38.488  11.401
71320W        W30416  43.903   2.272  14.878
71321W        W30417  37.478  43.824  12.008
71322W        W30418  24.090  33.903  11.498
71323W        W30419  26.633  25.599  14.409
71324W        W30420  41.499  32.141   4.115
71325W        W30421   0.436  12.622  12.392
71326W        W30422  25.677  26.635   3.313
71327W        W30423  23.586   1.438  11.032
71328W        W30424   0.792  14.590  13.484
71329W        W30425  10.277  41.522  13.338
71330W        W30426  23.099  14.690  12.866
71331W        W30427  10.252  26.459  13.030
71332W        W30428  24.165  35.049  14.359
71333W        W30429  30.122  24.126   2.307
71334W        W30430  38.916  43.413  14.027
71335W        W30431   9.837   6.756  14.789
71336W        W30432   5.852  33.929   3.685
71337W        W30433   0.931  24.998  13.383
71338W        W30434  14.199  35.857   2.805
71339W        W30435   2.721  44.317   4.762
71340W        W30436   1.249   2.780   3.262
71341W        W30437  17.257   9.749   4.124
71342W        W30438   6.757  28.642  14.994
71343W        W30439   1.248  23.618   2.271
71344W        W30440   4.759  34.491   2.702
71345W        W30441  44.770  22.696  10.445
71346W        W30442  13.217  24.499  13.307
71347W        W30443  44.999   0.491   0.460
71348W        W30444  16.242  31.426  13.387
71349W        W30445   4.793   1.835  10.433
71350W        W30446  20.075  19.548   3.734
71351W        W30447  27.509  20.618  10.625
71352W        W30448  21.095   1.464  11.077
71353W        W30449  29.066  29.052  12.861
71354W        W30450  31.627   8.805  14.339
71355W        W30451  38.371  27.576  13.491
71356W        W30452   4.853  11.131  13.925
71357W        W30453  44.424  17.305   2.419
71358W        W30454   6.289  39.912  11.581
71359W        W30455  20.763   5.322  13.831
71360W        W30456  22.534   3.758  12.448
71361W        W30457   8.836  31.512   2.878
71362W        W30458  34.458  26.172   0.343
71363W        W30459  36.925   8.865   2.901
71364W        W30460  16.774  22.194  12.924
71365W        W30461  30.098  24.044  12.967
71366W        W30462  36.975  16.695  13.506
71367W        W30463  27.659   2.423   4.765
71368W        W30464  27.075  43.959   1.867
71369W        W30465  34.015  13.229  12.029
71370W        W30466  36.392  31.089   0.357
71371W        W30467   2.806  18.674  11.500
71372W        W30468   5.287  11.673  10.580
71373W        W30469  22.176  13.202  12.404
71374W        W30470  19.235  26.605   0.313
71375W        W30471   4.255  42.524  11.119
71376W        W30472  36.499  29.109   0.843
71377W        W30473  22.507   2.811   0.898
71378W        W30474  21.543  23.999   3.743
71379W        W30475  27.454  31.634   2.302
71380W        W30476  33.493  42.381  13.368
71381W        W30477  40.472  36.993  13.812
71382W        W30478   8.840  30.649   3.299
71383W        W30479  42.436  39.504  14.915
71384W        W30480  38.951  18.674   3.239
71385W        W30481   8.343  36.454   1.885
71386W        W30482  19.699   1.408  11.416
71387W        W30483   1.313   0.793   4.117
71388W        W30484  11.301  42.819  13.026
71389W        W30485  30.133  19.208  14.833
71390W        W30486   8.753   2.453  14.860
71391W        W30487   5.927  19.723   1.920
71392W        W30488   8.778  29.512  13.449
71393W        W30489  42.480  31.067   0.767
71394W        W30490   6.694  22.628  10.608
71395W        W30491  35.933  32.404  13.818
71396W        W30492  38.932  35.946   0.343
71397W        W30493  14.734   7.717  13.335
71398W        W30494  16.316   7.750  10.918
71399W        W30495  26.161  18.296   0.819
71400W        W30496  12.751   6.193  12.531
71401W        W30497  26.636  14.306  12.403
71402W        W30498   7.723  44.353   3.814
71403W        W30499  23.687  30.158  13.799
71404W        W30500  32.949   9.365   1.920
71405W        W30501  36.437  10.761   5.115
71406W        W30502  44.318  22.100  11.021
71407W        W30503  35.057  42.881   3.316
71408W        W30504  12.238  31.032  13.405
71409W        W30505  36.019   9.224   4.217
71410W        W30506  11.768  28.072  12.891
71411W        W30507  40.004  12.225   1.373
71412W        W30508  20.070  35.962   5.182
71413W        W30509   3.288  33.936   2.767
71414W        W30510  22.561  15.614  10.419
71415W        W30511  37.012  14.746   3.152
71416W        W30512  43.894   6.362  12.911
71417W        W30513  31.611  39.500   1.404
71418W        W30514  14.672  31.556   2.297
71419W        W30515  39.896   9.264  13.028
71420W        W30516   9.705  30.074   4.838
71421W        W30517  13.811  13.339   0.888
71422W        W30518  24.135  15.182   0.810
71423W        W30519  42.899  22.520  10.619
71424W        W30520  19.776  20.268  13.542
71425W        W30521  31.493  30.542   1.736
71426W        W30522  10.337  15.316  14.281
71427W        W30523  23.991   9.751   4.270
71428W        W30524  29.096  36.924   4.709
71429W        W30525   1.244  27.173   0.244
71430W        W30526  32.635  33.910  14.400
71431W        W30527  13.734  43.410  12.367
71432W        W30528  36.910  16.214  10.467
71433W        W30529   6.362   2.348  10.077
71434W        W30530   4.803   4.930  12.482
71435W        W30531  34.557  13.291  13.543
71436W        W30532  35.927  21.110   3.835
71437W        W30533  12.311  35.865  11.969
71438W        W30534   2.907  24.020   2.892
71439W        W30535  21.655  40.815  12.092
71440W        W30536   1.853  42.963   4.808
71441W        W30537  13.684  10.221  11.963
71442W        W30538   9.792  23.564  10.948
71443W        W30539  38.389  26.096  11.373
71444W        W30540  41.367  23.040  10.561
71445W        W30541  14.649  43.443  13.862
71446W        W30542   7.403   2.467   4.124
71447W        W30543  41.963   4.351   0.782
71448W        W30544  35.091   1.776  10.433
71449W        W30545  34.491  10.283  14.793
71450W        W30546   5.224  32.497   4.648
71451W        W30547  20.033  29.579   2.291
71452W        W30548   2.924  35.037   4.123
71453W        W30549  18.627   5.800  14.017
71454W        W30550   8.224  30.657  14.513
71455W        W30551  15.715   8.685  12.089
71456W        W30552  31.504   2.801   0.831
71457W        W30553   2.821  41.474   4.123
71458W        W30554   7.175  23.638  12.961
71459W        W30555  39.388   7.691  12.850
71460W        W30556  26.530  33.479   4.311
71461W        W30557  38.022  33.986  12.842
71462W        W30558   6.260  15.663   5.260
71463W        W30559   2.262   5.750  13.355
71464W        W30560  13.161  38.011   2.882
71465W        W30561  29.958  22.109   0.277
71466W        W30562  30.103  20.658  12.396
71467W        W30563  38.540  20.718  14.782
71468W        W30564  15.816  39.005   2.400
71469W        W30565  17.070  28.518   4.155
71470W        W30566  34.553  11.175   2.284
71471W        W30567   0.440  11.651   0.903
71472W        W30568  25.481   1.815   4.734
71473W        W30569  16.285  25.031  14.289
71474W        W30570  16.270  22.707   1.798
71475W        W30571  35.038   5.870   3.685
71476W        W30572  41.965  15.806   2.850
71477W        W30573  17.594  16.152   4.212
71478W        W30574  12.159  16.157   2.366
71479W        W30575  26.663   3.826   2.677
71480W        W30576  44.819  31.029  13.882
71481W        W30577  28.472  39.920  12.391
71482W        W30578  29.489  14.594   3.291
71483W        W30579  26.962  14.314  12.341
71484W        W30580  20.093  26.031  10.979
71485W        W30581  30.956   3.729  11.563
71486W        W30582  37.891  41.495  13.860
71487W        W30583  17.686   4.916  13.355
71488W        W30584  27.625   4.219  10.988
71489W        W30585  38.519  28.068   4.659
71490W        W30586   1.840  28.063  12.823
71491W        W30587  33.085  25.090   2.760
71492W        W30588  30.490  35.975  13.037
71493W        W30589   0.457  37.062  11.395
71494W        W30590  42.339  18.229  13.368
71495W        W30591   8.290  18.264  14.870
71496W        W30592   7.172  18.217  11.500
71497W        W30593   0.962   1.335  11.052
71498W        W30594   4.248  21.200   2.288
71499W        W30595  32.548  32.958   3.844
71500W        W30596  34.427   5.253  11.004
71501W        W30597   6.791  26.578   1.826
71502W        W30598  26.504  31.065   1.705
71503W        W30599  25.558  22.509   2.333
71504W        W30600  40.923   4.811   4.687
71505W        W30601  43.405  25.984   4.128
71506W        W30602  18.627   7.766  10.974
71507W        W30603   6.316  14.691  13.521
71508W        W30604   0.380  15.691   0.829
71509W        W30605  21.566  29.570   3.708
71510W        W30606  14.658   0.394   0.843
71511W        W30607   2.803  38.883  10.640
71512W        W30608  16.588  17.127   0.881
71513W        W30609  30.529  10.347   3.235
71514W        W30610  28.081  40.348   1.414
71515W        W30611  29.954  26.075   0.954
71516W        W30612  18.230   4.832   3.809
71517W        W30613  15.596  20.037  12.066
71518W        W30614  14.194  31.554  14.424
71519W        W30615  37.960  42.883   2.197
71520W        W30616  42.947  17.150  12.449
71521W        W30617  39.946  36.524  12.376
71522W        W30618  41.952  13.751   4.186
71523W        W30619  10.317   1.292   0.839
71524W        W30620  14.333  13.154   4.196
71525W        W30621   4.935  28.436   1.835
71526W        W30622  25.139   0.799   3.771
71527W        W30623  41.813   6.384   0.467
71528W        W30624  10.209  35.399  10.982
71529W        W30625  22.615  39.344  10.505
71530W        W30626  10.738  10.721   2.231
71531W        W30627  25.514  17.567   0.299
71532W        W30628  29.601  12.785  12.053
71533W        W30629  27.515   1.277   3.286
71534W        W30630   2.244  38.485  14.495
71535W        W30631  16.109  29.476   1.404
71536W        W30632   5.211  33.069   1.367
71537W        W30633  34.457  26.975  12.031
71538W        W30634  14.642  24.621  12.479
71539W        W30635  37.453  43.971  12.852
71540W        W30636  15.314  41.036  10.431
71541W        W30637  41.885  39.909  14.863
71542W        W30638  18.714   2.735  14.282
71543W        W30639  21.138  34.048  12.461
71544W        W30640  18.062  43.444  13.048
71545W        W30641  23.652   9.309  14.791
71546W        W30642  24.036   3.409  10.548
71547W        W30643   2.947  38.487  13.060
71548W        W30644  39.974  19.686   4.199
71549W        W30645  14.670  23.581   1.405
71550W        W30646  16.262  16.792  12.890
71551W        W30647  39.872   3.816   0.481
71552W        W30648  21.675  41.981   2.326
71553W        W30649  13.645  11.666  13.453
71554W        W30650   2.282  38.337   4.251
71555W        W30651  27.514  25.119  14.484
71556W        W30652  36.046  26.164  13.883
71557W        W30653  29.470  13.299  13.438
71558W        W30654  42.330  34.440   1.809
71559W        W30655   9.269  23.662   2.230
71560W        W30656  13.766   9.269  12.391
71561W        W30657  43.798  37.070  13.808
71562W        W30658   3.876   1.784   1.216
71563W        W30659   4.322  13.119  11.444
71564W        W30660  31.601  33.929   1.237
71565W        W30661  18.617  28.537   0.797
71566W        W30662  14.686  18.154   3.200
71567W        W30663  39.842  11.288  12.061
71568W        W30664  41.027  18.551  12.374
71569W        W30665  32.432  37.439  14.865
71570W        W30666  12.851  43.473  10.970
71571W        W30667  34.521  22.543   0.429
71572W        W30668  24.555  32.432   2.399
71573W        W30669  16.095   5.897  12.559
71574W        W30670  25.057  37.558   4.700
71575W        W30671   3.873  39.975  11.898
71576W        W30672  16.813  43.934  13.910
71577W        W30673   7.400  16.629  12.061
71578W        W30674  15.627  29.537   9.924
71579W        W30675  41.880  24.190   4.295
71580W        W30676   9.665  17.736  13.997
71581W        W30677  42.297  44.462   2.224
71582W        W30678  28.485  22.224   1.900
71583W        W30679   1.920  32.038   3.688
71584W        W30680  34.996  34.430  10.434
71585W        W30681   3.852  10.769  11.947
71586W        W30682  23.591   2.344   2.719
71587W        W30683   2.432  26.651  14.001
71588W        W30684  36.565  24.514   1.236
71589W        W30685  34.113  31.923  12.962
71590W        W30686  36.015   7.830   3.373
71591W        W30687  42.917  26.063  11.426
71592W        W30688  36.853  30.110  10.981
71593W        W30689   8.393   8.776   3.197
71594W        W30690  34.958  25.481  13.852
71595W        W30691  18.228   9.248   9.517
71596W        W30692  32.901  39.018   4.837
71597W        W30693  28.082   4.221  12.990
71598W        W30694   2.316  37.869  11.415
71599W        W30695  44.757  31.568   1.744
71600W        W30696  18.186  11.225  12.544
71601W        W30697  36.442  41.885   0.731
71602W        W30698  20.036  19.220   0.452
71603W        W30699  25.994  36.969   0.430
71604W        W30700  29.543  26.665  12.854
71605W        W30701  37.882  10.638   9.583
71606W        W30702  36.408  10.682  12.434
71607W        W30703  32.047  26.637  13.916
71608W        W30704  18.760  19.701   0.291
71609W        W30705  18.639   0.973  10.533
71610W        W30706  14.756  41.961  13.357
71611W        W30707  10.721  40.992  14.465
71612W        W30708  27.120  34.060  14.316
71613W        W30709   8.860  36.930  12.466
71614W        W30710  22.638  32.423  11.991
71615W        W30711  18.097  42.421   2.366
71616W        W30712  43.944  37.500   3.301
71617W        W30713   1.419  21.145   4.602
71618W        W30714  23.634   6.859   3.205
71619W        W30715  43.799  24.048  13.403
71620W        W30716   7.676   1.874   3.709
71621W        W30717  41.853  28.502  11.066
71622W        W30718  31.967  22.686  11.037
71623W        W30719  32.111  27.169  13.506
71624W        W30720  16.660  36.926   0.908
71625W        W30721  39.845  15.210   3.746
71626W        W30722  13.805  23.718  10.986
71627W        W30723  11.678  21.727   0.482
71628W        W30724   6.720  33.934  10.608
71629W        W30725  23.081  31.045  10.976
71630W        W30726  13.676   1.293  14.405
71631W        W30727   9.203   6.869  14.996
71632W        W30728  40.322  21.529   2.841
71633W        W30729  43.846  22.242   4.763
71634W        W30730  38.475  16.623  11.097
71635W        W30731  31.604  26.505  13.332
71636W        W30732  20.545  23.206  13.353
71637W        W30733   2.721  33.572   1.445
71638W        W30734  37.075   3.214   5.132
71639W        W30735  42.016   9.862   1.756
71640W        W30736   1.836  29.476   4.757
71641W        W30737  19.717  10.854  10.897
71642W        W30738  19.668  12.192   4.193
71643W        W30739   7.397  23.541   2.677
71644W        W30740  15.260  24.682  11.976
71645W        W30741   5.847  28.460  13.335
71646W        W30742  37.892  44.779  13.359
71647W        W30743  41.956   9.351  11.052
71648W        W30744  17.180  40.878  13.039
71649W        W30745  25.657  36.012   2.739
71650W        W30746  21.746  14.112   3.677
71651W        W30747   2.423   8.778   0.311
71652W        W30748  28.572   4.272  14.775
71653W        W30749  35.910  12.316   3.792
71654W        W30750  28.582  21.227  10.554
71655W        W30751  34.601  23.626  14.341
71656W        W30752  26.007  30.931  12.067
71657W        W30753  21.538  13.263   5.666
71658W        W30754  37.444   0.896  14.990
71659W        W30755  13.224  18.584   2.845
71660W        W30756  32.088  44.410  14.486
71661W        W30757  43.794  23.507   0.436
71662W        W30758  37.498  16.788   3.685
71663W        W30759  16.079   1.808   2.391
71664W        W30760   1.352  15.116   2.301
71665W        W30761  29.943  42.988  12.905
71666W        W30762  12.614  19.623   0.839
71667W        W30763   3.794   3.743   3.721
71668W        W30764  15.136   2.332  13.919
71669W        W30765   3.242  38.983  11.117
71670W        W30766  26.033  44.278  10.644
71671W        W30767  12.844  42.904   2.233
71672W        W30768  13.760   2.768  13.477
71673W        W30769   1.278  24.616   3.710
71674W        W30770  35.914  30.917  13.911
71675W        W30771  41.301  31.623  10.534
71676W        W30772   0.425  24.006  13.055
71677W        W30773   7.680   1.971  11.974
71678W        W30774  43.431  28.533   2.353
71679W        W30775  33.617  12.656  13.479
71680W        W30776  31.039  13.296  13.360
71681W        W30777  21.066  22.035  10.928
71682W        W30778  35.991   2.429   2.859
71683W        W30779   3.785   3.872   2.837
71684W        W30780  22.681  41.348  12.834
71685W        W30781  10.360   2.953   4.768
71686W        W30782  40.344  38.530   0.835
71687W        W30783   2.402  27.616  11.557
71688W        W30784  35.542  21.596  14.917
71689W        W30785  22.052  17.720  14.030
71690W        W30786  43.882  15.248  11.543
71691W        W30787  28.043  31.907  13.040
71692W        W30788  11.346   4.433  13.307
71693W        W30789  20.263  31.474   3.631
71694W        W30790   7.388  44.470   0.477
71695W        W30791  31.572   6.887  14.499
71696W        W30792  36.386  28.606   2.234
71697W        W30793   2.347  13.714   1.341
71698W        W30794   8.885  26.641  12.968
71699W        W30795   8.212   2.809  12.831
71700W        W30796  17.186  13.220   2.791
71701W        W30797  16.633  17.692   0.284
71702W        W30798   3.810  18.611  11.393
71703W        W30799  12.809  13.139   0.905
71704W        W30800  38.839   3.426  13.922
71705W        W30801  18.274  25.041   2.728
71706W        W30802  29.542  21.573   1.835
71707W        W30803  16.688  43.905   0.307
71708W        W30804  24.977  24.218  14.956
71709W        W30805  27.051   3.808   4.645
71710W        W30806  40.803   5.701  10.962
71711W        W30807  36.590  29.162   4.685
71712W        W30808  39.941  32.559  13.318
71713W        W30809  30.527  31.425   4.798
71714W        W30810   9.290  43.447  13.811
71715W        W30811   4.795   9.369  13.953
71716W        W30812  39.988  39.863   0.453
71717W        W30813  17.190  39.455   2.295
71718W        W30814  33.874   9.176  14.376
71719W        W30815  10.362  38.922  10.519
71720W        W30816  22.570  24.675   1.709
71721W        W30817  39.057  11.182  14.803
71722W        W30818  32.519  35.901   1.437
71723W        W30819  24.511  34.097   4.153
71724W        W30820  44.895  18.734  11.505
71725W        W30821   6.803  40.385  12.407
71726W        W30822   9.831  39.049  14.951
71727W        W30823  35.855  11.338   3.643
71728W        W30824  44.935  10.279  13.345
71729W        W30825  18.158   0.254   0.453
71730W        W30826  23.017  22.739  14.299
71731W        W30827   5.772  37.937  13.432
71732W        W30828  10.659  12.300  11.532
71733W        W30829  33.056  18.775   0.897
71734W        W30830  34.586  29.077   3.189
71735W        W30831  24.686   3.270  12.860
71736W        W30832  32.913  19.671  13.900
71737W        W30833  39.945  10.635  12.548
71738W        W30834  24.201  23.534  12.888
71739W        W30835  33.049   7.320   2.879
71740W        W30836  39.551  23.071   1.894
71741W        W30837  13.601  35.002   3.727
71742W        W30838  21.163  33.419   1.925
71743W        W30839  32.486  42.921   5.096
71744W        W30840  40.879  44.332  11.532
71745W        W30841  41.814  13.185   2.291
71746W        W30842  11.862  28.110  10.573
71747W        W30843  32.128   6.873  14.864
71748W        W30844  34.873  32.506  12.444
71749W        W30845  14.306  26.624   0.438
71750W        W30846  37.885  27.979   1.819
71751W        W30847  36.379   6.888   2.316
71752W        W30848  26.531  15.766  11.122
71753W        W30849  14.675   6.405   3.833
71754W        W30850  21.731   1.972  12.842
71755W        W30851   0.856   5.791   0.467
71756W        W30852   5.290  40.970   0.851
71757W        W30853  27.041  26.616  14.840
71758W        W30854   3.756  33.463   0.859
71759W        W30855  32.921  40.929   3.762
71760W        W30856  39.533  35.104   4.741
71761W        W30857   8.388   0.401  11.532
71762W        W30858  40.927  35.861  11.974
71763W        W30859  10.321  21.133  12.538
71764W        W30860   6.201  44.305  11.094
71765W        W30861   1.315  18.237  14.015
71766W        W30862   9.679  19.124  11.037
71767W        W30863   3.872  39.554  13.968
71768W        W30864  33.939  28.655   5.291
71769W        W30865   5.412  11.198   4.736
71770W        W30866  42.282  21.210   1.811
71771W        W30867  33.609   0.952   2.808
71772W        W30868  33.547  12.764  11.526
71773W        W30869   3.412  32.485  11.938
71774W        W30870  16.734   8.796  12.926
71775W        W30871  29.447  19.100  14.839
71776W        W30872  13.270  26.596   0.781
71777W        W30873  19.141  41.336  10.567
71778W        W30874  44.274  30.987  10.483
71779W        W30875  29.140  12.260  11.003
71780W        W30876  12.208  20.597   0.457
71781W        W30877  36.979  18.189  12.555
71782W        W30878  21.232  39.859   4.155
71783W        W30879  15.323  39.030   3.374
71784W        W30880  44.847  26.613  12.070
71785W        W30881  12.791  32.569  11.379
71786W        W30882   6.846  17.121   0.961
71787W        W30883   6.845  17.741  14.795
71788W        W30884   5.892  13.224   4.143
71789W        W30885  18.190   6.187  14.029
71790W        W30886   7.724   2.320  11.520
71791W        W30887  42.991  15.622   4.680
71792W        W30888   0.842  13.695  14.806
71793W        W30889  11.623  30.466  13.412
71794W        W30890  21.104  25.168   1.310
71795W        W30891  37.015  37.348   4.680
71796W        W30892  34.991  19.747  11.986
71797W        W30893  23.734  28.550   2.768
71798W        W30894   4.908   1.850  11.543
71799W        W30895   8.271  26.125   2.765
71800W        W30896  14.804  35.493   1.714
71801W        W30897  28.454  33.427   4.289
71802W        W30898  18.584  37.371   9.954
71803W        W30899  16.713   1.359   3.255
71804W        W30900  35.882  32.984  11.488
71805W        W30901  29.090   9.235   4.321
71806W        W30902   9.658  36.850   1.265
71807W        W30903  21.211  24.497   2.236
71808W        W30904  13.780  33.419   3.691
71809W        W30905   8.713   2.377  10.592
71810W        W30906  23.560   0.392   0.965
71811W        W30907  13.149  35.449  10.551
71812W        W30908  40.471  44.422  14.939
71813W        W30909  21.634  39.514   4.313
71814W        W30910  26.077  43.270   2.365
71815W        W30911  23.197  44.782   0.951
71816W        W30912  18.623  22.071  12.438
71817W        W30913  23.026  14.779  10.500
71818W        W30914  22.234  40.913  10.634
71819W        W30915   8.191  13.349  11.499
71820W        W30916  32.950  36.572  11.408
71821W        W30917  36.506  41.892  13.381
71822W        W30918  44.820   6.206   1.285
71823W        W30919   3.330  14.099   4.321
71824W        W30920   1.930  34.608  14.428
71825W        W30921  31.059  15.139   2.806
71826W        W30922  11.350   4.295  14.347
71827W        W30923  26.700  16.732  12.465
71828W        W30924  27.999  23.724   0.760
71829W        W30925  33.002  32.414  11.423
71830W        W30926  13.187   0.490   2.827
71831W        W30927  33.626  12.181   2.182
71832W        W30928  33.601  35.877  14.973
71833W        W30929   8.788   6.789  12.578
71834W        W30930  42.403  30.552  13.410
71835W        W30931  12.189   1.371  14.940
71836W        W30932   2.420  30.942  14.771
71837W        W30933  39.443  17.790  12.500
71838W        W30934   4.305  34.528   2.362
71839W        W30935  15.264   2.464  11.976
71840W        W30936  21.740  26.962   2.785
71841W        W30937   5.398  40.811   3.358
71842W        W30938  29.162   4.755   3.245
71843W        W30939  17.722  19.572   4.293
71844W        W30940  27.622   9.877  13.312
71845W        W30941  10.210  42.789   2.392
71846W        W30942  30.987  40.035  12.076
71847W        W30943  18.659  43.275   2.274
71848W        W30944  23.180  24.093   3.253
71849W        W30945  39.815  32.072   0.755
71850W        W30946  27.507  31.060  10.535
71851W        W30947   7.246  39.514  13.392
71852W        W30948  11.173  41.804  10.425
71853W        W30949   6.760  35.049   0.343
71854W        W30950  12.774  16.594  14.453
71855W        W30951  10.768   2.244   1.770
71856W        W30952  40.402   3.355  12.376
71857W        W30953  12.291   6.877   4.696
71858W        W30954  32.556  36.422  12.077
71859W        W30955  13.342  19.552  13.871
71860W        W30956  19.554  17.603  11.868
71861W        W30957  36.081  25.491   2.378
71862W        W30958  20.053   1.329  12.390
71863W        W30959   7.414  42.351  14.510
71864W        W30960  16.630  13.648   4.347
71865W        W30961  29.153  43.380   2.415
71866W        W30962  31.140   3.898  12.974
71867W        W30963  12.357  13.740   1.445
71868W        W30964  33.594   4.707   2.224
71869W        W30965   7.781  42.007  13.926
71870W        W30966   1.910  30.954  12.010
71871W        W30967  10.350  14.708   4.309
71872W        W30968  17.799  13.299   3.287
71873W        W30969   2.440  41.332  12.358
71874W        W30970   4.899  13.681   5.295
71875W        W30971  24.589  29.556   1.932
71876W        W30972  19.684  14.094  11.549
71877W        W30973  33.618  20.613   2.892
71878W        W30974   5.291  15.764  10.962
71879W        W30975  27.627  28.035  10.991
71880W        W30976   6.857   7.254   3.846
71881W        W30977   2.426  25.490  12.521
71882W        W30978  34.493   0.973   3.753
71883W        W30979  35.020  17.759   0.285
71884W        W30980  38.983   4.773  12.826
71885W        W30981  43.386  29.482  14.333
71886W        W30982  12.698  23.184  10.405
71887W        W30983  19.670  41.910   1.804
71888W        W30984  21.675  33.403   0.375
71889W        W30985  22.649  34.073  12.074
71890W        W30986  30.148  13.751  14.968
71891W        W30987  21.629  24.137  11.047
71892W        W30988  29.006  30.048   2.736
71893W        W30989  22.645  31.548  13.009
71894W        W30990  28.013  37.995   0.730
71895W        W30991  24.684  38.019   2.275
71896W        W30992  39.374  18.573   2.230
71897W        W30993  42.379  19.279  13.030
71898W        W30994  38.938  31.130  13.403
71899W        W30995   6.407  16.086  13.054
71900W        W30996  19.734  17.170   3.276
71901W        W30997  12.827  40.917   3.336
71902W        W30998  32.890  21.045   1.225
71903W        W30999  22.635  41.309   0.941
71904W        W31000  25.114  43.457  13.896
71905W        W31001  23.722  34.587   0.871
71906W        W31002   5.423  20.760  11.393
71907W        W31003  44.393  12.190   3.676
71908W        W31004  31.045  12.323   3.763
71909W        W31005  11.814  20.197  12.962
71910W        W31006  40.466  38.325  10.896
71911W        W31007  26.560   1.303   1.711
71912W        W31008  42.864  16.635   2.866
71913W        W31009  37.563  32.434   3.673
71914W        W31010   5.310  21.578  12.096
71915W        W31011  36.555  37.510   5.187
71916W        W31012   6.770  29.053   2.230
71917W        W31013  19.722  13.265  14.425
71918W        W31014  40.446   1.892   3.714
71919W        W31015  28.637  44.401   2.892
71920W        W31016  27.115  27.015   2.761
71921W        W31017  42.016  41.954   1.335
71922W        W31018  27.185  22.670  14.986
71923W        W31019  11.229  42.951  13.331
71924W        W31020  28.557  41.325   4.268
71925W        W31021  18.778   9.262   1.418
71926W        W31022  12.722  23.196   0.899
71927W        W31023  35.480  10.168   2.795
71928W        W31024   3.318  31.487   2.341
71929W        W31025  42.307  26.638   0.295
71930W        W31026   5.888  23.685   3.636
71931W        W31027  30.957   9.861   3.798
71932W        W31028  44.884  44.407   2.286
71933W        W31029  29.996  36.926  14.882
71934W        W31030  20.581  19.221  10.899
71935W        W31031  10.702  27.508  11.607
71936W        W31032  29.074  40.815   2.852
71937W        W31033  26.676   6.314  14.509
71938W        W31034  34.063   3.257  12.911
71939W        W31035   7.392  28.105   9.988
71940W        W31036  15.686  10.169   3.243
71941W        W31037  14.627   1.466  13.011
71942W        W31038   7.345   2.914  14.288
71943W        W31039  10.250  39.521   4.197
71944W        W31040   5.411  34.995  12.030
71945W        W31041  28.129  26.627  12.532
71946W        W31042  43.908  11.703   4.644
71947W        W31043  15.151   3.269  14.951
71948W        W31044  23.667  30.654  13.905
71949W        W31045  26.506   8.871  11.947
71950W        W31046  21.719   2.779   4.784
71951W        W31047  42.505  35.084   0.937
71952W        W31048   2.876  11.263   1.419
71953W        W31049  21.088   3.337  10.960
71954W        W31050  28.526  18.110  14.866
71955W        W31051  42.327  38.485  10.906
71956W        W31052  32.594  26.182   4.825
71957W        W31053  36.060  32.951  12.539
71958W        W31054  11.863  21.737   1.379
71959W        W31055  26.022  21.590   1.904
71960W        W31056  13.150  35.995  10.027
71961W        W31057   4.235   7.679   4.298
71962W        W31058  43.984  26.501  11.409
71963W        W31059   6.683  18.283   0.838
71964W        W31060  27.967  31.977   5.096
71965W        W31061  17.768  18.698   0.763
71966W        W31062  10.766  37.549  12.432
71967W        W31063  11.360  33.888   4.690
71968W        W31064  17.182  23.210  12.437
71969W        W31065   6.708  16.249   3.342
71970W        W31066   6.810   8.260  11.469
71971W        W31067  10.784   8.380   2.293
71972W        W31068  13.827  35.586  12.933
71973W        W31069  39.520  42.435  14.991
71974W        W31070   2.298  15.815   3.182
71975W        W31071  20.602  41.884   1.444
71976W        W31072  24.678   2.391  13.437
71977W        W31073  17.563  40.907  13.436
71978W        W31074   0.445  12.824   2.321
71979W        W31075  10.774  25.591  13.354
71980W        W31076  28.168  21.608   1.413
71981W        W31077   2.354  40.888   1.308
71982W        W31078  33.591  30.437   0.278
71983W        W31079  17.127  36.526   1.268
71984W        W31080  10.158  39.961   1.711
71985W        W31081  19.142   3.727  12.092
71986W        W31082  30.429  30.111  14.426
71987W        W31083   3.832   1.376   2.384
71988W        W31084  38.449  27.091  11.496
71989W        W31085   8.792  24.665   3.344
71990W        W31086  17.144  43.312  13.016
71991W        W31087   5.742  43.356   4.780
71992W        W31088  40.491  40.999   4.205
71993W        W31089  21.726   7.905   1.305
71994W        W31090  44.768  34.887  12.478
71995W        W31091  24.036   0.373  14.435
71996W        W31092  41.326  22.685  14.960
71997W        W31093  14.684   7.337   0.770
71998W        W31094  41.812  27.988  13.851
71999W        W31095  38.933   9.159   3.844
72000W        W31096  21.184  36.421   5.179
72001W        W31097  28.631  21.707   2.367
72002W        W31098  10.734  44.295  10.142
72003W        W31099   4.751  14.733   2.687
72004W        W31100   1.880  19.741  11.051
72005W        W31101  32.403  12.200   1.838
72006W        W31102  28.024  19.087  10.644
72007W        W31103   2.963   0.425  12.858
72008W        W31104  13.274  25.594   0.910
72009W        W31105  25.006  37.529   3.853
72010W        W31106  36.848   3.251  12.963
72011W        W31107   8.840  21.212   1.355
72012W        W31108   1.939  27.016   0.332
72013W        W31109  13.833  32.429  10.539
72014W        W31110  15.109  42.326   2.338
72015W        W31111  30.913  17.181  10.634
72016W        W31112   9.262  26.574   1.380
72017W        W31113  43.315  26.059  11.014
72018W        W31114  37.988   1.778   1.408
72019W        W31115  11.808  16.716  13.340
72020W        W31116   0.979  14.657   2.757
72021W        W31117  40.327  21.078  14.930
72022W        W31118  17.222  36.944   1.837
72023W        W31119  14.743  42.000  13.018
72024W        W31120  28.489  15.299  13.901
72025W        W31121   2.234  16.236  12.062
72026W        W31122   8.877  43.913   4.287
72027W        W31123   3.874  36.406   0.463
72028W        W31124  23.538   2.286   3.366
72029W        W31125   7.723  14.673  15.000
72030W        W31126  24.586   9.240  10.986
72031W        W31127  32.392  10.363   1.320
72032W        W31128   2.272  42.839  14.299
72033W        W31129  28.930  14.293  10.586
72034W        W31130  38.563   9.888   1.439
72035W        W31131   3.760   5.800   2.795
72036W        W31132  42.830  15.708  14.018
72037W        W31133  14.239  18.272   3.739
72038W        W31134  29.609  13.764   3.835
72039W        W31135  29.610  18.733  13.900
72040W        W31136  17.767  21.634  14.912
72041W        W31137  16.200  21.750  10.506
72042W        W31138  36.480  42.324   0.791
72043W        W31139  36.408  40.870  13.395
72044W        W31140  20.135  15.700  11.018
72045W        W31141  21.113   7.342  12.487
72046W        W31142  14.205  33.502   2.389
72047W        W31143   7.715  16.076   0.357
72048W        W31144  44.336  11.661   3.201
72049W        W31145  43.021  23.218  14.442
72050W        W31146  12.229  13.695  14.366
72051W        W31147  10.296   9.229  14.842
72052W        W31148  30.646   8.272   0.768
72053W        W31149  38.016  18.666   1.759
72054W        W31150  24.624  33.470  11.546
72055W        W31151  41.878  10.692  12.492
72056W        W31152   9.248  33.491  12.388
72057W        W31153   2.353  30.463  14.381
72058W        W31154  25.673   8.252   1.297
72059W        W31155  31.126   2.830  13.510
72060W        W31156  10.720  38.925   4.676
72061W        W31157   9.275  34.010  11.016
72062W        W31158  42.942  20.203   0.877
72063W        W31159  15.168   9.351   4.602
72064W        W31160  10.260  35.417   3.198
72065W        W31161  19.195  39.382  11.445
72066W        W31162  13.665  32.050  10.060
72067W        W31163  15.156  11.662   2.272
72068W        W31164  36.447  35.529  12.404
72069W        W31165  43.820  32.448   4.799
72070W        W31166   7.373  18.237   0.852
72071W        W31167  26.667   9.385  14.858
72072W        W31168  20.254   2.816  13.876
72073W        W31169   4.796  17.609   1.788
72074W        W31170  14.655  10.253   2.333
72075W        W31171  35.923  32.433   4.166
72076W        W31172  43.919   0.933   0.778
72077W        W31173  24.585  31.510  11.601
72078W        W31174  17.752   7.413   0.900
72079W        W31175  38.383   8.280  14.792
72080W        W31176   2.453  12.230   0.364
72081W        W31177  21.733  37.888  13.422
72082W        W31178   6.209  10.844   2.221
72083W        W31179  24.117  36.346  13.514
72084W        W31180  38.383  23.501  12.536
72085W        W31181  42.336  19.645  11.969
72086W        W31182  24.512   5.224  10.412
72087W        W31183  36.984  31.980  12.448
72088W        W31184  29.502   5.791   4.818
72089W        W31185  34.439  41.973   0.353
72090W        W31186  22.637  18.189   1.780
72091W        W31187  38.434  14.652   4.785
72092W        W31188   5.819  35.400  10.551
72093W        W31189  22.610  44.853   2.805
72094W        W31190   4.234   3.809   2.665
72095W        W31191  22.656  37.914  13.323
72096W        W31192   6.756  30.548   2.828
72097W        W31193  14.219  34.896   5.110
72098W        W31194  11.701  40.940  11.109
72099W        W31195   6.898   2.854   3.329
72100W        W31196  16.099   8.316   4.214
72101W        W31197  37.429   0.306  10.609
72102W        W31198  26.479  15.635   5.216
72103W        W31199  29.925  28.094  13.997
72104W        W31200  10.875  11.283  12.365
72105W        W31201  41.982   2.854  10.461
72106W        W31202  42.997  37.960   3.643
72107W        W31203   9.655  34.409  13.029
72108W        W31204   3.285  19.703   4.178
72109W        W31205  41.922  21.534  11.605
72110W        W31206  13.196   6.219  12.516
72111W        W31207  43.866  11.662  13.546
72112W        W31208  22.606  29.624   0.286
72113W        W31209  15.712  34.037  14.430
72114W        W31210  41.882  24.018  13.323
72115W        W31211  25.544  24.528   3.743
72116W        W31212  11.255  41.315  14.337
72117W        W31213  21.145  28.478  12.370
72118W        W31214  21.264  22.557   1.842
72119W        W31215  42.301  40.477  10.484
72120W        W31216  10.749  27.102   3.713
72121W        W31217  14.238  12.772  14.291
72122W        W31218  13.771  41.800  14.457
72123W        W31219  18.187  10.821   0.265
72124W        W31220  11.147  13.246  10.558
72125W        W31221   0.795  19.551  11.918
72126W        W31222  26.957  34.018  10.596
72127W        W31223  25.483  37.464  12.472
72128W        W31224  15.729  21.066   1.802
72129W        W31225  20.640   4.373   4.612
72130W        W31226  38.406  20.259   4.743
72131W        W31227  39.501   3.224  11.375
72132W        W31228  33.947  30.053  13.438
72133W        W31229  36.849  32.905   0.368
72134W        W31230  34.904   1.965   5.106
72135W        W31231  40.855  37.031  11.521
72136W        W31232  18.197  11.725  11.949
72137W        W31233  39.840   0.276   4.831
72138W        W31234  19.270  42.817  13.438
72139W        W31235  12.236   0.324   4.777
72140W        W31236   4.736   4.698   1.883
72141W        W31237   0.440  43.764  13.852
72142W        W31238  35.536   0.899   1.312
72143W        W31239  44.422  28.092  14.786
72144W        W31240  14.233   4.281  10.482
72145W        W31241  33.593   5.839   1.787
72146W        W31242  24.185  12.784   4.352
72147W        W31243  13.193  42.481  13.974
72148W        W31244  38.493  22.169  14.429
72149W        W31245   3.933  35.435  14.957
72150W        W31246  29.474   0.487   1.728
72151W        W31247  35.955  42.515  14.932
72152W        W31248  23.120  24.500  11.064
72153W        W31249   0.825  42.778   4.315
72154W        W31250  41.312  12.826  13.535
72155W        W31251  25.117  26.045  12.571
72156W        W31252  33.544   1.475   1.803
72157W        W31253   3.864   6.387  12.998
72158W        W31254  24.008  21.570  12.982
72159W        W31255  33.892  13.808   4.749
72160W        W31256  26.682  17.307   3.368
72161W        W31257   5.748   1.319   0.861
72162W        W31258   8.716  14.144  10.040
72163W        W31259  44.759  22.997   3.781
72164W        W31260  31.014  20.031  13.466
72165W        W31261  44.837  10.670  11.452
72166W        W31262  11.740  21.129  11.569
72167W        W31263   8.163  38.404  12.088
72168W        W31264  35.517   0.320   1.784
72169W        W31265  31.431   1.384  14.877
72170W        W31266  29.923  18.282  14.406
72171W        W31267  43.395   2.346   4.624
72172W        W31268  18.606  44.955   1.699
72173W        W31269   6.881  21.599   3.218
72174W        W31270   6.424  16.672  11.088
72175W        W31271  37.578  19.106  14.028
72176W        W31272  18.281  18.132   2.355
72177W        W31273  35.582  41.341  10.591
72178W        W31274   3.746  12.719   3.270
72179W        W31275   1.854   3.232  13.907
72180W        W31276  32.138  11.161   2.721
72181W        W31277  12.614  41.833   3.779
72182W        W31278  44.413  28.180  12.440
72183W        W31279  22.209  36.557  13.884
72184W        W31280  40.334  41.903  12.066
72185W        W31281   7.854   9.886  14.336
72186W        W31282  10.235  27.584  11.936
72187W        W31283  34.488  15.099   4.324
72188W        W31284  44.993  16.585  12.866
72189W        W31285  19.550  34.547  11.891
72190W        W31286   8.160  21.756   2.672
72191W        W31287   9.174  29.597  13.311
72192W        W31288  25.501  18.061   2.359
72193W        W31289  44.773  36.940  12.945
72194W        W31290  16.726   5.719   3.207
72195W        W31291  39.974  24.606   4.257
72196W        W31292  42.821  32.498  11.505
72197W        W31293  13.139   7.233  13.504
72198W        W31294  17.132   3.450  12.001
72199W        W31295  17.264  36.396  14.776
72200W        W31296  11.242  36.896   0.337
72201W        W31297  44.259  42.948   4.258
72202W        W31298  33.992   4.251  12.857
72203W        W31299  24.654  38.561  13.821
72204W        W31300  19.545  23.719   1.377
72205W        W31301  29.519  39.510   2.407
72206W        W31302  36.020  15.820   0.385
72207W        W31303   2.847  21.086  11.079
72208W        W31304  33.018  13.699  11.868
72209W        W31305  15.611  13.216  11.989
72210W        W31306  26.581  21.617   2.200
72211W        W31307   1.952  24.116   2.847
72212W        W31308  28.021  24.612   4.675
72213W        W31309   7.839  20.619   1.733
72214W        W31310  11.208   8.191  13.342
72215W        W31311   0.962   4.939   2.886
72216W        W31312  38.950  32.895   1.211
72217W        W31313  11.860  35.386  11.068
72218W        W31314  22.670   7.385  13.375
72219W        W31315  17.254   9.657  13.968
72220W        W31316  20.154  40.900   0.282
72221W        W31317  41.940  42.807   2.257
72222W        W31318  43.278   1.917  14.973
72223W        W31319  40.971  31.466   4.605
72224W        W31320   3.792  16.615  12.888
72225W        W31321  44.293   6.306   1.366
72226W        W31322  17.711  14.107  10.559
72227W        W31323  12.206  34.085   3.855
72228W        W31324  14.301   7.768  11.537
72229W        W31325  19.183  30.621  10.560
72230W        W31326  41.043  16.132  12.525
72231W        W31327  42.911   4.289  12.340
72232W        W31328  34.020   7.887   3.838
72233W        W31329  27.996   5.277  10.635
72234W        W31330  31.621  37.388   0.944
72235W        W31331   0.988  14.598  14.769
72236W        W31332  12.611  36.516  12.484
72237W        W31333   8.200  31.107  14.799
72238W        W31334  29.932   9.191  10.524
72239W        W31335  27.570   1.433  11.113
72240W        W31336  31.146  21.602  14.451
72241W        W31337  22.547  36.553   1.357
72242W        W31338  10.876  28.678  10.920
72243W        W31339  33.056  26.977   1.918
72244W        W31340  40.360  36.353   0.398
72245W        W31341   5.752  11.258  13.866
72246W        W31342  30.494   1.749   3.353
72247W        W31343  23.640  11.829  14.758
72248W        W31344  22.645  42.447  11.586
72249W        W31345  35.466  12.352   3.848
72250W        W31346  24.505  28.618  13.791
72251W        W31347  37.000  41.890   1.824
72252W        W31348  33.942  20.600  10.620
72253W        W31349  37.915  30.161   0.475
72254W        W31350  31.085  26.137   1.406
72255W        W31351  44.883  15.667  12.874
72256W        W31352  40.979  37.015   3.687
72257W        W31353   9.243  24.988  11.566
72258W        W31354  43.448  40.938  12.502
72259W        W31355  44.474  13.311  14.869
72260W        W31356  33.525  25.072   1.433
72261W        W31357  28.951  30.546  14.908
72262W        W31358  23.101   2.320  11.066
72263W        W31359  20.643  29.172  14.963
72264W        W31360  17.619   8.174  12.426
72265W        W31361  26.007  14.111   4.598
72266W        W31362  34.038   4.447  13.333
72267W        W31363   2.745  23.125  10.525
72268W        W31364   4.862   0.445  14.016
72269W        W31365   9.232  16.092   3.195
72270W        W31366   7.185   0.250  13.947
72271W        W31367  19.642  10.657   3.791
72272W        W31368  25.481  40.875  10.552
72273W        W31369  11.237   4.776   4.607
72274W        W31370  27.514  19.651   0.805
72275W        W31371  22.557  17.087   4.836
72276W        W31372  11.779  27.574   0.923
72277W        W31373  35.532  15.611   9.970
72278W        W31374   2.352  22.995  12.060
72279W        W31375   9.218  44.771   0.746
72280W        W31376  13.329  22.175   2.198
72281W        W31377  30.429  20.048  11.562
72282W        W31378  41.427  21.550   0.270
72283W        W31379  33.107  32.955  10.609
72284W        W31380  24.105  27.499   3.692
72285W        W31381   4.940  32.888   4.614
72286W        W31382  35.905  32.909   3.208
72287W        W31383  41.315   3.767  14.977
72288W        W31384  41.879  18.074  11.506
72289W        W31385   0.790  33.088   3.371
72290W        W31386   0.360   2.380  13.903
72291W        W31387  19.579  44.375   2.864
72292W        W31388  39.997  35.562   4.154
72293W        W31389  34.454  37.926  10.497
72294W        W31390  23.002  27.613  14.322
72295W        W31391  25.110  22.728   2.832
72296W        W31392  40.823  20.722   4.208
72297W        W31393  24.103  37.337   4.339
72298W        W31394   2.804  13.250   2.232
72299W        W31395  14.764  12.254  11.969
72300W        W31396  44.860  34.411   2.251
72301W        W31397  19.769  32.524  14.414
72302W        W31398  11.185  41.038   0.880
72303W        W31399  40.497   8.733  13.796
72304W        W31400  21.104  27.136   1.220
72305W        W31401  29.444   1.318   3.372
72306W        W31402   9.786  12.257  13.495
72307W        W31403  36.030  42.866   0.830
72308W        W31404  13.217  27.997  10.014
72309W        W31405  24.636  41.000   2.714
72310W        W31406  37.559  12.746   2.280
72311W        W31407  28.445  28.512   0.826
72312W        W31408  36.985  26.558  12.409
72313W        W31409  39.315  33.064  12.342
72314W        W31410   7.195  16.609   2.393
72315W        W31411  11.159  15.165   9.516
72316W        W31412  18.652  18.612  12.422
72317W        W31413  30.577   4.272   3.357
72318W        W31414  25.998  15.629   1.788
72319W        W31415  34.909  13.661   1.813
72320W        W31416  33.925   8.667  13.929
72321W        W31417  14.711  16.670   0.938
72322W        W31418  14.684  13.695  13.831
72323W        W31419  43.303   7.850  14.412
72324W        W31420  17.680  33.391   4.212
72325W        W31421   1.940  30.010  13.316
72326W        W31422  44.911   2.941  14.792
72327W        W31423  35.098  21.204   2.214
72328W        W31424  38.332   2.786  10.421
72329W        W31425  16.658  36.385   1.322
72330W        W31426  15.685  15.587   0.355
72331W        W31427  19.712   4.287  13.858
72332W        W31428   0.881  21.205  12.826
72333W        W31429  28.533  28.625  14.860
72334W        W31430   3.324  20.608  14.275
72335W        W31431  44.922  28.551   0.727
72336W        W31432  12.263  19.093  10.897
72337W        W31433  31.957  26.650  10.910
72338W        W31434  10.160  12.284   3.689
72339W        W31435   8.313  39.034  13.311
72340W        W31436  32.013  36.069   3.824
72341W        W31437  40.532   5.801  11.115
72342W        W31438   0.461  12.226  14.435
72343W        W31439  37.022  18.134   3.654
72344W        W31440  25.066  38.391  14.986
72345W        W31441  25.062  12.786   4.173
72346W        W31442  44.277   4.729  11.865
72347W        W31443  42.354  17.087   0.447
72348W        W31444  30.025  35.038  13.468
72349W        W31445  32.451  22.203   3.190
72350W        W31446  31.010  36.486  14.441
72351W        W31447  17.793  41.338  11.559
72352W        W31448  24.597  31.422  10.570
72353W        W31449  13.712   7.378   1.346
72354W        W31450  14.243  36.461  12.466
72355W        W31451  18.128  21.533  10.520
72356W        W31452   2.963  44.467  12.401
72357W        W31453  28.618   3.851   4.752
72358W        W31454  24.162   5.262  13.810
72359W        W31455  16.227   3.763   1.812
72360W        W31456  21.063   8.829  14.834
72361W        W31457   6.191  17.124  11.087
72362W        W31458  11.347  19.206   3.366
72363W        W31459  15.279  39.962  10.968
72364W        W31460  36.448   8.838   2.383
72365W        W31461   6.836   9.371  12.041
72366W        W31462  16.663  18.103  13.957
72367W        W31463  26.669  23.627  10.114
72368W        W31464  20.684  13.256   0.728
72369W        W31465  35.562  29.076  10.933
72370W        W31466  13.253  39.376  12.342
72371W        W31467  36.995  19.054  11.552
72372W        W31468  23.715  13.746  13.880
72373W        W31469  35.516  21.601   2.353
72374W        W31470  20.535  32.623   0.893
72375W        W31471  23.078  43.993  11.575
72376W        W31472  28.496  12.186   0.757
72377W        W31473   7.786  15.190  14.410
72378W        W31474  15.289  23.148   3.679
72379W        W31475   1.956  31.080   3.665
72380W        W31476  27.633  32.570   9.456
72381W        W31477   3.426  40.325   3.198
72382W        W31478   6.680  32.022   2.361
72383W        W31479   1.472  26.012  14.325
72384W        W31480  38.966  34.507   3.668
72385W        W31481  22.611  24.582   1.369
72386W        W31482   8.806  10.351   3.742
72387W        W31483  23.137  29.604  10.464
72388W        W31484  34.063   1.919   4.822
72389W        W31485  21.047  22.554  11.897
72390W        W31486   5.352  38.002  12.521
72391W        W31487   8.792  13.330   1.914
72392W        W31488  31.497  26.653  13.923
72393W        W31489  16.656  13.602   3.632
72394W        W31490  21.675   6.425   0.873
72395W        W31491  31.963  44.356   4.638
72396W        W31492  38.056   9.152  11.454
72397W        W31493  32.551  44.369   2.238
72398W        W31494   1.836  20.124  11.105
72399W        W31495  38.976   9.162   4.796
72400W        W31496   2.378  44.261   4.677
72401W        W31497  13.830  33.431   0.763
72402W        W31498  23.631   5.430   4.817
72403W        W31499  29.464  10.157  12.022
72404W        W31500   9.231  11.357  11.933
72405W        W31501  12.175  25.208   4.776
72406W        W31502   5.792  43.969  13.394
72407W        W31503  31.100  40.430  11.991
72408W        W31504  32.634  28.059   1.779
72409W        W31505  31.976  36.438  10.452
72410W        W31506  42.335  41.530   3.837
72411W        W31507   2.447  35.910   3.637
72412W        W31508   5.695  23.188   5.253
72413W        W31509   7.239  12.327  12.377
72414W        W31510  34.107  39.331  13.920
72415W        W31511   7.411  19.169   3.870
72416W        W31512  19.097  36.860   1.908
72417W        W31513  32.969  31.504   0.339
72418W        W31514  41.436   7.690  12.881
72419W        W31515  43.318   9.820  13.013
72420W        W31516  36.982  23.626   3.870
72421W        W31517  43.863  16.238   2.709
72422W        W31518  19.578   6.782  13.518
72423W        W31519  22.604  39.478   3.792
72424W        W31520  23.672  30.009  11.577
72425W        W31521  41.967  37.971   3.649
72426W        W31522  24.508  36.977  14.360
72427W        W31523  25.637  23.041  13.334
72428W        W31524  37.532  19.072   1.736
72429W        W31525  37.972  42.346   0.422
72430W        W31526   0.881   8.247   3.201
72431W        W31527  24.669  44.886  12.423
72432W        W31528  11.830  44.341   5.200
72433W        W31529  15.712  11.804   2.245
72434W        W31530  12.619  25.656  13.397
72435W        W31531  39.460  13.215  12.092
72436W        W31532   8.278   9.672   1.724
72437W        W31533  30.117  14.258  10.629
72438W        W31534   2.228   5.892   2.218
72439W        W31535   5.801   2.860  14.278
72440W        W31536  43.437  33.094  14.437
72441W        W31537  28.022  39.433   0.261
72442W        W31538  37.383   5.865   0.889
72443W        W31539  36.052   7.173   4.137
72444W        W31540  27.005   9.222  13.428
72445W        W31541  28.984   3.860   2.320
72446W        W31542   3.849  24.605  13.469
72447W        W31543   1.770  42.370   1.310
72448W        W31544  11.808  23.504  12.562
72449W        W31545  31.585   7.881   4.749
72450W        W31546  20.147  28.163   1.758
72451W        W31547  41.311  40.525   1.284
72452W        W31548  31.140   8.348   2.725
72453W        W31549  30.590  32.100  14.425
72454W        W31550   7.764  16.613  13.522
72455W        W31551  33.886  38.452  10.603
72456W        W31552   5.428   0.307  13.964
72457W        W31553   9.857  27.554  13.018
72458W        W31554  33.404  10.868  11.404
72459W        W31555  12.282  36.090   3.367
72460W        W31556  35.014  12.754   1.727
72461W        W31557  41.947   6.389   4.755
72462W        W31558  12.773  11.842   0.365
72463W        W31559  15.150  38.503  13.308
72464W        W31560  30.423   8.862  11.604
72465W        W31561  37.424   7.764   1.899
72466W        W31562  37.559  41.004   1.798
72467W        W31563  17.104  18.216  12.424
72468W        W31564   1.438  29.639   4.220
72469W        W31565  32.465   2.787  11.470
72470W        W31566   6.318  12.779  13.380
72471W        W31567  26.951  32.576  14.771
72472W        W31568   0.830  31.092   3.253
72473W        W31569   5.281  20.137  13.404
72474W        W31570  12.224  36.350  10.408
72475W        W31571  20.034  29.065  13.946
72476W        W31572   3.426  31.403   1.268
72477W        W31573  40.514  28.026  12.009
72478W        W31574  16.176  17.728  14.368
72479W        W31575   7.851  24.194   1.722
72480W        W31576  43.513  44.486  12.512
72481W        W31577   9.734  36.868  14.848
72482W        W31578   6.357  36.928   2.189
72483W        W31579  12.734  39.317   2.272
72484W        W31580  31.413  36.001   2.187
72485W        W31581  26.168  34.952   0.748
72486W        W31582  39.324   7.315  10.623
72487W        W31583  17.194  40.903  12.357
72488W        W31584  19.210  22.189  11.038
72489W        W31585  16.775  42.326   0.845
72490W        W31586  27.667  21.520   4.206
72491W        W31587  11.334  34.579  13.456
72492W        W31588  10.670  17.770  14.021
72493W        W31589  25.530   3.823   0.828
72494W        W31590   0.435  16.133  10.978
72495W        W31591   8.340  16.188   3.218
72496W        W31592  13.650  22.061   2.353
72497W        W31593   0.370  28.972   3.807
72498W        W31594   2.413  19.541  13.472
72499W        W31595  42.985  30.541   3.785
72500W        W31596  21.705  20.596   0.427
72501W        W31597  23.539   2.387  13.009
72502W        W31598  31.554   2.935  10.601
72503W        W31599  26.567  32.029   1.326
72504W        W31600   9.882  24.189   3.332
72505W        W31601  39.910  24.626  14.896
72506W        W31602  30.432  36.870  12.510
72507W        W31603  15.755  27.626   9.662
72508W        W31604  34.490  42.817   3.271
72509W        W31605  17.080  17.164   4.119
72510W        W31606  10.292   3.454  10.429
72511W        W31607  16.782  41.860   4.163
72512W        W31608  18.223  11.657   3.835
72513W        W31609  12.276  33.522  13.392
72514W        W31610  33.603   1.908  11.007
72515W        W31611  21.081  36.401   0.841
72516W        W31612  26.540   7.739   3.726
72517W        W31613   2.733   5.212   2.740
72518W        W31614  22.539  18.770   3.870
72519W        W31615   9.195  43.962   0.800
72520W        W31616   5.405   5.397   2.850
72521W        W31617  13.307  12.611   2.403
72522W        W31618   9.370   7.752  11.386
72523W        W31619  21.528  16.248  11.019
72524W        W31620  43.833  20.543   4.815
72525W        W31621  41.501  22.543   3.336
72526W        W31622  19.042  24.634  10.503
72527W        W31623  38.486  15.246  13.797
72528W        W31624  43.500  39.887   2.242
72529W        W31625  38.403   4.728   1.355
72530W        W31626   7.272  29.561   3.716
72531W        W31627  11.823  14.256   1.729
72532W        W31628  21.079  21.178   1.932
72533W        W31629  22.176   7.688   0.911
72534W        W31630  10.731  42.986  13.522
72535W        W31631  38.921  44.845  12.899
72536W        W31632  37.996   3.838   3.383
72537W        W31633  25.584  43.399   0.925
72538W        W31634  37.511  16.790   2.831
72539W        W31635  32.110  30.656   0.824
72540W        W31636  21.143   0.324  13.989
72541W        W31637   3.752  17.735  13.871
72542W        W31638  20.131  19.132   2.703
72543W        W31639  32.625  23.734  11.047
72544W        W31640  30.054  13.762  12.536
72545W        W31641   8.794  43.764   0.465
72546W        W31642  42.939  44.330   0.436
72547W        W31643  25.604  14.105   2.179
72548W        W31644  21.574  33.044  11.903
72549W        W31645  23.054  41.322   1.332
72550W        W31646  35.539  15.245  12.857
72551W        W31647   4.236   4.836  13.939
72552W        W31648  32.033   3.713  11.869
72553W        W31649  25.571   0.951   5.246
72554W        W31650  10.246  23.046  12.072
72555W        W31651  26.657  19.271   0.333
72556W        W31652  17.600  13.700   4.129
72557W        W31653  12.301  30.051  13.313
72558W        W31654  35.531  22.633  11.482
72559W        W31655   2.925  23.720   4.132
72560W        W31656  43.774  20.685  11.586
72561W        W31657  12.743  26.107  13.382
72562W        W31658  23.089  33.916  12.373
72563W        W31659  40.393  21.249  10.535
72564W        W31660  40.427  34.927  13.392
72565W        W31661  32.566  12.197  14.941
72566W        W31662  44.422  26.613   3.274
72567W        W31663  28.119   6.730  13.870
72568W        W31664  26.692  11.262  14.777
72569W        W31665   0.780  40.022  13.970
72570W        W31666   5.799   3.260   4.225
72571W        W31667  23.238  34.393   0.249
72572W        W31668  34.109  15.770   4.602
72573W        W31669   0.974  24.695  13.879
72574W        W31670   5.783   6.875  11.946
72575W        W31671   2.274  44.262  10.914
72576W        W31672  30.921   8.176   0.458
72577W        W31673  16.720  24.636  14.429
72578W        W31674  42.298   4.401   1.284
72579W        W31675  14.157  30.514   5.313
72580W        W31676   3.458  26.538   1.753
72581W        W31677  40.443  10.831   0.279
72582W        W31678  24.517  44.763   1.780
72583W        W31679  39.497  11.785   2.735
72584W        W31680  41.845  36.866   3.185
72585W        W31681  26.507  34.925  14.993
72586W        W31682   8.654  40.944  14.808
72587W        W31683  24.177  23.047   2.278
72588W        W31684  40.469  30.567   1.212
72589W        W31685   2.952  35.872   2.184
72590W        W31686   6.230   6.342  14.389
72591W        W31687  25.039  31.621  12.579
72592W        W31688  12.294  23.059   4.293
72593W        W31689  20.555  25.967   3.794
72594W        W31690  26.597  40.958   5.285
72595W        W31691  36.953  22.059   2.204
72596W        W31692  30.617  21.228  14.886
72597W        W31693  37.342  38.007  12.864
72598W        W31694  11.630   7.866  13.352
72599W        W31695   2.245   4.361   0.410
72600W        W31696  10.851  17.080  14.002
72601W        W31697  37.945   6.687   2.892
72602W        W31698  10.689  27.525  10.990
72603W        W31699  19.540  31.406  13.459
72604W        W31700   4.927  16.644  14.925
72605W        W31701  20.598  32.066   4.315
72606W        W31702  20.115  11.708   3.326
72607W        W31703   8.681  20.181  11.900
72608W        W31704  33.380   1.794   4.703
72609W        W31705  18.089  15.752   2.207
72610W        W31706   1.482  34.901  11.098
72611W        W31707  36.910  22.738  14.779
72612W        W31708   1.283  25.683  11.543
72613W        W31709  39.938  44.005   1.353
72614W        W31710  22.226  38.870  13.372
72615W        W31711  41.011  33.082  14.482
72616W        W31712  28.666   9.829   3.850
72617W        W31713  14.614  13.663   3.871
72618W        W31714  24.695  35.390   1.385
72619W        W31715  41.998  20.558   2.248
72620W        W31716  38.328  22.588   2.804
72621W        W31717  20.646  15.116  12.963
72622W        W31718  35.527  35.871  10.476
72623W        W31719  20.641  21.625  11.488
72624W        W31720  20.657  20.257  14.430
72625W        W31721  42.377  24.655  14.366
72626W        W31722  15.196  38.963  13.809
72627W        W31723  33.875  43.448   3.258
72628W        W31724  42.857  40.380   1.866
72629W        W31725   5.831  39.833   3.659
72630W        W31726   5.429  43.998  10.930
72631W        W31727  39.523   7.771   1.372
72632W        W31728  39.897  18.617  12.014
72633W        W31729  43.275  16.805   2.210
72634W        W31730  26.576  18.614  13.332
72635W        W31731   4.233  37.485   4.183
72636W        W31732  14.685   3.434   4.833
72637W        W31733   0.865  20.752   3.686
72638W        W31734  13.256  40.400   2.317
72639W        W31735  40.399  37.544  13.437
72640W        W31736  42.792  36.567   0.310
72641W        W31737  30.093  31.128  11.570
72642W        W31738  15.646  28.123  11.598
72643W        W31739  41.985  18.619   0.273
72644W        W31740  40.476  37.431   3.171
72645W        W31741  39.549  31.096   3.270
72646W        W31742  29.467  43.795  14.382
72647W        W31743  18.628   1.394  14.764
72648W        W31744  33.042  34.922   4.330
72649W        W31745  21.716   7.890  12.418
72650W        W31746  42.887  16.625   0.776
72651W        W31747  22.126  14.104   2.711
72652W        W31748  15.092  24.559   0.728
72653W        W31749   8.367  30.933   3.312
72654W        W31750  12.204  42.969  13.462
72655W        W31751  19.725  29.921   4.695
72656W        W31752   4.763  26.654  14.026
72657W        W31753   1.412   4.230  12.002
72658W        W31754  34.946  39.434   3.768
72659W        W31755  29.102  17.774  10.995
72660W        W31756  39.454  30.975   4.155
72661W        W31757  35.080  33.491   1.328
72662W        W31758  21.580  39.476   1.420
72663W        W31759  41.962  32.972  11.584
72664W        W31760  37.043  19.709   3.678
72665W        W31761  29.134   0.376  13.495
72666W        W31762   4.833  31.931  10.995
72667W        W31763  36.003  39.438   1.818
72668W        W31764  21.123  13.713   4.723
72669W        W31765   7.297  14.667  14.923
72670W        W31766  36.863  15.614   3.228
72671W        W31767  25.574  19.198   1.379
72672W        W31768  33.524   3.287  11.040
72673W        W31769  37.436   9.354  13.346
72674W        W31770   1.274  15.290  12.936
72675W        W31771  40.968  16.701  12.044
72676W        W31772  38.512  12.849   4.135
72677W        W31773  30.909  35.026  13.859
72678W        W31774   7.302  22.577   2.337
72679W        W31775  42.430  27.656   2.352
72680W        W31776  31.533  39.046   4.232
72681W        W31777  10.725  19.082   0.456
72682W        W31778  37.430   8.710   3.205
72683W        W31779  44.468  28.676  13.900
72684W        W31780  19.063  44.797   4.120
72685W        W31781   0.846   2.386   1.744
72686W        W31782   5.708  19.540   4.317
72687W        W31783  27.954  37.000   4.297
72688W        W31784   3.861  23.497   1.797
72689W        W31785  11.642   3.304  12.063
72690W        W31786  13.643  16.649   4.682
72691W        W31787   2.403   0.767  12.941
72692W        W31788  40.460  41.424  11.103
72693W        W31789   8.788   2.244  14.383
72694W        W31790  33.062  44.974   2.829
72695W        W31791   0.358  43.465  14.444
72696W        W31792  43.453  18.783  12.494
72697W        W31793   2.806   6.198  10.985
72698W        W31794  26.013  28.101   3.195
72699W        W31795  35.011  22.129  14.998
72700W        W31796  13.349   5.757  12.575
72701W        W31797  36.522  22.690   0.767
72702W        W31798  24.509  19.201  13.355
72703W        W31799  19.156  21.153  11.600
72704W        W31800   5.413   8.830   3.176
72705W        W31801  36.387  41.327   1.809
72706W        W31802   1.851   6.921  12.917
72707W        W31803  39.341  17.111  12.927
72708W        W31804  16.170  17.207  14.283
72709W        W31805  32.633  40.856  11.446
72710W        W31806   3.945   9.264  12.868
72711W        W31807  29.450  20.745  14.503
72712W        W31808  10.297  31.485   2.317
72713W        W31809  22.098  43.346  13.974
72714W        W31810  38.463  36.934   1.427
72715W        W31811  44.900  27.656   2.273
72716W        W31812  42.374  23.601  12.985
72717W        W31813  30.056  11.185  10.901
72718W        W31814  43.985   2.819   4.824
72719W        W31815   1.750  38.453  14.956
72720W        W31816  34.400  33.388  14.276
72721W        W31817   8.877  10.764  10.616
72722W        W31818  32.083   7.233  11.955
72723W        W31819  17.242  43.335  10.579
72724W        W31820  23.084  10.734  14.345
72725W        W31821  16.802  28.041   2.894
72726W        W31822  26.536   6.883   3.752
72727W        W31823  28.108  39.466  12.530
72728W        W31824  14.235  21.740  14.512
72729W        W31825  44.968  25.490   3.198
72730W        W31826  26.150  39.909   3.192
72731W        W31827  34.504  28.951   2.667
72732W        W31828   9.815  33.401   0.755
72733W        W31829  43.016  37.045   2.364
72734W        W31830  26.613   4.289  14.962
72735W        W31831  21.637  37.382   2.186
72736W        W31832  25.054  33.494  13.981
72737W        W31833  41.937  40.026   2.693
72738W        W31834  29.485  34.606  11.109
72739W        W31835   4.855  11.765  14.292
72740W        W31836   7.313   4.896  11.501
72741W        W31837  35.373  26.684  11.398
72742W        W31838  37.406  37.430  12.447
72743W        W31839  38.893  40.425  12.396
72744W        W31840  39.557   8.852  14.427
72745W        W31841  22.683  29.637   1.797
72746W        W31842  25.160  16.674  10.636
72747W        W31843  30.481  30.018   0.360
72748W        W31844  23.198  39.524   0.351
72749W        W31845  14.709  10.145   4.707
72750W        W31846  42.920  31.434   2.266
72751W        W31847  14.239   9.193  11.994
72752W        W31848  37.411   1.443  12.899
72753W        W31849  29.119  36.097   1.289
72754W        W31850  15.676   8.776  12.908
72755W        W31851  42.916   6.364   1.728
72756W        W31852   2.446  20.652  13.503
72757W        W31853   0.395  30.487   2.797
72758W        W31854   1.972  13.181  10.474
72759W        W31855  43.509  28.930  12.450
72760W        W31856  32.036  19.677   4.658
72761W        W31857  19.612  27.967   4.349
72762W        W31858  25.583   6.720   0.957
72763W        W31859   6.353  28.157   3.219
72764W        W31860  18.192  39.914   3.869
72765W        W31861  12.745   1.768  11.438
72766W        W31862  27.076  31.464   3.270
72767W        W31863   1.295  19.154   4.778
72768W        W31864  15.695  23.548   3.867
72769W        W31865   6.219  27.195   3.654
72770W        W31866  17.208  37.349   1.442
72771W        W31867  17.176  31.644  12.552
72772W        W31868  38.898   6.334  10.939
72773W        W31869  32.436  43.483  11.510
72774W        W31870  40.363  10.860  14.889
72775W        W31871  36.407  28.574   1.894
72776W        W31872  42.465   7.732  12.524
72777W        W31873  19.717  34.436   1.719
72778W        W31874  11.207  23.093   1.321
72779W        W31875  34.972  39.903  11.373
72780W        W31876  17.095   7.260   2.787
72781W        W31877  28.527  38.958  10.618
72782W        W31878  22.162   9.720  10.997
72783W        W31879  14.666  16.793   2.862
72784W        W31880  23.177   0.796   2.896
72785W        W31881  39.827  40.922  12.093
72786W        W31882  21.220   4.310   5.226
72787W        W31883  25.623   3.410   1.926
72788W        W31884  34.384  43.826  11.509
72789W        W31885   7.379  26.992  10.555
72790W        W31886  29.967   8.812  10.605
72791W        W31887  22.551   4.936   4.803
72792W        W31888  20.034   8.808  13.499
72793W        W31889   6.858   6.731   4.678
72794W        W31890  33.538  10.728   3.870
72795W        W31891   6.207  32.928  13.496
72796W        W31892  18.073   9.356  14.792
72797W        W31893  44.820  32.123   4.230
72798W        W31894  43.457  40.807   3.382
72799W        W31895   7.320  44.292   2.308
72800W        W31896  31.493  28.025  13.418
72801W        W31897  38.486  41.905  13.821
72802W        W31898   3.301  21.728   4.208
72803W        W31899   4.842  44.287   1.865
72804W        W31900   9.705  27.686   2.702
72805W        W31901  18.712   4.741   2.404
72806W        W31902  22.045  40.486   4.759
72807W        W31903  41.391  31.116  11.116
72808W        W31904  35.571   6.827   2.199
72809W        W31905  35.882  33.102   2.716
72810W        W31906  30.653  16.645  14.913
72811W        W31907  44.389  10.298  14.330
72812W        W31908  26.985  14.110  14.460
72813W        W31909  41.810  20.113  14.881
72814W        W31910  22.510  36.986   2.291
72815W        W31911  17.617  19.072  14.759
72816W        W31912  31.048   6.722  11.454
72817W        W31913  14.787  14.247   1.325
72818W        W31914  24.579  16.318  12.412
72819W        W31915  23.608  41.031  14.854
72820W        W31916  10.308  37.024  13.021
72821W        W31917   3.817  12.701   0.367
72822W        W31918  22.165  29.670   4.785
72823W        W31919   4.826  43.497  10.016
72824W        W31920  30.095  44.265  12.965
72825W        W31921  22.106  14.142  13.054
72826W        W31922  40.860  16.097   2.324
72827W        W31923  20.559  23.636  13.934
72828W        W31924  18.166  22.598   0.949
72829W        W31925  16.232   4.835  10.489
72830W        W31926  36.035  17.574   1.281
72831W        W31927  24.158  30.041  10.523
72832W        W31928  20.175  15.703   1.797
72833W        W31929   4.885   7.875   0.795
72834W        W31930  28.553  40.015  10.906
72835W        W31931  35.552  36.069   1.278
72836W        W31932  23.519  33.916  11.950
72837W        W31933  41.819  15.111  13.023
72838W        W31934  15.176  26.195  11.536
72839W        W31935  24.672   2.889  13.421
72840W        W31936   4.848  43.294  14.428
72841W        W31937  43.448  41.395   3.163
72842W        W31938  41.010  31.094   4.774
72843W        W31939  26.056   6.695  14.013
72844W        W31940  30.932  24.592  13.341
72845W        W31941   4.837  13.231  11.903
72846W        W31942   2.772  37.503   0.777
72847W        W31943  30.125   9.812  11.568
72848W        W31944  35.530  18.221  10.911
72849W        W31945  12.273  24.043  13.966
72850W        W31946  25.697  32.518  13.403
72851W        W31947  10.367  36.506   5.229
72852W        W31948   8.381  28.990  13.518
72853W        W31949   6.756  36.458   0.872
72854W        W31950  41.523  20.037  12.520
72855W        W31951  16.145  22.055   0.356
72856W        W31952  25.046  25.194   2.703
72857W        W31953   5.817  35.426  12.863
72858W        W31954  32.022  18.194  14.959
72859W        W31955  32.627  24.547   2.260
72860W        W31956  17.127  31.970   4.701
72861W        W31957  26.532  12.330   3.677
72862W        W31958  26.133  31.999   0.850
72863W        W31959  29.164  44.363  13.821
72864W        W31960  10.868  19.705  14.025
72865W        W31961  19.051  40.017   2.388
72866W        W31962   7.224   6.696  14.440
72867W        W31963  41.396  11.192  14.341
72868W        W31964  35.919   4.769  14.812
72869W        W31965   1.945   2.342   4.786
72870W        W31966  32.462   5.294  10.912
72871W        W31967  28.117  18.730   3.156
72872W        W31968  22.674  13.285  11.583
72873W        W31969  23.505  37.438   2.362
72874W        W31970  36.019  15.600   2.365
72875W        W31971  23.063  16.300   3.679
72876W        W31972  22.136   9.351   3.219
72877W        W31973  22.647  27.461   2.389
72878W        W31974  37.471   3.423   1.370
72879W        W31975   6.269  19.715  14.960
72880W        W31976  26.112   1.391   2.383
72881W        W31977  25.667  12.325  14.024
72882W        W31978  17.066  40.922   1.395
72883W        W31979  21.044   0.809  11.987
72884W        W31980  31.921   0.477   1.860
72885W        W31981  38.925  35.375   3.244
72886W        W31982   1.415  40.930  11.996
72887W        W31983  23.167   5.377  12.863
72888W        W31984   5.772  21.106  11.581
72889W        W31985  37.489  16.247  10.427
72890W        W31986   8.368  32.130   1.851
72891W        W31987  36.991   6.834  10.053
72892W        W31988  34.042  40.923  14.348
72893W        W31989  34.437  17.223  13.915
72894W        W31990  37.885  25.643   0.946
72895W        W31991   9.188  11.818   0.477
72896W        W31992  35.933  18.128  11.414
72897W        W31993  40.033  31.083   0.837
72898W        W31994  20.241  34.883   4.334
72899W        W31995  37.458  24.105   2.332
72900W        W31996  26.116  36.348  12.454
72901W        W31997  15.676  40.884  14.791
72902W        W31998  39.977  12.243  11.613
72903W        W31999  27.960   2.346   9.972
72904W        W32000  19.689  31.565   4.656
72905W        W32001  27.497   8.717  12.484
72906W        W32002  23.613  24.083  11.909
72907W        W32003  10.275  41.376   2.820
72908W        W32004  38.027  34.893  14.426
72909W        W32005  38.546   6.820   0.338
72910W        W32006  13.176  26.097  12.854
72911W        W32007  17.134  11.667  14.943
72912W        W32008  10.668  41.434  14.980
72913W        W32009  15.619   2.723  11.985
72914W        W32010  33.587  19.138   1.878
72915W        W32011  16.733  17.102   0.470
72916W        W32012  21.138  40.851  10.612
72917W        W32013  13.209  39.918  14.945
72918W        W32014  42.512  35.025   1.734
72919W        W32015  34.609  36.576  11.946
72920W        W32016   8.239  17.127  12.542
72921W        W32017   6.218  39.985   1.712
72922W        W32018  22.010  21.125   1.873
72923W        W32019   5.762  37.061  13.038
72924W        W32020  10.243  31.591  13.884
72925W        W32021  33.111  23.185  13.433
72926W        W32022   4.360  44.886   4.343
72927W        W32023  44.954  18.198   0.791
72928W        W32024  20.040   9.226   2.712
72929W        W32025  20.618  36.355   2.407
72930W        W32026  41.962  31.641  10.983
72931W        W32027   5.853  34.939  12.460
72932W        W32028  13.105   5.813   3.871
72933W        W32029  14.759  39.844   2.735
72934W        W32030  18.788  23.517   2.872
72935W        W32031   6.391  37.908  12.406
72936W        W32032  14.686   7.739   3.661
72937W        W32033  10.236   5.916  14.485
72938W        W32034  37.883   6.734   2.201
72939W        W32035  13.723  25.562  12.014
72940W        W32036  12.196   4.866   0.798
72941W        W32037  36.863  35.054  12.340
72942W        W32038   9.337  42.988   1.787
72943W        W32039  23.237  42.310  11.493
72944W        W32040   7.684  30.060  14.507
72945W        W32041   8.303  43.326   2.340
72946W        W32042  33.486  19.570  13.415
72947W        W32043  43.514  39.434  14.362
72948W        W32044  21.141  27.618   1.439
72949W        W32045   6.831  20.545  14.393
72950W        W32046  21.676  40.036  10.932
72951W        W32047  13.123   8.879  11.930
72952W        W32048  24.657  44.905  14.322
72953W        W32049  43.987  18.556   1.223
72954W        W32050  23.531  32.609   0.775
72955W        W32051   8.658  10.785   1.255
72956W        W32052  38.922   5.205  10.930
72957W        W32053  12.299   1.323   2.702
72958W        W32054  21.576  33.874  13.891
72959W        W32055   4.437  34.969  12.997
72960W        W32056  19.079  34.920  13.954
72961W        W32057  24.627   1.450   1.312
72962W        W32058  26.597  32.630  13.519
72963W        W32059  21.092  21.606   4.329
72964W        W32060  38.002  43.965   0.774
72965W        W32061  41.411   6.800   0.472
72966W        W32062  19.172   3.295  11.484
72967W        W32063  23.727  12.697   4.811
72968W        W32064   5.774  21.166   4.149
72969W        W32065   7.868  39.371   4.742
72970W        W32066  29.145   1.314   1.258
72971W        W32067  29.115  34.992  10.905
72972W        W32068   7.334   8.740  14.942
72973W        W32069  12.657   6.784   4.674
72974W        W32070  25.700  21.677   0.271
72975W        W32071  24.531   8.659  14.365
72976W        W32072  44.326  12.724   2.874
72977W        W32073  44.423  30.634   4.120
72978W        W32074  37.861  30.996  11.521
72979W        W32075   5.704  16.772   0.876
72980W        W32076   4.741  34.881   0.967
72981W        W32077   0.402   1.952   2.870
72982W        W32078  14.693  41.864  12.541
72983W        W32079  11.680  30.614   1.771
72984W        W32080  23.573   1.829   4.315
72985W        W32081  44.498   7.773  11.932
72986W        W32082  33.568  20.072   0.390
72987W        W32083   7.892   4.833  12.365
72988W        W32084   9.670   5.800   0.899
72989W        W32085  41.419  36.993   0.312
72990W        W32086  42.523  22.713  14.982
72991W        W32087  22.089  35.568  11.443
72992W        W32088  43.810   3.247   4.782
72993W        W32089  31.916  32.522   3.660
72994W        W32090  25.097   8.311  10.978
72995W        W32091   1.417  40.443   0.893
72996W        W32092  29.115  39.045  13.360
72997W        W32093  43.453  39.427   2.386
72998W        W32094  15.635   1.284   0.839
72999W        W32095   1.260  12.328  14.882
73000W        W32096   3.234  35.467   0.437
73001W        W32097  11.807  27.056   3.300
73002W        W32098  29.612  10.633   1.926
73003W        W32099  32.391  11.661   3.744
73004W        W32100   1.910   6.877  11.454
73005W        W32101  30.962   6.200  14.905
73006W        W32102   7.231  25.993   3.248
73007W        W32103   2.750  36.489  12.367
73008W        W32104  20.086  33.108  13.792
73009W        W32105  19.702  35.098   3.250
73010W        W32106  41.298  12.703  13.057
73011W        W32107  29.137  18.753  11.098
73012W        W32108  38.430  43.882  12.475
73013W        W32109  17.716  10.751  14.280
73014W        W32110  15.185  23.516  14.924
73015W        W32111  36.098   0.331  12.853
73016W        W32112  18.687   8.811  14.940
73017W        W32113   1.419  27.457   1.870
73018W        W32114  35.923   9.286   5.104
73019W        W32115  17.182  24.542   0.398
73020W        W32116  32.994   1.946  14.881
73021W        W32117  40.010  33.923  14.408
73022W        W32118  33.962  28.474   4.313
73023W        W32119  36.382  25.698  12.043
73024W        W32120  37.990  26.019  13.050
73025W        W32121  20.232  35.571  11.422
73026W        W32122  31.639  19.750   2.885
73027W        W32123  37.427   9.164   0.354
73028W        W32124  34.438   9.679   3.323
73029W        W32125  33.097   9.657  12.347
73030W        W32126  31.085  24.146   3.650
73031W        W32127  31.442   6.237  14.912
73032W        W32128  24.071  38.971   1.411
73033W        W32129  13.271  37.903   1.384
73034W        W32130  29.134   1.918  11.472
73035W        W32131  39.015  25.490  13.416
73036W        W32132  21.104  11.303   2.688
73037W        W32133  19.204   6.736  13.472
73038W        W32134  35.583  27.602   3.860
73039W        W32135  10.820  40.396   2.207
73040W        W32136  38.961  25.015   1.353
73041W        W32137   3.333  19.612  10.643
73042W        W32138  19.089  38.485   2.239
73043W        W32139  19.209  15.714   1.277
73044W        W32140   7.218  33.562  11.574
73045W        W32141  32.021   7.761   4.638
73046W        W32142  18.768  16.290  10.638
73047W        W32143   4.377  20.538  13.835
73048W        W32144  17.762   5.931  13.395
73049W        W32145  28.053  44.898  14.395
73050W        W32146  44.389  17.141  12.920
73051W        W32147  20.265  39.967   1.359
73052W        W32148  30.478  16.642   1.826
73053W        W32149  28.038  25.640   4.151
73054W        W32150   5.735  34.096  12.521
73055W        W32151  11.831  15.703   2.887
73056W        W32152  32.122  23.003   0.755
73057W        W32153   8.221  41.013  12.452
73058W        W32154  14.815  29.055   5.640
73059W        W32155  27.451  11.783  12.027
73060W        W32156  14.748  39.540  11.003
73061W        W32157  31.083  32.111   4.804
73062W        W32158  31.152   3.744   1.329
73063W        W32159   8.895  36.996  10.468
73064W        W32160  13.634  41.481  10.936
73065W        W32161   5.201  27.630  12.383
73066W        W32162  12.200  20.673   0.770
73067W        W32163   8.387  39.337  14.769
73068W        W32164  17.202   7.399   3.255
73069W        W32165  37.998   6.387   4.164
73070W        W32166  30.110  36.460  12.347
73071W        W32167   2.265  18.184   4.117
73072W        W32168   6.881  16.732  12.895
73073W        W32169  34.386   6.259  11.912
73074W        W32170  25.609   6.345   1.821
73075W        W32171  36.086  25.193  10.483
73076W        W32172  10.814  33.444   1.397
73077W        W32173  15.587  39.446   3.789
73078W        W32174  29.935  37.359   3.690
73079W        W32175  17.669  14.658   4.705
73080W        W32176  20.703  42.866   1.399
73081W        W32177  14.701   6.875   0.824
73082W        W32178  38.947  17.563   0.874
73083W        W32179  40.477  23.657  11.907
73084W        W32180   9.787  20.644   3.172
73085W        W32181   9.182  19.744   3.220
73086W        W32182  37.491  36.975   4.254
73087W        W32183  17.641   8.673   5.601
73088W        W32184  33.549  42.802   2.662
73089W        W32185  26.523  13.176   3.861
73090W        W32186   7.243   2.799  14.952
73091W        W32187   6.244  13.744  12.422
73092W        W32188   1.461  24.224   2.338
73093W        W32189   2.459  29.568  14.377
73094W        W32190  30.055  17.096   2.775
73095W        W32191  20.260  15.296   3.840
73096W        W32192  24.489  25.174   3.790
73097W        W32193   0.281  19.577   1.390
73098W        W32194  35.524  11.148  13.455
73099W        W32195  26.095  24.122  11.924
73100W        W32196  37.984  34.939   2.854
73101W        W32197  27.458   0.435  10.889
73102W        W32198  38.921  30.092  11.867
73103W        W32199  27.959  40.042  12.463
73104W        W32200  29.175  32.600   4.167
73105W        W32201  36.511   6.416  14.968
73106W        W32202   6.252  41.899   0.246
73107W        W32203  22.684  11.818   3.745
73108W        W32204  26.080   5.374  10.518
73109W        W32205  43.891  29.501  10.492
73110W        W32206  35.017  14.800   1.211
73111W        W32207  39.918  40.506   4.291
73112W        W32208  31.029   6.840   3.800
73113W        W32209   6.381  43.379   0.842
73114W        W32210   6.235   9.732  12.371
73115W        W32211  10.301  15.192   3.334
73116W        W32212  34.006  40.343   0.943
73117W        W32213   6.880  35.442  10.939
73118W        W32214  31.902  41.886  12.410
73119W        W32215   4.281  44.325   3.365
73120W        W32216   8.853   6.386   0.737
73121W        W32217  33.502  12.297   0.913
73122W        W32218  35.399  28.117  10.569
73123W        W32219  14.318  29.426  14.337
73124W        W32220  36.879  25.575   3.739
73125W        W32221  42.420  21.143   4.245
73126W        W32222   7.776  44.379   4.660
73127W        W32223  29.580   0.876   2.667
73128W        W32224   2.926  35.380   1.325
73129W        W32225  29.144  30.129   4.173
73130W        W32226   7.293   6.219  13.515
73131W        W32227  31.914  20.577   2.724
73132W        W32228  17.187   5.786  12.356
73133W        W32229  16.617  31.538  10.957
73134W        W32230  43.514  11.642   3.656
73135W        W32231  18.175  34.377  12.444
73136W        W32232  17.286   1.836   3.834
73137W        W32233  43.277  39.410   0.424
73138W        W32234   9.153  36.487   1.394
73139W        W32235  32.533  10.871  14.366
73140W        W32236   7.769  24.010   2.796
73141W        W32237   3.376  35.370  10.638
73142W        W32238   2.442  40.034   0.363
73143W        W32239  38.956   9.364   2.391
73144W        W32240  34.995  20.190   2.332
73145W        W32241  27.451  22.164   3.356
73146W        W32242  22.639  10.154   3.629
73147W        W32243   5.927   7.400   1.347
73148W        W32244  19.124  37.564  13.891
73149W        W32245  14.814  18.214  10.499
73150W        W32246   7.779  21.512   3.146
73151W        W32247   2.345  11.818   3.655
73152W        W32248  43.448  37.581  14.822
73153W        W32249  12.760  21.624   2.361
73154W        W32250   5.729  24.028  12.469
73155W        W32251  32.039  25.186   5.602
73156W        W32252   1.802  40.916   1.245
73157W        W32253  35.860   7.405  13.420
73158W        W32254  25.084   6.847   1.921
73159W        W32255  30.113  27.531   0.815
73160W        W32256  42.448  32.415  13.022
73161W        W32257  28.085  23.640   2.377
73162W        W32258  44.450  35.377  13.496
73163W        W32259  19.039   4.866  13.480
73164W        W32260   2.415  13.610  13.421
73165W        W32261   4.250  36.841   4.756
73166W        W32262  26.645  20.703  13.843
73167W        W32263  15.290  25.216   2.269
73168W        W32264  44.998  28.099   4.195
73169W        W32265  36.923  42.032  14.427
73170W        W32266   1.973  38.976  12.950
73171W        W32267  18.682  41.423  13.993
73172W        W32268   3.453  36.967  14.412
73173W        W32269  29.031  40.871  11.937
73174W        W32270   6.856  11.138   4.743
73175W        W32271  14.800  12.741  11.505
73176W        W32272  25.193   3.852   1.311
73177W        W32273  34.080  39.866  13.877
73178W        W32274  20.686  22.028  14.940
73179W        W32275  29.659   7.853  10.895
73180W        W32276   4.257  34.930  11.087
73181W        W32277   0.476  13.816  14.323
73182W        W32278   9.660  44.362   2.283
73183W        W32279  11.679  43.309  13.818
73184W        W32280   7.298  41.788  10.492
73185W        W32281  32.474  36.564   2.819
73186W        W32282  17.225  42.368  11.931
73187W        W32283   3.308  35.397   0.778
73188W        W32284  20.244  30.095  11.568
73189W        W32285  36.442  16.222  10.504
73190W        W32286  13.692  36.582   0.780
73191W        W32287  37.874  42.792  12.407
73192W        W32288  26.660  36.011  13.341
73193W        W32289   4.730  37.012   2.238
73194W        W32290  18.624  22.731   5.182
73195W        W32291   3.305  22.624  13.034
73196W        W32292   8.236   5.807  14.856
73197W        W32293  16.252  34.497  11.602
73198W        W32294  18.633  28.936   4.284
73199W        W32295  28.163  12.731   1.708
73200W        W32296  25.024   0.743   4.741
73201W        W32297  18.578   0.980   5.165
73202W        W32298  41.836  21.062   3.817
73203W        W32299   7.228  24.040  10.156
73204W        W32300  17.083  37.977  13.835
73205W        W32301  27.986  25.606  14.389
73206W        W32302  40.487  43.454  11.884
73207W        W32303  27.971  13.794   2.238
73208W        W32304  44.852  43.954  10.984
73209W        W32305  41.383  37.062   0.857
73210W        W32306   2.780  26.670   0.829
73211W        W32307  21.131  28.449   9.941
73212W        W32308   0.961  19.716   2.865
73213W        W32309   1.347  28.601  12.960
73214W        W32310  31.496  42.402  10.553
73215W        W32311  10.798  43.463  11.035
73216W        W32312  14.749  26.090  14.470
73217W        W32313   7.715  23.597  11.395
73218W        W32314  43.300  31.083  11.008
73219W        W32315  41.849  29.622  11.566
73220W        W32316  25.513  22.539  13.542
73221W        W32317   0.335  37.938  13.818
73222W        W32318  28.628  14.701   4.205
73223W        W32319  31.422  34.088  11.965
73224W        W32320  27.061  16.574   2.673
73225W        W32321  19.150   5.852   3.243
73226W        W32322  21.032  38.934  12.071
73227W        W32323   2.385   1.827  11.529
73228W        W32324  17.198   6.706  13.544
73229W        W32325  23.106  44.953   1.785
73230W        W32326   8.311   1.773   1.432
73231W        W32327  20.735  20.667   0.442
73232W        W32328  19.205  18.282   0.278
73233W        W32329  35.464  13.668  11.467
73234W        W32330  32.887  33.412   0.379
73235W        W32331  12.799  21.086   5.189
73236W        W32332  14.606  22.706  10.612
73237W        W32333  23.990  39.473   1.911
73238W        W32334  25.482   5.862  10.412
73239W        W32335  21.689   2.805  10.641
73240W        W32336   5.223  18.271   5.110
73241W        W32337  39.460  44.809  10.488
73242W        W32338  38.400  25.047   1.840
73243W        W32339  17.262   6.765   4.302
73244W        W32340  29.013  26.600  11.451
73245W        W32341  25.562  12.725   0.744
73246W        W32342  14.232  42.291  13.025
73247W        W32343  26.630   5.306   4.297
73248W        W32344  12.700   1.850   4.141
73249W        W32345   2.346  32.020  14.361
73250W        W32346  36.465  15.140   1.901
73251W        W32347  29.945  22.007   4.326
73252W        W32348  25.197  13.126   1.930
73253W        W32349   6.231  44.279  13.420
73254W        W32350   5.904  29.634   2.415
73255W        W32351   6.833   5.737   0.325
73256W        W32352  35.053  40.493   0.730
73257W        W32353  19.626  14.732   3.851
73258W        W32354  43.833  11.811   0.800
73259W        W32355  21.606  31.407  13.017
73260W        W32356   5.368  22.034  12.851
73261W        W32357   1.361  21.150   3.768
73262W        W32358  30.037  30.598   0.842
73263W        W32359   1.801  23.625  13.463
73264W        W32360  10.658  27.487   1.376
73265W        W32361  19.694  21.223   3.359
73266W        W32362  22.206  25.598  13.439
73267W        W32363  44.413  16.611   2.831
73268W        W32364  37.411  11.362  11.476
73269W        W32365   1.411  33.420   4.746
73270W        W32366   2.758  19.262   2.679
73271W        W32367  28.036  27.689  10.132
73272W        W32368   9.777  12.670  11.499
73273W        W32369  41.966   2.366   4.800
73274W        W32370  30.054  26.182   1.798
73275W        W32371  35.491  34.399   3.684
73276W        W32372  22.034  30.495   3.692
73277W        W32373  10.301  26.551   4.637
73278W        W32374  32.100   7.177   1.324
73279W        W32375  35.526  31.413  14.810
73280W        W32376  41.996  19.671  14.468
73281W        W32377  38.494  13.195  10.588
73282W        W32378  16.074  19.704  14.933
73283W        W32379  28.933  13.341   3.796
73284W        W32380  23.599   8.179  13.831
73285W        W32381   0.335  20.070  13.503
73286W        W32382  10.367  34.575   2.198
73287W        W32383  41.354  32.425  12.825
73288W        W32384  24.195   2.418   4.617
73289W        W32385   4.279   8.724   0.285
73290W        W32386  19.278  34.952   1.288
73291W        W32387  26.568  43.018  10.894
73292W        W32388  42.464  42.929  10.995
73293W        W32389  11.353  21.207  13.823
73294W        W32390   2.278  30.150  12.058
73295W        W32391   2.864  35.908   3.224
73296W        W32392   5.914  14.173  14.773
73297W        W32393  17.123  10.811  12.551
73298W        W32394  32.576  32.951   0.943
73299W        W32395  15.677  24.709   1.760
73300W        W32396   8.302  27.650   1.409
73301W        W32397  20.751   7.210   9.635
73302W        W32398   5.816  32.392   3.270
73303W        W32399  39.840  12.258  13.891
73304W        W32400   4.770  23.713  11.448
73305W        W32401  11.734  35.883  11.431
73306W        W32402   9.871  32.056   4.154
73307W        W32403  35.420  44.991  13.814
73308W        W32404  41.339  39.358   0.314
73309W        W32405   9.794  10.202   1.426
73310W        W32406  32.927  12.246  11.942
73311W        W32407   8.305   6.237   2.386
73312W        W32408  17.305   9.858   4.644
73313W        W32409  38.501  17.154   0.417
73314W        W32410  17.246  31.631   2.714
73315W        W32411  22.691  32.987   1.699
73316W        W32412  12.289   7.379   4.254
73317W        W32413  41.889  11.815  12.886
73318W        W32414  35.575   9.857  13.989
73319W        W32415  27.120  32.487   3.165
73320W        W32416  43.463  32.938   4.636
73321W        W32417  41.007  28.544   3.294
73322W        W32418  26.650  36.532   3.832
73323W        W32419   5.257  15.676  13.924
73324W        W32420   0.907   3.778   0.867
73325W        W32421  18.103  31.426  13.401
73326W        W32422   5.899  30.458  13.955
73327W        W32423  34.512  42.440  14.412
73328W        W32424  12.792  23.129   3.318
73329W        W32425  29.628  21.107  13.416
73330W        W32426  26.521  24.005   4.138
73331W        W32427  37.534   2.286   1.443
73332W        W32428  35.025   3.424  10.960
73333W        W32429  15.771  10.334   3.705
73334W        W32430  28.678  17.104   3.185
73335W        W32431  38.495  33.015  12.526
73336W        W32432  11.154  24.081   4.316
73337W        W32433  44.933  10.165   0.410
73338W        W32434  13.650  34.924   0.333
73339W        W32435  42.878  41.035  13.479
73340W        W32436   8.215   0.977  12.541
73341W        W32437  21.730  19.165  10.089
73342W        W32438  34.458  30.484  13.446
73343W        W32439  16.722  17.072   4.705
73344W        W32440  43.983  17.290  12.493
73345W        W32441  12.729  22.107  12.519
73346W        W32442   0.825  11.366   2.753
73347W        W32443  27.447  25.145  14.915
73348W        W32444  11.774  11.650   1.725
73349W        W32445  15.604   5.394   4.269
73350W        W32446  30.587  34.424   1.816
73351W        W32447  34.596   9.254   2.276
73352W        W32448  31.615  43.288  12.466
73353W        W32449  36.008   8.327  11.574
73354W        W32450  21.623  38.569   4.288
73355W        W32451  30.964  41.299  13.883
73356W        W32452  14.161   7.322  14.380
73357W        W32453  31.044  19.650  10.601
73358W        W32454  23.097  28.077   1.396
73359W        W32455   2.850  28.654  12.095
73360W        W32456   1.869  10.366  14.002
73361W        W32457  40.322  34.372  12.022
73362W        W32458  29.545  42.998  11.562
73363W        W32459  41.352  10.331   1.256
73364W        W32460  35.421  43.974   4.802
73365W        W32461  10.224  36.489  12.926
73366W        W32462  29.558   5.244   2.801
73367W        W32463   2.436   7.272  10.591
73368W        W32464   2.422   2.436   2.881
73369W        W32465  25.039  21.638  14.019
73370W        W32466  25.616  24.176   1.314
73371W        W32467  18.776  12.781  14.951
73372W        W32468   3.267   2.850   4.833
73373W        W32469  11.672  11.353  12.906
73374W        W32470   1.734  28.632   0.870
73375W        W32471  40.456  25.010   3.630
73376W        W32472  39.816  31.563  11.481
73377W        W32473  11.648  29.494  14.956
73378W        W32474  26.141  44.343   0.736
73379W        W32475  31.440  25.689   0.419
73380W        W32476  12.130  10.875   4.801
73381W        W32477  12.270   0.837  11.570
73382W        W32478  25.209   9.677   2.284
73383W        W32479  32.054  39.975  14.973
73384W        W32480   9.369  33.474  11.061
73385W        W32481   8.715  26.122   1.752
73386W        W32482  19.720  35.110   1.935
73387W        W32483  42.867   0.363  11.434
73388W        W32484   6.876  39.351  13.836
73389W        W32485  31.988  39.320   3.698
73390W        W32486  34.549  29.162  12.838
73391W        W32487  11.823  14.595   5.607
73392W        W32488  17.801  41.480  11.082
73393W        W32489  36.884  31.547  13.512
73394W        W32490  19.179  43.312  10.418
73395W        W32491  14.743   5.768   4.141
73396W        W32492  19.596  43.017   3.182
73397W        W32493  32.575  15.140   1.281
73398W        W32494   8.864  11.301  12.480
73399W        W32495  15.816  33.005  14.767
73400W        W32496  17.273  39.886  10.956
73401W        W32497   9.667   8.668   4.630
73402W        W32498  37.344  25.042   1.419
73403W        W32499   6.412  23.573  13.317
73404W        W32500  36.549  18.206   1.373
73405W        W32501  35.564  19.597  13.836
73406W        W32502  12.771   0.369   1.875
73407W        W32503  44.297  36.534   2.753
73408W        W32504  25.606  18.170  13.999
73409W        W32505  15.159  14.137  11.856
73410W        W32506  24.207  25.660  12.426
73411W        W32507  12.787   3.219   4.299
73412W        W32508   2.816  32.566  11.550
73413W        W32509  13.729  24.569   3.218
73414W        W32510  43.351  13.675  11.520
73415W        W32511  21.724  26.200  13.400
73416W        W32512  36.973   4.401   1.346
73417W        W32513  34.602  32.545  10.910
73418W        W32514  12.777   9.238  10.593
73419W        W32515  12.260  38.820  11.563
73420W        W32516  16.756  27.518  14.478
73421W        W32517   5.808  24.223   3.641
73422W        W32518  21.658  42.459  14.470
73423W        W32519   3.739  38.507   0.289
73424W        W32520  32.037   0.871  12.441
73425W        W32521  26.080   3.363  13.426
73426W        W32522   2.865  33.499   1.869
73427W        W32523  38.015  22.726  10.458
73428W        W32524  22.021   4.314  14.424
73429W        W32525  26.004  31.538  10.967
73430W        W32526  10.666   9.733   1.256
73431W        W32527  15.626  26.630   3.827
73432W        W32528  21.687  28.485   3.636
73433W        W32529  24.027  33.881  14.414
73434W        W32530  34.037  16.269   3.761
73435W        W32531  18.283  16.603  11.435
73436W        W32532  28.155  11.846  12.375
73437W        W32533  25.172  37.897   1.261
73438W        W32534  26.104  25.982  10.416
73439W        W32535   9.648  18.289   3.639
73440W        W32536   6.326  12.839   3.695
73441W        W32537  29.657  37.908   5.218
73442W        W32538  23.054  31.611  10.584
73443W        W32539  20.717  29.926   0.830
73444W        W32540   4.211  44.408  11.935
73445W        W32541  44.488  31.920   0.359
73446W        W32542   8.194  25.629   1.318
73447W        W32543  34.979   0.306   1.851
73448W        W32544   9.659   0.398   0.273
73449W        W32545   7.238   9.194   1.353
73450W        W32546  43.875  20.260  13.056
73451W        W32547   8.359  20.725   2.368
73452W        W32548  30.647   5.730  12.415
73453W        W32549  12.775   7.862  11.584
73454W        W32550   8.798   9.837  10.460
73455W        W32551   9.805  26.617   2.789
73456W        W32552  34.544  17.591   3.157
73457W        W32553  11.743   3.788   2.266
73458W        W32554  20.106   4.716   1.711
73459W        W32555  17.676  35.551  10.467
73460W        W32556  11.329  34.571   3.692
73461W        W32557  31.626  22.601   4.158
73462W        W32558   0.887   9.309   0.774
73463W        W32559   2.733  26.620  11.004
73464W        W32560  24.992   9.250  14.955
73465W        W32561  14.632  44.502  14.995
73466W        W32562  32.890   4.802   3.661
73467W        W32563  26.143   5.726  13.359
73468W        W32564   2.908  25.530  13.828
73469W        W32565  35.542  30.939  14.916
73470W        W32566  27.635  27.992   2.374
73471W        W32567  18.717  11.850   3.293
73472W        W32568  40.959  24.659  13.326
73473W        W32569  17.631   3.412   1.402
73474W        W32570  30.491  21.570   0.840
73475W        W32571  35.095  21.186  13.524
73476W        W32572  39.885  27.544  14.514
73477W        W32573   0.948  23.489  13.364
73478W        W32574  32.599  30.965   3.632
73479W        W32575  16.290  20.714   1.876
73480W        W32576  20.069  41.963   2.411
73481W        W32577  11.816   9.376  12.364
73482W        W32578   7.299  11.663  11.935
73483W        W32579   5.892   8.265   1.311
73484W        W32580  19.136  14.280   2.375
73485W        W32581  20.547  44.299   1.836
73486W        W32582   5.352  15.762   2.320
73487W        W32583  24.196   9.672   4.758
73488W        W32584  31.615   2.366   4.179
73489W        W32585  19.594  29.540  14.883
73490W        W32586  42.498  42.459   0.964
73491W        W32587  29.555  38.898  13.312
73492W        W32588  38.411  16.307  14.980
73493W        W32589  15.633   0.392   9.971
73494W        W32590  16.275  42.995   4.121
73495W        W32591  34.408  19.156  11.536
73496W        W32592   3.398  43.897   1.377
73497W        W32593  14.717  17.244   4.811
73498W        W32594   0.296  34.408   3.730
73499W        W32595  27.046  25.517   0.465
73500W        W32596  14.653  41.803  13.807
73501W        W32597  34.909  35.979  12.038
73502W        W32598  30.102  43.294   4.163
73503W        W32599  38.550   2.797   2.892
73504W        W32600  39.063  34.402   1.790
73505W        W32601  37.953   2.753  13.369
73506W        W32602  30.041   3.427  13.342
73507W        W32603  16.294   3.918  11.586
73508W        W32604  43.378  37.431   1.294
73509W        W32605  32.487  34.386  12.047
73510W        W32606  37.870  21.128  10.405
73511W        W32607  43.284   5.797   4.236
73512W        W32608  43.928  41.469   0.266
73513W        W32609  36.496   4.934   2.754
73514W        W32610  43.018  13.659  12.529
73515W        W32611  12.687  10.809   2.389
73516W        W32612  36.886  10.716  12.937
73517W        W32613   3.927   8.326   1.410
73518W        W32614   6.403  41.994   1.774
73519W        W32615  20.037  29.473   4.621
73520W        W32616  29.428  15.778  10.071
73521W        W32617  16.224   8.709  11.122
73522W        W32618  13.335   4.425   2.825
73523W        W32619  37.541  15.261  12.018
73524W        W32620  27.001  42.430   0.470
73525W        W32621  31.076   3.250   3.351
73526W        W32622  14.685  14.272   4.156
73527W        W32623  15.639  38.994   4.707
73528W        W32624   3.394  12.625   2.388
73529W        W32625  15.684  12.739   3.745
73530W        W32626  42.463   4.887   3.831
73531W        W32627   9.279  19.086  10.100
73532W        W32628  42.433  43.020   2.317
73533W        W32629  13.145  34.456  12.984
73534W        W32630  20.657   5.881   4.600
73535W        W32631  22.039  26.201  12.034
73536W        W32632  35.041  12.236  14.019
73537W        W32633  18.203  37.538  14.964
73538W        W32634  36.034  37.464  11.600
73539W        W32635   3.370  12.739   2.768
73540W        W32636  34.420  41.508  14.868
73541W        W32637   5.694  23.728  10.100
73542W        W32638  31.458   3.301  12.394
73543W        W32639  41.460  31.998  13.448
73544W        W32640   9.823   5.931  11.589
73545W        W32641   3.381  29.563  14.897
73546W        W32642   8.656  18.778  14.946
73547W        W32643  39.480   9.673   3.632
73548W        W32644  37.063  32.009   4.705
73549W        W32645  40.501   2.804  11.896
73550W        W32646  38.039  41.970  13.485
73551W        W32647  28.965  44.311  14.390
73552W        W32648   8.812  30.604  12.495
73553W        W32649  34.907   8.657  14.373
73554W        W32650  40.895  31.956  12.030
73555W        W32651  33.051   3.799   2.823
73556W        W32652   0.793  27.077  10.584
73557W        W32653  30.141   3.346   0.282
73558W        W32654  30.157  23.590   2.291
73559W        W32655  21.553   8.776   0.407
73560W        W32656  38.998  36.066  13.361
73561W        W32657  25.112  15.764  10.943
73562W        W32658   8.241  42.777   3.328
73563W        W32659  29.008  20.582  14.450
73564W        W32660  10.239  43.018  11.447
73565W        W32661  32.887  17.579  12.546
73566W        W32662   5.282  38.830   0.884
73567W        W32663  30.031  16.774   2.789
73568W        W32664  42.996  10.809  10.615
73569W        W32665  13.287  33.966  12.548
73570W        W32666  19.134  39.515   3.350
73571W        W32667  22.039  19.052  10.403
73572W        W32668  26.027  24.999   1.777
73573W        W32669  18.138   7.280  14.864
73574W        W32670  27.496  35.885  14.822
73575W        W32671  14.284  42.327   4.773
73576W        W32672  26.955  29.990   1.829
73577W        W32673  34.522  40.867  14.502
73578W        W32674  14.658  42.301   0.388
73579W        W32675  20.062  34.945   0.742
73580W        W32676  19.647   4.705  11.375
73581W        W32677  31.637  29.146  11.542
73582W        W32678   5.324  26.561  12.513
73583W        W32679  13.663  44.905   3.733
73584W        W32680  12.720  42.470  13.811
73585W        W32681  24.528   4.857   3.784
73586W        W32682  31.446  24.536  13.361
73587W        W32683  42.456  16.232  13.518
73588W        W32684  11.795  24.702  12.571
73589W        W32685  34.081  10.164  10.922
73590W        W32686  25.023  18.660   5.269
73591W        W32687  43.448  34.949   2.394
73592W        W32688  35.920   9.663  11.537
73593W        W32689  13.148   1.481  14.475
73594W        W32690  30.548   1.332   2.783
73595W        W32691  39.919   7.834   3.723
73596W        W32692   4.229  13.159   4.823
73597W        W32693  11.704  21.725   3.318
73598W        W32694  38.946  15.116  14.313
73599W        W32695   4.265  14.104  13.365
73600W        W32696  38.331  43.321  13.865
73601W        W32697  14.282  38.392   4.688
73602W        W32698   8.295   0.280  14.333
73603W        W32699  29.156  21.604   2.298
73604W        W32700   7.386  21.255   2.901
73605W        W32701   5.242   6.859  12.397
73606W        W32702  34.896  30.513   4.263
73607W        W32703  11.197  12.199  14.950
73608W        W32704  17.186  41.793  14.858
73609W        W32705  24.208  11.232  13.369
73610W        W32706  32.046  24.033  12.528
73611W        W32707  37.016  38.847  13.976
73612W        W32708   6.836  36.413   4.746
73613W        W32709  20.701  18.246   1.731
73614W        W32710  40.510  38.035   0.900
73615W        W32711  39.323  27.134   1.893
73616W        W32712  17.256  31.083  12.074
73617W        W32713  30.510  30.967  10.577
73618W        W32714   7.681  34.514  12.536
73619W        W32715   4.389  22.595   4.354
73620W        W32716  35.497  26.127  10.900
73621W        W32717  13.819   1.974   1.212
73622W        W32718  39.510  27.449   2.385
73623W        W32719  35.105  23.517   4.157
73624W        W32720   2.796  40.358  14.016
73625W        W32721  11.362  26.129   0.739
73626W        W32722  14.320  37.900   3.215
73627W        W32723  17.589  30.653   0.307
73628W        W32724   9.742  31.038  10.968
73629W        W32725  33.015  39.033   1.433
73630W        W32726   8.810  22.726  10.991
73631W        W32727  38.464  19.755   2.882
73632W        W32728  29.544   9.751  11.071
73633W        W32729  42.320  25.696  10.588
73634W        W32730   0.864  33.522  10.618
73635W        W32731  28.977   9.202  14.908
73636W        W32732  15.664  36.867   5.235
73637W        W32733  40.952  29.476  12.083
73638W        W32734   7.729  37.925  12.960
73639W        W32735   3.849   7.239  13.944
73640W        W32736  38.991  26.527   4.225
73641W        W32737  28.541  40.533   3.736
73642W        W32738  35.976  39.059   4.615
73643W        W32739  31.921  43.900   0.777
73644W        W32740  24.998  25.640   3.746
73645W        W32741  25.985  44.353   2.677
73646W        W32742  41.452  36.385   2.311
73647W        W32743  28.444   8.767   4.297
73648W        W32744  39.999  43.938  14.819
73649W        W32745  41.882   5.770  14.942
73650W        W32746  36.976  43.913  11.519
73651W        W32747  20.030   6.824  13.882
73652W        W32748   2.416  41.011  12.476
73653W        W32749  23.556   7.834  11.391
73654W        W32750  31.416  26.667  12.383
73655W        W32751  24.522  37.995   0.391
73656W        W32752  33.441   1.451   3.716
73657W        W32753  25.213  44.304   0.735
73658W        W32754  14.269  15.732   0.922
73659W        W32755  10.839   5.321   1.394
73660W        W32756  21.528  35.369   2.267
73661W        W32757  15.087  35.105   0.860
73662W        W32758   8.803  39.413  11.889
73663W        W32759  31.902   6.714  13.854
73664W        W32760  10.346  17.785  10.595
73665W        W32761  24.708  44.871   1.449
73666W        W32762  44.992  24.539  14.463
73667W        W32763  38.991  38.496   4.170
73668W        W32764  35.863  25.995   0.944
73669W        W32765  15.238  26.642   3.792
73670W        W32766  14.105   9.168   2.796
73671W        W32767   7.681  27.481   2.384
73672W        W32768  41.936  25.472   2.407
73673W        W32769   5.737  40.798  14.289
73674W        W32770   2.765  41.984   3.200
73675W        W32771  39.965  15.280   0.250
73676W        W32772  16.617  15.691  13.036
73677W        W32773   7.356  18.253  10.976
73678W        W32774  33.399  42.408  13.940
73679W        W32775  37.344  28.559  13.939
73680W        W32776  22.102  41.904   4.201
73681W        W32777  19.666  12.315  14.383
73682W        W32778  28.941  38.473  10.997
73683W        W32779  44.986  18.147   4.281
73684W        W32780   7.738  38.434   0.337
73685W        W32781  36.981  30.911  12.949
73686W        W32782  44.347  25.615  14.975
73687W        W32783  18.584  13.613   3.801
73688W        W32784  19.264  34.110   2.706
73689W        W32785  32.402  28.133  11.038
73690W        W32786  34.565  10.642   2.267
73691W        W32787  11.725  28.545  14.466
73692W        W32788  37.428  28.462   1.425
73693W        W32789  38.958  19.270  12.087
73694W        W32790  17.101  25.114   3.858
73695W        W32791  28.991  26.619   4.288
73696W        W32792  12.851  18.557  12.543
73697W        W32793  10.382  41.426   4.761
73698W        W32794  13.806  25.649  13.314
73699W        W32795  35.031  27.181   2.754
73700W        W32796  25.205  15.818   3.815
73701W        W32797  11.333  27.667  12.473
73702W        W32798   5.752  28.678  10.039
73703W        W32799  43.850  27.162   2.689
73704W        W32800  28.535  39.514   0.956
73705W        W32801  43.475  14.126  12.891
73706W        W32802  41.832  18.277   2.713
73707W        W32803   2.300  10.273  10.040
73708W        W32804  16.595  34.054   3.755
73709W        W32805  34.073  37.992   1.367
73710W        W32806   8.725  17.280   0.415
73711W        W32807  34.079  22.087   1.934
73712W        W32808  19.141  11.319  12.412
73713W        W32809  14.198  17.134   0.363
73714W        W32810  31.562  13.139   3.714
73715W        W32811  15.815   6.903   4.146
73716W        W32812  18.051  11.644   1.211
73717W        W32813  23.538   1.480  13.494
73718W        W32814  18.618  40.973   0.956
73719W        W32815   7.240   3.408   1.809
73720W        W32816  12.218  11.829  14.992
73721W        W32817  38.024  13.635  13.368
73722W        W32818  35.862   6.195   3.339
73723W        W32819  19.661  37.877  14.896
73724W        W32820  42.442   6.894   0.273
73725W        W32821   2.812  37.959  10.636
73726W        W32822  39.356  42.830   1.787
73727W        W32823   1.829  25.142   2.797
73728W        W32824   9.862  42.336  13.910
73729W        W32825  18.253  43.965   1.807
73730W        W32826  15.087  12.633  10.997
73731W        W32827  13.656  40.828   3.730
73732W        W32828  11.628  35.579   1.845
73733W        W32829  15.188   2.791   4.265
73734W        W32830  27.579  22.240   2.666
73735W        W32831  37.944  27.511   1.789
73736W        W32832  33.010  23.679  10.934
73737W        W32833  31.505  12.841   4.639
73738W        W32834  38.415   8.171   0.333
73739W        W32835  20.044  26.530  12.842
73740W        W32836  26.560  17.275  10.522
73741W        W32837  15.755  24.047  12.439
73742W        W32838  20.737  19.118   2.696
73743W        W32839  11.155  33.562   3.178
73744W        W32840  32.396  32.560  12.924
73745W        W32841  17.782  38.016  14.458
73746W        W32842  29.018  14.681  11.114
73747W        W32843  26.688  26.077   2.810
73748W        W32844  39.506  44.869  12.965
73749W        W32845   8.831  17.133   3.198
73750W        W32846  10.301  43.359  12.941
73751W        W32847  20.030  11.363   1.875
73752W        W32848  44.878  24.607   3.765
73753W        W32849  10.645   2.227  12.423
73754W        W32850  26.694  10.682  14.833
73755W        W32851  35.045   9.217   1.262
73756W        W32852   7.733  26.141   2.253
73757W        W32853  21.708  43.784   2.347
73758W        W32854  30.080   6.747  13.966
73759W        W32855  24.110  41.368  11.396
73760W        W32856  37.067  33.932  13.528
73761W        W32857  32.000  31.914  12.910
73762W        W32858  35.394   6.910  11.577
73763W        W32859  20.102  25.701  11.943
73764W        W32860  43.516  13.614   0.464
73765W        W32861  25.487   8.203   0.242
73766W        W32862   1.744  39.899   0.792
73767W        W32863  42.383  41.412  10.609
73768W        W32864  31.057   1.733   4.709
73769W        W32865   1.868  40.903  12.955
73770W        W32866  28.933  41.394  13.516
73771W        W32867   5.780  18.115  12.453
73772W        W32868  36.982  35.105  12.984
73773W        W32869  34.589  12.323  13.375
73774W        W32870  32.120   0.337   2.377
73775W        W32871  30.027  40.444   0.800
73776W        W32872  29.069  31.641   1.805
73777W        W32873  37.902  40.893  12.081
73778W        W32874  24.158  25.183   1.235
73779W        W32875  27.620  14.594   3.678
73780W        W32876  22.252  27.013   4.824
73781W        W32877  32.972  12.702   3.685
73782W        W32878  24.496   3.835   3.734
73783W        W32879  18.232  20.634  13.907
73784W        W32880  25.216  34.024  12.006
73785W        W32881  25.589  13.790   0.959
73786W        W32882  17.183   3.940   4.185
73787W        W32883  44.910  37.547  14.967
73788W        W32884   3.224  18.636  12.973
73789W        W32885   7.887  27.052   2.868
73790W        W32886  18.616  18.649  13.363
73791W        W32887  12.760  37.343   1.277
73792W        W32888  23.100  11.745   4.758
73793W        W32889  25.134  35.417   2.873
73794W        W32890   1.446  42.484   2.373
73795W        W32891  43.972   1.463  14.482
73796W        W32892  31.409  40.454  12.943
73797W        W32893  30.937  30.047  13.018
73798W        W32894  24.712  44.905  13.857
73799W        W32895   1.811  39.907  14.996
73800W        W32896  40.024  37.978  11.071
73801W        W32897  34.080  21.573   3.179
73802W        W32898  16.119   6.809   4.618
73803W        W32899  29.441  25.985   3.674
73804W        W32900  16.303   2.867  10.995
73805W        W32901  34.538  28.527  11.070
73806W        W32902  44.331  28.504   2.797
73807W        W32903   5.768  14.167   1.776
73808W        W32904  34.556  21.705  11.120
73809W        W32905  41.819  43.288   0.950
73810W        W32906   5.228   5.922  13.847
73811W        W32907  19.132   9.808   1.374
73812W        W32908   6.833   6.681  12.478
73813W        W32909  38.441   2.760  12.993
73814W        W32910  39.383   9.182   0.450
73815W        W32911  44.794  41.979  11.406
73816W        W32912  18.263  32.069   4.159
73817W        W32913  40.021  18.784   3.289
73818W        W32914  41.803  42.832  14.370
73819W        W32915  44.434   0.305  10.960
73820W        W32916  33.450  24.177   0.341
73821W        W32917  26.551  37.510   3.809
73822W        W32918  19.250   9.285  14.894
73823W        W32919  22.245  19.694  14.365
73824W        W32920  38.869  35.937  14.961
73825W        W32921   2.260   6.695  12.855
73826W        W32922  18.546  34.995   4.233
73827W        W32923  21.054  20.034   3.313
73828W        W32924  14.720   6.383   1.250
73829W        W32925  16.739   7.708   1.372
73830W        W32926  15.601  29.041  10.537
73831W        W32927  43.483   5.701  11.992
73832W        W32928  34.049  34.942   4.651
73833W        W32929  35.940  13.665   4.329
73834W        W32930   7.865  14.797   2.347
73835W        W32931   0.904   7.702  11.000
73836W        W32932  19.672  15.251   3.810
73837W        W32933  23.208  39.347  13.540
73838W        W32934  44.398  36.056   2.204
73839W        W32935   4.742  39.981   1.419
73840W        W32936  28.467  38.379   2.349
73841W        W32937   0.742  19.106   0.314
73842W        W32938  20.210  25.710   3.709
73843W        W32939  23.195  35.394   0.258
73844W        W32940   2.229  14.147  13.436
73845W        W32941   8.268  32.050  14.914
73846W        W32942  11.288   5.858   0.269
73847W        W32943  44.303  15.120   4.174
73848W        W32944   6.369   1.358   1.854
73849W        W32945  15.722  21.225   3.631
73850W        W32946   2.443   6.197  11.027
73851W        W32947  15.276  17.573   9.985
73852W        W32948   8.403  40.459   4.337
73853W        W32949  16.572  12.182   0.951
73854W        W32950  22.561  19.079   0.403
73855W        W32951  41.503   9.889  14.467
73856W        W32952  21.234  25.129   0.273
73857W        W32953   1.360  30.054   1.740
73858W        W32954   9.367  10.224  11.419
73859W        W32955  37.861  38.925   1.317
73860W        W32956   0.295  24.551   4.653
73861W        W32957  16.796  10.371  10.628
73862W        W32958  38.489  23.672  10.439
73863W        W32959  41.328  32.024  14.376
73864W        W32960  38.388  26.554  13.426
73865W        W32961  20.559  26.973  13.861
73866W        W32962  13.250  44.988   3.793
73867W        W32963   6.265  21.109  14.977
73868W        W32964  24.506   0.432   0.883
73869W        W32965  20.056  23.194  12.874
73870W        W32966  26.458   4.712   4.119
73871W        W32967   8.267   6.877  10.979
73872W        W32968   2.816  17.782  13.313
73873W        W32969  36.911  37.936  10.556
73874W        W32970  20.259  14.308   0.751
73875W        W32971  30.952  19.117  11.487
73876W        W32972  44.836  26.046   0.943
73877W        W32973   9.648  34.927  13.007
73878W        W32974  24.016  10.167  12.382
73879W        W32975  16.617  33.058   3.376
73880W        W32976  28.130  14.746  10.931
73881W        W32977  24.686  31.100  11.433
73882W        W32978   6.819  31.133   0.881
73883W        W32979   5.841  31.492  10.411
73884W        W32980  32.447  32.952   4.608
73885W        W32981   5.907  31.603   1.847
73886W        W32982  39.037  30.516  14.806
73887W        W32983  20.166  19.698   1.405
73888W        W32984  16.743   6.240  13.386
73889W        W32985  33.054  35.977  14.444
73890W        W32986  34.455   2.228  11.393
73891W        W32987  24.552  18.119   1.440
73892W        W32988  11.305  32.615   0.481
73893W        W32989  22.593   3.217   4.199
73894W        W32990  39.457  26.164   4.322
73895W        W32991  34.449  18.229  14.947
73896W        W32992  38.985   8.733   0.314
73897W        W32993  27.652  36.549   2.750
73898W        W32994   3.816  26.156   4.634
73899W        W32995  25.988  37.921  13.375
73900W        W32996  30.086  23.717  14.004
73901W        W32997  37.526   6.788  11.511
73902W        W32998  22.188   7.337   0.941
73903W        W32999  13.162  25.179   2.296
73904W        W33000   7.268  23.723   0.276
73905W        W33001  43.963  30.461   3.239
73906W        W33002  21.749   4.289   0.884
73907W        W33003  41.959  11.860   2.735
73908W        W33004  16.797   4.253   0.735
73909W        W33005  44.825  16.128   3.762
73910W        W33006  42.516  16.803  10.946
73911W        W33007   3.385  22.593   3.247
73912W        W33008  15.765  32.092   2.341
73913W        W33009  35.544  23.193   2.333
73914W        W33010   9.774  41.442   4.211
73915W        W33011  31.629  27.040  13.929
73916W        W33012  31.420  17.725  12.402
73917W        W33013  18.705   6.850   0.954
73918W        W33014   2.772  12.335  14.893
73919W        W33015  33.006  29.604   2.244
73920W        W33016  21.599  24.014   4.806
73921W        W33017   3.758  38.533   1.846
73922W        W33018  17.714  34.465   5.308
73923W        W33019  23.500  34.063  14.851
73924W        W33020  24.535  11.678   1.230
73925W        W33021   5.252  33.050  13.002
73926W        W33022  35.928  29.648  14.921
73927W        W33023  20.181  12.331   0.896
73928W        W33024  37.961  17.728  10.089
73929W        W33025  10.699  24.144  14.294
73930W        W33026  39.943  32.602  14.460
73931W        W33027  39.840  31.509   4.327
73932W        W33028  32.077  15.148   4.314
73933W        W33029  32.450   6.189   3.282
73934W        W33030   7.216   3.944   0.795
73935W        W33031   5.809  43.421   2.685
73936W        W33032  40.397  12.249   1.917
73937W        W33033  16.679  33.576  14.001
73938W        W33034  16.623   2.813  12.012
73939W        W33035  27.106   5.371   1.861
73940W        W33036  21.229  16.228   4.185
73941W        W33037  16.271  31.630  10.619
73942W        W33038  17.567  31.424  14.459
73943W        W33039  21.150  39.507  14.342
73944W        W33040  42.395  10.795  14.469
73945W        W33041  25.609  27.973   2.350
73946W        W33042  37.578   0.332  11.072
73947W        W33043  28.069  19.283   3.378
73948W        W33044   7.363  10.279   3.384
73949W        W33045  40.799   8.406  12.872
73950W        W33046  33.391  28.946  14.810
73951W        W33047  41.858  14.244  14.442
73952W        W33048  19.560  33.937  13.393
73953W        W33049   6.310  39.006   0.275
73954W        W33050  28.058  40.964  14.511
73955W        W33051  29.633  40.477   0.440
73956W        W33052  29.616  13.141   0.348
73957W        W33053  22.669  29.472  11.870
73958W        W33054  10.777  14.718  11.392
73959W        W33055   7.369  28.509  12.444
73960W        W33056   3.723  39.018  14.498
73961W        W33057  12.721   3.734  13.311
73962W        W33058  43.968  36.395  11.046
73963W        W33059   3.432  41.322   4.698
73964W        W33060   2.342  25.592   0.255
73965W        W33061  12.849   8.349  12.526
73966W        W33062  41.533  15.604  11.127
73967W        W33063  27.008  12.244   1.843
73968W        W33064  22.130   8.355   3.328
73969W        W33065   5.339   8.721  14.990
73970W        W33066  42.999  35.959  14.832
73971W        W33067   3.440  27.149  13.398
73972W        W33068  12.766   1.361  10.561
73973W        W33069  26.597  33.571   5.758
73974W        W33070  30.056  29.480  12.442
73975W        W33071  27.196   4.707   3.159
73976W        W33072  40.313  20.107  12.505
73977W        W33073  43.401   6.223   1.412
73978W        W33074   1.743   0.869  14.447
73979W        W33075  18.059   0.776   0.733
73980W        W33076   3.408  21.126  13.513
73981W        W33077  26.034  27.115   0.268
73982W        W33078  13.787  34.106  11.503
73983W        W33079  22.603  39.004   1.916
73984W        W33080   5.238   3.374   2.745
73985W        W33081   5.368  13.317  13.809
73986W        W33082   7.367  10.769  12.931
73987W        W33083  36.842  19.093  11.089
73988W        W33084  19.624   2.727  13.057
73989W        W33085   0.869  11.129  11.904
73990W        W33086  37.969  20.729  13.882
73991W        W33087   6.849  44.899  11.900
73992W        W33088  32.059  32.576  14.373
73993W        W33089   7.369  25.205   2.357
73994W        W33090  16.279  15.125   4.673
73995W        W33091  25.684  40.978   4.298
73996W        W33092   3.922   0.919  13.411
73997W        W33093  25.510  39.510  14.884
73998W        W33094  22.648   4.875   1.745
73999W        W33095  44.904  32.022   4.837
74000W        W33096   5.817  11.784   1.227
74001W        W33097   2.838  25.611   2.367
74002W        W33098  13.742  26.072   5.641
74003W        W33099  30.546  36.464   2.736
74004W        W33100  33.438   4.370  13.865
74005W        W33101   9.285  11.706   0.957
74006W        W33102   8.284   9.313  13.392
74007W        W33103  20.102   9.717  14.891
74008W        W33104  28.159  13.184  11.496
74009W        W33105  22.072  41.388   4.320
74010W        W33106  29.048  15.698  13.849
74011W        W33107  28.514   1.827   0.966
74012W        W33108  24.676  26.003  13.936
74013W        W33109  24.983  12.815   0.372
74014W        W33110  13.782  41.412  11.915
74015W        W33111  35.467  20.268   1.234
74016W        W33112  25.094  19.715  11.908
74017W        W33113  38.873  24.688  12.561
74018W        W33114  34.544  20.104  13.830
74019W        W33115  27.984  10.247  10.474
74020W        W33116  24.538  42.362   2.370
74021W        W33117  40.438   7.326   0.838
74022W        W33118  31.912  26.178  14.851
74023W        W33119  16.640  44.784   3.629
74024W        W33120  14.740  43.434  14.779
74025W        W33121   6.428   3.733   4.338
74026W        W33122   7.328  33.500  14.953
74027W        W33123  41.424  43.890   0.477
74028W        W33124  24.039  23.531   4.259
74029W        W33125   4.908  14.601  14.352
74030W        W33126  17.745  29.552   2.257
74031W        W33127  24.028  33.521   1.233
74032W        W33128  36.985  41.029   4.623
74033W        W33129  32.470   8.656   5.166
74034W        W33130  30.090  36.499   5.085
74035W        W33131  26.049  38.538  14.819
74036W        W33132   1.418  27.453  13.415
74037W        W33133  29.522  18.294  11.941
74038W        W33134  29.508  35.991  10.484
74039W        W33135  21.737  27.655  13.804
74040W        W33136   0.837   2.756   1.923
74041W        W33137   7.766  42.823  10.465
74042W        W33138  20.641  32.448   1.266
74043W        W33139  17.089  31.636   0.806
74044W        W33140  39.413  40.892   3.307
74045W        W33141   7.874  32.047   9.983
74046W        W33142  37.898   4.715  11.121
74047W        W33143  19.114  22.091  14.868
74048W        W33144  40.346  12.116  11.522
74049W        W33145   0.385  40.502   1.908
74050W        W33146  37.874  23.642   0.312
74051W        W33147  20.101  27.498   1.915
74052W        W33148  36.547  34.392  10.500
74053W        W33149  44.296   8.291   2.319
74054W        W33150  42.527  21.050  14.485
74055W        W33151   2.758  40.413   4.780
74056W        W33152  29.100   9.222  11.100
74057W        W33153  12.632  39.838  13.353
74058W        W33154   3.453  22.694  11.591
74059W        W33155  16.771   6.231   3.223
74060W        W33156  37.992  20.265  10.589
74061W        W33157  18.649  23.229   0.751
74062W        W33158  20.535  26.564   5.267
74063W        W33159   1.860  24.228   3.742
74064W        W33160  17.568  44.460   1.786
74065W        W33161  10.810  20.206  11.004
74066W        W33162  38.003  34.565  10.470
74067W        W33163  19.189   1.428  14.309
74068W        W33164  16.685  27.533  11.484
74069W        W33165  15.101  26.092  11.858
74070W        W33166  11.635  37.930  11.896
74071W        W33167  16.185   8.779  13.360
74072W        W33168  15.592  19.640  10.588
74073W        W33169   5.766  44.437   2.333
74074W        W33170  42.382   1.408  12.993
74075W        W33171  13.605  13.333  11.070
74076W        W33172  44.488  30.063   0.927
74077W        W33173  32.502   1.248   3.241
74078W        W33174  34.871   0.456   0.810
74079W        W33175  36.505  37.940  11.594
74080W        W33176  20.761   9.851   2.317
74081W        W33177  27.166  31.491  12.861
74082W        W33178  12.642  17.560  12.537
74083W        W33179  12.203  20.085  11.384
74084W        W33180   9.836  15.795   1.922
74085W        W33181  10.674  26.198  14.388
74086W        W33182  22.179  35.000  14.997
74087W        W33183  10.291  10.240  14.945
74088W        W33184  41.449  43.312   4.772
74089W        W33185   6.749  41.420   0.448
74090W        W33186  25.495   7.666  13.446
74091W        W33187  42.913  16.301  10.471
74092W        W33188  27.012  37.873   3.228
74093W        W33189  20.254   7.392  10.502
74094W        W33190  33.000  35.063   3.655
74095W        W33191  18.619  19.605   0.876
74096W        W33192  17.611  34.057   4.241
74097W        W33193   8.264  36.533  14.426
74098W        W33194  42.977  30.930   2.327
74099W        W33195  36.912  15.664  10.927
74100W        W33196  31.941   3.760   2.196
74101W        W33197   0.774  36.996  14.861
74102W        W33198   8.312  38.913   1.384
74103W        W33199   6.908   2.794   3.729
74104W        W33200  40.447  33.561   0.446
74105W        W33201  32.483   4.778  11.548
74106W        W33202  44.430  32.450   0.327
74107W        W33203  30.639  40.816  12.930
74108W        W33204  19.719  30.626   2.769
74109W        W33205   6.259   2.886   0.933
74110W        W33206  32.141  41.978   1.415
74111W        W33207  14.265   7.270  10.956
74112W        W33208  39.050  43.003   3.232
74113W        W33209  17.615  24.557   0.285
74114W        W33210  18.205   3.401   4.338
74115W        W33211   7.680  32.571  12.948
74116W        W33212  37.578  35.909  12.087
74117W        W33213  41.032  16.648  14.984
74118W        W33214  19.755  32.629  13.510
74119W        W33215   6.219  29.502   9.921
74120W        W33216   9.347  29.985   1.875
74121W        W33217   2.844   2.342  11.893
74122W        W33218  34.567  21.065  10.404
74123W        W33219  37.994  36.059   5.097
74124W        W33220  26.141  24.606  11.410
74125W        W33221   3.236  19.628   2.689
74126W        W33222  37.440  26.568  13.465
74127W        W33223  20.199  21.691   1.406
74128W        W33224  31.639  32.616  13.950
74129W        W33225  27.183  24.159  12.401
74130W        W33226  41.359  32.010   3.164
74131W        W33227  34.387  34.400  13.369
74132W        W33228  16.650  21.754   2.357
74133W        W33229  27.499  12.305  10.468
74134W        W33230   5.225  11.708   0.863
74135W        W33231  24.514   7.258   0.811
74136W        W33232   7.254  11.237  10.516
74137W        W33233   4.292   1.365  10.927
74138W        W33234  32.075   6.403   0.431
74139W        W33235  26.530   7.824  13.970
74140W        W33236  26.490  31.900   3.304
74141W        W33237  13.166  19.169  12.359
74142W        W33238  17.122  16.233   2.292
74143W        W33239  41.333  22.232  10.625
74144W        W33240  11.186  13.295   3.358
74145W        W33241  16.768  15.721  14.986
74146W        W33242   8.267  35.102  14.012
74147W        W33243  41.907  24.514  10.475
74148W        W33244  10.141  37.477  14.291
74149W        W33245  25.012  17.781   5.201
74150W        W33246  17.126   7.220   9.969
74151W        W33247  33.451   5.262  12.027
74152W        W33248  21.677  15.109  12.470
74153W        W33249  18.662  40.956   1.439
74154W        W33250  15.625  35.528   5.305
74155W        W33251   6.301  21.745   3.226
74156W        W33252  12.812  44.461   0.461
74157W        W33253  25.709   9.709  11.972
74158W        W33254  14.182  39.448  12.431
74159W        W33255  39.388  14.232   3.276
74160W        W33256  41.407  37.578  12.066
74161W        W33257  37.949  42.407  13.417
74162W        W33258  12.276  29.621  12.965
74163W        W33259  12.284  38.518   1.423
74164W        W33260  43.003  20.585   1.900
74165W        W33261  33.439  36.581  10.465
74166W        W33262  11.731   3.950  11.060
74167W        W33263  13.319  33.534   1.699
74168W        W33264  10.758   4.710  11.050
74169W        W33265  17.744  10.838   3.187
74170W        W33266  23.514  13.310  10.480
74171W        W33267  16.635  27.647   0.927
74172W        W33268   2.758  21.039  14.472
74173W        W33269  37.865  15.171   4.697
74174W        W33270  10.324  27.653  14.988
74175W        W33271   8.712  14.722   0.871
74176W        W33272  41.352   0.936  12.885
74177W        W33273   7.291  10.826   4.733
74178W        W33274   1.344  27.993   4.225
74179W        W33275  10.366  10.259   3.851
74180W        W33276  28.529   4.746  14.009
74181W        W33277  40.935  15.198   0.465
74182W        W33278   7.376   2.276  11.101
74183W        W33279  18.738  28.531   1.920
74184W        W33280   5.230  14.600   2.181
74185W        W33281  24.195   2.908  12.823
74186W        W33282  23.174   6.185   3.729
74187W        W33283   7.724  33.024  13.340
74188W        W33284  11.294  14.728   0.919
74189W        W33285  17.304   0.974  14.863
74190W        W33286   7.709   6.792   3.285
74191W        W33287   8.233  29.523   2.237
74192W        W33288   1.479  10.251   0.416
74193W        W33289  29.967   1.820  13.853
74194W        W33290  19.732  32.395  11.557
74195W        W33291  14.221  40.003  12.454
74196W        W33292  10.307   6.914  14.311
74197W        W33293  41.412   6.342   2.750
74198W        W33294  10.764  23.050   4.123
74199W        W33295  39.895  37.441  10.420
74200W        W33296   4.710  36.925  11.568
74201W        W33297  40.313  14.609  13.403
74202W        W33298  26.575   0.342  12.499
74203W        W33299  17.147  22.530  10.452
74204W        W33300  29.076   4.802  13.459
74205W        W33301  22.514  39.967  10.419
74206W        W33302  40.896   2.407  10.457
74207W        W33303  42.016  37.083   0.856
74208W        W33304  40.821  31.489   2.851
74209W        W33305  24.011   2.330  10.892
74210W        W33306  18.689  13.687  14.974
74211W        W33307   0.465  27.167   3.848
74212W        W33308  27.029   1.971   3.369
74213W        W33309  36.987  31.511   0.468
74214W        W33310   9.230  27.995  14.000
74215W        W33311  27.565   3.260  12.830
74216W        W33312  14.129  28.440  10.026
74217W        W33313  38.423   1.420  11.418
74218W        W33314  29.018  18.101  10.997
74219W        W33315  37.862  10.693   0.363
74220W        W33316  14.611  41.309  11.005
74221W        W33317  29.953   7.685   3.307
74222W        W33318   4.764  29.654  12.446
74223W        W33319  23.156   3.221  13.997
74224W        W33320  36.864   3.734  14.931
74225W        W33321  36.382  15.268  13.384
74226W        W33322  41.530  21.619   0.798
74227W        W33323  15.148  10.742   3.358
74228W        W33324  39.526  15.109   3.652
74229W        W33325  17.222  38.339   0.870
74230W        W33326   1.274  23.989   0.261
74231W        W33327   6.301   6.890   0.252
74232W        W33328  14.747  15.127  13.469
74233W        W33329   0.268   8.691  13.813
74234W        W33330  28.619   8.747   0.857
74235W        W33331  38.436   1.936  12.066
74236W        W33332  11.686  41.800   1.906
74237W        W33333  25.180  33.071  11.056
74238W        W33334  32.576  19.581   4.639
74239W        W33335  24.699  33.426  10.958
74240W        W33336   3.357  18.269   3.294
74241W        W33337   1.938  20.726   2.298
74242W        W33338  22.583   1.848  12.990
74243W        W33339  16.777  26.983   0.808
74244W        W33340  23.169  13.113   0.934
74245W        W33341  11.749  42.312   3.638
74246W        W33342   4.449  34.041  14.398
74247W        W33343   8.399  24.162  12.996
74248W        W33344  20.569  24.178  10.409
74249W        W33345   4.216  27.525   5.233
74250W        W33346  37.980  25.154  13.541
74251W        W33347  10.360   4.784   3.714
74252W        W33348   2.295  35.965  13.989
74253W        W33349  32.434  36.438   0.354
74254W        W33350  39.062   8.709  11.518
74255W        W33351   8.886  17.136  11.098
74256W        W33352  15.699  38.484   1.876
74257W        W33353   4.446  20.128   4.599
74258W        W33354  38.900  30.656  14.349
74259W        W33355  19.096  25.053  10.918
74260W        W33356  29.563  10.144   4.669
74261W        W33357  27.669  41.998   1.810
74262W        W33358  24.974  40.948  13.012
74263W        W33359  20.046   6.698   5.137
74264W        W33360  33.622  35.906   0.754
74265W        W33361  40.979   1.976  11.528
74266W        W33362  28.129  14.240  12.830
74267W        W33363  44.897  25.112   4.283
74268W        W33364  33.435   5.708  14.815
74269W        W33365  27.502  41.893   4.629
74270W        W33366   2.862  31.411  13.854
74271W        W33367  30.930  18.786  11.540
74272W        W33368  10.643   8.806  11.066
74273W        W33369  11.741  25.629  11.512
74274W        W33370  36.500   7.897   1.212
74275W        W33371  31.445   7.683  14.016
74276W        W33372  24.150  12.834   5.203
74277W        W33373  37.863   8.310   5.684
74278W        W33374  29.458  38.844  12.445
74279W        W33375  35.405  26.983   1.802
74280W        W33376  37.844  10.678   1.929
74281W        W33377  38.349  36.916   0.336
74282W        W33378  11.291  14.339  10.565
74283W        W33379  11.770  37.986   0.761
74284W        W33380  36.523   8.263   3.734
74285W        W33381   7.305  38.349  12.417
74286W        W33382  21.125  26.079  12.079
74287W        W33383  30.461  40.873   1.261
74288W        W33384  12.650  26.041   1.321
74289W        W33385   0.345   6.774  12.496
74290W        W33386   7.216  10.761  13.880
74291W        W33387  11.300   5.255  12.563
74292W        W33388   3.297   9.874   4.164
74293W        W33389  34.596   9.734   1.715
74294W        W33390   6.339  20.707   1.780
74295W        W33391  36.872  25.710   2.827
74296W        W33392  24.697  39.408  14.309
74297W        W33393  22.548  32.574   2.842
74298W        W33394  20.188  18.116  10.601
74299W        W33395  31.620  27.646   1.361
74300W        W33396  44.317   3.308   5.222
74301W        W33397  32.086  30.432  13.798
74302W        W33398  29.053  26.975   1.858
74303W        W33399  34.943   4.396   0.900
74304W        W33400  26.465  34.099   0.349
74305W        W33401   1.255   9.862  10.907
74306W        W33402  40.879  19.268  10.557
74307W        W33403   4.391  33.891   4.276
74308W        W33404  31.965  11.306   4.648
74309W        W33405   7.375  38.865   1.727
74310W        W33406  30.974  36.940   2.847
74311W        W33407  24.657  13.604  13.007
74312W        W33408  17.241  39.896  10.605
74313W        W33409  22.558   7.858   3.330
74314W        W33410  27.086  22.183   0.888
74315W        W33411  11.794  41.483   5.243
74316W        W33412  11.786  31.024   2.873
74317W        W33413  10.231  17.082  12.839
74318W        W33414   7.819   0.366  11.924
74319W        W33415  24.032  34.965   1.764
74320W        W33416  29.473  13.313   1.449
74321W        W33417   2.286  26.138  12.399
74322W        W33418  14.174  12.219  14.923
74323W        W33419  30.028  40.817   0.926
74324W        W33420  12.135  11.240  12.855
74325W        W33421   4.330  18.116  13.053
74326W        W33422   6.200  19.718  13.499
74327W        W33423  27.962   6.182  14.871
74328W        W33424  16.156   4.922  11.863
74329W        W33425   0.986  37.537  13.423
74330W        W33426  24.629  24.482  14.470
74331W        W33427  16.774  17.141   3.784
74332W        W33428  17.555   9.274   9.502
74333W        W33429  42.423  34.519  11.084
74334W        W33430   2.951  43.371   3.841
74335W        W33431  21.547  44.952  14.987
74336W        W33432  19.684  11.819   2.695
74337W        W33433   3.309   5.817  13.008
74338W        W33434   9.838  43.913  13.364
74339W        W33435  20.553  23.112  11.044
74340W        W33436  21.623  35.902  11.998
74341W        W33437   7.413   9.840  12.962
74342W        W33438   8.247  24.676   2.803
74343W        W33439   5.383  23.210   0.281
74344W        W33440   3.325  38.891  13.013
74345W        W33441   6.919  15.603   3.778
74346W        W33442   7.323  34.933   1.274
74347W        W33443  14.665  31.523   3.717
74348W        W33444   2.822  14.687   0.891
74349W        W33445   3.730  20.054   4.293
74350W        W33446  41.534  34.979   0.918
74351W        W33447  43.977  27.677   4.713
74352W        W33448  23.660   9.645  14.882
74353W        W33449   2.825  41.378  12.382
74354W        W33450  28.949  23.220   4.626
74355W        W33451   8.785   4.331   1.748
74356W        W33452  30.466   2.857   0.352
74357W        W33453  43.442   1.768   0.433
74358W        W33454   3.871   6.859  10.963
74359W        W33455  24.209  14.778  12.527
74360W        W33456  21.695  40.025   3.337
74361W        W33457   1.880  43.873   1.909
74362W        W33458  26.142  25.506  13.833
74363W        W33459  32.494  41.497  14.920
74364W        W33460  23.579  19.610  14.902
74365W        W33461  26.167  35.912  13.493
74366W        W33462  24.205  39.062   4.202
74367W        W33463   4.303  40.439  13.333
74368W        W33464  41.016   6.836  12.077
74369W        W33465  34.882  38.068   4.602
74370W        W33466  22.051   3.456   1.218
74371W        W33467  28.581  21.128   0.771
74372W        W33468  44.784  26.502   3.260
74373W        W33469  12.707   1.876   1.242
74374W        W33470  31.927  27.141  11.545
74375W        W33471   9.839   3.342   0.305
74376W        W33472   2.422  10.788  13.858
74377W        W33473  28.081  24.628   1.858
74378W        W33474  44.294  30.424   1.855
74379W        W33475  38.414  25.643  12.386
74380W        W33476   9.768  36.592  12.547
74381W        W33477  15.145  24.501  11.127
74382W        W33478   1.764  18.655   1.761
74383W        W33479  15.093  36.064   0.821
74384W        W33480  18.054  18.104  14.962
74385W        W33481  26.075  18.649  14.912
74386W        W33482   2.361   7.695  12.034
74387W        W33483  32.425  26.988   4.775
74388W        W33484  25.481  28.114   0.824
74389W        W33485  11.224  25.706   3.234
74390W        W33486  16.184  11.202  10.981
74391W        W33487  28.964  10.300   0.356
74392W        W33488  24.052  21.566  13.404
74393W        W33489  35.107  34.421  14.874
74394W        W33490  27.967   0.258  12.463
74395W        W33491  23.668  23.088   2.898
74396W        W33492  29.514  43.440   2.349
74397W        W33493  25.022  28.036  11.970
74398W        W33494  17.144  28.463   2.703
74399W        W33495  28.476   5.403   3.662
74400W        W33496   1.871  39.442  11.563
74401W        W33497  38.477  36.080   0.943
74402W        W33498  31.132  10.715   1.789
74403W        W33499  42.387  11.208   2.258
74404W        W33500   2.818  22.703   1.912
74405W        W33501  30.157  16.704   1.365
74406W        W33502  28.090  41.339  10.081
74407W        W33503  24.544  39.481   3.199
74408W        W33504  11.771  21.181   2.208
74409W        W33505   0.310   0.809  12.943
74410W        W33506  29.544   1.446  14.989
74411W        W33507  24.684   0.362  14.929
74412W        W33508  36.927   3.237   3.333
74413W        W33509  22.089  29.613  11.442
74414W        W33510  11.686  19.679   0.843
74415W        W33511  38.072  44.991  12.443
74416W        W33512   6.288  35.394  13.976
74417W        W33513  21.226  17.603   1.896
74418W        W33514  22.046  19.087  14.863
74419W        W33515  10.725  43.318  11.543
74420W        W33516   9.167  43.921   4.742
74421W        W33517   2.312  24.108  11.976
74422W        W33518   9.171  28.494  10.434
74423W        W33519  16.117  29.569   2.311
74424W        W33520  44.790   3.905  11.016
74425W        W33521  32.584  36.864   1.398
74426W        W33522   7.250  36.375  14.355
74427W        W33523   4.744  23.046   0.740
74428W        W33524   6.304  27.481  14.899
74429W        W33525   3.247   0.969  14.461
74430W        W33526  42.922  25.565  14.762
74431W        W33527  43.347  23.562   1.741
74432W        W33528  40.422  17.674   4.351
74433W        W33529  23.557   5.314   3.264
74434W        W33530  32.900  11.323  14.406
74435W        W33531  31.138   2.279  12.982
74436W        W33532  31.005  21.561  14.892
74437W        W33533   7.258  26.631  12.462
74438W        W33534  44.979  18.074  12.021
74439W        W33535   6.230  15.663  10.553
74440W        W33536  13.136   2.769   2.692
74441W        W33537  38.013  42.887   3.353
74442W        W33538  34.980  10.268  11.906
74443W        W33539  31.995   7.798  11.514
74444W        W33540  14.735  12.287  12.483
74445W        W33541  10.177   1.925  12.403
74446W        W33542  15.120  15.109  13.460
74447W        W33543   4.740  17.718   0.430
74448W        W33544  16.123  21.072  11.909
74449W        W33545  40.798  12.172   0.301
74450W        W33546  43.845   9.156  11.900
74451W        W33547  42.977  43.829   2.814
74452W        W33548  44.925   3.863   4.782
74453W        W33549  30.468  32.395  13.794
74454W        W33550  24.554  43.291   2.386
74455W        W33551  10.179  39.945  13.515
74456W        W33552  33.545  36.462   0.303
74457W        W33553  29.990  28.439   1.906
74458W        W33554  29.454  39.505  10.957
74459W        W33555  17.174  29.175   5.215
74460W        W33556  39.510   1.402   2.373
74461W        W33557  37.529   0.970   0.733
74462W        W33558   8.343  15.260  14.438
74463W        W33559   6.735   0.929   3.308
74464W        W33560   0.954  36.351   0.473
74465W        W33561  25.626  15.239  12.540
74466W        W33562  13.681  14.304  11.928
74467W        W33563  33.054  42.918  14.340
74468W        W33564   5.373  42.434  12.859
74469W        W33565  37.496  39.329  14.798
74470W        W33566  31.955  14.102   1.329
74471W        W33567  35.388  10.229   1.847
74472W        W33568  28.572  30.467   3.307
74473W        W33569  31.061  24.124  12.871
74474W        W33570  16.302  40.496  14.855
74475W        W33571   6.414  13.742   4.838
74476W        W33572  37.548   8.721  11.875
74477W        W33573  17.640  34.410  10.987
74478W        W33574   5.883  18.116  11.596
74479W        W33575  41.853  20.134   3.647
74480W        W33576  26.993  33.049  11.014
74481W        W33577   3.777  27.509  12.543
74482W        W33578   3.778  27.678   9.622
74483W        W33579  10.737  33.044  10.087
74484W        W33580  12.827  35.366  11.580
74485W        W33581   0.824  39.539  12.088
74486W        W33582  10.697  20.681  11.949
74487W        W33583   6.690   3.924   1.797
74488W        W33584  36.877  35.976  13.796
74489W        W33585   7.671  21.641  10.423
74490W        W33586   5.871  42.809  14.950
74491W        W33587   2.833  31.020   2.222
74492W        W33588  26.614  41.984  13.448
74493W        W33589  30.504  12.610  11.928
74494W        W33590  33.043  43.457  10.519
74495W        W33591  25.986  26.494   2.682
74496W        W33592  33.936  29.056  11.106
74497W        W33593  29.505  24.226  13.442
74498W        W33594   6.196   9.346   0.802
74499W        W33595  22.704  44.472  11.104
74500W        W33596  10.379  32.530  10.042
74501W        W33597  22.623  18.213   0.353
74502W        W33598  11.219  11.798  14.431
74503W        W33599  22.705  19.253   9.619
74504W        W33600  30.943  25.033  12.360
74505W        W33601  14.809  20.219   1.353
74506W        W33602   3.244  35.031  10.907
74507W        W33603  35.399  25.621   0.726
74508W        W33604  39.052  31.633  12.567
74509W        W33605   0.322  39.990  10.530
74510W        W33606  28.454  19.263   5.688
74511W        W33607  43.826  11.127   2.805
74512W        W33608  14.801  22.547   4.751
74513W        W33609  29.590  20.572  13.515
74514W        W33610  25.644  17.714   5.293
74515W        W33611   7.738   7.697  13.810
74516W        W33612   1.347  24.651  11.432
74517W        W33613  40.449   1.275   3.762
74518W        W33614  38.991   3.738  10.460
74519W        W33615  24.668  13.837  14.875
74520W        W33616  36.019  44.774  12.366
74521W        W33617   0.971  22.522   3.313
74522W        W33618  19.627  29.042  11.070
74523W        W33619   6.215  29.018   3.689
74524W        W33620  24.003  38.881   5.311
74525W        W33621  29.624  23.652  14.439
74526W        W33622  36.576  22.231   3.204
74527W        W33623  26.192  14.609  11.863
74528W        W33624   4.356  39.396   2.861
74529W        W33625  19.554  24.148  10.494
74530W        W33626  38.403  25.103  14.848
74531W        W33627  33.953  13.289   2.396
74532W        W33628  34.883   2.314   4.124
74533W        W33629  22.552  22.741  11.057
74534W        W33630  35.453  22.691  13.490
74535W        W33631   9.223   8.269  13.051
74536W        W33632  25.216  18.245  14.947
74537W        W33633  20.039  20.268   0.314
74538W        W33634  14.315  20.186  11.050
74539W        W33635  26.957   1.765  10.934
74540W        W33636  14.221  44.458   2.292
74541W        W33637   3.817   6.217  11.125
74542W        W33638  32.072   7.771  10.639
74543W        W33639  14.659  17.659  10.634
74544W        W33640  13.338  41.969  14.389
74545W        W33641  25.610  20.611  12.009
74546W        W33642  18.245   0.320  10.553
74547W        W33643  21.238  42.326   1.301
74548W        W33644  23.572  43.450  14.837
74549W        W33645  26.683  22.680   2.215
74550W        W33646  23.002  42.790   3.290
74551W        W33647  21.742  39.516   3.158
74552W        W33648  13.661   5.750  12.351
74553W        W33649  37.384  24.134  10.927
74554W        W33650  26.953  33.020  13.534
74555W        W33651  14.794   8.741  14.020
74556W        W33652  38.977  38.508   3.634
74557W        W33653   9.779   4.352   2.876
74558W        W33654  42.317   8.885   0.314
74559W        W33655   4.876   8.657  13.897
74560W        W33656  38.444  35.039  10.973
74561W        W33657   3.375  40.030  13.503
74562W        W33658  28.100  10.349   0.313
74563W        W33659  35.012  33.567  13.484
74564W        W33660  23.165   7.864  11.123
74565W        W33661   8.173  11.362  12.559
74566W        W33662  15.610  26.057   4.129
74567W        W33663  38.392  33.554  11.538
74568W        W33664  13.308  28.512   4.308
74569W        W33665  28.539  27.494  14.481
74570W        W33666  31.966  13.727  12.521
74571W        W33667  38.948  13.697  14.797
74572W        W33668   5.238   5.742  13.416
74573W        W33669  30.155  36.421  13.338
74574W        W33670   8.233  35.583  13.812
74575W        W33671  35.077  21.710  14.331
74576W        W33672  27.107  14.810   2.664
74577W        W33673  36.925  40.867  14.315
74578W        W33674  11.769   6.762   0.813
74579W        W33675   9.342   3.759   4.830
74580W        W33676  10.207  11.830  11.401
74581W        W33677  24.141  35.551   3.732
74582W        W33678  15.088   8.261  13.452
74583W        W33679  28.514  26.162  10.571
74584W        W33680  43.334  31.935  10.980
74585W        W33681  29.075  10.227   1.714
74586W        W33682   2.382  16.212   0.831
74587W        W33683   6.763  27.692  12.922
74588W        W33684  20.080  22.568  12.342
74589W        W33685   5.277   8.895  14.016
74590W        W33686  25.209  24.000   5.195
74591W        W33687  29.601  11.229  12.945
74592W        W33688  42.404   9.723   4.153
74593W        W33689   1.806  14.740   1.320
74594W        W33690  41.382  27.005   0.388
74595W        W33691  39.924   4.937   0.454
74596W        W33692  13.812  18.076   1.410
74597W        W33693  10.869  11.795  13.474
74598W        W33694  30.550  28.112   5.287
74599W        W33695  22.536   2.340  13.839
74600W        W33696  37.078  35.932  14.504
74601W        W33697  41.385  25.488   4.286
74602W        W33698  43.871   5.286  13.014
74603W        W33699  40.479  10.758  10.098
74604W        W33700   6.893   4.931  12.961
74605W        W33701   3.823  28.639   4.312
74606W        W33702  36.845   8.188  10.473
74607W        W33703  27.587  12.808  14.310
74608W        W33704  20.185   2.946   4.141
74609W        W33705  27.106  44.954  11.112
74610W        W33706   6.358   6.681  11.966
74611W        W33707  23.721  32.601  14.008
74612W        W33708  30.118  30.650   0.306
74613W        W33709  34.091   2.276   2.378
74614W        W33710  39.915   1.479  11.126
74615W        W33711   4.392   8.208  10.582
74616W        W33712   8.752   6.409   1.742
74617W        W33713  37.842  33.504   1.932
74618W        W33714  44.832  14.645  14.842
74619W        W33715  33.581  38.822   1.417
74620W        W33716  38.338  43.012  11.501
74621W        W33717  27.522  25.212   4.278
74622W        W33718   2.396  24.048   3.699
74623W        W33719   0.403   4.258   1.761
74624W        W33720  42.941  17.594  13.001
74625W        W33721  32.414  43.823   1.901
74626W        W33722   9.285  33.998   4.179
74627W        W33723   1.810  18.594   1.312
74628W        W33724  36.030  22.220   4.621
74629W        W33725  32.092   4.767  14.457
74630W        W33726  32.541  29.925   4.743
74631W        W33727  28.083   5.224  14.491
74632W        W33728  26.077  29.078   4.155
74633W        W33729  20.622  13.129   4.808
74634W        W33730  18.719  27.948  11.923
74635W        W33731  23.092  29.098   0.903
74636W        W33732  16.305  27.567  11.117
74637W        W33733   0.489  16.623  11.454
74638W        W33734  14.752  36.374   5.795
74639W        W33735  29.932   0.437  10.486
74640W        W33736  12.272  38.554  13.051
74641W        W33737  34.424  36.093  11.501
74642W        W33738  39.893  31.906   1.935
74643W        W33739   7.741  43.470   3.189
74644W        W33740  35.438  18.267   2.328
74645W        W33741  11.852  28.147  13.991
74646W        W33742   2.278  30.080   3.845
74647W        W33743   6.326  12.717  14.018
74648W        W33744  38.924  40.902  14.343
74649W        W33745   1.941  37.975   1.214
74650W        W33746  21.638  20.119   3.365
74651W        W33747  14.600  31.572  11.022
74652W        W33748  39.360  13.617   2.731
74653W        W33749  33.576  12.357   3.342
74654W        W33750  24.617  11.164   3.807
74655W        W33751  16.211  22.181  13.957
74656W        W33752  22.247  24.196  13.498
74657W        W33753  38.536  44.369  14.514
74658W        W33754   1.331  16.087   1.261
74659W        W33755  41.915   9.793  10.491
74660W        W33756  29.556  17.713  10.428
74661W        W33757  29.667  26.098  11.903
74662W        W33758  18.133  42.354   2.870
74663W        W33759  32.615  10.236   2.248
74664W        W33760  29.457  17.596  13.484
74665W        W33761  19.718  26.614  10.894
74666W        W33762  11.260   6.414  12.094
74667W        W33763  30.619  34.453  13.466
74668W        W33764  12.156  33.878  11.560
74669W        W33765  23.989  22.022   3.271
74670W        W33766   8.691  35.046  12.826
74671W        W33767  26.493   1.248  11.867
74672W        W33768  37.490   6.427   2.385
74673W        W33769  16.612  34.977  11.094
74674W        W33770  40.391   4.403   0.844
74675W        W33771  20.190  16.602  14.407
74676W        W33772   3.857   7.882   4.641
74677W        W33773  42.283  30.908  11.108
74678W        W33774  14.675  19.623  13.051
74679W        W33775   2.232  13.808  14.925
74680W        W33776   0.251  42.476  11.404
74681W        W33777  14.211  39.452   2.852
74682W        W33778  16.191   6.333   9.923
74683W        W33779   2.353  39.430   2.824
74684W        W33780  33.875  19.281  11.403
74685W        W33781  33.578  31.009   0.764
74686W        W33782   4.918  44.280  13.444
74687W        W33783   5.424  13.807   2.357
74688W        W33784  30.553  42.370  11.857
74689W        W33785  40.387  13.265   1.849
74690W        W33786  22.545  23.039  11.556
74691W        W33787  36.906   9.280   1.781
74692W        W33788  22.056  31.424   1.893
74693W        W33789  33.961  38.998  14.467
74694W        W33790  14.186  36.494   9.596
74695W        W33791  17.105   9.218  12.443
74696W        W33792  33.075  26.605   4.672
74697W        W33793  10.151  20.109   4.160
74698W        W33794   0.844  44.792  13.999
74699W        W33795  20.571   7.207  11.499
74700W        W33796  17.758  15.281   0.772
74701W        W33797  11.638  21.252  14.422
74702W        W33798   5.205   0.839  11.493
74703W        W33799  33.962  35.392  11.936
74704W        W33800  25.487  10.676   1.404
74705W        W33801   3.737  37.392  11.561
74706W        W33802  39.874  39.557  11.910
74707W        W33803  13.267  44.828   0.962
74708W        W33804  11.662  28.569  11.525
74709W        W33805  42.938  30.012   0.467
74710W        W33806  11.831  28.551   4.642
74711W        W33807  18.685  44.817  10.524
74712W        W33808  16.185  22.020  14.288
74713W        W33809   1.473  13.818   0.826
74714W        W33810  10.665  30.981  13.372
74715W        W33811  33.396   0.856   4.698
74716W        W33812  16.774  23.134   1.903
74717W        W33813  21.579  42.418  11.954
74718W        W33814  10.766  33.089  13.866
74719W        W33815   3.408   5.930   2.702
74720W        W33816  22.237  15.117   4.251
74721W        W33817  22.119  27.061   4.280
74722W        W33818  37.081  22.600  10.601
74723W        W33819  40.375  41.024  10.574
74724W        W33820  42.322   9.301  12.998
74725W        W33821  10.665  43.827  13.023
74726W        W33822  32.025  32.114   3.739
74727W        W33823  32.421  39.824   2.836
74728W        W33824  40.893  22.516   4.838
74729W        W33825   9.288   3.762  12.069
74730W        W33826  34.928  17.752   0.879
74731W        W33827  22.558   4.428   3.747
74732W        W33828  13.152  29.600   3.165
74733W        W33829   1.932  26.682  13.046
74734W        W33830  14.642  15.587  11.433
74735W        W33831   9.662  17.587  10.526
74736W        W33832   6.321  39.976   1.425
74737W        W33833  36.440  18.291   1.819
74738W        W33834   5.219  36.077   2.750
74739W        W33835  38.004  31.414  14.435
74740W        W33836  21.122  43.797  14.026
74741W        W33837  39.816  29.939  11.451
74742W        W33838  17.139   9.361   2.762
74743W        W33839   0.386   7.396  11.404
74744W        W33840  33.941  39.053  11.945
74745W        W33841  29.048   5.317   2.683
74746W        W33842  21.034   0.983   4.129
74747W        W33843   1.875  16.197  13.415
74748W        W33844  14.793  37.034   4.640
74749W        W33845  11.267  20.042   4.161
74750W        W33846  12.633  44.390   3.214
74751W        W33847  44.877  22.243   3.179
74752W        W33848  34.586  25.640  14.926
74753W        W33849  25.181  20.129   1.284
74754W        W33850  33.416  25.972  12.537
74755W        W33851   9.173   2.341  12.486
74756W        W33852  26.544   5.342  11.929
74757W        W33853  25.530  21.546  13.961
74758W        W33854  10.275  28.971  12.956
74759W        W33855  11.847  42.525  13.828
74760W        W33856   2.722   5.912  14.411
74761W        W33857   9.304  10.337   4.730
74762W        W33858   7.217  33.890   2.726
74763W        W33859  42.828   6.215   4.835
74764W        W33860  44.473  30.934  12.963
74765W        W33861  42.023  17.190  11.456
74766W        W33862  15.754  42.488  13.009
74767W        W33863   3.427   0.309   4.221
74768W        W33864  37.419  19.716  14.781
74769W        W33865  43.434  42.939   5.133
74770W        W33866  10.780   5.849   2.220
74771W        W33867  17.113   4.750   0.408
74772W        W33868  40.951   3.365  13.451
74773W        W33869  37.487  25.516   0.411
74774W        W33870  19.744   6.829   2.273
74775W        W33871  37.506  34.441  14.828
74776W        W33872  22.508  38.571  10.153
74777W        W33873  37.032  37.540   1.394
74778W        W33874  12.657  44.871  12.527
74779W        W33875  40.977  10.245  14.425
74780W        W33876  35.586  14.255  13.795
74781W        W33877  21.151   1.315  14.386
74782W        W33878  25.049  23.068   1.755
74783W        W33879  24.120  20.672   0.381
74784W        W33880  43.338  17.283  11.465
74785W        W33881   8.361  35.369   1.243
74786W        W33882  28.541   2.340   1.758
74787W        W33883  42.811  37.448   3.294
74788W        W33884   0.485  40.821   1.855
74789W        W33885  32.920  38.015  10.964
74790W        W33886   1.860  18.592  12.942
74791W        W33887  24.577   9.795   3.714
74792W        W33888  34.432   6.834   4.212
74793W        W33889  29.133  19.116   4.214
74794W        W33890   8.393  26.537   3.312
74795W        W33891  41.010  35.937  10.513
74796W        W33892  37.910  30.545  13.332
74797W        W33893  27.640  44.420   2.214
74798W        W33894   5.739   2.269  10.640
74799W        W33895   3.438  29.951   0.360
74800W        W33896  28.526  37.994  14.761
74801W        W33897  25.045  23.735   3.296
74802W        W33898  14.153   7.669  14.924
74803W        W33899  29.938  12.187  13.538
74804W        W33900  42.473  42.337   1.925
74805W        W33901  15.730  28.450  11.544
74806W        W33902  43.933  34.874   4.807
74807W        W33903  10.796  39.431   1.286
74808W        W33904  10.383  40.039   5.170
74809W        W33905  32.529   9.162  11.074
74810W        W33906   6.714  33.995   1.916
74811W        W33907  34.902  18.099   1.876
74812W        W33908  11.351  31.122   4.600
74813W        W33909   7.730  26.608  12.515
74814W        W33910  34.898   0.280  13.888
74815W        W33911  15.667  40.955   1.819
74816W        W33912   7.877   4.284  13.899
74817W        W33913   2.856  29.065  12.895
74818W        W33914   4.434  28.474  12.990
74819W        W33915  41.485  42.409  11.082
74820W        W33916  29.578  42.784   1.716
74821W        W33917  36.090   7.196  12.412
74822W        W33918  41.443  31.632  14.791
74823W        W33919  29.158   6.408  12.476
74824W        W33920   0.765  11.167   1.442
74825W        W33921  18.081  13.293   1.434
74826W        W33922   2.814  18.659  12.097
74827W        W33923  32.962  36.030  13.928
74828W        W33924  16.703  33.905   5.271
74829W        W33925  41.792  26.109  10.560
74830W        W33926   0.338   9.344  11.998
74831W        W33927   1.934   7.322   2.243
74832W        W33928  32.527  27.659   1.694
74833W        W33929  14.805  39.324   3.718
74834W        W33930   3.819   1.377   1.408
74835W        W33931   3.342   7.407   2.706
74836W        W33932   2.336   3.828  12.058
74837W        W33933   6.355  23.634   5.666
74838W        W33934   9.697   6.729  13.967
74839W        W33935  23.526  44.386   2.736
74840W        W33936  15.746  40.808  14.494
74841W        W33937  28.121  28.174   3.244
74842W        W33938  15.671  35.982   3.759
74843W        W33939  25.972   8.750   0.735
74844W        W33940  34.502  36.490   3.787
74845W        W33941  14.265  28.056  13.443
74846W        W33942  40.480  40.866   2.350
74847W        W33943  38.838  35.546  13.351
74848W        W33944  28.103  15.126  10.950
74849W        W33945   0.433   0.833   3.638
74850W        W33946  36.483  39.431  13.954
74851W        W33947   4.813  35.103   4.607
74852W        W33948   4.707  44.403  12.358
74853W        W33949   0.262   3.954  14.293
74854W        W33950  28.629  44.844   0.815
74855W        W33951  13.177  39.513   2.756
74856W        W33952  27.609   3.799   0.283
74857W        W33953  17.070   7.718  13.391
74858W        W33954  17.109  36.970  12.479
74859W        W33955   2.856   9.237  10.995
74860W        W33956  24.190  16.273  11.374
74861W        W33957  25.190  24.633   4.673
74862W        W33958  43.999   5.815  10.615
74863W        W33959  29.478   6.211  14.844
74864W        W33960   6.751   4.899   1.854
74865W        W33961  32.993   3.867   1.388
74866W        W33962  30.606  43.863   4.686
74867W        W33963   4.934  40.836   2.266
74868W        W33964  26.195   2.964  14.480
74869W        W33965  24.533  23.165   1.425
74870W        W33966  44.413  30.477   5.234
74871W        W33967  35.894  32.121  11.093
74872W        W33968  15.189  36.002  13.387
74873W        W33969   7.705  15.650  12.959
74874W        W33970  18.601  17.574  10.618
74875W        W33971  30.112  39.343   3.191
74876W        W33972   4.813  42.866   9.988
74877W        W33973  32.924   5.265   0.924
74878W        W33974  11.794   2.266  13.917
74879W        W33975  34.479  12.322  11.030
74880W        W33976  39.480  28.975  10.463
74881W        W33977  12.219  27.028   3.309
74882W        W33978  16.749  16.277   4.658
74883W        W33979  39.935  23.030  14.981
74884W        W33980   7.183  29.635   3.204
74885W        W33981  23.165  28.663   4.621
74886W        W33982  18.281  14.251  12.077
74887W        W33983  11.808   8.820   1.861
74888W        W33984  36.021  27.552  14.357
74889W        W33985   9.700   2.230   2.711
74890W        W33986   7.894  34.416  10.446
74891W        W33987  25.999  17.219   5.243
74892W        W33988  18.235  38.438   1.255
74893W        W33989  23.659   8.843   0.931
74894W        W33990  33.131  11.136  11.893
74895W        W33991   4.772  15.597  10.074
74896W        W33992  37.500  43.380   2.186
74897W        W33993  36.028  38.953  14.443
74898W        W33994   5.911   4.328   0.825
74899W        W33995  17.801  22.606   3.765
74900W        W33996  27.588  11.652   4.825
74901W        W33997  25.205  44.320  14.959
74902W        W33998  23.088  20.142  12.340
74903W        W33999   5.691   3.305  13.957
74904W        W34000   5.787   2.337  13.335
74905W        W34001   2.362   4.856   5.285
74906W        W34002  40.831  15.320  12.844
74907W        W34003  34.463  16.627  13.481
74908W        W34004  15.247  12.753  13.444
74909W        W34005   6.188  27.094   2.366
74910W        W34006  32.626  37.865  14.487
74911W        W34007  22.656  36.048  11.861
74912W        W34008   6.712  36.951  11.035
74913W        W34009   1.297   2.397  10.939
74914W        W34010  41.518  32.415  14.945
74915W        W34011  43.348   1.927  10.984
74916W        W34012  21.578  42.803   2.226
74917W        W34013  38.999  26.069   2.294
74918W        W34014  14.755  11.769  13.807
74919W        W34015   3.916   2.232  12.369
74920W        W34016  30.022   6.344  12.084
74921W        W34017  23.728  22.234   3.247
74922W        W34018  21.709  29.042   0.745
74923W        W34019  44.903  36.562  14.841
74924W        W34020  30.088  18.655  13.035
74925W        W34021  35.037   0.963   2.243
74926W        W34022  10.286  39.488   4.630
74927W        W34023  31.628   2.737   3.747
74928W        W34024   5.732  41.307   3.822
74929W        W34025  43.406   2.818  10.414
74930W        W34026   3.290  15.788   4.115
74931W        W34027  11.807  41.005  13.992
74932W        W34028  27.533   9.696  10.628
74933W        W34029  11.814  32.931   3.257
74934W        W34030  30.064  12.275   2.672
74935W        W34031  16.265  21.659   2.892
74936W        W34032  40.937  25.620  13.903
74937W        W34033  36.906  37.464   2.836
74938W        W34034  23.568  17.175   3.328
74939W        W34035  10.698  11.257   3.775
74940W        W34036  25.199  14.820  14.920
74941W        W34037  11.744  17.284   3.238
74942W        W34038  19.690  24.053  14.014
74943W        W34039   9.265  17.195  10.519
74944W        W34040  12.763  26.531  11.606
74945W        W34041  35.017  36.464   0.951
74946W        W34042  37.881  32.575   4.694
74947W        W34043  28.606   3.272  11.027
74948W        W34044  23.616  29.075   1.318
74949W        W34045  11.814  29.477   2.861
74950W        W34046   2.917  32.616  12.943
74951W        W34047  19.130   6.819  14.316
74952W        W34048  18.546  10.164   2.339
74953W        W34049  42.894  43.879   1.296
74954W        W34050  18.051  21.017   2.322
74955W        W34051  20.039   9.194   1.768
74956W        W34052  37.913   9.234   3.647
74957W        W34053  13.338  39.832   1.858
74958W        W34054  29.508   7.377   0.445
74959W        W34055  14.749  34.466  10.592
74960W        W34056   9.693   1.431  12.950
74961W        W34057  21.756  22.662   4.141
74962W        W34058  38.494   8.872  12.460
74963W        W34059  15.818  21.230  10.057
74964W        W34060  16.615   1.482   2.330
74965W        W34061  34.587   8.336   1.904
74966W        W34062   1.325  44.323  10.091
74967W        W34063  10.200  21.603   4.829
74968W        W34064   8.353   0.797  10.892
74969W        W34065  28.988  33.952   0.312
74970W        W34066  15.743  21.597   3.858
74971W        W34067  13.827  26.015   3.742
74972W        W34068  21.256   2.861  12.993
74973W        W34069   1.818   5.236  14.924
74974W        W34070   7.199  27.542   1.904
74975W        W34071  44.350  16.311  14.363
74976W        W34072  41.991  32.410  14.786
74977W        W34073  10.254  31.910  12.881
74978W        W34074  31.955   8.293  13.322
74979W        W34075  19.223  24.035  13.403
74980W        W34076  11.310  11.320  12.941
74981W        W34077  20.195  31.988  13.362
74982W        W34078  40.322  18.740   4.140
74983W        W34079  37.043  17.634   9.458
74984W        W34080  38.884  38.835  12.992
74985W        W34081  18.552  23.646   4.735
74986W        W34082   6.771  39.065  14.436
74987W        W34083  26.656  11.730  14.810
74988W        W34084  20.149  36.402  13.957
74989W        W34085   8.859   3.883   1.883
74990W        W34086   9.652  22.171   3.814
74991W        W34087  36.446  14.630   3.826
74992W        W34088  17.568  12.732   2.720
74993W        W34089  26.604  38.515   0.839
74994W        W34090  21.589  24.017  12.933
74995W        W34091  43.767  21.036  11.453
74996W        W34092  30.485  28.612  11.412
74997W        W34093  15.656  39.862  14.948
74998W        W34094   0.278   3.756   1.770
74999W        W34095   3.437  20.230  13.439
75000W        W34096  17.704  22.607  12.369
75001W        W34097  26.634  37.924  13.812
75002W        W34098  43.500  37.443   4.775
75003W        W34099   2.437   2.304  10.584
75004W        W34100  17.668  15.277   3.706
75005W        W34101  27.179   0.778  14.811
75006W        W34102  11.663  43.853   0.791
75007W        W34103  22.601  10.695  12.986
75008W        W34104   3.713  41.427  13.527
75009W        W34105  15.266  31.992  11.876
75010W        W34106  34.993   9.690  12.448
75011W        W34107   0.309  24.583  11.866
75012W        W34108  23.011  13.673  14.339
75013W        W34109  23.027   6.288   4.632
75014W        W34110  42.849   3.452  13.855
75015W        W34111  20.091   4.243   2.298
75016W        W34112  17.233  43.950  14.452
75017W        W34113   6.238  18.237  10.024
75018W        W34114  33.381  15.722  11.892
75019W        W34115  21.689  40.519   1.338
75020W        W34116  17.071  21.218   3.765
75021W        W34117  16.759  10.373  11.452
75022W        W34118  28.057   7.892   3.781
75023W        W34119   5.397  10.874   0.967
75024W        W34120  39.440  31.471  11.016
75025W        W34121  40.480  25.012   1.703
75026W        W34122  20.617  10.371  13.413
75027W        W34123  17.148  19.040   3.325
75028W        W34124  36.057   4.225  14.286
75029W        W34125  12.695  29.594  13.464
75030W        W34126  12.857   7.193   2.214
75031W        W34127   2.391   3.395  12.903
75032W        W34128  16.700   0.784   2.263
75033W        W34129  26.145   0.250  11.494
75034W        W34130  38.405   1.950   2.331
75035W        W34131  19.129  34.429   3.222
75036W        W34132  27.971  35.412  10.490
75037W        W34133  34.511   6.866  12.456
75038W        W34134  11.333  35.475  14.336
75039W        W34135  39.959  12.148   3.737
75040W        W34136  23.181  31.905   2.813
75041W        W34137  40.047   3.765  13.003
75042W        W34138  38.498   4.878   4.187
75043W        W34139   6.414   3.869   2.330
75044W        W34140  42.287   9.777   4.716
75045W        W34141  34.009  40.995   3.641
75046W        W34142  16.301  26.659   1.439
75047W        W34143  24.503  38.476  14.867
75048W        W34144  43.910  41.471   4.299
75049W        W34145  30.655  11.651   1.827
75050W        W34146  14.687  37.924  12.059
75051W        W34147  31.986  28.075   0.806
75052W        W34148  34.031  39.393  12.828
75053W        W34149  10.299  40.883   3.161
75054W        W34150  29.969  35.948   3.146
75055W        W34151  42.776  33.929   2.371
75056W        W34152  22.164   5.831  14.780
75057W        W34153  11.367   8.159   1.339
75058W        W34154  20.761  14.261  11.516
75059W        W34155  19.720  40.322  13.946
75060W        W34156  27.059   6.919  11.525
75061W        W34157  39.554  22.599  10.572
75062W        W34158  33.947  22.044  14.773
75063W        W34159   2.872  26.595  11.883
75064W        W34160  20.192   3.784   0.409
75065W        W34161  10.254   2.810  14.441
75066W        W34162  44.764  42.850  14.892
75067W        W34163  24.513  12.627   0.467
75068W        W34164  12.196  13.340   0.816
75069W        W34165  12.613  21.570   3.341
75070W        W34166  10.161  15.176   1.933
75071W        W34167   6.359  36.032   4.176
75072W        W34168  40.850  42.389   3.660
75073W        W34169  16.114  18.550  14.392
75074W        W34170  14.153  38.343   3.318
75075W        W34171   6.340  14.139  10.083
75076W        W34172  41.894  10.865  13.903
75077W        W34173  20.127  11.366  14.797
75078W        W34174   0.747  41.475  12.436
75079W        W34175  38.554  44.893  11.543
75080W        W34176  29.574   3.412   3.233
75081W        W34177   4.917  37.550   4.619
75082W        W34178  19.268  14.168   1.274
75083W        W34179  30.513   9.829   2.339
75084W        W34180  24.565  31.454  13.930
75085W        W34181   9.694  16.138   1.861
75086W        W34182  28.477  32.558   1.323
75087W        W34183  18.637  44.986   2.699
75088W        W34184  26.148  16.682  12.968
75089W        W34185  34.058   1.740   1.396
75090W        W34186  16.732  39.531  13.455
75091W        W34187  26.197  41.523   0.958
75092W        W34188  33.431  44.464  11.907
75093W        W34189  11.338   6.821  13.510
75094W        W34190  36.407  42.304   4.230
75095W        W34191  18.743  20.260  11.123
75096W        W34192  30.525  29.597   0.791
75097W        W34193  38.472  28.989  11.444
75098W        W34194  42.029  20.101   0.759
75099W        W34195  36.566  43.395  12.868
75100W        W34196  22.500  35.001  10.449
75101W        W34197  30.576   8.246   4.826
75102W        W34198  24.152  32.061  13.061
75103W        W34199   9.260  24.124  14.016
75104W        W34200  22.015   3.819  12.073
75105W        W34201  38.968  11.274   2.781
75106W        W34202   5.244  27.059  14.974
75107W        W34203  11.237  41.349  12.408
75108W        W34204  30.635  34.397  10.928
75109W        W34205  22.654  34.495  13.364
75110W        W34206  23.491  19.134   0.388
75111W        W34207  11.834   8.848  13.828
75112W        W34208  11.138  40.483  10.891
75113W        W34209  15.246  36.950  10.567
75114W        W34210  40.869  30.511  14.816
75115W        W34211  23.046  28.929   3.170
75116W        W34212   0.816  42.848   4.629
75117W        W34213  42.853  44.778   3.323
75118W        W34214  39.046  28.005   4.334
75119W        W34215  26.628  20.692  12.463
75120W        W34216  12.636  43.845   2.415
75121W        W34217  25.089  13.167   3.330
75122W        W34218  29.549  44.500   1.919
75123W        W34219  27.186   7.177   3.181
75124W        W34220  16.673   2.812   2.803
75125W        W34221  27.036  22.014   2.320
75126W        W34222  26.204  25.698   2.850
75127W        W34223  40.044  34.070  10.446
75128W        W34224  40.839  41.392   0.400
75129W        W34225  17.576  12.295  12.477
75130W        W34226  28.008  25.178   2.890
75131W        W34227  36.037   8.758  13.886
75132W        W34228   3.454  38.849  14.816
75133W        W34229  42.455   6.880   2.665
75134W        W34230  38.407  33.016   1.790
75135W        W34231  16.209  38.966   0.884
75136W        W34232   6.424  12.804  12.537
75137W        W34233  16.211   8.209   2.373
75138W        W34234  18.277  27.643  14.498
75139W        W34235  20.613  15.593   4.120
75140W        W34236  41.042  37.908   1.371
75141W        W34237   7.864  29.654   3.355
75142W        W34238  19.678   8.223   0.728
75143W        W34239  19.243  44.327   1.268
75144W        W34240  22.698   9.817  10.005
75145W        W34241  11.750   1.320  13.347
75146W        W34242  24.167  25.527   4.738
75147W        W34243  43.872   1.473  10.448
75148W        W34244  44.974   9.872  11.578
75149W        W34245  41.869   8.390  11.953
75150W        W34246   7.702  29.017  12.563
75151W        W34247   2.297   1.898   0.482
75152W        W34248   3.746  14.788   4.116
75153W        W34249  38.453   8.763   5.234
75154W        W34250  10.372  37.001   3.249
75155W        W34251  44.311  31.131  12.485
75156W        W34252  26.469  16.210   3.743
75157W        W34253  38.461  34.930   3.869
75158W        W34254  21.026  34.065  11.025
75159W        W34255  14.174   2.413   3.162
75160W        W34256  31.972  31.572   2.803
75161W        W34257  13.290  24.217   3.787
75162W        W34258   3.232  11.631   1.298
75163W        W34259  29.608  38.831  11.564
75164W        W34260  12.278  44.808   3.315
75165W        W34261  19.764  37.018   3.658
75166W        W34262  37.386  15.101  14.813
75167W        W34263  31.637  30.491   3.766
75168W        W34264  26.607   6.410   1.413
75169W        W34265  17.571  36.881   4.204
75170W        W34266   1.401  35.521  13.928
75171W        W34267  35.971  13.230  14.335
75172W        W34268  14.281  17.716   2.272
75173W        W34269  17.621   3.316  14.364
75174W        W34270  20.717  19.672   2.896
75175W        W34271  11.138  22.557   1.380
75176W        W34272  18.589  19.241   4.300
75177W        W34273  26.663  11.753  12.515
75178W        W34274   4.373  29.493   4.742
75179W        W34275  21.261  32.083  12.449
75180W        W34276  17.759  17.638  14.330
75181W        W34277  35.450  35.545   3.231
75182W        W34278  39.350  12.303   0.275
75183W        W34279  25.031  19.540   3.810
75184W        W34280   4.418  42.798   3.267
75185W        W34281  25.001  40.002   1.792
75186W        W34282  24.058  43.934   2.362
75187W        W34283   1.734   2.250  14.817
75188W        W34284  34.087  26.702  11.070
75189W        W34285  11.262  43.395  10.893
75190W        W34286  37.881   8.392  10.973
75191W        W34287  21.544  29.472   4.150
75192W        W34288  25.489  41.442  11.091
75193W        W34289   1.905  14.796   3.749
75194W        W34290  14.173  11.803   1.720
75195W        W34291  36.441  24.192   5.214
75196W        W34292  37.973  20.173   4.714
75197W        W34293  23.549  39.941  14.029
75198W        W34294  42.018  21.110   2.351
75199W        W34295  41.867   2.315  13.343
75200W        W34296  34.527   8.731  10.445
75201W        W34297  12.130  44.826  12.896
75202W        W34298  32.547  43.942   4.765
75203W        W34299   8.268  41.033   0.479
75204W        W34300   0.311   8.206  11.025
75205W        W34301   7.682  41.820  14.331
75206W        W34302  42.367  17.265  13.950
75207W        W34303  17.132  21.201   4.310
75208W        W34304  34.966  18.582   2.902
75209W        W34305  19.745  10.739  10.548
75210W        W34306  24.034  13.763  14.323
75211W        W34307  22.206  10.321   4.830
75212W        W34308  20.764  15.628  11.457
75213W        W34309   5.721  28.435   1.289
75214W        W34310  11.265  11.825   1.707
75215W        W34311  16.769   7.407   2.211
75216W        W34312  24.592  34.501  12.857
75217W        W34313  17.753  40.995   5.097
75218W        W34314   1.388  44.370  11.576
75219W        W34315  18.201  11.674  12.887
75220W        W34316   1.827  38.035   4.290
75221W        W34317  23.144  40.819  10.964
75222W        W34318  35.408  31.140   0.942
75223W        W34319  21.535  43.339  10.999
75224W        W34320  42.527  18.288  11.590
75225W        W34321   9.266  31.482   1.702
75226W        W34322   7.775  34.425  12.959
75227W        W34323  17.086   4.941  12.415
75228W        W34324   4.285  21.579   1.341
75229W        W34325  27.119  37.539  10.493
75230W        W34326  34.507  19.779   2.762
75231W        W34327  36.458  12.300  13.514
75232W        W34328   0.778  17.781   4.173
75233W        W34329  14.618  25.047   2.393
75234W        W34330   9.385  27.148  11.912
75235W        W34331  30.032  44.470  11.900
75236W        W34332  20.709  22.656   4.600
75237W        W34333  13.779  26.465   2.400
75238W        W34334   9.243   1.396  11.938
75239W        W34335   9.225  33.878   0.914
75240W        W34336   0.268  33.498   1.217
75241W        W34337   3.255  26.594  12.446
75242W        W34338  43.806  10.818   4.744
75243W        W34339  43.983   1.788  10.412
75244W        W34340  32.505  31.487   1.918
75245W        W34341  36.089   7.271  11.493
75246W        W34342  37.969  29.604  13.040
75247W        W34343  24.174  32.959  14.782
75248W        W34344   4.934  17.716   3.716
75249W        W34345  19.246  22.544   3.685
75250W        W34346  27.558  25.479  14.459
75251W        W34347   2.430   5.198  10.638
75252W        W34348  11.220  39.872  11.887
75253W        W34349  23.082  30.570   1.698
75254W        W34350  11.714  14.251  12.526
75255W        W34351   3.853   7.275  11.396
75256W        W34352  22.533  13.313  13.453
75257W        W34353  31.440  43.920   4.214
75258W        W34354  44.473  18.084   4.224
75259W        W34355  12.611  31.019   0.839
75260W        W34356  25.557  12.747   2.816
75261W        W34357  29.646  16.215   2.364
75262W        W34358  16.186  10.790  12.873
75263W        W34359  19.051  40.402   2.766
75264W        W34360  44.776  34.120  12.393
75265W        W34361  42.343   4.744   0.287
75266W        W34362  17.790  30.152   4.694
75267W        W34363  38.065   7.789   1.449
75268W        W34364  21.661  36.977  13.490
75269W        W34365  13.294  42.915  10.999
75270W        W34366   0.303   9.659   0.817
75271W        W34367  41.847   4.824   2.270
75272W        W34368  29.163  40.936  14.322
75273W        W34369   9.723  43.766  14.827
75274W        W34370  11.761  43.824   1.712
75275W        W34371   3.950  10.790   0.322
75276W        W34372  33.959   4.438  10.463
75277W        W34373  44.448  41.482  12.534
75278W        W34374  41.475  14.164  14.813
75279W        W34375  27.600   5.252  13.439
75280W        W34376  42.409  32.899   0.785
75281W        W34377  28.975  15.300  10.939
75282W        W34378  31.027  14.604   4.268
75283W        W34379  27.683  20.629   4.691
75284W        W34380  30.924  13.171   4.666
75285W        W34381  36.465  35.390  13.343
75286W        W34382  18.729  41.026  11.383
75287W        W34383  22.097  18.051  13.060
75288W        W34384  32.441  12.647   3.204
75289W        W34385  38.044   2.766  11.608
75290W        W34386  34.027   5.322  12.868
75291W        W34387  20.080  11.169  12.412
75292W        W34388  13.152   5.343   0.461
75293W        W34389  14.775  27.143  11.597
75294W        W34390  33.922  35.559  14.823
75295W        W34391  11.161  18.758  14.767
75296W        W34392  10.834  13.718  12.092
75297W        W34393  40.514   8.851  11.864
75298W        W34394  35.486  19.544  13.014
75299W        W34395  25.572  41.788   2.730
75300W        W34396   5.296  35.886  11.938
75301W        W34397   2.809  37.431  12.548
75302W        W34398  12.844  38.538   2.258
75303W        W34399   7.702  28.672   4.146
75304W        W34400   5.371   6.197  12.387
75305W        W34401  41.398  25.179  10.933
75306W        W34402   3.319  43.021  14.452
75307W        W34403  25.005   9.826  14.494
75308W        W34404  36.559   3.258   1.404
75309W        W34405  32.547  34.093  12.339
75310W        W34406  16.265   6.712   2.412
75311W        W34407  25.605   0.337  14.956
75312W        W34408  16.229   9.333  14.503
75313W        W34409  34.076  26.953   2.204
75314W        W34410  38.484   9.149   3.665
75315W        W34411  15.244  28.091   0.471
75316W        W34412  20.756  24.030  13.854
75317W        W34413   0.307   4.804  13.041
75318W        W34414  30.086  35.528  10.434
75319W        W34415   9.763  10.148   4.118
75320W        W34416  41.798   2.357  12.408
75321W        W34417  29.962  30.058  14.450
75322W        W34418   3.729  36.520   4.137
75323W        W34419  35.593  25.070   0.393
75324W        W34420  25.545   0.394   1.342
75325W        W34421  29.557  15.715  13.815
75326W        W34422  23.621   0.981   0.276
75327W        W34423  11.714  21.642   0.738
75328W        W34424  16.655   2.325  14.389
75329W        W34425  37.005   4.856  10.595
75330W        W34426  16.813  29.023  12.539
75331W        W34427  15.228  41.878  13.921
75332W        W34428  15.579  36.556  11.947
75333W        W34429   8.785  41.957   1.448
75334W        W34430   8.347  17.602   1.903
75335W        W34431   6.783  10.817  13.523
75336W        W34432  18.268  40.940  14.443
75337W        W34433  17.757  31.908   3.682
75338W        W34434  34.407  12.823   0.882
75339W        W34435  43.772   0.352   1.722
75340W        W34436  20.271  36.440  14.798
75341W        W34437  44.973  24.056  13.062
75342W        W34438  44.785  25.155   2.830
75343W        W34439   7.183  32.537  12.993
75344W        W34440  33.883  11.173  14.455
75345W        W34441  12.218   2.837   2.258
75346W        W34442  16.181  25.635  14.285
75347W        W34443   2.765   8.768   2.338
75348W        W34444  10.830  16.138  12.565
75349W        W34445  36.509  26.996  10.924
75350W        W34446  33.392   8.794  14.290
75351W        W34447  33.950  27.949  14.467
75352W        W34448  37.387  39.044  11.437
75353W        W34449  37.342  10.639  12.902
75354W        W34450  18.215  43.844   2.781
75355W        W34451  21.651  16.701   0.922
75356W        W34452   0.290  32.970  14.809
75357W        W34453  23.179  12.638   4.163
75358W        W34454  25.218  39.497  13.481
75359W        W34455  35.947  39.507   3.638
75360W        W34456  42.997   9.322   5.173
75361W        W34457  23.085  18.618  13.059
75362W        W34458  27.186  36.476   2.712
75363W        W34459   5.880  34.072   0.462
75364W        W34460  11.689  39.473   4.114
75365W        W34461   4.421  36.004   4.772
75366W        W34462  27.490  28.590   3.296
75367W        W34463  18.091   4.787   1.891
75368W        W34464   9.848   8.398  12.900
75369W        W34465  22.027  35.906   1.415
75370W        W34466   9.384   1.884  12.940
75371W        W34467  44.994  10.201   1.854
75372W        W34468  41.865  13.616  13.855
75373W        W34469  16.760  17.667   4.805
75374W        W34470  28.557   2.940   4.807
75375W        W34471  39.495   4.942  13.992
75376W        W34472   8.232  10.773   4.229
75377W        W34473   6.702   4.216  14.349
75378W        W34474  40.807  31.069  12.360
75379W        W34475  10.151  31.529   3.311
75380W        W34476  41.304  43.972  10.543
75381W        W34477  13.270  23.692  14.381
75382W        W34478  34.474  35.924   2.696
75383W        W34479  43.321   0.978   4.826
75384W        W34480   6.359  40.373   1.801
75385W        W34481   3.360  10.273   4.274
75386W        W34482  35.036  19.607  11.568
75387W        W34483  18.189  35.054   1.342
75388W        W34484  24.208   5.880   4.747
75389W        W34485   9.229   8.162  11.565
75390W        W34486  36.057  28.599  14.422
75391W        W34487  13.783  21.630  10.887
75392W        W34488  42.471   3.727   0.962
75393W        W34489  13.818  25.475   3.857
75394W        W34490   0.295   4.699  12.376
75395W        W34491   8.196  25.990  13.039
75396W        W34492  17.204  14.655   0.471
75397W        W34493  38.990  22.712  13.417
75398W        W34494  27.949  43.911  14.833
75399W        W34495  16.757  42.514  11.565
75400W        W34496  25.650  22.558   3.743
75401W        W34497  28.582  43.913  13.984
75402W        W34498   5.289  11.741  13.468
75403W        W34499  42.291  11.864   2.701
75404W        W34500   8.171  43.936   3.786
75405W        W34501  37.451  20.075  11.897
75406W        W34502  28.184  25.559   2.728
75407W        W34503  15.201   3.804   3.383
75408W        W34504  34.961  33.485  13.885
75409W        W34505  41.005  20.226   1.897
75410W        W34506  33.901  22.535  14.020
75411W        W34507  22.193  14.162   1.777
75412W        W34508  42.882   4.278   3.344
75413W        W34509   9.356  27.066   0.910
75414W        W34510  24.207  33.609   5.102
75415W        W34511  31.611  18.609   1.344
75416W        W34512  25.006   1.239   3.185
75417W        W34513  30.485  16.778  10.593
75418W        W34514  25.209   3.376   3.717
75419W        W34515   3.871  18.276   1.740
75420W        W34516  24.196   9.259   1.433
75421W        W34517  10.673  22.567  12.981
75422W        W34518  28.971  43.400  13.425
75423W        W34519  36.404  28.173   4.785
75424W        W34520  18.233   6.767   1.845
75425W        W34521  26.054  22.745  11.088
75426W        W34522   9.813  28.077   3.855
75427W        W34523  44.479  40.892  12.086
75428W        W34524   2.888  18.099   2.326
75429W        W34525  23.134  14.259   1.890
75430W        W34526   2.448  13.811  12.459
75431W        W34527   6.347  32.053  10.612
75432W        W34528  17.559   5.368  14.786
75433W        W34529  11.207  20.256   2.251
75434W        W34530  42.787  25.113   1.872
75435W        W34531   3.936  21.654  11.606
75436W        W34532  13.726   0.890   3.208
75437W        W34533  36.534  14.826   2.358
75438W        W34534  15.637  36.472   2.300
75439W        W34535  36.905   0.971  14.490
75440W        W34536  21.174  19.237   4.777
75441W        W34537  42.390  16.187  12.069
75442W        W34538  15.764   9.233  12.958
75443W        W34539  44.451  32.126  10.155
75444W        W34540  35.917  15.156  13.374
75445W        W34541  35.035  33.408   9.999
75446W        W34542  33.511  10.168  13.460
75447W        W34543  16.184  20.610  11.082
75448W        W34544  13.131  13.135   1.286
75449W        W34545  29.566   3.288  14.818
75450W        W34546  37.539  32.634   1.889
75451W        W34547  22.529   9.732   0.767
75452W        W34548  39.917  17.556  14.850
75453W        W34549  41.510  28.162  10.518
75454W        W34550  27.132  44.385   2.820
75455W        W34551  41.952  27.111  14.476
75456W        W34552  37.083   4.376   2.672
75457W        W34553  20.713  24.089  12.831
75458W        W34554  40.853  30.489   0.447
75459W        W34555  21.088  24.107   1.803
75460W        W34556  42.482   7.282  10.960
75461W        W34557  34.484  16.790  12.929
75462W        W34558  28.116  35.932  14.363
75463W        W34559   6.323  11.145   3.381
75464W        W34560  20.544   2.429   2.671
75465W        W34561  29.494  21.741   2.668
75466W        W34562  42.922  19.170  12.438
75467W        W34563  39.362  42.797  12.487
75468W        W34564   2.883   7.743  13.833
75469W        W34565  26.956   6.767  13.365
75470W        W34566   2.743  38.015  14.484
75471W        W34567  31.581  14.095   2.261
75472W        W34568   9.711  41.864  14.490
75473W        W34569   1.391  12.719  11.405
75474W        W34570  15.156  39.903   2.895
75475W        W34571  18.107  27.520   4.228
75476W        W34572  13.637  34.932   0.940
75477W        W34573  29.163  20.670   0.788
75478W        W34574  34.398  24.001   0.873
75479W        W34575  20.684  37.831  14.465
75480W        W34576  11.135  25.509   1.798
75481W        W34577  14.647  28.647  10.577
75482W        W34578  34.533   1.860   0.885
75483W        W34579  22.233  23.686   4.729
75484W        W34580  27.523  28.018   4.684
75485W        W34581  36.517  32.624  11.875
75486W        W34582  30.126  13.342  12.458
75487W        W34583   9.296   3.281   3.759
75488W        W34584  21.620   0.787  10.517
75489W        W34585   1.875  14.767   1.823
75490W        W34586  28.603  39.006   1.259
75491W        W34587  37.929  13.759   4.804
75492W        W34588   6.307  34.928  13.008
75493W        W34589  38.482  19.104   3.797
75494W        W34590   3.859  17.293  11.426
75495W        W34591  17.260  34.402   0.738
75496W        W34592  30.119   2.428  11.050
75497W        W34593  42.827  15.806  11.899
75498W        W34594  35.432  14.697   0.477
75499W        W34595  40.999  31.568   0.401
75500W        W34596  38.069  20.554   1.885
75501W        W34597  22.234  17.260  10.972
75502W        W34598  24.148  36.402  14.865
75503W        W34599  16.590  41.802  11.017
75504W        W34600  31.528  32.985  14.807
75505W        W34601  30.530   4.877   1.385
75506W        W34602   9.350  23.634  14.029
75507W        W34603   4.739  39.519   4.722
75508W        W34604   8.226  16.192   3.789
75509W        W34605  28.100  24.180   1.887
75510W        W34606  28.046  42.291  14.478
75511W        W34607   0.298   8.845   1.779
75512W        W34608  11.748  22.611  14.925
75513W        W34609   7.728   4.726  13.903
75514W        W34610   1.457  14.622  10.444
75515W        W34611  37.413   7.788   4.821
75516W        W34612  28.455  19.599   1.312
75517W        W34613  34.459  12.265   5.309
75518W        W34614  24.083  20.699   9.955
75519W        W34615  20.114  23.575  13.500
75520W        W34616  15.174   8.856  11.567
75521W        W34617  14.185  19.760  14.439
75522W        W34618  18.757   4.833  13.935
75523W        W34619  36.364  35.574  10.521
75524W        W34620  20.052   4.391   0.861
75525W        W34621  40.906  37.573   3.244
75526W        W34622  28.945  24.579   0.318
75527W        W34623  14.146  26.687   4.348
75528W        W34624  42.936  15.114   0.850
75529W        W34625  26.637  13.159  11.489
75530W        W34626   0.961  10.777   4.189
75531W        W34627  41.381   0.400   4.632
75532W        W34628  31.551  41.507  14.436
75533W        W34629  26.536  21.625   0.387
75534W        W34630  12.122  30.117  12.837
75535W        W34631   9.183   7.172  12.973
75536W        W34632  27.144  44.859   4.750
75537W        W34633   7.762  41.035  10.516
75538W        W34634  40.014   7.691  14.830
75539W        W34635   0.917  25.972   1.232
75540W        W34636  19.132   1.820   3.689
75541W        W34637   3.354  18.669   4.318
75542W        W34638   4.395   3.843   1.709
75543W        W34639  36.525  30.929   3.382
75544W        W34640  14.339  22.063  10.537
75545W        W34641  44.766  27.019  13.965
75546W        W34642  23.030  18.550  11.593
75547W        W34643   7.387  30.439   2.813
75548W        W34644  27.135   4.396   2.354
75549W        W34645   6.396  25.156   0.245
75550W        W34646  39.003  35.058  13.401
75551W        W34647   9.776  29.464   3.683
75552W        W34648  14.654  39.445  12.409
75553W        W34649  29.936  26.623   4.188
75554W        W34650  25.468   8.207   4.148
75555W        W34651  40.337   9.729  11.022
75556W        W34652   8.388   8.315  13.328
75557W        W34653  18.772  41.386   0.286
75558W        W34654  12.115  25.180  11.117
75559W        W34655  25.119   6.724   0.469
75560W        W34656  20.158  15.624   4.813
75561W        W34657  25.534  12.345  10.500
75562W        W34658   4.371   7.402   0.917
75563W        W34659   4.834  16.721  10.997
75564W        W34660   9.368  36.426   4.261
75565W        W34661  17.714  44.822   3.798
75566W        W34662   4.852   8.360  14.395
75567W        W34663  37.526   1.348   4.337
75568W        W34664  19.605   1.762  12.385
75569W        W34665  22.025  19.748   0.907
75570W        W34666   1.414  25.512  10.566
75571W        W34667  38.827  24.698  11.477
75572W        W34668  41.374  42.459   1.917
75573W        W34669  18.112  33.575  10.598
75574W        W34670  20.644  37.512   1.919
75575W        W34671  23.087  29.651   3.341
75576W        W34672  11.730  33.626  13.515
75577W        W34673  20.138  37.470  13.900
75578W        W34674  29.037   3.341   4.657
75579W        W34675   6.837  31.897   4.688
75580W        W34676   8.258  34.585  11.601
75581W        W34677  44.782  10.647   3.719
75582W        W34678  25.149   0.285  11.991
75583W        W34679  41.440  36.505   2.788
75584W        W34680  34.957  37.936  14.776
75585W        W34681  30.420  11.768  13.825
75586W        W34682   9.274  20.699  12.009
75587W        W34683  14.812   8.677  12.856
75588W        W34684   2.881  38.856   1.245
75589W        W34685  10.832   0.302   4.148
75590W        W34686  10.658  19.285   2.329
75591W        W34687  33.605  34.954  12.014
75592W        W34688  27.526   7.717  13.438
75593W        W34689  14.203  36.894  12.405
75594W        W34690  10.756  22.245  11.992
75595W        W34691  23.684  25.533   1.898
75596W        W34692  41.504   2.348   0.311
75597W        W34693  22.169  12.847   0.937
75598W        W34694  24.058  24.482   0.357
75599W        W34695  37.342  22.541  14.024
75600W        W34696  36.530  10.736   0.792
75601W        W34697  44.955   8.671   1.836
75602W        W34698  24.040   0.772   3.147
75603W        W34699  12.662   5.265   3.328
75604W        W34700   7.786  31.431  12.339
75605W        W34701  28.938   8.277   1.898
75606W        W34702   4.821  18.153  10.934
75607W        W34703  16.772  44.286   1.701
75608W        W34704  16.586  38.966  11.403
75609W        W34705  20.221   7.789  11.912
75610W        W34706  35.505  10.845   9.642
75611W        W34707  34.579  21.209   2.867
75612W        W34708  26.023  11.803   2.799
75613W        W34709   2.772  37.078  12.943
75614W        W34710   5.827   1.812   4.266
75615W        W34711  16.675  30.632  14.432
75616W        W34712  29.533  32.455   4.809
75617W        W34713  32.078   5.376  14.513
75618W        W34714  31.474   1.882   4.185
75619W        W34715  26.994   8.856  12.005
75620W        W34716  15.662  39.385  11.876
75621W        W34717  37.022  36.939  11.064
75622W        W34718  33.041  40.345  10.428
75623W        W34719  37.423  23.236   4.312
75624W        W34720  14.223  26.571   3.642
75625W        W34721  10.685  31.533   1.907
75626W        W34722  42.434  36.989  10.925
75627W        W34723   6.696  11.342  12.964
75628W        W34724  43.812  21.604  12.846
75629W        W34725  34.007  37.553   5.145
75630W        W34726  14.773  40.942  11.904
75631W        W34727  10.224   4.255  13.481
75632W        W34728  28.119  20.136   5.090
75633W        W34729  42.017  40.335  10.966
75634W        W34730  28.952  17.577   0.960
75635W        W34731  27.004  21.139  11.454
75636W        W34732   8.657   4.754   0.411
75637W        W34733  39.352  16.185  10.949
75638W        W34734  11.658  32.521   3.813
75639W        W34735  14.809  33.478   0.773
75640W        W34736  25.552  41.379  11.587
75641W        W34737  16.570  18.754  11.056
75642W        W34738   7.276  39.816  14.298
75643W        W34739  35.896   3.728   5.262
75644W        W34740  29.636  16.151  12.902
75645W        W34741  10.724   5.249   3.302
75646W        W34742  40.973   9.767   1.747
75647W        W34743  28.631  35.938   5.671
75648W        W34744   4.445   2.767   4.191
75649W        W34745  44.856   8.201  12.563
75650W        W34746  36.411  17.190  12.074
75651W        W34747   4.709   5.914   0.739
75652W        W34748   1.475  33.408  13.376
75653W        W34749  17.296  22.033  10.487
75654W        W34750  38.387   7.769   0.446
75655W        W34751  41.855  41.014   4.620
75656W        W34752  20.155  15.613  12.484
75657W        W34753  24.088  16.313  12.467
75658W        W34754  30.619  21.203   3.757
75659W        W34755  31.463  23.128   5.191
75660W        W34756  37.342   2.360   2.185
75661W        W34757   0.457  43.999  12.404
75662W        W34758  27.000   4.833  12.066
75663W        W34759  18.145  31.522  11.039
75664W        W34760  36.360  33.424  10.460
75665W        W34761  29.159  20.077  13.873
75666W        W34762  17.578  10.322  13.324
75667W        W34763  31.460  14.190   4.689
75668W        W34764   4.888  31.553  13.433
75669W        W34765  41.341  11.148   1.902
75670W        W34766   3.265   0.437   0.941
75671W        W34767  23.090  28.520  12.381
75672W        W34768  41.988  31.111  13.018
75673W        W34769  27.032   4.708  13.050
75674W        W34770   8.301  33.412  13.544
75675W        W34771   9.718  25.147   2.671
75676W        W34772   7.209  23.707   1.843
75677W        W34773  25.122  29.118   2.878
75678W        W34774   9.245  24.562  14.390
75679W        W34775  31.408  35.014   3.380
75680W        W34776  17.106  44.839  13.497
75681W        W34777   8.294  26.956  10.912
75682W        W34778   7.302  13.170  11.601
75683W        W34779  40.335   2.458  10.565
75684W        W34780  27.691  30.482  13.482
75685W        W34781   5.795  31.627  11.523
75686W        W34782   4.938  11.704  11.395
75687W        W34783  15.714   4.409  12.033
75688W        W34784  20.556  10.788   3.375
75689W        W34785   0.280   2.243   3.167
75690W        W34786   0.742  43.874   4.751
75691W        W34787  29.063  13.342   3.182
75692W        W34788  24.986  18.198  12.981
75693W        W34789  28.109  20.134   1.697
75694W        W34790   9.663  34.026   2.809
75695W        W34791   9.378  27.125  12.393
75696W        W34792  42.462  31.147   1.853
75697W        W34793  31.484  12.342  11.544
75698W        W34794  10.663  12.687   5.313
75699W        W34795  30.444  44.383  14.307
75700W        W34796  24.096  39.323  12.931
75701W        W34797  43.290  30.070   2.307
75702W        W34798  29.058  17.222  13.840
75703W        W34799  11.225  11.147   0.409
75704W        W34800  22.234  39.459   3.632
75705W        W34801  35.084   7.873   2.381
75706W        W34802  28.071   6.871   1.403
75707W        W34803  28.590  30.584  13.877
75708W        W34804  43.465  31.994  11.961
75709W        W34805  23.998  35.475  14.900
75710W        W34806  22.641   0.843   1.248
75711W        W34807   6.333   3.297  11.480
75712W        W34808  26.185   6.923   3.279
75713W        W34809  14.750  35.985   9.464
75714W        W34810  35.002  41.905  11.940
75715W        W34811  22.242  24.159   3.735
75716W        W34812   9.744   8.900   0.361
75717W        W34813   6.314  36.984   1.772
75718W        W34814  40.826  38.500  13.317
75719W        W34815  24.177  40.047  14.442
75720W        W34816  19.665  21.537  12.373
75721W        W34817   9.678  37.000  13.462
75722W        W34818  38.040  39.372  11.421
75723W        W34819  27.563  26.508  10.565
75724W        W34820  35.908  34.581  12.953
75725W        W34821  35.493  24.975   4.786
75726W        W34822  15.716  32.472   3.787
75727W        W34823   6.335   0.905  10.905
75728W        W34824  42.808   0.281  10.624
75729W        W34825  12.216  36.082  14.514
75730W        W34826  24.619  42.811   1.897
75731W        W34827  11.337   8.214  11.996
75732W        W34828  12.180  21.111  13.884
75733W        W34829  11.133  29.113   2.887
75734W        W34830  34.876  10.345   3.196
75735W        W34831  38.855  36.471  11.552
75736W        W34832  22.021  14.302  14.917
75737W        W34833  28.026   2.258   2.900
75738W        W34834  42.314  31.107   2.885
75739W        W34835   2.469  22.039  13.876
75740W        W34836  11.210  33.464  10.620
75741W        W34837  40.477  40.832  13.883
75742W        W34838  21.635   7.344   4.642
75743W        W34839   0.880  23.604  13.052
75744W        W34840  34.879   7.313   1.392
75745W        W34841  44.414  38.531  12.859
75746W        W34842  33.503  34.486   2.295
75747W        W34843  33.025  31.106  13.413
75748W        W34844   4.873  38.972  14.797
75749W        W34845   2.239  32.947   0.338
75750W        W34846  12.620  25.588   1.725
75751W        W34847   4.357  27.487   1.242
75752W        W34848  41.364  15.776   1.739
75753W        W34849  31.453  28.554   1.383
75754W        W34850  25.548  40.886  11.397
75755W        W34851  41.508  43.373   3.229
75756W        W34852  20.033   2.435   1.712
75757W        W34853   5.326   5.827   4.791
75758W        W34854  29.151  12.811  13.443
75759W        W34855  32.575  28.516   4.279
75760W        W34856  18.712  28.672   4.742
75761W        W34857  24.097   1.399   2.831
75762W        W34858   6.375  39.047  12.071
75763W        W34859  22.162   2.397   3.298
75764W        W34860  18.751  32.049   1.920
75765W        W34861  37.047  24.153   1.247
75766W        W34862   1.921  13.760  13.511
75767W        W34863  35.543  17.597   0.888
75768W        W34864  38.850  40.545   3.651
75769W        W34865  20.681   6.215   4.692
75770W        W34866  16.639   4.328   3.313
75771W        W34867  21.556  27.492  13.314
75772W        W34868  20.197   9.246  12.825
75773W        W34869   3.879  37.441   2.371
75774W        W34870  41.436  19.282  10.489
75775W        W34871  38.898  30.594   1.444
75776W        W34872  20.144  28.572  12.567
75777W        W34873   2.940   3.806  11.945
75778W        W34874  20.126  15.092   3.333
75779W        W34875  22.109  44.975  11.999
75780W        W34876  28.008  44.788   1.385
75781W        W34877  25.667  10.651  13.808
75782W        W34878   4.807  25.122   3.344
75783W        W34879  29.474   5.353   3.843
75784W        W34880  42.372  17.111  12.925
75785W        W34881  24.639  33.465  12.537
75786W        W34882  34.952  29.042   1.817
75787W        W34883   3.859  15.701  10.059
75788W        W34884  26.630   2.459   1.861
75789W        W34885   6.192   1.885   2.296
75790W        W34886  20.209   0.385  14.919
75791W        W34887  30.092  10.348   3.368
75792W        W34888  42.929  28.156   3.288
75793W        W34889  19.697  14.712   4.696
75794W        W34890   2.230  19.670  14.997
75795W        W34891   3.903  32.591   1.829
75796W        W34892  26.102   9.374   3.667
75797W        W34893  43.457  12.641  10.983
75798W        W34894  30.545   7.310  13.509
75799W        W34895  32.114   5.326   4.770
75800W        W34896  42.282  25.967  13.988
75801W        W34897  15.278  18.744  11.926
75802W        W34898  20.564  10.647  11.611
75803W        W34899  15.595  15.797  13.924
75804W        W34900   7.814  18.209   0.293
75805W        W34901  43.499  30.163  13.013
75806W        W34902  33.976  35.870   3.244
75807W        W34903  32.433  15.813  13.415
75808W        W34904  41.883  30.064  10.552
75809W        W34905   6.344   0.877  14.024
75810W        W34906   7.211  28.561   1.417
75811W        W34907  21.157  13.208   4.354
75812W        W34908  21.094  26.679   1.294
75813W        W34909  24.200  10.340   1.306
75814W        W34910  11.266  10.821   0.860
75815W        W34911  31.646  18.584   9.507
75816W        W34912  14.745  37.084   0.353
75817W        W34913  35.028  39.362   2.678
75818W        W34914  35.482  32.442  11.065
75819W        W34915   9.756  28.041   2.740
75820W        W34916  32.931  34.875  14.786
75821W        W34917  15.591   1.337  12.863
75822W        W34918  13.719  14.660   4.258
75823W        W34919  34.075   3.832  12.539
75824W        W34920  31.419  24.497  12.445
75825W        W34921  27.469   5.891  11.584
75826W        W34922  35.084  20.748  10.913
75827W        W34923  27.573  38.869  11.560
75828W        W34924   9.726  30.470   1.699
75829W        W34925  29.962  20.697   3.718
75830W        W34926   0.906  42.412   4.316
75831W        W34927  30.082   6.366   3.667
75832W        W34928  21.547  36.942  12.382
75833W        W34929  19.620  17.285  12.903
75834W        W34930  26.169  42.780  13.952
75835W        W34931  41.948  31.018  14.888
75836W        W34932  43.295  32.596  13.408
75837W        W34933  41.515  40.980   4.245
75838W        W34934  29.105  41.376   3.686
75839W        W34935  24.104   4.337  10.956
75840W        W34936  17.062  10.158  14.333
75841W        W34937   3.231  22.142   2.832
75842W        W34938  25.038   6.392   0.789
75843W        W34939  27.173  28.493   3.653
75844W        W34940  33.578  22.081   3.293
75845W        W34941   1.341  38.911   1.326
75846W        W34942  20.691  35.466   3.203
75847W        W34943  28.475   3.352  10.405
75848W        W34944  32.987  20.031   2.417
75849W        W34945   3.251  22.669   3.827
75850W        W34946   2.276  25.554   3.861
75851W        W34947  19.044  42.789   3.689
75852W        W34948  22.560  34.955   0.772
75853W        W34949  37.558  15.254   5.237
75854W        W34950  42.347  19.738   0.402
75855W        W34951   4.814   4.928  10.603
75856W        W34952   5.411  23.578  11.929
75857W        W34953  33.465  16.093   0.358
75858W        W34954   2.721   3.387   4.284
75859W        W34955   9.876   8.350   4.761
75860W        W34956  10.298  44.896  14.851
75861W        W34957  11.803   7.825   3.696
75862W        W34958  12.739  22.123  14.400
75863W        W34959  20.159   8.288  12.908
75864W        W34960  13.695  21.658  14.378
75865W        W34961   1.262  12.798  13.847
75866W        W34962  41.953   5.316  12.058
75867W        W34963   2.753   6.361   3.729
75868W        W34964  38.365  36.408  12.942
75869W        W34965  43.301  20.110  10.478
75870W        W34966   2.277   8.190   4.625
75871W        W34967  44.316  11.320  11.582
75872W        W34968  15.306  42.831   2.903
75873W        W34969  31.064  29.144   0.254
75874W        W34970  26.123   9.330  13.018
75875W        W34971  31.080  38.987  12.502
75876W        W34972   0.983  19.732  11.580
75877W        W34973   3.730  19.671  10.003
75878W        W34974  28.561  27.173  11.998
75879W        W34975   6.382  33.510   2.734
75880W        W34976  28.978  17.073   1.424
75881W        W34977   2.844  32.594  10.586
75882W        W34978  17.589  42.400  14.818
75883W        W34979  13.733  15.284   4.236
75884W        W34980   8.739  13.773  11.469
75885W        W34981  14.225  11.653  14.299
75886W        W34982  33.543  34.959  11.485
75887W        W34983  29.945  39.335   0.935
75888W        W34984   8.279  15.103   1.421
75889W        W34985  16.307  43.805  10.972
75890W        W34986  17.763  16.715  10.988
75891W        W34987  16.610  44.916  13.378
75892W        W34988  16.180  18.174  14.286
75893W        W34989  38.026  39.828   0.812
75894W        W34990  21.118   9.684   1.845
75895W        W34991  27.602  44.267  11.916
75896W        W34992  20.574  29.429   2.789
75897W        W34993  16.716  12.328  10.643
75898W        W34994  19.773  42.314   3.296
75899W        W34995  42.892  17.695   4.162
75900W        W34996  24.076  18.590  11.537
75901W        W34997  17.294   5.907  13.368
75902W        W34998  37.007  11.817  12.489
75903W        W34999  32.624  18.079  13.368
75904W        W35000  20.127  30.570  14.283
75905W        W35001  18.612  24.133   1.857
75906W        W35002   0.805  19.092  12.475
75907W        W35003  12.669  21.693  11.076
75908W        W35004  16.781  29.592   3.700
75909W        W35005  18.706  44.885   4.191
75910W        W35006  28.654   0.833   4.253
75911W        W35007  13.772  20.638   4.829
75912W        W35008  18.743   6.898   1.239
75913W        W35009  19.119  12.362  13.547
75914W        W35010  38.931  27.655  13.994
75915W        W35011  11.852  25.612  12.449
75916W        W35012   4.891  33.603  11.426
75917W        W35013  41.300  37.426  10.995
75918W        W35014   9.395  35.013   4.181
75919W        W35015   7.804  38.351   1.871
75920W        W35016  41.931  44.285   2.247
75921W        W35017  24.140  11.737  11.070
75922W        W35018   0.951  27.977  14.850
75923W        W35019  13.769  44.288  12.423
75924W        W35020  13.288   0.467  10.959
75925W        W35021  32.406  24.665   3.359
75926W        W35022  32.085  32.619   3.276
75927W        W35023  24.565  35.989   2.335
75928W        W35024  13.287  27.169  13.429
75929W        W35025   7.344  21.593  14.440
75930W        W35026  19.593  13.241  11.470
75931W        W35027  30.047  20.682  12.069
75932W        W35028  37.975  37.431  12.930
75933W        W35029  10.854  30.520  12.006
75934W        W35030  14.228   6.313  11.493
75935W        W35031  10.240  33.874  13.941
75936W        W35032   5.233  18.601   0.424
75937W        W35033  20.248   6.249  12.439
75938W        W35034   9.309  11.171  11.591
75939W        W35035  10.233  28.029   1.382
75940W        W35036  15.313  36.059   4.764
75941W        W35037   1.944  23.503  11.468
75942W        W35038  24.645  38.848   3.765
75943W        W35039  37.911  15.704   2.848
75944W        W35040  41.020  28.476   2.308
75945W        W35041  14.099  11.163  10.889
75946W        W35042  40.910  18.639  12.000
75947W        W35043  15.289  35.954   2.814
75948W        W35044   6.324  27.692  14.031
75949W        W35045  22.199   3.457  13.835
75950W        W35046  42.417  24.210   4.342
75951W        W35047  17.575  20.036   0.384
75952W        W35048  34.949   8.200   0.796
75953W        W35049  24.483  28.083   0.320
75954W        W35050  20.269  38.871   2.875
75955W        W35051  44.789   5.385  12.059
75956W        W35052   5.412  44.769  14.391
75957W        W35053   9.376  22.638  10.424
75958W        W35054  34.572  15.785   2.266
75959W        W35055  36.862  16.207   0.278
75960W        W35056  10.876  26.612   4.683
75961W        W35057  14.266   8.654  12.533
75962W        W35058   2.837  11.319  13.921
75963W        W35059  15.329  29.056  10.073
75964W        W35060  32.038  13.155   5.320
75965W        W35061  42.831  27.051   1.876
75966W        W35062  42.473   1.329  13.794
75967W        W35063  39.479   8.707   1.317
75968W        W35064  10.183  19.138   2.398
75969W        W35065  42.382  16.717  13.899
75970W        W35066  39.065  40.515   0.348
75971W        W35067  17.726   1.431  14.920
75972W        W35068  31.096  17.128   0.749
75973W        W35069  12.250  21.579  13.921
75974W        W35070  16.608  13.824  12.879
75975W        W35071  26.641  17.576  14.496
75976W        W35072  26.597  29.099   4.784
75977W        W35073  13.229  16.805   2.798
75978W        W35074  42.020  18.093  14.942
75979W        W35075  31.974  34.483   2.697
75980W        W35076  12.222  38.503   2.870
75981W        W35077  27.987  13.348   2.778
75982W        W35078  37.983  24.129  11.955
75983W        W35079  11.236   8.171   1.752
75984W        W35080   5.316   5.860   2.289
75985W        W35081  38.047  29.991  11.992
75986W        W35082  14.336   0.455   4.224
75987W        W35083  18.261  21.659   4.265
75988W        W35084  39.874   0.423   2.253
75989W        W35085  35.010  20.100   1.357
75990W        W35086   4.892  11.767  13.413
75991W        W35087  41.006  10.734   3.656
75992W        W35088  21.635  38.555  12.999
75993W        W35089  10.701  21.532  11.001
75994W        W35090  32.539  35.971  13.509
75995W        W35091  39.855   6.852   1.302
75996W        W35092  41.518  35.108  14.989
75997W        W35093  43.471  36.379  12.494
75998W        W35094  18.575  30.073  11.061
75999W        W35095  40.424  37.392   4.315
76000W        W35096   1.860  19.191   3.857
76001W        W35097   4.930  36.991  13.010
76002W        W35098  24.672  16.785  12.437
76003W        W35099  11.804  37.550   0.836
76004W        W35100   8.696  25.615   3.809
76005W        W35101  36.019   8.210  12.483
76006W        W35102   1.476  36.458  14.457
76007W        W35103   0.921  26.579   3.316
76008W        W35104  17.682   6.260   2.370
76009W        W35105  42.870  30.586  11.486
76010W        W35106  31.543   3.893  12.840
76011W        W35107  17.071  24.065   0.922
76012W        W35108  43.825  14.756   3.283
76013W        W35109  11.793  12.674   2.266
76014W        W35110  39.816   1.896  12.389
76015W        W35111  42.803  20.208   4.816
76016W        W35112   8.258  37.019   3.648
76017W        W35113  36.452  30.527  13.910
76018W        W35114  15.215  40.968  13.522
76019W        W35115   6.729   3.311   0.755
76020W        W35116   4.833   0.319  12.068
76021W        W35117  29.661  29.482  10.158
76022W        W35118  24.677  33.498   3.364
76023W        W35119   4.731  38.995   1.410
76024W        W35120  15.170  20.645   3.249
76025W        W35121  11.868  37.576  14.808
76026W        W35122  37.920   7.210   4.676
76027W        W35123   5.915   6.861  11.100
76028W        W35124  37.848  10.761  12.838
76029W        W35125  16.644  24.126  11.914
76030W        W35126   2.913   6.785   0.957
76031W        W35127   4.323  20.053  10.477
76032W        W35128  18.197  34.987   9.486
76033W        W35129   0.485  16.135   4.262
76034W        W35130  17.168  35.098   1.841
76035W        W35131  44.295  27.638   3.835
76036W        W35132  30.626  14.301  12.041
76037W        W35133  42.902  13.322  12.415
76038W        W35134  40.514  23.116   2.773
76039W        W35135  16.567  12.770   1.694
76040W        W35136  30.419   2.433   4.349
76041W        W35137  31.960  21.753   4.143
76042W        W35138   1.328  18.200   3.211
76043W        W35139  12.758   9.301   3.384
76044W        W35140  30.485  28.943   0.939
76045W        W35141  28.104   1.739  13.352
76046W        W35142   1.334  33.954   0.792
76047W        W35143  31.557  19.151  13.806
76048W        W35144   3.731  39.919  13.870
76049W        W35145   0.920  38.348   4.671
76050W        W35146  26.145  21.102   5.191
76051W        W35147  15.688  13.642  12.068
76052W        W35148  39.955  32.478   1.879
76053W        W35149  39.558  12.154  14.823
76054W        W35150  15.599  25.697  11.585
76055W        W35151  15.707  16.259  10.424
76056W        W35152  39.995   2.416   1.802
76057W        W35153  13.759  14.262   4.281
76058W        W35154  14.800  35.479   1.436
76059W        W35155  16.568  16.726  12.448
76060W        W35156  31.103   4.855  13.543
76061W        W35157  28.620  13.600   2.763
76062W        W35158  31.424  32.457   3.254
76063W        W35159  32.436  44.260   1.389
76064W        W35160  28.022  16.693  11.607
76065W        W35161  26.004   6.189  14.286
76066W        W35162  11.832  16.784   0.899
76067W        W35163  16.612  38.415   0.827
76068W        W35164  11.165  10.689   2.834
76069W        W35165  30.479  36.562   0.274
76070W        W35166  29.643   7.251  10.928
76071W        W35167   6.804  20.183   4.788
76072W        W35168  22.666  33.511   2.326
76073W        W35169  34.980   4.426  13.941
76074W        W35170  10.654   8.180  11.899
76075W        W35171  44.755  19.262   4.238
76076W        W35172  19.132  16.236   0.754
76077W        W35173  24.700  35.075  14.344
76078W        W35174  11.654  14.668   0.875
76079W        W35175  20.269  20.683   4.674
76080W        W35176  17.094  18.223   4.689
76081W        W35177   0.905  37.938  11.889
76082W        W35178   9.740  15.731   3.291
76083W        W35179   9.759   0.823  11.522
76084W        W35180   1.445   8.832  11.432
76085W        W35181  40.955  41.977   1.716
76086W        W35182  29.028  34.614   0.960
76087W        W35183  26.040   3.244   1.358
76088W        W35184   3.231  14.253   4.695
76089W        W35185   8.687   3.867  11.961
76090W        W35186   7.334  10.141  11.960
76091W        W35187   8.709  16.129  12.071
76092W        W35188   1.382  43.270  13.449
76093W        W35189  38.040  11.349  10.462
76094W        W35190  20.536  31.575  11.933
76095W        W35191  40.012  15.582   1.387
76096W        W35192  25.027  34.115   2.681
76097W        W35193  41.001   4.264   2.709
76098W        W35194  34.012  21.132   4.677
76099W        W35195   1.271   4.284   0.251
76100W        W35196  14.320  14.632  14.501
76101W        W35197  11.798  41.951   0.892
76102W        W35198  25.525  29.928   1.375
76103W        W35199  34.575  26.639  11.506
76104W        W35200   3.773  24.595   0.880
76105W        W35201  41.466   5.915   0.798
76106W        W35202  25.159   7.882   0.270
76107W        W35203  23.543  32.603   3.335
76108W        W35204  30.029  25.105   4.745
76109W        W35205   8.181  34.890   3.699
76110W        W35206   7.856   3.330  14.928
76111W        W35207  37.964   7.825   9.605
76112W        W35208  23.572  25.479   4.328
76113W        W35209   2.774  36.414  14.857
76114W        W35210  29.942  16.277   3.153
76115W        W35211   4.278  40.367   1.894
76116W        W35212  27.993  13.686   1.769
76117W        W35213  29.439  24.976   2.843
76118W        W35214   5.297  19.577  10.600
76119W        W35215  14.696  26.593   0.451
76120W        W35216  40.372  16.715  12.838
76121W        W35217  15.213  39.997  13.810
76122W        W35218  39.833  29.454  11.029
76123W        W35219  19.053  30.581   3.701
76124W        W35220   7.368   0.945  14.993
76125W        W35221  40.425  23.675   1.787
76126W        W35222  23.002  38.387   3.735
76127W        W35223  36.864  28.553   0.378
76128W        W35224  34.023  41.364  12.391
76129W        W35225  30.483  36.040  11.468
76130W        W35226  20.751   0.833   3.268
76131W        W35227  13.160  10.840   2.717
76132W        W35228  23.641  18.166   2.393
76133W        W35229   3.285   2.747   3.733
76134W        W35230  43.865   9.326   2.242
76135W        W35231  42.859  24.974   9.920
76136W        W35232  17.577  41.016   4.621
76137W        W35233  18.112  26.131   3.223
76138W        W35234   5.761  37.573   0.424
76139W        W35235  26.592  32.095   0.804
76140W        W35236  37.832  23.649  12.416
76141W        W35237  44.441  39.840   1.234
76142W        W35238   2.350  43.465   4.686
76143W        W35239  32.488  37.543   2.827
76144W        W35240  28.048  40.871   0.325
76145W        W35241  25.219   4.431  10.508
76146W        W35242  38.886   0.762   3.681
76147W        W35243  28.584   8.358   1.301
76148W        W35244  38.039  12.845   0.849
76149W        W35245  27.606  27.064   4.675
76150W        W35246  10.247  31.927  13.529
76151W        W35247  18.112  42.006  11.432
76152W        W35248  14.206   2.425   0.934
76153W        W35249  13.797   7.310  11.422
76154W        W35250  29.127   2.842  14.456
76155W        W35251   5.437   8.234   2.708
76156W        W35252  19.089   5.310   4.809
76157W        W35253  38.830  13.680   4.185
76158W        W35254  42.784  25.195  13.541
76159W        W35255  12.204  44.346  14.972
76160W        W35256  44.777  44.954  14.292
76161W        W35257   6.760  21.231   1.314
76162W        W35258  29.659  10.144   4.328
76163W        W35259   8.162  21.525  10.893
76164W        W35260  37.976  18.209   1.428
76165W        W35261  40.497  39.970  11.548
76166W        W35262  30.495  20.768   4.125
76167W        W35263   1.738   3.913   3.170
76168W        W35264  11.341  20.085  11.980
76169W        W35265  16.605  22.504   2.716
76170W        W35266  10.751   3.796   3.683
76171W        W35267  12.816  20.580   2.281
76172W        W35268  27.114  39.004   4.752
76173W        W35269  34.000   7.847   4.154
76174W        W35270  20.065   5.341  14.441
76175W        W35271   1.814  44.391   0.804
76176NA+    NA+35272  38.356   2.284  10.603
76177NA+    NA+35273  28.638  30.529   0.887
76178NA+    NA+35274  36.360  35.959  14.846
76179NA+    NA+35275  12.662  24.551   4.825
76180NA+    NA+35276   7.181  18.256  14.845
76181NA+    NA+35277   6.705   9.855  12.983
76182NA+    NA+35278   8.308  38.859  12.366
76183NA+    NA+35279  43.964  32.530   3.328
76184NA+    NA+35280  19.697  35.435   0.271
76185NA+    NA+35281  23.218  43.788   4.188
76186NA+    NA+35282  35.570  20.233  14.763
76187NA+    NA+35283  14.157  38.001   1.933
76188NA+    NA+35284  18.743  16.077  12.560
76189NA+    NA+35285  23.226  21.244   4.776
76190NA+    NA+35286  18.767   7.718  13.525
76191NA+    NA+35287  18.227  14.633   4.830
76192NA+    NA+35288  33.473   4.264   4.650
76193NA+    NA+35289  38.955  31.455   4.286
76194NA+    NA+35290   1.443  43.498   0.318
76195NA+    NA+35291  18.592  33.075   3.862
76196NA+    NA+35292  38.883  44.455  11.382
76197NA+    NA+35293  10.643  42.447  14.373
76198NA+    NA+35294  22.538   7.307  11.067
76199NA+    NA+35295  24.977  14.130   4.243
76200NA+    NA+35296  25.705   0.364  14.390
76201NA+    NA+35297  31.561   2.278  11.580
76202NA+    NA+35298  16.741   5.700  12.951
76203NA+    NA+35299  24.999   4.938   0.295
76204NA+    NA+35300  31.500  17.589   3.773
76205NA+    NA+35301  12.805  16.755   0.295
76206NA+    NA+35302  28.512  34.596   2.283
76207NA+    NA+35303  37.545  11.261   4.614
76208NA+    NA+35304  21.167  22.200  10.410
76209NA+    NA+35305  10.839  28.041   0.767
76210NA+    NA+35306  25.528  37.412   3.659
76211NA+    NA+35307  44.884   6.320  13.546
76212NA+    NA+35308   6.810   7.787  12.524
76213NA+    NA+35309  33.998  43.000  14.398
76214NA+    NA+35310  36.026  38.956  12.948
76215NA+    NA+35311   1.840   2.835  13.920
76216NA+    NA+35312  36.425  19.181  13.843
76217NA+    NA+35313  22.177  40.397  10.576
76218NA+    NA+35314  31.098  27.957  10.055
76219NA+    NA+35315  13.743   1.240   3.273
76220NA+    NA+35316  12.822  42.296  14.788
76221NA+    NA+35317  16.123  29.643  12.940
76222NA+    NA+35318  39.492  38.033   2.818
76223NA+    NA+35319   7.777  15.244  13.881
76224NA+    NA+35320   5.761  21.721   2.740
76225NA+    NA+35321   5.304  10.639   2.815
76226NA+    NA+35322  40.505  24.226  14.510
76227NA+    NA+35323  43.292   5.726  11.055
76228NA+    NA+35324  34.898   6.229   5.179
76229NA+    NA+35325   9.671  29.144  10.582
76230NA+    NA+35326  44.491  25.139   4.236
76231NA+    NA+35327  40.868  13.644  14.023
76232NA+    NA+35328  35.986   5.415  14.777
76233NA+    NA+35329   3.853  17.072  12.427
76234NA+    NA+35330  38.409  40.429   2.406
76235NA+    NA+35331  17.570  25.107   4.678
76236NA+    NA+35332  26.070  37.378  11.553
76237NA+    NA+35333  21.606  31.562   1.840
76238NA+    NA+35334  39.954  11.203  13.025
76239NA+    NA+35335   2.740  22.013   3.796
76240NA+    NA+35336  44.961  28.014   3.749
76241NA+    NA+35337  33.953  30.074   4.225
76242NA+    NA+35338  22.024  32.615   3.781
76243NA+    NA+35339   0.460  15.685  11.919
76244NA+    NA+35340   6.708  43.321   0.288
76245NA+    NA+35341  17.113  31.091  11.420
76246NA+    NA+35342  39.554  42.283   2.390
76247NA+    NA+35343  10.681  43.836   2.364
76248NA+    NA+35344  38.927  38.876   3.348
76249NA+    NA+35345  16.152  37.387  14.927
76250NA+    NA+35346   3.899  29.452  13.804
76251NA+    NA+35347  25.099  42.967   3.669
76252NA+    NA+35348  20.638  15.807  12.487
76253NA+    NA+35349  16.650  36.468   0.851
76254NA+    NA+35350  29.663  21.191   1.337
76255NA+    NA+35351  39.336   3.316  12.926
76256NA+    NA+35352  16.647  41.514   1.836
76257NA+    NA+35353   7.417  40.801   1.309
76258NA+    NA+35354  37.863  39.925   0.422
76259NA+    NA+35355  42.475  40.034   3.716
76260NA+    NA+35356   0.351  42.397  12.037
76261NA+    NA+35357  38.534   1.822   1.894
76262NA+    NA+35358   5.378  41.295   4.647
76263NA+    NA+35359  39.891  33.385  11.041
76264NA+    NA+35360  36.471   2.253   1.254
76265NA+    NA+35361  24.012  34.101   1.422
76266NA+    NA+35362  10.352  24.513   3.175
76267NA+    NA+35363  32.135   8.748   2.709
76268NA+    NA+35364  32.439  20.601   3.859
76269NA+    NA+35365   9.188  17.093  14.829
76270NA+    NA+35366  20.695   3.459   4.787
76271NA+    NA+35367   1.316  26.207  11.422
76272NA+    NA+35368  43.270  17.604   3.362
76273NA+    NA+35369  36.572   2.308  13.501
76274NA+    NA+35370  38.460  34.944   1.704
76275NA+    NA+35371  36.849  11.303  12.380
76276NA+    NA+35372  37.053   6.826   5.577
76277NA+    NA+35373  27.188  11.235   0.942
76278NA+    NA+35374  42.830   9.339   3.740
76279NA+    NA+35375  10.860   1.441   1.242
76280NA+    NA+35376  12.830  19.101   4.694
76281NA+    NA+35377  15.757  18.279   1.376
76282NA+    NA+35378  14.274  18.546   2.260
76283NA+    NA+35379   1.405  16.252  12.444
76284NA+    NA+35380  34.863   2.945   3.225
76285NA+    NA+35381  35.555   4.434  12.389
76286NA+    NA+35382   9.730  24.088   2.824
76287NA+    NA+35383  41.881  20.106  11.911
76288NA+    NA+35384  17.569  18.739  11.954
76289NA+    NA+35385  13.161  32.425  12.384
76290NA+    NA+35386  24.161  17.701  13.463
76291NA+    NA+35387  21.041  20.693  10.565
76292NA+    NA+35388  15.660  43.498   2.319
76293NA+    NA+35389   6.840  32.049  11.453
76294NA+    NA+35390  38.050  35.078  11.072
76295NA+    NA+35391  19.161   5.412   0.873
76296NA+    NA+35392   0.936  42.837  11.890
76297NA+    NA+35393  30.955  30.923   2.230
76298NA+    NA+35394  43.340  28.056   1.325
76299NA+    NA+35395  19.216  12.809   1.331
76300NA+    NA+35396  12.231  38.558   1.821
76301NA+    NA+35397  35.555  29.032  13.863
76302NA+    NA+35398   5.732  13.826   4.131
76303NA+    NA+35399  11.174  25.581   4.155
76304NA+    NA+35400  44.859  37.907   4.646
76305NA+    NA+35401  44.944  11.224   0.959
76306NA+    NA+35402  28.061   3.271  10.015
76307NA+    NA+35403  37.989  44.815   0.421
76308NA+    NA+35404  32.113  10.285  13.826
76309NA+    NA+35405  13.729  19.610  12.429
76310NA+    NA+35406  34.913   0.468   3.851
76311NA+    NA+35407   4.799  33.011  10.512
76312NA+    NA+35408   0.277  20.761  12.030
76313NA+    NA+35409  33.948  32.400  13.486
76314NA+    NA+35410  37.972  12.661  10.641
76315NA+    NA+35411   3.783  16.211   0.348
76316NA+    NA+35412  27.179   3.219   2.279
76317NA+    NA+35413  32.599  37.384  11.607
76318NA+    NA+35414   1.279  35.049   3.370
76319NA+    NA+35415  29.975  20.738  14.838
76320NA+    NA+35416  19.629   2.931   1.868
76321NA+    NA+35417  28.939  35.858  12.564
76322NA+    NA+35418  23.045   4.928  11.927
76323NA+    NA+35419  13.648  31.483   1.724
76324NA+    NA+35420  41.451   9.762   5.164
76325NA+    NA+35421   4.382  25.038  14.324
76326NA+    NA+35422   3.391   3.735  12.064
76327NA+    NA+35423  15.178  10.371   3.701
76328NA+    NA+35424   5.851  23.049   2.789
76329NA+    NA+35425  33.413  44.905   3.722
76330NA+    NA+35426  40.484  23.062   1.379
76331NA+    NA+35427  14.135   0.832  12.937
76332NA+    NA+35428   5.869  17.561  12.015
76333NA+    NA+35429  33.384  37.542  12.085
76334NA+    NA+35430  30.593  30.640  11.576
76335NA+    NA+35431  22.191  28.522  11.480
76336NA+    NA+35432   3.324   6.293   5.240
76337NA+    NA+35433  13.169  28.632  11.464
76338NA+    NA+35434  30.952   4.909  13.848
76339NA+    NA+35435  12.656  38.019   0.756
76340NA+    NA+35436  41.880   9.690   5.704
76341NA+    NA+35437   1.932  32.507  13.881
76342NA+    NA+35438  41.485  31.581  13.926
76343NA+    NA+35439  43.927  10.380   0.412
76344NA+    NA+35440  34.503   2.371   2.327
76345NA+    NA+35441   1.815  16.269   2.885
76346NA+    NA+35442  31.950   5.202   1.808
76347NA+    NA+35443  34.088  36.351   3.870
76348NA+    NA+35444  22.506  22.200  10.959
76349NA+    NA+35445  44.793  43.272   2.770
76350NA+    NA+35446  44.887  37.033  12.439
76351NA+    NA+35447  29.620  15.095   2.867
76352NA+    NA+35448   7.720   5.889  13.329
76353NA+    NA+35449  33.010  23.577  12.847
76354NA+    NA+35450  10.375   7.791   0.456
76355NA+    NA+35451   4.419   5.775   0.254
76356NA+    NA+35452  32.924  44.320  12.551
76357NA+    NA+35453  26.174   3.945   4.283
76358NA+    NA+35454  14.711  14.235  11.968
76359NA+    NA+35455   8.217  14.189   1.819
76360NA+    NA+35456   5.259  38.476   1.248
76361NA+    NA+35457  17.266  14.294  14.407
76362NA+    NA+35458   0.271  26.138  11.967
76363NA+    NA+35459  27.575  21.205  12.542
76364NA+    NA+35460  21.757  21.161  13.053
76365NA+    NA+35461  44.987   0.348   2.347
76366NA+    NA+35462  28.562   7.890  13.966
76367NA+    NA+35463  38.061   0.413  11.389
76368NA+    NA+35464   8.355   3.807  13.987
76369NA+    NA+35465  21.078  36.021  11.415
76370NA+    NA+35466  37.530  12.701  13.322
76371NA+    NA+35467  40.807   6.681   0.953
76372NA+    NA+35468   8.236   7.758  10.626
76373NA+    NA+35469  38.988   8.779   4.311
76374NA+    NA+35470  13.674  28.496   5.250
76375NA+    NA+35471  19.063  35.050  11.379
76376NA+    NA+35472  34.449  36.531   1.767
76377NA+    NA+35473  44.772  25.144   0.818
76378NA+    NA+35474  24.545  24.072  11.068
76379NA+    NA+35475  33.067  19.675  11.906
76380NA+    NA+35476   2.284   1.241  13.536
76381NA+    NA+35477  17.789  25.044   1.744
76382NA+    NA+35478  43.301  29.158   0.782
76383NA+    NA+35479  24.665  43.999   1.747
76384NA+    NA+35480  34.547  38.413   2.229
76385NA+    NA+35481   8.196   2.449   3.757
76386NA+    NA+35482  11.847  43.324   1.792
76387NA+    NA+35483   5.794  42.370   2.193
76388NA+    NA+35484  37.840  13.287  10.435
76389NA+    NA+35485  15.227   1.755   4.748
76390NA+    NA+35486  14.655  17.203   9.608
76391NA+    NA+35487   6.677   9.359   2.756
76392NA+    NA+35488  17.171  22.205  11.889
76393NA+    NA+35489  42.383   0.961  14.998
76394NA+    NA+35490  32.630  40.804  11.026
76395NA+    NA+35491  38.550  41.301   1.236
76396NA+    NA+35492   7.893  44.268  11.511
76397NA+    NA+35493  35.414   0.269  11.951
76398NA+    NA+35494   0.285  12.158  11.122
76399NA+    NA+35495  32.942  23.608  12.418
76400NA+    NA+35496  20.710  31.093  14.391
76401NA+    NA+35497  29.130  16.599   0.860
76402NA+    NA+35498  44.778   6.893  14.768
76403NA+    NA+35499  23.663  12.641  10.565
76404NA+    NA+35500  36.910   0.814   3.212
76405NA+    NA+35501  30.632  44.810  11.125
76406NA+    NA+35502  39.338  43.846   2.205
76407NA+    NA+35503  35.422  21.139  11.972
76408NA+    NA+35504  34.913  12.118   3.232
76409NA+    NA+35505  18.647  35.501  10.956
76410NA+    NA+35506   8.874   9.232  11.032
76411NA+    NA+35507  23.612  23.009   4.182
76412NA+    NA+35508  29.434  28.567   1.427
76413NA+    NA+35509  21.113  37.020   0.360
76414NA+    NA+35510  35.016   6.717  10.453
76415NA+    NA+35511  22.539  42.920   2.200
76416NA+    NA+35512   3.343  24.191  14.434
76417NA+    NA+35513   7.409  24.575  12.048
76418NA+    NA+35514   3.232  32.993  13.999
76419NA+    NA+35515   5.288  32.139  14.480
76420NA+    NA+35516  12.335   3.902   0.421
76421NA+    NA+35517   2.332  24.547  11.584
76422NA+    NA+35518   8.868   1.752   3.649
76423NA+    NA+35519  33.042   7.407  10.510
76424NA+    NA+35520  29.010   9.760  13.364
76425NA+    NA+35521  30.051  24.490   4.125
76426NA+    NA+35522  15.749  40.441   1.286
76427NA+    NA+35523  41.818   8.670   1.826
76428NA+    NA+35524  22.111  13.829   4.217
76429NA+    NA+35525  10.214  26.056   2.229
76430NA+    NA+35526  43.967  26.085  14.806
76431NA+    NA+35527  18.630  26.166  13.907
76432NA+    NA+35528  12.802   9.352  14.813
76433NA+    NA+35529  14.111  35.376   3.159
76434NA+    NA+35530  40.845  42.479   1.361
76435NA+    NA+35531   1.946  25.982  13.473
76436NA+    NA+35532   9.184   7.349   3.726
76437NA+    NA+35533   5.278   2.819   0.792
76438NA+    NA+35534  28.937  34.565  10.917
76439NA+    NA+35535   5.311   2.276   4.703
76440NA+    NA+35536  15.754  28.589  13.481
76441NA+    NA+35537   8.265   6.385   1.374
76442NA+    NA+35538  38.446  25.134  13.377
76443NA+    NA+35539  37.350  34.389   2.179
76444NA+    NA+35540  10.296   9.827   2.358
76445NA+    NA+35541   1.446  24.215  12.958
76446NA+    NA+35542  37.860   8.655   9.612
76447NA+    NA+35543  36.972  12.689   1.408
76448NA+    NA+35544  16.250  37.981   3.629
76449NA+    NA+35545  42.942  21.593  10.427
76450NA+    NA+35546  39.065  30.531   3.820
76451NA+    NA+35547  22.179  22.550  12.553
76452NA+    NA+35548  21.636  25.681   3.687
76453NA+    NA+35549   5.898   9.675  12.078
76454NA+    NA+35550  14.639  22.717   4.201
76455NA+    NA+35551   8.378   1.378   3.313
76456NA+    NA+35552  44.395  24.592   3.252
76457NA+    NA+35553  23.064  13.790  12.340
76458NA+    NA+35554  37.941  29.955   4.129
76459NA+    NA+35555   0.797  27.019   1.778
76460NA+    NA+35556  42.001  10.655   4.346
76461NA+    NA+35557  39.839  39.865   0.773
76462NA+    NA+35558  40.345  17.177  12.939
76463NA+    NA+35559  20.562  38.984  12.538
76464NA+    NA+35560  39.466  44.864   4.191
76465NA+    NA+35561  34.610  10.224  13.915
76466NA+    NA+35562  16.098  13.810  12.422
76467NA+    NA+35563  25.138  41.359  11.466
76468NA+    NA+35564  16.590  31.531  12.412
76469NA+    NA+35565  10.238  11.780   2.797
76470NA+    NA+35566   5.771  24.516  12.891
76471NA+    NA+35567   2.464   0.372   1.840
76472NA+    NA+35568  35.573   1.278  14.919
76473NA+    NA+35569  27.489  28.967  10.635
76474NA+    NA+35570  36.466  39.811   3.822
76475NA+    NA+35571  13.346  13.152  12.877
76476NA+    NA+35572   5.860  40.478  14.894
76477NA+    NA+35573  20.666  21.256   3.258
76478NA+    NA+35574  16.090  21.573  12.950
76479NA+    NA+35575  41.802  18.196   0.435
76480NA+    NA+35576  13.156  29.114  13.816
76481NA+    NA+35577  25.633   6.190  10.472
76482NA+    NA+35578  31.950  15.808  12.518
76483NA+    NA+35579  10.860   7.823   3.374
76484NA+    NA+35580   0.980   9.765  11.435
76485NA+    NA+35581  32.478  10.343  13.993
76486NA+    NA+35582  18.728  35.895   2.369
76487NA+    NA+35583  33.126   5.402  13.426
76488NA+    NA+35584  16.670  13.346  11.860
76489NA+    NA+35585   2.262  15.588  12.093
76490NA+    NA+35586  38.880  37.856   0.953
76491NA+    NA+35587  37.561   1.937  10.085
76492NA+    NA+35588   8.402  24.123   4.599
76493NA+    NA+35589  32.431   6.819  11.889
76494NA+    NA+35590  30.619  36.905  11.594
76495NA+    NA+35591   2.963  42.914   4.279
76496NA+    NA+35592  24.551   8.205  11.585
76497NA+    NA+35593  11.859  37.027   2.736
76498NA+    NA+35594  42.311   9.754  13.001
76499NA+    NA+35595  30.104  22.593  14.820
76500NA+    NA+35596  35.032   8.191   1.901
76501NA+    NA+35597   7.775  20.239   2.850
76502NA+    NA+35598  28.083  32.931   4.339
76503NA+    NA+35599   0.823  40.974   4.306
76504NA+    NA+35600  24.164  42.788  12.092
76505NA+    NA+35601  42.445  25.704   1.904
76506NA+    NA+35602  19.145  29.626  12.826
76507NA+    NA+35603  21.226  20.665  11.859
76508NA+    NA+35604  10.784  28.147   2.239
76509NA+    NA+35605  37.463  18.098  14.378
76510NA+    NA+35606  32.138   8.766   1.832
76511NA+    NA+35607  17.754   7.800  14.905
76512NA+    NA+35608   5.850  35.061   4.239
76513NA+    NA+35609  23.582  19.557  13.308
76514NA+    NA+35610  25.576  21.568  10.572
76515NA+    NA+35611  41.799  21.565  14.773
76516NA+    NA+35612  43.460  19.152   1.303
76517NA+    NA+35613  14.753  16.234  12.529
76518NA+    NA+35614  29.065  37.500  11.871
76519NA+    NA+35615   1.349  32.984  10.444
76520NA+    NA+35616   1.840   4.233   4.182
76521NA+    NA+35617  25.140  42.359   4.163
76522NA+    NA+35618  41.456  29.958  13.819
76523NA+    NA+35619  40.329  14.323   3.725
76524NA+    NA+35620  12.119  27.675   2.368
76525NA+    NA+35621  30.552  24.704  14.842
76526NA+    NA+35622  37.429  13.317   2.192
76527NA+    NA+35623  24.055  11.745   0.368
76528NA+    NA+35624  25.500  19.738  12.929
76529NA+    NA+35625  34.089  20.262  11.113
76530NA+    NA+35626  21.524  19.656  13.525
76531NA+    NA+35627  44.958  38.378   2.282
76532NA+    NA+35628  34.980  31.150   0.870
76533NA+    NA+35629   3.452  11.220  12.859
76534NA+    NA+35630  14.132  30.083  11.579
76535NA+    NA+35631  26.167   7.794  13.534
76536NA+    NA+35632   7.375   1.354   0.895
76537NA+    NA+35633  38.464  27.042  12.849
76538NA+    NA+35634   6.311  42.864   2.416
76539NA+    NA+35635  15.769  30.628   0.274
76540NA+    NA+35636  32.616  39.478  14.841
76541NA+    NA+35637  25.196  31.488  14.385
76542NA+    NA+35638   3.321   8.339  14.497
76543NA+    NA+35639  39.862  39.836   3.198
76544NA+    NA+35640   0.978  40.880  10.634
76545NA+    NA+35641  32.517  35.938  13.025
76546NA+    NA+35642  17.298  23.103  14.852
76547NA+    NA+35643  26.161  36.973  13.464
76548NA+    NA+35644   7.823  34.462  14.376
76549NA+    NA+35645   8.258  17.600   2.833
76550NA+    NA+35646   9.849  36.554   0.355
76551NA+    NA+35647  23.029   3.731  12.856
76552NA+    NA+35648  31.942  12.632  14.850
76553NA+    NA+35649  43.486  32.052   2.741
76554NA+    NA+35650  13.807  37.874  13.813
76555NA+    NA+35651  23.650  16.289   3.824
76556NA+    NA+35652  18.240   9.869  11.914
76557NA+    NA+35653  25.500  10.156  14.391
76558NA+    NA+35654  30.497  31.040  11.046
76559NA+    NA+35655  34.509  38.354   0.731
76560NA+    NA+35656  34.119  41.298   3.315
76561NA+    NA+35657  32.938  20.224  13.034
76562NA+    NA+35658  36.885  38.865   1.779
76563NA+    NA+35659  11.856  26.141  11.495
76564NA+    NA+35660  26.095  39.891  14.877
76565NA+    NA+35661   3.321  18.619  13.886
76566NA+    NA+35662   9.783  11.836   1.275
76567NA+    NA+35663  35.989  23.505  12.548
76568NA+    NA+35664  38.070  17.259  13.043
76569NA+    NA+35665  43.374   4.846  13.451
76570NA+    NA+35666  27.152  40.487   2.309
76571NA+    NA+35667   5.905   7.357   4.835
76572NA+    NA+35668  43.417  17.571  13.323
76573NA+    NA+35669  29.434  10.815   4.133
76574NA+    NA+35670  23.018  40.438   2.309
76575NA+    NA+35671  29.015   7.247   1.280
76576NA+    NA+35672   7.367  44.405  10.457
76577NA+    NA+35673   8.863  40.388  12.436
76578NA+    NA+35674  25.714   8.336  10.999
76579NA+    NA+35675   6.284  27.955  11.971
76580NA+    NA+35676  14.768  26.177   2.338
76581NA+    NA+35677  19.573  19.204   3.808
76582NA+    NA+35678  13.142  26.124   0.781
76583NA+    NA+35679   2.367  41.447   4.242
76584NA+    NA+35680  29.485  17.616  12.031
76585NA+    NA+35681  43.472  24.499  14.803
76586NA+    NA+35682   8.404   0.800   2.707
76587NA+    NA+35683  17.207  27.046  10.891
76588NA+    NA+35684  44.271  25.171  13.474
76589NA+    NA+35685  28.050   3.435   2.716
76590NA+    NA+35686   4.945  34.604   3.671
76591NA+    NA+35687  38.538  25.180   3.340
76592NA+    NA+35688  11.127  24.203   3.232
76593NA+    NA+35689  14.717  15.152  14.293
76594NA+    NA+35690  42.400  42.456  13.899
76595NA+    NA+35691  22.595  37.344  12.522
76596NA+    NA+35692  43.398  41.375   5.241
76597NA+    NA+35693  27.683   6.233   3.342
76598NA+    NA+35694  23.723   4.741   3.280
76599NA+    NA+35695  17.157  24.667   3.721
76600NA+    NA+35696   9.883  26.072   9.582
76601NA+    NA+35697  12.745  40.429   1.697
76602NA+    NA+35698  27.076   3.257   4.715
76603NA+    NA+35699  33.410  40.819   0.849
76604NA+    NA+35700  25.583   8.779   3.751
76605NA+    NA+35701  27.473  28.460   1.901
76606NA+    NA+35702  31.554  18.594   1.741
76607NA+    NA+35703  15.313  40.481  11.977
76608NA+    NA+35704  36.378  41.934   2.853
76609NA+    NA+35705  13.282  18.146   0.425
76610NA+    NA+35706  19.151  42.331  11.896
76611NA+    NA+35707   5.241  21.582  14.894
76612NA+    NA+35708  10.659  25.620  11.561
76613NA+    NA+35709   3.835  39.465   2.698
76614NA+    NA+35710   6.871  22.029  14.988
76615NA+    NA+35711  20.650  17.573  11.043
76616NA+    NA+35712  33.931  25.503   5.217
76617NA+    NA+35713   3.457   3.869   3.185
76618NA+    NA+35714  44.847  14.258   1.851
76619NA+    NA+35715  29.645   9.842   4.794
76620NA+    NA+35716  36.559   4.870   3.179
76621NA+    NA+35717  40.423  34.473   0.312
76622NA+    NA+35718  19.131  36.845   2.296
76623NA+    NA+35719  22.051  32.481   0.917
76624NA+    NA+35720  39.972   8.858  10.908
76625NA+    NA+35721  31.507  42.015   1.803
76626NA+    NA+35722   3.246  24.644   2.297
76627NA+    NA+35723   7.333  37.449   2.382
76628NA+    NA+35724  15.719  39.344   0.303
76629NA+    NA+35725   4.753   1.946   5.235
76630NA+    NA+35726   1.740   8.739   5.258
76631NA+    NA+35727  40.363  33.923  12.990
76632NA+    NA+35728  19.618  41.933   2.187
76633NA+    NA+35729  36.413  30.620  13.440
76634NA+    NA+35730   0.975   6.677  10.470
76635NA+    NA+35731  40.982   7.266  14.863
76636NA+    NA+35732  41.366  31.553   4.828
76637NA+    NA+35733  19.610  24.201   5.247
76638NA+    NA+35734  15.584   8.827   2.391
76639NA+    NA+35735  30.095  25.123  12.832
76640NA+    NA+35736  27.648  18.179   3.807
76641NA+    NA+35737  20.710  39.976   1.349
76642NA+    NA+35738  40.486  17.557  12.450
76643NA+    NA+35739  14.128  43.825   1.312
76644NA+    NA+35740  39.859  30.992  14.773
76645NA+    NA+35741  32.972  23.714  10.629
76646NA+    NA+35742   8.226  14.205  12.006
76647NA+    NA+35743   5.812  37.556   3.196
76648NA+    NA+35744   0.388  28.186   1.811
76649NA+    NA+35745   6.757  18.086   4.721
76650NA+    NA+35746  23.622  31.020  13.438
76651NA+    NA+35747  41.468  42.843   3.849
76652NA+    NA+35748   8.350  37.847  10.446
76653NA+    NA+35749  22.205  13.200   2.818
76654NA+    NA+35750   1.759  21.528  14.966
76655NA+    NA+35751  23.152  37.962   3.327
76656NA+    NA+35752  13.214  39.431  10.415
76657NA+    NA+35753  35.082  38.820   0.921
76658NA+    NA+35754  44.758  30.155   1.276
76659NA+    NA+35755  11.209  35.030   1.322
76660NA+    NA+35756   0.749  38.444   3.211
76661NA+    NA+35757   5.702  12.353  11.416
76662NA+    NA+35758  35.988  24.624   3.236
76663NA+    NA+35759   7.889  25.547   0.402
76664NA+    NA+35760   5.405  33.472  12.536
76665NA+    NA+35761   6.759  17.773  13.843
76666NA+    NA+35762  29.927  33.906   0.419
76667NA+    NA+35763  36.943  16.094  13.471
76668NA+    NA+35764  28.940  26.520  13.802
76669NA+    NA+35765  42.825   0.794   1.245
76670NA+    NA+35766   7.241  38.869   3.339
76671NA+    NA+35767  43.302  31.928  13.064
76672NA+    NA+35768  26.201   8.204   3.846
76673NA+    NA+35769  12.739  20.601   2.807
76674NA+    NA+35770  17.285  13.157  11.409
76675NA+    NA+35771   3.361  36.031   1.896
76676NA+    NA+35772  25.973  21.193  12.040
76677NA+    NA+35773  15.324   7.773   4.695
76678NA+    NA+35774  16.664  34.592   5.192
76679NA+    NA+35775  12.804  23.059  13.386
76680NA+    NA+35776  32.555   8.781   1.423
76681NA+    NA+35777  27.031   6.732   4.261
76682NA+    NA+35778  39.332  42.871  11.935
76683NA+    NA+35779  17.801  44.407   0.949
76684NA+    NA+35780  12.764  40.018  12.941
76685NA+    NA+35781   6.187  37.366   1.718
76686NA+    NA+35782  10.771  19.715  13.507
76687NA+    NA+35783  27.157  42.821   0.467
76688NA+    NA+35784  13.794   8.167  12.408
76689NA+    NA+35785   5.701  11.288   0.337
76690NA+    NA+35786  22.579   4.428  12.508
76691NA+    NA+35787   9.255  36.942  10.891
76692NA+    NA+35788  38.447  21.200  12.876
76693NA+    NA+35789   5.702   2.464   4.139
76694NA+    NA+35790  13.348   3.356   2.808
76695NA+    NA+35791  39.861  13.226  13.499
76696NA+    NA+35792  22.015   5.424   2.862
76697NA+    NA+35793  19.203  11.134  14.028
76698NA+    NA+35794  37.044   8.706   9.978
76699NA+    NA+35795  22.733  19.211  11.952
76700NA+    NA+35796  33.457  29.580  13.008
76701NA+    NA+35797  26.121  22.020   3.384
76702NA+    NA+35798  30.121   3.718  12.053
76703NA+    NA+35799  26.139  28.063  13.930
76704NA+    NA+35800  44.499   6.366   4.629
76705NA+    NA+35801  40.356  16.779   0.278
76706NA+    NA+35802  11.319  19.110   4.746
76707NA+    NA+35803  37.403  32.055  14.804
76708NA+    NA+35804  33.076   8.360  12.455
76709NA+    NA+35805   5.437  22.703   2.895
76710NA+    NA+35806  42.997   9.299  12.829
76711NA+    NA+35807  16.126  36.869   0.931
76712NA+    NA+35808  20.535  19.626   0.248
76713NA+    NA+35809  40.920  23.566   1.221
76714NA+    NA+35810  40.905  19.636   0.295
76715NA+    NA+35811  40.817   4.944   3.347
76716NA+    NA+35812  13.212   8.854  12.531
76717NA+    NA+35813   0.867  17.111   1.358
76718NA+    NA+35814   0.785   4.431  12.930
76719NA+    NA+35815  19.128  10.677   0.351
76720NA+    NA+35816  27.986  37.354  10.441
76721NA+    NA+35817  31.015  18.711   0.812
76722NA+    NA+35818   0.836   5.430  11.385
76723NA+    NA+35819  22.731  40.886   0.876
76724NA+    NA+35820  26.118  29.007  12.038
76725NA+    NA+35821  21.525  10.850   1.934
76726NA+    NA+35822  21.111  43.839  11.397
76727NA+    NA+35823  27.658  13.841   4.265
76728NA+    NA+35824  36.537  27.650   4.238
76729NA+    NA+35825  40.384   7.327   3.296
76730NA+    NA+35826  37.433  26.563   4.609
76731NA+    NA+35827  26.511  27.113  11.971
76732NA+    NA+35828  40.941   9.341  14.923
76733NA+    NA+35829  38.430  30.045  14.445
76734NA+    NA+35830   9.227  40.308  10.897
76735NA+    NA+35831  11.308   9.238  11.387
76736NA+    NA+35832   6.301   9.231   3.790
76737NA+    NA+35833  44.484  32.900  10.423
76738NA+    NA+35834  35.495  30.933   2.768
76739NA+    NA+35835   8.326  24.598   3.870
76740NA+    NA+35836   5.747  30.944   4.674
76741NA+    NA+35837  13.197  17.274  11.938
76742NA+    NA+35838  27.691  12.699  10.457
76743NA+    NA+35839  26.615  33.537   9.526
76744NA+    NA+35840  38.957   5.424   1.433
76745NA+    NA+35841  29.059  44.409   3.156
76746NA+    NA+35842   8.179  26.966   0.742
76747NA+    NA+35843  14.834  18.561  11.454
76748NA+    NA+35844  14.265  37.386   1.374
76749NA+    NA+35845  41.974   6.216   4.116
76750NA+    NA+35846   6.754  37.577  14.299
76751NA+    NA+35847  26.154   5.373   3.694
76752NA+    NA+35848  25.150  23.143   3.174
76753NA+    NA+35849   3.922  13.117  13.407
76754NA+    NA+35850   6.737  38.548  10.608
76755NA+    NA+35851   9.784  24.996   3.714
76756NA+    NA+35852  39.996   7.858   0.733
76757NA+    NA+35853  16.660  31.034   5.592
76758NA+    NA+35854  16.092  43.020  13.992
76759NA+    NA+35855  32.480  43.784  11.059
76760NA+    NA+35856  24.147  28.076   0.444
76761NA+    NA+35857   2.229  29.424   0.763
76762NA+    NA+35858  36.927   0.424  10.427
76763NA+    NA+35859  32.953  40.806  11.925
76764NA+    NA+35860  28.518  44.761   3.862
76765NA+    NA+35861  10.850  36.087   5.321
76766NA+    NA+35862   2.423  17.138   0.294
76767NA+    NA+35863   7.796  10.282   4.632
76768NA+    NA+35864  23.666  18.766  14.419
76769NA+    NA+35865  19.178  26.015  12.015
76770NA+    NA+35866   5.867   6.687   3.261
76771NA+    NA+35867  38.390  26.004   4.261
76772NA+    NA+35868  36.846  13.331   1.696
76773NA+    NA+35869   0.951  21.186  10.590
76774NA+    NA+35870  15.152  32.504   3.731
76775NA+    NA+35871  44.486   6.798   1.396
76776NA+    NA+35872   6.423  12.117  13.054
76777NA+    NA+35873  18.689  32.128   1.274
76778NA+    NA+35874  23.054  35.501   0.799
76779NA+    NA+35875   1.909  32.530  14.804
76780NA+    NA+35876   2.779  44.822  12.035
76781NA+    NA+35877   9.730  29.454   0.944
76782NA+    NA+35878  18.737  27.135  11.973
76783NA+    NA+35879  22.603  38.489  12.923
76784NA+    NA+35880  22.510   6.858   3.766
76785NA+    NA+35881  20.114   8.358   0.812
76786NA+    NA+35882   4.373  20.048  13.055
76787NA+    NA+35883  37.431  27.188  14.381
76788NA+    NA+35884  12.693  25.062   1.846
76789NA+    NA+35885  22.533  26.540   4.677
76790NA+    NA+35886   3.257  28.544   1.813
76791NA+    NA+35887   8.829  21.123  12.888
76792NA+    NA+35888  40.481   0.953  13.468
76793NA+    NA+35889  25.147  30.484   1.783
76794NA+    NA+35890  39.468   0.361   1.358
76795NA+    NA+35891   2.331  37.386  10.993
76796NA+    NA+35892  14.642  39.920  12.479
76797NA+    NA+35893  27.173   0.971   1.917
76798NA+    NA+35894  30.061  28.135  13.481
76799NA+    NA+35895  38.930  17.302  12.011
76800NA+    NA+35896  41.946  32.103   4.209
76801NA+    NA+35897   1.808  29.441  10.934
76802NA+    NA+35898  19.219  37.890  12.845
76803NA+    NA+35899  12.203  22.566   1.333
76804NA+    NA+35900  35.888  43.795  11.896
76805NA+    NA+35901  17.151  14.670  13.041
76806NA+    NA+35902  13.831  32.133  10.913
76807NA+    NA+35903  19.573  14.234   1.399
76808NA+    NA+35904  15.770  22.052  11.914
76809NA+    NA+35905   1.791   8.401  12.436
76810NA+    NA+35906  11.168  38.966   0.879
76811NA+    NA+35907  13.156  27.447   3.852
76812NA+    NA+35908   7.684  29.175   0.730
76813NA+    NA+35909   1.413  24.999   0.290
76814NA+    NA+35910   6.382  26.969   0.821
76815NA+    NA+35911  25.478  21.758   1.291
76816NA+    NA+35912   8.310  14.322  14.765
76817NA+    NA+35913  36.009  34.111   2.857
76818NA+    NA+35914   7.778  44.477   0.746
76819NA+    NA+35915  28.039   5.731  12.959
76820NA+    NA+35916   0.921   7.204  14.004
76821NA+    NA+35917  13.793  34.901   4.340
76822NA+    NA+35918  11.653  15.629   2.207
76823NA+    NA+35919  19.708  44.788   1.394
76824NA+    NA+35920   6.730  42.475  11.009
76825NA+    NA+35921  25.157  42.801  13.856
76826NA+    NA+35922  22.532  28.611   0.872
76827NA+    NA+35923  21.170  38.377   3.767
76828NA+    NA+35924  13.111  40.363   2.778
76829NA+    NA+35925  43.819  13.282  14.010
76830NA+    NA+35926   0.432  27.500   2.673
76831NA+    NA+35927  41.021  25.037   1.753
76832NA+    NA+35928  15.105  34.998   3.256
76833NA+    NA+35929  37.337  33.041   0.323
76834NA+    NA+35930  16.668  17.716  13.369
76835NA+    NA+35931  38.501  44.490  13.472
76836NA+    NA+35932  33.464  14.622   1.762
76837NA+    NA+35933  37.466   7.395   3.631
76838NA+    NA+35934   2.334  23.184  11.563
76839NA+    NA+35935   9.833  11.845   2.221
76840NA+    NA+35936  11.662  26.591  10.607
76841NA+    NA+35937  32.929  40.976   3.301
76842NA+    NA+35938  37.441  25.102  12.353
76843NA+    NA+35939  15.092  24.660  13.496
76844NA+    NA+35940  22.173  19.095   5.687
76845NA+    NA+35941  25.999  26.954   0.817
76846NA+    NA+35942  44.843  21.081   0.867
76847NA+    NA+35943  11.637  23.522   3.652
76848NA+    NA+35944  39.394   9.371  13.987
76849NA+    NA+35945  14.283  15.118  14.997
76850NA+    NA+35946  14.116  31.588   0.306
76851NA+    NA+35947  34.006  24.656  12.915
76852NA+    NA+35948  24.649  38.457  12.992
76853NA+    NA+35949  24.081  26.118   3.216
76854NA+    NA+35950   7.821  39.839  12.037
76855NA+    NA+35951  35.879  10.252   1.880
76856NA+    NA+35952  40.484  31.118  11.967
76857NA+    NA+35953   5.216  30.931  14.502
76858NA+    NA+35954  13.121  32.966   2.846
76859NA+    NA+35955  30.627  10.715   4.313
76860NA+    NA+35956  28.030  15.205   4.773
76861NA+    NA+35957   1.759   9.350   3.632
76862NA+    NA+35958  38.477  34.381  14.388
76863NA+    NA+35959  35.001  11.714  13.465
76864NA+    NA+35960  32.982   9.817  13.475
76865NA+    NA+35961   9.697  43.353  12.083
76866NA+    NA+35962  14.277  38.478   5.192
76867NA+    NA+35963  11.814  40.862  12.995
76868NA+    NA+35964   9.886  26.109   2.313
76869NA+    NA+35965  21.604  35.359   3.153
76870NA+    NA+35966  13.675  18.766   3.160
76871NA+    NA+35967  20.228  15.581   1.297
76872NA+    NA+35968  36.891   9.376   3.209
76873NA+    NA+35969  35.884  26.972   0.786
76874NA+    NA+35970  15.210  13.206  13.922
76875NA+    NA+35971  17.640  33.611   1.363
76876NA+    NA+35972  19.670  22.708   2.823
76877NA+    NA+35973  34.067  44.971   0.948
76878NA+    NA+35974  21.141  44.476  13.865
76879NA+    NA+35975  11.343  43.854  13.909
76880NA+    NA+35976  15.774  16.238   0.343
76881NA+    NA+35977   1.461  23.570   4.158
76882NA+    NA+35978  21.076  31.916   4.250
76883NA+    NA+35979   7.339  33.977  10.433
76884NA+    NA+35980   3.381  19.767   4.758
76885NA+    NA+35981  39.405  14.117  10.404
76886NA+    NA+35982  16.806  21.170  12.843
76887NA+    NA+35983  10.646  31.634   0.921
76888NA+    NA+35984   5.244  38.828   3.376
76889NA+    NA+35985  26.081   7.681   2.852
76890NA+    NA+35986  35.930  16.682  14.334
76891NA+    NA+35987   0.465  44.357   1.227
76892NA+    NA+35988  12.786  15.689  14.976
76893NA+    NA+35989  42.497  21.606   4.198
76894NA+    NA+35990  21.043  15.176  10.405
76895NA+    NA+35991   3.831   1.323   0.940
76896NA+    NA+35992  32.584  31.055  12.895
76897NA+    NA+35993  23.056   4.278   4.660
76898NA+    NA+35994  21.530  42.517  12.462
76899NA+    NA+35995  29.566  31.061  11.388
76900NA+    NA+35996  36.497  18.729   0.741
76901NA+    NA+35997  22.686   8.377  12.416
76902NA+    NA+35998  32.504  14.139  11.915
76903NA+    NA+35999  18.573  26.153  13.531
76904NA+    NA+36000  24.049  28.115  14.893
76905NA+    NA+36001  13.162  28.948  14.929
76906NA+    NA+36002  41.412  12.629   4.331
76907NA+    NA+36003   2.454   7.321  11.945
76908NA+    NA+36004  14.159  27.015   4.611
76909NA+    NA+36005   4.422  39.842   3.699
76910NA+    NA+36006  27.067   0.309  11.895
76911NA+    NA+36007   1.327  44.770   0.381
76912NA+    NA+36008   9.725   0.447  13.383
76913NA+    NA+36009  40.039  27.601   4.185
76914NA+    NA+36010  33.904  14.325  11.405
76915NA+    NA+36011  26.649   5.708  12.944
76916NA+    NA+36012  40.306  26.033  11.505
76917NA+    NA+36013  24.023  24.114   0.757
76918NA+    NA+36014  32.065  40.931   2.255
76919NA+    NA+36015  36.542  16.658   0.350
76920NA+    NA+36016  31.603   5.197   2.309
76921NA+    NA+36017  33.115  13.142  14.369
76922NA+    NA+36018  39.827  22.540   3.714
76923NA+    NA+36019   2.954  34.595   4.770
76924NA+    NA+36020  19.241  35.067   4.251
76925NA+    NA+36021  29.133  37.518   3.338
76926NA+    NA+36022  38.352  33.469  11.016
76927NA+    NA+36023  28.466  15.695   2.837
76928NA+    NA+36024   8.307  10.869   2.690
76929NA+    NA+36025  25.494  26.656   4.237
76930NA+    NA+36026  14.787   3.215   2.741
76931NA+    NA+36027   9.717  30.574  13.384
76932NA+    NA+36028  36.479  18.705  14.956
76933NA+    NA+36029   1.248  43.014   1.854
76934NA+    NA+36030  12.289  16.296  11.111
76935NA+    NA+36031  23.021  29.451   4.287
76936NA+    NA+36032  11.654  18.279   1.930
76937NA+    NA+36033  10.857   6.284  12.508
76938NA+    NA+36034  17.625  37.485   3.671
76939NA+    NA+36035  34.967  21.224   2.867
76940NA+    NA+36036  26.123   7.358  10.948
76941NA+    NA+36037  22.247  37.997   4.344
76942NA+    NA+36038  28.539  29.038  11.105
76943NA+    NA+36039  23.221  36.363  12.542
76944NA+    NA+36040  19.252   6.772   3.288
76945NA+    NA+36041  36.502  35.472   4.318
76946NA+    NA+36042  16.212  40.981  10.929
76947NA+    NA+36043   9.694  30.639  10.614
76948NA+    NA+36044   0.956  40.316   4.327
76949NA+    NA+36045  35.511   5.814   4.658
76950NA+    NA+36046  37.388   4.767   5.142
76951NA+    NA+36047   7.820  28.594  14.975
76952NA+    NA+36048  38.561  34.500   4.242
76953NA+    NA+36049  31.559  16.260   1.347
76954NA+    NA+36050  11.152   2.434   4.308
76955NA+    NA+36051  30.980  43.906  12.526
76956NA+    NA+36052  34.602  31.414   3.694
76957NA+    NA+36053  38.328  16.741  11.490
76958NA+    NA+36054  14.317  34.434   1.750
76959NA+    NA+36055   8.711  23.048  11.123
76960NA+    NA+36056  38.006  34.519   5.321
76961NA+    NA+36057  14.698  11.169  13.030
76962NA+    NA+36058  18.145  21.642  13.377
76963NA+    NA+36059  34.034   5.835  14.466
76964NA+    NA+36060   4.305  11.258  14.021
76965NA+    NA+36061  37.061  22.526  12.874
76966NA+    NA+36062  22.177  13.295   1.436
76967NA+    NA+36063  42.413  36.547  12.927
76968NA+    NA+36064   7.289  42.971  12.835
76969NA+    NA+36065  43.975  44.835   4.691
76970NA+    NA+36066  21.029  18.080  11.973
76971NA+    NA+36067  29.520  35.082   2.795
76972NA+    NA+36068  41.362  24.189  10.964
76973NA+    NA+36069   8.250  43.343   3.340
76974NA+    NA+36070  21.628  16.310   2.802
76975NA+    NA+36071  37.079  21.104  14.834
76976NA+    NA+36072  15.217  40.514  11.004
76977NA+    NA+36073  15.183  34.933   2.785
76978NA+    NA+36074  10.356  40.964   4.219
76979NA+    NA+36075  16.103  32.530   3.352
76980NA+    NA+36076  14.325  19.168   4.627
76981NA+    NA+36077  33.536   2.783  14.850
76982NA+    NA+36078   4.284  29.488   0.451
76983NA+    NA+36079  15.261  33.441  13.903
76984NA+    NA+36080  21.730   7.400   2.670
76985NA+    NA+36081   3.412   2.412  10.972
76986NA+    NA+36082  14.665  26.150   1.793
76987NA+    NA+36083   3.367  34.577  12.442
76988NA+    NA+36084  17.221  13.742  10.593
76989NA+    NA+36085   7.199  39.439   3.164
76990NA+    NA+36086  39.953  28.671  13.423
76991NA+    NA+36087  23.721   0.465  10.955
76992NA+    NA+36088   0.826  38.978   9.986
76993NA+    NA+36089  11.790   5.775   3.380
76994NA+    NA+36090   4.760  13.286   1.319
76995NA+    NA+36091  41.500  17.272  14.888
76996NA+    NA+36092  31.415  11.807   0.269
76997NA+    NA+36093  15.788  33.881  14.931
76998NA+    NA+36094  31.998   6.365  14.996
76999NA+    NA+36095  33.891   5.743   3.183
77000NA+    NA+36096  27.945  41.359   1.696
77001NA+    NA+36097  24.151  30.632   4.235
77002NA+    NA+36098  25.151  42.505   2.769
77003NA+    NA+36099  40.476  28.562  12.993
77004NA+    NA+36100  33.484  14.296  11.373
77005NA+    NA+36101  22.041  40.891  12.055
77006NA+    NA+36102  41.420   9.868   3.341
77007NA+    NA+36103  31.019  31.952   4.186
77008NA+    NA+36104  29.656  36.377   0.257
77009NA+    NA+36105  21.180  39.356   1.935
77010NA+    NA+36106  28.437  16.600  11.120
77011NA+    NA+36107  35.476  23.120   4.631
77012NA+    NA+36108   9.192  11.671   4.271
77013NA+    NA+36109  37.906   6.359  11.394
77014NA+    NA+36110  21.719   1.385  10.436
77015NA+    NA+36111  40.491  30.059   1.313
77016NA+    NA+36112  41.355  14.652   3.248
77017NA+    NA+36113  26.963  42.519   1.894
77018NA+    NA+36114  34.915   9.255  10.411
77019NA+    NA+36115  15.187   4.334   0.304
77020NA+    NA+36116  42.779   8.785   3.869
77021NA+    NA+36117   0.422  34.394  10.469
77022NA+    NA+36118  39.029  43.803  11.124
77023NA+    NA+36119   9.236   3.919   0.910
77024NA+    NA+36120  31.902  14.255   1.885
77025NA+    NA+36121  28.617  16.751   3.231
77026NA+    NA+36122  44.458  20.164  10.937
77027NA+    NA+36123  30.492  32.047  12.014
77028NA+    NA+36124  15.151  29.585   0.273
77029NA+    NA+36125  24.592  38.344  14.380
77030NA+    NA+36126  16.775  22.022  13.308
77031NA+    NA+36127  42.983  41.349  13.941
77032NA+    NA+36128   2.757  25.180  11.451
77033NA+    NA+36129  22.186   3.728  14.451
77034NA+    NA+36130  23.985   3.245  12.579
77035NA+    NA+36131  35.931  39.956  11.118
77036NA+    NA+36132  27.654  24.516   4.827
77037NA+    NA+36133  41.383  31.032   4.710
77038NA+    NA+36134  44.483  41.479  12.951
77039NA+    NA+36135  11.221  42.469   4.733
77040NA+    NA+36136  43.337  30.157  13.834
77041NA+    NA+36137  30.119  13.239   1.776
77042NA+    NA+36138  26.018  24.671   2.695
77043NA+    NA+36139   8.802   1.380   0.783
77044NA+    NA+36140  12.250  18.769  10.470
77045NA+    NA+36141  42.353  37.965  14.807
77046NA+    NA+36142  43.949   4.705   4.172
77047NA+    NA+36143  31.447   3.765  11.038
77048NA+    NA+36144  21.230  25.059   5.312
77049NA+    NA+36145  32.496  38.957   2.681
77050NA+    NA+36146  20.032  14.257  14.485
77051NA+    NA+36147  43.355   2.339  11.439
77052NA+    NA+36148  44.417  36.432  14.797
77053NA+    NA+36149  42.930  22.062   4.120
77054NA+    NA+36150  29.551  37.575  12.955
77055NA+    NA+36151  31.492  35.367  13.870
77056NA+    NA+36152  28.970  33.067  12.363
77057NA+    NA+36153  41.035  16.190   1.302
77058NA+    NA+36154  17.691  21.735   0.253
77059NA+    NA+36155  24.174   8.386   5.636
77060NA+    NA+36156  22.652  20.565   2.369
77061NA+    NA+36157  35.453  27.456  11.428
77062NA+    NA+36158   8.678   8.176  10.634
77063NA+    NA+36159  23.120  15.121   0.355
77064NA+    NA+36160  13.794  44.853   0.845
77065NA+    NA+36161   3.876  19.215  14.818
77066NA+    NA+36162  31.995  21.058  13.927
77067NA+    NA+36163  31.436  31.050  13.028
77068NA+    NA+36164  29.423  13.189  13.884
77069NA+    NA+36165  10.375   7.805   3.345
77070NA+    NA+36166  32.135  43.425   0.743
77071NA+    NA+36167   7.794  32.521  11.446
77072NA+    NA+36168  11.654  17.766   0.896
77073NA+    NA+36169   3.823  44.475  12.578
77074NA+    NA+36170  23.041   3.871  11.099
77075NA+    NA+36171   1.438  39.854  13.047
77076NA+    NA+36172  19.216  29.642  12.462
77077NA+    NA+36173  17.558  10.174  11.504
77078NA+    NA+36174   3.710  18.173  14.317
77079NA+    NA+36175  11.244  12.715   3.715
77080NA+    NA+36176  28.162  22.618   1.233
77081NA+    NA+36177  26.962   5.361   2.686
77082NA+    NA+36178  18.765  28.602  12.502
77083NA+    NA+36179  23.593  21.623  14.015
77084NA+    NA+36180  27.467  13.709  12.938
77085NA+    NA+36181  18.125  36.085  11.440
77086NA+    NA+36182  38.040  38.950  11.870
77087NA+    NA+36183   0.308  18.113   3.823
77088NA+    NA+36184  30.959  32.071  13.534
77089NA+    NA+36185   6.318  18.074  12.927
77090NA+    NA+36186  16.575  33.435   9.481
77091NA+    NA+36187  36.087   2.369   1.774
77092NA+    NA+36188   4.735  29.169   1.702
77093NA+    NA+36189  12.814  15.700   0.905
77094NA+    NA+36190  43.378  15.294   0.437
77095NA+    NA+36191  20.106  35.912  14.760
77096NA+    NA+36192  22.648  32.069  12.429
77097NA+    NA+36193   7.355  25.628  13.977
77098NA+    NA+36194  44.893  26.601  10.476
77099NA+    NA+36195  34.987   9.846   4.354
77100NA+    NA+36196  40.933  23.726  11.055
77101NA+    NA+36197  37.074  26.962   1.283
77102NA+    NA+36198  13.342  22.690  11.860
77103NA+    NA+36199  28.503  32.446  13.353
77104NA+    NA+36200  30.451  35.430   1.426
77105NA+    NA+36201  27.193  36.995   3.725
77106NA+    NA+36202   6.754  42.012   3.653
77107NA+    NA+36203  40.936  37.544   5.210
77108NA+    NA+36204   6.839  13.817  11.069
77109NA+    NA+36205  33.388  24.531  12.496
77110NA+    NA+36206  18.281  32.972  10.511
77111NA+    NA+36207  20.573   6.776  14.783
77112NA+    NA+36208  25.984  39.905  13.794
77113NA+    NA+36209  17.717   5.429  13.336
77114NA+    NA+36210  21.072  15.737   4.247
77115NA+    NA+36211  19.073   3.907   0.912
77116NA+    NA+36212  26.184  22.654   2.348
77117NA+    NA+36213   4.733   2.783   1.808
77118NA+    NA+36214  39.481  12.127  11.438
77119NA+    NA+36215  12.150   1.866  14.438
77120NA+    NA+36216   5.237  29.108  12.863
77121NA+    NA+36217  17.258  42.894   0.840
77122NA+    NA+36218  41.930  16.079   1.380
77123NA+    NA+36219  23.069  10.373  12.536
77124NA+    NA+36220  39.321  10.253  13.416
77125NA+    NA+36221   3.345  23.715   0.320
77126NA+    NA+36222  18.194  39.808  12.050
77127NA+    NA+36223  38.488  39.978  12.023
77128NA+    NA+36224  23.991   4.434  12.453
77129NA+    NA+36225  40.455  27.597  13.000
77130NA+    NA+36226  39.547   2.885  10.555
77131NA+    NA+36227  42.845  10.846  12.348
77132NA+    NA+36228   9.265  42.925  11.007
77133NA+    NA+36229  42.788  20.753  10.967
77134NA+    NA+36230  28.161  18.056  10.451
77135NA+    NA+36231  13.269  20.227   4.219
77136NA+    NA+36232   6.199  37.375  12.949
77137NA+    NA+36233  42.938  11.848  11.946
77138NA+    NA+36234  38.857   5.359   0.920
77139NA+    NA+36235  28.583  21.704   3.146
77140NA+    NA+36236  31.458   2.397   2.359
77141NA+    NA+36237  40.498  44.812  14.774
77142NA+    NA+36238  37.499   0.282   1.867
77143NA+    NA+36239  39.395   9.645  12.012
77144NA+    NA+36240   1.330   3.861  13.946
77145NA+    NA+36241  38.903   0.918   2.271
77146NA+    NA+36242   6.216  38.054   1.741
77147NA+    NA+36243  15.639   3.739   3.861
77148NA+    NA+36244  13.660  28.464   0.385
77149NA+    NA+36245   0.805   3.762  13.828
77150NA+    NA+36246  35.429   8.242  13.353
77151NA+    NA+36247   7.781  30.089  11.985
77152NA+    NA+36248  30.943   0.492  13.907
77153NA+    NA+36249  20.593  24.228  11.484
77154NA+    NA+36250   7.327  41.981  14.776
77155NA+    NA+36251  10.353  28.525  13.538
77156NA+    NA+36252   3.243  24.128   1.873
77157NA+    NA+36253   5.842  43.480  14.995
77158NA+    NA+36254  19.181   5.257   1.327
77159NA+    NA+36255   2.471  31.598  11.939
77160NA+    NA+36256  13.743  16.216   1.399
77161NA+    NA+36257  37.559  25.002   2.216
77162NA+    NA+36258  13.702  22.715  14.503
77163NA+    NA+36259  41.365  15.792   1.382
77164NA+    NA+36260  40.444  20.181   3.213
77165NA+    NA+36261  18.174  40.888  11.431
77166NA+    NA+36262   6.887  26.036   5.754
77167NA+    NA+36263  44.429  37.501  10.433
77168NA+    NA+36264  11.173  30.937  12.899
77169NA+    NA+36265  34.020  25.592  12.910
77170NA+    NA+36266  18.195  33.117   3.168
77171NA+    NA+36267  34.518  40.442   4.720
77172NA+    NA+36268  14.319  17.131  12.840
77173NA+    NA+36269  43.873  18.771  11.896
77174NA+    NA+36270  14.806  15.313  11.090
77175NA+    NA+36271  18.621  15.783   2.763
77176NA+    NA+36272  28.956   2.739   3.835
77177NA+    NA+36273  10.185  13.302  10.149
77178NA+    NA+36274  19.625   6.705  14.841
77179NA+    NA+36275   7.299   0.816  10.486
77180NA+    NA+36276  40.841  27.581  12.069
77181NA+    NA+36277  12.158   9.697  12.418
77182NA+    NA+36278  35.537  21.523  12.496
77183NA+    NA+36279  19.768  26.045   4.138
77184NA+    NA+36280  26.679  39.347   1.904
77185NA+    NA+36281  14.231  10.867   0.462
77186NA+    NA+36282  15.218   6.207  13.962
77187NA+    NA+36283  33.074   0.960   1.871
77188NA+    NA+36284  11.682  12.822  12.502
77189NA+    NA+36285  35.066  37.428   0.965
77190NA+    NA+36286  39.980  44.992   2.901
77191NA+    NA+36287  15.739  44.384   1.932
77192NA+    NA+36288   3.833  34.916   1.768
77193NA+    NA+36289   2.290   0.748   3.154
77194NA+    NA+36290  31.989  30.914   2.731
77195NA+    NA+36291  29.509   7.263   2.862
77196NA+    NA+36292  17.165  17.738   1.306
77197NA+    NA+36293  38.860   2.452   1.779
77198NA+    NA+36294   4.809  17.730   2.417
77199NA+    NA+36295  20.549  23.495  14.781
77200NA+    NA+36296  13.823   5.252   0.454
77201NA+    NA+36297   4.292   2.898  12.415
77202NA+    NA+36298   1.977   0.307   2.302
77203NA+    NA+36299  30.146  21.190  14.873
77204NA+    NA+36300  28.037  31.977  11.443
77205NA+    NA+36301  21.597  16.608   0.270
77206NA+    NA+36302   6.810   8.807  14.968
77207NA+    NA+36303   0.434   5.194   0.862
77208NA+    NA+36304  30.494  43.932   1.717
77209NA+    NA+36305  14.605  16.699  10.545
77210NA+    NA+36306  24.102   4.849  11.541
77211NA+    NA+36307  21.550  22.109  14.844
77212NA+    NA+36308   8.786  19.675   4.759
77213NA+    NA+36309  33.517   3.929   0.803
77214NA+    NA+36310  43.329  17.564  11.869
77215NA+    NA+36311  29.572   1.790   3.156
77216NA+    NA+36312  28.071  30.444   2.265
77217NA+    NA+36313  19.109  27.543  12.841
77218NA+    NA+36314  37.420  24.659   4.834
77219NA+    NA+36315  41.027  24.091  12.402
77220NA+    NA+36316  15.183   9.362   3.198
77221NA+    NA+36317   8.868  22.618  11.463
77222NA+    NA+36318  33.084  42.364   0.325
77223NA+    NA+36319  31.085  39.934   2.814
77224NA+    NA+36320  19.153   2.237   0.781
77225NA+    NA+36321   4.322  19.100  10.536
77226NA+    NA+36322  21.608  42.300  13.414
77227NA+    NA+36323  31.540  38.496  13.490
77228NA+    NA+36324  26.470   6.788  12.941
77229NA+    NA+36325  38.050  15.641   5.187
77230NA+    NA+36326  29.515   0.805  10.140
77231NA+    NA+36327   5.376  32.004  13.060
77232NA+    NA+36328  14.767  15.277   2.893
77233NA+    NA+36329  17.067   0.970   4.281
77234NA+    NA+36330  33.441  28.168  13.470
77235NA+    NA+36331  14.246  22.545   3.744
77236NA+    NA+36332  16.193   5.729  13.464
77237NA+    NA+36333  31.932   6.262   4.797
77238NA+    NA+36334  37.039  30.567   2.868
77239NA+    NA+36335   8.352  17.073   2.697
77240NA+    NA+36336   0.438   4.778   2.327
77241NA+    NA+36337  25.001  26.538   2.387
77242NA+    NA+36338  36.541   8.722  14.827
77243NA+    NA+36339   2.830  32.626   2.761
77244NA+    NA+36340  18.230  29.134   1.828
77245NA+    NA+36341  12.159   9.374   4.203
77246NA+    NA+36342  41.477  40.369   3.784
77247NA+    NA+36343  10.731  10.809   4.216
77248NA+    NA+36344  41.849  11.206   9.532
77249NA+    NA+36345   5.318   9.270  12.033
77250NA+    NA+36346  37.433  40.896  14.473
77251NA+    NA+36347  36.879  17.239   1.931
77252NA+    NA+36348  18.688  19.553  14.285
77253NA+    NA+36349  13.713   1.953  14.411
77254NA+    NA+36350  22.252  19.690   4.233
77255NA+    NA+36351  40.506  26.612  10.442
77256NA+    NA+36352  18.579  40.444   0.326
77257NA+    NA+36353  24.034  11.858   0.909
77258NA+    NA+36354  33.000   4.428   3.227
77259NA+    NA+36355   0.462   7.697  11.446
77260NA+    NA+36356   0.309  31.959  11.563
77261NA+    NA+36357  29.524  34.047   3.197
77262NA+    NA+36358   8.241  20.602   2.670
77263NA+    NA+36359  37.480  40.894  11.887
77264NA+    NA+36360  35.545  15.735  10.990
77265NA+    NA+36361   4.441   4.215  14.799
77266NA+    NA+36362  43.400  14.328  14.300
77267NA+    NA+36363  27.959  39.043  11.582
77268NA+    NA+36364  35.485  41.884  12.991
77269NA+    NA+36365   2.916  10.373  14.358
77270NA+    NA+36366  39.400  44.495  13.392
77271NA+    NA+36367  31.485  19.716   4.638
77272NA+    NA+36368  20.077  35.382  14.886
77273NA+    NA+36369  22.723   4.731  12.988
77274NA+    NA+36370  27.588  27.571  12.853
77275NA+    NA+36371  34.381  39.322  12.090
77276NA+    NA+36372  37.062  35.533   2.889
77277NA+    NA+36373  27.507  11.711  10.947
77278NA+    NA+36374  38.065  25.119   0.441
77279NA+    NA+36375  33.417  25.048   2.211
77280NA+    NA+36376  30.586   4.333   3.785
77281NA+    NA+36377  38.374  29.059   2.253
77282NA+    NA+36378  35.523  40.455  11.033
77283NA+    NA+36379   7.244  12.820   3.309
77284NA+    NA+36380  14.798   8.207   1.302
77285NA+    NA+36381  36.991   5.869   0.908
77286NA+    NA+36382   9.812  40.869   3.782
77287NA+    NA+36383  42.882   6.704   3.212
77288NA+    NA+36384  20.056  39.029  11.062
77289NA+    NA+36385  17.759  35.875  11.410
77290NA+    NA+36386  40.440  29.616   1.723
77291NA+    NA+36387  30.160  39.950   4.204
77292NA+    NA+36388   5.899  29.010  11.458
77293NA+    NA+36389  37.867  19.198  12.415
77294NA+    NA+36390  27.553  44.831  13.895
77295NA+    NA+36391  44.871  20.180   4.815
77296NA+    NA+36392  38.956   9.672  14.480
77297NA+    NA+36393  27.106   8.392   3.796
77298NA+    NA+36394  14.097  23.208  13.824
77299NA+    NA+36395  25.014  26.611   4.712
77300NA+    NA+36396  25.190  42.775   1.235
77301NA+    NA+36397  10.378   0.820   0.416
77302NA+    NA+36398   7.686   4.814   4.813
77303NA+    NA+36399  34.551  39.021  14.462
77304NA+    NA+36400  28.513  20.266   2.861
77305NA+    NA+36401  19.232  29.470  12.061
77306NA+    NA+36402   0.969   0.783   2.392
77307NA+    NA+36403   1.800  23.490   3.203
77308NA+    NA+36404  37.957  26.510  14.959
77309NA+    NA+36405  19.595  32.586  12.575
77310NA+    NA+36406  30.933  15.807  14.937
77311NA+    NA+36407  39.850   8.877  12.344
77312NA+    NA+36408  33.458  33.580   2.216
77313NA+    NA+36409   8.238   7.326  11.407
77314NA+    NA+36410  34.471   9.228  14.849
77315NA+    NA+36411  32.428  28.008   2.310
77316NA+    NA+36412  13.655   0.777  12.934
77317NA+    NA+36413   4.797   4.881  12.043
77318NA+    NA+36414   0.955  40.973  14.341
77319NA+    NA+36415   1.736  18.177  14.870
77320NA+    NA+36416  11.239  18.684   5.626
77321NA+    NA+36417  39.457  27.455   4.672
77322NA+    NA+36418  43.509  37.078  13.504
77323NA+    NA+36419  12.325  12.280   4.335
77324NA+    NA+36420  34.977  38.479  14.998
77325NA+    NA+36421   6.729  27.503   2.356
77326NA+    NA+36422  17.087  30.938   1.417
77327NA+    NA+36423  16.216  41.319   2.877
77328NA+    NA+36424   8.171  22.045   4.799
77329NA+    NA+36425  34.957  36.889   4.781
77330NA+    NA+36426  25.531  29.572  14.792
77331NA+    NA+36427  31.938  19.551   4.247
77332NA+    NA+36428  35.516  30.138   0.852
77333NA+    NA+36429  14.282  14.180   0.961
77334NA+    NA+36430  19.597  41.845  11.969
77335NA+    NA+36431  41.029  26.576  12.538
77336NA+    NA+36432  30.128  30.988   0.278
77337NA+    NA+36433  16.111  28.052   9.960
77338NA+    NA+36434   2.424  39.003   0.361
77339NA+    NA+36435  20.185  10.701  10.974
77340NA+    NA+36436  15.127  39.419  12.484
77341NA+    NA+36437  33.544  19.535  12.854
77342NA+    NA+36438  15.627   1.372   0.325
77343NA+    NA+36439  38.869  25.163   0.357
77344NA+    NA+36440   8.726  44.478   3.329
77345NA+    NA+36441  37.963  23.071  12.886
77346NA+    NA+36442  40.393   2.833   0.775
77347NA+    NA+36443   1.245  10.649  10.944
77348NA+    NA+36444  33.987  27.190  14.295
77349NA+    NA+36445  12.342  17.286   2.701
77350NA+    NA+36446  28.981  31.547  11.585
77351NA+    NA+36447   8.377  20.227   1.393
77352NA+    NA+36448  35.410  20.125   3.332
77353NA+    NA+36449  26.645   0.423  13.510
77354NA+    NA+36450   4.263  43.817  14.777
77355NA+    NA+36451  33.094  25.072   1.862
77356NA+    NA+36452  23.617   5.928   1.773
77357NA+    NA+36453  19.691  24.065   4.716
77358NA+    NA+36454  12.692   4.866   1.437
77359NA+    NA+36455  44.004  23.558  13.033
77360NA+    NA+36456  31.506  38.009  11.391
77361NA+    NA+36457  35.365  40.006   4.133
77362NA+    NA+36458   5.703   7.399   1.829
77363NA+    NA+36459   1.755  11.739   1.823
77364NA+    NA+36460  22.245  12.838   3.379
77365NA+    NA+36461  37.495  16.095   0.942
77366NA+    NA+36462  14.226  34.022   0.314
77367NA+    NA+36463  41.365  18.206   4.214
77368NA+    NA+36464  11.675  20.085  13.920
77369NA+    NA+36465   7.737   9.756   1.809
77370NA+    NA+36466  34.996  41.386   2.879
77371NA+    NA+36467  21.554  23.086   4.332
77372NA+    NA+36468   1.364  16.617   4.754
77373NA+    NA+36469  27.006  44.421  14.463
77374NA+    NA+36470  32.971  44.439   0.469
77375NA+    NA+36471  22.114  21.096  12.518
77376NA+    NA+36472   8.872  23.660   0.342
77377NA+    NA+36473  15.663  10.720  11.876
77378NA+    NA+36474  43.976   2.722   0.337
77379NA+    NA+36475  42.477  44.976  14.873
77380NA+    NA+36476  35.581  38.515  12.366
77381NA+    NA+36477   3.846  21.253  12.357
77382NA+    NA+36478  29.538   1.458   3.860
77383NA+    NA+36479   0.958  27.653   1.834
77384NA+    NA+36480  17.110   9.391   3.743
77385NA+    NA+36481  28.084  22.222  13.949
77386NA+    NA+36482  15.817   0.306  10.427
77387NA+    NA+36483  12.197  22.711   0.832
77388NA+    NA+36484  13.267  14.614   3.216
77389NA+    NA+36485  21.252  40.479   3.804
77390NA+    NA+36486  13.311   7.891   3.760
77391NA+    NA+36487  44.286  11.670  10.493
77392NA+    NA+36488  42.782  31.139  11.574
77393NA+    NA+36489  41.898  23.567  12.973
77394NA+    NA+36490  16.215  43.431  13.974
77395NA+    NA+36491  42.828  21.523   3.149
77396NA+    NA+36492   7.822  37.430   9.955
77397NA+    NA+36493  25.681  11.822   4.343
77398NA+    NA+36494  24.582   9.163  11.385
77399NA+    NA+36495  27.501  38.956   2.888
77400NA+    NA+36496  30.485  21.741   3.764
77401NA+    NA+36497   6.322  35.520  12.482
77402NA+    NA+36498  15.611  42.994   1.707
77403NA+    NA+36499  10.171  18.549   0.866
77404NA+    NA+36500  29.651  32.983  13.345
77405NA+    NA+36501  30.567   5.322  14.922
77406NA+    NA+36502   3.253   1.281  14.881
77407NA+    NA+36503  16.753  12.691  14.314
77408NA+    NA+36504  14.293  15.735   9.994
77409NA+    NA+36505  41.462  42.913   2.243
77410NA+    NA+36506  17.664  27.987  11.062
77411NA+    NA+36507  32.971   0.437  10.942
77412NA+    NA+36508  11.284   3.288   0.321
77413NA+    NA+36509  37.527   3.885   2.383
77414NA+    NA+36510  12.263   5.197  12.922
77415NA+    NA+36511  28.572   5.213   1.831
77416NA+    NA+36512  24.609  37.528   3.727
77417NA+    NA+36513  32.133  44.006  10.078
77418NA+    NA+36514  37.870  30.466  12.068
77419NA+    NA+36515  30.151  22.639  13.993
77420NA+    NA+36516   5.366  28.611  14.329
77421NA+    NA+36517   4.829  15.785   5.222
77422NA+    NA+36518  26.033  17.691   4.622
77423NA+    NA+36519  10.687  14.822   3.246
77424NA+    NA+36520   3.306  40.338  14.416
77425NA+    NA+36521  36.573  40.885  13.042
77426NA+    NA+36522   0.275  42.985  13.853
77427NA+    NA+36523   9.783  17.266  14.846
77428NA+    NA+36524  18.054  35.410  11.067
77429NA+    NA+36525  28.589  20.535  10.890
77430NA+    NA+36526  21.051  44.415   1.849
77431NA+    NA+36527   4.752  12.183   2.687
77432NA+    NA+36528  18.745  38.889   2.702
77433NA+    NA+36529  25.526   7.309  12.372
77434NA+    NA+36530   6.687  39.486   0.801
77435NA+    NA+36531   9.795  14.731   3.261
77436NA+    NA+36532  10.642  12.758  10.123
77437NA+    NA+36533   3.834  32.627   0.419
77438NA+    NA+36534  24.228  39.385   2.833
77439NA+    NA+36535  40.819  10.876  14.818
77440NA+    NA+36536   8.803  25.070   3.326
77441NA+    NA+36537  42.407  21.161   1.406
77442NA+    NA+36538  16.650  23.227  12.921
77443NA+    NA+36539  42.379  28.673  12.558
77444NA+    NA+36540  14.142   2.940  11.450
77445NA+    NA+36541  18.684  19.269   0.917
77446NA+    NA+36542  33.512  42.838   1.845
77447NA+    NA+36543  40.382   6.246   4.342
77448NA+    NA+36544  31.616  25.202  13.911
77449NA+    NA+36545  37.862  30.084   3.149
77450NA+    NA+36546  29.652  29.111   1.447
77451NA+    NA+36547  15.600  13.781  13.481
77452NA+    NA+36548  28.128  19.568  10.468
77453NA+    NA+36549  43.936  15.307   3.790
77454NA+    NA+36550  29.968  24.157   3.377
77455NA+    NA+36551  32.549  42.840   1.230
77456NA+    NA+36552  36.391  36.388  13.490
77457NA+    NA+36553  35.906  23.158  11.019
77458NA+    NA+36554  34.389  11.793  13.531
77459NA+    NA+36555  38.959  15.790  14.375
77460NA+    NA+36556  26.162  29.441   3.833
77461NA+    NA+36557  10.373  19.772  14.388
77462NA+    NA+36558  35.018  30.915   3.665
77463NA+    NA+36559  11.731  13.229   4.329
77464NA+    NA+36560   5.824  10.677  11.479
77465NA+    NA+36561  15.614   4.382  12.828
77466NA+    NA+36562  19.544  21.225  12.471
77467NA+    NA+36563  17.110  41.486   2.211
77468NA+    NA+36564   6.734  26.202   4.695
77469NA+    NA+36565   1.920  24.581   4.284
77470NA+    NA+36566   5.803   9.817  12.916
77471NA+    NA+36567  34.940  38.000  14.454
77472NA+    NA+36568   2.363   8.374  10.971
77473NA+    NA+36569  30.109  24.013   3.806
77474NA+    NA+36570  30.554   2.430   0.785
77475NA+    NA+36571   0.760   0.750  11.546
77476NA+    NA+36572   5.393   7.725  12.458
77477NA+    NA+36573  42.464  17.794   0.400
77478NA+    NA+36574   6.210  24.578   3.310
77479NA+    NA+36575  35.489  11.328   3.298
77480NA+    NA+36576  42.377  22.042  10.454
77481NA+    NA+36577   0.441   7.293   4.719
77482NA+    NA+36578  20.142  27.560   2.740
77483NA+    NA+36579  33.496  32.492  12.847
77484NA+    NA+36580  20.644  43.396   3.780
77485NA+    NA+36581  24.173   3.253   3.288
77486NA+    NA+36582  15.100  31.505   3.269
77487NA+    NA+36583  32.050  21.141  10.607
77488NA+    NA+36584  16.238  18.563   1.285
77489NA+    NA+36585  19.218  32.516  13.506
77490NA+    NA+36586  25.188  13.328   2.195
77491NA+    NA+36587  32.026  30.501   4.636
77492NA+    NA+36588  31.450  33.531  11.041
77493NA+    NA+36589  15.713  18.269  12.856
77494NA+    NA+36590  17.247  11.839  13.900
77495NA+    NA+36591  12.736  22.544  12.068
77496NA+    NA+36592  32.046   9.661   4.780
77497NA+    NA+36593  33.023  28.549  10.517
77498NA+    NA+36594  29.047  34.409   2.211
77499NA+    NA+36595  39.895  43.403   2.836
77500NA+    NA+36596  20.628  29.037  12.900
77501NA+    NA+36597  37.516   3.731  14.760
77502NA+    NA+36598   1.302  25.476  13.844
77503NA+    NA+36599  43.413  27.969   4.653
77504NA+    NA+36600  30.417  24.605   1.879
77505NA+    NA+36601  10.280  31.903   0.368
77506NA+    NA+36602  43.316  25.027   4.318
77507NA+    NA+36603  25.584  13.643  11.417
77508NA+    NA+36604  14.603  42.436   0.827
77509NA+    NA+36605  18.758  21.536  11.573
77510NA+    NA+36606   2.390   6.844   2.765
77511NA+    NA+36607  13.327  36.440  12.045
77512NA+    NA+36608  19.155  36.900   3.241
77513NA+    NA+36609   7.869  29.165   0.393
77514NA+    NA+36610  32.066  27.621   4.294
77515NA+    NA+36611  22.063  20.038   2.415
77516NA+    NA+36612  16.709  29.142  14.375
77517NA+    NA+36613  44.473   9.836  11.539
77518NA+    NA+36614  24.689  30.607  14.368
77519NA+    NA+36615  39.865  18.766  14.352
77520NA+    NA+36616  25.167  22.145   4.276
77521NA+    NA+36617  28.186   0.372  13.968
77522NA+    NA+36618   5.915  32.948   1.360
77523NA+    NA+36619  20.241   8.679  12.560
77524NA+    NA+36620  41.518   7.328  12.580
77525NA+    NA+36621  29.629  33.575   4.826
77526NA+    NA+36622   0.262  31.116  10.965
77527NA+    NA+36623   2.958   7.881  11.406
77528NA+    NA+36624  41.796  37.926   2.690
77529NA+    NA+36625   9.319  13.273  12.029
77530NA+    NA+36626  27.129  41.538  13.859
77531NA+    NA+36627  44.833  14.791  13.027
77532NA+    NA+36628  31.107  32.965   2.768
77533NA+    NA+36629  40.495   3.716   1.397
77534NA+    NA+36630   2.286  39.027   4.273
77535NA+    NA+36631  15.649  10.744   3.325
77536NA+    NA+36632  17.571  38.905   1.362
77537NA+    NA+36633  16.675  33.094   4.644
77538NA+    NA+36634  32.537  30.474  11.935
77539NA+    NA+36635   9.280  15.679  12.580
77540NA+    NA+36636  19.166   6.303   2.417
77541NA+    NA+36637   2.766   3.950  13.352
77542NA+    NA+36638   9.800  26.008  11.951
77543NA+    NA+36639   7.235  35.944  12.934
77544NA+    NA+36640  43.986   1.747  14.369
77545NA+    NA+36641  44.427  40.355   3.233
77546NA+    NA+36642  34.580  34.490   4.741
77547NA+    NA+36643  25.091  26.160   3.768
77548NA+    NA+36644  35.592   6.347   4.224
77549NA+    NA+36645  31.485  35.570  14.807
77550NA+    NA+36646  42.966  44.429   5.272
77551NA+    NA+36647  18.686  28.178   2.785
77552NA+    NA+36648  29.431  10.790   0.449
77553NA+    NA+36649  10.379  44.779  12.399
77554NA+    NA+36650   9.249  28.024   5.216
77555NA+    NA+36651   0.850  38.328   4.152
77556NA+    NA+36652   9.225  22.560   2.382
77557NA+    NA+36653  38.531  39.345  12.050
77558NA+    NA+36654  14.118  33.451   3.327
77559NA+    NA+36655  19.267  16.657  11.462
77560NA+    NA+36656   4.374  28.630  14.921
77561NA+    NA+36657  14.826   0.839  14.766
77562NA+    NA+36658  27.604   4.415   0.757
77563NA+    NA+36659   4.336  17.108   1.253
77564NA+    NA+36660  41.888  40.533   0.455
77565NA+    NA+36661   1.752   5.688  12.946
77566NA+    NA+36662   7.761  37.955   1.264
77567NA+    NA+36663   3.359  21.110  11.881
77568NA+    NA+36664  40.307  11.655  12.032
77569NA+    NA+36665   8.659  30.030  14.347
77570NA+    NA+36666  24.130  13.828   0.954
77571NA+    NA+36667   9.672  11.835  11.542
77572NA+    NA+36668  37.437  33.103   3.291
77573NA+    NA+36669  20.592  22.515  13.486
77574NA+    NA+36670  32.443   5.871  14.444
77575NA+    NA+36671  38.469  17.593   2.753
77576NA+    NA+36672   3.935  27.969   3.676
77577NA+    NA+36673  40.406  41.818  14.362
77578NA+    NA+36674  18.772   0.432  12.887
77579NA+    NA+36675  37.496  15.733  13.320
77580NA+    NA+36676  37.833  36.397  14.799
77581NA+    NA+36677   0.342  33.032  11.117
77582NA+    NA+36678   7.886  27.021   0.789
77583NA+    NA+36679   8.719  12.361   4.819
77584NA+    NA+36680   3.792  29.994   2.749
77585NA+    NA+36681  16.783   1.746  10.409
77586NA+    NA+36682   8.394  43.856  14.326
77587NA+    NA+36683  37.888   1.313  12.460
77588NA+    NA+36684  17.185  19.656   0.952
77589NA+    NA+36685   9.296  34.926  14.789
77590NA+    NA+36686  39.995   7.206  14.977
77591NA+    NA+36687  29.071  10.337  14.312
77592NA+    NA+36688  43.910   5.331   0.854
77593NA+    NA+36689  12.337  42.297   0.370
77594NA+    NA+36690   7.402  33.025  14.884
77595NA+    NA+36691  11.131  19.108   1.400
77596NA+    NA+36692  17.177  24.185  13.490
77597NA+    NA+36693  17.154  32.973   3.329
77598NA+    NA+36694  34.560  37.964  14.291
77599NA+    NA+36695  38.971  39.913  12.545
77600NA+    NA+36696  35.411  41.894   2.191
77601NA+    NA+36697  18.193  17.064   1.929
77602NA+    NA+36698  18.762  26.167   2.260
77603NA+    NA+36699  34.091   3.337   2.400
77604NA+    NA+36700  15.768  34.569  12.903
77605NA+    NA+36701  19.535  12.181   0.950
77606NA+    NA+36702  43.832   4.330  14.353
77607NA+    NA+36703  37.422  13.731   4.348
77608NA+    NA+36704  12.744  42.286  10.441
77609NA+    NA+36705  44.397  22.052  12.526
77610NA+    NA+36706  41.025  12.807   3.368
77611NA+    NA+36707   5.415  40.340  10.932
77612NA+    NA+36708  31.024  29.493   1.836
77613NA+    NA+36709  20.609  24.224  14.862
77614NA+    NA+36710   0.390  14.193  10.574
77615NA+    NA+36711   5.916  13.780  14.863
77616NA+    NA+36712  37.037  15.241  10.570
77617NA+    NA+36713  16.135  44.832   3.311
77618NA+    NA+36714  17.673  28.469   0.308
77619NA+    NA+36715  24.592  16.720   2.191
77620NA+    NA+36716  32.582  34.066   0.314
77621NA+    NA+36717  43.018  37.942   0.763
77622NA+    NA+36718  35.530   9.174  12.976
77623NA+    NA+36719  31.145   3.846   2.198
77624NA+    NA+36720   4.827   1.467   3.798
77625NA+    NA+36721  12.629  17.147  14.403
77626NA+    NA+36722   8.800  15.218  10.956
77627NA+    NA+36723   8.166   1.898  12.475
77628NA+    NA+36724  35.586   0.320   4.123
77629NA+    NA+36725  19.686  30.090   3.214
77630NA+    NA+36726  22.218  36.919   1.283
77631NA+    NA+36727  20.713  10.224  14.316
77632NA+    NA+36728  18.599  42.975  14.347
77633NA+    NA+36729  36.995   2.764  14.377
77634NA+    NA+36730  42.906   5.410   2.273
77635NA+    NA+36731  15.216  28.674  10.627
77636NA+    NA+36732   4.220  21.755  14.986
77637NA+    NA+36733  32.426   2.298  11.461
77638NA+    NA+36734  36.574  37.524  13.870
77639NA+    NA+36735  10.381  16.317  11.937
77640NA+    NA+36736   3.299  20.564   2.197
77641NA+    NA+36737  17.173  34.898  12.895
77642NA+    NA+36738  34.112  37.841  13.313
77643NA+    NA+36739  24.703  35.037   2.321
77644NA+    NA+36740   2.807  34.986  11.431
77645NA+    NA+36741  14.102  22.658   0.836
77646NA+    NA+36742   0.753  42.820  11.400
77647NA+    NA+36743  38.037  44.325  10.935
77648NA+    NA+36744  27.072  40.320  13.943
77649NA+    NA+36745  34.030   7.414  11.382
77650NA+    NA+36746   6.328   8.782  11.991
77651NA+    NA+36747  27.989  30.620   9.940
77652NA+    NA+36748  39.866  28.589  11.875
77653NA+    NA+36749  12.209   4.745  10.965
77654NA+    NA+36750  41.536  19.045   3.717
77655NA+    NA+36751  13.633  25.041  13.863
77656NA+    NA+36752  20.274   5.845   4.283
77657NA+    NA+36753  32.132  35.468   2.377
77658NA+    NA+36754  14.755   8.191   0.757
77659NA+    NA+36755   6.212  10.642   4.294
77660NA+    NA+36756  12.340   5.737  11.052
77661NA+    NA+36757   4.894   0.449  11.091
77662NA+    NA+36758  20.225  42.491   0.479
77663NA+    NA+36759  37.478  38.974  13.317
77664NA+    NA+36760  23.035  38.447  12.345
77665NA+    NA+36761  44.361  34.538  11.514
77666NA+    NA+36762  41.457  13.276  14.479
77667NA+    NA+36763   8.337   4.339   3.288
77668NA+    NA+36764   0.835   4.442   4.734
77669NA+    NA+36765  29.123  16.212  13.837
77670NA+    NA+36766   8.227  13.207  13.979
77671NA+    NA+36767  34.496  35.480  10.440
77672NA+    NA+36768  14.144  28.047   1.314
77673NA+    NA+36769  30.035  35.363  12.467
77674NA+    NA+36770  41.992  28.576   2.189
77675NA+    NA+36771  20.036  14.115   0.308
77676NA+    NA+36772  30.104   0.449   1.917
77677NA+    NA+36773  34.475  31.053   3.717
77678NA+    NA+36774  25.150   0.269  10.560
77679NA+    NA+36775  34.393   2.228   0.323
77680NA+    NA+36776  44.855  17.123  11.406
77681NA+    NA+36777   7.381  36.964   1.437
77682NA+    NA+36778   9.839  18.563  12.044
77683NA+    NA+36779  16.119  10.184   4.154
77684NA+    NA+36780  44.772  11.238  11.003
77685NA+    NA+36781   9.858  43.420  10.902
77686NA+    NA+36782  32.520  27.527   1.224
77687NA+    NA+36783   7.702  16.138  13.042
77688NA+    NA+36784  31.938  19.616  12.482
77689NA+    NA+36785   3.845  43.003  14.446
77690NA+    NA+36786   8.260  31.057  10.605
77691NA+    NA+36787  10.227   8.875  14.469
77692NA+    NA+36788  27.008   2.834   4.355
77693NA+    NA+36789  32.405  13.135  10.510
77694NA+    NA+36790  15.128  32.607   0.385
77695NA+    NA+36791  18.224  10.748  14.328
77696NA+    NA+36792  24.679   9.715  10.507
77697NA+    NA+36793   1.910  24.643  12.917
77698NA+    NA+36794  19.049  42.357  11.378
77699NA+    NA+36795  23.637  44.448   4.640
77700NA+    NA+36796  25.633   7.845   3.319
77701NA+    NA+36797   8.271  23.732  10.986
77702NA+    NA+36798  40.346   7.729  11.470
77703NA+    NA+36799  26.983  23.199   0.395
77704NA+    NA+36800  36.988  41.424   1.273
77705NA+    NA+36801  43.373  22.250   4.326
77706NA+    NA+36802   7.338  30.973  11.109
77707NA+    NA+36803  19.135  25.082   3.659
77708NA+    NA+36804  44.390  40.836  14.319
77709NA+    NA+36805  25.637  20.694  14.811
77710NA+    NA+36806  41.928  14.336  11.989
77711NA+    NA+36807  28.557  34.969   2.790
77712NA+    NA+36808  21.742   0.291  11.894
77713NA+    NA+36809  23.080  44.894   2.770
77714NA+    NA+36810   6.310  28.048  12.510
77715NA+    NA+36811  23.170  20.103   3.634
77716NA+    NA+36812   2.724  13.288  12.961
77717NA+    NA+36813  33.049  37.007  13.799
77718NA+    NA+36814   5.808  29.605  12.048
77719NA+    NA+36815  22.555  38.958  12.544
77720NA+    NA+36816  23.701  20.753  12.961
77721NA+    NA+36817  16.710  32.892  13.532
77722NA+    NA+36818  23.037  10.726   4.300
77723NA+    NA+36819   2.892  39.485   0.327
77724NA+    NA+36820  44.911   9.392  10.494
77725NA+    NA+36821  33.487   0.259   2.315
77726NA+    NA+36822  18.060  13.766   1.263
77727NA+    NA+36823  17.254  27.608   2.821
77728NA+    NA+36824   1.838  36.492   4.343
77729NA+    NA+36825  21.576   8.225  13.524
77730NA+    NA+36826   0.343   6.880   1.902
77731NA+    NA+36827  40.973   9.661   2.816
77732NA+    NA+36828  34.930  22.556   3.827
77733NA+    NA+36829   9.360  18.784  12.562
77734NA+    NA+36830  41.814  26.987   2.684
77735NA+    NA+36831  36.915   3.458   4.750
77736NA+    NA+36832  40.843  41.379  12.513
77737NA+    NA+36833  41.889  23.646  13.412
77738NA+    NA+36834   7.900  21.238  11.086
77739NA+    NA+36835   4.232  35.418   0.913
77740NA+    NA+36836  41.498  29.152   4.732
77741NA+    NA+36837  11.164  28.062  11.928
77742NA+    NA+36838  40.406  19.236  10.438
77743NA+    NA+36839  43.949  44.401  13.348
77744NA+    NA+36840   6.703   9.777  13.348
77745NA+    NA+36841   7.692  39.827  13.318
77746NA+    NA+36842  42.508  18.641   1.884
77747NA+    NA+36843  33.918   3.774   0.862
77748NA+    NA+36844  27.479   0.799  10.516
77749NA+    NA+36845  21.523  25.168  14.934
77750NA+    NA+36846  15.089   3.391   3.169
77751NA+    NA+36847  41.308  10.758  11.103
77752NA+    NA+36848  18.714   6.338   3.330
77753NA+    NA+36849  22.025  37.510  10.556
77754NA+    NA+36850  19.585   3.840  11.950
77755NA+    NA+36851   0.770  41.904   1.293
77756NA+    NA+36852  20.242  40.967  12.968
77757NA+    NA+36853  40.333   3.430   1.381
77758NA+    NA+36854  21.754  40.034   1.294
77759NA+    NA+36855  44.837   9.216  12.480
77760NA+    NA+36856  20.704  30.493   4.743
77761NA+    NA+36857  10.721  19.639  10.959
77762NA+    NA+36858  31.089   3.246  14.330
77763NA+    NA+36859  35.020  26.671   4.349
77764NA+    NA+36860  34.523  36.555   2.799
77765NA+    NA+36861  43.883  15.770   4.195
77766NA+    NA+36862  24.208  29.923  11.968
77767NA+    NA+36863  26.966  31.470   3.835
77768NA+    NA+36864  27.020  11.657  11.440
77769NA+    NA+36865  13.135  25.691   1.765
77770NA+    NA+36866  23.497  23.107  11.484
77771NA+    NA+36867  24.210  26.067   2.808
77772NA+    NA+36868  38.027  14.618   1.859
77773NA+    NA+36869   7.229  17.153   3.868
77774NA+    NA+36870   6.323  31.461   0.747
77775NA+    NA+36871  28.936   8.831   4.227
77776NA+    NA+36872  10.809  13.628  12.358
77777NA+    NA+36873  41.294  39.854  10.957
77778NA+    NA+36874  13.207   2.300   1.919
77779NA+    NA+36875  16.640  29.146   2.678
77780NA+    NA+36876  21.546  25.019   1.881
77781NA+    NA+36877  33.109  44.921   4.263
77782NA+    NA+36878   7.239  43.878   3.743
77783NA+    NA+36879  19.766  37.395  13.943
77784NA+    NA+36880  29.609  32.538   2.856
77785NA+    NA+36881  44.985   0.315   4.192
77786NA+    NA+36882  19.534  35.567   1.437
77787NA+    NA+36883  16.090  22.665  11.866
77788NA+    NA+36884  40.042  20.193   2.336
77789NA+    NA+36885  15.115  25.692   0.483
77790NA+    NA+36886  28.117  38.059  12.924
77791NA+    NA+36887  10.785  25.709  11.957
77792NA+    NA+36888  18.586  38.413  12.570
77793NA+    NA+36889   4.316   8.699   0.731
77794NA+    NA+36890  35.053  40.916   0.396
77795NA+    NA+36891  18.619  39.378  13.961
77796NA+    NA+36892  20.209   0.979  10.928
77797NA+    NA+36893  37.450   5.415  14.374
77798NA+    NA+36894  43.994  17.304   1.246
77799NA+    NA+36895  28.081   9.221   1.819
77800NA+    NA+36896  31.143  16.811  10.434
77801NA+    NA+36897  34.101  29.490  10.467
77802NA+    NA+36898   0.320  28.451   1.900
77803NA+    NA+36899  33.584  32.403  10.415
77804NA+    NA+36900  13.806  16.598  13.874
77805NA+    NA+36901  18.687  31.058  14.027
77806NA+    NA+36902  40.320  10.832   5.599
77807NA+    NA+36903  10.788  20.625  13.884
77808NA+    NA+36904  38.958   3.921   3.341
77809NA+    NA+36905   7.318  39.404   4.144
77810NA+    NA+36906  38.890   2.831   0.309
77811NA+    NA+36907  12.196  21.743   0.454
77812NA+    NA+36908  34.430  21.031   3.293
77813NA+    NA+36909  36.361   1.733   0.251
77814NA+    NA+36910  42.014  26.999  14.989
77815NA+    NA+36911  19.683   3.417   5.303
77816NA+    NA+36912  22.669  31.068  14.837
77817NA+    NA+36913   4.278  25.110  12.503
77818NA+    NA+36914  23.556  36.066   0.346
77819NA+    NA+36915  43.996  13.185   3.855
77820NA+    NA+36916  38.399  33.405  13.365
77821NA+    NA+36917   7.701  13.194   4.222
77822NA+    NA+36918  38.924  38.389  12.874
77823NA+    NA+36919  27.102  28.592   4.753
77824NA+    NA+36920  10.713  36.944   1.919
77825NA+    NA+36921  32.476  31.920  11.402
77826NA+    NA+36922   9.281   3.781   2.853
77827NA+    NA+36923  16.110  27.016  14.452
77828NA+    NA+36924  17.294  15.689  14.495
77829NA+    NA+36925  29.025  27.999  10.580
77830NA+    NA+36926  29.557  10.769  13.434
77831NA+    NA+36927   3.785  21.629   3.850
77832NA+    NA+36928  15.281  39.059  12.515
77833NA+    NA+36929   3.813  37.546   1.235
77834NA+    NA+36930  36.555  43.878  14.888
77835NA+    NA+36931  22.537  33.495  13.944
77836NA+    NA+36932  31.937  35.536  10.920
77837NA+    NA+36933  19.259   1.915  11.582
77838NA+    NA+36934   1.835  15.249   2.308
77839NA+    NA+36935  25.989  31.589   0.274
77840NA+    NA+36936  21.225  36.430  13.367
77841NA+    NA+36937  19.040  40.839  10.491
77842NA+    NA+36938  36.430  22.022   4.612
77843NA+    NA+36939  20.046  10.682  12.383
77844NA+    NA+36940  42.000  33.468   4.755
77845NA+    NA+36941  27.083  18.784   1.885
77846NA+    NA+36942  11.667  38.035   1.887
77847NA+    NA+36943  30.575  14.646  12.356
77848NA+    NA+36944   5.769  44.381   4.342
77849NA+    NA+36945  37.480  22.186  10.448
77850NA+    NA+36946  31.447  23.093   2.744
77851NA+    NA+36947  12.681  37.840   3.714
77852NA+    NA+36948  19.609  38.014  10.631
77853NA+    NA+36949  36.078  42.519   1.239
77854NA+    NA+36950  30.414  18.628   4.266
77855NA+    NA+36951  38.845  33.061  14.992
77856NA+    NA+36952   3.766  33.013  13.377
77857NA+    NA+36953  28.447  10.841  12.471
77858NA+    NA+36954  32.055  27.176   3.701
77859NA+    NA+36955  15.172  40.478   3.287
77860NA+    NA+36956  38.974  30.146   0.450
77861NA+    NA+36957   5.210  22.053  11.920
77862NA+    NA+36958  20.143  12.855   4.839
77863NA+    NA+36959  41.441  12.330   3.223
77864NA+    NA+36960  10.190  27.499   4.764
77865NA+    NA+36961  41.915  22.580   3.816
77866NA+    NA+36962  13.675  32.971   1.868
77867NA+    NA+36963  29.064  26.510  14.298
77868NA+    NA+36964  25.655  32.978   0.774
77869NA+    NA+36965  38.970  33.464   1.255
77870NA+    NA+36966  41.391  18.722   1.313
77871NA+    NA+36967   2.825  32.635   4.772
77872NA+    NA+36968   7.735  10.681  10.896
77873NA+    NA+36969  22.233  22.672   4.679
77874NA+    NA+36970  27.985  20.685   3.353
77875NA+    NA+36971   4.356  39.316   4.326
77876NA+    NA+36972  31.927  13.745  13.812
77877NA+    NA+36973  17.301  30.490   5.113
77878NA+    NA+36974  13.301   8.724   2.859
77879NA+    NA+36975  30.115  42.327  14.328
77880NA+    NA+36976  28.492  41.324   3.315
77881NA+    NA+36977  27.076  18.131  13.444
77882NA+    NA+36978   8.718  19.643  14.506
77883NA+    NA+36979  44.488   1.410   3.232
77884NA+    NA+36980   7.856  36.533   4.642
77885NA+    NA+36981   9.862  36.041  13.419
77886NA+    NA+36982  41.373   3.435  14.865
77887NA+    NA+36983  21.214   3.936   1.417
77888NA+    NA+36984  40.001  33.498  13.396
77889NA+    NA+36985  35.443  15.609  12.988
77890NA+    NA+36986  30.626  26.592   0.261
77891NA+    NA+36987  43.487   9.701  13.820
77892NA+    NA+36988  29.497   5.894   1.257
77893NA+    NA+36989   8.353  28.957   1.767
77894NA+    NA+36990  28.959   5.905  12.353
77895NA+    NA+36991  28.449  28.021  12.032
77896NA+    NA+36992   7.772  27.657  14.961
77897NA+    NA+36993  33.408  24.626  10.159
77898NA+    NA+36994  24.110  36.422   3.219
77899NA+    NA+36995  37.919   6.898   4.332
77900NA+    NA+36996  36.021  27.562   2.345
77901NA+    NA+36997   8.792  41.325  10.440
77902NA+    NA+36998  23.581  35.524   5.235
77903NA+    NA+36999  16.134  25.191  13.047
77904NA+    NA+37000  36.557  12.191  12.923
77905NA+    NA+37001  42.779  44.757  14.439
77906NA+    NA+37002  23.562   4.785  14.932
77907NA+    NA+37003  10.700   0.756   3.168
77908NA+    NA+37004  41.504  34.372   4.655
77909NA+    NA+37005  28.162  28.981  14.987
77910NA+    NA+37006   7.290   1.735   0.760
77911NA+    NA+37007  34.976  33.106  11.110
77912NA+    NA+37008  21.678   1.974   5.243
77913NA+    NA+37009  14.128  22.151  12.923
77914NA+    NA+37010  23.524   7.754  11.101
77915NA+    NA+37011  31.506  14.805  10.909
77916NA+    NA+37012  13.189  40.007   0.819
77917NA+    NA+37013  30.095  11.343  12.460
77918NA+    NA+37014   5.196  22.058   9.480
77919NA+    NA+37015  28.583  15.610  11.966
77920NA+    NA+37016  24.579  29.957  12.849
77921NA+    NA+37017  35.966   9.218   2.675
77922NA+    NA+37018  21.624  11.208  10.122
77923NA+    NA+37019   7.690  39.383  13.329
77924NA+    NA+37020  40.350  15.167   4.767
77925NA+    NA+37021  27.457  36.393   3.251
77926NA+    NA+37022  41.502  14.793   3.653
77927NA+    NA+37023  31.981  25.069   9.616
77928NA+    NA+37024  30.033  22.102   3.845
77929NA+    NA+37025  10.146  19.144  13.386
77930NA+    NA+37026  12.783  26.504   4.716
77931NA+    NA+37027   6.714  13.710  14.507
77932NA+    NA+37028   7.836  33.977   1.834
77933NA+    NA+37029  19.673  36.517   3.754
77934NA+    NA+37030   8.307  38.427   1.375
77935NA+    NA+37031  14.312  29.065  14.855
77936NA+    NA+37032  42.904   2.790   3.761
77937NA+    NA+37033   6.357   8.366  11.583
77938NA+    NA+37034   0.924  35.879   0.343
77939NA+    NA+37035  31.426   6.412   2.234
77940NA+    NA+37036  24.128   4.377   1.441
77941NA+    NA+37037  13.314  12.312   3.865
77942NA+    NA+37038  31.074  10.635   2.234
77943NA+    NA+37039   8.265  10.323  13.900
77944NA+    NA+37040  18.695   3.412  13.909
77945NA+    NA+37041  24.038  29.094  11.087
77946NA+    NA+37042   7.725  15.750  13.853
77947NA+    NA+37043   3.783  16.694  14.498
77948NA+    NA+37044  24.632  29.986   2.396
77949NA+    NA+37045  14.252  26.623   0.928
77950NA+    NA+37046  12.308  15.168   2.363
77951NA+    NA+37047   3.219  42.807   4.120
77952NA+    NA+37048   2.325  36.056   4.349
77953NA+    NA+37049  28.619  20.089  11.944
77954NA+    NA+37050  10.812  22.649   4.343
77955NA+    NA+37051  13.257  42.451   0.898
77956NA+    NA+37052  28.521  15.088  12.960
77957NA+    NA+37053  25.029  15.728   4.180
77958NA+    NA+37054  23.021  40.369  14.480
77959NA+    NA+37055  40.368  29.045   0.402
77960NA+    NA+37056   8.683  17.643  12.830
77961NA+    NA+37057  24.517  15.701  12.367
77962NA+    NA+37058  21.020   6.298  11.460
77963NA+    NA+37059  17.199   4.419  11.904
77964NA+    NA+37060  44.764   7.812  14.001
77965NA+    NA+37061  37.404  24.216  13.495
77966NA+    NA+37062  30.130  17.784  10.890
77967NA+    NA+37063  26.689   9.655   0.419
77968NA+    NA+37064   5.393   4.300   3.731
77969NA+    NA+37065  30.984  26.079  10.631
77970NA+    NA+37066  37.440  22.203   1.389
77971NA+    NA+37067  17.590  33.911   3.702
77972NA+    NA+37068  33.023  38.397   3.331
77973NA+    NA+37069  12.216  40.313  12.450
77974NA+    NA+37070  35.446  35.067   0.310
77975NA+    NA+37071  36.516  24.226   1.294
77976NA+    NA+37072   1.779   4.716  13.324
77977NA+    NA+37073  39.854  12.148   0.763
77978NA+    NA+37074  21.537  44.391  13.469
77979NA+    NA+37075  15.181  28.127   1.355
77980NA+    NA+37076  14.717  23.100  14.467
77981NA+    NA+37077  23.582  38.523  10.502
77982NA+    NA+37078  37.927   4.845  12.068
77983NA+    NA+37079  41.811  27.121  13.371
77984NA+    NA+37080  17.603  44.797   3.181
77985NA+    NA+37081   1.770  22.081  13.959
77986NA+    NA+37082  32.550  10.665  11.558
77987NA+    NA+37083  19.131  24.650  13.859
77988NA+    NA+37084  17.669  14.112  12.356
77989NA+    NA+37085  11.779   6.687   4.737
77990NA+    NA+37086   6.798  23.521  13.533
77991NA+    NA+37087   1.413  23.553  13.009
77992NA+    NA+37088   6.818   1.294  14.905
77993CL-    CL-37089  25.711  18.174   9.541
77994CL-    CL-37090   6.858  12.773  12.848
77995CL-    CL-37091  41.472  23.504  11.458
77996CL-    CL-37092  37.528   4.926  12.553
77997CL-    CL-37093  21.090  22.230  12.983
77998CL-    CL-37094  43.841  33.458  10.426
77999CL-    CL-37095  30.078  36.988   3.647
78000CL-    CL-37096  17.704  39.946   4.774
78001CL-    CL-37097  12.242  41.437   0.959
78002CL-    CL-37098  26.517  22.543  13.900
78003CL-    CL-37099  14.769  34.402   0.783
78004CL-    CL-37100  16.618  43.881  14.376
78005CL-    CL-37101  30.037  22.076  14.366
78006CL-    CL-37102  37.460  19.569  12.047
78007CL-    CL-37103  36.384  14.770   1.345
78008CL-    CL-37104  42.874  37.462   3.866
78009CL-    CL-37105  28.931   5.235   3.641
78010CL-    CL-37106  31.561  42.786  14.810
78011CL-    CL-37107  26.551  20.222   0.844
78012CL-    CL-37108  20.158   7.295  11.864
78013CL-    CL-37109  14.250   8.838   0.968
78014CL-    CL-37110  10.878  23.731   1.238
78015CL-    CL-37111  41.451   1.958   1.795
78016CL-    CL-37112  21.756   6.733  12.578
78017CL-    CL-37113   7.845  11.249   0.274
78018CL-    CL-37114  43.828  31.019  13.526
78019CL-    CL-37115  44.803  36.071  13.386
78020CL-    CL-37116  12.173   4.709  13.802
78021CL-    CL-37117  29.112   0.750   1.702
78022CL-    CL-37118   6.755  14.328  14.423
78023CL-    CL-37119   4.813  28.034   2.786
78024CL-    CL-37120  18.590  40.920   4.144
78025CL-    CL-37121  29.566  20.036   4.826
78026CL-    CL-37122  28.455  38.017  12.571
78027CL-    CL-37123  28.039  36.077  12.059
78028CL-    CL-37124  32.604  36.460  11.092
78029CL-    CL-37125  12.645  36.034   0.840
78030CL-    CL-37126  27.130  20.730   3.764
78031CL-    CL-37127   4.274  36.538   3.695
78032CL-    CL-37128  22.501   1.238   1.433
78033CL-    CL-37129   2.377  18.277  14.432
78034CL-    CL-37130  38.548   5.889   4.339
78035CL-    CL-37131  14.731  22.540   0.420
78036CL-    CL-37132  20.584   9.669  14.481
78037CL-    CL-37133  20.043  36.084   3.385
78038CL-    CL-37134  35.092  28.068   5.215
78039CL-    CL-37135  33.000  25.025   5.299
78040CL-    CL-37136  13.142   6.733  11.485
78041CL-    CL-37137  28.583  20.674   3.798
78042CL-    CL-37138  41.383  11.827   1.354
78043CL-    CL-37139  13.304  31.572  10.587
78044CL-    CL-37140  44.303  44.411  14.892
78045CL-    CL-37141  27.110  24.572   4.266
78046CL-    CL-37142  14.219  40.512  11.566
78047CL-    CL-37143   6.725   1.392  11.473
78048CL-    CL-37144  24.029  18.101   3.194
78049CL-    CL-37145  27.490  15.162   4.175
78050CL-    CL-37146  12.331  11.803  13.387
78051CL-    CL-37147  28.056  15.690   4.182
78052CL-    CL-37148   5.689  15.100  14.879
78053CL-    CL-37149  16.231  30.977   0.285
78054CL-    CL-37150  37.433  39.860  10.994
78055CL-    CL-37151  26.153  20.243   3.163
78056CL-    CL-37152  22.716  14.291   3.806
78057CL-    CL-37153  12.664   9.887   1.321
78058CL-    CL-37154  36.934  43.318   0.345
78059CL-    CL-37155  31.146  12.748  12.037
78060CL-    CL-37156   5.876  41.971   4.816
78061CL-    CL-37157  33.118  16.793  12.909
78062CL-    CL-37158  20.030  42.890  12.005
78063CL-    CL-37159  22.106   5.336  12.349
78064CL-    CL-37160   7.287  34.574   3.147
78065CL-    CL-37161  30.103  14.240   4.777
78066CL-    CL-37162  35.056  43.778   4.348
78067CL-    CL-37163  27.637  44.345   0.905
78068CL-    CL-37164   6.850   3.402  11.995
78069CL-    CL-37165  35.019  25.134  13.335
78070CL-    CL-37166   7.299  27.015  13.976
78071CL-    CL-37167  39.371  19.260  14.280
78072CL-    CL-37168  25.651  13.246  11.436
78073CL-    CL-37169  24.989  36.052   0.772
78074CL-    CL-37170  36.062  25.083  11.517
78075CL-    CL-37171   2.839   4.820  12.572
78076CL-    CL-37172  33.122  24.108  12.027
78077CL-    CL-37173  17.566  34.987   3.184
78078CL-    CL-37174  17.800  15.589  12.969
78079CL-    CL-37175   6.815  15.250  10.474
78080CL-    CL-37176   4.262  15.251   1.738
78081CL-    CL-37177  23.506  13.290  13.522
78082CL-    CL-37178  34.534  30.948   0.941
78083CL-    CL-37179   5.724  14.230   3.239
78084CL-    CL-37180  22.678  21.753  11.446
78085CL-    CL-37181  34.452  31.529  12.547
78086CL-    CL-37182  25.618  34.113   2.344
78087CL-    CL-37183  44.354  34.472  12.511
78088CL-    CL-37184  40.491  16.188  12.496
78089CL-    CL-37185  36.063  25.200  14.499
78090CL-    CL-37186  18.077  24.217  13.479
78091CL-    CL-37187  14.624  36.572   4.306
78092CL-    CL-37188  16.137   2.400  14.394
78093CL-    CL-37189  22.161  18.762  14.901
78094CL-    CL-37190  18.059   2.246   0.387
78095CL-    CL-37191  39.935  29.965  14.377
78096CL-    CL-37192  43.015   5.260  13.794
78097CL-    CL-37193  17.257   5.770  12.074
78098CL-    CL-37194  19.610  10.647   0.388
78099CL-    CL-37195   8.816  10.218  12.860
78100CL-    CL-37196  42.339   1.761  11.985
78101CL-    CL-37197   4.258  22.251   0.326
78102CL-    CL-37198  42.005   7.726   3.868
78103CL-    CL-37199   9.706  35.082  13.994
78104CL-    CL-37200  18.119  37.468   3.747
78105CL-    CL-37201  33.430  35.903  10.911
78106CL-    CL-37202  26.165  20.754   2.370
78107CL-    CL-37203  28.935  24.112  14.029
78108CL-    CL-37204  21.542  21.542  13.937
78109CL-    CL-37205  21.550   4.347  13.542
78110CL-    CL-37206  19.075   2.901   3.835
78111CL-    CL-37207  34.867   4.397   1.912
78112CL-    CL-37208   2.923  26.541  14.028
78113CL-    CL-37209  33.420   5.253  14.307
78114CL-    CL-37210  28.966   8.294  10.934
78115CL-    CL-37211  36.421   7.244   0.445
78116CL-    CL-37212   1.911  15.200  11.555
78117CL-    CL-37213  31.524  22.729   0.955
78118CL-    CL-37214  18.068  20.702  12.965
78119CL-    CL-37215  14.236  37.952  10.541
78120CL-    CL-37216  36.527  35.989  11.506
78121CL-    CL-37217  39.063  33.106   1.883
78122CL-    CL-37218  36.052  31.476  12.855
78123CL-    CL-37219  31.129  42.950  10.999
78124CL-    CL-37220   3.404  16.318  10.418
78125CL-    CL-37221   2.327  31.946   1.768
78126CL-    CL-37222  26.475   6.361   5.132
78127CL-    CL-37223  41.804   6.307  14.383
78128CL-    CL-37224   1.843  14.713  12.470
78129CL-    CL-37225  20.551  27.027   1.756
78130CL-    CL-37226  38.507  13.180   3.717
78131CL-    CL-37227  29.467  16.788   3.373
78132CL-    CL-37228  44.937   5.351   3.257
78133CL-    CL-37229  39.313   4.836   2.685
78134CL-    CL-37230   5.404  18.687   3.282
78135CL-    CL-37231   4.826   8.237   2.415
78136CL-    CL-37232  33.009  11.372   3.838
78137CL-    CL-37233  29.534  21.076  11.926
78138CL-    CL-37234  31.621   4.896  10.524
78139CL-    CL-37235  35.558  42.460  12.420
78140CL-    CL-37236   5.358   5.300   1.298
78141CL-    CL-37237  37.425   4.411  11.006
78142CL-    CL-37238  36.943  15.698   2.810
78143CL-    CL-37239  34.397  29.649   3.654
78144CL-    CL-37240   9.153  32.033   4.121
78145CL-    CL-37241  28.008  16.617  10.117
78146CL-    CL-37242   3.360  30.603   2.707
78147CL-    CL-37243  41.967  30.421   0.814
78148CL-    CL-37244   4.941   4.944   9.977
78149CL-    CL-37245  13.683   8.184   2.754
78150CL-    CL-37246  36.484  27.946  10.018
78151CL-    CL-37247  35.385  20.572   4.327
78152CL-    CL-37248  18.789  32.466   0.302
78153CL-    CL-37249  10.187  32.619  14.007
78154CL-    CL-37250   7.701   7.366  14.483
78155CL-    CL-37251  14.151  23.151   1.295
78156CL-    CL-37252  17.638   0.396  12.827
78157CL-    CL-37253  44.923   4.281  10.508
78158CL-    CL-37254  44.439  11.688   1.778
78159CL-    CL-37255  40.455  11.301   5.129
78160CL-    CL-37256  35.377  26.992   3.642
78161CL-    CL-37257   7.222  43.936   2.414
78162CL-    CL-37258  17.060  27.128   0.873
78163CL-    CL-37259   0.481   0.963  14.403
78164CL-    CL-37260   8.844  39.821   2.219
78165CL-    CL-37261  26.009  26.511   3.288
78166CL-    CL-37262   5.760  31.437  14.886
78167CL-    CL-37263  27.685  28.547  14.902
78168CL-    CL-37264   7.716   3.443   2.837
78169CL-    CL-37265   7.824   5.868  12.410
78170CL-    CL-37266  13.166   7.300   4.321
78171CL-    CL-37267  13.226   9.777   4.607
78172CL-    CL-37268  18.098  44.279   4.689
78173CL-    CL-37269   1.450  43.828   2.803
78174CL-    CL-37270  42.921  39.944  14.477
78175CL-    CL-37271  24.055  17.252  13.801
78176CL-    CL-37272   4.840  33.424  11.030
78177CL-    CL-37273  44.972  38.532   4.271
78178CL-    CL-37274  16.286  23.218  12.461
78179CL-    CL-37275  13.154   2.904   3.322
78180CL-    CL-37276  10.281  29.505   4.742
78181CL-    CL-37277  23.659  23.035  12.937
78182CL-    CL-37278  32.052   8.395   2.229
78183CL-    CL-37279  34.569   4.798   1.712
78184CL-    CL-37280   9.804  36.963  14.336
78185CL-    CL-37281  15.731  15.242  14.803
78186CL-    CL-37282   2.751  13.694  12.028
78187CL-    CL-37283  37.424  14.824  10.914
78188CL-    CL-37284  13.829  13.163   2.334
78189CL-    CL-37285   1.908  10.289   3.333
78190CL-    CL-37286  18.758  10.191   3.630
78191CL-    CL-37287  18.597   8.714   0.435
78192CL-    CL-37288  43.409   6.910   1.860
78193CL-    CL-37289  18.765  35.863   0.274
78194CL-    CL-37290  16.644  35.382  14.286
78195CL-    CL-37291  37.573  43.773   4.211
78196CL-    CL-37292  14.318  24.500  11.954
78197CL-    CL-37293  30.923  41.852   0.749
78198CL-    CL-37294   1.825  34.461  11.873
78199CL-    CL-37295  24.546  44.853  10.996
78200CL-    CL-37296  33.948  22.643   0.944
78201CL-    CL-37297  27.548  40.001   4.179
78202CL-    CL-37298  39.971  43.914   3.815
78203CL-    CL-37299  14.834  40.394  11.112
78204CL-    CL-37300  42.802   1.929  14.018
78205CL-    CL-37301   1.829   0.474  13.825
78206CL-    CL-37302  26.958   6.389  11.420
78207CL-    CL-37303  11.221  43.017   4.612
78208CL-    CL-37304  24.535  32.447  13.997
78209CL-    CL-37305  34.912  37.573  10.131
78210CL-    CL-37306  22.148  40.512  12.402
78211CL-    CL-37307  27.161  10.244   3.700
78212CL-    CL-37308   8.232  35.554  11.008
78213CL-    CL-37309   7.267  26.547  14.828
78214CL-    CL-37310  19.066   7.720   3.809
78215CL-    CL-37311  17.249   4.249   4.164
78216CL-    CL-37312   6.832  17.799   1.318
78217CL-    CL-37313  11.331   0.753   4.196
78218CL-    CL-37314  35.072  25.535  11.954
78219CL-    CL-37315  26.518   9.189   2.350
78220CL-    CL-37316  20.613   1.417  11.439
78221CL-    CL-37317  16.729  25.706   1.436
78222CL-    CL-37318  42.984  35.000  12.392
78223CL-    CL-37319  15.146  34.076   3.366
78224CL-    CL-37320  24.011   6.386  11.879
78225CL-    CL-37321   5.703   6.747   0.742
78226CL-    CL-37322  21.166  16.097   2.735
78227CL-    CL-37323  19.739  41.347  14.407
78228CL-    CL-37324   9.151  40.882   3.637
78229CL-    CL-37325  12.655  42.841   0.427
78230CL-    CL-37326  10.314  10.876  10.968
78231CL-    CL-37327  34.577  20.180   0.383
78232CL-    CL-37328   9.662  31.042   4.339
78233CL-    CL-37329   6.375  11.773   0.801
78234CL-    CL-37330  29.924  11.214   0.412
78235CL-    CL-37331  14.245   3.270   1.402
78236CL-    CL-37332  16.266  43.516   2.807
78237CL-    CL-37333  31.902  15.085  10.889
78238CL-    CL-37334   2.948  25.137   0.905
78239CL-    CL-37335  11.690  11.859   2.689
78240CL-    CL-37336  37.941  44.823  14.922
78241CL-    CL-37337  33.515  44.316  13.999
78242CL-    CL-37338  27.515  29.588   4.270
78243CL-    CL-37339   4.207  23.104   2.320
78244CL-    CL-37340  14.703  37.402  10.987
78245CL-    CL-37341  43.365  23.124  11.035
78246CL-    CL-37342   3.290   2.242  14.987
78247CL-    CL-37343  22.666   4.856  10.896
78248CL-    CL-37344  15.624  35.904   1.257
78249CL-    CL-37345  12.336  24.186   1.360
78250CL-    CL-37346  31.936  18.074   1.930
78251CL-    CL-37347  19.089  34.570   0.382
78252CL-    CL-37348  33.577  33.502  12.488
78253CL-    CL-37349  15.280   1.819   3.159
78254CL-    CL-37350  35.939  44.481   1.246
78255CL-    CL-37351  40.927  25.527  11.953
78256CL-    CL-37352   2.437  15.822   2.703
78257CL-    CL-37353  30.448  29.168  13.474
78258CL-    CL-37354  16.808  41.036  12.853
78259CL-    CL-37355   1.372  20.030  13.870
78260CL-    CL-37356   9.317  31.556   0.352
78261CL-    CL-37357   0.331  18.236  13.018
78262CL-    CL-37358  42.434  28.992  13.954
78263CL-    CL-37359  31.143  12.287  11.968
78264CL-    CL-37360   5.384  38.928  12.425
78265CL-    CL-37361  19.584  43.955  13.834
78266CL-    CL-37362  27.180   9.325   4.169
78267CL-    CL-37363  12.675  31.557  13.886
78268CL-    CL-37364  39.474   2.339   2.762
78269CL-    CL-37365  43.386  16.742  14.938
78270CL-    CL-37366  30.496  19.202  11.006
78271CL-    CL-37367  42.434  37.338   0.439
78272CL-    CL-37368  43.958   7.337  12.055
78273CL-    CL-37369  13.827  35.369   1.702
78274CL-    CL-37370  28.955  10.257   4.797
78275CL-    CL-37371  42.466   2.965  12.894
78276CL-    CL-37372  13.341  36.507   4.259
78277CL-    CL-37373  25.525  38.941   0.766
78278CL-    CL-37374  39.366   2.932  13.973
78279CL-    CL-37375  22.620  34.413  14.292
78280CL-    CL-37376   1.425  36.933   3.745
78281CL-    CL-37377  37.409  18.721  10.091
78282CL-    CL-37378   7.728  31.980  13.957
78283CL-    CL-37379  11.846  22.578  10.509
78284CL-    CL-37380  22.625  22.618   4.610
78285CL-    CL-37381  32.118  23.640  12.472
78286CL-    CL-37382   6.358  19.046   4.818
78287CL-    CL-37383   0.487  39.845  13.828
78288CL-    CL-37384  39.857  14.266   4.615
78289CL-    CL-37385  38.327  33.890   1.450
78290CL-    CL-37386   2.401  43.294   3.712
78291CL-    CL-37387  27.183   8.873   2.849
78292CL-    CL-37388  25.570  19.165   3.702
78293CL-    CL-37389  37.011  44.872   4.220
78294CL-    CL-37390  17.655  11.688   3.769
78295CL-    CL-37391  21.237  10.673  14.946
78296CL-    CL-37392  41.449  36.377   0.332
78297CL-    CL-37393  30.443  35.591  10.985
78298CL-    CL-37394  22.665  31.002  12.952
78299CL-    CL-37395  27.068  17.720   1.842
78300CL-    CL-37396   7.363   6.831   2.730
78301CL-    CL-37397  20.610  39.485   4.306
78302CL-    CL-37398  19.230  41.787  11.521
78303CL-    CL-37399  12.620   7.697   0.428
78304CL-    CL-37400   4.826  29.483   0.864
78305CL-    CL-37401   9.677   5.279  13.535
78306CL-    CL-37402  37.573  10.784  12.015
78307CL-    CL-37403  27.688  39.019  10.473
78308CL-    CL-37404  15.789  41.496   4.313
78309CL-    CL-37405  12.326  36.081  14.903
78310CL-    CL-37406   9.692   4.251   0.749
78311CL-    CL-37407  26.167  23.710  12.828
78312CL-    CL-37408   7.700  41.473   2.317
78313CL-    CL-37409  35.049  36.509   2.311
78314CL-    CL-37410  34.102  27.518  12.509
78315CL-    CL-37411  37.003   7.171   9.980
78316CL-    CL-37412  20.221  16.654  11.495
78317CL-    CL-37413   5.724  17.241  12.980
78318CL-    CL-37414   0.366  11.134   3.793
78319CL-    CL-37415  41.393  28.044  13.797
78320CL-    CL-37416  41.042   1.424  10.435
78321CL-    CL-37417  14.176  25.688   1.305
78322CL-    CL-37418   1.888  11.748  13.517
78323CL-    CL-37419   6.241  13.192   0.273
78324CL-    CL-37420  15.086   4.837  14.345
78325CL-    CL-37421  31.614  42.515  14.342
78326CL-    CL-37422  21.173  37.576   0.775
78327CL-    CL-37423  22.552  18.081   1.402
78328CL-    CL-37424  36.056  28.107   3.771
78329CL-    CL-37425  11.131   3.716   0.326
78330CL-    CL-37426   5.830  32.057   2.863
78331CL-    CL-37427  15.142  18.770   2.760
78332CL-    CL-37428  29.116  29.597  14.279
78333CL-    CL-37429   5.786  35.391   4.325
78334CL-    CL-37430  14.693  14.317  10.969
78335CL-    CL-37431  29.134  36.036   5.254
78336CL-    CL-37432  44.786  39.006  11.570
78337CL-    CL-37433   9.227  27.516  14.483
78338CL-    CL-37434  14.262  21.574  13.962
78339CL-    CL-37435  43.917  21.117   1.758
78340CL-    CL-37436  22.719  29.093   1.911
78341CL-    CL-37437  43.290  43.875   3.652
78342CL-    CL-37438   9.223   5.227  12.394
78343CL-    CL-37439   4.779   0.974   1.839
78344CL-    CL-37440   3.755  24.490  12.369
78345CL-    CL-37441   3.416  19.164   2.855
78346CL-    CL-37442   4.263   6.907  11.603
78347CL-    CL-37443   5.378  22.648  14.950
78348CL-    CL-37444   4.725  34.005  13.873
78349CL-    CL-37445  43.311  20.595   0.879
78350CL-    CL-37446  22.502   0.958   1.793
78351CL-    CL-37447  25.637  17.585  12.418
78352CL-    CL-37448  14.653  23.602  12.842
78353CL-    CL-37449   0.338  14.233  11.053
78354CL-    CL-37450  25.606  43.836  12.974
78355CL-    CL-37451  40.955  13.261  11.927
78356CL-    CL-37452   7.317  27.007   3.736
78357CL-    CL-37453  28.028  17.304  14.023
78358CL-    CL-37454  30.516  25.008  10.414
78359CL-    CL-37455  33.497   2.259   0.347
78360CL-    CL-37456  25.161  23.535  13.504
78361CL-    CL-37457   7.707  43.462   1.252
78362CL-    CL-37458   0.417  11.198  12.951
78363CL-    CL-37459  11.778  20.694  14.893
78364CL-    CL-37460   9.153  14.693   4.652
78365CL-    CL-37461  14.717   6.871  11.027
78366CL-    CL-37462  18.228  25.151   3.640
78367CL-    CL-37463  42.497   1.469   0.938
78368CL-    CL-37464  42.301  39.501  10.984
78369CL-    CL-37465  37.481  14.120   4.748
78370CL-    CL-37466  36.465  34.978   2.760
78371CL-    CL-37467  32.434  12.306   3.759
78372CL-    CL-37468  26.584   0.743   4.295
78373CL-    CL-37469  25.149  39.052  11.442
78374CL-    CL-37470  44.799  30.477   3.263
78375CL-    CL-37471  34.472  36.935   3.384
78376CL-    CL-37472  35.929  36.550  12.381
78377CL-    CL-37473  10.726  37.052   2.831
78378CL-    CL-37474  30.046  43.328   1.900
78379CL-    CL-37475  22.236  28.030  14.963
78380CL-    CL-37476  12.771  36.859   0.853
78381CL-    CL-37477  28.084  27.571   3.235
78382CL-    CL-37478  19.763   9.381  14.415
78383CL-    CL-37479   0.432  18.238   3.213
78384CL-    CL-37480   1.967  40.428   2.685
78385CL-    CL-37481  42.022   0.954  13.325
78386CL-    CL-37482   3.782  20.548   0.408
78387CL-    CL-37483  16.749  15.616  11.896
78388CL-    CL-37484  30.001  40.527  10.958
78389CL-    CL-37485  10.213  43.928  13.349
78390CL-    CL-37486  27.470  44.808   1.288
78391CL-    CL-37487  12.222   8.171   3.723
78392CL-    CL-37488  21.236  34.057  12.077
78393CL-    CL-37489  17.589  26.703  11.107
78394CL-    CL-37490  12.760  22.680   3.235
78395CL-    CL-37491  20.557  43.314  14.381
78396CL-    CL-37492  16.248  31.098   5.283
78397CL-    CL-37493  42.885  30.455   4.212
78398CL-    CL-37494  40.537  19.725  13.891
78399CL-    CL-37495  25.016  28.983  11.448
78400CL-    CL-37496  13.793  44.786  13.824
78401CL-    CL-37497  24.008  28.931  12.883
78402CL-    CL-37498   8.859   8.381   2.681
78403CL-    CL-37499  39.056  12.716  12.873
78404CL-    CL-37500  33.390  20.193   4.340
78405CL-    CL-37501  13.666  39.918  12.490
78406CL-    CL-37502  31.051  12.731   1.792
78407CL-    CL-37503  19.060  38.491   4.761
78408CL-    CL-37504  40.009  34.615  10.980
78409CL-    CL-37505  25.508  38.991   3.675
78410CL-    CL-37506  33.934  36.032   4.639
78411CL-    CL-37507   4.232  33.960   3.384
78412CL-    CL-37508  33.620  28.989   1.422
78413CL-    CL-37509  36.078  16.630  13.908
78414CL-    CL-37510   3.350  27.563   4.658
78415CL-    CL-37511  37.016  26.601   0.744
78416CL-    CL-37512  40.468   5.717   1.713
78417CL-    CL-37513  21.606  32.939   1.811
78418CL-    CL-37514   0.820  19.559   0.913
78419CL-    CL-37515  11.634   4.297  13.434
78420CL-    CL-37516   8.696   4.756  10.567
78421CL-    CL-37517  44.328   1.761  14.876
78422CL-    CL-37518   0.252  12.779  11.052
78423CL-    CL-37519  41.000  21.110  14.395
78424CL-    CL-37520  27.197  41.021  10.958
78425CL-    CL-37521   9.383  15.208   2.370
78426CL-    CL-37522  35.029   6.804   0.890
78427CL-    CL-37523  25.133  39.330   3.177
78428CL-    CL-37524   9.704  24.487  10.136
78429CL-    CL-37525  12.244   9.175   0.770
78430CL-    CL-37526  10.281  38.045  12.884
78431CL-    CL-37527  35.972  14.261   1.336
78432CL-    CL-37528  17.695   8.177   0.953
78433CL-    CL-37529  31.930  27.452  13.471
78434CL-    CL-37530  18.074  37.835  13.390
78435CL-    CL-37531  41.858  13.232  11.416
78436CL-    CL-37532  32.426  23.085   4.235
78437CL-    CL-37533  17.144  33.956  14.844
78438CL-    CL-37534  10.869  35.397   3.772
78439CL-    CL-37535  30.653  31.896  13.427
78440CL-    CL-37536  41.928  42.993  14.915
78441CL-    CL-37537  44.352  30.004   3.247
78442CL-    CL-37538  43.284   9.183   1.419
78443CL-    CL-37539  35.372  21.125  13.841
78444CL-    CL-37540  32.562   9.160   1.331
78445CL-    CL-37541  40.907  31.067  11.109
78446CL-    CL-37542  35.858  40.401   1.784
78447CL-    CL-37543  42.973  25.704   4.179
78448CL-    CL-37544   0.256  14.786  12.900
78449CL-    CL-37545  15.172   2.342   4.170
78450CL-    CL-37546   0.269  33.092  13.040
78451CL-    CL-37547   0.347  30.987  14.892
78452CL-    CL-37548  38.471   6.756   2.799
78453CL-    CL-37549  20.660   0.916  12.466
78454CL-    CL-37550   5.277  38.377   1.839
78455CL-    CL-37551  39.962  25.540  12.477
78456CL-    CL-37552  28.676  27.092  14.868
78457CL-    CL-37553  34.981  44.804  10.548
78458CL-    CL-37554  10.159  33.610   1.282
78459CL-    CL-37555  40.047  25.521  12.034
78460CL-    CL-37556  39.901   4.850  10.963
78461CL-    CL-37557  26.551  26.100  13.886
78462CL-    CL-37558  18.632  39.485  11.496
78463CL-    CL-37559  42.944   3.800   1.828
78464CL-    CL-37560  40.831  37.060   1.401
78465CL-    CL-37561  12.312  43.845   2.697
78466CL-    CL-37562  18.261  35.449   2.194
78467CL-    CL-37563   5.712  23.222   4.657
78468CL-    CL-37564  42.503  31.065   2.275
78469CL-    CL-37565  22.109  38.465  12.892
78470CL-    CL-37566  19.617  20.621  10.116
78471CL-    CL-37567  23.200   7.698  12.997
78472CL-    CL-37568  27.542  26.574  11.877
78473CL-    CL-37569  20.041  16.750  12.452
78474CL-    CL-37570  34.381  33.488  11.080
78475CL-    CL-37571  15.622  29.582   1.311
78476CL-    CL-37572  33.618  32.570   1.211
78477CL-    CL-37573  31.919  21.551  10.058
78478CL-    CL-37574   1.870  44.853   3.377
78479CL-    CL-37575   1.312   1.345   4.289
78480CL-    CL-37576  22.176  27.950   2.235
78481CL-    CL-37577  33.926  20.110   2.721
78482CL-    CL-37578  19.741  33.504  12.391
78483CL-    CL-37579  32.447   3.404  11.916
78484CL-    CL-37580  32.482  41.996   4.163
78485CL-    CL-37581   6.766  10.313   1.761
78486CL-    CL-37582  33.492  32.142   4.701
78487CL-    CL-37583  24.043  38.521  14.450
78488CL-    CL-37584  24.189  35.581  10.540
78489CL-    CL-37585  22.527  14.761   2.712
78490CL-    CL-37586   0.248  44.342   3.732
78491CL-    CL-37587  43.874  29.993  13.322
78492CL-    CL-37588   6.302  39.559  10.461
78493CL-    CL-37589  13.254   3.911   4.628
78494CL-    CL-37590  36.529  18.075  13.886
78495CL-    CL-37591  14.744  17.637   3.759
78496CL-    CL-37592  33.096  14.647   2.698
78497CL-    CL-37593   0.253  43.766   4.694
78498CL-    CL-37594  42.381   3.835  14.015
78499CL-    CL-37595  24.496   4.815  14.351
78500CL-    CL-37596  38.993  11.745   2.755
78501CL-    CL-37597  20.738  33.885  11.511
78502CL-    CL-37598  32.615  36.059   2.775
78503CL-    CL-37599  17.636  17.759  10.537
78504CL-    CL-37600   3.837  36.388   2.775
78505CL-    CL-37601  38.880  28.131  10.563
78506CL-    CL-37602  18.071  44.875   2.753
78507CL-    CL-37603  43.981   1.827  11.963
78508CL-    CL-37604  30.586  33.474  11.969
78509CL-    CL-37605  36.423  13.694  13.844
78510CL-    CL-37606   2.751  21.031   5.319
78511CL-    CL-37607   6.374  26.052  14.820
78512CL-    CL-37608  33.459   2.395   4.735
78513CL-    CL-37609   4.348  10.830   4.156
78514CL-    CL-37610  20.749  11.154   0.799
78515CL-    CL-37611  41.343  28.983   1.296
78516CL-    CL-37612  43.368  19.625  11.076
78517CL-    CL-37613   1.453  41.815  13.394
78518CL-    CL-37614  39.011   2.250  10.919
78519CL-    CL-37615   4.227  29.636  14.973
78520CL-    CL-37616  19.233  15.697   0.945
78521CL-    CL-37617  18.234  12.233  11.114
78522CL-    CL-37618  13.812  31.901   1.403
78523CL-    CL-37619  38.542  34.087  13.043
78524CL-    CL-37620  17.064  18.263  13.811
78525CL-    CL-37621  41.836  12.135   4.348
78526CL-    CL-37622  32.923  11.774  11.462
78527CL-    CL-37623  37.989  11.328   2.304
78528CL-    CL-37624  19.263  18.292  11.994
78529CL-    CL-37625  27.110  34.062  12.893
78530CL-    CL-37626   1.812  39.413   0.381
78531CL-    CL-37627  30.990   9.749   2.325
78532CL-    CL-37628   5.801  24.709  10.920
78533CL-    CL-37629  29.093   4.886  14.796
78534CL-    CL-37630  30.907  24.672   0.377
78535CL-    CL-37631  10.348  19.114  14.461
78536CL-    CL-37632  32.444   5.392  14.949
78537CL-    CL-37633  39.059  26.687   1.445
78538CL-    CL-37634  42.862   2.801  11.095
78539CL-    CL-37635  19.119  44.850   3.719
78540CL-    CL-37636  42.966  32.920   4.783
78541CL-    CL-37637   3.387  29.937   4.615
78542CL-    CL-37638   9.321  43.420   2.853
78543CL-    CL-37639  26.188   6.295   4.778
78544CL-    CL-37640  18.135  15.234  13.371
78545CL-    CL-37641  39.338   5.764  11.596
78546CL-    CL-37642  15.266   0.453  11.072
78547CL-    CL-37643  34.613  10.693   4.669
78548CL-    CL-37644  26.543   0.887  14.883
78549CL-    CL-37645  11.799   2.307   2.401
78550CL-    CL-37646  34.613  21.524  12.468
78551CL-    CL-37647   0.892  37.884   1.748
78552CL-    CL-37648   0.423  29.159  13.544
78553CL-    CL-37649   5.719  38.037   1.392
78554CL-    CL-37650  10.145  26.671   5.253
78555CL-    CL-37651  16.127  35.878   5.160
78556CL-    CL-37652  27.575  17.662  12.398
78557CL-    CL-37653  10.299  19.767  13.928
78558CL-    CL-37654  39.500   9.655   5.786
78559CL-    CL-37655  23.645  29.031  10.491
78560CL-    CL-37656  17.142  17.306   3.831
78561CL-    CL-37657  16.296  32.571   4.691
78562CL-    CL-37658  44.436   3.239   1.240
78563CL-    CL-37659  12.138   5.832  14.916
78564CL-    CL-37660  24.591  34.396   1.853
78565CL-    CL-37661  14.138   4.440   4.176
78566CL-    CL-37662  26.536  27.035  12.453
78567CL-    CL-37663  19.571  42.827  11.606
78568CL-    CL-37664   8.670  13.839   0.729
78569CL-    CL-37665  39.048  14.683   0.471
78570CL-    CL-37666  27.454  22.163  10.969
78571CL-    CL-37667  14.620  44.821   0.331
78572CL-    CL-37668  40.022   6.834   0.869
78573CL-    CL-37669  19.747  12.611  13.322
78574CL-    CL-37670  41.044  37.004  12.989
78575CL-    CL-37671  34.039  16.260  10.127
78576CL-    CL-37672  37.524  39.368   1.821
78577CL-    CL-37673  17.647  14.205   3.862
78578CL-    CL-37674  21.670  32.079  14.824
78579CL-    CL-37675  33.883  18.789  14.887
78580CL-    CL-37676  10.342  34.063   1.836
78581CL-    CL-37677   9.326  20.273   4.646
78582CL-    CL-37678  24.179  33.537   3.240
78583CL-    CL-37679  18.071  44.298   1.380
78584CL-    CL-37680   8.705  38.385   1.906
78585CL-    CL-37681  12.211  20.146   2.774
78586CL-    CL-37682  19.704  17.702  11.608
78587CL-    CL-37683  36.029  16.214   1.917
78588CL-    CL-37684  17.792  43.505  12.921
78589CL-    CL-37685   5.857  42.913   2.735
78590CL-    CL-37686   3.335   5.252  11.957
78591CL-    CL-37687   4.831  33.482   1.229
78592CL-    CL-37688  11.316  19.271  10.598
78593CL-    CL-37689  36.541  30.639   1.894
78594CL-    CL-37690  33.484  32.979   3.188
78595CL-    CL-37691  12.192  40.862  13.982
78596CL-    CL-37692  28.104  44.957  10.147
78597CL-    CL-37693  17.789  21.031  13.906
78598CL-    CL-37694   6.403   5.431   2.721
78599CL-    CL-37695  39.558  17.697  10.492
78600CL-    CL-37696  33.049   3.353   2.243
78601CL-    CL-37697  35.579  34.478  11.025
78602CL-    CL-37698  41.466  40.343   1.884
78603CL-    CL-37699  35.439  21.261   2.714
78604CL-    CL-37700  35.879  30.592   3.870
78605CL-    CL-37701  35.938  22.204   0.806
78606CL-    CL-37702  22.639  22.092   4.179
78607CL-    CL-37703  42.288  20.681   3.645
78608CL-    CL-37704  43.367  20.030   1.811
78609CL-    CL-37705  24.666  11.733  13.480
78610CL-    CL-37706  30.097  16.122   9.965
78611CL-    CL-37707  25.156  30.916   3.786
78612CL-    CL-37708   2.817  40.021  12.053
78613CL-    CL-37709  34.401  20.198  13.503
78614CL-    CL-37710  43.006  32.626  12.038
78615CL-    CL-37711  44.477  20.144  12.022
78616CL-    CL-37712   6.320  40.971  11.057
78617CL-    CL-37713  14.779  30.473   4.725
78618CL-    CL-37714  38.972  28.497   3.236
78619CL-    CL-37715   0.348  22.119  11.053
78620CL-    CL-37716  20.683  10.312  11.479
78621CL-    CL-37717  17.089  25.563   4.226
78622CL-    CL-37718  17.107  29.129  10.045
78623CL-    CL-37719   3.225  15.632   1.348
78624CL-    CL-37720  35.373  37.345  12.348
78625CL-    CL-37721  23.210  20.142  13.506
78626CL-    CL-37722  27.502  31.488  11.393
78627CL-    CL-37723  23.573  30.592   5.158
78628CL-    CL-37724  44.476  29.984  11.892
78629CL-    CL-37725  40.408  25.680   2.896
78630CL-    CL-37726  11.302  34.932  12.540
78631CL-    CL-37727  18.164  44.275   0.403
78632CL-    CL-37728  11.372  40.971  12.511
78633CL-    CL-37729  32.977   6.737   3.668
78634CL-    CL-37730  28.443  28.183   2.236
78635CL-    CL-37731  16.693  26.606   0.838
78636CL-    CL-37732  35.876  10.226   3.328
78637CL-    CL-37733  10.878  34.988  11.539
78638CL-    CL-37734  44.793  39.869  12.515
78639CL-    CL-37735   6.715  37.358   4.283
78640CL-    CL-37736  13.296  12.791  11.376
78641CL-    CL-37737  44.968  17.197  12.437
78642CL-    CL-37738  42.848  13.603  14.287
78643CL-    CL-37739  30.942  27.535   2.419
78644CL-    CL-37740   3.736  11.754   1.408
78645CL-    CL-37741   6.841  38.030  11.466
78646CL-    CL-37742  40.868  43.838   0.466
78647CL-    CL-37743  32.937  32.082   0.279
78648CL-    CL-37744  22.637  33.550   2.834
78649CL-    CL-37745  35.491  23.189  11.601
78650CL-    CL-37746  42.977  12.726  12.533
78651CL-    CL-37747  42.793  10.642   1.722
78652CL-    CL-37748  19.752  43.905  12.087
78653CL-    CL-37749  33.885  32.502  11.383
78654CL-    CL-37750  41.839  41.004   4.304
78655CL-    CL-37751  32.073  43.893  12.057
78656CL-    CL-37752   7.238  13.775  12.879
78657CL-    CL-37753  40.522   4.209   4.136
78658CL-    CL-37754  21.158   4.702   5.092
78659CL-    CL-37755  38.367   5.383   1.315
78660CL-    CL-37756  28.565  10.651  14.505
78661CL-    CL-37757  28.070   5.710   0.454
78662CL-    CL-37758  16.259  18.561   2.790
78663CL-    CL-37759  25.468  26.207   1.879
78664CL-    CL-37760  35.461   5.831   4.300
78665CL-    CL-37761  20.265  10.720   1.349
78666CL-    CL-37762  27.583  18.764  14.031
78667CL-    CL-37763  22.671  11.267   4.219
78668CL-    CL-37764   3.231   0.760   5.133
78669CL-    CL-37765  41.035  10.371   4.691
78670CL-    CL-37766  29.055  44.481   4.686
78671CL-    CL-37767  11.344   8.226  10.520
78672CL-    CL-37768   9.243  13.819  13.423
78673CL-    CL-37769  16.311  42.811  13.468
78674CL-    CL-37770  23.717   1.352   1.346
78675CL-    CL-37771  16.243  42.439   0.401
78676CL-    CL-37772  37.527  33.014  14.805
78677CL-    CL-37773  35.572  30.569   1.434
78678CL-    CL-37774  39.327  16.642  14.783
78679CL-    CL-37775  27.068   7.759   3.684
78680CL-    CL-37776   8.732   2.796   2.336
78681CL-    CL-37777  26.017   2.387  12.491
78682CL-    CL-37778  41.789  13.725   0.263
78683CL-    CL-37779  37.468  44.259  11.931
78684CL-    CL-37780  13.723  37.005   4.827
78685CL-    CL-37781  23.536  31.962   4.244
78686CL-    CL-37782  38.387  31.479  12.468
78687CL-    CL-37783   5.381  12.697  12.365
78688CL-    CL-37784  28.016  24.628   3.230
78689CL-    CL-37785  13.736  17.138   4.836
78690CL-    CL-37786   5.806   0.966   4.617
78691CL-    CL-37787  25.098  35.920  11.396
78692CL-    CL-37788  31.554  26.977   1.261
78693CL-    CL-37789   0.957  12.781  11.377
78694CL-    CL-37790   0.747  39.315  12.933
78695CL-    CL-37791  37.077  14.219   0.273
78696CL-    CL-37792  34.103  37.056   3.213
78697CL-    CL-37793  24.198   8.283  14.447
78698CL-    CL-37794  22.110  11.156   2.822
78699CL-    CL-37795   3.737  37.358   3.360
78700CL-    CL-37796  36.378   5.918   3.788
78701CL-    CL-37797  36.007  26.661  11.556
78702CL-    CL-37798  41.391  42.993  10.994
78703CL-    CL-37799  41.890   4.873   1.737
78704CL-    CL-37800   6.694  25.484   3.304
78705CL-    CL-37801  44.409  25.979  10.507
78706CL-    CL-37802   3.316  39.870  12.534
78707CL-    CL-37803  28.546  26.461  12.987
78708CL-    CL-37804   5.859  12.777   4.714
78709CL-    CL-37805  35.937  22.212  11.380
78710CL-    CL-37806   6.421  39.485   3.846
78711CL-    CL-37807   6.358  14.658   4.631
78712CL-    CL-37808   6.387  29.070   2.296
78713CL-    CL-37809  40.897  11.842  14.482
78714CL-    CL-37810  20.693  37.884   2.419
78715CL-    CL-37811   2.404  42.514  10.983
78716CL-    CL-37812  26.982  18.107   2.316
78717CL-    CL-37813   3.845  35.855  12.040
78718CL-    CL-37814  35.407  35.861  14.844
78719CL-    CL-37815  41.534  13.789   2.374
78720CL-    CL-37816  19.278  28.485  11.856
78721CL-    CL-37817  10.151  26.115  11.439
78722CL-    CL-37818   5.718  34.964   3.684
78723CL-    CL-37819  36.929  28.672   4.662
78724CL-    CL-37820  40.383  30.909   0.919
78725CL-    CL-37821   6.428  27.513  12.464
78726CL-    CL-37822   5.254  23.155  10.096
78727CL-    CL-37823  20.538  32.924  14.384
78728CL-    CL-37824   5.262  14.223  14.423
78729CL-    CL-37825  32.926  21.084   2.351
78730CL-    CL-37826  22.593  19.124  10.420
78731CL-    CL-37827  17.185  34.937   3.376
78732CL-    CL-37828  29.061  23.096   0.908
78733CL-    CL-37829  15.206   1.391   0.372
78734CL-    CL-37830  28.648  19.726  13.459
78735CL-    CL-37831  43.809   7.722   3.826
78736CL-    CL-37832  14.818  37.067  12.893
78737CL-    CL-37833  19.177  22.568   4.815
78738CL-    CL-37834  18.282  27.100   1.237
78739CL-    CL-37835  19.662  37.408   0.463
78740CL-    CL-37836  28.466  24.665   4.729
78741CL-    CL-37837  35.485  16.663   3.251
78742CL-    CL-37838  24.986  23.709   1.827
78743CL-    CL-37839  23.606  32.119  11.556
78744CL-    CL-37840   3.856  30.655  11.002
78745CL-    CL-37841  42.899  39.551  12.508
78746CL-    CL-37842   7.304  14.334   2.232
78747CL-    CL-37843  17.782  29.633   1.708
78748CL-    CL-37844  37.568  20.718  11.558
78749CL-    CL-37845  11.299   1.828   1.885
78750CL-    CL-37846  37.046  37.066  11.908
78751CL-    CL-37847   1.465  23.522   1.293
78752CL-    CL-37848  15.664   7.693  10.500
78753CL-    CL-37849  43.830  37.862   2.372
78754CL-    CL-37850  30.567   1.787   2.285
78755CL-    CL-37851  44.303  31.114  14.893
78756CL-    CL-37852   8.774  37.936   2.894
78757CL-    CL-37853  11.781  12.815   3.833
78758CL-    CL-37854  41.442  22.533  13.793
78759CL-    CL-37855  19.656  42.475  14.498
78760CL-    CL-37856  14.775  29.509  14.012
78761CL-    CL-37857   0.443  14.627  11.513
78762CL-    CL-37858  37.932  19.748   3.223
78763CL-    CL-37859  26.025  40.376   1.421
78764CL-    CL-37860  14.787   0.344  11.406
78765CL-    CL-37861  32.478  26.505   0.258
78766CL-    CL-37862  11.738  38.546   1.451
78767CL-    CL-37863   6.340  28.521   1.741
78768CL-    CL-37864  18.192  40.419   3.301
78769CL-    CL-37865  29.574  10.155  14.472
78770CL-    CL-37866  17.163  13.608  13.307
78771CL-    CL-37867  34.082  17.726  12.410
78772CL-    CL-37868  15.205   6.911  11.527
78773CL-    CL-37869  40.472   7.283  13.476
78774CL-    CL-37870  11.657  10.204   3.282
78775CL-    CL-37871   2.251  42.822   0.833
78776CL-    CL-37872  19.091  21.096   1.835
78777CL-    CL-37873  34.442  42.319   0.892
78778CL-    CL-37874  37.972  30.598  10.642
78779CL-    CL-37875  43.770  32.445   0.323
78780CL-    CL-37876   8.251   4.435  13.320
78781CL-    CL-37877  28.578  31.458   2.801
78782CL-    CL-37878  43.787  37.031  13.333
78783CL-    CL-37879  35.014   2.898   3.705
78784CL-    CL-37880  42.954  26.090  13.815
78785CL-    CL-37881  26.133  36.548   1.901
78786CL-    CL-37882  27.613  18.650  13.479
78787CL-    CL-37883  24.097  40.321   3.729
78788CL-    CL-37884  18.286   9.353  14.435
78789CL-    CL-37885  42.899  28.002  12.035
78790CL-    CL-37886  26.563  29.993   4.710
78791CL-    CL-37887  31.546  22.035  11.438
78792CL-    CL-37888  26.569   5.800   2.189
78793CL-    CL-37889  16.095  12.231  13.494
78794CL-    CL-37890  37.915  31.147   2.409
78795CL-    CL-37891  14.133  14.786   1.266
78796CL-    CL-37892  22.699  16.180  13.894
78797CL-    CL-37893   4.409  42.905  14.904
78798CL-    CL-37894  22.028  24.503   4.155
78799CL-    CL-37895  35.965  40.923   0.866
78800CL-    CL-37896  31.559  36.844   1.434
78801CL-    CL-37897  26.048  17.181  12.436
78802CL-    CL-37898  35.986  17.631   2.397
78803CL-    CL-37899  19.692  11.775   0.908
78804CL-    CL-37900  16.636  19.196  13.987
78805CL-    CL-37901  38.961   6.361   0.882
78806CL-    CL-37902  32.607  34.380   3.360
78807CL-    CL-37903  41.312  19.673   0.330
78808CL-    CL-37904  25.690  17.192  13.467
78809CL-    CL-37905  21.103   5.217  13.802
78810CL-    CL-37906  41.479  21.239  12.830
78811CL-    CL-37907  34.061   0.768  13.844
78812CL-    CL-37908  17.744   7.752  14.474
78813CL-    CL-37909  11.833   7.824   2.191
78814CL-    CL-37910   8.708  27.180  10.974
78815CL-    CL-37911   7.387  20.271   2.829
78816CL-    CL-37912  10.791  23.681  13.349
78817CL-    CL-37913  37.449   9.197   2.251
78818CL-    CL-37914  24.215  31.044   2.666
78819CL-    CL-37915  44.768  27.607   0.367
78820CL-    CL-37916  41.483  10.772  12.920
78821CL-    CL-37917  44.277   0.948  11.609
78822CL-    CL-37918  40.877  43.768  10.562
78823CL-    CL-37919   6.268  41.926  11.577
78824CL-    CL-37920  18.709  14.201   4.638
78825CL-    CL-37921  38.356  43.822   4.190
78826CL-    CL-37922  25.631  27.060  11.119
78827CL-    CL-37923   5.917  10.743  12.078
78828CL-    CL-37924  16.655  16.724  11.489
78829CL-    CL-37925  32.422   3.948   0.793
78830CL-    CL-37926  28.548  34.468  10.085
78831CL-    CL-37927  19.777  34.478   4.320
78832CL-    CL-37928  26.160  39.952   2.704
78833CL-    CL-37929  41.534  15.760  14.355
78834CL-    CL-37930   2.721  10.805   2.824
78835CL-    CL-37931  12.299  43.459   1.717
78836CL-    CL-37932  13.843  26.667  12.509
78837CL-    CL-37933  22.059  16.698  10.976
78838CL-    CL-37934  41.352  32.943   3.842
78839CL-    CL-37935   2.884   7.312   0.388
78840CL-    CL-37936  16.222  28.632   2.759
78841CL-    CL-37937   3.843  39.034  11.495
78842CL-    CL-37938   5.394  24.481  13.043
78843CL-    CL-37939  14.238   3.323  13.445
78844CL-    CL-37940  34.039  32.086  14.303
78845CL-    CL-37941  32.902   7.413  11.865
78846CL-    CL-37942   6.813  11.201   3.823
78847CL-    CL-37943  44.999  39.825   3.661
78848CL-    CL-37944   8.867  17.602   9.445
78849CL-    CL-37945   1.802  26.610   2.391
78850CL-    CL-37946  41.305  14.787  10.924
78851CL-    CL-37947  14.244  17.768  14.375
78852CL-    CL-37948   7.744   7.333   4.666
78853CL-    CL-37949  10.364  35.597   1.724
78854CL-    CL-37950  11.673  14.754  10.405
78855CL-    CL-37951  12.819  30.160   2.327
78856CL-    CL-37952  31.436   6.711   4.637
78857CL-    CL-37953   0.795  12.257   2.232
78858CL-    CL-37954  12.196  31.935  11.581
78859CL-    CL-37955  44.361  19.605   4.118
78860CL-    CL-37956  17.642  18.546   1.705
78861CL-    CL-37957   3.887  33.521   0.335
78862CL-    CL-37958  17.296   7.808   1.912
78863CL-    CL-37959  31.608  16.701   1.429
78864CL-    CL-37960  41.041  16.211  10.463
78865CL-    CL-37961  14.772  27.000  13.530
78866CL-    CL-37962  28.144   4.290  14.371
78867CL-    CL-37963   0.970  24.189  11.387
78868CL-    CL-37964  17.130  27.497  12.016
78869CL-    CL-37965  23.717   8.669   3.689
78870CL-    CL-37966  11.334  10.301   3.786
78871CL-    CL-37967  40.832  37.537   2.841
78872CL-    CL-37968  29.988  16.082   4.779
78873CL-    CL-37969  20.164  32.023  14.454
78874CL-    CL-37970  28.457  18.283   4.311
78875CL-    CL-37971  26.669  11.653   4.687
78876CL-    CL-37972  18.699  40.833  10.029
78877CL-    CL-37973  22.041  15.703   2.779
78878CL-    CL-37974  44.880  23.042  12.047
78879CL-    CL-37975   8.778  26.495  11.970
78880CL-    CL-37976   1.300  15.265   0.394
78881CL-    CL-37977  11.742   0.277  11.484
78882CL-    CL-37978  16.653  34.874  10.508
78883CL-    CL-37979  12.847  28.972   1.719
78884CL-    CL-37980  10.170  43.385  12.549
78885CL-    CL-37981  42.909  23.713  14.483
78886CL-    CL-37982  29.569  17.285   1.215
78887CL-    CL-37983  43.825   0.789   1.431
78888CL-    CL-37984  35.500   8.706  11.506
78889CL-    CL-37985   3.823   4.703   2.768
78890CL-    CL-37986  31.519   3.909   0.267
78891CL-    CL-37987  43.008   8.853  13.815
78892CL-    CL-37988  20.239  19.667  10.529
78893CL-    CL-37989  24.563  41.872  12.451
78894CL-    CL-37990  43.848  18.091   0.772
78895CL-    CL-37991  10.302  36.923   3.866
78896CL-    CL-37992  30.962  33.602   0.279
78897CL-    CL-37993  27.563  42.428   1.241
78898CL-    CL-37994  24.014   3.229   4.193
78899CL-    CL-37995  41.466  12.266  12.842
78900CL-    CL-37996  11.847  41.409   4.207
78901CL-    CL-37997  41.361  24.481  14.300
78902CL-    CL-37998   5.294   0.298   0.787
78903CL-    CL-37999   1.315   1.365  13.920
78904CL-    CL-38000  34.966  20.145  14.024
78905CL-    CL-38001  27.028  22.176  11.960
78906CL-    CL-38002  25.178  27.670  10.541
78907CL-    CL-38003  23.601  31.581  11.520
78908CL-    CL-38004  32.427  22.730  13.882
78909CL-    CL-38005  34.077   8.857   4.273
78910CL-    CL-38006   3.375   0.775  12.410
78911CL-    CL-38007  28.168   8.841   3.306
78912CL-    CL-38008  18.726  21.096  14.392
78913CL-    CL-38009   1.424  26.483   4.180
78914CL-    CL-38010  42.023  30.060   1.824
78915CL-    CL-38011  21.022  24.999  13.048
78916CL-    CL-38012  31.982  12.729  11.474
78917CL-    CL-38013  43.832  26.035   3.361
78918CL-    CL-38014  12.313  39.315   0.813
78919CL-    CL-38015  40.446  28.665  14.459
78920CL-    CL-38016   7.299  39.555   2.860
78921CL-    CL-38017  21.715  11.241   1.307
78922CL-    CL-38018  12.173  37.373   2.214
78923CL-    CL-38019  10.691  25.053   1.933
78924CL-    CL-38020  42.866  20.164   1.884
78925CL-    CL-38021   0.383  24.988  13.480
78926CL-    CL-38022  21.627   5.867  10.623
78927CL-    CL-38023  17.271  13.752   0.431
78928CL-    CL-38024  38.826  43.356  11.605
78929CL-    CL-38025  34.967   5.418   4.192
78930CL-    CL-38026  44.941  10.831  13.342
78931CL-    CL-38027  34.052  27.602   0.450
78932CL-    CL-38028   3.851  18.153  12.560
78933CL-    CL-38029  11.279  19.573   4.145
78934CL-    CL-38030   5.380  30.502   3.356
78935CL-    CL-38031  20.525   1.351  13.532
78936CL-    CL-38032  28.949   4.366   0.263
78937CL-    CL-38033  38.911  33.482   5.196
78938CL-    CL-38034  33.546   7.290  14.391
78939CL-    CL-38035  26.149  30.606   2.881
78940CL-    CL-38036  20.759  14.593  10.610
78941CL-    CL-38037  34.978  34.475   3.220
78942CL-    CL-38038  41.868  19.151  14.844
78943CL-    CL-38039   1.482   4.240   1.804
78944CL-    CL-38040  13.230   5.236  10.565
78945CL-    CL-38041  20.729  24.046   4.113
78946CL-    CL-38042  10.235  13.284   1.929
78947CL-    CL-38043  34.417  41.434   3.772
78948CL-    CL-38044  24.064  11.824  14.382
78949CL-    CL-38045   2.803   3.938   2.213
78950CL-    CL-38046  22.651  16.745   4.327
78951CL-    CL-38047   0.934  36.578  12.517
78952CL-    CL-38048   4.448  37.445  14.987
78953CL-    CL-38049  22.727   1.763  10.115
78954CL-    CL-38050  41.426  31.000   4.328
78955CL-    CL-38051  27.187  37.450   3.867
78956CL-    CL-38052   5.222  19.584  13.973
78957CL-    CL-38053  38.427  11.792   4.701
78958CL-    CL-38054  21.069  18.661  11.905
78959CL-    CL-38055  28.604  27.098   1.719
78960CL-    CL-38056   7.288  42.295  13.058
78961CL-    CL-38057  12.183  32.439  10.480
78962CL-    CL-38058  24.517   0.874  13.957
78963CL-    CL-38059   7.809   1.434   4.353
78964CL-    CL-38060  27.058  43.942  12.000
78965CL-    CL-38061  26.558  17.135   4.644
78966CL-    CL-38062  10.637   2.753  13.338
78967CL-    CL-38063   2.295  36.441   0.733
78968CL-    CL-38064   9.249  25.542   4.691
78969CL-    CL-38065   5.311  15.104   0.775
78970CL-    CL-38066  21.698  13.601   1.780
78971CL-    CL-38067  14.794  29.005  14.350
78972CL-    CL-38068   1.278  27.952  11.472
78973CL-    CL-38069  28.003  30.050   4.688
78974CL-    CL-38070  26.063  21.262   3.351
78975CL-    CL-38071  23.115  30.075  14.872
78976CL-    CL-38072   3.324  38.051  10.555
78977CL-    CL-38073   5.893  16.749  10.579
78978CL-    CL-38074  37.979   3.889  10.967
78979CL-    CL-38075  16.198  18.718   4.174
78980CL-    CL-38076  16.791  26.982   2.849
78981CL-    CL-38077  43.963  22.714   2.196
78982CL-    CL-38078   4.728  22.116  11.461
78983CL-    CL-38079  33.960  38.924  13.464
78984CL-    CL-38080  24.580  29.588  11.000
78985CL-    CL-38081   7.679  41.797   0.908
78986CL-    CL-38082   8.784   9.785  13.047
78987CL-    CL-38083  42.517  31.515  13.422
78988CL-    CL-38084   3.383  43.021  13.938
78989CL-    CL-38085   5.906   6.842   0.454
78990CL-    CL-38086  22.531  19.687  10.061
78991CL-    CL-38087  39.931   8.288   0.796
78992CL-    CL-38088   9.885  25.593  12.933
78993CL-    CL-38089  11.187  26.480   4.767
78994CL-    CL-38090   7.406  15.205   0.269
78995CL-    CL-38091   6.705  15.191  12.546
78996CL-    CL-38092  24.507  11.867   3.253
78997CL-    CL-38093  13.721   3.737  14.845
78998CL-    CL-38094  42.400  25.694   4.735
78999CL-    CL-38095  37.899  31.967   2.762
79000CL-    CL-38096   3.218  20.735  11.990
79001CL-    CL-38097  26.672  24.164  13.833
79002CL-    CL-38098  16.258  39.962  11.582
79003CL-    CL-38099  11.707   9.393   3.373
79004CL-    CL-38100  17.124  17.652   4.214
79005CL-    CL-38101   2.895  21.040  13.006
79006CL-    CL-38102  16.579  33.537   3.646
79007CL-    CL-38103  17.298  21.714  12.527
79008CL-    CL-38104   1.886  17.190   3.156
79009CL-    CL-38105   5.360  39.352  14.285
79010CL-    CL-38106  39.433  39.881  12.074
79011CL-    CL-38107   1.799  27.483   4.626
79012CL-    CL-38108  36.474  31.469   0.337
79013CL-    CL-38109  15.823   0.485  11.532
79014CL-    CL-38110  11.722  15.122   0.855
79015CL-    CL-38111   1.733  25.561  14.849
79016CL-    CL-38112  22.062  44.421  11.982
79017CL-    CL-38113  13.134  41.479  14.451
79018CL-    CL-38114  16.694   3.268   2.195
79019CL-    CL-38115  34.077  26.194  12.849
79020CL-    CL-38116  37.516  14.720  14.775
79021CL-    CL-38117   9.843  22.073   4.710
79022CL-    CL-38118   7.275  14.255   4.747
79023CL-    CL-38119  40.362  40.517  12.003
79024CL-    CL-38120  39.849  20.195  13.975
79025CL-    CL-38121  10.185  39.973   2.380
79026CL-    CL-38122  38.931  37.017  12.869
79027CL-    CL-38123   2.443   0.437  14.278
79028CL-    CL-38124   6.324  37.461   5.298
79029CL-    CL-38125  15.179   1.888   1.876
79030CL-    CL-38126  25.710  14.099   0.314
79031CL-    CL-38127   1.894  37.925   0.730
79032CL-    CL-38128  25.128   5.882   1.236
79033CL-    CL-38129   3.341  10.327   1.796
79034CL-    CL-38130   8.396  13.810   3.698
79035CL-    CL-38131  41.840  27.102   1.858
79036CL-    CL-38132   6.274  18.556  14.282
79037CL-    CL-38133  11.678  40.373  12.458
79038CL-    CL-38134   4.795   7.397   3.657
79039CL-    CL-38135  32.954  36.583  12.996
79040CL-    CL-38136  24.695  31.622  13.026
79041CL-    CL-38137  30.163  43.350  13.021
79042CL-    CL-38138  29.635  39.048   1.862
79043CL-    CL-38139   3.421  20.127   2.742
79044CL-    CL-38140  37.565  15.745  13.036
79045CL-    CL-38141  39.399  28.626   0.337
79046CL-    CL-38142  18.115  37.944  13.992
79047CL-    CL-38143  41.893  32.600  12.346
79048CL-    CL-38144   4.733   6.380   4.712
79049CL-    CL-38145  38.528  17.287   4.140
79050CL-    CL-38146   9.798   8.235   1.395
79051CL-    CL-38147  19.731  28.126   2.706
79052CL-    CL-38148  21.247  12.163  10.535
79053CL-    CL-38149  10.266  37.476  12.352
79054CL-    CL-38150   5.319  43.002   1.406
79055CL-    CL-38151  29.547   9.660   2.188
79056CL-    CL-38152  27.196   2.346  12.521
79057CL-    CL-38153  10.177  29.031   1.904
79058CL-    CL-38154   0.340  40.978   2.412
79059CL-    CL-38155  20.663  32.442  11.893
79060CL-    CL-38156  24.998  12.843   1.259
79061CL-    CL-38157   6.354   9.823   1.264
79062CL-    CL-38158  18.561  13.239  14.278
79063CL-    CL-38159  30.076  13.161  13.328
79064CL-    CL-38160  26.057   1.343   1.321
79065CL-    CL-38161  38.382  29.953  10.590
79066CL-    CL-38162   7.742  41.416   9.970
79067CL-    CL-38163  23.986   4.886   0.429
79068CL-    CL-38164  38.964  17.183   4.676
79069CL-    CL-38165  41.292  29.931  12.885
79070CL-    CL-38166  12.206  11.371   3.194
79071CL-    CL-38167  35.416  36.972  11.034
79072CL-    CL-38168  26.075  25.565   0.304
79073CL-    CL-38169  29.647  37.506   3.149
79074CL-    CL-38170  35.476   8.810  10.412
79075CL-    CL-38171  15.151   2.778   4.746
79076CL-    CL-38172  40.487  29.654  13.459
79077CL-    CL-38173  22.684  44.427   2.385
79078CL-    CL-38174  20.182   3.859   2.258
79079CL-    CL-38175   1.956  26.111  14.873
79080CL-    CL-38176  17.572   5.265  11.970
79081CL-    CL-38177   7.338  32.893  14.027
79082CL-    CL-38178  11.179  23.095  12.081
79083CL-    CL-38179  24.480  40.032   1.262
79084CL-    CL-38180  35.075  25.100  14.947
79085CL-    CL-38181   4.791  10.276   2.392
79086CL-    CL-38182  12.303  33.064   1.850
79087CL-    CL-38183   6.775   0.977  13.488
79088CL-    CL-38184  25.973  16.579  14.880
79089CL-    CL-38185  20.134  39.029   1.872
79090CL-    CL-38186  16.087  32.895  14.862
79091CL-    CL-38187  26.650  38.482  12.844
79092CL-    CL-38188  33.940  43.876   0.931
79093CL-    CL-38189  20.612  24.597  10.632
79094CL-    CL-38190   5.917  33.923  13.371
79095CL-    CL-38191  33.383  28.526   1.302
79096CL-    CL-38192   2.442  25.213   1.264
79097CL-    CL-38193  23.170  17.170   2.733
79098CL-    CL-38194   4.393  16.716   4.804
79099CL-    CL-38195  29.030   7.727  13.026
79100CL-    CL-38196  43.839  44.482  12.879
79101CL-    CL-38197  33.931  28.153   3.356
79102CL-    CL-38198   2.311  13.333  11.016
79103CL-    CL-38199  10.769   0.288   3.799
79104CL-    CL-38200  38.048  44.446   0.833
79105CL-    CL-38201   4.734  13.287  11.590
79106CL-    CL-38202  34.045  38.416   1.450
79107CL-    CL-38203  12.290  17.198   0.467
79108CL-    CL-38204  29.948  20.115   0.743
79109CL-    CL-38205  38.373  19.256   0.349
79110CL-    CL-38206  33.910  14.660  14.887
79111CL-    CL-38207  25.570  13.751  14.916
79112CL-    CL-38208  35.986  21.260   1.321
79113CL-    CL-38209   5.868  26.524   0.929
79114CL-    CL-38210  15.299  22.721   2.330
79115CL-    CL-38211   6.750   3.269  13.931
79116CL-    CL-38212   9.709  38.985  13.384
79117CL-    CL-38213  34.530  21.062   4.673
79118CL-    CL-38214  34.423  34.480   0.849
79119CL-    CL-38215   6.824  42.325   1.259
79120CL-    CL-38216  30.431  29.474   3.864
79121CL-    CL-38217  31.643  11.750   2.888
79122CL-    CL-38218  38.970  35.509   4.332
79123CL-    CL-38219  10.349   3.892   4.241
79124CL-    CL-38220   8.229  42.493   4.632
79125CL-    CL-38221   0.476  37.395   0.748
79126CL-    CL-38222   1.351  22.084   1.783
79127CL-    CL-38223  11.176  38.867  12.350
79128CL-    CL-38224  17.764  25.627   1.895
79129CL-    CL-38225  44.373  22.008  14.835
79130CL-    CL-38226  23.997  37.951  11.565
79131CL-    CL-38227  33.925  23.720  11.948
79132CL-    CL-38228  19.201  11.137   1.773
79133CL-    CL-38229   3.904  42.906  10.923
79134CL-    CL-38230  16.648  29.055  10.985
79135CL-    CL-38231  42.454  24.632  11.056
79136CL-    CL-38232  31.535  15.611  11.406
79137CL-    CL-38233  16.083  41.019  12.915
79138CL-    CL-38234  31.051  34.450   0.832
79139CL-    CL-38235  26.111  24.173  10.945
79140CL-    CL-38236  11.691  38.395   4.303
79141CL-    CL-38237  43.441  20.213   1.436
79142CL-    CL-38238  44.785  36.909  10.575
79143CL-    CL-38239  23.141  12.322   0.941
79144CL-    CL-38240  21.102   8.806  13.845
79145CL-    CL-38241  26.024  38.831   2.805
79146CL-    CL-38242  26.469   8.854  13.496
79147CL-    CL-38243  28.038  23.216  11.064
79148CL-    CL-38244  28.049  20.599  14.318
79149CL-    CL-38245   2.965  12.296  11.928
79150CL-    CL-38246   8.365   2.305   0.363
79151CL-    CL-38247  21.071  33.507   2.331
79152CL-    CL-38248  43.338  25.138   3.864
79153CL-    CL-38249   3.902   3.244   3.300
79154CL-    CL-38250  34.510  38.501   4.704
79155CL-    CL-38251   3.325   5.842   9.999
79156CL-    CL-38252  43.966   9.731  12.096
79157CL-    CL-38253   5.802  15.154  11.043
79158CL-    CL-38254   0.914   4.330  12.387
79159CL-    CL-38255  40.911  17.693   2.748
79160CL-    CL-38256  17.608   0.779  14.899
79161CL-    CL-38257  20.212  21.661  12.561
79162CL-    CL-38258   8.374  10.694   0.934
79163CL-    CL-38259  16.166  39.044   1.774
79164CL-    CL-38260  36.521   4.295   0.301
79165CL-    CL-38261  16.107  39.001  14.355
79166CL-    CL-38262   7.407  29.445  11.566
79167CL-    CL-38263  29.664  16.735  12.066
79168CL-    CL-38264   5.711   4.252  13.546
79169CL-    CL-38265  23.150  33.047  12.996
79170CL-    CL-38266  31.617  38.870   2.781
79171CL-    CL-38267  12.665  11.359   1.372
79172CL-    CL-38268  19.102  44.916   2.683
79173CL-    CL-38269  26.521  26.470  12.982
79174CL-    CL-38270  38.485  13.615   3.796
79175CL-    CL-38271  22.094  23.667  10.990
79176CL-    CL-38272  28.521  19.141  13.987
79177CL-    CL-38273  31.080  28.149  14.422
79178CL-    CL-38274  23.009   1.739  12.358
79179CL-    CL-38275  31.646  33.612  13.343
79180CL-    CL-38276  12.664  43.350  11.493
79181CL-    CL-38277   9.813  39.537  11.120
79182CL-    CL-38278  35.039  35.050  11.006
79183CL-    CL-38279   1.436   7.775   0.361
79184CL-    CL-38280  19.697  28.028   3.161
79185CL-    CL-38281  21.733   5.857   4.609
79186CL-    CL-38282  30.162  18.582   4.760
79187CL-    CL-38283  10.866   5.898  12.452
79188CL-    CL-38284  12.193  11.649   0.932
79189CL-    CL-38285  34.022   6.312  10.410
79190CL-    CL-38286  37.541  19.567  12.827
79191CL-    CL-38287  34.609  22.030  13.472
79192CL-    CL-38288  15.192  34.489   3.769
79193CL-    CL-38289  36.469  18.062   4.162
79194CL-    CL-38290  24.050  44.831  11.598
79195CL-    CL-38291  37.504   9.753   3.752
79196CL-    CL-38292  41.025  33.884  13.437
79197CL-    CL-38293  33.466  37.069   3.302
79198CL-    CL-38294  35.490   7.740  13.498
79199CL-    CL-38295  42.290   1.772  14.853
79200CL-    CL-38296  33.960   2.420  14.289
79201CL-    CL-38297  35.406  27.646   4.115
79202CL-    CL-38298  38.029  29.515  12.016
79203CL-    CL-38299   1.744  39.014  12.062
79204CL-    CL-38300  42.989  10.746   2.194
79205CL-    CL-38301  19.740  26.164   3.230
79206CL-    CL-38302  31.064   1.794  14.400
79207CL-    CL-38303  35.379  34.018  14.810
79208CL-    CL-38304  22.738  23.736   4.809
79209CL-    CL-38305   1.907  21.164   2.847
79210CL-    CL-38306   1.310   5.198   3.193
79211CL-    CL-38307  29.556  16.758   3.791
79212CL-    CL-38308  13.723   2.381   0.423
79213CL-    CL-38309  21.052   3.764  13.356
79214CL-    CL-38310   0.423  38.037   4.322
79215CL-    CL-38311  33.402  33.428   3.168
79216CL-    CL-38312  41.834  15.286  11.890
79217CL-    CL-38313   3.426  41.792  14.360
79218CL-    CL-38314  20.104  33.907  13.840
79219CL-    CL-38315  40.523   6.709   3.800
79220CL-    CL-38316  42.519  25.123   3.785
79221CL-    CL-38317  36.037   3.456  11.513
79222CL-    CL-38318   6.757  19.169   2.193
79223CL-    CL-38319  35.559  25.007   1.732
79224CL-    CL-38320  40.379  16.163   2.224
79225CL-    CL-38321  32.624  38.539  12.026
79226CL-    CL-38322  44.258  36.958  14.345
79227CL-    CL-38323  27.966  20.704   2.331
79228CL-    CL-38324  36.458  17.250   0.423
79229CL-    CL-38325  22.709  20.224  12.903
79230CL-    CL-38326   8.848  13.290   3.298
79231CL-    CL-38327  17.569   9.173   2.781
79232CL-    CL-38328  32.138   9.300   4.779
79233CL-    CL-38329  20.178  19.622  13.953
79234CL-    CL-38330  44.875  23.542   4.257
79235CL-    CL-38331  33.930  19.597   3.681
79236CL-    CL-38332  39.470   6.728   1.801
79237CL-    CL-38333  14.816  19.606   0.842
79238CL-    CL-38334  30.028  26.043   2.704
79239CL-    CL-38335  24.512  40.985  12.504
79240CL-    CL-38336  24.147  36.483   3.677
79241CL-    CL-38337  17.581  41.442   0.742
79242CL-    CL-38338  13.841  13.325   1.365
79243CL-    CL-38339  24.982  28.555  14.922
79244CL-    CL-38340  26.157  30.627  13.340
79245CL-    CL-38341  36.476  19.644   4.799
79246CL-    CL-38342  27.182  16.298  13.363
79247CL-    CL-38343   2.800   9.200  11.883
79248CL-    CL-38344  41.854  11.736  14.956
79249CL-    CL-38345  29.016   3.277  11.434
79250CL-    CL-38346  19.276  30.619  11.904
79251CL-    CL-38347  15.224   9.212  12.542
79252CL-    CL-38348  27.007  37.005   4.233
79253CL-    CL-38349  43.269  33.128   1.756
79254CL-    CL-38350   1.898  28.568   1.770
79255CL-    CL-38351  37.911  15.812   0.462
79256CL-    CL-38352  33.585  44.820  12.387
79257CL-    CL-38353  29.557   4.429   1.280
79258CL-    CL-38354  41.808  38.909   4.809
79259CL-    CL-38355   9.669  11.845  10.969
79260CL-    CL-38356  25.471  42.463  12.968
79261CL-    CL-38357  15.615  30.618  13.975
79262CL-    CL-38358  41.422  32.019   1.811
79263CL-    CL-38359  22.685   7.843  13.417
79264CL-    CL-38360  22.589  19.264  13.444
79265CL-    CL-38361  34.377  36.017  14.931
79266CL-    CL-38362  12.145  15.141   1.262
79267CL-    CL-38363   5.312  38.330  13.035
79268CL-    CL-38364   5.222   3.939  11.906
79269CL-    CL-38365   1.830  18.294  10.474
79270CL-    CL-38366  10.309   1.808  11.933
79271CL-    CL-38367  11.148  25.512  14.021
79272CL-    CL-38368  23.650  19.262   4.147
79273CL-    CL-38369  32.137  12.845   0.890
79274CL-    CL-38370  14.301  38.957  10.128
79275CL-    CL-38371  17.740  30.588   4.211
79276CL-    CL-38372   9.845   3.792   3.713
79277CL-    CL-38373   8.891  10.807   2.184
79278CL-    CL-38374  37.379  11.772  11.412
79279CL-    CL-38375   3.950   3.402  14.479
79280CL-    CL-38376  31.137  33.897  13.858
79281CL-    CL-38377  41.023  30.103   2.409
79282CL-    CL-38378  32.407  12.280   3.385
79283CL-    CL-38379  36.412   5.799  11.374
79284CL-    CL-38380  40.983   9.227   9.668
79285CL-    CL-38381   1.336  11.649  11.948
79286CL-    CL-38382  25.624  15.820   3.779
79287CL-    CL-38383   4.265  12.778   1.841
79288CL-    CL-38384  40.448  38.545   2.207
79289CL-    CL-38385  30.928  38.451  10.954
79290CL-    CL-38386  28.061  42.907  11.878
79291CL-    CL-38387  30.589  27.619  13.837
79292CL-    CL-38388  17.187  41.809   2.223
79293CL-    CL-38389  31.560  33.977  10.964
79294CL-    CL-38390  25.151  21.243   3.210
79295CL-    CL-38391  37.995  23.041  10.998
79296CL-    CL-38392  29.610  44.343   2.855
79297CL-    CL-38393   8.840   5.299   0.298
79298CL-    CL-38394  25.617  15.288   4.231
79299CL-    CL-38395  17.116  27.006   1.824
79300CL-    CL-38396  25.214  23.084  13.854
79301CL-    CL-38397   0.785   2.313  12.034
79302CL-    CL-38398   5.839  17.571   3.172
79303CL-    CL-38399  22.582  19.044  11.389
79304CL-    CL-38400  33.965  23.236   2.711
79305CL-    CL-38401  19.155  32.052   3.770
79306CL-    CL-38402  30.529  43.929   3.863
79307CL-    CL-38403   1.953  26.494   3.645
79308CL-    CL-38404  32.016   7.806   1.436
79309CL-    CL-38405  39.062  40.418  10.942
79310CL-    CL-38406  35.936  21.159  12.935
79311CL-    CL-38407  12.216  16.292  10.469
79312CL-    CL-38408  26.689   0.480  14.429
79313CL-    CL-38409  40.508   9.263  12.892
79314CL-    CL-38410  17.266   8.380   3.365
79315CL-    CL-38411  20.272  44.999  12.846
79316CL-    CL-38412  34.082  22.686   3.792
79317CL-    CL-38413   7.677  14.789   0.246
79318CL-    CL-38414  34.899  43.310   4.780
79319CL-    CL-38415  41.012  32.430  11.020
79320CL-    CL-38416  12.275  21.522   1.878
79321CL-    CL-38417  27.982  29.505   3.188
79322CL-    CL-38418  42.294  19.759   3.199
79323CL-    CL-38419  43.923  43.457   2.754
79324CL-    CL-38420  39.502  39.551  14.356
79325CL-    CL-38421  24.103  28.637  14.389
79326CL-    CL-38422  14.720  40.991  13.055
79327CL-    CL-38423  35.963  25.209   1.897
79328CL-    CL-38424  33.943  21.245   3.208
79329CL-    CL-38425  29.054  25.708  14.463
79330CL-    CL-38426  28.608  44.868  14.898
79331CL-    CL-38427  31.450  23.219   9.950
79332CL-    CL-38428   3.244  38.016  11.872
79333CL-    CL-38429   7.670  35.567  10.948
79334CL-    CL-38430  20.036  13.688  14.388
79335CL-    CL-38431  34.477  44.782   0.730
79336CL-    CL-38432   0.792   7.695   1.735
79337CL-    CL-38433  42.463  19.047   1.310
79338CL-    CL-38434  17.799   1.287  11.877
79339CL-    CL-38435  26.063  22.722   3.232
79340CL-    CL-38436  24.555  39.823  13.816
79341CL-    CL-38437   2.799  30.083   3.866
79342CL-    CL-38438  21.561  25.612  11.524
79343CL-    CL-38439  24.127  34.875   3.676
79344CL-    CL-38440  20.676  19.238  12.533
79345CL-    CL-38441   0.781  11.729   0.861
79346CL-    CL-38442  37.909  33.610  11.886
79347CL-    CL-38443   7.225   8.365  13.005
79348CL-    CL-38444   2.893  37.342  11.869
79349CL-    CL-38445  11.846  34.102  13.977
79350CL-    CL-38446  29.665  42.422   0.401
79351CL-    CL-38447  18.173  38.866  13.009
79352CL-    CL-38448  37.842  29.030  12.048
79353CL-    CL-38449  22.652  22.192  12.579
79354CL-    CL-38450  31.643  12.144  10.497
79355CL-    CL-38451   0.789  42.941  12.468
79356CL-    CL-38452  16.789  43.864  13.400
79357CL-    CL-38453  11.197  39.958   1.896
79358CL-    CL-38454  42.998  26.956  10.629
79359CL-    CL-38455  31.004  22.675   0.874
79360CL-    CL-38456   7.832  15.200   2.888
79361CL-    CL-38457  24.497   6.391  13.907
79362CL-    CL-38458  33.913  37.945   2.250
79363CL-    CL-38459  12.736  19.084  10.617
79364CL-    CL-38460  37.929   9.737  14.449
79365CL-    CL-38461  12.855   0.848  12.874
79366CL-    CL-38462  30.071  43.432   0.887
79367CL-    CL-38463  28.579  29.060  13.517
79368CL-    CL-38464  20.190   7.218   0.317
79369CL-    CL-38465  29.118  28.001  10.984
79370CL-    CL-38466   0.772  35.572   4.767
79371CL-    CL-38467  17.262   1.261  12.047
79372CL-    CL-38468   7.844   5.860   4.224
79373CL-    CL-38469   7.194   4.788   2.898
79374CL-    CL-38470  41.456   2.945   1.805
79375CL-    CL-38471  18.221  18.256   0.410
79376CL-    CL-38472  40.846  11.342  11.927
79377CL-    CL-38473  36.922  28.113   2.697
79378CL-    CL-38474   9.181  29.072   0.461
79379CL-    CL-38475  20.703  28.468   3.730
79380CL-    CL-38476  10.148  12.234   1.347
79381CL-    CL-38477  28.562  22.178   1.248
79382CL-    CL-38478   8.395  11.716  11.940
79383CL-    CL-38479  10.700  18.155   1.842
79384CL-    CL-38480  11.685   3.952  12.035
79385CL-    CL-38481   0.804  19.573   9.957
79386CL-    CL-38482  23.111   8.249   0.244
79387CL-    CL-38483  24.990   3.434  11.404
79388CL-    CL-38484  37.085  26.193   0.429
79389CL-    CL-38485  25.485  13.171  10.522
79390CL-    CL-38486  41.922  24.142  14.816
79391CL-    CL-38487  10.634   6.302   1.799
79392CL-    CL-38488   0.349  18.074   4.341
79393CL-    CL-38489  25.079  21.651   1.887
79394CL-    CL-38490  43.872  12.180  15.000
79395CL-    CL-38491  41.318   9.330  10.950
79396CL-    CL-38492   1.326  12.257   1.813
79397CL-    CL-38493  13.757  36.523  10.923
79398CL-    CL-38494  29.554  27.579  12.494
79399CL-    CL-38495  29.934  17.786   2.671
79400CL-    CL-38496  22.058   5.912   2.226
79401CL-    CL-38497  16.578  37.035  13.411
79402CL-    CL-38498  25.494  36.012   0.444
79403CL-    CL-38499  32.894   4.428  11.584
79404CL-    CL-38500  39.360  25.471  11.963
79405CL-    CL-38501  10.332   5.750  14.887
79406CL-    CL-38502  41.305  29.100  13.988
79407CL-    CL-38503   6.269  26.549   4.188
79408CL-    CL-38504  37.494  43.794   1.900
79409CL-    CL-38505  30.089  21.638   1.780
79410CL-    CL-38506  42.837   0.952   4.340
79411CL-    CL-38507  24.100   8.212  10.104
79412CL-    CL-38508  40.469  33.016   0.771
79413CL-    CL-38509  33.091  23.083  11.114
79414CL-    CL-38510  12.751  11.757  13.843
79415CL-    CL-38511  43.349  26.199  14.968
79416CL-    CL-38512   5.900  25.990  10.485
79417CL-    CL-38513  24.995  28.074   3.815
79418CL-    CL-38514  22.656  27.986   1.389
79419CL-    CL-38515  26.547  38.548   1.728
79420CL-    CL-38516  34.555  31.135  12.826
79421CL-    CL-38517   1.431  35.562  12.389
79422CL-    CL-38518   5.758  26.953  12.980
79423CL-    CL-38519   5.776  18.580  14.802
79424CL-    CL-38520   8.176  25.039   1.359
79425CL-    CL-38521  33.452  13.795   5.087
79426CL-    CL-38522  15.209   9.217   1.243
79427CL-    CL-38523  37.341   2.333   2.793
79428CL-    CL-38524  30.495  26.525  12.057
79429CL-    CL-38525  24.484   9.705  13.035
79430CL-    CL-38526  32.069  28.140   2.268
79431CL-    CL-38527  36.498  20.713  11.080
79432CL-    CL-38528  40.961   8.854   3.354
79433CL-    CL-38529  24.079  35.940   1.838
79434CL-    CL-38530  23.055  35.904   3.735
79435CL-    CL-38531   2.766  33.590   0.325
79436CL-    CL-38532  32.005  37.927  14.366
79437CL-    CL-38533  29.565  28.957  14.471
79438CL-    CL-38534  16.109  21.554   2.370
79439CL-    CL-38535  20.194  17.063  11.120
79440CL-    CL-38536  28.652  14.243   4.835
79441CL-    CL-38537  19.047  10.806   4.652
79442CL-    CL-38538  29.094  43.990  14.024
79443CL-    CL-38539   3.320  32.613  13.528
79444CL-    CL-38540   1.903  36.465  12.838
79445CL-    CL-38541   7.839   1.841   9.925
79446CL-    CL-38542  22.044   6.395  13.916
79447CL-    CL-38543  16.700  11.173   0.741
79448CL-    CL-38544   6.876  43.813   3.238
79449CL-    CL-38545  41.444   6.916  10.536
79450CL-    CL-38546  28.159  14.257  11.954
79451CL-    CL-38547  31.473   3.714  14.828
79452CL-    CL-38548  37.969  35.938  14.885
79453CL-    CL-38549   5.790  22.222  13.983
79454CL-    CL-38550   7.344  41.859  14.320
79455CL-    CL-38551   7.665  11.785   0.892
79456CL-    CL-38552  38.569  23.618  10.908
79457CL-    CL-38553  21.144   7.720   3.260
79458CL-    CL-38554  20.668  21.580  14.303
79459CL-    CL-38555  19.234  35.451  10.081
79460CL-    CL-38556  34.399  13.713   3.190
79461CL-    CL-38557  37.006   5.711   3.787
79462CL-    CL-38558  32.967   5.846   3.781
79463CL-    CL-38559   1.753  12.239  11.494
79464CL-    CL-38560  39.891  25.583   4.274
79465CL-    CL-38561  15.274  27.127  11.064
79466CL-    CL-38562  20.673  41.298  14.287
79467CL-    CL-38563  28.953   5.897   4.216
79468CL-    CL-38564   0.435  30.028  12.946
79469CL-    CL-38565  37.566  29.566   2.695
79470CL-    CL-38566  34.936  11.834  11.066
79471CL-    CL-38567  37.016  44.793   2.348
79472CL-    CL-38568  19.222  42.828  14.333
79473CL-    CL-38569   0.934   2.450   2.811
79474CL-    CL-38570  42.502  43.015  14.814
79475CL-    CL-38571  12.635  20.626   0.829
79476CL-    CL-38572  40.047   3.299  13.814
79477CL-    CL-38573   7.305  42.475  10.602
79478CL-    CL-38574   7.667  25.981   1.875
79479CL-    CL-38575   2.237  38.998   4.688
79480CL-    CL-38576   7.185  19.093  13.886
79481CL-    CL-38577   2.900  39.029  14.869
79482CL-    CL-38578   9.374  12.275  10.967
79483CL-    CL-38579  23.155  23.091  14.785
79484CL-    CL-38580  19.120  18.264   2.356
79485CL-    CL-38581  31.956  38.904   4.158
79486CL-    CL-38582  28.487  12.702   3.656
79487CL-    CL-38583  37.356   8.809  12.965
79488CL-    CL-38584   4.255  34.397  11.578
79489CL-    CL-38585  11.752   5.767  10.948
79490CL-    CL-38586  20.661   0.474   3.668
79491CL-    CL-38587  21.064   6.854   2.902
79492CL-    CL-38588  44.447  11.163   2.664
79493CL-    CL-38589  41.337  19.665  10.612
79494CL-    CL-38590  32.465  19.099  12.073
79495CL-    CL-38591  40.003  17.662  10.423
79496CL-    CL-38592  15.780  28.181  11.105
79497CL-    CL-38593  11.210  17.177   4.312
79498CL-    CL-38594  39.539  27.473  14.904
79499CL-    CL-38595  25.136  25.061  11.077
79500CL-    CL-38596  40.968  23.029   3.707
79501CL-    CL-38597  14.130  16.724   1.391
79502CL-    CL-38598  42.901  38.539  13.989
79503CL-    CL-38599  10.247  35.554   0.260
79504CL-    CL-38600  39.342   9.294  14.297
79505CL-    CL-38601  31.993  44.869   0.924
79506CL-    CL-38602  14.623  18.122  14.945
79507CL-    CL-38603  30.602  15.265   3.282
79508CL-    CL-38604  21.100  24.075   4.613
79509CL-    CL-38605  27.990  15.786  13.934
79510CL-    CL-38606  29.024  15.244   1.861
79511CL-    CL-38607  41.876   1.464  14.768
79512CL-    CL-38608  24.115   6.777  12.428
79513CL-    CL-38609   0.384  39.993   4.226
79514CL-    CL-38610  24.654  20.706   0.860
79515CL-    CL-38611  23.673  19.130   1.820
79516CL-    CL-38612  43.988  42.518  12.988
79517CL-    CL-38613  10.795   1.342   4.638
79518CL-    CL-38614  26.513  25.481   3.767
79519CL-    CL-38615   3.865   0.865  10.546
79520CL-    CL-38616   4.873  40.508   2.270
79521CL-    CL-38617  15.714  17.604  11.480
79522CL-    CL-38618  37.378  20.106  14.347
79523CL-    CL-38619  29.591  42.903   4.625
79524CL-    CL-38620  37.439  40.320   3.154
79525CL-    CL-38621  24.546  31.599   4.309
79526CL-    CL-38622  36.558  10.777  12.032
79527CL-    CL-38623  40.824  35.878  11.092
79528CL-    CL-38624  22.679   3.239   5.243
79529CL-    CL-38625  25.663  38.440   1.351
79530CL-    CL-38626  23.615  18.202   3.718
79531CL-    CL-38627   3.888  40.902   1.313
79532CL-    CL-38628  22.111   6.708  12.393
79533CL-    CL-38629  27.487   1.400  12.389
79534CL-    CL-38630  11.720  39.829  12.015
79535CL-    CL-38631  30.596  13.678   3.634
79536CL-    CL-38632   2.960  40.800   0.795
79537CL-    CL-38633  11.286  40.334  14.453
79538CL-    CL-38634   6.705  20.054  14.355
79539CL-    CL-38635  10.160  30.086   0.477
79540CL-    CL-38636  40.873  38.886  12.087
79541CL-    CL-38637   9.222   0.773   0.404
79542CL-    CL-38638  22.641  20.136  14.952
79543CL-    CL-38639   1.973   9.660   2.198
79544CL-    CL-38640  35.563   7.840  14.852
79545CL-    CL-38641  14.778  27.109   3.634
79546CL-    CL-38642  41.496  40.410  14.787
79547CL-    CL-38643  16.797  32.000  13.329
79548CL-    CL-38644  37.010   5.809   1.767
79549CL-    CL-38645  22.735  22.542   2.829
79550CL-    CL-38646  21.170   9.184  11.979
79551CL-    CL-38647   7.413  23.579  11.916
79552CL-    CL-38648   4.437  17.743  13.399
79553CL-    CL-38649   2.720  27.981   2.359
79554CL-    CL-38650  39.413  18.197   1.439
79555CL-    CL-38651  14.708  23.601  11.868
79556CL-    CL-38652  14.755   0.267   0.340
79557CL-    CL-38653  11.206  28.539  13.333
79558CL-    CL-38654  15.652  38.970  14.832
79559CL-    CL-38655  39.833   4.906   4.608
79560CL-    CL-38656   8.899   4.231  13.803
79561CL-    CL-38657  21.245  36.013  13.394
79562CL-    CL-38658   3.260  21.580   2.282
79563CL-    CL-38659  23.133  37.482   0.346
79564CL-    CL-38660   9.159  39.021  14.357
79565CL-    CL-38661  12.611   0.360   0.880
79566CL-    CL-38662  14.673  15.323   4.307
79567CL-    CL-38663  14.612  32.612   1.432
79568CL-    CL-38664  20.187  27.492  12.058
79569CL-    CL-38665  41.463  28.474   0.467
79570CL-    CL-38666  34.101   1.360  14.455
79571CL-    CL-38667   6.900  29.527  14.339
79572CL-    CL-38668  24.545  37.527  13.352
79573CL-    CL-38669  27.475  44.379   3.242
79574CL-    CL-38670  24.631  20.071   0.288
79575CL-    CL-38671  39.509  11.797   3.165
79576CL-    CL-38672   7.881   9.302  14.994
79577CL-    CL-38673  24.005   3.445  14.416
79578CL-    CL-38674  28.133  41.527   1.266
79579CL-    CL-38675  19.730  22.683   1.411
79580CL-    CL-38676  22.666  33.604   5.255
79581CL-    CL-38677  22.724  21.032  12.406
79582CL-    CL-38678  36.409   1.812  10.500
79583CL-    CL-38679  16.699  27.025  13.943
79584CL-    CL-38680  44.787  27.678  11.943
79585CL-    CL-38681  23.039   2.231   1.893
79586CL-    CL-38682   6.183  24.158  10.023
79587CL-    CL-38683  27.541  26.567  13.531
79588CL-    CL-38684   0.919  17.621  11.597
79589CL-    CL-38685   5.934   1.270  11.503
79590CL-    CL-38686   0.484  17.231  14.769
79591CL-    CL-38687  38.959  15.745   2.282
79592CL-    CL-38688  20.635   7.828   0.963
79593CL-    CL-38689  25.602  19.675  13.981
79594CL-    CL-38690  10.320  23.705   9.983
79595CL-    CL-38691  28.117  42.993  10.408
79596CL-    CL-38692  32.556   6.357  12.036
79597CL-    CL-38693  27.552  22.065  11.968
79598CL-    CL-38694  34.980   5.849   0.967
79599CL-    CL-38695  13.630  22.039   0.389
79600CL-    CL-38696  43.299  26.689   3.677
79601CL-    CL-38697  33.447  32.417   3.658
79602CL-    CL-38698  34.372  15.111  10.442
79603CL-    CL-38699  43.765  29.567  11.996
79604CL-    CL-38700  44.337  26.086   1.425
79605CL-    CL-38701   5.358  33.892   2.407
79606CL-    CL-38702   1.807   5.336   4.122
79607CL-    CL-38703   4.924  30.474  12.380
79608CL-    CL-38704   3.405  28.560   3.172
79609CL-    CL-38705   5.305  35.507  12.836
79610CL-    CL-38706  21.758  13.826  13.425
79611CL-    CL-38707   6.821  43.954  13.439
79612CL-    CL-38708  20.115  35.962  12.093
79613CL-    CL-38709   5.830  10.146  10.543
79614CL-    CL-38710  12.801  44.976   2.765
79615CL-    CL-38711  31.475  27.686  13.882
79616CL-    CL-38712  34.948  22.544  14.363
79617CL-    CL-38713   3.305   7.908   4.716
79618CL-    CL-38714  21.037   5.282   0.728
79619CL-    CL-38715  18.241   6.853   0.271
79620CL-    CL-38716  19.265  10.278   0.291
79621CL-    CL-38717  11.759   8.799  11.605
79622CL-    CL-38718  16.803   2.330   4.641
79623CL-    CL-38719  38.521  23.010   3.365
79624CL-    CL-38720  19.250  29.510   3.201
79625CL-    CL-38721  14.190  33.931  14.441
79626CL-    CL-38722   5.379  27.487   3.320
79627CL-    CL-38723   2.289  21.237  10.579
79628CL-    CL-38724  23.052  35.888   2.269
79629CL-    CL-38725   1.427   1.917   4.226
79630CL-    CL-38726   5.372  36.862  13.444
79631CL-    CL-38727  10.155  21.025   3.251
79632CL-    CL-38728  23.695  20.743   5.246
79633CL-    CL-38729  13.346   9.173   2.188
79634CL-    CL-38730  28.592  18.089  11.020
79635CL-    CL-38731  30.005  19.070  10.607
79636CL-    CL-38732  13.711   6.209   1.713
79637CL-    CL-38733  13.698  25.635   4.292
79638CL-    CL-38734  30.039  35.970   1.856
79639CL-    CL-38735   7.816  13.830   4.723
79640CL-    CL-38736  40.948  30.916  14.421
79641CL-    CL-38737  28.583  35.877  14.411
79642CL-    CL-38738   6.349  12.695   4.796
79643CL-    CL-38739  34.483  16.161  12.472
79644CL-    CL-38740  17.149  14.265   2.363
79645CL-    CL-38741   6.259  35.013  11.910
79646CL-    CL-38742   0.356  23.119   2.289
79647CL-    CL-38743  25.133   5.834  11.442
79648CL-    CL-38744  27.049  34.939   3.352
79649CL-    CL-38745   8.766  37.857  14.430
79650CL-    CL-38746  21.130  16.809  13.819
79651CL-    CL-38747  12.846  38.388  14.280
79652CL-    CL-38748  35.464  24.185  11.439
79653CL-    CL-38749   4.447   9.279  12.471
79654CL-    CL-38750  39.928  27.163  12.501
79655CL-    CL-38751  44.894  24.128   0.948
79656CL-    CL-38752  10.215  34.540   4.123
79657CL-    CL-38753  30.924  17.234  11.569
79658CL-    CL-38754  13.138  28.552   3.704
79659CL-    CL-38755  39.054   5.794  14.946
79660CL-    CL-38756  23.007  41.037   1.848
79661CL-    CL-38757  38.878  12.750   1.832
79662CL-    CL-38758   4.782  37.905   3.842
79663CL-    CL-38759  33.552  29.522   2.260
79664CL-    CL-38760  20.273   1.302  10.404
79665CL-    CL-38761   0.797  44.477  10.104
79666CL-    CL-38762   6.301  19.554  11.915
79667CL-    CL-38763   7.731   6.795  11.416
79668CL-    CL-38764  41.041  37.043  14.828
79669CL-    CL-38765  36.379  22.603  12.051
79670CL-    CL-38766   8.764  19.573   0.467
79671CL-    CL-38767   2.244  25.549  13.459
79672CL-    CL-38768  26.541  44.796   4.830
79673CL-    CL-38769  37.395  37.358   4.611
79674CL-    CL-38770  33.053  25.667   3.636
79675CL-    CL-38771  35.056   4.862  10.029
79676CL-    CL-38772  17.556   2.837  12.517
79677CL-    CL-38773   1.943  24.055   4.269
79678CL-    CL-38774   1.242   1.735   2.894
79679CL-    CL-38775   4.776  35.542   4.113
79680CL-    CL-38776  43.812  40.424  10.927
79681CL-    CL-38777   3.399   5.783   0.862
79682CL-    CL-38778   9.815  11.845  13.335
79683CL-    CL-38779   1.463  12.664  12.535
79684CL-    CL-38780  42.285  43.933   4.121
79685CL-    CL-38781  29.496  10.175  12.398
79686CL-    CL-38782   0.390   8.356   2.775
79687CL-    CL-38783   7.271  42.346  13.933
79688CL-    CL-38784  27.989  21.711   3.837
79689CL-    CL-38785  18.655  11.659   2.217
79690CL-    CL-38786  20.042  36.368   9.949
79691CL-    CL-38787  23.167  36.499  12.931
79692CL-    CL-38788  25.991  26.586  14.001
79693CL-    CL-38789   1.455  31.601  10.983
79694CL-    CL-38790  31.635  21.728  13.902
79695CL-    CL-38791   5.292  14.256  12.092
79696CL-    CL-38792  39.831   1.452   2.875
79697CL-    CL-38793  22.644  23.089   3.375
79698CL-    CL-38794  41.828  27.584   4.712
79699CL-    CL-38795   2.265  26.970  10.584
79700CL-    CL-38796  14.280  14.800  12.002
79701CL-    CL-38797  12.261  21.582   0.897
79702CL-    CL-38798   2.737  21.738  12.976
79703CL-    CL-38799  21.585  36.937  10.473
79704CL-    CL-38800  21.533  38.063   3.210
79705CL-    CL-38801   1.354  22.014   4.638
79706CL-    CL-38802  44.268  41.353  10.916
79707CL-    CL-38803  32.468  14.779   3.849
79708CL-    CL-38804  36.891  31.449   4.788
79709CL-    CL-38805  32.010  12.265   1.298
79710CL-    CL-38806   7.829  33.416   2.860
79711CL-    CL-38807   9.693  23.527   3.341
79712CL-    CL-38808  34.029   0.843  11.924
79713CL-    CL-38809  23.155  22.061   1.260
79714CL-    CL-38810  30.429  41.869  14.304
79715CL-    CL-38811   6.691  42.806  14.410
79716CL-    CL-38812  38.041  21.028  11.894
79717CL-    CL-38813   6.891  39.349   1.816
79718CL-    CL-38814  39.897  30.451   1.785
79719CL-    CL-38815  43.373  26.582   3.327
79720CL-    CL-38816  37.501  16.596  12.964
79721CL-    CL-38817  24.610  31.484   1.353
79722CL-    CL-38818  13.804  33.616   4.826
79723CL-    CL-38819  14.220   6.192  13.350
79724CL-    CL-38820  41.343  26.130  10.924
79725CL-    CL-38821  40.842  15.214  12.035
79726CL-    CL-38822   8.323  36.025  10.629
79727CL-    CL-38823   8.712  32.420   4.615
79728CL-    CL-38824   8.337  10.675  12.025
79729CL-    CL-38825  27.630  24.702  13.938
79730CL-    CL-38826   5.240  19.269   2.742
79731CL-    CL-38827   4.898  10.180  11.972
79732CL-    CL-38828  33.425  35.915   4.699
79733CL-    CL-38829  14.180  27.047   3.692
79734CL-    CL-38830   4.407  38.497  14.901
79735CL-    CL-38831  19.662   8.660   2.410
79736CL-    CL-38832   4.225  40.527   2.686
79737CL-    CL-38833  20.087  34.957   1.723
79738CL-    CL-38834  28.454   9.684  14.909
79739CL-    CL-38835   5.920  20.588   4.163
79740CL-    CL-38836   5.309  36.078  11.124
79741CL-    CL-38837  43.811  28.009  11.580
79742CL-    CL-38838  44.855  42.341  11.405
79743CL-    CL-38839  27.062  16.807  13.968
79744CL-    CL-38840  20.655  40.938  13.488
79745CL-    CL-38841  36.493  30.451  13.021
79746CL-    CL-38842  15.634  14.271  14.813
79747CL-    CL-38843  41.461  19.057   1.817
79748CL-    CL-38844  37.943  20.130  14.944
79749CL-    CL-38845  23.018  30.479  13.811
79750CL-    CL-38846  31.599  34.988   0.777
79751CL-    CL-38847  21.234  34.602   1.283
79752CL-    CL-38848  25.484   1.273  11.050
79753CL-    CL-38849   9.377   6.699  12.373
79754CL-    CL-38850  17.283  28.546   0.408
79755CL-    CL-38851  17.780  12.781  12.515
79756CL-    CL-38852   2.789  19.779  14.450
79757CL-    CL-38853   4.747  23.161  12.861
79758CL-    CL-38854  37.953  37.442  14.943
79759CL-    CL-38855  44.852  22.552  11.996
79760CL-    CL-38856  39.340  21.152   0.882
79761CL-    CL-38857  36.412  32.917  13.429
79762CL-    CL-38858  21.206  39.374   5.315
79763CL-    CL-38859  11.345   8.315   4.819
79764CL-    CL-38860  25.590  36.862   3.793
79765CL-    CL-38861  43.848  18.717  10.632
79766CL-    CL-38862  32.079  39.816  12.965
79767CL-    CL-38863   9.765  21.690  11.471
79768CL-    CL-38864  33.612   8.660  12.397
79769CL-    CL-38865  43.830  35.415   4.810
79770CL-    CL-38866  39.924   7.262   4.756
79771CL-    CL-38867  40.345  40.967  12.508
79772CL-    CL-38868  32.902  15.676  14.416
79773CL-    CL-38869  19.175  26.651   0.899
79774CL-    CL-38870  20.640   7.775   1.855
79775CL-    CL-38871   6.749  36.047  14.966
79776CL-    CL-38872  25.621  25.587  11.983
79777CL-    CL-38873   3.248  12.306   4.183
79778CL-    CL-38874  39.531  32.432   4.178
79779CL-    CL-38875   3.717  15.687  14.964
79780CL-    CL-38876  32.632  19.203   1.286
79781CL-    CL-38877   5.237  32.509   2.744
79782CL-    CL-38878  39.066  34.086  13.052
79783CL-    CL-38879  14.721  13.715  12.366
79784CL-    CL-38880  12.150  19.085  10.606
79785CL-    CL-38881  27.485   3.306   3.145
79786CL-    CL-38882  27.155  28.082  11.569
79787CL-    CL-38883   8.303  24.580  13.828
79788CL-    CL-38884   8.755  22.169   0.915
79789CL-    CL-38885  29.156  31.962   2.837
79790CL-    CL-38886   1.241  35.414  11.492
79791CL-    CL-38887  30.034  34.530   2.740
79792CL-    CL-38888  36.934  44.877   1.238
79793CL-    CL-38889  11.128  38.864   0.478
79794CL-    CL-38890  10.840  18.156   4.612
79795CL-    CL-38891  27.585  25.109  12.975
79796CL-    CL-38892   5.288  29.624   4.670
79797CL-    CL-38893  10.375  29.572   2.665
79798CL-    CL-38894  37.085  28.491   2.734
79799CL-    CL-38895  12.321   2.388  11.583
79800CL-    CL-38896  29.159   8.764  14.498
79801CL-    CL-38897  43.383   8.894   9.940
79802CL-    CL-38898   8.337   7.756   4.636
79803CL-    CL-38899  12.643  30.462  13.337
79804CL-    CL-38900  31.428  36.855   3.337
79805CL-    CL-38901  35.505  41.019  10.424
79806CL-    CL-38902  22.607   1.471  10.995
79807CL-    CL-38903   9.262  30.454  13.405
79808CL-    CL-38904  33.550  19.693  10.120
79809CL-    CL-38905  21.056  29.079  10.522
  45.00000  45.00000  15.00000   0.00000   0.00000   0.00000   0.00000   0.00000   0.00000

